You are running Q-Chem version: 5.4.0

#
# job setting
#
local host:  exp-2-38
current dir: /expanse/lustre/projects/csd626/rramji/aromodel/PNDIT/Hydrogenated_Impropers_Test
input file:  Dimethyl_Naphthalene_Dicarboximide_Phi_15_Theta_180_Thiophene_Hydrogenated_Improper.qcin
output file: 
nprocs     : 1
nthreads   : 64
#
# qchem installation setting
#
QC:          /cm/shared/apps/spack/cpu/opt/spack/linux-centos8-zen2/gcc-10.2.0/qchem-5.4-akfmr7b3t57bfs6qan3padb2wnb2i7cl
QCAUX:       /cm/shared/apps/spack/cpu/opt/spack/linux-centos8-zen2/gcc-10.2.0/qchem-5.4-akfmr7b3t57bfs6qan3padb2wnb2i7cl/qcaux
QCPROG:      /cm/shared/apps/spack/cpu/opt/spack/linux-centos8-zen2/gcc-10.2.0/qchem-5.4-akfmr7b3t57bfs6qan3padb2wnb2i7cl/exe/qcprog.exe
QCPROG_S:    /cm/shared/apps/spack/cpu/opt/spack/linux-centos8-zen2/gcc-10.2.0/qchem-5.4-akfmr7b3t57bfs6qan3padb2wnb2i7cl/exe/qcprog.exe_s
PARALLEL:    -DPARALLEL
QCMPI:       mpich
#
# qchem directory setting
#
qcrun:       qchem3741740
QCSCRATCH:   .
QCLOCALSCR:  
QCTMPDIR:    .
QCFILEPREF:  ./qchem3741740
QCSAVEDIR:   
workdirs:    ./qchem3741740
workdir0:    ./qchem3741740
partmpdirs =  
#
# parallel setting
#
QCRSH:           ssh
QCMPI:           mpich
QCMPIRUN:        /cm/shared/apps/spack/cpu/opt/spack/linux-centos8-zen2/gcc-10.2.0/qchem-5.4-akfmr7b3t57bfs6qan3padb2wnb2i7cl/bin/mpi/mpirun_qchem
QCMACHINEFILE:   ./qchem3741740/hostfile
exp-2-38

#
# env setting
#
exported envs:   QC QCAUX QCSCRATCH QCRUNNAME QCFILEPREF QCPROG QCPROG_S GUIFILE

Running Job 1 of 1 Dimethyl_Naphthalene_Dicarboximide_Phi_15_Theta_180_Thiophene_Hydrogenated_Improper.qcin
qchem Dimethyl_Naphthalene_Dicarboximide_Phi_15_Theta_180_Thiophene_Hydrogenated_Improper.qcin_3741740.0 ./qchem3741740/ 1
/cm/shared/apps/spack/cpu/opt/spack/linux-centos8-zen2/gcc-10.2.0/qchem-5.4-akfmr7b3t57bfs6qan3padb2wnb2i7cl/bin/mpi/mpirun_qchem -machinefile ./qchem3741740/hostfile -np 1 /cm/shared/apps/spack/cpu/opt/spack/linux-centos8-zen2/gcc-10.2.0/qchem-5.4-akfmr7b3t57bfs6qan3padb2wnb2i7cl/exe/qcprog.exe Dimethyl_Naphthalene_Dicarboximide_Phi_15_Theta_180_Thiophene_Hydrogenated_Improper.qcin_3741740.0 ./qchem3741740/

Process 0 of 1 is on exp-2-38 - thread support 0
initial socket setup ...start
initial socket setup ...done 
now start server 0 ... 
                  Welcome to Q-Chem
     A Quantum Leap Into The Future Of Chemistry


 Q-Chem 5.4, Q-Chem, Inc., Pleasanton, CA (2021)

 License issued to: University of California, San Diego (site)

 E. Epifanovsky,  A. T. B. Gilbert,  Xintian Feng,  Joonho Lee,  Yuezhi Mao,  
 N. Mardirossian,  P. Pokhilko,  A. White,  M. Wormit,  M. P. Coons,  
 A. L. Dempwolff,  Zhengting Gan,  D. Hait,  P. R. Horn,  L. D. Jacobson,  
 I. Kaliman,  J. Kussmann,  A. W. Lange,  Ka Un Lao,  D. S. Levine,  Jie Liu,  
 S. C. McKenzie,  A. F. Morrison,  K. Nanda,  F. Plasser,  D. R. Rehn,  
 M. L. Vidal,  Zhi-Qiang You,  Ying Zhu,  B. Alam,  B. Albrecht,  
 A. Aldossary,  E. Alguire,  J. H. Andersen,  D. Barton,  K. Begam,  A. Behn,  
 Y. A. Bernard,  E. J. Berquist,  H. Burton,  A. Carreras,  K. Carter-Fenk,  
 R. Chakraborty,  A. D. Chien,  K. D. Closser,  V. Cofer-Shabica,  
 S. Dasgupta,  Jia Deng,  M. de Wergifosse,  M. Diedenhofen,  Hainam Do,  
 S. Ehlert,  Po-Tung Fang,  S. Fatehi,  Qingguo Feng,  J. Gayvert,  
 Qinghui Ge,  G. Gidofalvi,  M. Goldey,  J. Gomes,  C. Gonzalez-Espinoza,  
 S. Gulania,  A. Gunina,  M. W. D. Hanson-Heine,  P. H. P. Harbach,  
 A. W. Hauser,  M. F. Herbst,  M. Hernandez Vera,  M. Hodecker,  
 Z. C. Holden,  S. Houck,  Xunkun Huang,  Kerwin Hui,  B. C. Huynh,  
 M. Ivanov,  Hyunjun Ji,  Hanjie Jiang,  B. Kaduk,  S. Kaehler,  
 K. Khistyaev,  Jaehoon Kim,  P. Klunzinger,  Z. Koczor-Benda,  
 Joong Hoon Koh,  D. Kosenkov,  L. Koulias,  T. Kowalczyk,  C. M. Krauter,  
 K. Kue,  A. Kunitsa,  T. Kus,  A. Landau,  K. V. Lawler,  D. Lefrancois,  
 S. Lehtola,  Rain Li,  Yi-Pei Li,  Jiashu Liang,  M. Liebenthal,  
 Hung-Hsuan Lin,  You-Sheng Lin,  Fenglai Liu,  Kuan-Yu Liu,  
 M. Loipersberger,  A. Luenser,  A. Manjanath,  P. Manohar,  E. Mansoor,  
 S. F. Manzer,  Shan-Ping Mao,  A. V. Marenich,  T. Markovich,  S. Mason,  
 S. A. Maurer,  P. F. McLaughlin,  M. F. S. J. Menger,  J.-M. Mewes,  
 S. A. Mewes,  P. Morgante,  J. W. Mullinax,  T. S. Nguyen-Beck,  
 K. J. Oosterbaan,  G. Paran,  Alexander C. Paul,  Suranjan K. Paul,  
 F. Pavosevic,  Zheng Pei,  S. Prager,  E. I. Proynov,  E. Ramos,  B. Rana,  
 A. E. Rask,  A. Rettig,  R. M. Richard,  F. Rob,  E. Rossomme,  T. Scheele,  
 M. Scheurer,  M. Schneider,  N. Sergueev,  S. M. Sharada,  W. Skomorowski,  
 D. W. Small,  C. J. Stein,  Yu-Chuan Su,  E. J. Sundstrom,  Zhen Tao,  
 J. Thirman,  T. Tsuchimochi,  N. M. Tubman,  S. P. Veccham,  O. Vydrov,  
 J. Wenzel,  J. Witte,  A. Yamada,  Kun Yao,  S. Yeganeh,  S. R. Yost,  
 A. Zech,  Igor Ying Zhang,  Xing Zhang,  Yu Zhang,  D. Zuev,  
 A. Aspuru-Guzik,  A. T. Bell,  N. A. Besley,  K. B. Bravaya,  B. R. Brooks,  
 D. Casanova,  Jeng-Da Chai,  S. Coriani,  C. J. Cramer,  
 A. E. DePrince, III,  R. A. DiStasio Jr.,  A. Dreuw,  B. D. Dunietz,  
 T. R. Furlani,  W. A. Goddard III,  S. Grimme,  S. Hammes-Schiffer,  
 T. Head-Gordon,  W. J. Hehre,  Chao-Ping Hsu,  T.-C. Jagau,  Yousung Jung,  
 A. Klamt,  Jing Kong,  D. S. Lambrecht,  WanZhen Liang,  N. J. Mayhall,  
 C. W. McCurdy,  J. B. Neaton,  C. Ochsenfeld,  J. A. Parkhill,  R. Peverati,  
 V. A. Rassolov,  Yihan Shao,  L. V. Slipchenko,  T. Stauch,  R. P. Steele,  
 J. E. Subotnik,  A. J. W. Thom,  A. Tkatchenko,  D. G. Truhlar,  
 T. Van Voorhis,  T. A. Wesolowski,  K. B. Whaley,  H. L. Woodcock III,  
 P. M. Zimmerman,  S. Faraji,  P. M. W. Gill,  M. Head-Gordon,  
 J. M. Herbert,  A. I. Krylov

 Contributors to earlier versions of Q-Chem not listed above: 
 R. D. Adamson,  B. Austin,  R. Baer,  J. Baker,  G. J. O. Beran,  
 K. Brandhorst,  S. T. Brown,  E. F. C. Byrd,  A. K. Chakraborty,  
 G. K. L. Chan,  Chun-Min Chang,  Yunqing Chen,  C.-L. Cheng,  
 Siu Hung Chien,  D. M. Chipman,  D. L. Crittenden,  H. Dachsel,  
 R. J. Doerksen,  A. D. Dutoi,  R. G. Edgar,  J. Fosso-Tande,  
 L. Fusti-Molnar,  D. Ghosh,  A. Ghysels,  A. Golubeva-Zadorozhnaya,  
 J. Gonthier,  M. S. Gordon,  S. R. Gwaltney,  G. Hawkins,  J. E. Herr,  
 A. Heyden,  S. Hirata,  E. G. Hohenstein,  G. Kedziora,  F. J. Keil,  
 C. Kelley,  Jihan Kim,  R. A. King,  R. Z. Khaliullin,  P. P. Korambath,  
 W. Kurlancheek,  A. Laurent,  A. M. Lee,  M. S. Lee,  S. V. Levchenko,  
 Ching Yeh Lin,  D. Liotard,  E. Livshits,  R. C. Lochan,  I. Lotan,  
 L. A. Martinez-Martinez,  P. E. Maslen,  N. Nair,  D. P. O'Neill,  
 D. Neuhauser,  E. Neuscamman,  C. M. Oana,  R. Olivares-Amaya,  R. Olson,  
 T. M. Perrine,  B. Peters,  P. A. Pieniazek,  A. Prociuk,  Y. M. Rhee,  
 J. Ritchie,  M. A. Rohrdanz,  E. Rosta,  N. J. Russ,  H. F. Schaefer III,  
 M. W. Schmidt,  N. E. Schultz,  S. Sharma,  N. Shenvi,  C. D. Sherrill,  
 A. C. Simmonett,  A. Sodt,  T. Stein,  D. Stuck,  K. S. Thanthiriwatte,  
 V. Vanovschi,  L. Vogt,  Tao Wang,  A. Warshel,  M. A. Watson,  
 C. F. Williams,  Q. Wu,  X. Xu,  Jun Yang,  W. Zhang,  Yan Zhao

 Please cite Q-Chem as follows:
 Y. Shao et al., Mol. Phys. 113, 184-215 (2015)
 DOI: 10.1080/00268976.2014.952696

 Q-Chem 5.4.0 for Intel X86 EM64T Linux

 Parts of Q-Chem use Armadillo 9.800.1 (Horizon Scraper).
 http://arma.sourceforge.net/

 Q-Chem begins on Sun Sep 24 16:00:59 2023  

 Host: 
0

     Scratch files written to ./qchem3741740//
 May1621 |scratch|qcdevops|jenkins|workspace|build_RNUM    
 Parallel job on  1  processors
 Processing $rem in /cm/shared/apps/spack/cpu/opt/spack/linux-centos8-zen2/gcc-10.2.0/qchem-5.4-akfmr7b3t57bfs6qan3padb2wnb2i7cl/config/preferences:
 Processing $rem in /home/rramji/.qchemrc:
 Symmetry turned off for PCM/SM12/SMD calculation
 Core orbitals will be frozen

 Checking the input file for inconsistencies... 	...done.

 Q-Chem warning in module forms1/BasisType.C, line 2236:

 You are not using the predefined 5D/6D in this basis set.


--------------------------------------------------------------
User input:
--------------------------------------------------------------
$molecule
0 1
C	-0.128564	-0.381707	-0.213580
S	0.076536	0.384493	1.366920
C	0.500336	1.966393	0.691320
C	0.129536	0.582293	-1.198980
C	0.471136	1.857593	-0.707080
H	0.068636	0.354693	-2.273480
H	0.699136	2.708493	-1.366180
C	-0.128564	-1.859907	-0.213580
H	-1.208564	-1.860507	-0.214080
H	-0.128564	-2.299207	-1.200180
H	-0.128464	-2.570907	0.599420
H	0.728236	2.817093	1.342420
$end

$rem
JOBTYPE		SP
EXCHANGE	HF
CORRELATION	pRIMP2
BASIS		cc-pvtz
METHOD		rimp2
AUX_BASIS	rimp2-cc-pvtz
SOLVENT_METHOD	PCM
PURECART	11111
SYMMETRY	false
MEM_TOTAL	110000
SCF_CONVERGENCE = 6
THRESH=10
GUI = 2
$end



$solvent
dielectric 4.90
$end
--------------------------------------------------------------
 ----------------------------------------------------------------
             Standard Nuclear Orientation (Angstroms)
    I     Atom           X                Y                Z
 ----------------------------------------------------------------
    1      C      -0.1285640000    -0.3817070000    -0.2135800000
    2      S       0.0765360000     0.3844930000     1.3669200000
    3      C       0.5003360000     1.9663930000     0.6913200000
    4      C       0.1295360000     0.5822930000    -1.1989800000
    5      C       0.4711360000     1.8575930000    -0.7070800000
    6      H       0.0686360000     0.3546930000    -2.2734800000
    7      H       0.6991360000     2.7084930000    -1.3661800000
    8      C      -0.1285640000    -1.8599070000    -0.2135800000
    9      H      -1.2085640000    -1.8605070000    -0.2140800000
   10      H      -0.1285640000    -2.2992070000    -1.2001800000
   11      H      -0.1284640000    -2.5709070000     0.5994200000
   12      H       0.7282360000     2.8170930000     1.3424200000
 ----------------------------------------------------------------
 Nuclear Repulsion Energy =         270.30728801 hartrees
 There are       26 alpha and       26 beta electrons
 Requested basis set is cc-pVTZ
 There are 98 shells and 268 basis functions

 Total QAlloc Memory Limit 110000 MB
 Mega-Array Size       188 MB
 MEM_STATIC part       192 MB
 Discretize the solute cavity surface with Lebedev spheres
	Using 110 Lebedev grid points for each H atom
	Using 194 Lebedev grid points for other atoms
	Atomic van der Waals radii will be scaled by 1.20
 Remove points where switching function is < 1.0e-08
 Keep 874 surface tesserae and discard 950 interior tesserae
 Molecular Surface Area = 138.023 Angst**2

                       Distance Matrix (Angstroms)
             C (  1)   S (  2)   C (  3)   C (  4)   C (  5)   H (  6)
   S (  2)  1.768363
   C (  3)  2.593826  1.771567
   C (  4)  1.402471  2.574058  2.372016
   C (  5)  2.370158  2.574337  1.402930  1.408917
   H (  6)  2.196443  3.640531  3.402055  1.100028  2.207787
   H (  7)  3.400428  3.641214  2.196256  2.207516  1.100194  2.600211
   C (  8)  1.478200  2.752704  3.981825  2.646124  3.797761  3.030929
   H (  9)  1.831188  3.031677  4.287803  2.954287  4.109587  3.283212
   H ( 10)  2.156429  3.719451  4.708358  2.893036  4.228685  2.869503
   H ( 11)  2.335287  3.060306  4.581586  3.639159  4.655972  4.105063
   H ( 12)  3.658902  2.518503  1.095244  3.436784  2.277541  4.424163
             H (  7)   C (  8)   H (  9)   H ( 10)   H ( 11)
   C (  8)  4.783707
   H (  9)  5.083544  1.080000
   H ( 10)  5.078356  1.079983  1.526843
   H ( 11)  5.693906  1.080042  1.527438  1.819995
   H ( 12)  2.710932  5.002956  5.296586  5.777149  5.506045
 
 Requested basis set is rimp2-cc-pVTZ
 There are 207 shells and 707 basis functions
 A cutoff of  1.0D-10 yielded   4360 shell pairs
 There are     32762 function pairs (     42380 Cartesian)
 Smallest overlap matrix eigenvalue = 1.24E-04

 Scale SEOQF with 1.000000e+00/1.000000e-01/1.000000e-01

 Standard Electronic Orientation quadrupole field applied
 Nucleus-field energy     =     0.0000000033 hartrees
 Guess from superposition of atomic densities
 Warning:  Energy on first SCF cycle will be non-variational
 SAD guess density has 52.000000 electrons

 -----------------------------------------------------------------------
  General SCF calculation program by
  Eric Jon Sundstrom, Paul Horn, Yuezhi Mao, Dmitri Zuev, Alec White,
  David Stuck, Shaama M.S., Shane Yost, Joonho Lee, David Small,
  Daniel Levine, Susi Lehtola, Hugh Burton, Evgeny Epifanovsky,
  Bang C. Huynh
 -----------------------------------------------------------------------
 Hartree-Fock
 using 64 threads for integral computing
 -------------------------------------------------------
 OpenMP Integral computing Module                
 Release: version 1.0, May 2013, Q-Chem Inc. Pittsburgh 
 -------------------------------------------------------
 A restricted SCF calculation will be
 performed using DIIS
 SCF converges when DIIS error is below 1.0e-06
 ---------------------------------------
  Cycle       Energy         DIIS error
 ---------------------------------------
    1    -592.5705868007      3.22e-02  
    2    -590.2963836046      2.19e-03  
    3    -590.3571641638      8.41e-04  
    4    -590.3644604926      4.02e-04  
    5    -590.3665158777      7.10e-05  
    6    -590.3666417915      3.18e-05  
    7    -590.3666719611      1.43e-05  
    8    -590.3666812676      5.66e-06  
    9    -590.3666827330      1.87e-06  
   10    -590.3666828663      6.24e-07  Convergence criterion met
 ---------------------------------------
 SCF time:   CPU 482.33s  wall 8.00s 

************** Final PCM Free Energy Summary **************
 G_electrostatic  =      -0.00614545 hartree =      -3.85632842 kcal/mol
 G_cavitation     =       0.00000000 hartree =       0.00000000 kcal/mol
 G_dispersion     =       0.00000000 hartree =       0.00000000 kcal/mol
 G_repulsion      =       0.00000000 hartree =       0.00000000 kcal/mol
 --------------------------------------------------
 Non-electrostatic Free Energy =       0.00000000 hartree =       0.00000000 kcal/mol
 Total                         =      -0.00614545 hartree =      -3.85632842 kcal/mol
 --------------------------------------------------
 SCF Energy (H0 + V/2)                       =    -590.36668287 
 Solute Internal Energy (H0)                 =    -590.36053742 
 Total Free Energy (H0 + V/2 + non-elec)     =    -590.36668287 hartree
                                             = -370460.68486146 kcal/mol
***********************************************************

 SCF   energy in the final basis set =     -590.3666828663
 Total energy in the final basis set =     -590.3666828663


 --------------------------------------------------------------
  Generalized many-body perturbation theory program
  by Joonho Lee, Fazle Rob, Xintian Feng, Evgeny Epifanovsky

 No regularization used 
 (reg. param. = 0.0000e+00)
  (P|Q)^-1/2 Time:  CPU 5.23 s  wall 0.09 s

 In RI-MP2 calculation: 
 # of frozen core orbitals: 10

 Components of the RIMP2 correlation energy:
        aaaa    correlation energy =        -0.1253040045 a.u.
        abab    correlation energy =        -0.7511953783 a.u.
        bbbb    correlation energy =        -0.1253040045 a.u.
        non-Brillouin singles      =        -0.0000000000 a.u.
        total same-spin energy     =        -0.2506080089 a.u.
        total opposite-spin energy =        -0.7511953783 a.u.

 Total  RIMP2   correlation energy =        -1.0018033872 a.u.
        RIMP2         total energy =      -591.3684862535 a.u.

 RI-MP2 Energy Time:  CPU 23.71 s  wall 0.43 s
 
 --------------------------------------------------------------
 
                    Orbital Energies (a.u.)
 --------------------------------------------------------------
 
 Alpha MOs
 -- Occupied --
-91.9769 -11.2897 -11.2634 -11.2429 -11.2335 -11.2264  -8.9769  -6.6578
 -6.6573  -6.6567  -1.1568  -1.0399  -0.9712  -0.9198  -0.7547  -0.7217
 -0.6702  -0.5980  -0.5640  -0.5549  -0.5503  -0.4944  -0.4709  -0.4540
 -0.3460  -0.2972
 -- Virtual --
  0.1088   0.1460   0.1601   0.1821   0.1886   0.1975   0.2172   0.2216
  0.2284   0.2367   0.3126   0.3337   0.3529   0.3627   0.3928   0.4106
  0.4301   0.4465   0.4542   0.4908   0.4994   0.5114   0.5218   0.5341
  0.5523   0.5600   0.5740   0.5764   0.5957   0.6151   0.6166   0.6310
  0.6321   0.6339   0.6455   0.6594   0.6844   0.7167   0.7468   0.7690
  0.7820   0.8085   0.8414   0.8562   0.8611   0.8805   0.8967   0.9333
  0.9512   0.9803   1.0163   1.0388   1.0661   1.0761   1.0889   1.1022
  1.1282   1.1436   1.1707   1.1765   1.2196   1.2309   1.2440   1.2638
  1.2886   1.3279   1.3441   1.3585   1.3966   1.4077   1.4102   1.4436
  1.4688   1.4936   1.5026   1.5176   1.5321   1.5505   1.5663   1.5917
  1.6077   1.6366   1.6452   1.6788   1.7432   1.7495   1.7700   1.7935
  1.8252   1.8962   1.9090   1.9271   1.9426   2.0225   2.0554   2.0853
  2.1462   2.1691   2.2167   2.2335   2.2452   2.2708   2.3142   2.4065
  2.4281   2.4630   2.4714   2.5323   2.5483   2.5880   2.6239   2.6640
  2.6985   2.7206   2.7354   2.7575   2.7721   2.7797   2.7966   2.8322
  2.8491   2.8837   2.9173   2.9647   3.0034   3.0116   3.0220   3.0540
  3.0752   3.1000   3.1092   3.1348   3.1660   3.2074   3.2179   3.2509
  3.2580   3.2601   3.2872   3.3109   3.3247   3.3481   3.3552   3.3929
  3.4060   3.4201   3.4306   3.4502   3.4671   3.4753   3.4913   3.4943
  3.5123   3.5180   3.5314   3.5572   3.6000   3.6079   3.6226   3.6537
  3.6631   3.7001   3.7197   3.7316   3.7442   3.8000   3.8088   3.8452
  3.8710   3.9036   3.9130   3.9217   3.9374   3.9478   3.9816   3.9891
  4.0000   4.0228   4.0793   4.1044   4.1378   4.1685   4.1857   4.2085
  4.2374   4.2423   4.2766   4.3008   4.3240   4.3638   4.3699   4.3897
  4.4431   4.4491   4.4807   4.5059   4.5367   4.5557   4.5831   4.6368
  4.6731   4.6986   4.7159   4.7693   4.7812   4.8173   4.8302   4.9322
  4.9617   5.0004   5.0221   5.0444   5.0859   5.1452   5.1645   5.1849
  5.2123   5.2990   5.3534   5.4131   5.4265   5.4981   5.5236   5.5938
  5.6191   5.6964   5.7860   5.8072   5.9030   5.9955   6.0327   6.0470
  6.1168   6.3255   6.4381   6.4653   6.6849   9.4040  11.2751  12.8011
 13.9122  14.2638
 --------------------------------------------------------------
 
          Ground-State Mulliken Net Atomic Charges

     Atom                 Charge (a.u.)
  ----------------------------------------
      1 C                     0.019720
      2 S                    -0.004941
      3 C                    -0.245804
      4 C                    -0.235399
      5 C                    -0.187389
      6 H                     0.182174
      7 H                     0.185788
      8 C                    -0.364951
      9 H                     0.137771
     10 H                     0.136079
     11 H                     0.172906
     12 H                     0.204047
  ----------------------------------------
  Sum of atomic charges =     0.000000

 -----------------------------------------------------------------
                    Cartesian Multipole Moments
 -----------------------------------------------------------------
    Charge (ESU x 10^10)
                -0.0000
    Dipole Moment (Debye)
         X      -0.4644      Y      -0.7964      Z      -1.0898
       Tot       1.4275
    Quadrupole Moments (Debye-Ang)
        XX     -47.5772     XY       3.7202     YY     -36.5296
        XZ       0.3035     YZ       0.5462     ZZ     -41.7277
    Octopole Moments (Debye-Ang^2)
       XXX     -19.8668    XXY     -18.6104    XYY      -2.4266
       YYY     -43.3716    XXZ      -6.8663    XYZ       0.7099
       YYZ      -2.9837    XZZ      -3.9840    YZZ     -11.3570
       ZZZ     -28.4780
    Hexadecapole Moments (Debye-Ang^3)
      XXXX     -89.6358   XXXY     -53.7395   XXYY    -110.4276
      XYYY     -23.0134   YYYY    -486.5363   XXXZ      -3.0514
      XXYZ      -6.3555   XYYZ       1.2481   YYYZ     -15.8615
      XXZZ     -72.2795   XYZZ      -9.1556   YYZZ    -120.4656
      XZZZ      -1.5235   YZZZ     -14.5290   ZZZZ    -307.5225
 -----------------------------------------------------------------
 Total job time:  10.05s(wall), 549.89s(cpu) 
 Sun Sep 24 16:01:09 2023

        *************************************************************
        *                                                           *
        *  Thank you very much for using Q-Chem.  Have a nice day.  *
        *                                                           *
        *************************************************************


0 sent ACK to 0 
now end server 0 ... 
cleanup process ... done
remove work dirs ./qchem3741740.0 -- ./qchem3741740.0
rm -rf ./qchem3741740.0
rm -rf ./qchem3741740
