You are running Q-Chem version: 5.4.0

#
# job setting
#
local host:  exp-3-06
current dir: /expanse/lustre/projects/csd626/rramji/aromodel/PNDIT/Hydrogenated_Impropers_Test
input file:  Dimethyl_Naphthalene_Dicarboximide_Phi_10_Theta_340_Thiophene_Hydrogenated_Improper.qcin
output file: 
nprocs     : 1
nthreads   : 64
#
# qchem installation setting
#
QC:          /cm/shared/apps/spack/cpu/opt/spack/linux-centos8-zen2/gcc-10.2.0/qchem-5.4-akfmr7b3t57bfs6qan3padb2wnb2i7cl
QCAUX:       /cm/shared/apps/spack/cpu/opt/spack/linux-centos8-zen2/gcc-10.2.0/qchem-5.4-akfmr7b3t57bfs6qan3padb2wnb2i7cl/qcaux
QCPROG:      /cm/shared/apps/spack/cpu/opt/spack/linux-centos8-zen2/gcc-10.2.0/qchem-5.4-akfmr7b3t57bfs6qan3padb2wnb2i7cl/exe/qcprog.exe
QCPROG_S:    /cm/shared/apps/spack/cpu/opt/spack/linux-centos8-zen2/gcc-10.2.0/qchem-5.4-akfmr7b3t57bfs6qan3padb2wnb2i7cl/exe/qcprog.exe_s
PARALLEL:    -DPARALLEL
QCMPI:       mpich
#
# qchem directory setting
#
qcrun:       qchem1493137
QCSCRATCH:   .
QCLOCALSCR:  
QCTMPDIR:    .
QCFILEPREF:  ./qchem1493137
QCSAVEDIR:   
workdirs:    ./qchem1493137
workdir0:    ./qchem1493137
partmpdirs =  
#
# parallel setting
#
QCRSH:           ssh
QCMPI:           mpich
QCMPIRUN:        /cm/shared/apps/spack/cpu/opt/spack/linux-centos8-zen2/gcc-10.2.0/qchem-5.4-akfmr7b3t57bfs6qan3padb2wnb2i7cl/bin/mpi/mpirun_qchem
QCMACHINEFILE:   ./qchem1493137/hostfile
exp-3-06

#
# env setting
#
exported envs:   QC QCAUX QCSCRATCH QCRUNNAME QCFILEPREF QCPROG QCPROG_S GUIFILE

Running Job 1 of 1 Dimethyl_Naphthalene_Dicarboximide_Phi_10_Theta_340_Thiophene_Hydrogenated_Improper.qcin
qchem Dimethyl_Naphthalene_Dicarboximide_Phi_10_Theta_340_Thiophene_Hydrogenated_Improper.qcin_1493137.0 ./qchem1493137/ 1
/cm/shared/apps/spack/cpu/opt/spack/linux-centos8-zen2/gcc-10.2.0/qchem-5.4-akfmr7b3t57bfs6qan3padb2wnb2i7cl/bin/mpi/mpirun_qchem -machinefile ./qchem1493137/hostfile -np 1 /cm/shared/apps/spack/cpu/opt/spack/linux-centos8-zen2/gcc-10.2.0/qchem-5.4-akfmr7b3t57bfs6qan3padb2wnb2i7cl/exe/qcprog.exe Dimethyl_Naphthalene_Dicarboximide_Phi_10_Theta_340_Thiophene_Hydrogenated_Improper.qcin_1493137.0 ./qchem1493137/

Process 0 of 1 is on exp-3-06 - thread support 0
initial socket setup ...start
initial socket setup ...done 
now start server 0 ... 
                  Welcome to Q-Chem
     A Quantum Leap Into The Future Of Chemistry


 Q-Chem 5.4, Q-Chem, Inc., Pleasanton, CA (2021)

 License issued to: University of California, San Diego (site)

 E. Epifanovsky,  A. T. B. Gilbert,  Xintian Feng,  Joonho Lee,  Yuezhi Mao,  
 N. Mardirossian,  P. Pokhilko,  A. White,  M. Wormit,  M. P. Coons,  
 A. L. Dempwolff,  Zhengting Gan,  D. Hait,  P. R. Horn,  L. D. Jacobson,  
 I. Kaliman,  J. Kussmann,  A. W. Lange,  Ka Un Lao,  D. S. Levine,  Jie Liu,  
 S. C. McKenzie,  A. F. Morrison,  K. Nanda,  F. Plasser,  D. R. Rehn,  
 M. L. Vidal,  Zhi-Qiang You,  Ying Zhu,  B. Alam,  B. Albrecht,  
 A. Aldossary,  E. Alguire,  J. H. Andersen,  D. Barton,  K. Begam,  A. Behn,  
 Y. A. Bernard,  E. J. Berquist,  H. Burton,  A. Carreras,  K. Carter-Fenk,  
 R. Chakraborty,  A. D. Chien,  K. D. Closser,  V. Cofer-Shabica,  
 S. Dasgupta,  Jia Deng,  M. de Wergifosse,  M. Diedenhofen,  Hainam Do,  
 S. Ehlert,  Po-Tung Fang,  S. Fatehi,  Qingguo Feng,  J. Gayvert,  
 Qinghui Ge,  G. Gidofalvi,  M. Goldey,  J. Gomes,  C. Gonzalez-Espinoza,  
 S. Gulania,  A. Gunina,  M. W. D. Hanson-Heine,  P. H. P. Harbach,  
 A. W. Hauser,  M. F. Herbst,  M. Hernandez Vera,  M. Hodecker,  
 Z. C. Holden,  S. Houck,  Xunkun Huang,  Kerwin Hui,  B. C. Huynh,  
 M. Ivanov,  Hyunjun Ji,  Hanjie Jiang,  B. Kaduk,  S. Kaehler,  
 K. Khistyaev,  Jaehoon Kim,  P. Klunzinger,  Z. Koczor-Benda,  
 Joong Hoon Koh,  D. Kosenkov,  L. Koulias,  T. Kowalczyk,  C. M. Krauter,  
 K. Kue,  A. Kunitsa,  T. Kus,  A. Landau,  K. V. Lawler,  D. Lefrancois,  
 S. Lehtola,  Rain Li,  Yi-Pei Li,  Jiashu Liang,  M. Liebenthal,  
 Hung-Hsuan Lin,  You-Sheng Lin,  Fenglai Liu,  Kuan-Yu Liu,  
 M. Loipersberger,  A. Luenser,  A. Manjanath,  P. Manohar,  E. Mansoor,  
 S. F. Manzer,  Shan-Ping Mao,  A. V. Marenich,  T. Markovich,  S. Mason,  
 S. A. Maurer,  P. F. McLaughlin,  M. F. S. J. Menger,  J.-M. Mewes,  
 S. A. Mewes,  P. Morgante,  J. W. Mullinax,  T. S. Nguyen-Beck,  
 K. J. Oosterbaan,  G. Paran,  Alexander C. Paul,  Suranjan K. Paul,  
 F. Pavosevic,  Zheng Pei,  S. Prager,  E. I. Proynov,  E. Ramos,  B. Rana,  
 A. E. Rask,  A. Rettig,  R. M. Richard,  F. Rob,  E. Rossomme,  T. Scheele,  
 M. Scheurer,  M. Schneider,  N. Sergueev,  S. M. Sharada,  W. Skomorowski,  
 D. W. Small,  C. J. Stein,  Yu-Chuan Su,  E. J. Sundstrom,  Zhen Tao,  
 J. Thirman,  T. Tsuchimochi,  N. M. Tubman,  S. P. Veccham,  O. Vydrov,  
 J. Wenzel,  J. Witte,  A. Yamada,  Kun Yao,  S. Yeganeh,  S. R. Yost,  
 A. Zech,  Igor Ying Zhang,  Xing Zhang,  Yu Zhang,  D. Zuev,  
 A. Aspuru-Guzik,  A. T. Bell,  N. A. Besley,  K. B. Bravaya,  B. R. Brooks,  
 D. Casanova,  Jeng-Da Chai,  S. Coriani,  C. J. Cramer,  
 A. E. DePrince, III,  R. A. DiStasio Jr.,  A. Dreuw,  B. D. Dunietz,  
 T. R. Furlani,  W. A. Goddard III,  S. Grimme,  S. Hammes-Schiffer,  
 T. Head-Gordon,  W. J. Hehre,  Chao-Ping Hsu,  T.-C. Jagau,  Yousung Jung,  
 A. Klamt,  Jing Kong,  D. S. Lambrecht,  WanZhen Liang,  N. J. Mayhall,  
 C. W. McCurdy,  J. B. Neaton,  C. Ochsenfeld,  J. A. Parkhill,  R. Peverati,  
 V. A. Rassolov,  Yihan Shao,  L. V. Slipchenko,  T. Stauch,  R. P. Steele,  
 J. E. Subotnik,  A. J. W. Thom,  A. Tkatchenko,  D. G. Truhlar,  
 T. Van Voorhis,  T. A. Wesolowski,  K. B. Whaley,  H. L. Woodcock III,  
 P. M. Zimmerman,  S. Faraji,  P. M. W. Gill,  M. Head-Gordon,  
 J. M. Herbert,  A. I. Krylov

 Contributors to earlier versions of Q-Chem not listed above: 
 R. D. Adamson,  B. Austin,  R. Baer,  J. Baker,  G. J. O. Beran,  
 K. Brandhorst,  S. T. Brown,  E. F. C. Byrd,  A. K. Chakraborty,  
 G. K. L. Chan,  Chun-Min Chang,  Yunqing Chen,  C.-L. Cheng,  
 Siu Hung Chien,  D. M. Chipman,  D. L. Crittenden,  H. Dachsel,  
 R. J. Doerksen,  A. D. Dutoi,  R. G. Edgar,  J. Fosso-Tande,  
 L. Fusti-Molnar,  D. Ghosh,  A. Ghysels,  A. Golubeva-Zadorozhnaya,  
 J. Gonthier,  M. S. Gordon,  S. R. Gwaltney,  G. Hawkins,  J. E. Herr,  
 A. Heyden,  S. Hirata,  E. G. Hohenstein,  G. Kedziora,  F. J. Keil,  
 C. Kelley,  Jihan Kim,  R. A. King,  R. Z. Khaliullin,  P. P. Korambath,  
 W. Kurlancheek,  A. Laurent,  A. M. Lee,  M. S. Lee,  S. V. Levchenko,  
 Ching Yeh Lin,  D. Liotard,  E. Livshits,  R. C. Lochan,  I. Lotan,  
 L. A. Martinez-Martinez,  P. E. Maslen,  N. Nair,  D. P. O'Neill,  
 D. Neuhauser,  E. Neuscamman,  C. M. Oana,  R. Olivares-Amaya,  R. Olson,  
 T. M. Perrine,  B. Peters,  P. A. Pieniazek,  A. Prociuk,  Y. M. Rhee,  
 J. Ritchie,  M. A. Rohrdanz,  E. Rosta,  N. J. Russ,  H. F. Schaefer III,  
 M. W. Schmidt,  N. E. Schultz,  S. Sharma,  N. Shenvi,  C. D. Sherrill,  
 A. C. Simmonett,  A. Sodt,  T. Stein,  D. Stuck,  K. S. Thanthiriwatte,  
 V. Vanovschi,  L. Vogt,  Tao Wang,  A. Warshel,  M. A. Watson,  
 C. F. Williams,  Q. Wu,  X. Xu,  Jun Yang,  W. Zhang,  Yan Zhao

 Please cite Q-Chem as follows:
 Y. Shao et al., Mol. Phys. 113, 184-215 (2015)
 DOI: 10.1080/00268976.2014.952696

 Q-Chem 5.4.0 for Intel X86 EM64T Linux

 Parts of Q-Chem use Armadillo 9.800.1 (Horizon Scraper).
 http://arma.sourceforge.net/

 Q-Chem begins on Sun Sep 24 15:13:04 2023  

 Host: 
0

     Scratch files written to ./qchem1493137//
 May1621 |scratch|qcdevops|jenkins|workspace|build_RNUM    
 Parallel job on  1  processors
 Processing $rem in /cm/shared/apps/spack/cpu/opt/spack/linux-centos8-zen2/gcc-10.2.0/qchem-5.4-akfmr7b3t57bfs6qan3padb2wnb2i7cl/config/preferences:
 Processing $rem in /home/rramji/.qchemrc:
 Symmetry turned off for PCM/SM12/SMD calculation
 Core orbitals will be frozen

 Checking the input file for inconsistencies... 	...done.

 Q-Chem warning in module forms1/BasisType.C, line 2236:

 You are not using the predefined 5D/6D in this basis set.


--------------------------------------------------------------
User input:
--------------------------------------------------------------
$molecule
0 1
C	-0.095463	-0.391505	-0.213418
S	0.042037	0.389695	1.367082
C	0.326437	2.002495	0.691482
C	0.077637	0.591395	-1.198818
C	0.306837	1.891595	-0.706918
H	0.036737	0.359295	-2.273318
H	0.459737	2.759095	-1.366018
C	-0.095463	-1.869705	-0.213418
H	0.919537	-1.870305	-0.582318
H	0.241937	-2.309005	0.713682
H	-0.373663	-2.580705	-0.977318
H	0.479237	2.869795	1.342582
$end

$rem
JOBTYPE		SP
EXCHANGE	HF
CORRELATION	pRIMP2
BASIS		cc-pvtz
METHOD		rimp2
AUX_BASIS	rimp2-cc-pvtz
SOLVENT_METHOD	PCM
PURECART	11111
SYMMETRY	false
MEM_TOTAL	110000
SCF_CONVERGENCE = 6
THRESH=10
GUI = 2
$end



$solvent
dielectric 4.90
$end
--------------------------------------------------------------
 ----------------------------------------------------------------
             Standard Nuclear Orientation (Angstroms)
    I     Atom           X                Y                Z
 ----------------------------------------------------------------
    1      C      -0.0954630000    -0.3915050000    -0.2134180000
    2      S       0.0420370000     0.3896950000     1.3670820000
    3      C       0.3264370000     2.0024950000     0.6914820000
    4      C       0.0776370000     0.5913950000    -1.1988180000
    5      C       0.3068370000     1.8915950000    -0.7069180000
    6      H       0.0367370000     0.3592950000    -2.2733180000
    7      H       0.4597370000     2.7590950000    -1.3660180000
    8      C      -0.0954630000    -1.8697050000    -0.2134180000
    9      H       0.9195370000    -1.8703050000    -0.5823180000
   10      H       0.2419370000    -2.3090050000     0.7136820000
   11      H      -0.3736630000    -2.5807050000    -0.9773180000
   12      H       0.4792370000     2.8697950000     1.3425820000
 ----------------------------------------------------------------
 Nuclear Repulsion Energy =         270.46857274 hartrees
 There are       26 alpha and       26 beta electrons
 Requested basis set is cc-pVTZ
 There are 98 shells and 268 basis functions

 Total QAlloc Memory Limit 110000 MB
 Mega-Array Size       188 MB
 MEM_STATIC part       192 MB
 Discretize the solute cavity surface with Lebedev spheres
	Using 110 Lebedev grid points for each H atom
	Using 194 Lebedev grid points for other atoms
	Atomic van der Waals radii will be scaled by 1.20
 Remove points where switching function is < 1.0e-08
 Keep 891 surface tesserae and discard 933 interior tesserae
 Molecular Surface Area = 137.999 Angst**2

                       Distance Matrix (Angstroms)
             C (  1)   S (  2)   C (  3)   C (  4)   C (  5)   H (  6)
   S (  2)  1.768378
   C (  3)  2.593854  1.771565
   C (  4)  1.402522  2.574062  2.371990
   C (  5)  2.370218  2.574354  1.402927  1.408907
   H (  6)  2.196444  3.640531  3.402069  1.100042  2.207828
   H (  7)  3.400443  3.641204  2.196251  2.207460  1.100158  2.600224
   C (  8)  1.478200  2.760756  3.998847  2.656688  3.814809  3.037944
   H (  9)  1.831164  3.110911  4.119820  2.673730  3.813505  2.934269
   H ( 10)  2.156423  2.783859  4.312385  3.478070  4.434789  4.010499
   H ( 11)  2.335281  3.806875  4.927551  3.211690  4.531850  3.239081
   H ( 12)  3.658892  2.518460  1.095212  3.436729  2.277509  4.424155
             H (  7)   C (  8)   H (  9)   H ( 10)   H ( 11)
   C (  8)  4.802346
   H (  9)  4.717727  1.079960
   H ( 10)  5.482538  1.079971  1.526832
   H ( 11)  5.418404  1.080028  1.527436  1.819963
   H ( 12)  2.710931  5.021382  5.134944  5.222241  5.984758
 
 Requested basis set is rimp2-cc-pVTZ
 There are 207 shells and 707 basis functions
 A cutoff of  1.0D-10 yielded   4371 shell pairs
 There are     32805 function pairs (     42436 Cartesian)
 Smallest overlap matrix eigenvalue = 1.19E-04

 Scale SEOQF with 1.000000e+00/1.000000e-01/1.000000e-01

 Standard Electronic Orientation quadrupole field applied
 Nucleus-field energy     =     0.0000000025 hartrees
 Guess from superposition of atomic densities
 Warning:  Energy on first SCF cycle will be non-variational
 SAD guess density has 52.000000 electrons

 -----------------------------------------------------------------------
  General SCF calculation program by
  Eric Jon Sundstrom, Paul Horn, Yuezhi Mao, Dmitri Zuev, Alec White,
  David Stuck, Shaama M.S., Shane Yost, Joonho Lee, David Small,
  Daniel Levine, Susi Lehtola, Hugh Burton, Evgeny Epifanovsky,
  Bang C. Huynh
 -----------------------------------------------------------------------
 Hartree-Fock
 using 64 threads for integral computing
 -------------------------------------------------------
 OpenMP Integral computing Module                
 Release: version 1.0, May 2013, Q-Chem Inc. Pittsburgh 
 -------------------------------------------------------
 A restricted SCF calculation will be
 performed using DIIS
 SCF converges when DIIS error is below 1.0e-06
 ---------------------------------------
  Cycle       Energy         DIIS error
 ---------------------------------------
    1    -592.5752514118      3.22e-02  
    2    -590.3021481479      2.21e-03  
    3    -590.3632512478      8.58e-04  
    4    -590.3707211082      4.06e-04  
    5    -590.3728061271      6.93e-05  
    6    -590.3729268433      3.20e-05  
    7    -590.3729556764      1.39e-05  
    8    -590.3729647890      5.63e-06  
    9    -590.3729661963      1.86e-06  
   10    -590.3729663294      6.35e-07  Convergence criterion met
 ---------------------------------------
 SCF time:   CPU 537.32s  wall 10.00s 

************** Final PCM Free Energy Summary **************
 G_electrostatic  =      -0.00597109 hartree =      -3.74691519 kcal/mol
 G_cavitation     =       0.00000000 hartree =       0.00000000 kcal/mol
 G_dispersion     =       0.00000000 hartree =       0.00000000 kcal/mol
 G_repulsion      =       0.00000000 hartree =       0.00000000 kcal/mol
 --------------------------------------------------
 Non-electrostatic Free Energy =       0.00000000 hartree =       0.00000000 kcal/mol
 Total                         =      -0.00597109 hartree =      -3.74691519 kcal/mol
 --------------------------------------------------
 SCF Energy (H0 + V/2)                       =    -590.37296633 
 Solute Internal Energy (H0)                 =    -590.36699524 
 Total Free Energy (H0 + V/2 + non-elec)     =    -590.37296633 hartree
                                             = -370464.62779404 kcal/mol
***********************************************************

 SCF   energy in the final basis set =     -590.3729663294
 Total energy in the final basis set =     -590.3729663294


 --------------------------------------------------------------
  Generalized many-body perturbation theory program
  by Joonho Lee, Fazle Rob, Xintian Feng, Evgeny Epifanovsky

 No regularization used 
 (reg. param. = 0.0000e+00)
  (P|Q)^-1/2 Time:  CPU 9.38 s  wall 0.15 s

 In RI-MP2 calculation: 
 # of frozen core orbitals: 10

 Components of the RIMP2 correlation energy:
        aaaa    correlation energy =        -0.1251169800 a.u.
        abab    correlation energy =        -0.7502589580 a.u.
        bbbb    correlation energy =        -0.1251169800 a.u.
        non-Brillouin singles      =        -0.0000000000 a.u.
        total same-spin energy     =        -0.2502339600 a.u.
        total opposite-spin energy =        -0.7502589580 a.u.

 Total  RIMP2   correlation energy =        -1.0004929180 a.u.
        RIMP2         total energy =      -591.3734592474 a.u.

 RI-MP2 Energy Time:  CPU 35.27 s  wall 0.61 s
 
 --------------------------------------------------------------
 
                    Orbital Energies (a.u.)
 --------------------------------------------------------------
 
 Alpha MOs
 -- Occupied --
-91.9795 -11.2916 -11.2620 -11.2430 -11.2306 -11.2281  -8.9792  -6.6601
 -6.6596  -6.6590  -1.1573  -1.0405  -0.9714  -0.9189  -0.7544  -0.7225
 -0.6714  -0.5974  -0.5659  -0.5544  -0.5451  -0.4962  -0.4750  -0.4557
 -0.3463  -0.2986
 -- Virtual --
  0.1107   0.1482   0.1603   0.1801   0.1865   0.1925   0.2150   0.2239
  0.2380   0.2487   0.3168   0.3297   0.3511   0.3656   0.3875   0.4098
  0.4279   0.4433   0.4605   0.4858   0.5015   0.5159   0.5239   0.5327
  0.5491   0.5561   0.5746   0.5837   0.5887   0.6128   0.6183   0.6257
  0.6320   0.6393   0.6445   0.6539   0.7003   0.7038   0.7395   0.7802
  0.7823   0.7891   0.8437   0.8698   0.8717   0.8789   0.8911   0.9154
  0.9593   0.9852   1.0077   1.0444   1.0616   1.0697   1.0805   1.1166
  1.1372   1.1619   1.1689   1.1887   1.2205   1.2324   1.2408   1.2736
  1.2879   1.3013   1.3295   1.3432   1.3942   1.4150   1.4315   1.4444
  1.4731   1.4912   1.5070   1.5127   1.5309   1.5432   1.5588   1.5727
  1.5937   1.6170   1.6505   1.6967   1.7211   1.7578   1.7849   1.7924
  1.8197   1.8914   1.9094   1.9313   1.9571   1.9963   2.0607   2.0798
  2.1528   2.1699   2.2172   2.2410   2.2550   2.2902   2.2949   2.4190
  2.4270   2.4478   2.4768   2.5301   2.5576   2.5773   2.6290   2.6560
  2.7088   2.7176   2.7334   2.7487   2.7593   2.7737   2.7968   2.8061
  2.8741   2.9037   2.9179   2.9722   2.9961   3.0117   3.0264   3.0507
  3.0588   3.0906   3.1109   3.1378   3.1645   3.2010   3.2180   3.2448
  3.2682   3.2752   3.2920   3.3091   3.3180   3.3411   3.3562   3.3868
  3.4009   3.4274   3.4359   3.4561   3.4582   3.4721   3.4959   3.4988
  3.5106   3.5221   3.5477   3.5611   3.5844   3.6216   3.6278   3.6687
  3.6745   3.6935   3.7137   3.7377   3.7616   3.7809   3.8098   3.8356
  3.8547   3.8851   3.9005   3.9161   3.9415   3.9476   3.9772   3.9993
  4.0266   4.0379   4.0702   4.1155   4.1228   4.1565   4.1665   4.1939
  4.2384   4.2651   4.2829   4.2955   4.3174   4.3552   4.3672   4.3895
  4.4233   4.4606   4.4848   4.4930   4.5534   4.5679   4.5925   4.6296
  4.6567   4.6964   4.7395   4.7628   4.7850   4.8160   4.8475   4.8903
  4.9474   4.9961   5.0193   5.0373   5.0675   5.1331   5.1589   5.1933
  5.2317   5.3031   5.3585   5.4237   5.4699   5.4956   5.5340   5.5743
  5.6306   5.7042   5.7992   5.8059   5.8816   5.9604   6.0097   6.0859
  6.1429   6.3405   6.4194   6.4742   6.7096   9.3650  11.3281  12.8563
 13.9174  14.2664
 --------------------------------------------------------------
 
          Ground-State Mulliken Net Atomic Charges

     Atom                 Charge (a.u.)
  ----------------------------------------
      1 C                     0.029937
      2 S                     0.001694
      3 C                    -0.249135
      4 C                    -0.240869
      5 C                    -0.188318
      6 H                     0.179179
      7 H                     0.185676
      8 C                    -0.365848
      9 H                     0.143668
     10 H                     0.136602
     11 H                     0.163761
     12 H                     0.203655
  ----------------------------------------
  Sum of atomic charges =     0.000000

 -----------------------------------------------------------------
                    Cartesian Multipole Moments
 -----------------------------------------------------------------
    Charge (ESU x 10^10)
                 0.0000
    Dipole Moment (Debye)
         X       0.8763      Y      -0.8419      Z      -1.2904
       Tot       1.7725
    Quadrupole Moments (Debye-Ang)
        XX     -48.0870     XY       0.1896     YY     -36.2688
        XZ       0.1581     YZ       1.5363     ZZ     -41.6713
    Octopole Moments (Debye-Ang^2)
       XXX     -14.5743    XXY     -20.1714    XYY       2.0913
       YYY     -43.2754    XXZ      -7.1406    XYZ       0.0293
       YYZ      -6.2664    XZZ      -3.0854    YZZ     -11.7729
       ZZZ     -27.7851
    Hexadecapole Moments (Debye-Ang^3)
      XXXX     -75.0126   XXXY     -32.4411   XXYY    -114.6316
      XYYY     -18.2667   YYYY    -494.3910   XXXZ      -2.1180
      XXYZ      -6.6366   XYYZ       2.7737   YYYZ      -5.2394
      XXZZ     -70.5280   XYZZ      -4.8020   YYZZ    -121.1987
      XZZZ      -0.3339   YZZZ     -15.2079   ZZZZ    -307.7214
 -----------------------------------------------------------------
 Total job time:  11.97s(wall), 615.93s(cpu) 
 Sun Sep 24 15:13:16 2023

        *************************************************************
        *                                                           *
        *  Thank you very much for using Q-Chem.  Have a nice day.  *
        *                                                           *
        *************************************************************


0 sent ACK to 0 
now end server 0 ... 
cleanup process ... done
remove work dirs ./qchem1493137.0 -- ./qchem1493137.0
rm -rf ./qchem1493137.0
rm -rf ./qchem1493137
