You are running Q-Chem version: 5.4.0

#
# job setting
#
local host:  exp-3-45
current dir: /expanse/lustre/projects/csd626/rramji/aromodel/PNDIT/Hydrogenated_Impropers_Test
input file:  Dimethyl_Naphthalene_Dicarboximide_Phi_20_Theta_330_Thiophene_Hydrogenated_Improper.qcin
output file: 
nprocs     : 1
nthreads   : 64
#
# qchem installation setting
#
QC:          /cm/shared/apps/spack/cpu/opt/spack/linux-centos8-zen2/gcc-10.2.0/qchem-5.4-akfmr7b3t57bfs6qan3padb2wnb2i7cl
QCAUX:       /cm/shared/apps/spack/cpu/opt/spack/linux-centos8-zen2/gcc-10.2.0/qchem-5.4-akfmr7b3t57bfs6qan3padb2wnb2i7cl/qcaux
QCPROG:      /cm/shared/apps/spack/cpu/opt/spack/linux-centos8-zen2/gcc-10.2.0/qchem-5.4-akfmr7b3t57bfs6qan3padb2wnb2i7cl/exe/qcprog.exe
QCPROG_S:    /cm/shared/apps/spack/cpu/opt/spack/linux-centos8-zen2/gcc-10.2.0/qchem-5.4-akfmr7b3t57bfs6qan3padb2wnb2i7cl/exe/qcprog.exe_s
PARALLEL:    -DPARALLEL
QCMPI:       mpich
#
# qchem directory setting
#
qcrun:       qchem119083
QCSCRATCH:   .
QCLOCALSCR:  
QCTMPDIR:    .
QCFILEPREF:  ./qchem119083
QCSAVEDIR:   
workdirs:    ./qchem119083
workdir0:    ./qchem119083
partmpdirs =  
#
# parallel setting
#
QCRSH:           ssh
QCMPI:           mpich
QCMPIRUN:        /cm/shared/apps/spack/cpu/opt/spack/linux-centos8-zen2/gcc-10.2.0/qchem-5.4-akfmr7b3t57bfs6qan3padb2wnb2i7cl/bin/mpi/mpirun_qchem
QCMACHINEFILE:   ./qchem119083/hostfile
exp-3-45

#
# env setting
#
exported envs:   QC QCAUX QCSCRATCH QCRUNNAME QCFILEPREF QCPROG QCPROG_S GUIFILE

Running Job 1 of 1 Dimethyl_Naphthalene_Dicarboximide_Phi_20_Theta_330_Thiophene_Hydrogenated_Improper.qcin
qchem Dimethyl_Naphthalene_Dicarboximide_Phi_20_Theta_330_Thiophene_Hydrogenated_Improper.qcin_119083.0 ./qchem119083/ 1
/cm/shared/apps/spack/cpu/opt/spack/linux-centos8-zen2/gcc-10.2.0/qchem-5.4-akfmr7b3t57bfs6qan3padb2wnb2i7cl/bin/mpi/mpirun_qchem -machinefile ./qchem119083/hostfile -np 1 /cm/shared/apps/spack/cpu/opt/spack/linux-centos8-zen2/gcc-10.2.0/qchem-5.4-akfmr7b3t57bfs6qan3padb2wnb2i7cl/exe/qcprog.exe Dimethyl_Naphthalene_Dicarboximide_Phi_20_Theta_330_Thiophene_Hydrogenated_Improper.qcin_119083.0 ./qchem119083/

Process 0 of 1 is on exp-3-45 - thread support 0
initial socket setup ...start
initial socket setup ...done 
now start server 0 ... 
                  Welcome to Q-Chem
     A Quantum Leap Into The Future Of Chemistry


 Q-Chem 5.4, Q-Chem, Inc., Pleasanton, CA (2021)

 License issued to: University of California, San Diego (site)

 E. Epifanovsky,  A. T. B. Gilbert,  Xintian Feng,  Joonho Lee,  Yuezhi Mao,  
 N. Mardirossian,  P. Pokhilko,  A. White,  M. Wormit,  M. P. Coons,  
 A. L. Dempwolff,  Zhengting Gan,  D. Hait,  P. R. Horn,  L. D. Jacobson,  
 I. Kaliman,  J. Kussmann,  A. W. Lange,  Ka Un Lao,  D. S. Levine,  Jie Liu,  
 S. C. McKenzie,  A. F. Morrison,  K. Nanda,  F. Plasser,  D. R. Rehn,  
 M. L. Vidal,  Zhi-Qiang You,  Ying Zhu,  B. Alam,  B. Albrecht,  
 A. Aldossary,  E. Alguire,  J. H. Andersen,  D. Barton,  K. Begam,  A. Behn,  
 Y. A. Bernard,  E. J. Berquist,  H. Burton,  A. Carreras,  K. Carter-Fenk,  
 R. Chakraborty,  A. D. Chien,  K. D. Closser,  V. Cofer-Shabica,  
 S. Dasgupta,  Jia Deng,  M. de Wergifosse,  M. Diedenhofen,  Hainam Do,  
 S. Ehlert,  Po-Tung Fang,  S. Fatehi,  Qingguo Feng,  J. Gayvert,  
 Qinghui Ge,  G. Gidofalvi,  M. Goldey,  J. Gomes,  C. Gonzalez-Espinoza,  
 S. Gulania,  A. Gunina,  M. W. D. Hanson-Heine,  P. H. P. Harbach,  
 A. W. Hauser,  M. F. Herbst,  M. Hernandez Vera,  M. Hodecker,  
 Z. C. Holden,  S. Houck,  Xunkun Huang,  Kerwin Hui,  B. C. Huynh,  
 M. Ivanov,  Hyunjun Ji,  Hanjie Jiang,  B. Kaduk,  S. Kaehler,  
 K. Khistyaev,  Jaehoon Kim,  P. Klunzinger,  Z. Koczor-Benda,  
 Joong Hoon Koh,  D. Kosenkov,  L. Koulias,  T. Kowalczyk,  C. M. Krauter,  
 K. Kue,  A. Kunitsa,  T. Kus,  A. Landau,  K. V. Lawler,  D. Lefrancois,  
 S. Lehtola,  Rain Li,  Yi-Pei Li,  Jiashu Liang,  M. Liebenthal,  
 Hung-Hsuan Lin,  You-Sheng Lin,  Fenglai Liu,  Kuan-Yu Liu,  
 M. Loipersberger,  A. Luenser,  A. Manjanath,  P. Manohar,  E. Mansoor,  
 S. F. Manzer,  Shan-Ping Mao,  A. V. Marenich,  T. Markovich,  S. Mason,  
 S. A. Maurer,  P. F. McLaughlin,  M. F. S. J. Menger,  J.-M. Mewes,  
 S. A. Mewes,  P. Morgante,  J. W. Mullinax,  T. S. Nguyen-Beck,  
 K. J. Oosterbaan,  G. Paran,  Alexander C. Paul,  Suranjan K. Paul,  
 F. Pavosevic,  Zheng Pei,  S. Prager,  E. I. Proynov,  E. Ramos,  B. Rana,  
 A. E. Rask,  A. Rettig,  R. M. Richard,  F. Rob,  E. Rossomme,  T. Scheele,  
 M. Scheurer,  M. Schneider,  N. Sergueev,  S. M. Sharada,  W. Skomorowski,  
 D. W. Small,  C. J. Stein,  Yu-Chuan Su,  E. J. Sundstrom,  Zhen Tao,  
 J. Thirman,  T. Tsuchimochi,  N. M. Tubman,  S. P. Veccham,  O. Vydrov,  
 J. Wenzel,  J. Witte,  A. Yamada,  Kun Yao,  S. Yeganeh,  S. R. Yost,  
 A. Zech,  Igor Ying Zhang,  Xing Zhang,  Yu Zhang,  D. Zuev,  
 A. Aspuru-Guzik,  A. T. Bell,  N. A. Besley,  K. B. Bravaya,  B. R. Brooks,  
 D. Casanova,  Jeng-Da Chai,  S. Coriani,  C. J. Cramer,  
 A. E. DePrince, III,  R. A. DiStasio Jr.,  A. Dreuw,  B. D. Dunietz,  
 T. R. Furlani,  W. A. Goddard III,  S. Grimme,  S. Hammes-Schiffer,  
 T. Head-Gordon,  W. J. Hehre,  Chao-Ping Hsu,  T.-C. Jagau,  Yousung Jung,  
 A. Klamt,  Jing Kong,  D. S. Lambrecht,  WanZhen Liang,  N. J. Mayhall,  
 C. W. McCurdy,  J. B. Neaton,  C. Ochsenfeld,  J. A. Parkhill,  R. Peverati,  
 V. A. Rassolov,  Yihan Shao,  L. V. Slipchenko,  T. Stauch,  R. P. Steele,  
 J. E. Subotnik,  A. J. W. Thom,  A. Tkatchenko,  D. G. Truhlar,  
 T. Van Voorhis,  T. A. Wesolowski,  K. B. Whaley,  H. L. Woodcock III,  
 P. M. Zimmerman,  S. Faraji,  P. M. W. Gill,  M. Head-Gordon,  
 J. M. Herbert,  A. I. Krylov

 Contributors to earlier versions of Q-Chem not listed above: 
 R. D. Adamson,  B. Austin,  R. Baer,  J. Baker,  G. J. O. Beran,  
 K. Brandhorst,  S. T. Brown,  E. F. C. Byrd,  A. K. Chakraborty,  
 G. K. L. Chan,  Chun-Min Chang,  Yunqing Chen,  C.-L. Cheng,  
 Siu Hung Chien,  D. M. Chipman,  D. L. Crittenden,  H. Dachsel,  
 R. J. Doerksen,  A. D. Dutoi,  R. G. Edgar,  J. Fosso-Tande,  
 L. Fusti-Molnar,  D. Ghosh,  A. Ghysels,  A. Golubeva-Zadorozhnaya,  
 J. Gonthier,  M. S. Gordon,  S. R. Gwaltney,  G. Hawkins,  J. E. Herr,  
 A. Heyden,  S. Hirata,  E. G. Hohenstein,  G. Kedziora,  F. J. Keil,  
 C. Kelley,  Jihan Kim,  R. A. King,  R. Z. Khaliullin,  P. P. Korambath,  
 W. Kurlancheek,  A. Laurent,  A. M. Lee,  M. S. Lee,  S. V. Levchenko,  
 Ching Yeh Lin,  D. Liotard,  E. Livshits,  R. C. Lochan,  I. Lotan,  
 L. A. Martinez-Martinez,  P. E. Maslen,  N. Nair,  D. P. O'Neill,  
 D. Neuhauser,  E. Neuscamman,  C. M. Oana,  R. Olivares-Amaya,  R. Olson,  
 T. M. Perrine,  B. Peters,  P. A. Pieniazek,  A. Prociuk,  Y. M. Rhee,  
 J. Ritchie,  M. A. Rohrdanz,  E. Rosta,  N. J. Russ,  H. F. Schaefer III,  
 M. W. Schmidt,  N. E. Schultz,  S. Sharma,  N. Shenvi,  C. D. Sherrill,  
 A. C. Simmonett,  A. Sodt,  T. Stein,  D. Stuck,  K. S. Thanthiriwatte,  
 V. Vanovschi,  L. Vogt,  Tao Wang,  A. Warshel,  M. A. Watson,  
 C. F. Williams,  Q. Wu,  X. Xu,  Jun Yang,  W. Zhang,  Yan Zhao

 Please cite Q-Chem as follows:
 Y. Shao et al., Mol. Phys. 113, 184-215 (2015)
 DOI: 10.1080/00268976.2014.952696

 Q-Chem 5.4.0 for Intel X86 EM64T Linux

 Parts of Q-Chem use Armadillo 9.800.1 (Horizon Scraper).
 http://arma.sourceforge.net/

 Q-Chem begins on Sun Sep 24 15:12:43 2023  

 Host: 
0

     Scratch files written to ./qchem119083//
 May1621 |scratch|qcdevops|jenkins|workspace|build_RNUM    
 Parallel job on  1  processors
 Processing $rem in /cm/shared/apps/spack/cpu/opt/spack/linux-centos8-zen2/gcc-10.2.0/qchem-5.4-akfmr7b3t57bfs6qan3padb2wnb2i7cl/config/preferences:
 Processing $rem in /home/rramji/.qchemrc:
 Symmetry turned off for PCM/SM12/SMD calculation
 Core orbitals will be frozen

 Checking the input file for inconsistencies... 	...done.

 Q-Chem warning in module forms1/BasisType.C, line 2236:

 You are not using the predefined 5D/6D in this basis set.


--------------------------------------------------------------
User input:
--------------------------------------------------------------
$molecule
0 1
C	-0.182504	-0.368118	-0.212476
S	0.088596	0.377282	1.368024
C	0.648696	1.916282	0.692424
C	0.158696	0.569782	-1.197876
C	0.610096	1.810382	-0.705976
H	0.078096	0.348282	-2.272376
H	0.911396	2.638182	-1.365076
C	-0.182504	-1.846318	-0.212476
H	0.753096	-1.846918	-0.751976
H	0.310796	-2.285618	0.642024
H	-0.589104	-2.557318	-0.916476
H	0.949796	2.743882	1.343524
$end

$rem
JOBTYPE		SP
EXCHANGE	HF
CORRELATION	pRIMP2
BASIS		cc-pvtz
METHOD		rimp2
AUX_BASIS	rimp2-cc-pvtz
SOLVENT_METHOD	PCM
PURECART	11111
SYMMETRY	false
MEM_TOTAL	110000
SCF_CONVERGENCE = 6
THRESH=10
GUI = 2
$end



$solvent
dielectric 4.90
$end
--------------------------------------------------------------
 ----------------------------------------------------------------
             Standard Nuclear Orientation (Angstroms)
    I     Atom           X                Y                Z
 ----------------------------------------------------------------
    1      C      -0.1825040000    -0.3681180000    -0.2124760000
    2      S       0.0885960000     0.3772820000     1.3680240000
    3      C       0.6486960000     1.9162820000     0.6924240000
    4      C       0.1586960000     0.5697820000    -1.1978760000
    5      C       0.6100960000     1.8103820000    -0.7059760000
    6      H       0.0780960000     0.3482820000    -2.2723760000
    7      H       0.9113960000     2.6381820000    -1.3650760000
    8      C      -0.1825040000    -1.8463180000    -0.2124760000
    9      H       0.7530960000    -1.8469180000    -0.7519760000
   10      H       0.3107960000    -2.2856180000     0.6420240000
   11      H      -0.5891040000    -2.5573180000    -0.9164760000
   12      H       0.9497960000     2.7438820000     1.3435240000
 ----------------------------------------------------------------
 Nuclear Repulsion Energy =         270.98619168 hartrees
 There are       26 alpha and       26 beta electrons
 Requested basis set is cc-pVTZ
 There are 98 shells and 268 basis functions

 Total QAlloc Memory Limit 110000 MB
 Mega-Array Size       188 MB
 MEM_STATIC part       192 MB
 Discretize the solute cavity surface with Lebedev spheres
	Using 110 Lebedev grid points for each H atom
	Using 194 Lebedev grid points for other atoms
	Atomic van der Waals radii will be scaled by 1.20
 Remove points where switching function is < 1.0e-08
 Keep 888 surface tesserae and discard 936 interior tesserae
 Molecular Surface Area = 137.822 Angst**2

                       Distance Matrix (Angstroms)
             C (  1)   S (  2)   C (  3)   C (  4)   C (  5)   H (  6)
   S (  2)  1.768360
   C (  3)  2.593881  1.771629
   C (  4)  1.402529  2.574065  2.372003
   C (  5)  2.370152  2.574338  1.402935  1.408835
   H (  6)  2.196436  3.640531  3.402095  1.100049  2.207797
   H (  7)  3.400433  3.641223  2.196237  2.207440  1.100203  2.600235
   C (  8)  1.478200  2.741509  3.958143  2.631534  3.774018  3.021154
   H (  9)  1.831190  3.143728  4.032228  2.528355  3.660384  2.754296
   H ( 10)  2.156460  2.769022  4.215766  3.400246  4.322488  3.935137
   H ( 11)  2.335281  3.780224  4.912617  3.227560  4.534225  3.275077
   H ( 12)  3.658932  2.518543  1.095223  3.436752  2.277558  4.424194
             H (  7)   C (  8)   H (  9)   H ( 10)   H ( 11)
   C (  8)  4.757714
   H (  9)  4.529578  1.080004
   H ( 10)  5.350979  1.080046  1.526867
   H ( 11)  5.426413  1.080028  1.527491  1.820045
   H ( 12)  2.710934  4.977266  5.050273  5.118231  5.964774
 
 Requested basis set is rimp2-cc-pVTZ
 There are 207 shells and 707 basis functions
 A cutoff of  1.0D-10 yielded   4385 shell pairs
 There are     32913 function pairs (     42567 Cartesian)
 Smallest overlap matrix eigenvalue = 1.41E-04

 Scale SEOQF with 1.000000e+00/1.000000e-01/1.000000e-01

 Standard Electronic Orientation quadrupole field applied
 Nucleus-field energy     =     0.0000000039 hartrees
 Guess from superposition of atomic densities
 Warning:  Energy on first SCF cycle will be non-variational
 SAD guess density has 52.000000 electrons

 -----------------------------------------------------------------------
  General SCF calculation program by
  Eric Jon Sundstrom, Paul Horn, Yuezhi Mao, Dmitri Zuev, Alec White,
  David Stuck, Shaama M.S., Shane Yost, Joonho Lee, David Small,
  Daniel Levine, Susi Lehtola, Hugh Burton, Evgeny Epifanovsky,
  Bang C. Huynh
 -----------------------------------------------------------------------
 Hartree-Fock
 using 64 threads for integral computing
 -------------------------------------------------------
 OpenMP Integral computing Module                
 Release: version 1.0, May 2013, Q-Chem Inc. Pittsburgh 
 -------------------------------------------------------
 A restricted SCF calculation will be
 performed using DIIS
 SCF converges when DIIS error is below 1.0e-06
 ---------------------------------------
  Cycle       Energy         DIIS error
 ---------------------------------------
    1    -592.5845648571      3.22e-02  
    2    -590.2964761779      2.19e-03  
    3    -590.3574179985      8.38e-04  
    4    -590.3646522285      3.99e-04  
    5    -590.3666630714      7.03e-05  
    6    -590.3667837476      3.18e-05  
    7    -590.3668133040      1.42e-05  
    8    -590.3668227127      5.75e-06  
    9    -590.3668242452      1.95e-06  
   10    -590.3668243939      6.15e-07  Convergence criterion met
 ---------------------------------------
 SCF time:   CPU 500.73s  wall 9.00s 

************** Final PCM Free Energy Summary **************
 G_electrostatic  =      -0.00574059 hartree =      -3.60227275 kcal/mol
 G_cavitation     =       0.00000000 hartree =       0.00000000 kcal/mol
 G_dispersion     =       0.00000000 hartree =       0.00000000 kcal/mol
 G_repulsion      =       0.00000000 hartree =       0.00000000 kcal/mol
 --------------------------------------------------
 Non-electrostatic Free Energy =       0.00000000 hartree =       0.00000000 kcal/mol
 Total                         =      -0.00574059 hartree =      -3.60227275 kcal/mol
 --------------------------------------------------
 SCF Energy (H0 + V/2)                       =    -590.36682439 
 Solute Internal Energy (H0)                 =    -590.36108381 
 Total Free Energy (H0 + V/2 + non-elec)     =    -590.36682439 hartree
                                             = -370460.77367134 kcal/mol
***********************************************************

 SCF   energy in the final basis set =     -590.3668243939
 Total energy in the final basis set =     -590.3668243939


 --------------------------------------------------------------
  Generalized many-body perturbation theory program
  by Joonho Lee, Fazle Rob, Xintian Feng, Evgeny Epifanovsky

 No regularization used 
 (reg. param. = 0.0000e+00)
  (P|Q)^-1/2 Time:  CPU 7.35 s  wall 0.12 s

 In RI-MP2 calculation: 
 # of frozen core orbitals: 10

 Components of the RIMP2 correlation energy:
        aaaa    correlation energy =        -0.1254441308 a.u.
        abab    correlation energy =        -0.7514142689 a.u.
        bbbb    correlation energy =        -0.1254441308 a.u.
        non-Brillouin singles      =        -0.0000000000 a.u.
        total same-spin energy     =        -0.2508882617 a.u.
        total opposite-spin energy =        -0.7514142689 a.u.

 Total  RIMP2   correlation energy =        -1.0023025306 a.u.
        RIMP2         total energy =      -591.3691269245 a.u.

 RI-MP2 Energy Time:  CPU 27.25 s  wall 0.48 s
 
 --------------------------------------------------------------
 
                    Orbital Energies (a.u.)
 --------------------------------------------------------------
 
 Alpha MOs
 -- Occupied --
-91.9793 -11.2888 -11.2641 -11.2432 -11.2326 -11.2260  -8.9790  -6.6599
 -6.6594  -6.6588  -1.1583  -1.0395  -0.9722  -0.9172  -0.7549  -0.7230
 -0.6714  -0.5972  -0.5665  -0.5542  -0.5456  -0.4931  -0.4733  -0.4543
 -0.3457  -0.2998
 -- Virtual --
  0.1029   0.1515   0.1608   0.1805   0.1852   0.1927   0.2164   0.2250
  0.2407   0.2458   0.3163   0.3321   0.3480   0.3694   0.3860   0.4056
  0.4298   0.4469   0.4635   0.4800   0.4961   0.5167   0.5176   0.5266
  0.5475   0.5541   0.5616   0.5889   0.5927   0.6140   0.6165   0.6205
  0.6313   0.6400   0.6453   0.6571   0.6980   0.7023   0.7313   0.7590
  0.7794   0.7896   0.8399   0.8549   0.8645   0.8788   0.8964   0.9126
  0.9302   0.9809   1.0183   1.0570   1.0646   1.0764   1.0943   1.1214
  1.1472   1.1686   1.1726   1.2018   1.2187   1.2284   1.2359   1.2808
  1.2878   1.3047   1.3291   1.3390   1.3862   1.3941   1.4211   1.4527
  1.4628   1.4919   1.5095   1.5153   1.5345   1.5427   1.5561   1.5713
  1.5954   1.6126   1.6509   1.6856   1.7099   1.7507   1.7821   1.7998
  1.8149   1.8977   1.9071   1.9178   1.9643   1.9935   2.0445   2.0959
  2.1409   2.1708   2.2111   2.2321   2.2455   2.2762   2.2978   2.4159
  2.4286   2.4502   2.4781   2.5301   2.5720   2.5877   2.6140   2.6602
  2.6912   2.7086   2.7231   2.7413   2.7561   2.7875   2.7940   2.8298
  2.8685   2.9061   2.9235   2.9509   2.9992   3.0237   3.0300   3.0430
  3.0726   3.0931   3.1165   3.1407   3.1666   3.1914   3.2107   3.2395
  3.2494   3.2698   3.2895   3.3198   3.3233   3.3428   3.3565   3.3853
  3.4043   3.4099   3.4429   3.4536   3.4632   3.4742   3.4932   3.5059
  3.5137   3.5300   3.5400   3.5697   3.6000   3.6193   3.6270   3.6572
  3.6742   3.6911   3.7092   3.7456   3.7579   3.7655   3.8199   3.8384
  3.8616   3.8804   3.9028   3.9221   3.9325   3.9491   3.9747   3.9997
  4.0124   4.0497   4.0847   4.0947   4.1234   4.1529   4.1708   4.2182
  4.2440   4.2577   4.2842   4.2928   4.3243   4.3540   4.3697   4.3909
  4.4264   4.4635   4.4735   4.5004   4.5395   4.5781   4.6207   4.6335
  4.6487   4.7087   4.7311   4.7534   4.7817   4.8084   4.8404   4.8859
  4.9172   5.0046   5.0179   5.0291   5.0793   5.1471   5.1708   5.1908
  5.2187   5.3035   5.3604   5.4286   5.4567   5.4868   5.5275   5.5751
  5.6237   5.7163   5.7915   5.8265   5.8738   5.9214   5.9967   6.0778
  6.1191   6.3293   6.4111   6.4566   6.6477   9.3613  11.3439  12.7977
 13.9500  14.0921
 --------------------------------------------------------------
 
          Ground-State Mulliken Net Atomic Charges

     Atom                 Charge (a.u.)
  ----------------------------------------
      1 C                     0.021257
      2 S                     0.001693
      3 C                    -0.240656
      4 C                    -0.228516
      5 C                    -0.193172
      6 H                     0.179202
      7 H                     0.186173
      8 C                    -0.368776
      9 H                     0.144033
     10 H                     0.136515
     11 H                     0.158661
     12 H                     0.203585
  ----------------------------------------
  Sum of atomic charges =     0.000000

 -----------------------------------------------------------------
                    Cartesian Multipole Moments
 -----------------------------------------------------------------
    Charge (ESU x 10^10)
                 0.0000
    Dipole Moment (Debye)
         X       1.0205      Y      -0.7156      Z      -1.4009
       Tot       1.8751
    Quadrupole Moments (Debye-Ang)
        XX     -47.3402     XY       1.6943     YY     -37.2538
        XZ       0.3816     YZ       1.6896     ZZ     -41.6151
    Octopole Moments (Debye-Ang^2)
       XXX     -27.2398    XXY     -16.6364    XYY       1.1263
       YYY     -41.8376    XXZ      -6.8144    XYZ       0.2372
       YYZ      -6.5405    XZZ      -5.8286    YZZ     -10.6939
       ZZZ     -27.8201
    Hexadecapole Moments (Debye-Ang^3)
      XXXX    -104.7041   XXXY     -61.1054   XXYY    -104.9865
      XYYY     -35.6753   YYYY    -478.7873   XXXZ      -3.7363
      XXYZ      -5.7823   XYYZ       4.4486   YYYZ      -5.8866
      XXZZ     -72.3155   XYZZ      -9.9862   YYZZ    -119.3102
      XZZZ      -1.3671   YZZZ     -15.7049   ZZZZ    -307.6919
 -----------------------------------------------------------------
 Total job time:  11.41s(wall), 571.26s(cpu) 
 Sun Sep 24 15:12:55 2023

        *************************************************************
        *                                                           *
        *  Thank you very much for using Q-Chem.  Have a nice day.  *
        *                                                           *
        *************************************************************


0 sent ACK to 0 
now end server 0 ... 
cleanup process ... done
remove work dirs ./qchem119083.0 -- ./qchem119083.0
rm -rf ./qchem119083.0
rm -rf ./qchem119083
