You are running Q-Chem version: 5.4.0

#
# job setting
#
local host:  exp-3-06
current dir: /expanse/lustre/projects/csd626/rramji/aromodel/PNDIT/Hydrogenated_Impropers_Test
input file:  Dimethyl_Naphthalene_Dicarboximide_Phi_10_Theta_320_Thiophene_Hydrogenated_Improper.qcin
output file: 
nprocs     : 1
nthreads   : 64
#
# qchem installation setting
#
QC:          /cm/shared/apps/spack/cpu/opt/spack/linux-centos8-zen2/gcc-10.2.0/qchem-5.4-akfmr7b3t57bfs6qan3padb2wnb2i7cl
QCAUX:       /cm/shared/apps/spack/cpu/opt/spack/linux-centos8-zen2/gcc-10.2.0/qchem-5.4-akfmr7b3t57bfs6qan3padb2wnb2i7cl/qcaux
QCPROG:      /cm/shared/apps/spack/cpu/opt/spack/linux-centos8-zen2/gcc-10.2.0/qchem-5.4-akfmr7b3t57bfs6qan3padb2wnb2i7cl/exe/qcprog.exe
QCPROG_S:    /cm/shared/apps/spack/cpu/opt/spack/linux-centos8-zen2/gcc-10.2.0/qchem-5.4-akfmr7b3t57bfs6qan3padb2wnb2i7cl/exe/qcprog.exe_s
PARALLEL:    -DPARALLEL
QCMPI:       mpich
#
# qchem directory setting
#
qcrun:       qchem1492830
QCSCRATCH:   .
QCLOCALSCR:  
QCTMPDIR:    .
QCFILEPREF:  ./qchem1492830
QCSAVEDIR:   
workdirs:    ./qchem1492830
workdir0:    ./qchem1492830
partmpdirs =  
#
# parallel setting
#
QCRSH:           ssh
QCMPI:           mpich
QCMPIRUN:        /cm/shared/apps/spack/cpu/opt/spack/linux-centos8-zen2/gcc-10.2.0/qchem-5.4-akfmr7b3t57bfs6qan3padb2wnb2i7cl/bin/mpi/mpirun_qchem
QCMACHINEFILE:   ./qchem1492830/hostfile
exp-3-06

#
# env setting
#
exported envs:   QC QCAUX QCSCRATCH QCRUNNAME QCFILEPREF QCPROG QCPROG_S GUIFILE

Running Job 1 of 1 Dimethyl_Naphthalene_Dicarboximide_Phi_10_Theta_320_Thiophene_Hydrogenated_Improper.qcin
qchem Dimethyl_Naphthalene_Dicarboximide_Phi_10_Theta_320_Thiophene_Hydrogenated_Improper.qcin_1492830.0 ./qchem1492830/ 1
/cm/shared/apps/spack/cpu/opt/spack/linux-centos8-zen2/gcc-10.2.0/qchem-5.4-akfmr7b3t57bfs6qan3padb2wnb2i7cl/bin/mpi/mpirun_qchem -machinefile ./qchem1492830/hostfile -np 1 /cm/shared/apps/spack/cpu/opt/spack/linux-centos8-zen2/gcc-10.2.0/qchem-5.4-akfmr7b3t57bfs6qan3padb2wnb2i7cl/exe/qcprog.exe Dimethyl_Naphthalene_Dicarboximide_Phi_10_Theta_320_Thiophene_Hydrogenated_Improper.qcin_1492830.0 ./qchem1492830/

Process 0 of 1 is on exp-3-06 - thread support 0
initial socket setup ...start
initial socket setup ...done 
now start server 0 ... 
                  Welcome to Q-Chem
     A Quantum Leap Into The Future Of Chemistry


 Q-Chem 5.4, Q-Chem, Inc., Pleasanton, CA (2021)

 License issued to: University of California, San Diego (site)

 E. Epifanovsky,  A. T. B. Gilbert,  Xintian Feng,  Joonho Lee,  Yuezhi Mao,  
 N. Mardirossian,  P. Pokhilko,  A. White,  M. Wormit,  M. P. Coons,  
 A. L. Dempwolff,  Zhengting Gan,  D. Hait,  P. R. Horn,  L. D. Jacobson,  
 I. Kaliman,  J. Kussmann,  A. W. Lange,  Ka Un Lao,  D. S. Levine,  Jie Liu,  
 S. C. McKenzie,  A. F. Morrison,  K. Nanda,  F. Plasser,  D. R. Rehn,  
 M. L. Vidal,  Zhi-Qiang You,  Ying Zhu,  B. Alam,  B. Albrecht,  
 A. Aldossary,  E. Alguire,  J. H. Andersen,  D. Barton,  K. Begam,  A. Behn,  
 Y. A. Bernard,  E. J. Berquist,  H. Burton,  A. Carreras,  K. Carter-Fenk,  
 R. Chakraborty,  A. D. Chien,  K. D. Closser,  V. Cofer-Shabica,  
 S. Dasgupta,  Jia Deng,  M. de Wergifosse,  M. Diedenhofen,  Hainam Do,  
 S. Ehlert,  Po-Tung Fang,  S. Fatehi,  Qingguo Feng,  J. Gayvert,  
 Qinghui Ge,  G. Gidofalvi,  M. Goldey,  J. Gomes,  C. Gonzalez-Espinoza,  
 S. Gulania,  A. Gunina,  M. W. D. Hanson-Heine,  P. H. P. Harbach,  
 A. W. Hauser,  M. F. Herbst,  M. Hernandez Vera,  M. Hodecker,  
 Z. C. Holden,  S. Houck,  Xunkun Huang,  Kerwin Hui,  B. C. Huynh,  
 M. Ivanov,  Hyunjun Ji,  Hanjie Jiang,  B. Kaduk,  S. Kaehler,  
 K. Khistyaev,  Jaehoon Kim,  P. Klunzinger,  Z. Koczor-Benda,  
 Joong Hoon Koh,  D. Kosenkov,  L. Koulias,  T. Kowalczyk,  C. M. Krauter,  
 K. Kue,  A. Kunitsa,  T. Kus,  A. Landau,  K. V. Lawler,  D. Lefrancois,  
 S. Lehtola,  Rain Li,  Yi-Pei Li,  Jiashu Liang,  M. Liebenthal,  
 Hung-Hsuan Lin,  You-Sheng Lin,  Fenglai Liu,  Kuan-Yu Liu,  
 M. Loipersberger,  A. Luenser,  A. Manjanath,  P. Manohar,  E. Mansoor,  
 S. F. Manzer,  Shan-Ping Mao,  A. V. Marenich,  T. Markovich,  S. Mason,  
 S. A. Maurer,  P. F. McLaughlin,  M. F. S. J. Menger,  J.-M. Mewes,  
 S. A. Mewes,  P. Morgante,  J. W. Mullinax,  T. S. Nguyen-Beck,  
 K. J. Oosterbaan,  G. Paran,  Alexander C. Paul,  Suranjan K. Paul,  
 F. Pavosevic,  Zheng Pei,  S. Prager,  E. I. Proynov,  E. Ramos,  B. Rana,  
 A. E. Rask,  A. Rettig,  R. M. Richard,  F. Rob,  E. Rossomme,  T. Scheele,  
 M. Scheurer,  M. Schneider,  N. Sergueev,  S. M. Sharada,  W. Skomorowski,  
 D. W. Small,  C. J. Stein,  Yu-Chuan Su,  E. J. Sundstrom,  Zhen Tao,  
 J. Thirman,  T. Tsuchimochi,  N. M. Tubman,  S. P. Veccham,  O. Vydrov,  
 J. Wenzel,  J. Witte,  A. Yamada,  Kun Yao,  S. Yeganeh,  S. R. Yost,  
 A. Zech,  Igor Ying Zhang,  Xing Zhang,  Yu Zhang,  D. Zuev,  
 A. Aspuru-Guzik,  A. T. Bell,  N. A. Besley,  K. B. Bravaya,  B. R. Brooks,  
 D. Casanova,  Jeng-Da Chai,  S. Coriani,  C. J. Cramer,  
 A. E. DePrince, III,  R. A. DiStasio Jr.,  A. Dreuw,  B. D. Dunietz,  
 T. R. Furlani,  W. A. Goddard III,  S. Grimme,  S. Hammes-Schiffer,  
 T. Head-Gordon,  W. J. Hehre,  Chao-Ping Hsu,  T.-C. Jagau,  Yousung Jung,  
 A. Klamt,  Jing Kong,  D. S. Lambrecht,  WanZhen Liang,  N. J. Mayhall,  
 C. W. McCurdy,  J. B. Neaton,  C. Ochsenfeld,  J. A. Parkhill,  R. Peverati,  
 V. A. Rassolov,  Yihan Shao,  L. V. Slipchenko,  T. Stauch,  R. P. Steele,  
 J. E. Subotnik,  A. J. W. Thom,  A. Tkatchenko,  D. G. Truhlar,  
 T. Van Voorhis,  T. A. Wesolowski,  K. B. Whaley,  H. L. Woodcock III,  
 P. M. Zimmerman,  S. Faraji,  P. M. W. Gill,  M. Head-Gordon,  
 J. M. Herbert,  A. I. Krylov

 Contributors to earlier versions of Q-Chem not listed above: 
 R. D. Adamson,  B. Austin,  R. Baer,  J. Baker,  G. J. O. Beran,  
 K. Brandhorst,  S. T. Brown,  E. F. C. Byrd,  A. K. Chakraborty,  
 G. K. L. Chan,  Chun-Min Chang,  Yunqing Chen,  C.-L. Cheng,  
 Siu Hung Chien,  D. M. Chipman,  D. L. Crittenden,  H. Dachsel,  
 R. J. Doerksen,  A. D. Dutoi,  R. G. Edgar,  J. Fosso-Tande,  
 L. Fusti-Molnar,  D. Ghosh,  A. Ghysels,  A. Golubeva-Zadorozhnaya,  
 J. Gonthier,  M. S. Gordon,  S. R. Gwaltney,  G. Hawkins,  J. E. Herr,  
 A. Heyden,  S. Hirata,  E. G. Hohenstein,  G. Kedziora,  F. J. Keil,  
 C. Kelley,  Jihan Kim,  R. A. King,  R. Z. Khaliullin,  P. P. Korambath,  
 W. Kurlancheek,  A. Laurent,  A. M. Lee,  M. S. Lee,  S. V. Levchenko,  
 Ching Yeh Lin,  D. Liotard,  E. Livshits,  R. C. Lochan,  I. Lotan,  
 L. A. Martinez-Martinez,  P. E. Maslen,  N. Nair,  D. P. O'Neill,  
 D. Neuhauser,  E. Neuscamman,  C. M. Oana,  R. Olivares-Amaya,  R. Olson,  
 T. M. Perrine,  B. Peters,  P. A. Pieniazek,  A. Prociuk,  Y. M. Rhee,  
 J. Ritchie,  M. A. Rohrdanz,  E. Rosta,  N. J. Russ,  H. F. Schaefer III,  
 M. W. Schmidt,  N. E. Schultz,  S. Sharma,  N. Shenvi,  C. D. Sherrill,  
 A. C. Simmonett,  A. Sodt,  T. Stein,  D. Stuck,  K. S. Thanthiriwatte,  
 V. Vanovschi,  L. Vogt,  Tao Wang,  A. Warshel,  M. A. Watson,  
 C. F. Williams,  Q. Wu,  X. Xu,  Jun Yang,  W. Zhang,  Yan Zhao

 Please cite Q-Chem as follows:
 Y. Shao et al., Mol. Phys. 113, 184-215 (2015)
 DOI: 10.1080/00268976.2014.952696

 Q-Chem 5.4.0 for Intel X86 EM64T Linux

 Parts of Q-Chem use Armadillo 9.800.1 (Horizon Scraper).
 http://arma.sourceforge.net/

 Q-Chem begins on Sun Sep 24 15:12:25 2023  

 Host: 
0

     Scratch files written to ./qchem1492830//
 May1621 |scratch|qcdevops|jenkins|workspace|build_RNUM    
 Parallel job on  1  processors
 Processing $rem in /cm/shared/apps/spack/cpu/opt/spack/linux-centos8-zen2/gcc-10.2.0/qchem-5.4-akfmr7b3t57bfs6qan3padb2wnb2i7cl/config/preferences:
 Processing $rem in /home/rramji/.qchemrc:
 Symmetry turned off for PCM/SM12/SMD calculation
 Core orbitals will be frozen

 Checking the input file for inconsistencies... 	...done.

 Q-Chem warning in module forms1/BasisType.C, line 2236:

 You are not using the predefined 5D/6D in this basis set.


--------------------------------------------------------------
User input:
--------------------------------------------------------------
$molecule
0 1
C	-0.094770	-0.391505	-0.211595
S	0.042730	0.389695	1.368905
C	0.327130	2.002495	0.693305
C	0.078330	0.591395	-1.196995
C	0.307530	1.891595	-0.705095
H	0.037430	0.359295	-2.271495
H	0.460430	2.759095	-1.364195
C	-0.094770	-1.869705	-0.211595
H	0.732930	-1.870305	-0.905395
H	0.539430	-2.309005	0.544205
H	-0.617470	-2.580705	-0.834295
H	0.479930	2.869795	1.344405
$end

$rem
JOBTYPE		SP
EXCHANGE	HF
CORRELATION	pRIMP2
BASIS		cc-pvtz
METHOD		rimp2
AUX_BASIS	rimp2-cc-pvtz
SOLVENT_METHOD	PCM
PURECART	11111
SYMMETRY	false
MEM_TOTAL	110000
SCF_CONVERGENCE = 6
THRESH=10
GUI = 2
$end



$solvent
dielectric 4.90
$end
--------------------------------------------------------------
 ----------------------------------------------------------------
             Standard Nuclear Orientation (Angstroms)
    I     Atom           X                Y                Z
 ----------------------------------------------------------------
    1      C      -0.0947700000    -0.3915050000    -0.2115950000
    2      S       0.0427300000     0.3896950000     1.3689050000
    3      C       0.3271300000     2.0024950000     0.6933050000
    4      C       0.0783300000     0.5913950000    -1.1969950000
    5      C       0.3075300000     1.8915950000    -0.7050950000
    6      H       0.0374300000     0.3592950000    -2.2714950000
    7      H       0.4604300000     2.7590950000    -1.3641950000
    8      C      -0.0947700000    -1.8697050000    -0.2115950000
    9      H       0.7329300000    -1.8703050000    -0.9053950000
   10      H       0.5394300000    -2.3090050000     0.5442050000
   11      H      -0.6174700000    -2.5807050000    -0.8342950000
   12      H       0.4799300000     2.8697950000     1.3444050000
 ----------------------------------------------------------------
 Nuclear Repulsion Energy =         270.32508825 hartrees
 There are       26 alpha and       26 beta electrons
 Requested basis set is cc-pVTZ
 There are 98 shells and 268 basis functions

 Total QAlloc Memory Limit 110000 MB
 Mega-Array Size       188 MB
 MEM_STATIC part       192 MB
 Discretize the solute cavity surface with Lebedev spheres
	Using 110 Lebedev grid points for each H atom
	Using 194 Lebedev grid points for other atoms
	Atomic van der Waals radii will be scaled by 1.20
 Remove points where switching function is < 1.0e-08
 Keep 888 surface tesserae and discard 936 interior tesserae
 Molecular Surface Area = 138.130 Angst**2

                       Distance Matrix (Angstroms)
             C (  1)   S (  2)   C (  3)   C (  4)   C (  5)   H (  6)
   S (  2)  1.768378
   C (  3)  2.593854  1.771565
   C (  4)  1.402522  2.574062  2.371990
   C (  5)  2.370218  2.574354  1.402927  1.408907
   H (  6)  2.196444  3.640531  3.402069  1.100042  2.207828
   H (  7)  3.400443  3.641204  2.196251  2.207460  1.100158  2.600224
   C (  8)  1.478200  2.760756  3.998847  2.656688  3.814809  3.037944
   H (  9)  1.831200  3.279698  4.209406  2.563884  3.791171  2.705747
   H ( 10)  2.156444  2.865279  4.319298  3.414193  4.388572  3.911521
   H ( 11)  2.335287  3.756758  4.922556  3.267707  4.568784  3.337370
   H ( 12)  3.658892  2.518460  1.095212  3.436729  2.277509  4.424155
             H (  7)   C (  8)   H (  9)   H ( 10)   H ( 11)
   C (  8)  4.802346
   H (  9)  4.660053  1.080021
   H ( 10)  5.416075  1.080013  1.526840
   H ( 11)  5.473219  1.080042  1.527515  1.820028
   H ( 12)  2.710931  5.021382  5.253014  5.240594  5.971513
 
 Requested basis set is rimp2-cc-pVTZ
 There are 207 shells and 707 basis functions
 A cutoff of  1.0D-10 yielded   4371 shell pairs
 There are     32839 function pairs (     42485 Cartesian)
 Smallest overlap matrix eigenvalue = 1.25E-04

 Scale SEOQF with 1.000000e+00/1.000000e-01/1.000000e-01

 Standard Electronic Orientation quadrupole field applied
 Nucleus-field energy     =     0.0000000025 hartrees
 Guess from superposition of atomic densities
 Warning:  Energy on first SCF cycle will be non-variational
 SAD guess density has 52.000000 electrons

 -----------------------------------------------------------------------
  General SCF calculation program by
  Eric Jon Sundstrom, Paul Horn, Yuezhi Mao, Dmitri Zuev, Alec White,
  David Stuck, Shaama M.S., Shane Yost, Joonho Lee, David Small,
  Daniel Levine, Susi Lehtola, Hugh Burton, Evgeny Epifanovsky,
  Bang C. Huynh
 -----------------------------------------------------------------------
 Hartree-Fock
 using 64 threads for integral computing
 -------------------------------------------------------
 OpenMP Integral computing Module                
 Release: version 1.0, May 2013, Q-Chem Inc. Pittsburgh 
 -------------------------------------------------------
 A restricted SCF calculation will be
 performed using DIIS
 SCF converges when DIIS error is below 1.0e-06
 ---------------------------------------
  Cycle       Energy         DIIS error
 ---------------------------------------
    1    -592.5746787317      3.22e-02  
    2    -590.3021918584      2.18e-03  
    3    -590.3628490465      8.26e-04  
    4    -590.3699361366      3.97e-04  
    5    -590.3719165547      6.97e-05  
    6    -590.3720361495      3.13e-05  
    7    -590.3720649993      1.41e-05  
    8    -590.3720742259      5.64e-06  
    9    -590.3720756955      1.90e-06  
   10    -590.3720758308      6.00e-07  Convergence criterion met
 ---------------------------------------
 SCF time:   CPU 521.41s  wall 9.00s 

************** Final PCM Free Energy Summary **************
 G_electrostatic  =      -0.00583697 hartree =      -3.66275413 kcal/mol
 G_cavitation     =       0.00000000 hartree =       0.00000000 kcal/mol
 G_dispersion     =       0.00000000 hartree =       0.00000000 kcal/mol
 G_repulsion      =       0.00000000 hartree =       0.00000000 kcal/mol
 --------------------------------------------------
 Non-electrostatic Free Energy =       0.00000000 hartree =       0.00000000 kcal/mol
 Total                         =      -0.00583697 hartree =      -3.66275413 kcal/mol
 --------------------------------------------------
 SCF Energy (H0 + V/2)                       =    -590.37207583 
 Solute Internal Energy (H0)                 =    -590.36623886 
 Total Free Energy (H0 + V/2 + non-elec)     =    -590.37207583 hartree
                                             = -370464.06899774 kcal/mol
***********************************************************

 SCF   energy in the final basis set =     -590.3720758308
 Total energy in the final basis set =     -590.3720758308


 --------------------------------------------------------------
  Generalized many-body perturbation theory program
  by Joonho Lee, Fazle Rob, Xintian Feng, Evgeny Epifanovsky

 No regularization used 
 (reg. param. = 0.0000e+00)
  (P|Q)^-1/2 Time:  CPU 8.25 s  wall 0.14 s

 In RI-MP2 calculation: 
 # of frozen core orbitals: 10

 Components of the RIMP2 correlation energy:
        aaaa    correlation energy =        -0.1253129151 a.u.
        abab    correlation energy =        -0.7508154816 a.u.
        bbbb    correlation energy =        -0.1253129151 a.u.
        non-Brillouin singles      =        -0.0000000000 a.u.
        total same-spin energy     =        -0.2506258301 a.u.
        total opposite-spin energy =        -0.7508154816 a.u.

 Total  RIMP2   correlation energy =        -1.0014413117 a.u.
        RIMP2         total energy =      -591.3735171425 a.u.

 RI-MP2 Energy Time:  CPU 31.86 s  wall 0.58 s
 
 --------------------------------------------------------------
 
                    Orbital Energies (a.u.)
 --------------------------------------------------------------
 
 Alpha MOs
 -- Occupied --
-91.9784 -11.2892 -11.2640 -11.2430 -11.2340 -11.2259  -8.9781  -6.6590
 -6.6585  -6.6579  -1.1571  -1.0393  -0.9720  -0.9187  -0.7543  -0.7231
 -0.6717  -0.5974  -0.5670  -0.5558  -0.5439  -0.4972  -0.4707  -0.4510
 -0.3455  -0.3026
 -- Virtual --
  0.1074   0.1490   0.1606   0.1796   0.1852   0.1925   0.2179   0.2260
  0.2394   0.2499   0.3153   0.3296   0.3539   0.3690   0.3866   0.4053
  0.4244   0.4469   0.4639   0.4859   0.4948   0.5130   0.5274   0.5315
  0.5444   0.5485   0.5666   0.5847   0.5946   0.6121   0.6149   0.6194
  0.6357   0.6452   0.6526   0.6553   0.7045   0.7071   0.7302   0.7660
  0.7820   0.8027   0.8344   0.8553   0.8784   0.8888   0.8900   0.9091
  0.9412   0.9789   1.0117   1.0350   1.0620   1.0770   1.0938   1.1256
  1.1501   1.1715   1.1729   1.1939   1.2154   1.2289   1.2367   1.2712
  1.2808   1.3195   1.3348   1.3443   1.3897   1.3997   1.4215   1.4530
  1.4684   1.4948   1.5069   1.5259   1.5353   1.5503   1.5622   1.5771
  1.5922   1.6212   1.6460   1.6783   1.7176   1.7388   1.7699   1.7988
  1.8234   1.8944   1.9087   1.9294   1.9456   1.9841   2.0532   2.0805
  2.1524   2.1712   2.2156   2.2254   2.2577   2.2820   2.3156   2.4204
  2.4270   2.4557   2.4885   2.5262   2.5738   2.5929   2.6330   2.6526
  2.6967   2.7100   2.7182   2.7440   2.7595   2.7786   2.7946   2.8242
  2.8701   2.8968   2.9146   2.9497   2.9799   3.0162   3.0231   3.0421
  3.0528   3.0905   3.1151   3.1357   3.1753   3.2031   3.2317   3.2456
  3.2531   3.2715   3.2920   3.3187   3.3260   3.3410   3.3534   3.3822
  3.3931   3.4198   3.4438   3.4541   3.4681   3.4754   3.4969   3.5104
  3.5199   3.5240   3.5465   3.5718   3.5883   3.6223   3.6335   3.6682
  3.6747   3.6915   3.7190   3.7361   3.7485   3.7731   3.7868   3.8392
  3.8553   3.8840   3.8983   3.9173   3.9301   3.9507   3.9719   3.9902
  4.0179   4.0431   4.0789   4.0934   4.1197   4.1625   4.1668   4.2043
  4.2321   4.2463   4.2799   4.2957   4.3162   4.3450   4.3684   4.3895
  4.4107   4.4667   4.4835   4.5001   4.5389   4.5771   4.6130   4.6417
  4.6539   4.7017   4.7280   4.7685   4.7868   4.8087   4.8586   4.8796
  4.9333   4.9926   5.0188   5.0341   5.0818   5.1514   5.1726   5.1970
  5.2133   5.3072   5.3568   5.4296   5.4530   5.4912   5.5298   5.5717
  5.6320   5.7289   5.7785   5.8219   5.8679   5.9419   6.0084   6.0841
  6.1317   6.3292   6.4132   6.4705   6.6797   9.3581  11.3235  12.8489
 13.9531  14.1827
 --------------------------------------------------------------
 
          Ground-State Mulliken Net Atomic Charges

     Atom                 Charge (a.u.)
  ----------------------------------------
      1 C                     0.033389
      2 S                    -0.002247
      3 C                    -0.240883
      4 C                    -0.233710
      5 C                    -0.192098
      6 H                     0.180841
      7 H                     0.185799
      8 C                    -0.366605
      9 H                     0.136214
     10 H                     0.137757
     11 H                     0.158099
     12 H                     0.203443
  ----------------------------------------
  Sum of atomic charges =     0.000000

 -----------------------------------------------------------------
                    Cartesian Multipole Moments
 -----------------------------------------------------------------
    Charge (ESU x 10^10)
                 0.0000
    Dipole Moment (Debye)
         X       0.7578      Y      -0.6610      Z      -1.5156
       Tot       1.8188
    Quadrupole Moments (Debye-Ang)
        XX     -47.8170     XY       0.4840     YY     -36.3755
        XZ       0.3640     YZ       1.8704     ZZ     -41.7355
    Octopole Moments (Debye-Ang^2)
       XXX     -14.5427    XXY     -20.7582    XYY       1.4273
       YYY     -42.1474    XXZ      -7.0351    XYZ      -0.5070
       YYZ      -6.5761    XZZ      -3.0958    YZZ     -11.0589
       ZZZ     -27.8055
    Hexadecapole Moments (Debye-Ang^3)
      XXXX     -75.8022   XXXY     -32.7338   XXYY    -112.3714
      XYYY     -16.5488   YYYY    -495.3390   XXXZ      -1.9436
      XXYZ      -6.8790   XYYZ       4.3931   YYYZ      -5.0798
      XXZZ     -70.0389   XYZZ      -4.7492   YYZZ    -123.2970
      XZZZ      -0.8245   YZZZ     -16.6999   ZZZZ    -308.4193
 -----------------------------------------------------------------
 Total job time:  21.11s(wall), 624.36s(cpu) 
 Sun Sep 24 15:12:46 2023

        *************************************************************
        *                                                           *
        *  Thank you very much for using Q-Chem.  Have a nice day.  *
        *                                                           *
        *************************************************************


0 sent ACK to 0 
now end server 0 ... 
cleanup process ... done
remove work dirs ./qchem1492830.0 -- ./qchem1492830.0
rm -rf ./qchem1492830.0
rm -rf ./qchem1492830
