You are running Q-Chem version: 5.4.0

#
# job setting
#
local host:  exp-2-38
current dir: /expanse/lustre/projects/csd626/rramji/aromodel/PNDIT/Hydrogenated_Impropers_Test
input file:  Dimethyl_Naphthalene_Dicarboximide_Phi_15_Theta_50_Thiophene_Hydrogenated_Improper.qcin
output file: 
nprocs     : 1
nthreads   : 64
#
# qchem installation setting
#
QC:          /cm/shared/apps/spack/cpu/opt/spack/linux-centos8-zen2/gcc-10.2.0/qchem-5.4-akfmr7b3t57bfs6qan3padb2wnb2i7cl
QCAUX:       /cm/shared/apps/spack/cpu/opt/spack/linux-centos8-zen2/gcc-10.2.0/qchem-5.4-akfmr7b3t57bfs6qan3padb2wnb2i7cl/qcaux
QCPROG:      /cm/shared/apps/spack/cpu/opt/spack/linux-centos8-zen2/gcc-10.2.0/qchem-5.4-akfmr7b3t57bfs6qan3padb2wnb2i7cl/exe/qcprog.exe
QCPROG_S:    /cm/shared/apps/spack/cpu/opt/spack/linux-centos8-zen2/gcc-10.2.0/qchem-5.4-akfmr7b3t57bfs6qan3padb2wnb2i7cl/exe/qcprog.exe_s
PARALLEL:    -DPARALLEL
QCMPI:       mpich
#
# qchem directory setting
#
qcrun:       qchem3739264
QCSCRATCH:   .
QCLOCALSCR:  
QCTMPDIR:    .
QCFILEPREF:  ./qchem3739264
QCSAVEDIR:   
workdirs:    ./qchem3739264
workdir0:    ./qchem3739264
partmpdirs =  
#
# parallel setting
#
QCRSH:           ssh
QCMPI:           mpich
QCMPIRUN:        /cm/shared/apps/spack/cpu/opt/spack/linux-centos8-zen2/gcc-10.2.0/qchem-5.4-akfmr7b3t57bfs6qan3padb2wnb2i7cl/bin/mpi/mpirun_qchem
QCMACHINEFILE:   ./qchem3739264/hostfile
exp-2-38

#
# env setting
#
exported envs:   QC QCAUX QCSCRATCH QCRUNNAME QCFILEPREF QCPROG QCPROG_S GUIFILE

Running Job 1 of 1 Dimethyl_Naphthalene_Dicarboximide_Phi_15_Theta_50_Thiophene_Hydrogenated_Improper.qcin
qchem Dimethyl_Naphthalene_Dicarboximide_Phi_15_Theta_50_Thiophene_Hydrogenated_Improper.qcin_3739264.0 ./qchem3739264/ 1
/cm/shared/apps/spack/cpu/opt/spack/linux-centos8-zen2/gcc-10.2.0/qchem-5.4-akfmr7b3t57bfs6qan3padb2wnb2i7cl/bin/mpi/mpirun_qchem -machinefile ./qchem3739264/hostfile -np 1 /cm/shared/apps/spack/cpu/opt/spack/linux-centos8-zen2/gcc-10.2.0/qchem-5.4-akfmr7b3t57bfs6qan3padb2wnb2i7cl/exe/qcprog.exe Dimethyl_Naphthalene_Dicarboximide_Phi_15_Theta_50_Thiophene_Hydrogenated_Improper.qcin_3739264.0 ./qchem3739264/

Process 0 of 1 is on exp-2-38 - thread support 0
initial socket setup ...start
initial socket setup ...done 
now start server 0 ... 
                  Welcome to Q-Chem
     A Quantum Leap Into The Future Of Chemistry


 Q-Chem 5.4, Q-Chem, Inc., Pleasanton, CA (2021)

 License issued to: University of California, San Diego (site)

 E. Epifanovsky,  A. T. B. Gilbert,  Xintian Feng,  Joonho Lee,  Yuezhi Mao,  
 N. Mardirossian,  P. Pokhilko,  A. White,  M. Wormit,  M. P. Coons,  
 A. L. Dempwolff,  Zhengting Gan,  D. Hait,  P. R. Horn,  L. D. Jacobson,  
 I. Kaliman,  J. Kussmann,  A. W. Lange,  Ka Un Lao,  D. S. Levine,  Jie Liu,  
 S. C. McKenzie,  A. F. Morrison,  K. Nanda,  F. Plasser,  D. R. Rehn,  
 M. L. Vidal,  Zhi-Qiang You,  Ying Zhu,  B. Alam,  B. Albrecht,  
 A. Aldossary,  E. Alguire,  J. H. Andersen,  D. Barton,  K. Begam,  A. Behn,  
 Y. A. Bernard,  E. J. Berquist,  H. Burton,  A. Carreras,  K. Carter-Fenk,  
 R. Chakraborty,  A. D. Chien,  K. D. Closser,  V. Cofer-Shabica,  
 S. Dasgupta,  Jia Deng,  M. de Wergifosse,  M. Diedenhofen,  Hainam Do,  
 S. Ehlert,  Po-Tung Fang,  S. Fatehi,  Qingguo Feng,  J. Gayvert,  
 Qinghui Ge,  G. Gidofalvi,  M. Goldey,  J. Gomes,  C. Gonzalez-Espinoza,  
 S. Gulania,  A. Gunina,  M. W. D. Hanson-Heine,  P. H. P. Harbach,  
 A. W. Hauser,  M. F. Herbst,  M. Hernandez Vera,  M. Hodecker,  
 Z. C. Holden,  S. Houck,  Xunkun Huang,  Kerwin Hui,  B. C. Huynh,  
 M. Ivanov,  Hyunjun Ji,  Hanjie Jiang,  B. Kaduk,  S. Kaehler,  
 K. Khistyaev,  Jaehoon Kim,  P. Klunzinger,  Z. Koczor-Benda,  
 Joong Hoon Koh,  D. Kosenkov,  L. Koulias,  T. Kowalczyk,  C. M. Krauter,  
 K. Kue,  A. Kunitsa,  T. Kus,  A. Landau,  K. V. Lawler,  D. Lefrancois,  
 S. Lehtola,  Rain Li,  Yi-Pei Li,  Jiashu Liang,  M. Liebenthal,  
 Hung-Hsuan Lin,  You-Sheng Lin,  Fenglai Liu,  Kuan-Yu Liu,  
 M. Loipersberger,  A. Luenser,  A. Manjanath,  P. Manohar,  E. Mansoor,  
 S. F. Manzer,  Shan-Ping Mao,  A. V. Marenich,  T. Markovich,  S. Mason,  
 S. A. Maurer,  P. F. McLaughlin,  M. F. S. J. Menger,  J.-M. Mewes,  
 S. A. Mewes,  P. Morgante,  J. W. Mullinax,  T. S. Nguyen-Beck,  
 K. J. Oosterbaan,  G. Paran,  Alexander C. Paul,  Suranjan K. Paul,  
 F. Pavosevic,  Zheng Pei,  S. Prager,  E. I. Proynov,  E. Ramos,  B. Rana,  
 A. E. Rask,  A. Rettig,  R. M. Richard,  F. Rob,  E. Rossomme,  T. Scheele,  
 M. Scheurer,  M. Schneider,  N. Sergueev,  S. M. Sharada,  W. Skomorowski,  
 D. W. Small,  C. J. Stein,  Yu-Chuan Su,  E. J. Sundstrom,  Zhen Tao,  
 J. Thirman,  T. Tsuchimochi,  N. M. Tubman,  S. P. Veccham,  O. Vydrov,  
 J. Wenzel,  J. Witte,  A. Yamada,  Kun Yao,  S. Yeganeh,  S. R. Yost,  
 A. Zech,  Igor Ying Zhang,  Xing Zhang,  Yu Zhang,  D. Zuev,  
 A. Aspuru-Guzik,  A. T. Bell,  N. A. Besley,  K. B. Bravaya,  B. R. Brooks,  
 D. Casanova,  Jeng-Da Chai,  S. Coriani,  C. J. Cramer,  
 A. E. DePrince, III,  R. A. DiStasio Jr.,  A. Dreuw,  B. D. Dunietz,  
 T. R. Furlani,  W. A. Goddard III,  S. Grimme,  S. Hammes-Schiffer,  
 T. Head-Gordon,  W. J. Hehre,  Chao-Ping Hsu,  T.-C. Jagau,  Yousung Jung,  
 A. Klamt,  Jing Kong,  D. S. Lambrecht,  WanZhen Liang,  N. J. Mayhall,  
 C. W. McCurdy,  J. B. Neaton,  C. Ochsenfeld,  J. A. Parkhill,  R. Peverati,  
 V. A. Rassolov,  Yihan Shao,  L. V. Slipchenko,  T. Stauch,  R. P. Steele,  
 J. E. Subotnik,  A. J. W. Thom,  A. Tkatchenko,  D. G. Truhlar,  
 T. Van Voorhis,  T. A. Wesolowski,  K. B. Whaley,  H. L. Woodcock III,  
 P. M. Zimmerman,  S. Faraji,  P. M. W. Gill,  M. Head-Gordon,  
 J. M. Herbert,  A. I. Krylov

 Contributors to earlier versions of Q-Chem not listed above: 
 R. D. Adamson,  B. Austin,  R. Baer,  J. Baker,  G. J. O. Beran,  
 K. Brandhorst,  S. T. Brown,  E. F. C. Byrd,  A. K. Chakraborty,  
 G. K. L. Chan,  Chun-Min Chang,  Yunqing Chen,  C.-L. Cheng,  
 Siu Hung Chien,  D. M. Chipman,  D. L. Crittenden,  H. Dachsel,  
 R. J. Doerksen,  A. D. Dutoi,  R. G. Edgar,  J. Fosso-Tande,  
 L. Fusti-Molnar,  D. Ghosh,  A. Ghysels,  A. Golubeva-Zadorozhnaya,  
 J. Gonthier,  M. S. Gordon,  S. R. Gwaltney,  G. Hawkins,  J. E. Herr,  
 A. Heyden,  S. Hirata,  E. G. Hohenstein,  G. Kedziora,  F. J. Keil,  
 C. Kelley,  Jihan Kim,  R. A. King,  R. Z. Khaliullin,  P. P. Korambath,  
 W. Kurlancheek,  A. Laurent,  A. M. Lee,  M. S. Lee,  S. V. Levchenko,  
 Ching Yeh Lin,  D. Liotard,  E. Livshits,  R. C. Lochan,  I. Lotan,  
 L. A. Martinez-Martinez,  P. E. Maslen,  N. Nair,  D. P. O'Neill,  
 D. Neuhauser,  E. Neuscamman,  C. M. Oana,  R. Olivares-Amaya,  R. Olson,  
 T. M. Perrine,  B. Peters,  P. A. Pieniazek,  A. Prociuk,  Y. M. Rhee,  
 J. Ritchie,  M. A. Rohrdanz,  E. Rosta,  N. J. Russ,  H. F. Schaefer III,  
 M. W. Schmidt,  N. E. Schultz,  S. Sharma,  N. Shenvi,  C. D. Sherrill,  
 A. C. Simmonett,  A. Sodt,  T. Stein,  D. Stuck,  K. S. Thanthiriwatte,  
 V. Vanovschi,  L. Vogt,  Tao Wang,  A. Warshel,  M. A. Watson,  
 C. F. Williams,  Q. Wu,  X. Xu,  Jun Yang,  W. Zhang,  Yan Zhao

 Please cite Q-Chem as follows:
 Y. Shao et al., Mol. Phys. 113, 184-215 (2015)
 DOI: 10.1080/00268976.2014.952696

 Q-Chem 5.4.0 for Intel X86 EM64T Linux

 Parts of Q-Chem use Armadillo 9.800.1 (Horizon Scraper).
 http://arma.sourceforge.net/

 Q-Chem begins on Sun Sep 24 15:58:10 2023  

 Host: 
0

     Scratch files written to ./qchem3739264//
 May1621 |scratch|qcdevops|jenkins|workspace|build_RNUM    
 Parallel job on  1  processors
 Processing $rem in /cm/shared/apps/spack/cpu/opt/spack/linux-centos8-zen2/gcc-10.2.0/qchem-5.4-akfmr7b3t57bfs6qan3padb2wnb2i7cl/config/preferences:
 Processing $rem in /home/rramji/.qchemrc:
 Symmetry turned off for PCM/SM12/SMD calculation
 Core orbitals will be frozen

 Checking the input file for inconsistencies... 	...done.

 Q-Chem warning in module forms1/BasisType.C, line 2236:

 You are not using the predefined 5D/6D in this basis set.


--------------------------------------------------------------
User input:
--------------------------------------------------------------
$molecule
0 1
C	-0.136987	-0.381707	-0.219296
S	0.068113	0.384493	1.361204
C	0.491913	1.966393	0.685604
C	0.121113	0.582293	-1.204696
C	0.462713	1.857593	-0.712796
H	0.060213	0.354693	-2.279196
H	0.690713	2.708493	-1.371896
C	-0.136987	-1.859907	-0.219296
H	0.556813	-1.860507	0.608404
H	-0.892787	-2.299207	0.414904
H	0.485713	-2.570907	-0.741996
H	0.719813	2.817093	1.336704
$end

$rem
JOBTYPE		SP
EXCHANGE	HF
CORRELATION	pRIMP2
BASIS		cc-pvtz
METHOD		rimp2
AUX_BASIS	rimp2-cc-pvtz
SOLVENT_METHOD	PCM
PURECART	11111
SYMMETRY	false
MEM_TOTAL	110000
SCF_CONVERGENCE = 6
THRESH=10
GUI = 2
$end



$solvent
dielectric 4.90
$end
--------------------------------------------------------------
 ----------------------------------------------------------------
             Standard Nuclear Orientation (Angstroms)
    I     Atom           X                Y                Z
 ----------------------------------------------------------------
    1      C      -0.1369870000    -0.3817070000    -0.2192960000
    2      S       0.0681130000     0.3844930000     1.3612040000
    3      C       0.4919130000     1.9663930000     0.6856040000
    4      C       0.1211130000     0.5822930000    -1.2046960000
    5      C       0.4627130000     1.8575930000    -0.7127960000
    6      H       0.0602130000     0.3546930000    -2.2791960000
    7      H       0.6907130000     2.7084930000    -1.3718960000
    8      C      -0.1369870000    -1.8599070000    -0.2192960000
    9      H       0.5568130000    -1.8605070000     0.6084040000
   10      H      -0.8927870000    -2.2992070000     0.4149040000
   11      H       0.4857130000    -2.5709070000    -0.7419960000
   12      H       0.7198130000     2.8170930000     1.3367040000
 ----------------------------------------------------------------
 Nuclear Repulsion Energy =         271.09931092 hartrees
 There are       26 alpha and       26 beta electrons
 Requested basis set is cc-pVTZ
 There are 98 shells and 268 basis functions

 Total QAlloc Memory Limit 110000 MB
 Mega-Array Size       188 MB
 MEM_STATIC part       192 MB
 Discretize the solute cavity surface with Lebedev spheres
	Using 110 Lebedev grid points for each H atom
	Using 194 Lebedev grid points for other atoms
	Atomic van der Waals radii will be scaled by 1.20
 Remove points where switching function is < 1.0e-08
 Keep 881 surface tesserae and discard 943 interior tesserae
 Molecular Surface Area = 137.777 Angst**2

                       Distance Matrix (Angstroms)
             C (  1)   S (  2)   C (  3)   C (  4)   C (  5)   H (  6)
   S (  2)  1.768363
   C (  3)  2.593826  1.771567
   C (  4)  1.402471  2.574058  2.372016
   C (  5)  2.370158  2.574337  1.402930  1.408917
   H (  6)  2.196443  3.640531  3.402055  1.100028  2.207787
   H (  7)  3.400428  3.641214  2.196256  2.207516  1.100194  2.600211
   C (  8)  1.478200  2.752704  3.981825  2.646124  3.797761  3.030929
   H (  9)  1.831200  2.417759  3.828229  3.073180  3.946985  3.673140
   H ( 10)  2.156444  3.003508  4.492885  3.457476  4.515315  3.899945
   H ( 11)  2.335287  3.651333  4.756592  3.207755  4.428656  3.332142
   H ( 12)  3.658902  2.518503  1.095244  3.436784  2.277541  4.424163
             H (  7)   C (  8)   H (  9)   H ( 10)   H ( 11)
   C (  8)  4.783707
   H (  9)  4.981494  1.080021
   H ( 10)  5.547719  1.080013  1.526840
   H ( 11)  5.320795  1.080042  1.527515  1.820028
   H ( 12)  2.710932  5.002956  4.736764  5.443043  5.779822
 
 Requested basis set is rimp2-cc-pVTZ
 There are 207 shells and 707 basis functions
 A cutoff of  1.0D-10 yielded   4378 shell pairs
 There are     32892 function pairs (     42546 Cartesian)
 Smallest overlap matrix eigenvalue = 1.23E-04

 Scale SEOQF with 1.000000e+00/1.000000e-01/1.000000e-01

 Standard Electronic Orientation quadrupole field applied
 Nucleus-field energy     =     0.0000000033 hartrees
 Guess from superposition of atomic densities
 Warning:  Energy on first SCF cycle will be non-variational
 SAD guess density has 52.000000 electrons

 -----------------------------------------------------------------------
  General SCF calculation program by
  Eric Jon Sundstrom, Paul Horn, Yuezhi Mao, Dmitri Zuev, Alec White,
  David Stuck, Shaama M.S., Shane Yost, Joonho Lee, David Small,
  Daniel Levine, Susi Lehtola, Hugh Burton, Evgeny Epifanovsky,
  Bang C. Huynh
 -----------------------------------------------------------------------
 Hartree-Fock
 using 64 threads for integral computing
 -------------------------------------------------------
 OpenMP Integral computing Module                
 Release: version 1.0, May 2013, Q-Chem Inc. Pittsburgh 
 -------------------------------------------------------
 A restricted SCF calculation will be
 performed using DIIS
 SCF converges when DIIS error is below 1.0e-06
 ---------------------------------------
  Cycle       Energy         DIIS error
 ---------------------------------------
    1    -592.5920421601      3.23e-02  
    2    -590.2966604340      2.20e-03  
    3    -590.3578831396      8.36e-04  
    4    -590.3651599652      3.95e-04  
    5    -590.3671609184      7.16e-05  
    6    -590.3672905035      3.18e-05  
    7    -590.3673230832      1.47e-05  
    8    -590.3673330431      5.89e-06  
    9    -590.3673345726      1.98e-06  
   10    -590.3673347213      6.10e-07  Convergence criterion met
 ---------------------------------------
 SCF time:   CPU 485.05s  wall 9.00s 

************** Final PCM Free Energy Summary **************
 G_electrostatic  =      -0.00548046 hartree =      -3.43904241 kcal/mol
 G_cavitation     =       0.00000000 hartree =       0.00000000 kcal/mol
 G_dispersion     =       0.00000000 hartree =       0.00000000 kcal/mol
 G_repulsion      =       0.00000000 hartree =       0.00000000 kcal/mol
 --------------------------------------------------
 Non-electrostatic Free Energy =       0.00000000 hartree =       0.00000000 kcal/mol
 Total                         =      -0.00548046 hartree =      -3.43904241 kcal/mol
 --------------------------------------------------
 SCF Energy (H0 + V/2)                       =    -590.36733472 
 Solute Internal Energy (H0)                 =    -590.36185426 
 Total Free Energy (H0 + V/2 + non-elec)     =    -590.36733472 hartree
                                             = -370461.09390667 kcal/mol
***********************************************************

 SCF   energy in the final basis set =     -590.3673347213
 Total energy in the final basis set =     -590.3673347213


 --------------------------------------------------------------
  Generalized many-body perturbation theory program
  by Joonho Lee, Fazle Rob, Xintian Feng, Evgeny Epifanovsky

 No regularization used 
 (reg. param. = 0.0000e+00)
  (P|Q)^-1/2 Time:  CPU 5.23 s  wall 0.09 s

 In RI-MP2 calculation: 
 # of frozen core orbitals: 10

 Components of the RIMP2 correlation energy:
        aaaa    correlation energy =        -0.1251830135 a.u.
        abab    correlation energy =        -0.7511019690 a.u.
        bbbb    correlation energy =        -0.1251830135 a.u.
        non-Brillouin singles      =        -0.0000000000 a.u.
        total same-spin energy     =        -0.2503660269 a.u.
        total opposite-spin energy =        -0.7511019690 a.u.

 Total  RIMP2   correlation energy =        -1.0014679959 a.u.
        RIMP2         total energy =      -591.3688027172 a.u.

 RI-MP2 Energy Time:  CPU 23.40 s  wall 0.41 s
 
 --------------------------------------------------------------
 
                    Orbital Energies (a.u.)
 --------------------------------------------------------------
 
 Alpha MOs
 -- Occupied --
-91.9782 -11.2853 -11.2685 -11.2427 -11.2353 -11.2241  -8.9784  -6.6593
 -6.6588  -6.6582  -1.1586  -1.0402  -0.9726  -0.9177  -0.7577  -0.7209
 -0.6718  -0.5961  -0.5680  -0.5632  -0.5333  -0.5013  -0.4665  -0.4540
 -0.3465  -0.3048
 -- Virtual --
  0.1019   0.1480   0.1610   0.1773   0.1904   0.1987   0.2133   0.2230
  0.2430   0.2470   0.3070   0.3257   0.3590   0.3696   0.3912   0.4179
  0.4237   0.4478   0.4617   0.4740   0.4909   0.5010   0.5247   0.5354
  0.5427   0.5608   0.5644   0.5751   0.5926   0.6107   0.6155   0.6200
  0.6308   0.6419   0.6511   0.6634   0.7057   0.7140   0.7323   0.7607
  0.7838   0.8080   0.8341   0.8476   0.8658   0.8830   0.8935   0.9202
  0.9538   0.9883   1.0020   1.0369   1.0439   1.0706   1.1087   1.1159
  1.1531   1.1653   1.1738   1.1878   1.2221   1.2367   1.2510   1.2634
  1.2855   1.3079   1.3414   1.3539   1.3954   1.4029   1.4251   1.4310
  1.4783   1.4830   1.5042   1.5262   1.5380   1.5502   1.5575   1.5763
  1.6017   1.6422   1.6460   1.6658   1.7120   1.7289   1.7518   1.8051
  1.8292   1.9048   1.9110   1.9293   1.9655   1.9968   2.0667   2.0989
  2.1399   2.1731   2.1943   2.2157   2.2579   2.2744   2.3469   2.3973
  2.4333   2.4553   2.4734   2.5135   2.5469   2.5966   2.6210   2.6569
  2.6964   2.7065   2.7247   2.7384   2.7540   2.7745   2.8140   2.8406
  2.8859   2.9076   2.9238   2.9842   2.9964   3.0057   3.0254   3.0404
  3.0565   3.0914   3.1303   3.1373   3.1602   3.2043   3.2125   3.2426
  3.2578   3.2671   3.3039   3.3115   3.3423   3.3532   3.3558   3.3788
  3.3966   3.4261   3.4434   3.4477   3.4575   3.4794   3.4892   3.4998
  3.5028   3.5203   3.5426   3.5706   3.5994   3.6097   3.6548   3.6649
  3.6878   3.7028   3.7149   3.7294   3.7696   3.7933   3.8145   3.8366
  3.8396   3.8886   3.9076   3.9196   3.9322   3.9515   3.9583   3.9898
  4.0086   4.0133   4.0650   4.1038   4.1293   4.1482   4.1666   4.2064
  4.2158   4.2342   4.2602   4.2916   4.3051   4.3429   4.3855   4.3951
  4.4438   4.4655   4.4799   4.4971   4.5394   4.5717   4.5860   4.6447
  4.6699   4.6876   4.7152   4.7615   4.7956   4.8078   4.8272   4.8680
  4.9184   5.0078   5.0310   5.0428   5.0689   5.1496   5.1868   5.2032
  5.2166   5.3044   5.3600   5.4322   5.4634   5.4949   5.5447   5.6019
  5.6257   5.6756   5.7967   5.8389   5.8482   5.9316   6.0015   6.0774
  6.1337   6.3284   6.4284   6.4520   6.7192   9.3536  11.2985  12.7741
 13.8931  14.3074
 --------------------------------------------------------------
 
          Ground-State Mulliken Net Atomic Charges

     Atom                 Charge (a.u.)
  ----------------------------------------
      1 C                     0.023663
      2 S                    -0.004176
      3 C                    -0.234825
      4 C                    -0.240099
      5 C                    -0.183619
      6 H                     0.184626
      7 H                     0.186137
      8 C                    -0.357448
      9 H                     0.125573
     10 H                     0.133008
     11 H                     0.161879
     12 H                     0.205281
  ----------------------------------------
  Sum of atomic charges =     0.000000

 -----------------------------------------------------------------
                    Cartesian Multipole Moments
 -----------------------------------------------------------------
    Charge (ESU x 10^10)
                -0.0000
    Dipole Moment (Debye)
         X       0.7771      Y      -0.4160      Z      -0.5584
       Tot       1.0434
    Quadrupole Moments (Debye-Ang)
        XX     -47.3344     XY       1.1942     YY     -36.6547
        XZ      -0.3374     YZ      -0.0506     ZZ     -42.1843
    Octopole Moments (Debye-Ang^2)
       XXX     -20.8337    XXY     -19.3360    XYY       2.8032
       YYY     -40.8864    XXZ      -6.9460    XYZ       2.6162
       YYZ      -2.6765    XZZ      -4.0660    YZZ      -9.0033
       ZZZ     -28.9513
    Hexadecapole Moments (Debye-Ang^3)
      XXXX     -88.6927   XXXY     -48.4560   XXYY    -106.9547
      XYYY     -31.2965   YYYY    -488.2049   XXXZ      -1.8975
      XXYZ      -5.4660   XYYZ      -2.5087   YYYZ      -8.1832
      XXZZ     -70.6256   XYZZ      -8.4329   YYZZ    -124.6006
      XZZZ      -0.0560   YZZZ     -13.2855   ZZZZ    -304.8419
 -----------------------------------------------------------------
 Total job time:  10.39s(wall), 546.77s(cpu) 
 Sun Sep 24 15:58:20 2023

        *************************************************************
        *                                                           *
        *  Thank you very much for using Q-Chem.  Have a nice day.  *
        *                                                           *
        *************************************************************


0 sent ACK to 0 
now end server 0 ... 
cleanup process ... done
remove work dirs ./qchem3739264.0 -- ./qchem3739264.0
rm -rf ./qchem3739264.0
rm -rf ./qchem3739264
