You are running Q-Chem version: 5.4.0

#
# job setting
#
local host:  exp-3-02
current dir: /expanse/lustre/projects/csd626/rramji/aromodel/PNDIT/Hydrogenated_Impropers_Test
input file:  Dimethyl_Naphthalene_Dicarboximide_Phi_5_Theta_110_Thiophene_Hydrogenated_Improper.qcin
output file: 
nprocs     : 1
nthreads   : 64
#
# qchem installation setting
#
QC:          /cm/shared/apps/spack/cpu/opt/spack/linux-centos8-zen2/gcc-10.2.0/qchem-5.4-akfmr7b3t57bfs6qan3padb2wnb2i7cl
QCAUX:       /cm/shared/apps/spack/cpu/opt/spack/linux-centos8-zen2/gcc-10.2.0/qchem-5.4-akfmr7b3t57bfs6qan3padb2wnb2i7cl/qcaux
QCPROG:      /cm/shared/apps/spack/cpu/opt/spack/linux-centos8-zen2/gcc-10.2.0/qchem-5.4-akfmr7b3t57bfs6qan3padb2wnb2i7cl/exe/qcprog.exe
QCPROG_S:    /cm/shared/apps/spack/cpu/opt/spack/linux-centos8-zen2/gcc-10.2.0/qchem-5.4-akfmr7b3t57bfs6qan3padb2wnb2i7cl/exe/qcprog.exe_s
PARALLEL:    -DPARALLEL
QCMPI:       mpich
#
# qchem directory setting
#
qcrun:       qchem1049214
QCSCRATCH:   .
QCLOCALSCR:  
QCTMPDIR:    .
QCFILEPREF:  ./qchem1049214
QCSAVEDIR:   
workdirs:    ./qchem1049214
workdir0:    ./qchem1049214
partmpdirs =  
#
# parallel setting
#
QCRSH:           ssh
QCMPI:           mpich
QCMPIRUN:        /cm/shared/apps/spack/cpu/opt/spack/linux-centos8-zen2/gcc-10.2.0/qchem-5.4-akfmr7b3t57bfs6qan3padb2wnb2i7cl/bin/mpi/mpirun_qchem
QCMACHINEFILE:   ./qchem1049214/hostfile
exp-3-02

#
# env setting
#
exported envs:   QC QCAUX QCSCRATCH QCRUNNAME QCFILEPREF QCPROG QCPROG_S GUIFILE

Running Job 1 of 1 Dimethyl_Naphthalene_Dicarboximide_Phi_5_Theta_110_Thiophene_Hydrogenated_Improper.qcin
qchem Dimethyl_Naphthalene_Dicarboximide_Phi_5_Theta_110_Thiophene_Hydrogenated_Improper.qcin_1049214.0 ./qchem1049214/ 1
/cm/shared/apps/spack/cpu/opt/spack/linux-centos8-zen2/gcc-10.2.0/qchem-5.4-akfmr7b3t57bfs6qan3padb2wnb2i7cl/bin/mpi/mpirun_qchem -machinefile ./qchem1049214/hostfile -np 1 /cm/shared/apps/spack/cpu/opt/spack/linux-centos8-zen2/gcc-10.2.0/qchem-5.4-akfmr7b3t57bfs6qan3padb2wnb2i7cl/exe/qcprog.exe Dimethyl_Naphthalene_Dicarboximide_Phi_5_Theta_110_Thiophene_Hydrogenated_Improper.qcin_1049214.0 ./qchem1049214/

Process 0 of 1 is on exp-3-02 - thread support 0
initial socket setup ...start
initial socket setup ...done 
now start server 0 ... 
                  Welcome to Q-Chem
     A Quantum Leap Into The Future Of Chemistry


 Q-Chem 5.4, Q-Chem, Inc., Pleasanton, CA (2021)

 License issued to: University of California, San Diego (site)

 E. Epifanovsky,  A. T. B. Gilbert,  Xintian Feng,  Joonho Lee,  Yuezhi Mao,  
 N. Mardirossian,  P. Pokhilko,  A. White,  M. Wormit,  M. P. Coons,  
 A. L. Dempwolff,  Zhengting Gan,  D. Hait,  P. R. Horn,  L. D. Jacobson,  
 I. Kaliman,  J. Kussmann,  A. W. Lange,  Ka Un Lao,  D. S. Levine,  Jie Liu,  
 S. C. McKenzie,  A. F. Morrison,  K. Nanda,  F. Plasser,  D. R. Rehn,  
 M. L. Vidal,  Zhi-Qiang You,  Ying Zhu,  B. Alam,  B. Albrecht,  
 A. Aldossary,  E. Alguire,  J. H. Andersen,  D. Barton,  K. Begam,  A. Behn,  
 Y. A. Bernard,  E. J. Berquist,  H. Burton,  A. Carreras,  K. Carter-Fenk,  
 R. Chakraborty,  A. D. Chien,  K. D. Closser,  V. Cofer-Shabica,  
 S. Dasgupta,  Jia Deng,  M. de Wergifosse,  M. Diedenhofen,  Hainam Do,  
 S. Ehlert,  Po-Tung Fang,  S. Fatehi,  Qingguo Feng,  J. Gayvert,  
 Qinghui Ge,  G. Gidofalvi,  M. Goldey,  J. Gomes,  C. Gonzalez-Espinoza,  
 S. Gulania,  A. Gunina,  M. W. D. Hanson-Heine,  P. H. P. Harbach,  
 A. W. Hauser,  M. F. Herbst,  M. Hernandez Vera,  M. Hodecker,  
 Z. C. Holden,  S. Houck,  Xunkun Huang,  Kerwin Hui,  B. C. Huynh,  
 M. Ivanov,  Hyunjun Ji,  Hanjie Jiang,  B. Kaduk,  S. Kaehler,  
 K. Khistyaev,  Jaehoon Kim,  P. Klunzinger,  Z. Koczor-Benda,  
 Joong Hoon Koh,  D. Kosenkov,  L. Koulias,  T. Kowalczyk,  C. M. Krauter,  
 K. Kue,  A. Kunitsa,  T. Kus,  A. Landau,  K. V. Lawler,  D. Lefrancois,  
 S. Lehtola,  Rain Li,  Yi-Pei Li,  Jiashu Liang,  M. Liebenthal,  
 Hung-Hsuan Lin,  You-Sheng Lin,  Fenglai Liu,  Kuan-Yu Liu,  
 M. Loipersberger,  A. Luenser,  A. Manjanath,  P. Manohar,  E. Mansoor,  
 S. F. Manzer,  Shan-Ping Mao,  A. V. Marenich,  T. Markovich,  S. Mason,  
 S. A. Maurer,  P. F. McLaughlin,  M. F. S. J. Menger,  J.-M. Mewes,  
 S. A. Mewes,  P. Morgante,  J. W. Mullinax,  T. S. Nguyen-Beck,  
 K. J. Oosterbaan,  G. Paran,  Alexander C. Paul,  Suranjan K. Paul,  
 F. Pavosevic,  Zheng Pei,  S. Prager,  E. I. Proynov,  E. Ramos,  B. Rana,  
 A. E. Rask,  A. Rettig,  R. M. Richard,  F. Rob,  E. Rossomme,  T. Scheele,  
 M. Scheurer,  M. Schneider,  N. Sergueev,  S. M. Sharada,  W. Skomorowski,  
 D. W. Small,  C. J. Stein,  Yu-Chuan Su,  E. J. Sundstrom,  Zhen Tao,  
 J. Thirman,  T. Tsuchimochi,  N. M. Tubman,  S. P. Veccham,  O. Vydrov,  
 J. Wenzel,  J. Witte,  A. Yamada,  Kun Yao,  S. Yeganeh,  S. R. Yost,  
 A. Zech,  Igor Ying Zhang,  Xing Zhang,  Yu Zhang,  D. Zuev,  
 A. Aspuru-Guzik,  A. T. Bell,  N. A. Besley,  K. B. Bravaya,  B. R. Brooks,  
 D. Casanova,  Jeng-Da Chai,  S. Coriani,  C. J. Cramer,  
 A. E. DePrince, III,  R. A. DiStasio Jr.,  A. Dreuw,  B. D. Dunietz,  
 T. R. Furlani,  W. A. Goddard III,  S. Grimme,  S. Hammes-Schiffer,  
 T. Head-Gordon,  W. J. Hehre,  Chao-Ping Hsu,  T.-C. Jagau,  Yousung Jung,  
 A. Klamt,  Jing Kong,  D. S. Lambrecht,  WanZhen Liang,  N. J. Mayhall,  
 C. W. McCurdy,  J. B. Neaton,  C. Ochsenfeld,  J. A. Parkhill,  R. Peverati,  
 V. A. Rassolov,  Yihan Shao,  L. V. Slipchenko,  T. Stauch,  R. P. Steele,  
 J. E. Subotnik,  A. J. W. Thom,  A. Tkatchenko,  D. G. Truhlar,  
 T. Van Voorhis,  T. A. Wesolowski,  K. B. Whaley,  H. L. Woodcock III,  
 P. M. Zimmerman,  S. Faraji,  P. M. W. Gill,  M. Head-Gordon,  
 J. M. Herbert,  A. I. Krylov

 Contributors to earlier versions of Q-Chem not listed above: 
 R. D. Adamson,  B. Austin,  R. Baer,  J. Baker,  G. J. O. Beran,  
 K. Brandhorst,  S. T. Brown,  E. F. C. Byrd,  A. K. Chakraborty,  
 G. K. L. Chan,  Chun-Min Chang,  Yunqing Chen,  C.-L. Cheng,  
 Siu Hung Chien,  D. M. Chipman,  D. L. Crittenden,  H. Dachsel,  
 R. J. Doerksen,  A. D. Dutoi,  R. G. Edgar,  J. Fosso-Tande,  
 L. Fusti-Molnar,  D. Ghosh,  A. Ghysels,  A. Golubeva-Zadorozhnaya,  
 J. Gonthier,  M. S. Gordon,  S. R. Gwaltney,  G. Hawkins,  J. E. Herr,  
 A. Heyden,  S. Hirata,  E. G. Hohenstein,  G. Kedziora,  F. J. Keil,  
 C. Kelley,  Jihan Kim,  R. A. King,  R. Z. Khaliullin,  P. P. Korambath,  
 W. Kurlancheek,  A. Laurent,  A. M. Lee,  M. S. Lee,  S. V. Levchenko,  
 Ching Yeh Lin,  D. Liotard,  E. Livshits,  R. C. Lochan,  I. Lotan,  
 L. A. Martinez-Martinez,  P. E. Maslen,  N. Nair,  D. P. O'Neill,  
 D. Neuhauser,  E. Neuscamman,  C. M. Oana,  R. Olivares-Amaya,  R. Olson,  
 T. M. Perrine,  B. Peters,  P. A. Pieniazek,  A. Prociuk,  Y. M. Rhee,  
 J. Ritchie,  M. A. Rohrdanz,  E. Rosta,  N. J. Russ,  H. F. Schaefer III,  
 M. W. Schmidt,  N. E. Schultz,  S. Sharma,  N. Shenvi,  C. D. Sherrill,  
 A. C. Simmonett,  A. Sodt,  T. Stein,  D. Stuck,  K. S. Thanthiriwatte,  
 V. Vanovschi,  L. Vogt,  Tao Wang,  A. Warshel,  M. A. Watson,  
 C. F. Williams,  Q. Wu,  X. Xu,  Jun Yang,  W. Zhang,  Yan Zhao

 Please cite Q-Chem as follows:
 Y. Shao et al., Mol. Phys. 113, 184-215 (2015)
 DOI: 10.1080/00268976.2014.952696

 Q-Chem 5.4.0 for Intel X86 EM64T Linux

 Parts of Q-Chem use Armadillo 9.800.1 (Horizon Scraper).
 http://arma.sourceforge.net/

 Q-Chem begins on Sun Sep 24 15:58:45 2023  

 Host: 
0

     Scratch files written to ./qchem1049214//
 May1621 |scratch|qcdevops|jenkins|workspace|build_RNUM    
 Parallel job on  1  processors
 Processing $rem in /cm/shared/apps/spack/cpu/opt/spack/linux-centos8-zen2/gcc-10.2.0/qchem-5.4-akfmr7b3t57bfs6qan3padb2wnb2i7cl/config/preferences:
 Processing $rem in /home/rramji/.qchemrc:
 Symmetry turned off for PCM/SM12/SMD calculation
 Core orbitals will be frozen

 Checking the input file for inconsistencies... 	...done.

 Q-Chem warning in module forms1/BasisType.C, line 2236:

 You are not using the predefined 5D/6D in this basis set.


--------------------------------------------------------------
User input:
--------------------------------------------------------------
$molecule
0 1
C	-0.042367	-0.397395	-0.219377
S	0.026533	0.392805	1.361123
C	0.169233	2.024305	0.685523
C	0.044433	0.596805	-1.204777
C	0.159433	1.912005	-0.712877
H	0.023933	0.362105	-2.279277
H	0.236133	2.789605	-1.371977
C	-0.042367	-1.875595	-0.219377
H	-0.412267	-1.876195	0.795323
H	-0.969467	-2.314895	-0.556877
H	0.721633	-2.586595	0.058523
H	0.245933	2.901605	1.336623
$end

$rem
JOBTYPE		SP
EXCHANGE	HF
CORRELATION	pRIMP2
BASIS		cc-pvtz
METHOD		rimp2
AUX_BASIS	rimp2-cc-pvtz
SOLVENT_METHOD	PCM
PURECART	11111
SYMMETRY	false
MEM_TOTAL	110000
SCF_CONVERGENCE = 6
THRESH=10
GUI = 2
$end



$solvent
dielectric 4.90
$end
--------------------------------------------------------------
 ----------------------------------------------------------------
             Standard Nuclear Orientation (Angstroms)
    I     Atom           X                Y                Z
 ----------------------------------------------------------------
    1      C      -0.0423670000    -0.3973950000    -0.2193770000
    2      S       0.0265330000     0.3928050000     1.3611230000
    3      C       0.1692330000     2.0243050000     0.6855230000
    4      C       0.0444330000     0.5968050000    -1.2047770000
    5      C       0.1594330000     1.9120050000    -0.7128770000
    6      H       0.0239330000     0.3621050000    -2.2792770000
    7      H       0.2361330000     2.7896050000    -1.3719770000
    8      C      -0.0423670000    -1.8755950000    -0.2193770000
    9      H      -0.4122670000    -1.8761950000     0.7953230000
   10      H      -0.9694670000    -2.3148950000    -0.5568770000
   11      H       0.7216330000    -2.5865950000     0.0585230000
   12      H       0.2459330000     2.9016050000     1.3366230000
 ----------------------------------------------------------------
 Nuclear Repulsion Energy =         270.67109292 hartrees
 There are       26 alpha and       26 beta electrons
 Requested basis set is cc-pVTZ
 There are 98 shells and 268 basis functions

 Total QAlloc Memory Limit 110000 MB
 Mega-Array Size       188 MB
 MEM_STATIC part       192 MB
 Discretize the solute cavity surface with Lebedev spheres
	Using 110 Lebedev grid points for each H atom
	Using 194 Lebedev grid points for other atoms
	Atomic van der Waals radii will be scaled by 1.20
 Remove points where switching function is < 1.0e-08
 Keep 897 surface tesserae and discard 927 interior tesserae
 Molecular Surface Area = 137.638 Angst**2

                       Distance Matrix (Angstroms)
             C (  1)   S (  2)   C (  3)   C (  4)   C (  5)   H (  6)
   S (  2)  1.768373
   C (  3)  2.593887  1.771607
   C (  4)  1.402491  2.574059  2.372038
   C (  5)  2.370146  2.574317  1.402936  1.408880
   H (  6)  2.196457  3.640530  3.402067  1.100025  2.207750
   H (  7)  3.400444  3.641211  2.196239  2.207505  1.100217  2.600188
   C (  8)  1.478200  2.765568  4.009094  2.662951  3.824942  3.042184
   H (  9)  1.831199  2.379293  3.945136  3.213208  4.117277  3.827979
   H ( 10)  2.156438  3.464445  4.654981  3.150518  4.377834  3.334642
   H ( 11)  2.335278  3.325170  4.686008  3.491212  4.598753  3.827130
   H ( 12)  3.658914  2.518494  1.095203  3.436775  2.277551  4.424147
             H (  7)   C (  8)   H (  9)   H ( 10)   H ( 11)
   C (  8)  4.813537
   H (  9)  5.185297  1.080020
   H ( 10)  5.307898  1.080002  1.526884
   H ( 11)  5.584404  1.080021  1.527505  1.819988
   H ( 12)  2.710932  5.032484  4.853206  5.681057  5.655101
 
 Requested basis set is rimp2-cc-pVTZ
 There are 207 shells and 707 basis functions
 A cutoff of  1.0D-10 yielded   4372 shell pairs
 There are     32730 function pairs (     42300 Cartesian)
 Smallest overlap matrix eigenvalue = 1.22E-04

 Scale SEOQF with 1.000000e+00/1.000000e-01/1.000000e-01

 Standard Electronic Orientation quadrupole field applied
 Nucleus-field energy     =     0.0000000024 hartrees
 Guess from superposition of atomic densities
 Warning:  Energy on first SCF cycle will be non-variational
 SAD guess density has 52.000000 electrons

 -----------------------------------------------------------------------
  General SCF calculation program by
  Eric Jon Sundstrom, Paul Horn, Yuezhi Mao, Dmitri Zuev, Alec White,
  David Stuck, Shaama M.S., Shane Yost, Joonho Lee, David Small,
  Daniel Levine, Susi Lehtola, Hugh Burton, Evgeny Epifanovsky,
  Bang C. Huynh
 -----------------------------------------------------------------------
 Hartree-Fock
 using 64 threads for integral computing
 -------------------------------------------------------
 OpenMP Integral computing Module                
 Release: version 1.0, May 2013, Q-Chem Inc. Pittsburgh 
 -------------------------------------------------------
 A restricted SCF calculation will be
 performed using DIIS
 SCF converges when DIIS error is below 1.0e-06
 ---------------------------------------
  Cycle       Energy         DIIS error
 ---------------------------------------
    1    -592.5885024359      3.22e-02  
    2    -590.3002101959      2.18e-03  
    3    -590.3612068263      8.14e-04  
    4    -590.3682766700      3.86e-04  
    5    -590.3701984015      7.15e-05  
    6    -590.3703262529      3.12e-05  
    7    -590.3703579039      1.47e-05  
    8    -590.3703674866      5.78e-06  
    9    -590.3703689835      2.05e-06  
   10    -590.3703691309      5.94e-07  Convergence criterion met
 ---------------------------------------
 SCF time:   CPU 509.07s  wall 9.00s 

************** Final PCM Free Energy Summary **************
 G_electrostatic  =      -0.00533669 hartree =      -3.34882478 kcal/mol
 G_cavitation     =       0.00000000 hartree =       0.00000000 kcal/mol
 G_dispersion     =       0.00000000 hartree =       0.00000000 kcal/mol
 G_repulsion      =       0.00000000 hartree =       0.00000000 kcal/mol
 --------------------------------------------------
 Non-electrostatic Free Energy =       0.00000000 hartree =       0.00000000 kcal/mol
 Total                         =      -0.00533669 hartree =      -3.34882478 kcal/mol
 --------------------------------------------------
 SCF Energy (H0 + V/2)                       =    -590.37036913 
 Solute Internal Energy (H0)                 =    -590.36503244 
 Total Free Energy (H0 + V/2 + non-elec)     =    -590.37036913 hartree
                                             = -370462.99802741 kcal/mol
***********************************************************

 SCF   energy in the final basis set =     -590.3703691309
 Total energy in the final basis set =     -590.3703691309


 --------------------------------------------------------------
  Generalized many-body perturbation theory program
  by Joonho Lee, Fazle Rob, Xintian Feng, Evgeny Epifanovsky

 No regularization used 
 (reg. param. = 0.0000e+00)
  (P|Q)^-1/2 Time:  CPU 6.21 s  wall 0.10 s

 In RI-MP2 calculation: 
 # of frozen core orbitals: 10

 Components of the RIMP2 correlation energy:
        aaaa    correlation energy =        -0.1253553060 a.u.
        abab    correlation energy =        -0.7512594127 a.u.
        bbbb    correlation energy =        -0.1253553060 a.u.
        non-Brillouin singles      =        -0.0000000000 a.u.
        total same-spin energy     =        -0.2507106120 a.u.
        total opposite-spin energy =        -0.7512594127 a.u.

 Total  RIMP2   correlation energy =        -1.0019700248 a.u.
        RIMP2         total energy =      -591.3723391557 a.u.

 RI-MP2 Energy Time:  CPU 24.99 s  wall 0.43 s
 
 --------------------------------------------------------------
 
                    Orbital Energies (a.u.)
 --------------------------------------------------------------
 
 Alpha MOs
 -- Occupied --
-91.9802 -11.2832 -11.2693 -11.2431 -11.2365 -11.2238  -8.9801  -6.6609
 -6.6604  -6.6598  -1.1579  -1.0397  -0.9731  -0.9186  -0.7586  -0.7204
 -0.6717  -0.5972  -0.5691  -0.5621  -0.5373  -0.4979  -0.4635  -0.4503
 -0.3465  -0.3109
 -- Virtual --
  0.1033   0.1451   0.1605   0.1767   0.1913   0.1967   0.2074   0.2296
  0.2362   0.2760   0.3019   0.3154   0.3650   0.3762   0.3875   0.3982
  0.4235   0.4503   0.4558   0.4700   0.4971   0.5131   0.5310   0.5390
  0.5518   0.5654   0.5742   0.5782   0.6032   0.6049   0.6148   0.6250
  0.6285   0.6499   0.6516   0.6573   0.6934   0.7129   0.7273   0.7553
  0.7818   0.8010   0.8262   0.8674   0.8734   0.8890   0.8953   0.9285
  0.9567   0.9860   0.9992   1.0119   1.0620   1.0720   1.0999   1.1199
  1.1230   1.1611   1.1718   1.2136   1.2236   1.2310   1.2369   1.2633
  1.2789   1.3097   1.3331   1.3492   1.3894   1.4064   1.4287   1.4388
  1.4814   1.4880   1.4945   1.5300   1.5543   1.5608   1.5739   1.5900
  1.6050   1.6256   1.6485   1.6714   1.6964   1.7405   1.7724   1.8219
  1.8318   1.8826   1.9134   1.9298   1.9540   1.9620   2.0531   2.0957
  2.1514   2.1762   2.2117   2.2171   2.2473   2.2883   2.3316   2.4233
  2.4271   2.4708   2.4971   2.5155   2.5648   2.5939   2.6069   2.6574
  2.6723   2.7239   2.7351   2.7425   2.7504   2.7925   2.8052   2.8439
  2.8689   2.8895   2.9297   2.9428   2.9960   3.0166   3.0237   3.0624
  3.0913   3.1158   3.1225   3.1432   3.1603   3.2056   3.2198   3.2331
  3.2466   3.2764   3.2964   3.3044   3.3213   3.3362   3.3576   3.3624
  3.3862   3.4147   3.4372   3.4529   3.4553   3.4730   3.4991   3.5004
  3.5084   3.5144   3.5472   3.5775   3.6005   3.6188   3.6284   3.6669
  3.6912   3.7048   3.7192   3.7299   3.7698   3.8055   3.8262   3.8388
  3.8495   3.8794   3.9071   3.9208   3.9384   3.9594   3.9658   3.9759
  4.0077   4.0361   4.0561   4.1148   4.1242   4.1407   4.1636   4.1898
  4.2075   4.2325   4.2590   4.2855   4.2956   4.3410   4.3978   4.4070
  4.4275   4.4477   4.4758   4.5009   4.5317   4.5397   4.6158   4.6286
  4.6854   4.6919   4.7066   4.7256   4.7924   4.8096   4.8504   4.9190
  4.9754   5.0157   5.0310   5.0415   5.1161   5.1342   5.1790   5.1953
  5.2556   5.2889   5.3533   5.4083   5.4310   5.4888   5.5360   5.5885
  5.6359   5.7245   5.7744   5.8255   5.9014   5.9334   6.0083   6.0644
  6.1110   6.3088   6.4368   6.4560   6.6741   9.3910  11.2718  12.7965
 14.0382  14.2020
 --------------------------------------------------------------
 
          Ground-State Mulliken Net Atomic Charges

     Atom                 Charge (a.u.)
  ----------------------------------------
      1 C                     0.021067
      2 S                    -0.003760
      3 C                    -0.234092
      4 C                    -0.214998
      5 C                    -0.191795
      6 H                     0.184951
      7 H                     0.186044
      8 C                    -0.343787
      9 H                     0.111429
     10 H                     0.129905
     11 H                     0.149063
     12 H                     0.205972
  ----------------------------------------
  Sum of atomic charges =     0.000000

 -----------------------------------------------------------------
                    Cartesian Multipole Moments
 -----------------------------------------------------------------
    Charge (ESU x 10^10)
                -0.0000
    Dipole Moment (Debye)
         X      -0.1128      Y      -0.2209      Z      -0.4793
       Tot       0.5397
    Quadrupole Moments (Debye-Ang)
        XX     -47.4664     XY       1.0943     YY     -36.1215
        XZ       0.3475     YZ      -0.4050     ZZ     -42.3444
    Octopole Moments (Debye-Ang^2)
       XXX      -6.8417    XXY     -22.6206    XYY       0.5302
       YYY     -40.0149    XXZ      -7.6267    XYZ      -0.5051
       YYZ      -0.8127    XZZ      -1.3130    YZZ      -8.4314
       ZZZ     -28.7743
    Hexadecapole Moments (Debye-Ang^3)
      XXXX     -68.3834   XXXY     -18.6510   XXYY    -111.0885
      XYYY     -11.8015   YYYY    -499.2552   XXXZ      -0.6141
      XXYZ      -5.0797   XYYZ       2.7516   YYYZ     -12.8967
      XXZZ     -69.4125   XYZZ      -3.1658   YYZZ    -129.4190
      XZZZ      -1.1087   YZZZ     -13.3735   ZZZZ    -303.6319
 -----------------------------------------------------------------
 Total job time:  11.12s(wall), 568.47s(cpu) 
 Sun Sep 24 15:58:56 2023

        *************************************************************
        *                                                           *
        *  Thank you very much for using Q-Chem.  Have a nice day.  *
        *                                                           *
        *************************************************************


0 sent ACK to 0 
now end server 0 ... 
cleanup process ... done
remove work dirs ./qchem1049214.0 -- ./qchem1049214.0
rm -rf ./qchem1049214.0
rm -rf ./qchem1049214
