You are running Q-Chem version: 5.4.0

#
# job setting
#
local host:  exp-3-09
current dir: /expanse/lustre/projects/csd626/rramji/aromodel/PNDIT/Hydrogenated_Impropers_Test
input file:  Dimethyl_Naphthalene_Dicarboximide_Phi_25_Theta_130_Thiophene_Hydrogenated_Improper.qcin
output file: 
nprocs     : 1
nthreads   : 64
#
# qchem installation setting
#
QC:          /cm/shared/apps/spack/cpu/opt/spack/linux-centos8-zen2/gcc-10.2.0/qchem-5.4-akfmr7b3t57bfs6qan3padb2wnb2i7cl
QCAUX:       /cm/shared/apps/spack/cpu/opt/spack/linux-centos8-zen2/gcc-10.2.0/qchem-5.4-akfmr7b3t57bfs6qan3padb2wnb2i7cl/qcaux
QCPROG:      /cm/shared/apps/spack/cpu/opt/spack/linux-centos8-zen2/gcc-10.2.0/qchem-5.4-akfmr7b3t57bfs6qan3padb2wnb2i7cl/exe/qcprog.exe
QCPROG_S:    /cm/shared/apps/spack/cpu/opt/spack/linux-centos8-zen2/gcc-10.2.0/qchem-5.4-akfmr7b3t57bfs6qan3padb2wnb2i7cl/exe/qcprog.exe_s
PARALLEL:    -DPARALLEL
QCMPI:       mpich
#
# qchem directory setting
#
qcrun:       qchem3334380
QCSCRATCH:   .
QCLOCALSCR:  
QCTMPDIR:    .
QCFILEPREF:  ./qchem3334380
QCSAVEDIR:   
workdirs:    ./qchem3334380
workdir0:    ./qchem3334380
partmpdirs =  
#
# parallel setting
#
QCRSH:           ssh
QCMPI:           mpich
QCMPIRUN:        /cm/shared/apps/spack/cpu/opt/spack/linux-centos8-zen2/gcc-10.2.0/qchem-5.4-akfmr7b3t57bfs6qan3padb2wnb2i7cl/bin/mpi/mpirun_qchem
QCMACHINEFILE:   ./qchem3334380/hostfile
exp-3-09

#
# env setting
#
exported envs:   QC QCAUX QCSCRATCH QCRUNNAME QCFILEPREF QCPROG QCPROG_S GUIFILE

Running Job 1 of 1 Dimethyl_Naphthalene_Dicarboximide_Phi_25_Theta_130_Thiophene_Hydrogenated_Improper.qcin
qchem Dimethyl_Naphthalene_Dicarboximide_Phi_25_Theta_130_Thiophene_Hydrogenated_Improper.qcin_3334380.0 ./qchem3334380/ 1
/cm/shared/apps/spack/cpu/opt/spack/linux-centos8-zen2/gcc-10.2.0/qchem-5.4-akfmr7b3t57bfs6qan3padb2wnb2i7cl/bin/mpi/mpirun_qchem -machinefile ./qchem3334380/hostfile -np 1 /cm/shared/apps/spack/cpu/opt/spack/linux-centos8-zen2/gcc-10.2.0/qchem-5.4-akfmr7b3t57bfs6qan3padb2wnb2i7cl/exe/qcprog.exe Dimethyl_Naphthalene_Dicarboximide_Phi_25_Theta_130_Thiophene_Hydrogenated_Improper.qcin_3334380.0 ./qchem3334380/

Process 0 of 1 is on exp-3-09 - thread support 0
initial socket setup ...start
initial socket setup ...done 
now start server 0 ... 
                  Welcome to Q-Chem
     A Quantum Leap Into The Future Of Chemistry


 Q-Chem 5.4, Q-Chem, Inc., Pleasanton, CA (2021)

 License issued to: University of California, San Diego (site)

 E. Epifanovsky,  A. T. B. Gilbert,  Xintian Feng,  Joonho Lee,  Yuezhi Mao,  
 N. Mardirossian,  P. Pokhilko,  A. White,  M. Wormit,  M. P. Coons,  
 A. L. Dempwolff,  Zhengting Gan,  D. Hait,  P. R. Horn,  L. D. Jacobson,  
 I. Kaliman,  J. Kussmann,  A. W. Lange,  Ka Un Lao,  D. S. Levine,  Jie Liu,  
 S. C. McKenzie,  A. F. Morrison,  K. Nanda,  F. Plasser,  D. R. Rehn,  
 M. L. Vidal,  Zhi-Qiang You,  Ying Zhu,  B. Alam,  B. Albrecht,  
 A. Aldossary,  E. Alguire,  J. H. Andersen,  D. Barton,  K. Begam,  A. Behn,  
 Y. A. Bernard,  E. J. Berquist,  H. Burton,  A. Carreras,  K. Carter-Fenk,  
 R. Chakraborty,  A. D. Chien,  K. D. Closser,  V. Cofer-Shabica,  
 S. Dasgupta,  Jia Deng,  M. de Wergifosse,  M. Diedenhofen,  Hainam Do,  
 S. Ehlert,  Po-Tung Fang,  S. Fatehi,  Qingguo Feng,  J. Gayvert,  
 Qinghui Ge,  G. Gidofalvi,  M. Goldey,  J. Gomes,  C. Gonzalez-Espinoza,  
 S. Gulania,  A. Gunina,  M. W. D. Hanson-Heine,  P. H. P. Harbach,  
 A. W. Hauser,  M. F. Herbst,  M. Hernandez Vera,  M. Hodecker,  
 Z. C. Holden,  S. Houck,  Xunkun Huang,  Kerwin Hui,  B. C. Huynh,  
 M. Ivanov,  Hyunjun Ji,  Hanjie Jiang,  B. Kaduk,  S. Kaehler,  
 K. Khistyaev,  Jaehoon Kim,  P. Klunzinger,  Z. Koczor-Benda,  
 Joong Hoon Koh,  D. Kosenkov,  L. Koulias,  T. Kowalczyk,  C. M. Krauter,  
 K. Kue,  A. Kunitsa,  T. Kus,  A. Landau,  K. V. Lawler,  D. Lefrancois,  
 S. Lehtola,  Rain Li,  Yi-Pei Li,  Jiashu Liang,  M. Liebenthal,  
 Hung-Hsuan Lin,  You-Sheng Lin,  Fenglai Liu,  Kuan-Yu Liu,  
 M. Loipersberger,  A. Luenser,  A. Manjanath,  P. Manohar,  E. Mansoor,  
 S. F. Manzer,  Shan-Ping Mao,  A. V. Marenich,  T. Markovich,  S. Mason,  
 S. A. Maurer,  P. F. McLaughlin,  M. F. S. J. Menger,  J.-M. Mewes,  
 S. A. Mewes,  P. Morgante,  J. W. Mullinax,  T. S. Nguyen-Beck,  
 K. J. Oosterbaan,  G. Paran,  Alexander C. Paul,  Suranjan K. Paul,  
 F. Pavosevic,  Zheng Pei,  S. Prager,  E. I. Proynov,  E. Ramos,  B. Rana,  
 A. E. Rask,  A. Rettig,  R. M. Richard,  F. Rob,  E. Rossomme,  T. Scheele,  
 M. Scheurer,  M. Schneider,  N. Sergueev,  S. M. Sharada,  W. Skomorowski,  
 D. W. Small,  C. J. Stein,  Yu-Chuan Su,  E. J. Sundstrom,  Zhen Tao,  
 J. Thirman,  T. Tsuchimochi,  N. M. Tubman,  S. P. Veccham,  O. Vydrov,  
 J. Wenzel,  J. Witte,  A. Yamada,  Kun Yao,  S. Yeganeh,  S. R. Yost,  
 A. Zech,  Igor Ying Zhang,  Xing Zhang,  Yu Zhang,  D. Zuev,  
 A. Aspuru-Guzik,  A. T. Bell,  N. A. Besley,  K. B. Bravaya,  B. R. Brooks,  
 D. Casanova,  Jeng-Da Chai,  S. Coriani,  C. J. Cramer,  
 A. E. DePrince, III,  R. A. DiStasio Jr.,  A. Dreuw,  B. D. Dunietz,  
 T. R. Furlani,  W. A. Goddard III,  S. Grimme,  S. Hammes-Schiffer,  
 T. Head-Gordon,  W. J. Hehre,  Chao-Ping Hsu,  T.-C. Jagau,  Yousung Jung,  
 A. Klamt,  Jing Kong,  D. S. Lambrecht,  WanZhen Liang,  N. J. Mayhall,  
 C. W. McCurdy,  J. B. Neaton,  C. Ochsenfeld,  J. A. Parkhill,  R. Peverati,  
 V. A. Rassolov,  Yihan Shao,  L. V. Slipchenko,  T. Stauch,  R. P. Steele,  
 J. E. Subotnik,  A. J. W. Thom,  A. Tkatchenko,  D. G. Truhlar,  
 T. Van Voorhis,  T. A. Wesolowski,  K. B. Whaley,  H. L. Woodcock III,  
 P. M. Zimmerman,  S. Faraji,  P. M. W. Gill,  M. Head-Gordon,  
 J. M. Herbert,  A. I. Krylov

 Contributors to earlier versions of Q-Chem not listed above: 
 R. D. Adamson,  B. Austin,  R. Baer,  J. Baker,  G. J. O. Beran,  
 K. Brandhorst,  S. T. Brown,  E. F. C. Byrd,  A. K. Chakraborty,  
 G. K. L. Chan,  Chun-Min Chang,  Yunqing Chen,  C.-L. Cheng,  
 Siu Hung Chien,  D. M. Chipman,  D. L. Crittenden,  H. Dachsel,  
 R. J. Doerksen,  A. D. Dutoi,  R. G. Edgar,  J. Fosso-Tande,  
 L. Fusti-Molnar,  D. Ghosh,  A. Ghysels,  A. Golubeva-Zadorozhnaya,  
 J. Gonthier,  M. S. Gordon,  S. R. Gwaltney,  G. Hawkins,  J. E. Herr,  
 A. Heyden,  S. Hirata,  E. G. Hohenstein,  G. Kedziora,  F. J. Keil,  
 C. Kelley,  Jihan Kim,  R. A. King,  R. Z. Khaliullin,  P. P. Korambath,  
 W. Kurlancheek,  A. Laurent,  A. M. Lee,  M. S. Lee,  S. V. Levchenko,  
 Ching Yeh Lin,  D. Liotard,  E. Livshits,  R. C. Lochan,  I. Lotan,  
 L. A. Martinez-Martinez,  P. E. Maslen,  N. Nair,  D. P. O'Neill,  
 D. Neuhauser,  E. Neuscamman,  C. M. Oana,  R. Olivares-Amaya,  R. Olson,  
 T. M. Perrine,  B. Peters,  P. A. Pieniazek,  A. Prociuk,  Y. M. Rhee,  
 J. Ritchie,  M. A. Rohrdanz,  E. Rosta,  N. J. Russ,  H. F. Schaefer III,  
 M. W. Schmidt,  N. E. Schultz,  S. Sharma,  N. Shenvi,  C. D. Sherrill,  
 A. C. Simmonett,  A. Sodt,  T. Stein,  D. Stuck,  K. S. Thanthiriwatte,  
 V. Vanovschi,  L. Vogt,  Tao Wang,  A. Warshel,  M. A. Watson,  
 C. F. Williams,  Q. Wu,  X. Xu,  Jun Yang,  W. Zhang,  Yan Zhao

 Please cite Q-Chem as follows:
 Y. Shao et al., Mol. Phys. 113, 184-215 (2015)
 DOI: 10.1080/00268976.2014.952696

 Q-Chem 5.4.0 for Intel X86 EM64T Linux

 Parts of Q-Chem use Armadillo 9.800.1 (Horizon Scraper).
 http://arma.sourceforge.net/

 Q-Chem begins on Sun Sep 24 16:00:44 2023  

 Host: 
0

     Scratch files written to ./qchem3334380//
 May1621 |scratch|qcdevops|jenkins|workspace|build_RNUM    
 Parallel job on  1  processors
 Processing $rem in /cm/shared/apps/spack/cpu/opt/spack/linux-centos8-zen2/gcc-10.2.0/qchem-5.4-akfmr7b3t57bfs6qan3padb2wnb2i7cl/config/preferences:
 Processing $rem in /home/rramji/.qchemrc:
 Symmetry turned off for PCM/SM12/SMD calculation
 Core orbitals will be frozen

 Checking the input file for inconsistencies... 	...done.

 Q-Chem warning in module forms1/BasisType.C, line 2236:

 You are not using the predefined 5D/6D in this basis set.


--------------------------------------------------------------
User input:
--------------------------------------------------------------
$molecule
0 1
C	-0.214789	-0.350804	-0.218146
S	0.120211	0.368096	1.362354
C	0.812311	1.852396	0.686754
C	0.206811	0.553796	-1.203546
C	0.764711	1.750296	-0.711646
H	0.107211	0.340196	-2.278046
H	1.136911	2.548796	-1.370746
C	-0.214789	-1.829004	-0.218146
H	-0.909389	-1.829604	0.608854
H	-0.970589	-2.268304	-0.852346
H	0.408111	-2.540004	0.304354
H	1.184411	2.650596	1.337854
$end

$rem
JOBTYPE		SP
EXCHANGE	HF
CORRELATION	pRIMP2
BASIS		cc-pvtz
METHOD		rimp2
AUX_BASIS	rimp2-cc-pvtz
SOLVENT_METHOD	PCM
PURECART	11111
SYMMETRY	false
MEM_TOTAL	110000
SCF_CONVERGENCE = 6
THRESH=10
GUI = 2
$end



$solvent
dielectric 4.90
$end
--------------------------------------------------------------
 ----------------------------------------------------------------
             Standard Nuclear Orientation (Angstroms)
    I     Atom           X                Y                Z
 ----------------------------------------------------------------
    1      C      -0.2147890000    -0.3508040000    -0.2181460000
    2      S       0.1202110000     0.3680960000     1.3623540000
    3      C       0.8123110000     1.8523960000     0.6867540000
    4      C       0.2068110000     0.5537960000    -1.2035460000
    5      C       0.7647110000     1.7502960000    -0.7116460000
    6      H       0.1072110000     0.3401960000    -2.2780460000
    7      H       1.1369110000     2.5487960000    -1.3707460000
    8      C      -0.2147890000    -1.8290040000    -0.2181460000
    9      H      -0.9093890000    -1.8296040000     0.6088540000
   10      H      -0.9705890000    -2.2683040000    -0.8523460000
   11      H       0.4081110000    -2.5400040000     0.3043540000
   12      H       1.1844110000     2.6505960000     1.3378540000
 ----------------------------------------------------------------
 Nuclear Repulsion Energy =         271.23520387 hartrees
 There are       26 alpha and       26 beta electrons
 Requested basis set is cc-pVTZ
 There are 98 shells and 268 basis functions

 Total QAlloc Memory Limit 110000 MB
 Mega-Array Size       188 MB
 MEM_STATIC part       192 MB
 Discretize the solute cavity surface with Lebedev spheres
	Using 110 Lebedev grid points for each H atom
	Using 194 Lebedev grid points for other atoms
	Atomic van der Waals radii will be scaled by 1.20
 Remove points where switching function is < 1.0e-08
 Keep 887 surface tesserae and discard 937 interior tesserae
 Molecular Surface Area = 137.558 Angst**2

                       Distance Matrix (Angstroms)
             C (  1)   S (  2)   C (  3)   C (  4)   C (  5)   H (  6)
   S (  2)  1.768339
   C (  3)  2.593814  1.771605
   C (  4)  1.402519  2.574068  2.371967
   C (  5)  2.370144  2.574361  1.402930  1.408840
   H (  6)  2.196441  3.640530  3.402051  1.100043  2.207781
   H (  7)  3.400479  3.641286  2.196280  2.207502  1.100249  2.600267
   C (  8)  1.478200  2.727170  3.927656  2.612756  3.743575  3.008704
   H (  9)  1.831187  2.541205  4.065396  3.195511  4.166775  3.751759
   H ( 10)  2.156444  3.611834  4.746339  3.077964  4.379521  3.162048
   H ( 11)  2.335296  3.107941  4.427503  3.447591  4.423358  3.880062
   H ( 12)  3.658866  2.518517  1.095223  3.436712  2.277529  4.424143
             H (  7)   C (  8)   H (  9)   H ( 10)   H ( 11)
   C (  8)  4.724480
   H (  9)  5.222695  1.079999
   H ( 10)  5.283441  1.080013  1.526862
   H ( 11)  5.406755  1.080061  1.527480  1.820052
   H ( 12)  2.710929  4.944261  4.998763  5.799705  5.349121
 
 Requested basis set is rimp2-cc-pVTZ
 There are 207 shells and 707 basis functions
 A cutoff of  1.0D-10 yielded   4377 shell pairs
 There are     32839 function pairs (     42463 Cartesian)
 Smallest overlap matrix eigenvalue = 1.44E-04

 Scale SEOQF with 1.000000e+00/1.000000e-01/1.000000e-01

 Standard Electronic Orientation quadrupole field applied
 Nucleus-field energy     =     0.0000000054 hartrees
 Guess from superposition of atomic densities
 Warning:  Energy on first SCF cycle will be non-variational
 SAD guess density has 52.000000 electrons

 -----------------------------------------------------------------------
  General SCF calculation program by
  Eric Jon Sundstrom, Paul Horn, Yuezhi Mao, Dmitri Zuev, Alec White,
  David Stuck, Shaama M.S., Shane Yost, Joonho Lee, David Small,
  Daniel Levine, Susi Lehtola, Hugh Burton, Evgeny Epifanovsky,
  Bang C. Huynh
 -----------------------------------------------------------------------
 Hartree-Fock
 using 64 threads for integral computing
 -------------------------------------------------------
 OpenMP Integral computing Module                
 Release: version 1.0, May 2013, Q-Chem Inc. Pittsburgh 
 -------------------------------------------------------
 A restricted SCF calculation will be
 performed using DIIS
 SCF converges when DIIS error is below 1.0e-06
 ---------------------------------------
  Cycle       Energy         DIIS error
 ---------------------------------------
    1    -592.5888541415      3.23e-02  
    2    -590.2887592297      2.17e-03  
    3    -590.3494728639      7.98e-04  
    4    -590.3564229206      3.76e-04  
    5    -590.3582785042      7.22e-05  
    6    -590.3584110761      3.05e-05  
    7    -590.3584450581      1.54e-05  
    8    -590.3584553158      5.93e-06  
    9    -590.3584570417      2.38e-06  
   10    -590.3584572318      6.91e-07  Convergence criterion met
 ---------------------------------------
 SCF time:   CPU 492.36s  wall 8.00s 

************** Final PCM Free Energy Summary **************
 G_electrostatic  =      -0.00530041 hartree =      -3.32605928 kcal/mol
 G_cavitation     =       0.00000000 hartree =       0.00000000 kcal/mol
 G_dispersion     =       0.00000000 hartree =       0.00000000 kcal/mol
 G_repulsion      =       0.00000000 hartree =       0.00000000 kcal/mol
 --------------------------------------------------
 Non-electrostatic Free Energy =       0.00000000 hartree =       0.00000000 kcal/mol
 Total                         =      -0.00530041 hartree =      -3.32605928 kcal/mol
 --------------------------------------------------
 SCF Energy (H0 + V/2)                       =    -590.35845723 
 Solute Internal Energy (H0)                 =    -590.35315682 
 Total Free Energy (H0 + V/2 + non-elec)     =    -590.35845723 hartree
                                             = -370455.52319793 kcal/mol
***********************************************************

 SCF   energy in the final basis set =     -590.3584572318
 Total energy in the final basis set =     -590.3584572318


 --------------------------------------------------------------
  Generalized many-body perturbation theory program
  by Joonho Lee, Fazle Rob, Xintian Feng, Evgeny Epifanovsky

 No regularization used 
 (reg. param. = 0.0000e+00)
  (P|Q)^-1/2 Time:  CPU 7.19 s  wall 0.12 s

 In RI-MP2 calculation: 
 # of frozen core orbitals: 10

 Components of the RIMP2 correlation energy:
        aaaa    correlation energy =        -0.1257443183 a.u.
        abab    correlation energy =        -0.7530404912 a.u.
        bbbb    correlation energy =        -0.1257443183 a.u.
        non-Brillouin singles      =        -0.0000000000 a.u.
        total same-spin energy     =        -0.2514886366 a.u.
        total opposite-spin energy =        -0.7530404912 a.u.

 Total  RIMP2   correlation energy =        -1.0045291278 a.u.
        RIMP2         total energy =      -591.3629863597 a.u.

 RI-MP2 Energy Time:  CPU 26.51 s  wall 0.46 s
 
 --------------------------------------------------------------
 
                    Orbital Energies (a.u.)
 --------------------------------------------------------------
 
 Alpha MOs
 -- Occupied --
-91.9790 -11.2781 -11.2728 -11.2435 -11.2391 -11.2216  -8.9790  -6.6599
 -6.6593  -6.6588  -1.1588  -1.0381  -0.9736  -0.9177  -0.7588  -0.7213
 -0.6710  -0.5959  -0.5668  -0.5613  -0.5434  -0.4857  -0.4656  -0.4525
 -0.3463  -0.3071
 -- Virtual --
  0.0924   0.1466   0.1601   0.1815   0.1877   0.1958   0.2119   0.2263
  0.2335   0.2584   0.2992   0.3229   0.3589   0.3743   0.3806   0.4036
  0.4286   0.4522   0.4562   0.4775   0.4880   0.5124   0.5206   0.5354
  0.5406   0.5595   0.5763   0.5874   0.5941   0.6051   0.6125   0.6239
  0.6269   0.6469   0.6522   0.6598   0.6859   0.7161   0.7180   0.7614
  0.7747   0.7933   0.8391   0.8559   0.8737   0.8865   0.8967   0.9234
  0.9259   0.9687   0.9876   1.0599   1.0662   1.0851   1.0992   1.1181
  1.1392   1.1720   1.1754   1.2136   1.2202   1.2345   1.2396   1.2537
  1.2892   1.2979   1.3168   1.3368   1.3858   1.3927   1.4219   1.4412
  1.4712   1.4890   1.5106   1.5284   1.5498   1.5552   1.5827   1.5905
  1.6149   1.6277   1.6428   1.6612   1.6857   1.7278   1.7778   1.8171
  1.8380   1.8988   1.9068   1.9077   1.9581   1.9842   2.0215   2.1039
  2.1300   2.1674   2.1821   2.2163   2.2502   2.2654   2.3231   2.4185
  2.4330   2.4700   2.4839   2.5239   2.5894   2.5969   2.6391   2.6585
  2.6986   2.7149   2.7357   2.7401   2.7538   2.7784   2.7984   2.8405
  2.8682   2.8849   2.9278   2.9749   2.9978   3.0145   3.0259   3.0380
  3.0601   3.0919   3.1318   3.1440   3.1676   3.2028   3.2126   3.2392
  3.2619   3.2738   3.2863   3.3061   3.3219   3.3339   3.3719   3.3821
  3.4072   3.4160   3.4266   3.4470   3.4627   3.4647   3.4900   3.5051
  3.5104   3.5321   3.5561   3.5775   3.5858   3.6138   3.6183   3.6617
  3.6860   3.7128   3.7153   3.7377   3.7793   3.8107   3.8189   3.8367
  3.8583   3.8786   3.8956   3.9359   3.9483   3.9570   3.9691   3.9873
  4.0010   4.0475   4.0700   4.1053   4.1169   4.1461   4.1740   4.2002
  4.2185   4.2589   4.2744   4.2876   4.3090   4.3298   4.3676   4.4117
  4.4253   4.4473   4.4661   4.4989   4.5255   4.5467   4.6147   4.6503
  4.6702   4.7005   4.7023   4.7472   4.7787   4.8097   4.8341   4.8853
  4.9584   5.0102   5.0231   5.0285   5.1022   5.1397   5.1835   5.1935
  5.2239   5.2927   5.3551   5.4028   5.4354   5.4937   5.5205   5.5841
  5.6229   5.7357   5.7719   5.8484   5.8926   5.9428   5.9940   6.0507
  6.0847   6.3287   6.4216   6.4558   6.6363   9.3634  11.3339  12.7855
 13.9817  14.0930
 --------------------------------------------------------------
 
          Ground-State Mulliken Net Atomic Charges

     Atom                 Charge (a.u.)
  ----------------------------------------
      1 C                    -0.021803
      2 S                    -0.002752
      3 C                    -0.218077
      4 C                    -0.195370
      5 C                    -0.196141
      6 H                     0.184141
      7 H                     0.186226
      8 C                    -0.346882
      9 H                     0.116814
     10 H                     0.127627
     11 H                     0.160619
     12 H                     0.205598
  ----------------------------------------
  Sum of atomic charges =     0.000000

 -----------------------------------------------------------------
                    Cartesian Multipole Moments
 -----------------------------------------------------------------
    Charge (ESU x 10^10)
                -0.0000
    Dipole Moment (Debye)
         X       0.2546      Y      -0.1383      Z      -0.6207
       Tot       0.6850
    Quadrupole Moments (Debye-Ang)
        XX     -46.0890     XY       4.2364     YY     -37.7779
        XZ       0.6836     YZ      -0.2388     ZZ     -42.0282
    Octopole Moments (Debye-Ang^2)
       XXX     -31.1563    XXY     -14.7249    XYY      -1.3954
       YYY     -38.8226    XXZ      -6.9424    XYZ       0.5481
       YYZ      -1.4064    XZZ      -6.6191    YZZ      -7.7659
       ZZZ     -29.1512
    Hexadecapole Moments (Debye-Ang^3)
      XXXX    -127.8796   XXXY     -74.3262   XXYY     -96.3644
      XYYY     -46.8702   YYYY    -464.7744   XXXZ      -3.3768
      XXYZ      -3.0149   XYYZ       5.3125   YYYZ     -14.3666
      XXZZ     -73.5301   XYZZ     -13.5820   YYZZ    -121.4185
      XZZZ      -2.2696   YZZZ     -13.3805   ZZZZ    -304.7236
 -----------------------------------------------------------------
 Total job time:  10.66s(wall), 565.10s(cpu) 
 Sun Sep 24 16:00:55 2023

        *************************************************************
        *                                                           *
        *  Thank you very much for using Q-Chem.  Have a nice day.  *
        *                                                           *
        *************************************************************


0 sent ACK to 0 
now end server 0 ... 
cleanup process ... done
remove work dirs ./qchem3334380.0 -- ./qchem3334380.0
rm -rf ./qchem3334380.0
rm -rf ./qchem3334380
