You are running Q-Chem version: 5.4.0

#
# job setting
#
local host:  exp-2-38
current dir: /expanse/lustre/projects/csd626/rramji/aromodel/PNDIT/Hydrogenated_Impropers_Test
input file:  Dimethyl_Naphthalene_Dicarboximide_Phi_0_Theta_160_Thiophene_Hydrogenated_Improper.qcin
output file: 
nprocs     : 1
nthreads   : 64
#
# qchem installation setting
#
QC:          /cm/shared/apps/spack/cpu/opt/spack/linux-centos8-zen2/gcc-10.2.0/qchem-5.4-akfmr7b3t57bfs6qan3padb2wnb2i7cl
QCAUX:       /cm/shared/apps/spack/cpu/opt/spack/linux-centos8-zen2/gcc-10.2.0/qchem-5.4-akfmr7b3t57bfs6qan3padb2wnb2i7cl/qcaux
QCPROG:      /cm/shared/apps/spack/cpu/opt/spack/linux-centos8-zen2/gcc-10.2.0/qchem-5.4-akfmr7b3t57bfs6qan3padb2wnb2i7cl/exe/qcprog.exe
QCPROG_S:    /cm/shared/apps/spack/cpu/opt/spack/linux-centos8-zen2/gcc-10.2.0/qchem-5.4-akfmr7b3t57bfs6qan3padb2wnb2i7cl/exe/qcprog.exe_s
PARALLEL:    -DPARALLEL
QCMPI:       mpich
#
# qchem directory setting
#
qcrun:       qchem3720801
QCSCRATCH:   .
QCLOCALSCR:  
QCTMPDIR:    .
QCFILEPREF:  ./qchem3720801
QCSAVEDIR:   
workdirs:    ./qchem3720801
workdir0:    ./qchem3720801
partmpdirs =  
#
# parallel setting
#
QCRSH:           ssh
QCMPI:           mpich
QCMPIRUN:        /cm/shared/apps/spack/cpu/opt/spack/linux-centos8-zen2/gcc-10.2.0/qchem-5.4-akfmr7b3t57bfs6qan3padb2wnb2i7cl/bin/mpi/mpirun_qchem
QCMACHINEFILE:   ./qchem3720801/hostfile
exp-2-38

#
# env setting
#
exported envs:   QC QCAUX QCSCRATCH QCRUNNAME QCFILEPREF QCPROG QCPROG_S GUIFILE

Running Job 1 of 1 Dimethyl_Naphthalene_Dicarboximide_Phi_0_Theta_160_Thiophene_Hydrogenated_Improper.qcin
qchem Dimethyl_Naphthalene_Dicarboximide_Phi_0_Theta_160_Thiophene_Hydrogenated_Improper.qcin_3720801.0 ./qchem3720801/ 1
/cm/shared/apps/spack/cpu/opt/spack/linux-centos8-zen2/gcc-10.2.0/qchem-5.4-akfmr7b3t57bfs6qan3padb2wnb2i7cl/bin/mpi/mpirun_qchem -machinefile ./qchem3720801/hostfile -np 1 /cm/shared/apps/spack/cpu/opt/spack/linux-centos8-zen2/gcc-10.2.0/qchem-5.4-akfmr7b3t57bfs6qan3padb2wnb2i7cl/exe/qcprog.exe Dimethyl_Naphthalene_Dicarboximide_Phi_0_Theta_160_Thiophene_Hydrogenated_Improper.qcin_3720801.0 ./qchem3720801/

Process 0 of 1 is on exp-2-38 - thread support 0
initial socket setup ...start
initial socket setup ...done 
now start server 0 ... 
                  Welcome to Q-Chem
     A Quantum Leap Into The Future Of Chemistry


 Q-Chem 5.4, Q-Chem, Inc., Pleasanton, CA (2021)

 License issued to: University of California, San Diego (site)

 E. Epifanovsky,  A. T. B. Gilbert,  Xintian Feng,  Joonho Lee,  Yuezhi Mao,  
 N. Mardirossian,  P. Pokhilko,  A. White,  M. Wormit,  M. P. Coons,  
 A. L. Dempwolff,  Zhengting Gan,  D. Hait,  P. R. Horn,  L. D. Jacobson,  
 I. Kaliman,  J. Kussmann,  A. W. Lange,  Ka Un Lao,  D. S. Levine,  Jie Liu,  
 S. C. McKenzie,  A. F. Morrison,  K. Nanda,  F. Plasser,  D. R. Rehn,  
 M. L. Vidal,  Zhi-Qiang You,  Ying Zhu,  B. Alam,  B. Albrecht,  
 A. Aldossary,  E. Alguire,  J. H. Andersen,  D. Barton,  K. Begam,  A. Behn,  
 Y. A. Bernard,  E. J. Berquist,  H. Burton,  A. Carreras,  K. Carter-Fenk,  
 R. Chakraborty,  A. D. Chien,  K. D. Closser,  V. Cofer-Shabica,  
 S. Dasgupta,  Jia Deng,  M. de Wergifosse,  M. Diedenhofen,  Hainam Do,  
 S. Ehlert,  Po-Tung Fang,  S. Fatehi,  Qingguo Feng,  J. Gayvert,  
 Qinghui Ge,  G. Gidofalvi,  M. Goldey,  J. Gomes,  C. Gonzalez-Espinoza,  
 S. Gulania,  A. Gunina,  M. W. D. Hanson-Heine,  P. H. P. Harbach,  
 A. W. Hauser,  M. F. Herbst,  M. Hernandez Vera,  M. Hodecker,  
 Z. C. Holden,  S. Houck,  Xunkun Huang,  Kerwin Hui,  B. C. Huynh,  
 M. Ivanov,  Hyunjun Ji,  Hanjie Jiang,  B. Kaduk,  S. Kaehler,  
 K. Khistyaev,  Jaehoon Kim,  P. Klunzinger,  Z. Koczor-Benda,  
 Joong Hoon Koh,  D. Kosenkov,  L. Koulias,  T. Kowalczyk,  C. M. Krauter,  
 K. Kue,  A. Kunitsa,  T. Kus,  A. Landau,  K. V. Lawler,  D. Lefrancois,  
 S. Lehtola,  Rain Li,  Yi-Pei Li,  Jiashu Liang,  M. Liebenthal,  
 Hung-Hsuan Lin,  You-Sheng Lin,  Fenglai Liu,  Kuan-Yu Liu,  
 M. Loipersberger,  A. Luenser,  A. Manjanath,  P. Manohar,  E. Mansoor,  
 S. F. Manzer,  Shan-Ping Mao,  A. V. Marenich,  T. Markovich,  S. Mason,  
 S. A. Maurer,  P. F. McLaughlin,  M. F. S. J. Menger,  J.-M. Mewes,  
 S. A. Mewes,  P. Morgante,  J. W. Mullinax,  T. S. Nguyen-Beck,  
 K. J. Oosterbaan,  G. Paran,  Alexander C. Paul,  Suranjan K. Paul,  
 F. Pavosevic,  Zheng Pei,  S. Prager,  E. I. Proynov,  E. Ramos,  B. Rana,  
 A. E. Rask,  A. Rettig,  R. M. Richard,  F. Rob,  E. Rossomme,  T. Scheele,  
 M. Scheurer,  M. Schneider,  N. Sergueev,  S. M. Sharada,  W. Skomorowski,  
 D. W. Small,  C. J. Stein,  Yu-Chuan Su,  E. J. Sundstrom,  Zhen Tao,  
 J. Thirman,  T. Tsuchimochi,  N. M. Tubman,  S. P. Veccham,  O. Vydrov,  
 J. Wenzel,  J. Witte,  A. Yamada,  Kun Yao,  S. Yeganeh,  S. R. Yost,  
 A. Zech,  Igor Ying Zhang,  Xing Zhang,  Yu Zhang,  D. Zuev,  
 A. Aspuru-Guzik,  A. T. Bell,  N. A. Besley,  K. B. Bravaya,  B. R. Brooks,  
 D. Casanova,  Jeng-Da Chai,  S. Coriani,  C. J. Cramer,  
 A. E. DePrince, III,  R. A. DiStasio Jr.,  A. Dreuw,  B. D. Dunietz,  
 T. R. Furlani,  W. A. Goddard III,  S. Grimme,  S. Hammes-Schiffer,  
 T. Head-Gordon,  W. J. Hehre,  Chao-Ping Hsu,  T.-C. Jagau,  Yousung Jung,  
 A. Klamt,  Jing Kong,  D. S. Lambrecht,  WanZhen Liang,  N. J. Mayhall,  
 C. W. McCurdy,  J. B. Neaton,  C. Ochsenfeld,  J. A. Parkhill,  R. Peverati,  
 V. A. Rassolov,  Yihan Shao,  L. V. Slipchenko,  T. Stauch,  R. P. Steele,  
 J. E. Subotnik,  A. J. W. Thom,  A. Tkatchenko,  D. G. Truhlar,  
 T. Van Voorhis,  T. A. Wesolowski,  K. B. Whaley,  H. L. Woodcock III,  
 P. M. Zimmerman,  S. Faraji,  P. M. W. Gill,  M. Head-Gordon,  
 J. M. Herbert,  A. I. Krylov

 Contributors to earlier versions of Q-Chem not listed above: 
 R. D. Adamson,  B. Austin,  R. Baer,  J. Baker,  G. J. O. Beran,  
 K. Brandhorst,  S. T. Brown,  E. F. C. Byrd,  A. K. Chakraborty,  
 G. K. L. Chan,  Chun-Min Chang,  Yunqing Chen,  C.-L. Cheng,  
 Siu Hung Chien,  D. M. Chipman,  D. L. Crittenden,  H. Dachsel,  
 R. J. Doerksen,  A. D. Dutoi,  R. G. Edgar,  J. Fosso-Tande,  
 L. Fusti-Molnar,  D. Ghosh,  A. Ghysels,  A. Golubeva-Zadorozhnaya,  
 J. Gonthier,  M. S. Gordon,  S. R. Gwaltney,  G. Hawkins,  J. E. Herr,  
 A. Heyden,  S. Hirata,  E. G. Hohenstein,  G. Kedziora,  F. J. Keil,  
 C. Kelley,  Jihan Kim,  R. A. King,  R. Z. Khaliullin,  P. P. Korambath,  
 W. Kurlancheek,  A. Laurent,  A. M. Lee,  M. S. Lee,  S. V. Levchenko,  
 Ching Yeh Lin,  D. Liotard,  E. Livshits,  R. C. Lochan,  I. Lotan,  
 L. A. Martinez-Martinez,  P. E. Maslen,  N. Nair,  D. P. O'Neill,  
 D. Neuhauser,  E. Neuscamman,  C. M. Oana,  R. Olivares-Amaya,  R. Olson,  
 T. M. Perrine,  B. Peters,  P. A. Pieniazek,  A. Prociuk,  Y. M. Rhee,  
 J. Ritchie,  M. A. Rohrdanz,  E. Rosta,  N. J. Russ,  H. F. Schaefer III,  
 M. W. Schmidt,  N. E. Schultz,  S. Sharma,  N. Shenvi,  C. D. Sherrill,  
 A. C. Simmonett,  A. Sodt,  T. Stein,  D. Stuck,  K. S. Thanthiriwatte,  
 V. Vanovschi,  L. Vogt,  Tao Wang,  A. Warshel,  M. A. Watson,  
 C. F. Williams,  Q. Wu,  X. Xu,  Jun Yang,  W. Zhang,  Yan Zhao

 Please cite Q-Chem as follows:
 Y. Shao et al., Mol. Phys. 113, 184-215 (2015)
 DOI: 10.1080/00268976.2014.952696

 Q-Chem 5.4.0 for Intel X86 EM64T Linux

 Parts of Q-Chem use Armadillo 9.800.1 (Horizon Scraper).
 http://arma.sourceforge.net/

 Q-Chem begins on Sun Sep 24 15:06:10 2023  

 Host: 
0

     Scratch files written to ./qchem3720801//
 May1621 |scratch|qcdevops|jenkins|workspace|build_RNUM    
 Parallel job on  1  processors
 Processing $rem in /cm/shared/apps/spack/cpu/opt/spack/linux-centos8-zen2/gcc-10.2.0/qchem-5.4-akfmr7b3t57bfs6qan3padb2wnb2i7cl/config/preferences:
 Processing $rem in /home/rramji/.qchemrc:
 Symmetry turned off for PCM/SM12/SMD calculation
 Core orbitals will be frozen

 Checking the input file for inconsistencies... 	...done.

 Q-Chem warning in module forms1/BasisType.C, line 2236:

 You are not using the predefined 5D/6D in this basis set.


--------------------------------------------------------------
User input:
--------------------------------------------------------------
$molecule
0 1
C	0.005594	-0.399361	-0.215530
S	0.005394	0.393839	1.364970
C	0.005394	2.031539	0.689370
C	0.005394	0.598639	-1.200930
C	0.005294	1.918839	-0.709030
H	0.005494	0.362939	-2.275430
H	0.005294	2.799839	-1.368130
C	0.005594	-1.877561	-0.215530
H	-1.009406	-1.878161	0.153370
H	-0.331806	-2.316861	-1.142630
H	0.283794	-2.588561	0.548370
H	0.005294	2.912239	1.340470
$end

$rem
JOBTYPE		SP
EXCHANGE	HF
CORRELATION	pRIMP2
BASIS		cc-pvtz
METHOD		rimp2
AUX_BASIS	rimp2-cc-pvtz
SOLVENT_METHOD	PCM
PURECART	11111
SYMMETRY	false
MEM_TOTAL	110000
SCF_CONVERGENCE = 6
THRESH=10
GUI = 2
$end



$solvent
dielectric 4.90
$end
--------------------------------------------------------------
 ----------------------------------------------------------------
             Standard Nuclear Orientation (Angstroms)
    I     Atom           X                Y                Z
 ----------------------------------------------------------------
    1      C       0.0055940000    -0.3993610000    -0.2155300000
    2      S       0.0053940000     0.3938390000     1.3649700000
    3      C       0.0053940000     2.0315390000     0.6893700000
    4      C       0.0053940000     0.5986390000    -1.2009300000
    5      C       0.0052940000     1.9188390000    -0.7090300000
    6      H       0.0054940000     0.3629390000    -2.2754300000
    7      H       0.0052940000     2.7998390000    -1.3681300000
    8      C       0.0055940000    -1.8775610000    -0.2155300000
    9      H      -1.0094060000    -1.8781610000     0.1533700000
   10      H      -0.3318060000    -2.3168610000    -1.1426300000
   11      H       0.2837940000    -2.5885610000     0.5483700000
   12      H       0.0052940000     2.9122390000     1.3404700000
 ----------------------------------------------------------------
 Nuclear Repulsion Energy =         270.29412048 hartrees
 There are       26 alpha and       26 beta electrons
 Requested basis set is cc-pVTZ
 There are 98 shells and 268 basis functions

 Total QAlloc Memory Limit 110000 MB
 Mega-Array Size       188 MB
 MEM_STATIC part       192 MB
 Discretize the solute cavity surface with Lebedev spheres
	Using 110 Lebedev grid points for each H atom
	Using 194 Lebedev grid points for other atoms
	Atomic van der Waals radii will be scaled by 1.20
 Remove points where switching function is < 1.0e-08
 Keep 896 surface tesserae and discard 928 interior tesserae
 Molecular Surface Area = 138.496 Angst**2

                       Distance Matrix (Angstroms)
             C (  1)   S (  2)   C (  3)   C (  4)   C (  5)   H (  6)
   S (  2)  1.768374
   C (  3)  2.593862  1.771580
   C (  4)  1.402504  2.574060  2.372011
   C (  5)  2.370146  2.574316  1.402934  1.408863
   H (  6)  2.196426  3.640531  3.402097  1.100048  2.207812
   H (  7)  3.400495  3.641246  2.196268  2.207541  1.100261  2.600322
   C (  8)  1.478200  2.767172  4.012469  2.665067  3.828341  3.043522
   H (  9)  1.831164  2.767630  4.074662  2.999748  4.023749  3.457112
   H ( 10)  2.156423  3.708053  4.730593  2.935514  4.271159  2.928880
   H ( 11)  2.335281  3.104682  4.630628  3.646341  4.687779  4.094221
   H ( 12)  3.658938  2.518519  1.095246  3.436780  2.277563  4.424213
             H (  7)   C (  8)   H (  9)   H ( 10)   H ( 11)
   C (  8)  4.817319
   H (  9)  5.022774  1.079960
   H ( 10)  5.132748  1.079971  1.526832
   H ( 11)  5.725853  1.080028  1.527436  1.819963
   H ( 12)  2.710931  5.036201  5.038527  5.798526  5.564511
 
 Requested basis set is rimp2-cc-pVTZ
 There are 207 shells and 707 basis functions
 A cutoff of  1.0D-10 yielded   4353 shell pairs
 There are     32621 function pairs (     42172 Cartesian)
 Smallest overlap matrix eigenvalue = 1.03E-04

 Scale SEOQF with 1.000000e+00/1.000000e-01/1.000000e-01

 Standard Electronic Orientation quadrupole field applied
 Nucleus-field energy     =     0.0000000020 hartrees
 Guess from superposition of atomic densities
 Warning:  Energy on first SCF cycle will be non-variational
 SAD guess density has 52.000000 electrons

 -----------------------------------------------------------------------
  General SCF calculation program by
  Eric Jon Sundstrom, Paul Horn, Yuezhi Mao, Dmitri Zuev, Alec White,
  David Stuck, Shaama M.S., Shane Yost, Joonho Lee, David Small,
  Daniel Levine, Susi Lehtola, Hugh Burton, Evgeny Epifanovsky,
  Bang C. Huynh
 -----------------------------------------------------------------------
 Hartree-Fock
 using 64 threads for integral computing
 -------------------------------------------------------
 OpenMP Integral computing Module                
 Release: version 1.0, May 2013, Q-Chem Inc. Pittsburgh 
 -------------------------------------------------------
 A restricted SCF calculation will be
 performed using DIIS
 SCF converges when DIIS error is below 1.0e-06
 ---------------------------------------
  Cycle       Energy         DIIS error
 ---------------------------------------
    1    -592.5714650967      3.22e-02  
    2    -590.3033228565      2.20e-03  
    3    -590.3642851685      8.51e-04  
    4    -590.3716805511      4.05e-04  
    5    -590.3737662233      7.02e-05  
    6    -590.3738929438      3.20e-05  
    7    -590.3739233443      1.42e-05  
    8    -590.3739327754      5.60e-06  
    9    -590.3739341651      1.83e-06  
   10    -590.3739342841      6.23e-07  Convergence criterion met
 ---------------------------------------
 SCF time:   CPU 497.37s  wall 9.00s 

************** Final PCM Free Energy Summary **************
 G_electrostatic  =      -0.00604359 hartree =      -3.79240798 kcal/mol
 G_cavitation     =       0.00000000 hartree =       0.00000000 kcal/mol
 G_dispersion     =       0.00000000 hartree =       0.00000000 kcal/mol
 G_repulsion      =       0.00000000 hartree =       0.00000000 kcal/mol
 --------------------------------------------------
 Non-electrostatic Free Energy =       0.00000000 hartree =       0.00000000 kcal/mol
 Total                         =      -0.00604359 hartree =      -3.79240798 kcal/mol
 --------------------------------------------------
 SCF Energy (H0 + V/2)                       =    -590.37393428 
 Solute Internal Energy (H0)                 =    -590.36789070 
 Total Free Energy (H0 + V/2 + non-elec)     =    -590.37393428 hartree
                                             = -370465.23519482 kcal/mol
***********************************************************

 SCF   energy in the final basis set =     -590.3739342841
 Total energy in the final basis set =     -590.3739342841


 --------------------------------------------------------------
  Generalized many-body perturbation theory program
  by Joonho Lee, Fazle Rob, Xintian Feng, Evgeny Epifanovsky

 No regularization used 
 (reg. param. = 0.0000e+00)
  (P|Q)^-1/2 Time:  CPU 5.13 s  wall 0.08 s

 In RI-MP2 calculation: 
 # of frozen core orbitals: 10

 Components of the RIMP2 correlation energy:
        aaaa    correlation energy =        -0.1249493537 a.u.
        abab    correlation energy =        -0.7500168403 a.u.
        bbbb    correlation energy =        -0.1249493537 a.u.
        non-Brillouin singles      =        -0.0000000000 a.u.
        total same-spin energy     =        -0.2498987074 a.u.
        total opposite-spin energy =        -0.7500168403 a.u.

 Total  RIMP2   correlation energy =        -0.9999155478 a.u.
        RIMP2         total energy =      -591.3738498319 a.u.

 RI-MP2 Energy Time:  CPU 23.41 s  wall 0.43 s
 
 --------------------------------------------------------------
 
                    Orbital Energies (a.u.)
 --------------------------------------------------------------
 
 Alpha MOs
 -- Occupied --
-91.9771 -11.2914 -11.2636 -11.2428 -11.2330 -11.2281  -8.9772  -6.6581
 -6.6576  -6.6570  -1.1571  -1.0408  -0.9713  -0.9199  -0.7553  -0.7213
 -0.6708  -0.5990  -0.5668  -0.5578  -0.5439  -0.4927  -0.4764  -0.4545
 -0.3465  -0.2997
 -- Virtual --
  0.1107   0.1458   0.1598   0.1822   0.1882   0.2050   0.2155   0.2218
  0.2288   0.2391   0.3121   0.3400   0.3467   0.3674   0.3881   0.4116
  0.4266   0.4433   0.4576   0.4942   0.4978   0.5173   0.5248   0.5297
  0.5451   0.5566   0.5745   0.5860   0.5987   0.6132   0.6165   0.6192
  0.6302   0.6384   0.6471   0.6618   0.7057   0.7105   0.7449   0.7753
  0.7862   0.8075   0.8352   0.8589   0.8769   0.8836   0.8932   0.9357
  0.9649   0.9780   0.9975   1.0436   1.0630   1.0699   1.0918   1.1108
  1.1284   1.1655   1.1711   1.1810   1.2195   1.2332   1.2466   1.2626
  1.2793   1.3193   1.3423   1.3522   1.3915   1.4153   1.4225   1.4503
  1.4735   1.4963   1.5149   1.5271   1.5393   1.5510   1.5617   1.5861
  1.6055   1.6333   1.6476   1.6958   1.7164   1.7557   1.7612   1.7922
  1.8350   1.8824   1.9111   1.9328   1.9408   2.0144   2.0632   2.0718
  2.1563   2.1732   2.2244   2.2320   2.2551   2.2919   2.3492   2.4121
  2.4301   2.4433   2.4828   2.5299   2.5471   2.5911   2.6482   2.6535
  2.6944   2.7165   2.7232   2.7427   2.7626   2.7645   2.8037   2.8264
  2.8716   2.9049   2.9342   2.9514   2.9947   3.0094   3.0251   3.0382
  3.0655   3.0851   3.1050   3.1516   3.1792   3.2052   3.2357   3.2409
  3.2765   3.2797   3.2916   3.3009   3.3215   3.3344   3.3708   3.3883
  3.3964   3.4170   3.4276   3.4524   3.4587   3.4750   3.4876   3.4969
  3.5113   3.5255   3.5598   3.5682   3.5951   3.6030   3.6183   3.6496
  3.6670   3.7070   3.7201   3.7471   3.7704   3.7788   3.8122   3.8423
  3.8762   3.8918   3.8997   3.9138   3.9418   3.9442   3.9723   3.9935
  4.0113   4.0355   4.0790   4.1015   4.1234   4.1494   4.1658   4.2144
  4.2195   4.2552   4.2754   4.3016   4.3342   4.3611   4.3649   4.3886
  4.4400   4.4411   4.4783   4.5149   4.5279   4.5564   4.5684   4.6500
  4.6712   4.6959   4.7137   4.7559   4.7886   4.8212   4.8350   4.9177
  4.9759   5.0106   5.0198   5.0549   5.0720   5.1331   5.1813   5.1932
  5.2153   5.3028   5.3659   5.4086   5.4202   5.4986   5.5330   5.5870
  5.6207   5.6922   5.7934   5.8365   5.8765   6.0219   6.0339   6.0657
  6.1277   6.3227   6.4469   6.4732   6.7039   9.4275  11.2593  12.8711
 13.9433  14.3245
 --------------------------------------------------------------
 
          Ground-State Mulliken Net Atomic Charges

     Atom                 Charge (a.u.)
  ----------------------------------------
      1 C                     0.019898
      2 S                    -0.011243
      3 C                    -0.243414
      4 C                    -0.233222
      5 C                    -0.189047
      6 H                     0.184078
      7 H                     0.185164
      8 C                    -0.359864
      9 H                     0.138789
     10 H                     0.134072
     11 H                     0.170497
     12 H                     0.204292
  ----------------------------------------
  Sum of atomic charges =     0.000000

 -----------------------------------------------------------------
                    Cartesian Multipole Moments
 -----------------------------------------------------------------
    Charge (ESU x 10^10)
                -0.0000
    Dipole Moment (Debye)
         X      -0.6858      Y      -0.7850      Z      -0.8460
       Tot       1.3425
    Quadrupole Moments (Debye-Ang)
        XX     -48.2294     XY       1.3042     YY     -35.8003
        XZ       0.3974     YZ       0.1173     ZZ     -41.9502
    Octopole Moments (Debye-Ang^2)
       XXX       0.6496    XXY     -21.5448    XYY      -1.8934
       YYY     -43.3022    XXZ      -7.2056    XYZ      -1.0857
       YYZ      -1.9814    XZZ       0.0386    YZZ     -11.3024
       ZZZ     -28.5936
    Hexadecapole Moments (Debye-Ang^3)
      XXXX     -65.0760   XXXY      -2.9747   XXYY    -117.5935
      XYYY       1.0771   YYYY    -498.3713   XXXZ      -0.9841
      XXYZ      -6.5106   XYYZ       2.6023   YYYZ     -15.6942
      XXZZ     -69.8997   XYZZ      -0.2910   YYZZ    -123.6334
      XZZZ      -0.0664   YZZZ     -14.0013   ZZZZ    -307.3085
 -----------------------------------------------------------------
 Total job time:  11.29s(wall), 562.56s(cpu) 
 Sun Sep 24 15:06:22 2023

        *************************************************************
        *                                                           *
        *  Thank you very much for using Q-Chem.  Have a nice day.  *
        *                                                           *
        *************************************************************


0 sent ACK to 0 
now end server 0 ... 
cleanup process ... done
remove work dirs ./qchem3720801.0 -- ./qchem3720801.0
rm -rf ./qchem3720801.0
rm -rf ./qchem3720801
