You are running Q-Chem version: 5.4.0

#
# job setting
#
local host:  exp-3-45
current dir: /expanse/lustre/projects/csd626/rramji/aromodel/PNDIT/Hydrogenated_Impropers_Test
input file:  Dimethyl_Naphthalene_Dicarboximide_Phi_20_Theta_110_Thiophene_Hydrogenated_Improper.qcin
output file: 
nprocs     : 1
nthreads   : 64
#
# qchem installation setting
#
QC:          /cm/shared/apps/spack/cpu/opt/spack/linux-centos8-zen2/gcc-10.2.0/qchem-5.4-akfmr7b3t57bfs6qan3padb2wnb2i7cl
QCAUX:       /cm/shared/apps/spack/cpu/opt/spack/linux-centos8-zen2/gcc-10.2.0/qchem-5.4-akfmr7b3t57bfs6qan3padb2wnb2i7cl/qcaux
QCPROG:      /cm/shared/apps/spack/cpu/opt/spack/linux-centos8-zen2/gcc-10.2.0/qchem-5.4-akfmr7b3t57bfs6qan3padb2wnb2i7cl/exe/qcprog.exe
QCPROG_S:    /cm/shared/apps/spack/cpu/opt/spack/linux-centos8-zen2/gcc-10.2.0/qchem-5.4-akfmr7b3t57bfs6qan3padb2wnb2i7cl/exe/qcprog.exe_s
PARALLEL:    -DPARALLEL
QCMPI:       mpich
#
# qchem directory setting
#
qcrun:       qchem114240
QCSCRATCH:   .
QCLOCALSCR:  
QCTMPDIR:    .
QCFILEPREF:  ./qchem114240
QCSAVEDIR:   
workdirs:    ./qchem114240
workdir0:    ./qchem114240
partmpdirs =  
#
# parallel setting
#
QCRSH:           ssh
QCMPI:           mpich
QCMPIRUN:        /cm/shared/apps/spack/cpu/opt/spack/linux-centos8-zen2/gcc-10.2.0/qchem-5.4-akfmr7b3t57bfs6qan3padb2wnb2i7cl/bin/mpi/mpirun_qchem
QCMACHINEFILE:   ./qchem114240/hostfile
exp-3-45

#
# env setting
#
exported envs:   QC QCAUX QCSCRATCH QCRUNNAME QCFILEPREF QCPROG QCPROG_S GUIFILE

Running Job 1 of 1 Dimethyl_Naphthalene_Dicarboximide_Phi_20_Theta_110_Thiophene_Hydrogenated_Improper.qcin
qchem Dimethyl_Naphthalene_Dicarboximide_Phi_20_Theta_110_Thiophene_Hydrogenated_Improper.qcin_114240.0 ./qchem114240/ 1
/cm/shared/apps/spack/cpu/opt/spack/linux-centos8-zen2/gcc-10.2.0/qchem-5.4-akfmr7b3t57bfs6qan3padb2wnb2i7cl/bin/mpi/mpirun_qchem -machinefile ./qchem114240/hostfile -np 1 /cm/shared/apps/spack/cpu/opt/spack/linux-centos8-zen2/gcc-10.2.0/qchem-5.4-akfmr7b3t57bfs6qan3padb2wnb2i7cl/exe/qcprog.exe Dimethyl_Naphthalene_Dicarboximide_Phi_20_Theta_110_Thiophene_Hydrogenated_Improper.qcin_114240.0 ./qchem114240/

Process 0 of 1 is on exp-3-45 - thread support 0
initial socket setup ...start
initial socket setup ...done 
now start server 0 ... 
                  Welcome to Q-Chem
     A Quantum Leap Into The Future Of Chemistry


 Q-Chem 5.4, Q-Chem, Inc., Pleasanton, CA (2021)

 License issued to: University of California, San Diego (site)

 E. Epifanovsky,  A. T. B. Gilbert,  Xintian Feng,  Joonho Lee,  Yuezhi Mao,  
 N. Mardirossian,  P. Pokhilko,  A. White,  M. Wormit,  M. P. Coons,  
 A. L. Dempwolff,  Zhengting Gan,  D. Hait,  P. R. Horn,  L. D. Jacobson,  
 I. Kaliman,  J. Kussmann,  A. W. Lange,  Ka Un Lao,  D. S. Levine,  Jie Liu,  
 S. C. McKenzie,  A. F. Morrison,  K. Nanda,  F. Plasser,  D. R. Rehn,  
 M. L. Vidal,  Zhi-Qiang You,  Ying Zhu,  B. Alam,  B. Albrecht,  
 A. Aldossary,  E. Alguire,  J. H. Andersen,  D. Barton,  K. Begam,  A. Behn,  
 Y. A. Bernard,  E. J. Berquist,  H. Burton,  A. Carreras,  K. Carter-Fenk,  
 R. Chakraborty,  A. D. Chien,  K. D. Closser,  V. Cofer-Shabica,  
 S. Dasgupta,  Jia Deng,  M. de Wergifosse,  M. Diedenhofen,  Hainam Do,  
 S. Ehlert,  Po-Tung Fang,  S. Fatehi,  Qingguo Feng,  J. Gayvert,  
 Qinghui Ge,  G. Gidofalvi,  M. Goldey,  J. Gomes,  C. Gonzalez-Espinoza,  
 S. Gulania,  A. Gunina,  M. W. D. Hanson-Heine,  P. H. P. Harbach,  
 A. W. Hauser,  M. F. Herbst,  M. Hernandez Vera,  M. Hodecker,  
 Z. C. Holden,  S. Houck,  Xunkun Huang,  Kerwin Hui,  B. C. Huynh,  
 M. Ivanov,  Hyunjun Ji,  Hanjie Jiang,  B. Kaduk,  S. Kaehler,  
 K. Khistyaev,  Jaehoon Kim,  P. Klunzinger,  Z. Koczor-Benda,  
 Joong Hoon Koh,  D. Kosenkov,  L. Koulias,  T. Kowalczyk,  C. M. Krauter,  
 K. Kue,  A. Kunitsa,  T. Kus,  A. Landau,  K. V. Lawler,  D. Lefrancois,  
 S. Lehtola,  Rain Li,  Yi-Pei Li,  Jiashu Liang,  M. Liebenthal,  
 Hung-Hsuan Lin,  You-Sheng Lin,  Fenglai Liu,  Kuan-Yu Liu,  
 M. Loipersberger,  A. Luenser,  A. Manjanath,  P. Manohar,  E. Mansoor,  
 S. F. Manzer,  Shan-Ping Mao,  A. V. Marenich,  T. Markovich,  S. Mason,  
 S. A. Maurer,  P. F. McLaughlin,  M. F. S. J. Menger,  J.-M. Mewes,  
 S. A. Mewes,  P. Morgante,  J. W. Mullinax,  T. S. Nguyen-Beck,  
 K. J. Oosterbaan,  G. Paran,  Alexander C. Paul,  Suranjan K. Paul,  
 F. Pavosevic,  Zheng Pei,  S. Prager,  E. I. Proynov,  E. Ramos,  B. Rana,  
 A. E. Rask,  A. Rettig,  R. M. Richard,  F. Rob,  E. Rossomme,  T. Scheele,  
 M. Scheurer,  M. Schneider,  N. Sergueev,  S. M. Sharada,  W. Skomorowski,  
 D. W. Small,  C. J. Stein,  Yu-Chuan Su,  E. J. Sundstrom,  Zhen Tao,  
 J. Thirman,  T. Tsuchimochi,  N. M. Tubman,  S. P. Veccham,  O. Vydrov,  
 J. Wenzel,  J. Witte,  A. Yamada,  Kun Yao,  S. Yeganeh,  S. R. Yost,  
 A. Zech,  Igor Ying Zhang,  Xing Zhang,  Yu Zhang,  D. Zuev,  
 A. Aspuru-Guzik,  A. T. Bell,  N. A. Besley,  K. B. Bravaya,  B. R. Brooks,  
 D. Casanova,  Jeng-Da Chai,  S. Coriani,  C. J. Cramer,  
 A. E. DePrince, III,  R. A. DiStasio Jr.,  A. Dreuw,  B. D. Dunietz,  
 T. R. Furlani,  W. A. Goddard III,  S. Grimme,  S. Hammes-Schiffer,  
 T. Head-Gordon,  W. J. Hehre,  Chao-Ping Hsu,  T.-C. Jagau,  Yousung Jung,  
 A. Klamt,  Jing Kong,  D. S. Lambrecht,  WanZhen Liang,  N. J. Mayhall,  
 C. W. McCurdy,  J. B. Neaton,  C. Ochsenfeld,  J. A. Parkhill,  R. Peverati,  
 V. A. Rassolov,  Yihan Shao,  L. V. Slipchenko,  T. Stauch,  R. P. Steele,  
 J. E. Subotnik,  A. J. W. Thom,  A. Tkatchenko,  D. G. Truhlar,  
 T. Van Voorhis,  T. A. Wesolowski,  K. B. Whaley,  H. L. Woodcock III,  
 P. M. Zimmerman,  S. Faraji,  P. M. W. Gill,  M. Head-Gordon,  
 J. M. Herbert,  A. I. Krylov

 Contributors to earlier versions of Q-Chem not listed above: 
 R. D. Adamson,  B. Austin,  R. Baer,  J. Baker,  G. J. O. Beran,  
 K. Brandhorst,  S. T. Brown,  E. F. C. Byrd,  A. K. Chakraborty,  
 G. K. L. Chan,  Chun-Min Chang,  Yunqing Chen,  C.-L. Cheng,  
 Siu Hung Chien,  D. M. Chipman,  D. L. Crittenden,  H. Dachsel,  
 R. J. Doerksen,  A. D. Dutoi,  R. G. Edgar,  J. Fosso-Tande,  
 L. Fusti-Molnar,  D. Ghosh,  A. Ghysels,  A. Golubeva-Zadorozhnaya,  
 J. Gonthier,  M. S. Gordon,  S. R. Gwaltney,  G. Hawkins,  J. E. Herr,  
 A. Heyden,  S. Hirata,  E. G. Hohenstein,  G. Kedziora,  F. J. Keil,  
 C. Kelley,  Jihan Kim,  R. A. King,  R. Z. Khaliullin,  P. P. Korambath,  
 W. Kurlancheek,  A. Laurent,  A. M. Lee,  M. S. Lee,  S. V. Levchenko,  
 Ching Yeh Lin,  D. Liotard,  E. Livshits,  R. C. Lochan,  I. Lotan,  
 L. A. Martinez-Martinez,  P. E. Maslen,  N. Nair,  D. P. O'Neill,  
 D. Neuhauser,  E. Neuscamman,  C. M. Oana,  R. Olivares-Amaya,  R. Olson,  
 T. M. Perrine,  B. Peters,  P. A. Pieniazek,  A. Prociuk,  Y. M. Rhee,  
 J. Ritchie,  M. A. Rohrdanz,  E. Rosta,  N. J. Russ,  H. F. Schaefer III,  
 M. W. Schmidt,  N. E. Schultz,  S. Sharma,  N. Shenvi,  C. D. Sherrill,  
 A. C. Simmonett,  A. Sodt,  T. Stein,  D. Stuck,  K. S. Thanthiriwatte,  
 V. Vanovschi,  L. Vogt,  Tao Wang,  A. Warshel,  M. A. Watson,  
 C. F. Williams,  Q. Wu,  X. Xu,  Jun Yang,  W. Zhang,  Yan Zhao

 Please cite Q-Chem as follows:
 Y. Shao et al., Mol. Phys. 113, 184-215 (2015)
 DOI: 10.1080/00268976.2014.952696

 Q-Chem 5.4.0 for Intel X86 EM64T Linux

 Parts of Q-Chem use Armadillo 9.800.1 (Horizon Scraper).
 http://arma.sourceforge.net/

 Q-Chem begins on Sun Sep 24 15:07:08 2023  

 Host: 
0

     Scratch files written to ./qchem114240//
 May1621 |scratch|qcdevops|jenkins|workspace|build_RNUM    
 Parallel job on  1  processors
 Processing $rem in /cm/shared/apps/spack/cpu/opt/spack/linux-centos8-zen2/gcc-10.2.0/qchem-5.4-akfmr7b3t57bfs6qan3padb2wnb2i7cl/config/preferences:
 Processing $rem in /home/rramji/.qchemrc:
 Symmetry turned off for PCM/SM12/SMD calculation
 Core orbitals will be frozen

 Checking the input file for inconsistencies... 	...done.

 Q-Chem warning in module forms1/BasisType.C, line 2236:

 You are not using the predefined 5D/6D in this basis set.


--------------------------------------------------------------
User input:
--------------------------------------------------------------
$molecule
0 1
C	-0.174518	-0.368118	-0.219377
S	0.096582	0.377282	1.361123
C	0.656682	1.916282	0.685523
C	0.166682	0.569782	-1.204777
C	0.618082	1.810382	-0.712877
H	0.086082	0.348282	-2.279277
H	0.919382	2.638182	-1.371977
C	-0.174518	-1.846318	-0.219377
H	-0.544418	-1.846918	0.795323
H	-1.101618	-2.285618	-0.556877
H	0.589482	-2.557318	0.058523
H	0.957782	2.743882	1.336623
$end

$rem
JOBTYPE		SP
EXCHANGE	HF
CORRELATION	pRIMP2
BASIS		cc-pvtz
METHOD		rimp2
AUX_BASIS	rimp2-cc-pvtz
SOLVENT_METHOD	PCM
PURECART	11111
SYMMETRY	false
MEM_TOTAL	110000
SCF_CONVERGENCE = 6
THRESH=10
GUI = 2
$end



$solvent
dielectric 4.90
$end
--------------------------------------------------------------
 ----------------------------------------------------------------
             Standard Nuclear Orientation (Angstroms)
    I     Atom           X                Y                Z
 ----------------------------------------------------------------
    1      C      -0.1745180000    -0.3681180000    -0.2193770000
    2      S       0.0965820000     0.3772820000     1.3611230000
    3      C       0.6566820000     1.9162820000     0.6855230000
    4      C       0.1666820000     0.5697820000    -1.2047770000
    5      C       0.6180820000     1.8103820000    -0.7128770000
    6      H       0.0860820000     0.3482820000    -2.2792770000
    7      H       0.9193820000     2.6381820000    -1.3719770000
    8      C      -0.1745180000    -1.8463180000    -0.2193770000
    9      H      -0.5444180000    -1.8469180000     0.7953230000
   10      H      -1.1016180000    -2.2856180000    -0.5568770000
   11      H       0.5894820000    -2.5573180000     0.0585230000
   12      H       0.9577820000     2.7438820000     1.3366230000
 ----------------------------------------------------------------
 Nuclear Repulsion Energy =         271.14523501 hartrees
 There are       26 alpha and       26 beta electrons
 Requested basis set is cc-pVTZ
 There are 98 shells and 268 basis functions

 Total QAlloc Memory Limit 110000 MB
 Mega-Array Size       188 MB
 MEM_STATIC part       192 MB
 Discretize the solute cavity surface with Lebedev spheres
	Using 110 Lebedev grid points for each H atom
	Using 194 Lebedev grid points for other atoms
	Atomic van der Waals radii will be scaled by 1.20
 Remove points where switching function is < 1.0e-08
 Keep 888 surface tesserae and discard 936 interior tesserae
 Molecular Surface Area = 137.225 Angst**2

                       Distance Matrix (Angstroms)
             C (  1)   S (  2)   C (  3)   C (  4)   C (  5)   H (  6)
   S (  2)  1.768360
   C (  3)  2.593881  1.771629
   C (  4)  1.402529  2.574065  2.372003
   C (  5)  2.370152  2.574338  1.402935  1.408835
   H (  6)  2.196436  3.640531  3.402095  1.100049  2.207797
   H (  7)  3.400433  3.641223  2.196237  2.207440  1.100203  2.600235
   C (  8)  1.478200  2.741509  3.958143  2.631534  3.774018  3.021154
   H (  9)  1.831199  2.382871  3.951755  3.216598  4.123338  3.830091
   H ( 10)  2.156438  3.493629  4.721349  3.190873  4.445101  3.363736
   H ( 11)  2.335278  3.248322  4.517825  3.399035  4.435389  3.763141
   H ( 12)  3.658932  2.518543  1.095223  3.436752  2.277558  4.424194
             H (  7)   C (  8)   H (  9)   H ( 10)   H ( 11)
   C (  8)  4.757714
   H (  9)  5.191919  1.080020
   H ( 10)  5.384481  1.080002  1.526884
   H ( 11)  5.398924  1.080021  1.527505  1.819988
   H ( 12)  2.710934  4.977266  4.860561  5.755201  5.465520
 
 Requested basis set is rimp2-cc-pVTZ
 There are 207 shells and 707 basis functions
 A cutoff of  1.0D-10 yielded   4385 shell pairs
 There are     32881 function pairs (     42509 Cartesian)
 Smallest overlap matrix eigenvalue = 1.46E-04

 Scale SEOQF with 1.000000e+00/1.000000e-01/1.000000e-01

 Standard Electronic Orientation quadrupole field applied
 Nucleus-field energy     =     0.0000000044 hartrees
 Guess from superposition of atomic densities
 Warning:  Energy on first SCF cycle will be non-variational
 SAD guess density has 52.000000 electrons

 -----------------------------------------------------------------------
  General SCF calculation program by
  Eric Jon Sundstrom, Paul Horn, Yuezhi Mao, Dmitri Zuev, Alec White,
  David Stuck, Shaama M.S., Shane Yost, Joonho Lee, David Small,
  Daniel Levine, Susi Lehtola, Hugh Burton, Evgeny Epifanovsky,
  Bang C. Huynh
 -----------------------------------------------------------------------
 Hartree-Fock
 using 64 threads for integral computing
 -------------------------------------------------------
 OpenMP Integral computing Module                
 Release: version 1.0, May 2013, Q-Chem Inc. Pittsburgh 
 -------------------------------------------------------
 A restricted SCF calculation will be
 performed using DIIS
 SCF converges when DIIS error is below 1.0e-06
 ---------------------------------------
  Cycle       Energy         DIIS error
 ---------------------------------------
    1    -592.5944782360      3.23e-02  
    2    -590.2925299933      2.17e-03  
    3    -590.3534161993      7.99e-04  
    4    -590.3603809609      3.77e-04  
    5    -590.3622356805      7.17e-05  
    6    -590.3623665886      3.05e-05  
    7    -590.3623997137      1.51e-05  
    8    -590.3624096388      5.86e-06  
    9    -590.3624112595      2.29e-06  
   10    -590.3624114375      6.51e-07  Convergence criterion met
 ---------------------------------------
 SCF time:   CPU 490.72s  wall 8.00s 

************** Final PCM Free Energy Summary **************
 G_electrostatic  =      -0.00520199 hartree =      -3.26430087 kcal/mol
 G_cavitation     =       0.00000000 hartree =       0.00000000 kcal/mol
 G_dispersion     =       0.00000000 hartree =       0.00000000 kcal/mol
 G_repulsion      =       0.00000000 hartree =       0.00000000 kcal/mol
 --------------------------------------------------
 Non-electrostatic Free Energy =       0.00000000 hartree =       0.00000000 kcal/mol
 Total                         =      -0.00520199 hartree =      -3.26430087 kcal/mol
 --------------------------------------------------
 SCF Energy (H0 + V/2)                       =    -590.36241144 
 Solute Internal Energy (H0)                 =    -590.35720944 
 Total Free Energy (H0 + V/2 + non-elec)     =    -590.36241144 hartree
                                             = -370458.00449940 kcal/mol
***********************************************************

 SCF   energy in the final basis set =     -590.3624114375
 Total energy in the final basis set =     -590.3624114375


 --------------------------------------------------------------
  Generalized many-body perturbation theory program
  by Joonho Lee, Fazle Rob, Xintian Feng, Evgeny Epifanovsky

 No regularization used 
 (reg. param. = 0.0000e+00)
  (P|Q)^-1/2 Time:  CPU 6.44 s  wall 0.11 s

 In RI-MP2 calculation: 
 # of frozen core orbitals: 10

 Components of the RIMP2 correlation energy:
        aaaa    correlation energy =        -0.1256765101 a.u.
        abab    correlation energy =        -0.7525466317 a.u.
        bbbb    correlation energy =        -0.1256765101 a.u.
        non-Brillouin singles      =        -0.0000000000 a.u.
        total same-spin energy     =        -0.2513530203 a.u.
        total opposite-spin energy =        -0.7525466317 a.u.

 Total  RIMP2   correlation energy =        -1.0038996519 a.u.
        RIMP2         total energy =      -591.3663110894 a.u.

 RI-MP2 Energy Time:  CPU 25.27 s  wall 0.45 s
 
 --------------------------------------------------------------
 
                    Orbital Energies (a.u.)
 --------------------------------------------------------------
 
 Alpha MOs
 -- Occupied --
-91.9801 -11.2785 -11.2723 -11.2434 -11.2387 -11.2220  -8.9800  -6.6608
 -6.6603  -6.6598  -1.1587  -1.0387  -0.9738  -0.9176  -0.7594  -0.7208
 -0.6715  -0.5959  -0.5688  -0.5621  -0.5399  -0.4912  -0.4632  -0.4494
 -0.3463  -0.3114
 -- Virtual --
  0.0955   0.1457   0.1606   0.1780   0.1904   0.1957   0.2078   0.2268
  0.2345   0.2795   0.3000   0.3128   0.3666   0.3747   0.3848   0.3994
  0.4265   0.4505   0.4549   0.4736   0.4891   0.5134   0.5286   0.5378
  0.5414   0.5620   0.5698   0.5899   0.6003   0.6038   0.6121   0.6225
  0.6281   0.6506   0.6519   0.6591   0.6876   0.7056   0.7310   0.7581
  0.7775   0.7911   0.8377   0.8590   0.8726   0.8824   0.8936   0.9198
  0.9371   0.9838   0.9923   1.0317   1.0639   1.0775   1.1053   1.1217
  1.1324   1.1602   1.1703   1.2174   1.2265   1.2328   1.2364   1.2617
  1.2833   1.3016   1.3210   1.3346   1.3849   1.3937   1.4254   1.4358
  1.4777   1.4892   1.5001   1.5283   1.5508   1.5599   1.5820   1.5873
  1.6108   1.6276   1.6455   1.6656   1.6872   1.7437   1.7552   1.8185
  1.8363   1.8988   1.9125   1.9276   1.9515   1.9677   2.0412   2.0969
  2.1370   2.1767   2.1866   2.2193   2.2460   2.2731   2.3297   2.4248
  2.4322   2.4693   2.4864   2.5190   2.5850   2.5943   2.6147   2.6591
  2.6908   2.7239   2.7262   2.7360   2.7476   2.7941   2.8182   2.8471
  2.8646   2.8884   2.9208   2.9552   2.9881   3.0142   3.0227   3.0601
  3.0859   3.0951   3.1298   3.1419   3.1704   3.1948   3.2101   3.2318
  3.2510   3.2667   3.2859   3.2988   3.3192   3.3480   3.3667   3.3747
  3.3884   3.4195   3.4310   3.4472   3.4607   3.4720   3.4886   3.5061
  3.5141   3.5268   3.5458   3.5825   3.5940   3.6130   3.6383   3.6498
  3.6933   3.6978   3.7243   3.7263   3.7745   3.8106   3.8366   3.8456
  3.8619   3.8675   3.8914   3.9272   3.9517   3.9579   3.9715   3.9897
  3.9941   4.0318   4.0787   4.1054   4.1229   4.1602   4.1742   4.1908
  4.2041   4.2379   4.2629   4.2853   4.3114   4.3349   4.3889   4.4096
  4.4321   4.4546   4.4732   4.4898   4.5235   4.5422   4.6159   4.6568
  4.6753   4.6891   4.7105   4.7248   4.8006   4.8083   4.8349   4.8991
  4.9658   5.0093   5.0237   5.0278   5.0994   5.1425   5.1750   5.1973
  5.2376   5.2883   5.3542   5.4099   5.4397   5.4892   5.5327   5.5878
  5.6346   5.7236   5.7613   5.8155   5.8930   5.9349   5.9948   6.0582
  6.0989   6.3152   6.4219   6.4581   6.6567   9.3499  11.3117  12.7618
 14.0288  14.0945
 --------------------------------------------------------------
 
          Ground-State Mulliken Net Atomic Charges

     Atom                 Charge (a.u.)
  ----------------------------------------
      1 C                    -0.002004
      2 S                    -0.001966
      3 C                    -0.225765
      4 C                    -0.209116
      5 C                    -0.191011
      6 H                     0.184360
      7 H                     0.186450
      8 C                    -0.337513
      9 H                     0.109796
     10 H                     0.127443
     11 H                     0.153138
     12 H                     0.206189
  ----------------------------------------
  Sum of atomic charges =     0.000000

 -----------------------------------------------------------------
                    Cartesian Multipole Moments
 -----------------------------------------------------------------
    Charge (ESU x 10^10)
                -0.0000
    Dipole Moment (Debye)
         X       0.3136      Y      -0.0800      Z      -0.5041
       Tot       0.5990
    Quadrupole Moments (Debye-Ang)
        XX     -46.4672     XY       3.2173     YY     -37.2239
        XZ       0.4468     YZ      -0.3715     ZZ     -42.2464
    Octopole Moments (Debye-Ang^2)
       XXX     -26.1962    XXY     -17.7801    XYY       0.2906
       YYY     -38.9119    XXZ      -7.2072    XYZ       0.7516
       YYZ      -1.0975    XZZ      -5.2471    YZZ      -7.4231
       ZZZ     -29.0301
    Hexadecapole Moments (Debye-Ang^3)
      XXXX    -106.5527   XXXY     -63.1104   XXYY     -99.8149
      XYYY     -38.6423   YYYY    -478.5704   XXXZ      -2.4507
      XXYZ      -3.7103   XYYZ       3.8289   YYYZ     -13.0685
      XXZZ     -72.2616   XYZZ     -11.5514   YYZZ    -125.6893
      XZZZ      -1.9937   YZZZ     -13.2090   ZZZZ    -303.1811
 -----------------------------------------------------------------
 Total job time:  10.87s(wall), 575.53s(cpu) 
 Sun Sep 24 15:07:19 2023

        *************************************************************
        *                                                           *
        *  Thank you very much for using Q-Chem.  Have a nice day.  *
        *                                                           *
        *************************************************************


0 sent ACK to 0 
now end server 0 ... 
cleanup process ... done
remove work dirs ./qchem114240.0 -- ./qchem114240.0
rm -rf ./qchem114240.0
rm -rf ./qchem114240
