You are running Q-Chem version: 5.4.0

#
# job setting
#
local host:  exp-4-23
current dir: /expanse/lustre/projects/csd626/rramji/aromodel/PNDIT/Hydrogenated_Impropers_Test
input file:  Dimethyl_Naphthalene_Dicarboximide_Phi_60_Theta_200_Thiophene_Hydrogenated_Improper.qcin
output file: 
nprocs     : 1
nthreads   : 64
#
# qchem installation setting
#
QC:          /cm/shared/apps/spack/cpu/opt/spack/linux-centos8-zen2/gcc-10.2.0/qchem-5.4-akfmr7b3t57bfs6qan3padb2wnb2i7cl
QCAUX:       /cm/shared/apps/spack/cpu/opt/spack/linux-centos8-zen2/gcc-10.2.0/qchem-5.4-akfmr7b3t57bfs6qan3padb2wnb2i7cl/qcaux
QCPROG:      /cm/shared/apps/spack/cpu/opt/spack/linux-centos8-zen2/gcc-10.2.0/qchem-5.4-akfmr7b3t57bfs6qan3padb2wnb2i7cl/exe/qcprog.exe
QCPROG_S:    /cm/shared/apps/spack/cpu/opt/spack/linux-centos8-zen2/gcc-10.2.0/qchem-5.4-akfmr7b3t57bfs6qan3padb2wnb2i7cl/exe/qcprog.exe_s
PARALLEL:    -DPARALLEL
QCMPI:       mpich
#
# qchem directory setting
#
qcrun:       qchem3820174
QCSCRATCH:   .
QCLOCALSCR:  
QCTMPDIR:    .
QCFILEPREF:  ./qchem3820174
QCSAVEDIR:   
workdirs:    ./qchem3820174
workdir0:    ./qchem3820174
partmpdirs =  
#
# parallel setting
#
QCRSH:           ssh
QCMPI:           mpich
QCMPIRUN:        /cm/shared/apps/spack/cpu/opt/spack/linux-centos8-zen2/gcc-10.2.0/qchem-5.4-akfmr7b3t57bfs6qan3padb2wnb2i7cl/bin/mpi/mpirun_qchem
QCMACHINEFILE:   ./qchem3820174/hostfile
exp-4-23

#
# env setting
#
exported envs:   QC QCAUX QCSCRATCH QCRUNNAME QCFILEPREF QCPROG QCPROG_S GUIFILE

Running Job 1 of 1 Dimethyl_Naphthalene_Dicarboximide_Phi_60_Theta_200_Thiophene_Hydrogenated_Improper.qcin
qchem Dimethyl_Naphthalene_Dicarboximide_Phi_60_Theta_200_Thiophene_Hydrogenated_Improper.qcin_3820174.0 ./qchem3820174/ 1
/cm/shared/apps/spack/cpu/opt/spack/linux-centos8-zen2/gcc-10.2.0/qchem-5.4-akfmr7b3t57bfs6qan3padb2wnb2i7cl/bin/mpi/mpirun_qchem -machinefile ./qchem3820174/hostfile -np 1 /cm/shared/apps/spack/cpu/opt/spack/linux-centos8-zen2/gcc-10.2.0/qchem-5.4-akfmr7b3t57bfs6qan3padb2wnb2i7cl/exe/qcprog.exe Dimethyl_Naphthalene_Dicarboximide_Phi_60_Theta_200_Thiophene_Hydrogenated_Improper.qcin_3820174.0 ./qchem3820174/

Process 0 of 1 is on exp-4-23 - thread support 0
initial socket setup ...start
initial socket setup ...done 
now start server 0 ... 
                  Welcome to Q-Chem
     A Quantum Leap Into The Future Of Chemistry


 Q-Chem 5.4, Q-Chem, Inc., Pleasanton, CA (2021)

 License issued to: University of California, San Diego (site)

 E. Epifanovsky,  A. T. B. Gilbert,  Xintian Feng,  Joonho Lee,  Yuezhi Mao,  
 N. Mardirossian,  P. Pokhilko,  A. White,  M. Wormit,  M. P. Coons,  
 A. L. Dempwolff,  Zhengting Gan,  D. Hait,  P. R. Horn,  L. D. Jacobson,  
 I. Kaliman,  J. Kussmann,  A. W. Lange,  Ka Un Lao,  D. S. Levine,  Jie Liu,  
 S. C. McKenzie,  A. F. Morrison,  K. Nanda,  F. Plasser,  D. R. Rehn,  
 M. L. Vidal,  Zhi-Qiang You,  Ying Zhu,  B. Alam,  B. Albrecht,  
 A. Aldossary,  E. Alguire,  J. H. Andersen,  D. Barton,  K. Begam,  A. Behn,  
 Y. A. Bernard,  E. J. Berquist,  H. Burton,  A. Carreras,  K. Carter-Fenk,  
 R. Chakraborty,  A. D. Chien,  K. D. Closser,  V. Cofer-Shabica,  
 S. Dasgupta,  Jia Deng,  M. de Wergifosse,  M. Diedenhofen,  Hainam Do,  
 S. Ehlert,  Po-Tung Fang,  S. Fatehi,  Qingguo Feng,  J. Gayvert,  
 Qinghui Ge,  G. Gidofalvi,  M. Goldey,  J. Gomes,  C. Gonzalez-Espinoza,  
 S. Gulania,  A. Gunina,  M. W. D. Hanson-Heine,  P. H. P. Harbach,  
 A. W. Hauser,  M. F. Herbst,  M. Hernandez Vera,  M. Hodecker,  
 Z. C. Holden,  S. Houck,  Xunkun Huang,  Kerwin Hui,  B. C. Huynh,  
 M. Ivanov,  Hyunjun Ji,  Hanjie Jiang,  B. Kaduk,  S. Kaehler,  
 K. Khistyaev,  Jaehoon Kim,  P. Klunzinger,  Z. Koczor-Benda,  
 Joong Hoon Koh,  D. Kosenkov,  L. Koulias,  T. Kowalczyk,  C. M. Krauter,  
 K. Kue,  A. Kunitsa,  T. Kus,  A. Landau,  K. V. Lawler,  D. Lefrancois,  
 S. Lehtola,  Rain Li,  Yi-Pei Li,  Jiashu Liang,  M. Liebenthal,  
 Hung-Hsuan Lin,  You-Sheng Lin,  Fenglai Liu,  Kuan-Yu Liu,  
 M. Loipersberger,  A. Luenser,  A. Manjanath,  P. Manohar,  E. Mansoor,  
 S. F. Manzer,  Shan-Ping Mao,  A. V. Marenich,  T. Markovich,  S. Mason,  
 S. A. Maurer,  P. F. McLaughlin,  M. F. S. J. Menger,  J.-M. Mewes,  
 S. A. Mewes,  P. Morgante,  J. W. Mullinax,  T. S. Nguyen-Beck,  
 K. J. Oosterbaan,  G. Paran,  Alexander C. Paul,  Suranjan K. Paul,  
 F. Pavosevic,  Zheng Pei,  S. Prager,  E. I. Proynov,  E. Ramos,  B. Rana,  
 A. E. Rask,  A. Rettig,  R. M. Richard,  F. Rob,  E. Rossomme,  T. Scheele,  
 M. Scheurer,  M. Schneider,  N. Sergueev,  S. M. Sharada,  W. Skomorowski,  
 D. W. Small,  C. J. Stein,  Yu-Chuan Su,  E. J. Sundstrom,  Zhen Tao,  
 J. Thirman,  T. Tsuchimochi,  N. M. Tubman,  S. P. Veccham,  O. Vydrov,  
 J. Wenzel,  J. Witte,  A. Yamada,  Kun Yao,  S. Yeganeh,  S. R. Yost,  
 A. Zech,  Igor Ying Zhang,  Xing Zhang,  Yu Zhang,  D. Zuev,  
 A. Aspuru-Guzik,  A. T. Bell,  N. A. Besley,  K. B. Bravaya,  B. R. Brooks,  
 D. Casanova,  Jeng-Da Chai,  S. Coriani,  C. J. Cramer,  
 A. E. DePrince, III,  R. A. DiStasio Jr.,  A. Dreuw,  B. D. Dunietz,  
 T. R. Furlani,  W. A. Goddard III,  S. Grimme,  S. Hammes-Schiffer,  
 T. Head-Gordon,  W. J. Hehre,  Chao-Ping Hsu,  T.-C. Jagau,  Yousung Jung,  
 A. Klamt,  Jing Kong,  D. S. Lambrecht,  WanZhen Liang,  N. J. Mayhall,  
 C. W. McCurdy,  J. B. Neaton,  C. Ochsenfeld,  J. A. Parkhill,  R. Peverati,  
 V. A. Rassolov,  Yihan Shao,  L. V. Slipchenko,  T. Stauch,  R. P. Steele,  
 J. E. Subotnik,  A. J. W. Thom,  A. Tkatchenko,  D. G. Truhlar,  
 T. Van Voorhis,  T. A. Wesolowski,  K. B. Whaley,  H. L. Woodcock III,  
 P. M. Zimmerman,  S. Faraji,  P. M. W. Gill,  M. Head-Gordon,  
 J. M. Herbert,  A. I. Krylov

 Contributors to earlier versions of Q-Chem not listed above: 
 R. D. Adamson,  B. Austin,  R. Baer,  J. Baker,  G. J. O. Beran,  
 K. Brandhorst,  S. T. Brown,  E. F. C. Byrd,  A. K. Chakraborty,  
 G. K. L. Chan,  Chun-Min Chang,  Yunqing Chen,  C.-L. Cheng,  
 Siu Hung Chien,  D. M. Chipman,  D. L. Crittenden,  H. Dachsel,  
 R. J. Doerksen,  A. D. Dutoi,  R. G. Edgar,  J. Fosso-Tande,  
 L. Fusti-Molnar,  D. Ghosh,  A. Ghysels,  A. Golubeva-Zadorozhnaya,  
 J. Gonthier,  M. S. Gordon,  S. R. Gwaltney,  G. Hawkins,  J. E. Herr,  
 A. Heyden,  S. Hirata,  E. G. Hohenstein,  G. Kedziora,  F. J. Keil,  
 C. Kelley,  Jihan Kim,  R. A. King,  R. Z. Khaliullin,  P. P. Korambath,  
 W. Kurlancheek,  A. Laurent,  A. M. Lee,  M. S. Lee,  S. V. Levchenko,  
 Ching Yeh Lin,  D. Liotard,  E. Livshits,  R. C. Lochan,  I. Lotan,  
 L. A. Martinez-Martinez,  P. E. Maslen,  N. Nair,  D. P. O'Neill,  
 D. Neuhauser,  E. Neuscamman,  C. M. Oana,  R. Olivares-Amaya,  R. Olson,  
 T. M. Perrine,  B. Peters,  P. A. Pieniazek,  A. Prociuk,  Y. M. Rhee,  
 J. Ritchie,  M. A. Rohrdanz,  E. Rosta,  N. J. Russ,  H. F. Schaefer III,  
 M. W. Schmidt,  N. E. Schultz,  S. Sharma,  N. Shenvi,  C. D. Sherrill,  
 A. C. Simmonett,  A. Sodt,  T. Stein,  D. Stuck,  K. S. Thanthiriwatte,  
 V. Vanovschi,  L. Vogt,  Tao Wang,  A. Warshel,  M. A. Watson,  
 C. F. Williams,  Q. Wu,  X. Xu,  Jun Yang,  W. Zhang,  Yan Zhao

 Please cite Q-Chem as follows:
 Y. Shao et al., Mol. Phys. 113, 184-215 (2015)
 DOI: 10.1080/00268976.2014.952696

 Q-Chem 5.4.0 for Intel X86 EM64T Linux

 Parts of Q-Chem use Armadillo 9.800.1 (Horizon Scraper).
 http://arma.sourceforge.net/

 Q-Chem begins on Sun Sep 24 15:12:29 2023  

 Host: 
0

     Scratch files written to ./qchem3820174//
 May1621 |scratch|qcdevops|jenkins|workspace|build_RNUM    
 Parallel job on  1  processors
 Processing $rem in /cm/shared/apps/spack/cpu/opt/spack/linux-centos8-zen2/gcc-10.2.0/qchem-5.4-akfmr7b3t57bfs6qan3padb2wnb2i7cl/config/preferences:
 Processing $rem in /home/rramji/.qchemrc:
 Symmetry turned off for PCM/SM12/SMD calculation
 Core orbitals will be frozen

 Checking the input file for inconsistencies... 	...done.

 Q-Chem warning in module forms1/BasisType.C, line 2236:

 You are not using the predefined 5D/6D in this basis set.


--------------------------------------------------------------
User input:
--------------------------------------------------------------
$molecule
0 1
C	-0.444062	-0.140188	-0.211737
S	0.242738	0.256612	1.368763
C	1.661038	1.075412	0.693163
C	0.420138	0.358912	-1.197137
C	1.563438	1.019112	-0.705237
H	0.216038	0.241112	-2.271637
H	2.326338	1.459712	-1.364337
C	-0.444062	-1.618388	-0.211737
H	-1.458762	-1.618988	-0.581637
H	-0.106562	-2.057688	-1.138837
H	-0.721962	-2.329388	0.552263
H	2.423638	1.515912	1.344263
$end

$rem
JOBTYPE		SP
EXCHANGE	HF
CORRELATION	pRIMP2
BASIS		cc-pvtz
METHOD		rimp2
AUX_BASIS	rimp2-cc-pvtz
SOLVENT_METHOD	PCM
PURECART	11111
SYMMETRY	false
MEM_TOTAL	110000
SCF_CONVERGENCE = 6
THRESH=10
GUI = 2
$end



$solvent
dielectric 4.90
$end
--------------------------------------------------------------
 ----------------------------------------------------------------
             Standard Nuclear Orientation (Angstroms)
    I     Atom           X                Y                Z
 ----------------------------------------------------------------
    1      C      -0.4440620000    -0.1401880000    -0.2117370000
    2      S       0.2427380000     0.2566120000     1.3687630000
    3      C       1.6610380000     1.0754120000     0.6931630000
    4      C       0.4201380000     0.3589120000    -1.1971370000
    5      C       1.5634380000     1.0191120000    -0.7052370000
    6      H       0.2160380000     0.2411120000    -2.2716370000
    7      H       2.3263380000     1.4597120000    -1.3643370000
    8      C      -0.4440620000    -1.6183880000    -0.2117370000
    9      H      -1.4587620000    -1.6189880000    -0.5816370000
   10      H      -0.1065620000    -2.0576880000    -1.1388370000
   11      H      -0.7219620000    -2.3293880000     0.5522630000
   12      H       2.4236380000     1.5159120000     1.3442630000
 ----------------------------------------------------------------
 Nuclear Repulsion Energy =         275.14428159 hartrees
 There are       26 alpha and       26 beta electrons
 Requested basis set is cc-pVTZ
 There are 98 shells and 268 basis functions

 Total QAlloc Memory Limit 110000 MB
 Mega-Array Size       188 MB
 MEM_STATIC part       192 MB
 Discretize the solute cavity surface with Lebedev spheres
	Using 110 Lebedev grid points for each H atom
	Using 194 Lebedev grid points for other atoms
	Atomic van der Waals radii will be scaled by 1.20
 Remove points where switching function is < 1.0e-08
 Keep 869 surface tesserae and discard 955 interior tesserae
 Molecular Surface Area = 135.481 Angst**2

                       Distance Matrix (Angstroms)
             C (  1)   S (  2)   C (  3)   C (  4)   C (  5)   H (  6)
   S (  2)  1.768368
   C (  3)  2.593834  1.771565
   C (  4)  1.402482  2.574059  2.372012
   C (  5)  2.370142  2.574321  1.402932  1.408888
   H (  6)  2.196431  3.640531  3.402076  1.100038  2.207800
   H (  7)  3.400483  3.641246  2.196273  2.207559  1.100253  2.600297
   C (  8)  1.478200  2.546625  3.536502  2.372250  3.351120  2.852483
   H (  9)  1.831199  3.196410  4.314865  2.796640  4.013545  3.020104
   H ( 10)  2.156438  3.430168  4.036948  2.474018  3.527550  2.582980
   H ( 11)  2.335278  2.878318  4.158269  3.404666  4.244621  3.932140
   H ( 12)  3.658894  2.518484  1.095231  3.436768  2.277544  4.424177
             H (  7)   C (  8)   H (  9)   H ( 10)   H ( 11)
   C (  8)  4.298640
   H (  9)  4.941457  1.080020
   H ( 10)  4.282751  1.080002  1.526884
   H ( 11)  5.227118  1.080021  1.527505  1.819988
   H ( 12)  2.710930  4.524232  5.348805  5.033718  5.030745
 
 Requested basis set is rimp2-cc-pVTZ
 There are 207 shells and 707 basis functions
 A cutoff of  1.0D-10 yielded   4459 shell pairs
 There are     33571 function pairs (     43412 Cartesian)
 Smallest overlap matrix eigenvalue = 1.83E-04

 Scale SEOQF with 1.000000e-01/1.000000e-01/1.000000e-01

 Standard Electronic Orientation quadrupole field applied
 Nucleus-field energy     =    -0.0000000008 hartrees
 Guess from superposition of atomic densities
 Warning:  Energy on first SCF cycle will be non-variational
 SAD guess density has 52.000000 electrons

 -----------------------------------------------------------------------
  General SCF calculation program by
  Eric Jon Sundstrom, Paul Horn, Yuezhi Mao, Dmitri Zuev, Alec White,
  David Stuck, Shaama M.S., Shane Yost, Joonho Lee, David Small,
  Daniel Levine, Susi Lehtola, Hugh Burton, Evgeny Epifanovsky,
  Bang C. Huynh
 -----------------------------------------------------------------------
 Hartree-Fock
 using 64 threads for integral computing
 -------------------------------------------------------
 OpenMP Integral computing Module                
 Release: version 1.0, May 2013, Q-Chem Inc. Pittsburgh 
 -------------------------------------------------------
 A restricted SCF calculation will be
 performed using DIIS
 SCF converges when DIIS error is below 1.0e-06
 ---------------------------------------
  Cycle       Energy         DIIS error
 ---------------------------------------
    1    -592.6591127142      3.26e-02  
    2    -590.2219927886      2.13e-03  
    3    -590.2820799844      7.58e-04  
    4    -590.2888932918      3.83e-04  
    5    -590.2907968155      7.92e-05  
    6    -590.2909775224      4.41e-05  
    7    -590.2910419802      1.95e-05  
    8    -590.2910692439      1.10e-05  
    9    -590.2910752463      4.01e-06  
   10    -590.2910760640      1.89e-06  
   11    -590.2910762529      7.84e-07  Convergence criterion met
 ---------------------------------------
 SCF time:   CPU 580.43s  wall 11.00s 

************** Final PCM Free Energy Summary **************
 G_electrostatic  =      -0.00614491 hartree =      -3.85598648 kcal/mol
 G_cavitation     =       0.00000000 hartree =       0.00000000 kcal/mol
 G_dispersion     =       0.00000000 hartree =       0.00000000 kcal/mol
 G_repulsion      =       0.00000000 hartree =       0.00000000 kcal/mol
 --------------------------------------------------
 Non-electrostatic Free Energy =       0.00000000 hartree =       0.00000000 kcal/mol
 Total                         =      -0.00614491 hartree =      -3.85598648 kcal/mol
 --------------------------------------------------
 SCF Energy (H0 + V/2)                       =    -590.29107625 
 Solute Internal Energy (H0)                 =    -590.28493135 
 Total Free Energy (H0 + V/2 + non-elec)     =    -590.29107625 hartree
                                             = -370413.24099548 kcal/mol
***********************************************************

 SCF   energy in the final basis set =     -590.2910762529
 Total energy in the final basis set =     -590.2910762529


 --------------------------------------------------------------
  Generalized many-body perturbation theory program
  by Joonho Lee, Fazle Rob, Xintian Feng, Evgeny Epifanovsky

 No regularization used 
 (reg. param. = 0.0000e+00)
  (P|Q)^-1/2 Time:  CPU 6.62 s  wall 0.11 s

 In RI-MP2 calculation: 
 # of frozen core orbitals: 10

 Components of the RIMP2 correlation energy:
        aaaa    correlation energy =        -0.1278977236 a.u.
        abab    correlation energy =        -0.7606639938 a.u.
        bbbb    correlation energy =        -0.1278977236 a.u.
        non-Brillouin singles      =        -0.0000000000 a.u.
        total same-spin energy     =        -0.2557954472 a.u.
        total opposite-spin energy =        -0.7606639938 a.u.

 Total  RIMP2   correlation energy =        -1.0164594409 a.u.
        RIMP2         total energy =      -591.3075356938 a.u.

 RI-MP2 Energy Time:  CPU 28.00 s  wall 0.51 s
 
 --------------------------------------------------------------
 
                    Orbital Energies (a.u.)
 --------------------------------------------------------------
 
 Alpha MOs
 -- Occupied --
-91.9732 -11.2904 -11.2576 -11.2491 -11.2450 -11.2103  -8.9741  -6.6548
 -6.6538  -6.6537  -1.1672  -1.0354  -0.9781  -0.9086  -0.7626  -0.7286
 -0.6700  -0.5916  -0.5687  -0.5562  -0.5432  -0.4998  -0.4602  -0.4235
 -0.3428  -0.2935
 -- Virtual --
  0.0608   0.1549   0.1582   0.1818   0.1848   0.1931   0.2162   0.2196
  0.2317   0.2388   0.2887   0.3251   0.3481   0.3657   0.3931   0.3977
  0.4313   0.4419   0.4552   0.4577   0.4757   0.5144   0.5259   0.5374
  0.5407   0.5511   0.5686   0.5871   0.6003   0.6069   0.6146   0.6165
  0.6232   0.6410   0.6501   0.6699   0.6868   0.7051   0.7335   0.7542
  0.7706   0.7875   0.8235   0.8537   0.8665   0.8857   0.9028   0.9092
  0.9622   1.0187   1.0360   1.0484   1.0763   1.0888   1.1164   1.1273
  1.1414   1.1584   1.1722   1.2042   1.2203   1.2473   1.2633   1.2796
  1.2947   1.3049   1.3319   1.3687   1.3880   1.4047   1.4123   1.4349
  1.4561   1.4602   1.4946   1.5032   1.5129   1.5477   1.5768   1.5847
  1.6131   1.6318   1.6411   1.6691   1.7191   1.7317   1.7661   1.8020
  1.8265   1.8725   1.8976   1.9043   1.9527   1.9746   2.0312   2.1064
  2.1164   2.1667   2.1938   2.2132   2.2193   2.2552   2.3211   2.3650
  2.4228   2.4605   2.4934   2.5284   2.5592   2.6044   2.6324   2.6717
  2.6892   2.6995   2.7195   2.7385   2.7766   2.7820   2.8120   2.8558
  2.8927   2.9033   2.9374   2.9616   2.9911   3.0137   3.0403   3.0827
  3.1096   3.1165   3.1367   3.1450   3.1632   3.1801   3.2165   3.2183
  3.2377   3.2669   3.2771   3.3052   3.3149   3.3359   3.3435   3.3907
  3.4018   3.4215   3.4379   3.4409   3.4621   3.4682   3.4760   3.5046
  3.5181   3.5534   3.5729   3.5882   3.6067   3.6374   3.6457   3.6530
  3.6704   3.7267   3.7390   3.7568   3.7868   3.8103   3.8231   3.8668
  3.8968   3.9118   3.9308   3.9463   3.9556   3.9606   3.9900   3.9949
  4.0269   4.0678   4.0978   4.1054   4.1410   4.1591   4.1814   4.2113
  4.2540   4.2662   4.2850   4.3035   4.3360   4.3723   4.3885   4.4242
  4.4347   4.4488   4.5170   4.5184   4.5533   4.5962   4.6058   4.6509
  4.6849   4.7320   4.7344   4.7587   4.8054   4.8418   4.8557   4.8766
  4.9146   4.9947   5.0175   5.0301   5.0717   5.1234   5.1551   5.1724
  5.2256   5.2905   5.3583   5.4272   5.4445   5.4906   5.5321   5.5876
  5.6337   5.7091   5.7832   5.8263   5.8360   5.9382   5.9518   6.0653
  6.0801   6.3417   6.3839   6.4646   6.5543   9.6691  11.6652  12.6160
 13.8696  14.0315
 --------------------------------------------------------------
 
          Ground-State Mulliken Net Atomic Charges

     Atom                 Charge (a.u.)
  ----------------------------------------
      1 C                    -0.108765
      2 S                     0.013701
      3 C                    -0.159576
      4 C                    -0.103077
      5 C                    -0.234494
      6 H                     0.187306
      7 H                     0.186256
      8 C                    -0.391126
      9 H                     0.122697
     10 H                     0.125734
     11 H                     0.155192
     12 H                     0.206150
  ----------------------------------------
  Sum of atomic charges =     0.000000

 -----------------------------------------------------------------
                    Cartesian Multipole Moments
 -----------------------------------------------------------------
    Charge (ESU x 10^10)
                 0.0000
    Dipole Moment (Debye)
         X       1.7129      Y      -0.1335      Z      -1.3682
       Tot       2.1963
    Quadrupole Moments (Debye-Ang)
        XX     -41.2476     XY       5.4937     YY     -43.8624
        XZ       0.5603     YZ       0.4981     ZZ     -40.6994
    Octopole Moments (Debye-Ang^2)
       XXX     -45.9994    XXY       4.2405    XYY     -17.1213
       YYY     -19.7979    XXZ      -2.0419    XYZ       3.4038
       YYZ      -5.0550    XZZ     -13.2691    YZZ      -2.8832
       ZZZ     -30.2219
    Hexadecapole Moments (Debye-Ang^3)
      XXXX    -276.7869   XXXY     -68.8947   XXYY     -87.1998
      XYYY     -86.4381   YYYY    -294.1831   XXXZ      -1.5655
      XXYZ      -1.6349   XYYZ      -2.2378   YYYZ     -17.0876
      XXZZ     -89.4023   XYZZ     -19.0664   YYZZ     -97.0117
      XZZZ      -6.0106   YZZZ     -15.2419   ZZZZ    -304.2877
 -----------------------------------------------------------------
 Total job time:  13.00s(wall), 639.95s(cpu) 
 Sun Sep 24 15:12:42 2023

        *************************************************************
        *                                                           *
        *  Thank you very much for using Q-Chem.  Have a nice day.  *
        *                                                           *
        *************************************************************


0 sent ACK to 0 
now end server 0 ... 
cleanup process ... done
remove work dirs ./qchem3820174.0 -- ./qchem3820174.0
rm -rf ./qchem3820174.0
rm -rf ./qchem3820174
