You are running Q-Chem version: 5.4.0

#
# job setting
#
local host:  exp-3-09
current dir: /expanse/lustre/projects/csd626/rramji/aromodel/PNDIT/Hydrogenated_Impropers_Test
input file:  Dimethyl_Naphthalene_Dicarboximide_Phi_25_Theta_90_Thiophene_Hydrogenated_Improper.qcin
output file: 
nprocs     : 1
nthreads   : 64
#
# qchem installation setting
#
QC:          /cm/shared/apps/spack/cpu/opt/spack/linux-centos8-zen2/gcc-10.2.0/qchem-5.4-akfmr7b3t57bfs6qan3padb2wnb2i7cl
QCAUX:       /cm/shared/apps/spack/cpu/opt/spack/linux-centos8-zen2/gcc-10.2.0/qchem-5.4-akfmr7b3t57bfs6qan3padb2wnb2i7cl/qcaux
QCPROG:      /cm/shared/apps/spack/cpu/opt/spack/linux-centos8-zen2/gcc-10.2.0/qchem-5.4-akfmr7b3t57bfs6qan3padb2wnb2i7cl/exe/qcprog.exe
QCPROG_S:    /cm/shared/apps/spack/cpu/opt/spack/linux-centos8-zen2/gcc-10.2.0/qchem-5.4-akfmr7b3t57bfs6qan3padb2wnb2i7cl/exe/qcprog.exe_s
PARALLEL:    -DPARALLEL
QCMPI:       mpich
#
# qchem directory setting
#
qcrun:       qchem3333468
QCSCRATCH:   .
QCLOCALSCR:  
QCTMPDIR:    .
QCFILEPREF:  ./qchem3333468
QCSAVEDIR:   
workdirs:    ./qchem3333468
workdir0:    ./qchem3333468
partmpdirs =  
#
# parallel setting
#
QCRSH:           ssh
QCMPI:           mpich
QCMPIRUN:        /cm/shared/apps/spack/cpu/opt/spack/linux-centos8-zen2/gcc-10.2.0/qchem-5.4-akfmr7b3t57bfs6qan3padb2wnb2i7cl/bin/mpi/mpirun_qchem
QCMACHINEFILE:   ./qchem3333468/hostfile
exp-3-09

#
# env setting
#
exported envs:   QC QCAUX QCSCRATCH QCRUNNAME QCFILEPREF QCPROG QCPROG_S GUIFILE

Running Job 1 of 1 Dimethyl_Naphthalene_Dicarboximide_Phi_25_Theta_90_Thiophene_Hydrogenated_Improper.qcin
qchem Dimethyl_Naphthalene_Dicarboximide_Phi_25_Theta_90_Thiophene_Hydrogenated_Improper.qcin_3333468.0 ./qchem3333468/ 1
/cm/shared/apps/spack/cpu/opt/spack/linux-centos8-zen2/gcc-10.2.0/qchem-5.4-akfmr7b3t57bfs6qan3padb2wnb2i7cl/bin/mpi/mpirun_qchem -machinefile ./qchem3333468/hostfile -np 1 /cm/shared/apps/spack/cpu/opt/spack/linux-centos8-zen2/gcc-10.2.0/qchem-5.4-akfmr7b3t57bfs6qan3padb2wnb2i7cl/exe/qcprog.exe Dimethyl_Naphthalene_Dicarboximide_Phi_25_Theta_90_Thiophene_Hydrogenated_Improper.qcin_3333468.0 ./qchem3333468/

Process 0 of 1 is on exp-3-09 - thread support 0
initial socket setup ...start
initial socket setup ...done 
now start server 0 ... 
                  Welcome to Q-Chem
     A Quantum Leap Into The Future Of Chemistry


 Q-Chem 5.4, Q-Chem, Inc., Pleasanton, CA (2021)

 License issued to: University of California, San Diego (site)

 E. Epifanovsky,  A. T. B. Gilbert,  Xintian Feng,  Joonho Lee,  Yuezhi Mao,  
 N. Mardirossian,  P. Pokhilko,  A. White,  M. Wormit,  M. P. Coons,  
 A. L. Dempwolff,  Zhengting Gan,  D. Hait,  P. R. Horn,  L. D. Jacobson,  
 I. Kaliman,  J. Kussmann,  A. W. Lange,  Ka Un Lao,  D. S. Levine,  Jie Liu,  
 S. C. McKenzie,  A. F. Morrison,  K. Nanda,  F. Plasser,  D. R. Rehn,  
 M. L. Vidal,  Zhi-Qiang You,  Ying Zhu,  B. Alam,  B. Albrecht,  
 A. Aldossary,  E. Alguire,  J. H. Andersen,  D. Barton,  K. Begam,  A. Behn,  
 Y. A. Bernard,  E. J. Berquist,  H. Burton,  A. Carreras,  K. Carter-Fenk,  
 R. Chakraborty,  A. D. Chien,  K. D. Closser,  V. Cofer-Shabica,  
 S. Dasgupta,  Jia Deng,  M. de Wergifosse,  M. Diedenhofen,  Hainam Do,  
 S. Ehlert,  Po-Tung Fang,  S. Fatehi,  Qingguo Feng,  J. Gayvert,  
 Qinghui Ge,  G. Gidofalvi,  M. Goldey,  J. Gomes,  C. Gonzalez-Espinoza,  
 S. Gulania,  A. Gunina,  M. W. D. Hanson-Heine,  P. H. P. Harbach,  
 A. W. Hauser,  M. F. Herbst,  M. Hernandez Vera,  M. Hodecker,  
 Z. C. Holden,  S. Houck,  Xunkun Huang,  Kerwin Hui,  B. C. Huynh,  
 M. Ivanov,  Hyunjun Ji,  Hanjie Jiang,  B. Kaduk,  S. Kaehler,  
 K. Khistyaev,  Jaehoon Kim,  P. Klunzinger,  Z. Koczor-Benda,  
 Joong Hoon Koh,  D. Kosenkov,  L. Koulias,  T. Kowalczyk,  C. M. Krauter,  
 K. Kue,  A. Kunitsa,  T. Kus,  A. Landau,  K. V. Lawler,  D. Lefrancois,  
 S. Lehtola,  Rain Li,  Yi-Pei Li,  Jiashu Liang,  M. Liebenthal,  
 Hung-Hsuan Lin,  You-Sheng Lin,  Fenglai Liu,  Kuan-Yu Liu,  
 M. Loipersberger,  A. Luenser,  A. Manjanath,  P. Manohar,  E. Mansoor,  
 S. F. Manzer,  Shan-Ping Mao,  A. V. Marenich,  T. Markovich,  S. Mason,  
 S. A. Maurer,  P. F. McLaughlin,  M. F. S. J. Menger,  J.-M. Mewes,  
 S. A. Mewes,  P. Morgante,  J. W. Mullinax,  T. S. Nguyen-Beck,  
 K. J. Oosterbaan,  G. Paran,  Alexander C. Paul,  Suranjan K. Paul,  
 F. Pavosevic,  Zheng Pei,  S. Prager,  E. I. Proynov,  E. Ramos,  B. Rana,  
 A. E. Rask,  A. Rettig,  R. M. Richard,  F. Rob,  E. Rossomme,  T. Scheele,  
 M. Scheurer,  M. Schneider,  N. Sergueev,  S. M. Sharada,  W. Skomorowski,  
 D. W. Small,  C. J. Stein,  Yu-Chuan Su,  E. J. Sundstrom,  Zhen Tao,  
 J. Thirman,  T. Tsuchimochi,  N. M. Tubman,  S. P. Veccham,  O. Vydrov,  
 J. Wenzel,  J. Witte,  A. Yamada,  Kun Yao,  S. Yeganeh,  S. R. Yost,  
 A. Zech,  Igor Ying Zhang,  Xing Zhang,  Yu Zhang,  D. Zuev,  
 A. Aspuru-Guzik,  A. T. Bell,  N. A. Besley,  K. B. Bravaya,  B. R. Brooks,  
 D. Casanova,  Jeng-Da Chai,  S. Coriani,  C. J. Cramer,  
 A. E. DePrince, III,  R. A. DiStasio Jr.,  A. Dreuw,  B. D. Dunietz,  
 T. R. Furlani,  W. A. Goddard III,  S. Grimme,  S. Hammes-Schiffer,  
 T. Head-Gordon,  W. J. Hehre,  Chao-Ping Hsu,  T.-C. Jagau,  Yousung Jung,  
 A. Klamt,  Jing Kong,  D. S. Lambrecht,  WanZhen Liang,  N. J. Mayhall,  
 C. W. McCurdy,  J. B. Neaton,  C. Ochsenfeld,  J. A. Parkhill,  R. Peverati,  
 V. A. Rassolov,  Yihan Shao,  L. V. Slipchenko,  T. Stauch,  R. P. Steele,  
 J. E. Subotnik,  A. J. W. Thom,  A. Tkatchenko,  D. G. Truhlar,  
 T. Van Voorhis,  T. A. Wesolowski,  K. B. Whaley,  H. L. Woodcock III,  
 P. M. Zimmerman,  S. Faraji,  P. M. W. Gill,  M. Head-Gordon,  
 J. M. Herbert,  A. I. Krylov

 Contributors to earlier versions of Q-Chem not listed above: 
 R. D. Adamson,  B. Austin,  R. Baer,  J. Baker,  G. J. O. Beran,  
 K. Brandhorst,  S. T. Brown,  E. F. C. Byrd,  A. K. Chakraborty,  
 G. K. L. Chan,  Chun-Min Chang,  Yunqing Chen,  C.-L. Cheng,  
 Siu Hung Chien,  D. M. Chipman,  D. L. Crittenden,  H. Dachsel,  
 R. J. Doerksen,  A. D. Dutoi,  R. G. Edgar,  J. Fosso-Tande,  
 L. Fusti-Molnar,  D. Ghosh,  A. Ghysels,  A. Golubeva-Zadorozhnaya,  
 J. Gonthier,  M. S. Gordon,  S. R. Gwaltney,  G. Hawkins,  J. E. Herr,  
 A. Heyden,  S. Hirata,  E. G. Hohenstein,  G. Kedziora,  F. J. Keil,  
 C. Kelley,  Jihan Kim,  R. A. King,  R. Z. Khaliullin,  P. P. Korambath,  
 W. Kurlancheek,  A. Laurent,  A. M. Lee,  M. S. Lee,  S. V. Levchenko,  
 Ching Yeh Lin,  D. Liotard,  E. Livshits,  R. C. Lochan,  I. Lotan,  
 L. A. Martinez-Martinez,  P. E. Maslen,  N. Nair,  D. P. O'Neill,  
 D. Neuhauser,  E. Neuscamman,  C. M. Oana,  R. Olivares-Amaya,  R. Olson,  
 T. M. Perrine,  B. Peters,  P. A. Pieniazek,  A. Prociuk,  Y. M. Rhee,  
 J. Ritchie,  M. A. Rohrdanz,  E. Rosta,  N. J. Russ,  H. F. Schaefer III,  
 M. W. Schmidt,  N. E. Schultz,  S. Sharma,  N. Shenvi,  C. D. Sherrill,  
 A. C. Simmonett,  A. Sodt,  T. Stein,  D. Stuck,  K. S. Thanthiriwatte,  
 V. Vanovschi,  L. Vogt,  Tao Wang,  A. Warshel,  M. A. Watson,  
 C. F. Williams,  Q. Wu,  X. Xu,  Jun Yang,  W. Zhang,  Yan Zhao

 Please cite Q-Chem as follows:
 Y. Shao et al., Mol. Phys. 113, 184-215 (2015)
 DOI: 10.1080/00268976.2014.952696

 Q-Chem 5.4.0 for Intel X86 EM64T Linux

 Parts of Q-Chem use Armadillo 9.800.1 (Horizon Scraper).
 http://arma.sourceforge.net/

 Q-Chem begins on Sun Sep 24 15:59:45 2023  

 Host: 
0

     Scratch files written to ./qchem3333468//
 May1621 |scratch|qcdevops|jenkins|workspace|build_RNUM    
 Parallel job on  1  processors
 Processing $rem in /cm/shared/apps/spack/cpu/opt/spack/linux-centos8-zen2/gcc-10.2.0/qchem-5.4-akfmr7b3t57bfs6qan3padb2wnb2i7cl/config/preferences:
 Processing $rem in /home/rramji/.qchemrc:
 Symmetry turned off for PCM/SM12/SMD calculation
 Core orbitals will be frozen

 Checking the input file for inconsistencies... 	...done.

 Q-Chem warning in module forms1/BasisType.C, line 2236:

 You are not using the predefined 5D/6D in this basis set.


--------------------------------------------------------------
User input:
--------------------------------------------------------------
$molecule
0 1
C	-0.218143	-0.350804	-0.220018
S	0.116857	0.368096	1.360482
C	0.808957	1.852396	0.684882
C	0.203457	0.553796	-1.205418
C	0.761357	1.750296	-0.713518
H	0.103857	0.340196	-2.279918
H	1.133557	2.548796	-1.372618
C	-0.218143	-1.829004	-0.220018
H	-0.218643	-1.829604	0.859982
H	-1.204743	-2.268304	-0.220018
H	0.594857	-2.540004	-0.220118
H	1.181057	2.650596	1.335982
$end

$rem
JOBTYPE		SP
EXCHANGE	HF
CORRELATION	pRIMP2
BASIS		cc-pvtz
METHOD		rimp2
AUX_BASIS	rimp2-cc-pvtz
SOLVENT_METHOD	PCM
PURECART	11111
SYMMETRY	false
MEM_TOTAL	110000
SCF_CONVERGENCE = 6
THRESH=10
GUI = 2
$end



$solvent
dielectric 4.90
$end
--------------------------------------------------------------
 ----------------------------------------------------------------
             Standard Nuclear Orientation (Angstroms)
    I     Atom           X                Y                Z
 ----------------------------------------------------------------
    1      C      -0.2181430000    -0.3508040000    -0.2200180000
    2      S       0.1168570000     0.3680960000     1.3604820000
    3      C       0.8089570000     1.8523960000     0.6848820000
    4      C       0.2034570000     0.5537960000    -1.2054180000
    5      C       0.7613570000     1.7502960000    -0.7135180000
    6      H       0.1038570000     0.3401960000    -2.2799180000
    7      H       1.1335570000     2.5487960000    -1.3726180000
    8      C      -0.2181430000    -1.8290040000    -0.2200180000
    9      H      -0.2186430000    -1.8296040000     0.8599820000
   10      H      -1.2047430000    -2.2683040000    -0.2200180000
   11      H       0.5948570000    -2.5400040000    -0.2201180000
   12      H       1.1810570000     2.6505960000     1.3359820000
 ----------------------------------------------------------------
 Nuclear Repulsion Energy =         271.66605853 hartrees
 There are       26 alpha and       26 beta electrons
 Requested basis set is cc-pVTZ
 There are 98 shells and 268 basis functions

 Total QAlloc Memory Limit 110000 MB
 Mega-Array Size       188 MB
 MEM_STATIC part       192 MB
 Discretize the solute cavity surface with Lebedev spheres
	Using 110 Lebedev grid points for each H atom
	Using 194 Lebedev grid points for other atoms
	Atomic van der Waals radii will be scaled by 1.20
 Remove points where switching function is < 1.0e-08
 Keep 871 surface tesserae and discard 953 interior tesserae
 Molecular Surface Area = 137.175 Angst**2

                       Distance Matrix (Angstroms)
             C (  1)   S (  2)   C (  3)   C (  4)   C (  5)   H (  6)
   S (  2)  1.768339
   C (  3)  2.593814  1.771605
   C (  4)  1.402519  2.574068  2.371967
   C (  5)  2.370144  2.574361  1.402930  1.408840
   H (  6)  2.196441  3.640530  3.402051  1.100043  2.207781
   H (  7)  3.400479  3.641286  2.196280  2.207502  1.100249  2.600267
   C (  8)  1.478200  2.727170  3.927656  2.612756  3.743575  3.008704
   H (  9)  1.831188  2.278804  3.826715  3.181924  4.031375  3.830275
   H ( 10)  2.156429  3.345925  4.674826  3.304283  4.500915  3.572099
   H ( 11)  2.335287  3.344223  4.489771  3.270414  4.321787  3.574830
   H ( 12)  3.658866  2.518517  1.095223  3.436712  2.277529  4.424143
             H (  7)   C (  8)   H (  9)   H ( 10)   H ( 11)
   C (  8)  4.724480
   H (  9)  5.097385  1.080000
   H ( 10)  5.477279  1.079983  1.526843
   H ( 11)  5.245411  1.080042  1.527438  1.819995
   H ( 12)  2.710929  4.944261  4.717831  5.684079  5.450450
 
 Requested basis set is rimp2-cc-pVTZ
 There are 207 shells and 707 basis functions
 A cutoff of  1.0D-10 yielded   4390 shell pairs
 There are     32964 function pairs (     42632 Cartesian)
 Smallest overlap matrix eigenvalue = 1.53E-04

 Scale SEOQF with 1.000000e+00/1.000000e-01/1.000000e-01

 Standard Electronic Orientation quadrupole field applied
 Nucleus-field energy     =     0.0000000054 hartrees
 Guess from superposition of atomic densities
 Warning:  Energy on first SCF cycle will be non-variational
 SAD guess density has 52.000000 electrons

 -----------------------------------------------------------------------
  General SCF calculation program by
  Eric Jon Sundstrom, Paul Horn, Yuezhi Mao, Dmitri Zuev, Alec White,
  David Stuck, Shaama M.S., Shane Yost, Joonho Lee, David Small,
  Daniel Levine, Susi Lehtola, Hugh Burton, Evgeny Epifanovsky,
  Bang C. Huynh
 -----------------------------------------------------------------------
 Hartree-Fock
 using 64 threads for integral computing
 -------------------------------------------------------
 OpenMP Integral computing Module                
 Release: version 1.0, May 2013, Q-Chem Inc. Pittsburgh 
 -------------------------------------------------------
 A restricted SCF calculation will be
 performed using DIIS
 SCF converges when DIIS error is below 1.0e-06
 ---------------------------------------
  Cycle       Energy         DIIS error
 ---------------------------------------
    1    -592.6086622132      3.23e-02  
    2    -590.2861809939      2.17e-03  
    3    -590.3472382981      7.94e-04  
    4    -590.3542052793      3.73e-04  
    5    -590.3560384636      7.17e-05  
    6    -590.3561718787      3.02e-05  
    7    -590.3562063326      1.50e-05  
    8    -590.3562164639      5.80e-06  
    9    -590.3562180804      2.40e-06  
   10    -590.3562182667      6.71e-07  Convergence criterion met
 ---------------------------------------
 SCF time:   CPU 486.45s  wall 9.00s 

************** Final PCM Free Energy Summary **************
 G_electrostatic  =      -0.00510225 hartree =      -3.20170954 kcal/mol
 G_cavitation     =       0.00000000 hartree =       0.00000000 kcal/mol
 G_dispersion     =       0.00000000 hartree =       0.00000000 kcal/mol
 G_repulsion      =       0.00000000 hartree =       0.00000000 kcal/mol
 --------------------------------------------------
 Non-electrostatic Free Energy =       0.00000000 hartree =       0.00000000 kcal/mol
 Total                         =      -0.00510225 hartree =      -3.20170954 kcal/mol
 --------------------------------------------------
 SCF Energy (H0 + V/2)                       =    -590.35621827 
 Solute Internal Energy (H0)                 =    -590.35111602 
 Total Free Energy (H0 + V/2 + non-elec)     =    -590.35621827 hartree
                                             = -370454.11822609 kcal/mol
***********************************************************

 SCF   energy in the final basis set =     -590.3562182667
 Total energy in the final basis set =     -590.3562182667


 --------------------------------------------------------------
  Generalized many-body perturbation theory program
  by Joonho Lee, Fazle Rob, Xintian Feng, Evgeny Epifanovsky

 No regularization used 
 (reg. param. = 0.0000e+00)
  (P|Q)^-1/2 Time:  CPU 5.89 s  wall 0.10 s

 In RI-MP2 calculation: 
 # of frozen core orbitals: 10

 Components of the RIMP2 correlation energy:
        aaaa    correlation energy =        -0.1258761371 a.u.
        abab    correlation energy =        -0.7532734669 a.u.
        bbbb    correlation energy =        -0.1258761371 a.u.
        non-Brillouin singles      =        -0.0000000000 a.u.
        total same-spin energy     =        -0.2517522742 a.u.
        total opposite-spin energy =        -0.7532734669 a.u.

 Total  RIMP2   correlation energy =        -1.0050257410 a.u.
        RIMP2         total energy =      -591.3612440077 a.u.

 RI-MP2 Energy Time:  CPU 24.11 s  wall 0.43 s
 
 --------------------------------------------------------------
 
                    Orbital Energies (a.u.)
 --------------------------------------------------------------
 
 Alpha MOs
 -- Occupied --
-91.9797 -11.2760 -11.2739 -11.2432 -11.2401 -11.2204  -8.9798  -6.6606
 -6.6600  -6.6594  -1.1596  -1.0387  -0.9744  -0.9160  -0.7605  -0.7210
 -0.6717  -0.5946  -0.5699  -0.5626  -0.5383  -0.4923  -0.4622  -0.4468
 -0.3454  -0.3126
 -- Virtual --
  0.0919   0.1477   0.1610   0.1747   0.1928   0.1961   0.2068   0.2244
  0.2345   0.2829   0.3014   0.3092   0.3655   0.3722   0.3936   0.4026
  0.4328   0.4516   0.4574   0.4702   0.4848   0.5091   0.5281   0.5325
  0.5403   0.5610   0.5670   0.5754   0.6054   0.6109   0.6137   0.6288
  0.6297   0.6459   0.6495   0.6578   0.6780   0.7090   0.7372   0.7551
  0.7810   0.7892   0.8211   0.8543   0.8729   0.8806   0.8937   0.9292
  0.9513   0.9816   0.9914   1.0296   1.0656   1.0706   1.1212   1.1251
  1.1389   1.1528   1.1686   1.1974   1.2318   1.2371   1.2448   1.2484
  1.2906   1.3141   1.3381   1.3540   1.3719   1.4000   1.4302   1.4344
  1.4686   1.4846   1.4964   1.5247   1.5441   1.5532   1.5692   1.5864
  1.5972   1.6309   1.6462   1.6666   1.7142   1.7193   1.7638   1.8244
  1.8347   1.8960   1.9092   1.9400   1.9451   1.9794   2.0381   2.1048
  2.1393   2.1757   2.1905   2.2200   2.2449   2.2759   2.3395   2.4213
  2.4349   2.4664   2.4881   2.5135   2.5920   2.5929   2.5990   2.6608
  2.6950   2.7184   2.7257   2.7302   2.7473   2.7704   2.8059   2.8367
  2.8714   2.8941   2.9122   2.9631   2.9879   3.0150   3.0249   3.0593
  3.0707   3.1229   3.1414   3.1449   3.1598   3.1951   3.2052   3.2321
  3.2620   3.2771   3.2806   3.3078   3.3216   3.3464   3.3642   3.3758
  3.3929   3.4308   3.4394   3.4471   3.4536   3.4679   3.4962   3.5006
  3.5106   3.5383   3.5523   3.5837   3.5862   3.6189   3.6516   3.6591
  3.6896   3.7008   3.7312   3.7556   3.7724   3.8032   3.8048   3.8650
  3.8749   3.8836   3.8927   3.9255   3.9519   3.9565   3.9750   3.9787
  4.0079   4.0217   4.0599   4.1012   4.1261   4.1539   4.1752   4.2034
  4.2143   4.2378   4.2604   4.2891   4.3160   4.3449   4.3805   4.4200
  4.4282   4.4432   4.4713   4.4900   4.5297   4.5487   4.6209   4.6600
  4.6720   4.6773   4.6936   4.7383   4.7957   4.8036   4.8511   4.8812
  4.9378   5.0047   5.0218   5.0264   5.0884   5.1416   5.1749   5.2138
  5.2361   5.2869   5.3623   5.4066   5.4549   5.4936   5.5353   5.6082
  5.6315   5.6882   5.7655   5.7826   5.8813   5.9410   5.9872   6.0575
  6.1027   6.3103   6.4182   6.4469   6.6608   9.3824  11.3451  12.7235
 13.9887  14.1033
 --------------------------------------------------------------
 
          Ground-State Mulliken Net Atomic Charges

     Atom                 Charge (a.u.)
  ----------------------------------------
      1 C                    -0.003590
      2 S                    -0.003096
      3 C                    -0.223583
      4 C                    -0.208651
      5 C                    -0.188619
      6 H                     0.184409
      7 H                     0.186351
      8 C                    -0.340469
      9 H                     0.111683
     10 H                     0.122740
     11 H                     0.156086
     12 H                     0.206738
  ----------------------------------------
  Sum of atomic charges =     0.000000

 -----------------------------------------------------------------
                    Cartesian Multipole Moments
 -----------------------------------------------------------------
    Charge (ESU x 10^10)
                -0.0000
    Dipole Moment (Debye)
         X       0.6988      Y      -0.0193      Z      -0.4603
       Tot       0.8370
    Quadrupole Moments (Debye-Ang)
        XX     -45.9208     XY       3.2763     YY     -37.9235
        XZ       0.1841     YZ      -0.4086     ZZ     -42.2421
    Octopole Moments (Debye-Ang^2)
       XXX     -31.8669    XXY     -15.3121    XYY       0.5206
       YYY     -38.0011    XXZ      -6.7152    XYZ       2.0608
       YYZ      -1.4840    XZZ      -6.4139    YZZ      -6.5845
       ZZZ     -29.1597
    Hexadecapole Moments (Debye-Ang^3)
      XXXX    -125.7296   XXXY     -71.7592   XXYY     -94.1030
      XYYY     -49.7917   YYYY    -466.5482   XXXZ      -2.9319
      XXYZ      -3.4736   XYYZ       1.7704   YYYZ     -11.9973
      XXZZ     -74.1554   XYZZ     -13.9425   YYZZ    -124.2226
      XZZZ      -1.4336   YZZZ     -13.0718   ZZZZ    -301.8341
 -----------------------------------------------------------------
 Total job time:  10.87s(wall), 548.26s(cpu) 
 Sun Sep 24 15:59:56 2023

        *************************************************************
        *                                                           *
        *  Thank you very much for using Q-Chem.  Have a nice day.  *
        *                                                           *
        *************************************************************


0 sent ACK to 0 
now end server 0 ... 
cleanup process ... done
remove work dirs ./qchem3333468.0 -- ./qchem3333468.0
rm -rf ./qchem3333468.0
rm -rf ./qchem3333468
