You are running Q-Chem version: 5.4.0

#
# job setting
#
local host:  exp-4-53
current dir: /expanse/lustre/projects/csd626/rramji/aromodel/PNDIT/Hydrogenated_Impropers_Test
input file:  Dimethyl_Naphthalene_Dicarboximide_Phi_30_Theta_100_Thiophene_Hydrogenated_Improper.qcin
output file: 
nprocs     : 1
nthreads   : 64
#
# qchem installation setting
#
QC:          /cm/shared/apps/spack/cpu/opt/spack/linux-centos8-zen2/gcc-10.2.0/qchem-5.4-akfmr7b3t57bfs6qan3padb2wnb2i7cl
QCAUX:       /cm/shared/apps/spack/cpu/opt/spack/linux-centos8-zen2/gcc-10.2.0/qchem-5.4-akfmr7b3t57bfs6qan3padb2wnb2i7cl/qcaux
QCPROG:      /cm/shared/apps/spack/cpu/opt/spack/linux-centos8-zen2/gcc-10.2.0/qchem-5.4-akfmr7b3t57bfs6qan3padb2wnb2i7cl/exe/qcprog.exe
QCPROG_S:    /cm/shared/apps/spack/cpu/opt/spack/linux-centos8-zen2/gcc-10.2.0/qchem-5.4-akfmr7b3t57bfs6qan3padb2wnb2i7cl/exe/qcprog.exe_s
PARALLEL:    -DPARALLEL
QCMPI:       mpich
#
# qchem directory setting
#
qcrun:       qchem1070271
QCSCRATCH:   .
QCLOCALSCR:  
QCTMPDIR:    .
QCFILEPREF:  ./qchem1070271
QCSAVEDIR:   
workdirs:    ./qchem1070271
workdir0:    ./qchem1070271
partmpdirs =  
#
# parallel setting
#
QCRSH:           ssh
QCMPI:           mpich
QCMPIRUN:        /cm/shared/apps/spack/cpu/opt/spack/linux-centos8-zen2/gcc-10.2.0/qchem-5.4-akfmr7b3t57bfs6qan3padb2wnb2i7cl/bin/mpi/mpirun_qchem
QCMACHINEFILE:   ./qchem1070271/hostfile
exp-4-53

#
# env setting
#
exported envs:   QC QCAUX QCSCRATCH QCRUNNAME QCFILEPREF QCPROG QCPROG_S GUIFILE

Running Job 1 of 1 Dimethyl_Naphthalene_Dicarboximide_Phi_30_Theta_100_Thiophene_Hydrogenated_Improper.qcin
qchem Dimethyl_Naphthalene_Dicarboximide_Phi_30_Theta_100_Thiophene_Hydrogenated_Improper.qcin_1070271.0 ./qchem1070271/ 1
/cm/shared/apps/spack/cpu/opt/spack/linux-centos8-zen2/gcc-10.2.0/qchem-5.4-akfmr7b3t57bfs6qan3padb2wnb2i7cl/bin/mpi/mpirun_qchem -machinefile ./qchem1070271/hostfile -np 1 /cm/shared/apps/spack/cpu/opt/spack/linux-centos8-zen2/gcc-10.2.0/qchem-5.4-akfmr7b3t57bfs6qan3padb2wnb2i7cl/exe/qcprog.exe Dimethyl_Naphthalene_Dicarboximide_Phi_30_Theta_100_Thiophene_Hydrogenated_Improper.qcin_1070271.0 ./qchem1070271/

Process 0 of 1 is on exp-4-53 - thread support 0
initial socket setup ...start
initial socket setup ...done 
now start server 0 ... 
                  Welcome to Q-Chem
     A Quantum Leap Into The Future Of Chemistry


 Q-Chem 5.4, Q-Chem, Inc., Pleasanton, CA (2021)

 License issued to: University of California, San Diego (site)

 E. Epifanovsky,  A. T. B. Gilbert,  Xintian Feng,  Joonho Lee,  Yuezhi Mao,  
 N. Mardirossian,  P. Pokhilko,  A. White,  M. Wormit,  M. P. Coons,  
 A. L. Dempwolff,  Zhengting Gan,  D. Hait,  P. R. Horn,  L. D. Jacobson,  
 I. Kaliman,  J. Kussmann,  A. W. Lange,  Ka Un Lao,  D. S. Levine,  Jie Liu,  
 S. C. McKenzie,  A. F. Morrison,  K. Nanda,  F. Plasser,  D. R. Rehn,  
 M. L. Vidal,  Zhi-Qiang You,  Ying Zhu,  B. Alam,  B. Albrecht,  
 A. Aldossary,  E. Alguire,  J. H. Andersen,  D. Barton,  K. Begam,  A. Behn,  
 Y. A. Bernard,  E. J. Berquist,  H. Burton,  A. Carreras,  K. Carter-Fenk,  
 R. Chakraborty,  A. D. Chien,  K. D. Closser,  V. Cofer-Shabica,  
 S. Dasgupta,  Jia Deng,  M. de Wergifosse,  M. Diedenhofen,  Hainam Do,  
 S. Ehlert,  Po-Tung Fang,  S. Fatehi,  Qingguo Feng,  J. Gayvert,  
 Qinghui Ge,  G. Gidofalvi,  M. Goldey,  J. Gomes,  C. Gonzalez-Espinoza,  
 S. Gulania,  A. Gunina,  M. W. D. Hanson-Heine,  P. H. P. Harbach,  
 A. W. Hauser,  M. F. Herbst,  M. Hernandez Vera,  M. Hodecker,  
 Z. C. Holden,  S. Houck,  Xunkun Huang,  Kerwin Hui,  B. C. Huynh,  
 M. Ivanov,  Hyunjun Ji,  Hanjie Jiang,  B. Kaduk,  S. Kaehler,  
 K. Khistyaev,  Jaehoon Kim,  P. Klunzinger,  Z. Koczor-Benda,  
 Joong Hoon Koh,  D. Kosenkov,  L. Koulias,  T. Kowalczyk,  C. M. Krauter,  
 K. Kue,  A. Kunitsa,  T. Kus,  A. Landau,  K. V. Lawler,  D. Lefrancois,  
 S. Lehtola,  Rain Li,  Yi-Pei Li,  Jiashu Liang,  M. Liebenthal,  
 Hung-Hsuan Lin,  You-Sheng Lin,  Fenglai Liu,  Kuan-Yu Liu,  
 M. Loipersberger,  A. Luenser,  A. Manjanath,  P. Manohar,  E. Mansoor,  
 S. F. Manzer,  Shan-Ping Mao,  A. V. Marenich,  T. Markovich,  S. Mason,  
 S. A. Maurer,  P. F. McLaughlin,  M. F. S. J. Menger,  J.-M. Mewes,  
 S. A. Mewes,  P. Morgante,  J. W. Mullinax,  T. S. Nguyen-Beck,  
 K. J. Oosterbaan,  G. Paran,  Alexander C. Paul,  Suranjan K. Paul,  
 F. Pavosevic,  Zheng Pei,  S. Prager,  E. I. Proynov,  E. Ramos,  B. Rana,  
 A. E. Rask,  A. Rettig,  R. M. Richard,  F. Rob,  E. Rossomme,  T. Scheele,  
 M. Scheurer,  M. Schneider,  N. Sergueev,  S. M. Sharada,  W. Skomorowski,  
 D. W. Small,  C. J. Stein,  Yu-Chuan Su,  E. J. Sundstrom,  Zhen Tao,  
 J. Thirman,  T. Tsuchimochi,  N. M. Tubman,  S. P. Veccham,  O. Vydrov,  
 J. Wenzel,  J. Witte,  A. Yamada,  Kun Yao,  S. Yeganeh,  S. R. Yost,  
 A. Zech,  Igor Ying Zhang,  Xing Zhang,  Yu Zhang,  D. Zuev,  
 A. Aspuru-Guzik,  A. T. Bell,  N. A. Besley,  K. B. Bravaya,  B. R. Brooks,  
 D. Casanova,  Jeng-Da Chai,  S. Coriani,  C. J. Cramer,  
 A. E. DePrince, III,  R. A. DiStasio Jr.,  A. Dreuw,  B. D. Dunietz,  
 T. R. Furlani,  W. A. Goddard III,  S. Grimme,  S. Hammes-Schiffer,  
 T. Head-Gordon,  W. J. Hehre,  Chao-Ping Hsu,  T.-C. Jagau,  Yousung Jung,  
 A. Klamt,  Jing Kong,  D. S. Lambrecht,  WanZhen Liang,  N. J. Mayhall,  
 C. W. McCurdy,  J. B. Neaton,  C. Ochsenfeld,  J. A. Parkhill,  R. Peverati,  
 V. A. Rassolov,  Yihan Shao,  L. V. Slipchenko,  T. Stauch,  R. P. Steele,  
 J. E. Subotnik,  A. J. W. Thom,  A. Tkatchenko,  D. G. Truhlar,  
 T. Van Voorhis,  T. A. Wesolowski,  K. B. Whaley,  H. L. Woodcock III,  
 P. M. Zimmerman,  S. Faraji,  P. M. W. Gill,  M. Head-Gordon,  
 J. M. Herbert,  A. I. Krylov

 Contributors to earlier versions of Q-Chem not listed above: 
 R. D. Adamson,  B. Austin,  R. Baer,  J. Baker,  G. J. O. Beran,  
 K. Brandhorst,  S. T. Brown,  E. F. C. Byrd,  A. K. Chakraborty,  
 G. K. L. Chan,  Chun-Min Chang,  Yunqing Chen,  C.-L. Cheng,  
 Siu Hung Chien,  D. M. Chipman,  D. L. Crittenden,  H. Dachsel,  
 R. J. Doerksen,  A. D. Dutoi,  R. G. Edgar,  J. Fosso-Tande,  
 L. Fusti-Molnar,  D. Ghosh,  A. Ghysels,  A. Golubeva-Zadorozhnaya,  
 J. Gonthier,  M. S. Gordon,  S. R. Gwaltney,  G. Hawkins,  J. E. Herr,  
 A. Heyden,  S. Hirata,  E. G. Hohenstein,  G. Kedziora,  F. J. Keil,  
 C. Kelley,  Jihan Kim,  R. A. King,  R. Z. Khaliullin,  P. P. Korambath,  
 W. Kurlancheek,  A. Laurent,  A. M. Lee,  M. S. Lee,  S. V. Levchenko,  
 Ching Yeh Lin,  D. Liotard,  E. Livshits,  R. C. Lochan,  I. Lotan,  
 L. A. Martinez-Martinez,  P. E. Maslen,  N. Nair,  D. P. O'Neill,  
 D. Neuhauser,  E. Neuscamman,  C. M. Oana,  R. Olivares-Amaya,  R. Olson,  
 T. M. Perrine,  B. Peters,  P. A. Pieniazek,  A. Prociuk,  Y. M. Rhee,  
 J. Ritchie,  M. A. Rohrdanz,  E. Rosta,  N. J. Russ,  H. F. Schaefer III,  
 M. W. Schmidt,  N. E. Schultz,  S. Sharma,  N. Shenvi,  C. D. Sherrill,  
 A. C. Simmonett,  A. Sodt,  T. Stein,  D. Stuck,  K. S. Thanthiriwatte,  
 V. Vanovschi,  L. Vogt,  Tao Wang,  A. Warshel,  M. A. Watson,  
 C. F. Williams,  Q. Wu,  X. Xu,  Jun Yang,  W. Zhang,  Yan Zhao

 Please cite Q-Chem as follows:
 Y. Shao et al., Mol. Phys. 113, 184-215 (2015)
 DOI: 10.1080/00268976.2014.952696

 Q-Chem 5.4.0 for Intel X86 EM64T Linux

 Parts of Q-Chem use Armadillo 9.800.1 (Horizon Scraper).
 http://arma.sourceforge.net/

 Q-Chem begins on Sun Sep 24 15:07:11 2023  

 Host: 
0

     Scratch files written to ./qchem1070271//
 May1621 |scratch|qcdevops|jenkins|workspace|build_RNUM    
 Parallel job on  1  processors
 Processing $rem in /cm/shared/apps/spack/cpu/opt/spack/linux-centos8-zen2/gcc-10.2.0/qchem-5.4-akfmr7b3t57bfs6qan3padb2wnb2i7cl/config/preferences:
 Processing $rem in /home/rramji/.qchemrc:
 Symmetry turned off for PCM/SM12/SMD calculation
 Core orbitals will be frozen

 Checking the input file for inconsistencies... 	...done.

 Q-Chem warning in module forms1/BasisType.C, line 2236:

 You are not using the predefined 5D/6D in this basis set.


--------------------------------------------------------------
User input:
--------------------------------------------------------------
$molecule
0 1
C	-0.257317	-0.329934	-0.219778
S	0.139083	0.357066	1.360722
C	0.957883	1.775366	0.685122
C	0.241483	0.534466	-1.205178
C	0.901583	1.677866	-0.713278
H	0.123683	0.330366	-2.279678
H	1.341983	2.440766	-1.372378
C	-0.257317	-1.808134	-0.219778
H	-0.445417	-1.808734	0.843722
H	-1.228917	-2.247434	-0.391178
H	0.543383	-2.519134	-0.078778
H	1.398183	2.538166	1.336222
$end

$rem
JOBTYPE		SP
EXCHANGE	HF
CORRELATION	pRIMP2
BASIS		cc-pvtz
METHOD		rimp2
AUX_BASIS	rimp2-cc-pvtz
SOLVENT_METHOD	PCM
PURECART	11111
SYMMETRY	false
MEM_TOTAL	110000
SCF_CONVERGENCE = 6
THRESH=10
GUI = 2
$end



$solvent
dielectric 4.90
$end
--------------------------------------------------------------
 ----------------------------------------------------------------
             Standard Nuclear Orientation (Angstroms)
    I     Atom           X                Y                Z
 ----------------------------------------------------------------
    1      C      -0.2573170000    -0.3299340000    -0.2197780000
    2      S       0.1390830000     0.3570660000     1.3607220000
    3      C       0.9578830000     1.7753660000     0.6851220000
    4      C       0.2414830000     0.5344660000    -1.2051780000
    5      C       0.9015830000     1.6778660000    -0.7132780000
    6      H       0.1236830000     0.3303660000    -2.2796780000
    7      H       1.3419830000     2.4407660000    -1.3723780000
    8      C      -0.2573170000    -1.8081340000    -0.2197780000
    9      H      -0.4454170000    -1.8087340000     0.8437220000
   10      H      -1.2289170000    -2.2474340000    -0.3911780000
   11      H       0.5433830000    -2.5191340000    -0.0787780000
   12      H       1.3981830000     2.5381660000     1.3362220000
 ----------------------------------------------------------------
 Nuclear Repulsion Energy =         271.98543451 hartrees
 There are       26 alpha and       26 beta electrons
 Requested basis set is cc-pVTZ
 There are 98 shells and 268 basis functions

 Total QAlloc Memory Limit 110000 MB
 Mega-Array Size       188 MB
 MEM_STATIC part       192 MB
 Discretize the solute cavity surface with Lebedev spheres
	Using 110 Lebedev grid points for each H atom
	Using 194 Lebedev grid points for other atoms
	Atomic van der Waals radii will be scaled by 1.20
 Remove points where switching function is < 1.0e-08
 Keep 875 surface tesserae and discard 949 interior tesserae
 Molecular Surface Area = 136.910 Angst**2

                       Distance Matrix (Angstroms)
             C (  1)   S (  2)   C (  3)   C (  4)   C (  5)   H (  6)
   S (  2)  1.768356
   C (  3)  2.593809  1.771565
   C (  4)  1.402498  2.574063  2.371981
   C (  5)  2.370201  2.574373  1.402925  1.408922
   H (  6)  2.196439  3.640530  3.402051  1.100038  2.207826
   H (  7)  3.400445  3.641237  2.196269  2.207495  1.100173  2.600238
   C (  8)  1.478200  2.709835  3.890633  2.589901  3.706587  2.993582
   H (  9)  1.831192  2.302090  3.852295  3.187540  4.049079  3.828218
   H ( 10)  2.156430  3.424032  4.703556  3.250175  4.477807  3.470016
   H ( 11)  2.335294  3.241627  4.381562  3.268699  4.259778  3.624881
   H ( 12)  3.658936  2.518557  1.095290  3.436784  2.277538  4.424191
             H (  7)   C (  8)   H (  9)   H ( 10)   H ( 11)
   C (  8)  4.683951
   H (  9)  5.115090  1.080007
   H ( 10)  5.436129  1.079986  1.526862
   H ( 11)  5.187656  1.080057  1.527547  1.820017
   H ( 12)  2.710933  4.904298  4.747310  5.726040  5.320638
 
 Requested basis set is rimp2-cc-pVTZ
 There are 207 shells and 707 basis functions
 A cutoff of  1.0D-10 yielded   4392 shell pairs
 There are     32946 function pairs (     42599 Cartesian)
 Smallest overlap matrix eigenvalue = 1.61E-04

 Scale SEOQF with 1.000000e+00/1.000000e-01/1.000000e-01

 Standard Electronic Orientation quadrupole field applied
 Nucleus-field energy     =     0.0000000067 hartrees
 Guess from superposition of atomic densities
 Warning:  Energy on first SCF cycle will be non-variational
 SAD guess density has 52.000000 electrons

 -----------------------------------------------------------------------
  General SCF calculation program by
  Eric Jon Sundstrom, Paul Horn, Yuezhi Mao, Dmitri Zuev, Alec White,
  David Stuck, Shaama M.S., Shane Yost, Joonho Lee, David Small,
  Daniel Levine, Susi Lehtola, Hugh Burton, Evgeny Epifanovsky,
  Bang C. Huynh
 -----------------------------------------------------------------------
 Hartree-Fock
 using 64 threads for integral computing
 -------------------------------------------------------
 OpenMP Integral computing Module                
 Release: version 1.0, May 2013, Q-Chem Inc. Pittsburgh 
 -------------------------------------------------------
 A restricted SCF calculation will be
 performed using DIIS
 SCF converges when DIIS error is below 1.0e-06
 ---------------------------------------
  Cycle       Energy         DIIS error
 ---------------------------------------
    1    -592.6113345312      3.24e-02  
    2    -590.2813847386      2.17e-03  
    3    -590.3423347855      7.86e-04  
    4    -590.3492523013      3.68e-04  
    5    -590.3510527063      7.14e-05  
    6    -590.3511891583      2.98e-05  
    7    -590.3512251787      1.49e-05  
    8    -590.3512356148      5.51e-06  
    9    -590.3512372110      2.57e-06  
   10    -590.3512373982      7.36e-07  Convergence criterion met
 ---------------------------------------
 SCF time:   CPU 519.86s  wall 10.00s 

************** Final PCM Free Energy Summary **************
 G_electrostatic  =      -0.00505208 hartree =      -3.17023018 kcal/mol
 G_cavitation     =       0.00000000 hartree =       0.00000000 kcal/mol
 G_dispersion     =       0.00000000 hartree =       0.00000000 kcal/mol
 G_repulsion      =       0.00000000 hartree =       0.00000000 kcal/mol
 --------------------------------------------------
 Non-electrostatic Free Energy =       0.00000000 hartree =       0.00000000 kcal/mol
 Total                         =      -0.00505208 hartree =      -3.17023018 kcal/mol
 --------------------------------------------------
 SCF Energy (H0 + V/2)                       =    -590.35123740 
 Solute Internal Energy (H0)                 =    -590.34618531 
 Total Free Energy (H0 + V/2 + non-elec)     =    -590.35123740 hartree
                                             = -370450.99268396 kcal/mol
***********************************************************

 SCF   energy in the final basis set =     -590.3512373982
 Total energy in the final basis set =     -590.3512373982


 --------------------------------------------------------------
  Generalized many-body perturbation theory program
  by Joonho Lee, Fazle Rob, Xintian Feng, Evgeny Epifanovsky

 No regularization used 
 (reg. param. = 0.0000e+00)
  (P|Q)^-1/2 Time:  CPU 6.24 s  wall 0.11 s

 In RI-MP2 calculation: 
 # of frozen core orbitals: 10

 Components of the RIMP2 correlation energy:
        aaaa    correlation energy =        -0.1260733671 a.u.
        abab    correlation energy =        -0.7540535707 a.u.
        bbbb    correlation energy =        -0.1260733671 a.u.
        non-Brillouin singles      =        -0.0000000000 a.u.
        total same-spin energy     =        -0.2521467342 a.u.
        total opposite-spin energy =        -0.7540535707 a.u.

 Total  RIMP2   correlation energy =        -1.0062003049 a.u.
        RIMP2         total energy =      -591.3574377031 a.u.

 RI-MP2 Energy Time:  CPU 26.37 s  wall 0.49 s
 
 --------------------------------------------------------------
 
                    Orbital Energies (a.u.)
 --------------------------------------------------------------
 
 Alpha MOs
 -- Occupied --
-91.9795 -11.2760 -11.2727 -11.2435 -11.2417 -11.2195  -8.9796  -6.6604
 -6.6598  -6.6593  -1.1602  -1.0381  -0.9749  -0.9153  -0.7610  -0.7214
 -0.6715  -0.5942  -0.5697  -0.5623  -0.5406  -0.4871  -0.4622  -0.4466
 -0.3453  -0.3128
 -- Virtual --
  0.0872   0.1478   0.1607   0.1768   0.1916   0.1952   0.2071   0.2243
  0.2333   0.2835   0.2992   0.3098   0.3663   0.3711   0.3878   0.4034
  0.4308   0.4489   0.4553   0.4749   0.4801   0.5108   0.5274   0.5312
  0.5384   0.5572   0.5663   0.5813   0.6039   0.6066   0.6144   0.6211
  0.6286   0.6496   0.6516   0.6625   0.6832   0.7040   0.7356   0.7562
  0.7771   0.7898   0.8209   0.8488   0.8717   0.8875   0.8922   0.9238
  0.9463   0.9867   0.9880   1.0352   1.0666   1.0741   1.1166   1.1322
  1.1340   1.1579   1.1676   1.2077   1.2304   1.2361   1.2452   1.2503
  1.2859   1.3104   1.3279   1.3453   1.3808   1.3936   1.4268   1.4351
  1.4694   1.4854   1.5019   1.5199   1.5416   1.5481   1.5753   1.5932
  1.6024   1.6298   1.6447   1.6661   1.6948   1.7260   1.7624   1.8254
  1.8413   1.8974   1.9065   1.9390   1.9460   1.9781   2.0371   2.0994
  2.1326   2.1772   2.1797   2.2201   2.2439   2.2693   2.3321   2.4235
  2.4306   2.4665   2.4811   2.5165   2.5923   2.5989   2.6107   2.6650
  2.7027   2.7114   2.7278   2.7309   2.7486   2.7781   2.8179   2.8393
  2.8572   2.8952   2.9286   2.9613   2.9851   3.0115   3.0254   3.0521
  3.0775   3.1111   3.1348   3.1432   3.1601   3.1998   3.2054   3.2299
  3.2578   3.2742   3.2781   3.3035   3.3184   3.3436   3.3602   3.3718
  3.3939   3.4324   3.4374   3.4403   3.4570   3.4652   3.4914   3.5086
  3.5125   3.5492   3.5539   3.5763   3.5874   3.6212   3.6438   3.6682
  3.6890   3.6994   3.7341   3.7464   3.7714   3.7975   3.8152   3.8607
  3.8743   3.8837   3.8976   3.9327   3.9532   3.9607   3.9826   3.9928
  4.0118   4.0216   4.0626   4.0899   4.1277   4.1545   4.1792   4.2067
  4.2141   4.2456   4.2637   4.2878   4.3193   4.3485   4.3773   4.4264
  4.4316   4.4459   4.4767   4.4851   4.5323   4.5544   4.6178   4.6642
  4.6743   4.6863   4.7004   4.7329   4.7925   4.8119   4.8368   4.8756
  4.9334   5.0058   5.0193   5.0302   5.0985   5.1412   5.1737   5.2069
  5.2292   5.2848   5.3583   5.4100   5.4511   5.4877   5.5305   5.6073
  5.6373   5.6933   5.7579   5.7805   5.8863   5.9487   5.9844   6.0538
  6.0874   6.3124   6.4126   6.4528   6.6392   9.4024  11.3818  12.7119
 14.0008  14.0306
 --------------------------------------------------------------
 
          Ground-State Mulliken Net Atomic Charges

     Atom                 Charge (a.u.)
  ----------------------------------------
      1 C                    -0.020392
      2 S                    -0.000572
      3 C                    -0.216693
      4 C                    -0.197386
      5 C                    -0.191612
      6 H                     0.184279
      7 H                     0.186570
      8 C                    -0.338258
      9 H                     0.109322
     10 H                     0.121664
     11 H                     0.156317
     12 H                     0.206761
  ----------------------------------------
  Sum of atomic charges =     0.000000

 -----------------------------------------------------------------
                    Cartesian Multipole Moments
 -----------------------------------------------------------------
    Charge (ESU x 10^10)
                 0.0000
    Dipole Moment (Debye)
         X       0.7859      Y       0.0539      Z      -0.4941
       Tot       0.9299
    Quadrupole Moments (Debye-Ang)
        XX     -45.2818     XY       3.9964     YY     -38.6239
        XZ       0.3788     YZ      -0.3984     ZZ     -42.1532
    Octopole Moments (Debye-Ang^2)
       XXX     -36.2885    XXY     -12.3926    XYY      -1.0340
       YYY     -36.8119    XXZ      -6.4486    XYZ       1.9666
       YYZ      -1.5688    XZZ      -7.6065    YZZ      -5.9516
       ZZZ     -29.3256
    Hexadecapole Moments (Debye-Ang^3)
      XXXX    -148.4110   XXXY     -78.7267   XXYY     -89.2175
      XYYY     -59.0490   YYYY    -449.9589   XXXZ      -2.9086
      XXYZ      -2.4533   XYYZ       3.0775   YYYZ     -12.8742
      XXZZ     -75.9212   XYZZ     -15.9606   YYZZ    -121.5306
      XZZZ      -2.2269   YZZZ     -13.0326   ZZZZ    -301.8397
 -----------------------------------------------------------------
 Total job time:  12.42s(wall), 578.71s(cpu) 
 Sun Sep 24 15:07:24 2023

        *************************************************************
        *                                                           *
        *  Thank you very much for using Q-Chem.  Have a nice day.  *
        *                                                           *
        *************************************************************


0 sent ACK to 0 
now end server 0 ... 
cleanup process ... done
remove work dirs ./qchem1070271.0 -- ./qchem1070271.0
rm -rf ./qchem1070271.0
rm -rf ./qchem1070271
