You are running Q-Chem version: 5.4.0

#
# job setting
#
local host:  exp-2-46
current dir: /expanse/lustre/projects/csd626/rramji/aromodel/PNDIT/Hydrogenated_Impropers_Test
input file:  Dimethyl_Naphthalene_Dicarboximide_Phi_40_Theta_220_Thiophene_Hydrogenated_Improper.qcin
output file: 
nprocs     : 1
nthreads   : 64
#
# qchem installation setting
#
QC:          /cm/shared/apps/spack/cpu/opt/spack/linux-centos8-zen2/gcc-10.2.0/qchem-5.4-akfmr7b3t57bfs6qan3padb2wnb2i7cl
QCAUX:       /cm/shared/apps/spack/cpu/opt/spack/linux-centos8-zen2/gcc-10.2.0/qchem-5.4-akfmr7b3t57bfs6qan3padb2wnb2i7cl/qcaux
QCPROG:      /cm/shared/apps/spack/cpu/opt/spack/linux-centos8-zen2/gcc-10.2.0/qchem-5.4-akfmr7b3t57bfs6qan3padb2wnb2i7cl/exe/qcprog.exe
QCPROG_S:    /cm/shared/apps/spack/cpu/opt/spack/linux-centos8-zen2/gcc-10.2.0/qchem-5.4-akfmr7b3t57bfs6qan3padb2wnb2i7cl/exe/qcprog.exe_s
PARALLEL:    -DPARALLEL
QCMPI:       mpich
#
# qchem directory setting
#
qcrun:       qchem1890314
QCSCRATCH:   .
QCLOCALSCR:  
QCTMPDIR:    .
QCFILEPREF:  ./qchem1890314
QCSAVEDIR:   
workdirs:    ./qchem1890314
workdir0:    ./qchem1890314
partmpdirs =  
#
# parallel setting
#
QCRSH:           ssh
QCMPI:           mpich
QCMPIRUN:        /cm/shared/apps/spack/cpu/opt/spack/linux-centos8-zen2/gcc-10.2.0/qchem-5.4-akfmr7b3t57bfs6qan3padb2wnb2i7cl/bin/mpi/mpirun_qchem
QCMACHINEFILE:   ./qchem1890314/hostfile
exp-2-46

#
# env setting
#
exported envs:   QC QCAUX QCSCRATCH QCRUNNAME QCFILEPREF QCPROG QCPROG_S GUIFILE

Running Job 1 of 1 Dimethyl_Naphthalene_Dicarboximide_Phi_40_Theta_220_Thiophene_Hydrogenated_Improper.qcin
qchem Dimethyl_Naphthalene_Dicarboximide_Phi_40_Theta_220_Thiophene_Hydrogenated_Improper.qcin_1890314.0 ./qchem1890314/ 1
/cm/shared/apps/spack/cpu/opt/spack/linux-centos8-zen2/gcc-10.2.0/qchem-5.4-akfmr7b3t57bfs6qan3padb2wnb2i7cl/bin/mpi/mpirun_qchem -machinefile ./qchem1890314/hostfile -np 1 /cm/shared/apps/spack/cpu/opt/spack/linux-centos8-zen2/gcc-10.2.0/qchem-5.4-akfmr7b3t57bfs6qan3padb2wnb2i7cl/exe/qcprog.exe Dimethyl_Naphthalene_Dicarboximide_Phi_40_Theta_220_Thiophene_Hydrogenated_Improper.qcin_1890314.0 ./qchem1890314/

Process 0 of 1 is on exp-2-46 - thread support 0
initial socket setup ...start
initial socket setup ...done 
now start server 0 ... 
                  Welcome to Q-Chem
     A Quantum Leap Into The Future Of Chemistry


 Q-Chem 5.4, Q-Chem, Inc., Pleasanton, CA (2021)

 License issued to: University of California, San Diego (site)

 E. Epifanovsky,  A. T. B. Gilbert,  Xintian Feng,  Joonho Lee,  Yuezhi Mao,  
 N. Mardirossian,  P. Pokhilko,  A. White,  M. Wormit,  M. P. Coons,  
 A. L. Dempwolff,  Zhengting Gan,  D. Hait,  P. R. Horn,  L. D. Jacobson,  
 I. Kaliman,  J. Kussmann,  A. W. Lange,  Ka Un Lao,  D. S. Levine,  Jie Liu,  
 S. C. McKenzie,  A. F. Morrison,  K. Nanda,  F. Plasser,  D. R. Rehn,  
 M. L. Vidal,  Zhi-Qiang You,  Ying Zhu,  B. Alam,  B. Albrecht,  
 A. Aldossary,  E. Alguire,  J. H. Andersen,  D. Barton,  K. Begam,  A. Behn,  
 Y. A. Bernard,  E. J. Berquist,  H. Burton,  A. Carreras,  K. Carter-Fenk,  
 R. Chakraborty,  A. D. Chien,  K. D. Closser,  V. Cofer-Shabica,  
 S. Dasgupta,  Jia Deng,  M. de Wergifosse,  M. Diedenhofen,  Hainam Do,  
 S. Ehlert,  Po-Tung Fang,  S. Fatehi,  Qingguo Feng,  J. Gayvert,  
 Qinghui Ge,  G. Gidofalvi,  M. Goldey,  J. Gomes,  C. Gonzalez-Espinoza,  
 S. Gulania,  A. Gunina,  M. W. D. Hanson-Heine,  P. H. P. Harbach,  
 A. W. Hauser,  M. F. Herbst,  M. Hernandez Vera,  M. Hodecker,  
 Z. C. Holden,  S. Houck,  Xunkun Huang,  Kerwin Hui,  B. C. Huynh,  
 M. Ivanov,  Hyunjun Ji,  Hanjie Jiang,  B. Kaduk,  S. Kaehler,  
 K. Khistyaev,  Jaehoon Kim,  P. Klunzinger,  Z. Koczor-Benda,  
 Joong Hoon Koh,  D. Kosenkov,  L. Koulias,  T. Kowalczyk,  C. M. Krauter,  
 K. Kue,  A. Kunitsa,  T. Kus,  A. Landau,  K. V. Lawler,  D. Lefrancois,  
 S. Lehtola,  Rain Li,  Yi-Pei Li,  Jiashu Liang,  M. Liebenthal,  
 Hung-Hsuan Lin,  You-Sheng Lin,  Fenglai Liu,  Kuan-Yu Liu,  
 M. Loipersberger,  A. Luenser,  A. Manjanath,  P. Manohar,  E. Mansoor,  
 S. F. Manzer,  Shan-Ping Mao,  A. V. Marenich,  T. Markovich,  S. Mason,  
 S. A. Maurer,  P. F. McLaughlin,  M. F. S. J. Menger,  J.-M. Mewes,  
 S. A. Mewes,  P. Morgante,  J. W. Mullinax,  T. S. Nguyen-Beck,  
 K. J. Oosterbaan,  G. Paran,  Alexander C. Paul,  Suranjan K. Paul,  
 F. Pavosevic,  Zheng Pei,  S. Prager,  E. I. Proynov,  E. Ramos,  B. Rana,  
 A. E. Rask,  A. Rettig,  R. M. Richard,  F. Rob,  E. Rossomme,  T. Scheele,  
 M. Scheurer,  M. Schneider,  N. Sergueev,  S. M. Sharada,  W. Skomorowski,  
 D. W. Small,  C. J. Stein,  Yu-Chuan Su,  E. J. Sundstrom,  Zhen Tao,  
 J. Thirman,  T. Tsuchimochi,  N. M. Tubman,  S. P. Veccham,  O. Vydrov,  
 J. Wenzel,  J. Witte,  A. Yamada,  Kun Yao,  S. Yeganeh,  S. R. Yost,  
 A. Zech,  Igor Ying Zhang,  Xing Zhang,  Yu Zhang,  D. Zuev,  
 A. Aspuru-Guzik,  A. T. Bell,  N. A. Besley,  K. B. Bravaya,  B. R. Brooks,  
 D. Casanova,  Jeng-Da Chai,  S. Coriani,  C. J. Cramer,  
 A. E. DePrince, III,  R. A. DiStasio Jr.,  A. Dreuw,  B. D. Dunietz,  
 T. R. Furlani,  W. A. Goddard III,  S. Grimme,  S. Hammes-Schiffer,  
 T. Head-Gordon,  W. J. Hehre,  Chao-Ping Hsu,  T.-C. Jagau,  Yousung Jung,  
 A. Klamt,  Jing Kong,  D. S. Lambrecht,  WanZhen Liang,  N. J. Mayhall,  
 C. W. McCurdy,  J. B. Neaton,  C. Ochsenfeld,  J. A. Parkhill,  R. Peverati,  
 V. A. Rassolov,  Yihan Shao,  L. V. Slipchenko,  T. Stauch,  R. P. Steele,  
 J. E. Subotnik,  A. J. W. Thom,  A. Tkatchenko,  D. G. Truhlar,  
 T. Van Voorhis,  T. A. Wesolowski,  K. B. Whaley,  H. L. Woodcock III,  
 P. M. Zimmerman,  S. Faraji,  P. M. W. Gill,  M. Head-Gordon,  
 J. M. Herbert,  A. I. Krylov

 Contributors to earlier versions of Q-Chem not listed above: 
 R. D. Adamson,  B. Austin,  R. Baer,  J. Baker,  G. J. O. Beran,  
 K. Brandhorst,  S. T. Brown,  E. F. C. Byrd,  A. K. Chakraborty,  
 G. K. L. Chan,  Chun-Min Chang,  Yunqing Chen,  C.-L. Cheng,  
 Siu Hung Chien,  D. M. Chipman,  D. L. Crittenden,  H. Dachsel,  
 R. J. Doerksen,  A. D. Dutoi,  R. G. Edgar,  J. Fosso-Tande,  
 L. Fusti-Molnar,  D. Ghosh,  A. Ghysels,  A. Golubeva-Zadorozhnaya,  
 J. Gonthier,  M. S. Gordon,  S. R. Gwaltney,  G. Hawkins,  J. E. Herr,  
 A. Heyden,  S. Hirata,  E. G. Hohenstein,  G. Kedziora,  F. J. Keil,  
 C. Kelley,  Jihan Kim,  R. A. King,  R. Z. Khaliullin,  P. P. Korambath,  
 W. Kurlancheek,  A. Laurent,  A. M. Lee,  M. S. Lee,  S. V. Levchenko,  
 Ching Yeh Lin,  D. Liotard,  E. Livshits,  R. C. Lochan,  I. Lotan,  
 L. A. Martinez-Martinez,  P. E. Maslen,  N. Nair,  D. P. O'Neill,  
 D. Neuhauser,  E. Neuscamman,  C. M. Oana,  R. Olivares-Amaya,  R. Olson,  
 T. M. Perrine,  B. Peters,  P. A. Pieniazek,  A. Prociuk,  Y. M. Rhee,  
 J. Ritchie,  M. A. Rohrdanz,  E. Rosta,  N. J. Russ,  H. F. Schaefer III,  
 M. W. Schmidt,  N. E. Schultz,  S. Sharma,  N. Shenvi,  C. D. Sherrill,  
 A. C. Simmonett,  A. Sodt,  T. Stein,  D. Stuck,  K. S. Thanthiriwatte,  
 V. Vanovschi,  L. Vogt,  Tao Wang,  A. Warshel,  M. A. Watson,  
 C. F. Williams,  Q. Wu,  X. Xu,  Jun Yang,  W. Zhang,  Yan Zhao

 Please cite Q-Chem as follows:
 Y. Shao et al., Mol. Phys. 113, 184-215 (2015)
 DOI: 10.1080/00268976.2014.952696

 Q-Chem 5.4.0 for Intel X86 EM64T Linux

 Parts of Q-Chem use Armadillo 9.800.1 (Horizon Scraper).
 http://arma.sourceforge.net/

 Q-Chem begins on Sun Sep 24 15:13:01 2023  

 Host: 
0

     Scratch files written to ./qchem1890314//
 May1621 |scratch|qcdevops|jenkins|workspace|build_RNUM    
 Parallel job on  1  processors
 Processing $rem in /cm/shared/apps/spack/cpu/opt/spack/linux-centos8-zen2/gcc-10.2.0/qchem-5.4-akfmr7b3t57bfs6qan3padb2wnb2i7cl/config/preferences:
 Processing $rem in /home/rramji/.qchemrc:
 Symmetry turned off for PCM/SM12/SMD calculation
 Core orbitals will be frozen

 Checking the input file for inconsistencies... 	...done.

 Q-Chem warning in module forms1/BasisType.C, line 2236:

 You are not using the predefined 5D/6D in this basis set.


--------------------------------------------------------------
User input:
--------------------------------------------------------------
$molecule
0 1
C	-0.329538	-0.278098	-0.210225
S	0.180162	0.329602	1.370275
C	1.232862	1.584202	0.694675
C	0.311862	0.486502	-1.195625
C	1.160362	1.497902	-0.703725
H	0.160362	0.306002	-2.270125
H	1.726562	2.172802	-1.362825
C	-0.329538	-1.756298	-0.210225
H	-1.156538	-1.756898	-0.904825
H	0.304662	-2.195598	-0.966025
H	-0.852038	-2.467298	0.412675
H	1.798862	2.258902	1.345775
$end

$rem
JOBTYPE		SP
EXCHANGE	HF
CORRELATION	pRIMP2
BASIS		cc-pvtz
METHOD		rimp2
AUX_BASIS	rimp2-cc-pvtz
SOLVENT_METHOD	PCM
PURECART	11111
SYMMETRY	false
MEM_TOTAL	110000
SCF_CONVERGENCE = 6
THRESH=10
GUI = 2
$end



$solvent
dielectric 4.90
$end
--------------------------------------------------------------
 ----------------------------------------------------------------
             Standard Nuclear Orientation (Angstroms)
    I     Atom           X                Y                Z
 ----------------------------------------------------------------
    1      C      -0.3295380000    -0.2780980000    -0.2102250000
    2      S       0.1801620000     0.3296020000     1.3702750000
    3      C       1.2328620000     1.5842020000     0.6946750000
    4      C       0.3118620000     0.4865020000    -1.1956250000
    5      C       1.1603620000     1.4979020000    -0.7037250000
    6      H       0.1603620000     0.3060020000    -2.2701250000
    7      H       1.7265620000     2.1728020000    -1.3628250000
    8      C      -0.3295380000    -1.7562980000    -0.2102250000
    9      H      -1.1565380000    -1.7568980000    -0.9048250000
   10      H       0.3046620000    -2.1955980000    -0.9660250000
   11      H      -0.8520380000    -2.4672980000     0.4126750000
   12      H       1.7988620000     2.2589020000     1.3457750000
 ----------------------------------------------------------------
 Nuclear Repulsion Energy =         272.08063245 hartrees
 There are       26 alpha and       26 beta electrons
 Requested basis set is cc-pVTZ
 There are 98 shells and 268 basis functions

 Total QAlloc Memory Limit 110000 MB
 Mega-Array Size       188 MB
 MEM_STATIC part       192 MB
 Discretize the solute cavity surface with Lebedev spheres
	Using 110 Lebedev grid points for each H atom
	Using 194 Lebedev grid points for other atoms
	Atomic van der Waals radii will be scaled by 1.20
 Remove points where switching function is < 1.0e-08
 Keep 872 surface tesserae and discard 952 interior tesserae
 Molecular Surface Area = 137.367 Angst**2

                       Distance Matrix (Angstroms)
             C (  1)   S (  2)   C (  3)   C (  4)   C (  5)   H (  6)
   S (  2)  1.768353
   C (  3)  2.593858  1.771619
   C (  4)  1.402505  2.574064  2.372008
   C (  5)  2.370131  2.574333  1.402935  1.408846
   H (  6)  2.196443  3.640530  3.402072  1.100038  2.207767
   H (  7)  3.400433  3.641233  2.196246  2.207474  1.100221  2.600215
   C (  8)  1.478200  2.666225  3.797220  2.532303  3.612916  2.955718
   H (  9)  1.831187  3.363975  4.408013  2.696963  4.000274  2.802468
   H ( 10)  2.156444  3.442446  4.231592  2.691919  3.800390  2.824801
   H ( 11)  2.335296  3.131307  4.565193  3.558964  4.584639  3.989181
   H ( 12)  3.658906  2.518529  1.095220  3.436755  2.277554  4.424165
             H (  7)   C (  8)   H (  9)   H ( 10)   H ( 11)
   C (  8)  4.581906
   H (  9)  4.895362  1.079999
   H ( 10)  4.611092  1.080013  1.526862
   H ( 11)  5.597509  1.080061  1.527480  1.820052
   H ( 12)  2.710932  4.803442  5.470488  5.236375  5.498628
 
 Requested basis set is rimp2-cc-pVTZ
 There are 207 shells and 707 basis functions
 A cutoff of  1.0D-10 yielded   4418 shell pairs
 There are     33226 function pairs (     42981 Cartesian)
 Smallest overlap matrix eigenvalue = 1.62E-04

 Scale SEOQF with 1.000000e-01/1.000000e-01/1.000000e-01

 Standard Electronic Orientation quadrupole field applied
 Nucleus-field energy     =     0.0000000004 hartrees
 Guess from superposition of atomic densities
 Warning:  Energy on first SCF cycle will be non-variational
 SAD guess density has 52.000000 electrons

 -----------------------------------------------------------------------
  General SCF calculation program by
  Eric Jon Sundstrom, Paul Horn, Yuezhi Mao, Dmitri Zuev, Alec White,
  David Stuck, Shaama M.S., Shane Yost, Joonho Lee, David Small,
  Daniel Levine, Susi Lehtola, Hugh Burton, Evgeny Epifanovsky,
  Bang C. Huynh
 -----------------------------------------------------------------------
 Hartree-Fock
 using 64 threads for integral computing
 -------------------------------------------------------
 OpenMP Integral computing Module                
 Release: version 1.0, May 2013, Q-Chem Inc. Pittsburgh 
 -------------------------------------------------------
 A restricted SCF calculation will be
 performed using DIIS
 SCF converges when DIIS error is below 1.0e-06
 ---------------------------------------
  Cycle       Energy         DIIS error
 ---------------------------------------
    1    -592.5997105201      3.23e-02  
    2    -590.2704558702      2.13e-03  
    3    -590.3302916346      7.45e-04  
    4    -590.3367663172      3.55e-04  
    5    -590.3383980309      7.14e-05  
    6    -590.3385260481      2.90e-05  
    7    -590.3385600847      1.56e-05  
    8    -590.3385708444      6.03e-06  
    9    -590.3385729497      2.92e-06  
   10    -590.3385732216      9.36e-07  Convergence criterion met
 ---------------------------------------
 SCF time:   CPU 526.36s  wall 10.00s 

************** Final PCM Free Energy Summary **************
 G_electrostatic  =      -0.00566021 hartree =      -3.55183528 kcal/mol
 G_cavitation     =       0.00000000 hartree =       0.00000000 kcal/mol
 G_dispersion     =       0.00000000 hartree =       0.00000000 kcal/mol
 G_repulsion      =       0.00000000 hartree =       0.00000000 kcal/mol
 --------------------------------------------------
 Non-electrostatic Free Energy =       0.00000000 hartree =       0.00000000 kcal/mol
 Total                         =      -0.00566021 hartree =      -3.55183528 kcal/mol
 --------------------------------------------------
 SCF Energy (H0 + V/2)                       =    -590.33857322 
 Solute Internal Energy (H0)                 =    -590.33291301 
 Total Free Energy (H0 + V/2 + non-elec)     =    -590.33857322 hartree
                                             = -370443.04579317 kcal/mol
***********************************************************

 SCF   energy in the final basis set =     -590.3385732216
 Total energy in the final basis set =     -590.3385732216


 --------------------------------------------------------------
  Generalized many-body perturbation theory program
  by Joonho Lee, Fazle Rob, Xintian Feng, Evgeny Epifanovsky

 No regularization used 
 (reg. param. = 0.0000e+00)
  (P|Q)^-1/2 Time:  CPU 8.57 s  wall 0.14 s

 In RI-MP2 calculation: 
 # of frozen core orbitals: 10

 Components of the RIMP2 correlation energy:
        aaaa    correlation energy =        -0.1266847845 a.u.
        abab    correlation energy =        -0.7561555971 a.u.
        bbbb    correlation energy =        -0.1266847845 a.u.
        non-Brillouin singles      =        -0.0000000000 a.u.
        total same-spin energy     =        -0.2533695691 a.u.
        total opposite-spin energy =        -0.7561555971 a.u.

 Total  RIMP2   correlation energy =        -1.0095251662 a.u.
        RIMP2         total energy =      -591.3480983877 a.u.

 RI-MP2 Energy Time:  CPU 30.20 s  wall 0.55 s
 
 --------------------------------------------------------------
 
                    Orbital Energies (a.u.)
 --------------------------------------------------------------
 
 Alpha MOs
 -- Occupied --
-91.9736 -11.2748 -11.2736 -11.2453 -11.2438 -11.2186  -8.9741  -6.6549
 -6.6541  -6.6538  -1.1603  -1.0365  -0.9738  -0.9152  -0.7568  -0.7246
 -0.6702  -0.5944  -0.5664  -0.5593  -0.5423  -0.5008  -0.4628  -0.4357
 -0.3445  -0.3008
 -- Virtual --
  0.0821   0.1520   0.1596   0.1792   0.1840   0.1917   0.2210   0.2269
  0.2370   0.2414   0.2987   0.3236   0.3546   0.3713   0.3906   0.4041
  0.4239   0.4486   0.4541   0.4691   0.4767   0.5096   0.5290   0.5370
  0.5414   0.5533   0.5636   0.5769   0.5997   0.6066   0.6148   0.6194
  0.6294   0.6476   0.6499   0.6654   0.6855   0.6945   0.7372   0.7466
  0.7708   0.7984   0.8146   0.8552   0.8655   0.8890   0.9118   0.9394
  0.9760   0.9817   1.0286   1.0352   1.0460   1.0798   1.0953   1.1231
  1.1402   1.1440   1.1718   1.2054   1.2246   1.2366   1.2539   1.2680
  1.2928   1.2993   1.3295   1.3595   1.3915   1.4111   1.4256   1.4459
  1.4493   1.4784   1.4861   1.5080   1.5236   1.5404   1.5646   1.5917
  1.6100   1.6256   1.6497   1.6726   1.7108   1.7221   1.7588   1.8061
  1.8541   1.8584   1.9042   1.9089   1.9658   1.9996   2.0384   2.1021
  2.1381   2.1680   2.1758   2.2121   2.2388   2.2564   2.3258   2.3601
  2.4243   2.4608   2.4927   2.5160   2.5635   2.5974   2.6464   2.6661
  2.6857   2.7081   2.7291   2.7466   2.7681   2.7818   2.8035   2.8288
  2.8739   2.9213   2.9416   2.9694   3.0081   3.0140   3.0471   3.0691
  3.0804   3.0947   3.1194   3.1395   3.1712   3.1745   3.2160   3.2329
  3.2534   3.2740   3.2922   3.3004   3.3284   3.3451   3.3605   3.3831
  3.4025   3.4050   3.4201   3.4476   3.4616   3.4651   3.4996   3.5029
  3.5140   3.5528   3.5615   3.5795   3.5822   3.6036   3.6536   3.6644
  3.6798   3.6861   3.7086   3.7400   3.7685   3.7955   3.8212   3.8507
  3.8629   3.8994   3.9209   3.9379   3.9438   3.9553   3.9732   3.9837
  3.9915   4.0190   4.0772   4.1133   4.1548   4.1642   4.1871   4.2027
  4.2253   4.2523   4.2841   4.2987   4.3234   4.3754   4.3913   4.4015
  4.4212   4.4477   4.4915   4.5235   4.5430   4.5898   4.5989   4.6634
  4.6767   4.6868   4.7150   4.7605   4.7929   4.8108   4.8443   4.8811
  4.9151   5.0081   5.0318   5.0446   5.0834   5.1273   5.1324   5.1799
  5.2149   5.2932   5.3543   5.4173   5.4333   5.4841   5.5365   5.5924
  5.6591   5.6620   5.7612   5.8627   5.8718   5.9188   5.9808   6.0762
  6.0902   6.3203   6.3952   6.4619   6.6082   9.5636  11.4370  12.6374
 13.8513  14.2244
 --------------------------------------------------------------
 
          Ground-State Mulliken Net Atomic Charges

     Atom                 Charge (a.u.)
  ----------------------------------------
      1 C                    -0.019644
      2 S                     0.002797
      3 C                    -0.206347
      4 C                    -0.197744
      5 C                    -0.199354
      6 H                     0.181502
      7 H                     0.187098
      8 C                    -0.377429
      9 H                     0.123775
     10 H                     0.140647
     11 H                     0.161809
     12 H                     0.202891
  ----------------------------------------
  Sum of atomic charges =     0.000000

 -----------------------------------------------------------------
                    Cartesian Multipole Moments
 -----------------------------------------------------------------
    Charge (ESU x 10^10)
                 0.0000
    Dipole Moment (Debye)
         X       0.5993      Y      -0.2997      Z      -1.5778
       Tot       1.7142
    Quadrupole Moments (Debye-Ang)
        XX     -44.0692     XY       5.7362     YY     -40.1700
        XZ       0.1786     YZ       1.2256     ZZ     -41.5313
    Octopole Moments (Debye-Ang^2)
       XXX     -42.9357    XXY      -6.3101    XYY      -8.1971
       YYY     -35.5566    XXZ      -4.9250    XYZ       3.3058
       YYZ      -5.1197    XZZ      -9.8065    YZZ      -6.9072
       ZZZ     -28.6141
    Hexadecapole Moments (Debye-Ang^3)
      XXXX    -197.3733   XXXY     -85.2943   XXYY     -83.4160
      XYYY     -68.9939   YYYY    -405.7986   XXXZ      -4.7235
      XXYZ      -4.1097   XYYZ      -1.5086   YYYZ     -14.8155
      XXZZ     -80.4735   XYZZ     -19.3593   YYZZ    -111.5727
      XZZZ      -4.3479   YZZZ     -17.3667   ZZZZ    -308.2937
 -----------------------------------------------------------------
 Total job time:  11.46s(wall), 606.79s(cpu) 
 Sun Sep 24 15:13:12 2023

        *************************************************************
        *                                                           *
        *  Thank you very much for using Q-Chem.  Have a nice day.  *
        *                                                           *
        *************************************************************


0 sent ACK to 0 
now end server 0 ... 
cleanup process ... done
remove work dirs ./qchem1890314.0 -- ./qchem1890314.0
rm -rf ./qchem1890314.0
rm -rf ./qchem1890314
