You are running Q-Chem version: 5.4.0

#
# job setting
#
local host:  exp-4-23
current dir: /expanse/lustre/projects/csd626/rramji/aromodel/PNDIT/Hydrogenated_Impropers_Test
input file:  Dimethyl_Naphthalene_Dicarboximide_Phi_60_Theta_140_Thiophene_Hydrogenated_Improper.qcin
output file: 
nprocs     : 1
nthreads   : 64
#
# qchem installation setting
#
QC:          /cm/shared/apps/spack/cpu/opt/spack/linux-centos8-zen2/gcc-10.2.0/qchem-5.4-akfmr7b3t57bfs6qan3padb2wnb2i7cl
QCAUX:       /cm/shared/apps/spack/cpu/opt/spack/linux-centos8-zen2/gcc-10.2.0/qchem-5.4-akfmr7b3t57bfs6qan3padb2wnb2i7cl/qcaux
QCPROG:      /cm/shared/apps/spack/cpu/opt/spack/linux-centos8-zen2/gcc-10.2.0/qchem-5.4-akfmr7b3t57bfs6qan3padb2wnb2i7cl/exe/qcprog.exe
QCPROG_S:    /cm/shared/apps/spack/cpu/opt/spack/linux-centos8-zen2/gcc-10.2.0/qchem-5.4-akfmr7b3t57bfs6qan3padb2wnb2i7cl/exe/qcprog.exe_s
PARALLEL:    -DPARALLEL
QCMPI:       mpich
#
# qchem directory setting
#
qcrun:       qchem3819139
QCSCRATCH:   .
QCLOCALSCR:  
QCTMPDIR:    .
QCFILEPREF:  ./qchem3819139
QCSAVEDIR:   
workdirs:    ./qchem3819139
workdir0:    ./qchem3819139
partmpdirs =  
#
# parallel setting
#
QCRSH:           ssh
QCMPI:           mpich
QCMPIRUN:        /cm/shared/apps/spack/cpu/opt/spack/linux-centos8-zen2/gcc-10.2.0/qchem-5.4-akfmr7b3t57bfs6qan3padb2wnb2i7cl/bin/mpi/mpirun_qchem
QCMACHINEFILE:   ./qchem3819139/hostfile
exp-4-23

#
# env setting
#
exported envs:   QC QCAUX QCSCRATCH QCRUNNAME QCFILEPREF QCPROG QCPROG_S GUIFILE

Running Job 1 of 1 Dimethyl_Naphthalene_Dicarboximide_Phi_60_Theta_140_Thiophene_Hydrogenated_Improper.qcin
qchem Dimethyl_Naphthalene_Dicarboximide_Phi_60_Theta_140_Thiophene_Hydrogenated_Improper.qcin_3819139.0 ./qchem3819139/ 1
/cm/shared/apps/spack/cpu/opt/spack/linux-centos8-zen2/gcc-10.2.0/qchem-5.4-akfmr7b3t57bfs6qan3padb2wnb2i7cl/bin/mpi/mpirun_qchem -machinefile ./qchem3819139/hostfile -np 1 /cm/shared/apps/spack/cpu/opt/spack/linux-centos8-zen2/gcc-10.2.0/qchem-5.4-akfmr7b3t57bfs6qan3padb2wnb2i7cl/exe/qcprog.exe Dimethyl_Naphthalene_Dicarboximide_Phi_60_Theta_140_Thiophene_Hydrogenated_Improper.qcin_3819139.0 ./qchem3819139/

Process 0 of 1 is on exp-4-23 - thread support 0
initial socket setup ...start
initial socket setup ...done 
now start server 0 ... 
                  Welcome to Q-Chem
     A Quantum Leap Into The Future Of Chemistry


 Q-Chem 5.4, Q-Chem, Inc., Pleasanton, CA (2021)

 License issued to: University of California, San Diego (site)

 E. Epifanovsky,  A. T. B. Gilbert,  Xintian Feng,  Joonho Lee,  Yuezhi Mao,  
 N. Mardirossian,  P. Pokhilko,  A. White,  M. Wormit,  M. P. Coons,  
 A. L. Dempwolff,  Zhengting Gan,  D. Hait,  P. R. Horn,  L. D. Jacobson,  
 I. Kaliman,  J. Kussmann,  A. W. Lange,  Ka Un Lao,  D. S. Levine,  Jie Liu,  
 S. C. McKenzie,  A. F. Morrison,  K. Nanda,  F. Plasser,  D. R. Rehn,  
 M. L. Vidal,  Zhi-Qiang You,  Ying Zhu,  B. Alam,  B. Albrecht,  
 A. Aldossary,  E. Alguire,  J. H. Andersen,  D. Barton,  K. Begam,  A. Behn,  
 Y. A. Bernard,  E. J. Berquist,  H. Burton,  A. Carreras,  K. Carter-Fenk,  
 R. Chakraborty,  A. D. Chien,  K. D. Closser,  V. Cofer-Shabica,  
 S. Dasgupta,  Jia Deng,  M. de Wergifosse,  M. Diedenhofen,  Hainam Do,  
 S. Ehlert,  Po-Tung Fang,  S. Fatehi,  Qingguo Feng,  J. Gayvert,  
 Qinghui Ge,  G. Gidofalvi,  M. Goldey,  J. Gomes,  C. Gonzalez-Espinoza,  
 S. Gulania,  A. Gunina,  M. W. D. Hanson-Heine,  P. H. P. Harbach,  
 A. W. Hauser,  M. F. Herbst,  M. Hernandez Vera,  M. Hodecker,  
 Z. C. Holden,  S. Houck,  Xunkun Huang,  Kerwin Hui,  B. C. Huynh,  
 M. Ivanov,  Hyunjun Ji,  Hanjie Jiang,  B. Kaduk,  S. Kaehler,  
 K. Khistyaev,  Jaehoon Kim,  P. Klunzinger,  Z. Koczor-Benda,  
 Joong Hoon Koh,  D. Kosenkov,  L. Koulias,  T. Kowalczyk,  C. M. Krauter,  
 K. Kue,  A. Kunitsa,  T. Kus,  A. Landau,  K. V. Lawler,  D. Lefrancois,  
 S. Lehtola,  Rain Li,  Yi-Pei Li,  Jiashu Liang,  M. Liebenthal,  
 Hung-Hsuan Lin,  You-Sheng Lin,  Fenglai Liu,  Kuan-Yu Liu,  
 M. Loipersberger,  A. Luenser,  A. Manjanath,  P. Manohar,  E. Mansoor,  
 S. F. Manzer,  Shan-Ping Mao,  A. V. Marenich,  T. Markovich,  S. Mason,  
 S. A. Maurer,  P. F. McLaughlin,  M. F. S. J. Menger,  J.-M. Mewes,  
 S. A. Mewes,  P. Morgante,  J. W. Mullinax,  T. S. Nguyen-Beck,  
 K. J. Oosterbaan,  G. Paran,  Alexander C. Paul,  Suranjan K. Paul,  
 F. Pavosevic,  Zheng Pei,  S. Prager,  E. I. Proynov,  E. Ramos,  B. Rana,  
 A. E. Rask,  A. Rettig,  R. M. Richard,  F. Rob,  E. Rossomme,  T. Scheele,  
 M. Scheurer,  M. Schneider,  N. Sergueev,  S. M. Sharada,  W. Skomorowski,  
 D. W. Small,  C. J. Stein,  Yu-Chuan Su,  E. J. Sundstrom,  Zhen Tao,  
 J. Thirman,  T. Tsuchimochi,  N. M. Tubman,  S. P. Veccham,  O. Vydrov,  
 J. Wenzel,  J. Witte,  A. Yamada,  Kun Yao,  S. Yeganeh,  S. R. Yost,  
 A. Zech,  Igor Ying Zhang,  Xing Zhang,  Yu Zhang,  D. Zuev,  
 A. Aspuru-Guzik,  A. T. Bell,  N. A. Besley,  K. B. Bravaya,  B. R. Brooks,  
 D. Casanova,  Jeng-Da Chai,  S. Coriani,  C. J. Cramer,  
 A. E. DePrince, III,  R. A. DiStasio Jr.,  A. Dreuw,  B. D. Dunietz,  
 T. R. Furlani,  W. A. Goddard III,  S. Grimme,  S. Hammes-Schiffer,  
 T. Head-Gordon,  W. J. Hehre,  Chao-Ping Hsu,  T.-C. Jagau,  Yousung Jung,  
 A. Klamt,  Jing Kong,  D. S. Lambrecht,  WanZhen Liang,  N. J. Mayhall,  
 C. W. McCurdy,  J. B. Neaton,  C. Ochsenfeld,  J. A. Parkhill,  R. Peverati,  
 V. A. Rassolov,  Yihan Shao,  L. V. Slipchenko,  T. Stauch,  R. P. Steele,  
 J. E. Subotnik,  A. J. W. Thom,  A. Tkatchenko,  D. G. Truhlar,  
 T. Van Voorhis,  T. A. Wesolowski,  K. B. Whaley,  H. L. Woodcock III,  
 P. M. Zimmerman,  S. Faraji,  P. M. W. Gill,  M. Head-Gordon,  
 J. M. Herbert,  A. I. Krylov

 Contributors to earlier versions of Q-Chem not listed above: 
 R. D. Adamson,  B. Austin,  R. Baer,  J. Baker,  G. J. O. Beran,  
 K. Brandhorst,  S. T. Brown,  E. F. C. Byrd,  A. K. Chakraborty,  
 G. K. L. Chan,  Chun-Min Chang,  Yunqing Chen,  C.-L. Cheng,  
 Siu Hung Chien,  D. M. Chipman,  D. L. Crittenden,  H. Dachsel,  
 R. J. Doerksen,  A. D. Dutoi,  R. G. Edgar,  J. Fosso-Tande,  
 L. Fusti-Molnar,  D. Ghosh,  A. Ghysels,  A. Golubeva-Zadorozhnaya,  
 J. Gonthier,  M. S. Gordon,  S. R. Gwaltney,  G. Hawkins,  J. E. Herr,  
 A. Heyden,  S. Hirata,  E. G. Hohenstein,  G. Kedziora,  F. J. Keil,  
 C. Kelley,  Jihan Kim,  R. A. King,  R. Z. Khaliullin,  P. P. Korambath,  
 W. Kurlancheek,  A. Laurent,  A. M. Lee,  M. S. Lee,  S. V. Levchenko,  
 Ching Yeh Lin,  D. Liotard,  E. Livshits,  R. C. Lochan,  I. Lotan,  
 L. A. Martinez-Martinez,  P. E. Maslen,  N. Nair,  D. P. O'Neill,  
 D. Neuhauser,  E. Neuscamman,  C. M. Oana,  R. Olivares-Amaya,  R. Olson,  
 T. M. Perrine,  B. Peters,  P. A. Pieniazek,  A. Prociuk,  Y. M. Rhee,  
 J. Ritchie,  M. A. Rohrdanz,  E. Rosta,  N. J. Russ,  H. F. Schaefer III,  
 M. W. Schmidt,  N. E. Schultz,  S. Sharma,  N. Shenvi,  C. D. Sherrill,  
 A. C. Simmonett,  A. Sodt,  T. Stein,  D. Stuck,  K. S. Thanthiriwatte,  
 V. Vanovschi,  L. Vogt,  Tao Wang,  A. Warshel,  M. A. Watson,  
 C. F. Williams,  Q. Wu,  X. Xu,  Jun Yang,  W. Zhang,  Yan Zhao

 Please cite Q-Chem as follows:
 Y. Shao et al., Mol. Phys. 113, 184-215 (2015)
 DOI: 10.1080/00268976.2014.952696

 Q-Chem 5.4.0 for Intel X86 EM64T Linux

 Parts of Q-Chem use Armadillo 9.800.1 (Horizon Scraper).
 http://arma.sourceforge.net/

 Q-Chem begins on Sun Sep 24 15:10:24 2023  

 Host: 
0

     Scratch files written to ./qchem3819139//
 May1621 |scratch|qcdevops|jenkins|workspace|build_RNUM    
 Parallel job on  1  processors
 Processing $rem in /cm/shared/apps/spack/cpu/opt/spack/linux-centos8-zen2/gcc-10.2.0/qchem-5.4-akfmr7b3t57bfs6qan3padb2wnb2i7cl/config/preferences:
 Processing $rem in /home/rramji/.qchemrc:
 Symmetry turned off for PCM/SM12/SMD calculation
 Core orbitals will be frozen

 Checking the input file for inconsistencies... 	...done.

 Q-Chem warning in module forms1/BasisType.C, line 2236:

 You are not using the predefined 5D/6D in this basis set.


--------------------------------------------------------------
User input:
--------------------------------------------------------------
$molecule
0 1
C	-0.444144	-0.140188	-0.217353
S	0.242656	0.256612	1.363147
C	1.660956	1.075412	0.687547
C	0.420056	0.358912	-1.202753
C	1.563356	1.019112	-0.710853
H	0.215956	0.241112	-2.277253
H	2.326256	1.459712	-1.369953
C	-0.444144	-1.618388	-0.217353
H	-1.271844	-1.618988	0.476447
H	-1.078344	-2.057688	-0.973153
H	0.078556	-2.329388	0.405347
H	2.423556	1.515912	1.338647
$end

$rem
JOBTYPE		SP
EXCHANGE	HF
CORRELATION	pRIMP2
BASIS		cc-pvtz
METHOD		rimp2
AUX_BASIS	rimp2-cc-pvtz
SOLVENT_METHOD	PCM
PURECART	11111
SYMMETRY	false
MEM_TOTAL	110000
SCF_CONVERGENCE = 6
THRESH=10
GUI = 2
$end



$solvent
dielectric 4.90
$end
--------------------------------------------------------------
 ----------------------------------------------------------------
             Standard Nuclear Orientation (Angstroms)
    I     Atom           X                Y                Z
 ----------------------------------------------------------------
    1      C      -0.4441440000    -0.1401880000    -0.2173530000
    2      S       0.2426560000     0.2566120000     1.3631470000
    3      C       1.6609560000     1.0754120000     0.6875470000
    4      C       0.4200560000     0.3589120000    -1.2027530000
    5      C       1.5633560000     1.0191120000    -0.7108530000
    6      H       0.2159560000     0.2411120000    -2.2772530000
    7      H       2.3262560000     1.4597120000    -1.3699530000
    8      C      -0.4441440000    -1.6183880000    -0.2173530000
    9      H      -1.2718440000    -1.6189880000     0.4764470000
   10      H      -1.0783440000    -2.0576880000    -0.9731530000
   11      H       0.0785560000    -2.3293880000     0.4053470000
   12      H       2.4235560000     1.5159120000     1.3386470000
 ----------------------------------------------------------------
 Nuclear Repulsion Energy =         275.60078510 hartrees
 There are       26 alpha and       26 beta electrons
 Requested basis set is cc-pVTZ
 There are 98 shells and 268 basis functions

 Total QAlloc Memory Limit 110000 MB
 Mega-Array Size       188 MB
 MEM_STATIC part       192 MB
 Discretize the solute cavity surface with Lebedev spheres
	Using 110 Lebedev grid points for each H atom
	Using 194 Lebedev grid points for other atoms
	Atomic van der Waals radii will be scaled by 1.20
 Remove points where switching function is < 1.0e-08
 Keep 868 surface tesserae and discard 956 interior tesserae
 Molecular Surface Area = 135.531 Angst**2

                       Distance Matrix (Angstroms)
             C (  1)   S (  2)   C (  3)   C (  4)   C (  5)   H (  6)
   S (  2)  1.768368
   C (  3)  2.593834  1.771565
   C (  4)  1.402482  2.574059  2.372012
   C (  5)  2.370142  2.574321  1.402932  1.408888
   H (  6)  2.196431  3.640531  3.402076  1.100038  2.207800
   H (  7)  3.400483  3.641246  2.196273  2.207559  1.100253  2.600297
   C (  8)  1.478200  2.546625  3.536502  2.372250  3.351120  2.852483
   H (  9)  1.831200  2.568623  3.988191  3.097471  4.050631  3.640932
   H ( 10)  2.156444  3.543914  4.480849  2.852696  4.063752  2.942851
   H ( 11)  2.335287  2.762554  3.765141  3.151121  3.829228  3.717888
   H ( 12)  3.658894  2.518484  1.095231  3.436768  2.277544  4.424177
             H (  7)   C (  8)   H (  9)   H ( 10)   H ( 11)
   C (  8)  4.298640
   H (  9)  5.082707  1.080021
   H ( 10)  4.911299  1.080013  1.526840
   H ( 11)  4.749855  1.080042  1.527515  1.820028
   H ( 12)  2.710930  4.524232  4.922090  5.511655  4.599609
 
 Requested basis set is rimp2-cc-pVTZ
 There are 207 shells and 707 basis functions
 A cutoff of  1.0D-10 yielded   4462 shell pairs
 There are     33546 function pairs (     43380 Cartesian)
 Smallest overlap matrix eigenvalue = 1.66E-04

 Scale SEOQF with 1.000000e-01/1.000000e-01/1.000000e-01

 Standard Electronic Orientation quadrupole field applied
 Nucleus-field energy     =    -0.0000000007 hartrees
 Guess from superposition of atomic densities
 Warning:  Energy on first SCF cycle will be non-variational
 SAD guess density has 52.000000 electrons

 -----------------------------------------------------------------------
  General SCF calculation program by
  Eric Jon Sundstrom, Paul Horn, Yuezhi Mao, Dmitri Zuev, Alec White,
  David Stuck, Shaama M.S., Shane Yost, Joonho Lee, David Small,
  Daniel Levine, Susi Lehtola, Hugh Burton, Evgeny Epifanovsky,
  Bang C. Huynh
 -----------------------------------------------------------------------
 Hartree-Fock
 using 64 threads for integral computing
 -------------------------------------------------------
 OpenMP Integral computing Module                
 Release: version 1.0, May 2013, Q-Chem Inc. Pittsburgh 
 -------------------------------------------------------
 A restricted SCF calculation will be
 performed using DIIS
 SCF converges when DIIS error is below 1.0e-06
 ---------------------------------------
  Cycle       Energy         DIIS error
 ---------------------------------------
    1    -592.6655415106      3.27e-02  
    2    -590.2273449239      2.17e-03  
    3    -590.2883298906      8.22e-04  
    4    -590.2957903092      4.16e-04  
    5    -590.2980332681      8.21e-05  
    6    -590.2982301420      4.70e-05  
    7    -590.2983035193      2.02e-05  
    8    -590.2983330596      1.10e-05  
    9    -590.2983389091      3.79e-06  
   10    -590.2983395985      1.65e-06  
   11    -590.2983397317      6.76e-07  Convergence criterion met
 ---------------------------------------
 SCF time:   CPU 550.24s  wall 10.00s 

************** Final PCM Free Energy Summary **************
 G_electrostatic  =      -0.00589605 hartree =      -3.69982963 kcal/mol
 G_cavitation     =       0.00000000 hartree =       0.00000000 kcal/mol
 G_dispersion     =       0.00000000 hartree =       0.00000000 kcal/mol
 G_repulsion      =       0.00000000 hartree =       0.00000000 kcal/mol
 --------------------------------------------------
 Non-electrostatic Free Energy =       0.00000000 hartree =       0.00000000 kcal/mol
 Total                         =      -0.00589605 hartree =      -3.69982963 kcal/mol
 --------------------------------------------------
 SCF Energy (H0 + V/2)                       =    -590.29833973 
 Solute Internal Energy (H0)                 =    -590.29244368 
 Total Free Energy (H0 + V/2 + non-elec)     =    -590.29833973 hartree
                                             = -370417.79889721 kcal/mol
***********************************************************

 SCF   energy in the final basis set =     -590.2983397317
 Total energy in the final basis set =     -590.2983397317


 --------------------------------------------------------------
  Generalized many-body perturbation theory program
  by Joonho Lee, Fazle Rob, Xintian Feng, Evgeny Epifanovsky

 No regularization used 
 (reg. param. = 0.0000e+00)
  (P|Q)^-1/2 Time:  CPU 6.11 s  wall 0.10 s

 In RI-MP2 calculation: 
 # of frozen core orbitals: 10

 Components of the RIMP2 correlation energy:
        aaaa    correlation energy =        -0.1273192126 a.u.
        abab    correlation energy =        -0.7585182276 a.u.
        bbbb    correlation energy =        -0.1273192126 a.u.
        non-Brillouin singles      =        -0.0000000000 a.u.
        total same-spin energy     =        -0.2546384253 a.u.
        total opposite-spin energy =        -0.7585182276 a.u.

 Total  RIMP2   correlation energy =        -1.0131566528 a.u.
        RIMP2         total energy =      -591.3114963845 a.u.

 RI-MP2 Energy Time:  CPU 27.13 s  wall 0.46 s
 
 --------------------------------------------------------------
 
                    Orbital Energies (a.u.)
 --------------------------------------------------------------
 
 Alpha MOs
 -- Occupied --
-91.9773 -11.2959 -11.2586 -11.2451 -11.2440 -11.2118  -8.9779  -6.6587
 -6.6579  -6.6577  -1.1687  -1.0358  -0.9804  -0.9081  -0.7666  -0.7279
 -0.6710  -0.5931  -0.5679  -0.5587  -0.5516  -0.4784  -0.4516  -0.4380
 -0.3447  -0.3052
 -- Virtual --
  0.0593   0.1529   0.1569   0.1807   0.1849   0.1970   0.2117   0.2262
  0.2279   0.2451   0.2885   0.3309   0.3488   0.3689   0.3824   0.4032
  0.4256   0.4418   0.4546   0.4620   0.4860   0.5016   0.5112   0.5290
  0.5407   0.5502   0.5668   0.5707   0.5959   0.5996   0.6072   0.6144
  0.6173   0.6453   0.6493   0.6787   0.6992   0.7140   0.7513   0.7654
  0.7886   0.7912   0.8015   0.8377   0.8586   0.8780   0.9052   0.9167
  0.9701   0.9793   1.0039   1.0599   1.0860   1.1096   1.1309   1.1525
  1.1579   1.1685   1.1838   1.2076   1.2127   1.2205   1.2536   1.2820
  1.2900   1.3088   1.3277   1.3599   1.3662   1.4097   1.4199   1.4350
  1.4661   1.4816   1.4866   1.5178   1.5316   1.5603   1.5708   1.5776
  1.5956   1.6297   1.6564   1.6628   1.6950   1.7323   1.7667   1.7965
  1.8409   1.8555   1.8928   1.9146   1.9437   1.9789   2.0224   2.0883
  2.1143   2.1658   2.1847   2.2109   2.2420   2.2526   2.3485   2.3805
  2.4288   2.4604   2.4770   2.5188   2.5676   2.5973   2.6513   2.6729
  2.7043   2.7215   2.7313   2.7560   2.7809   2.7909   2.8061   2.8344
  2.8637   2.8980   2.9447   2.9715   2.9926   3.0081   3.0225   3.0647
  3.0877   3.1029   3.1121   3.1483   3.1727   3.1830   3.2246   3.2352
  3.2423   3.2520   3.2774   3.3042   3.3152   3.3343   3.3408   3.3833
  3.4081   3.4253   3.4336   3.4538   3.4597   3.4733   3.4935   3.5028
  3.5280   3.5492   3.5802   3.6048   3.6127   3.6347   3.6432   3.6596
  3.6794   3.7128   3.7522   3.7706   3.7898   3.8200   3.8300   3.8428
  3.8960   3.9150   3.9256   3.9519   3.9553   3.9704   4.0015   4.0108
  4.0216   4.0455   4.0691   4.1247   4.1504   4.1553   4.1742   4.1927
  4.2630   4.2704   4.2754   4.3002   4.3193   4.3599   4.3979   4.4259
  4.4503   4.4710   4.4997   4.5080   4.5461   4.5972   4.6206   4.6501
  4.6803   4.7037   4.7147   4.7593   4.7905   4.7970   4.8481   4.8606
  4.8940   5.0067   5.0209   5.0467   5.0833   5.1200   5.1751   5.1948
  5.2222   5.2841   5.3625   5.4029   5.4572   5.4855   5.5333   5.5891
  5.6582   5.6725   5.7910   5.8533   5.8608   5.9369   5.9659   6.0217
  6.0599   6.3476   6.3848   6.4496   6.5606   9.6438  11.6536  12.6894
 13.9095  13.9931
 --------------------------------------------------------------
 
          Ground-State Mulliken Net Atomic Charges

     Atom                 Charge (a.u.)
  ----------------------------------------
      1 C                    -0.147401
      2 S                     0.010903
      3 C                    -0.143538
      4 C                    -0.060939
      5 C                    -0.243084
      6 H                     0.189430
      7 H                     0.184889
      8 C                    -0.376957
      9 H                     0.115721
     10 H                     0.113260
     11 H                     0.148039
     12 H                     0.209678
  ----------------------------------------
  Sum of atomic charges =     0.000000

 -----------------------------------------------------------------
                    Cartesian Multipole Moments
 -----------------------------------------------------------------
    Charge (ESU x 10^10)
                 0.0000
    Dipole Moment (Debye)
         X       2.1235      Y       0.1985      Z      -0.8046
       Tot       2.2794
    Quadrupole Moments (Debye-Ang)
        XX     -41.0418     XY       5.1716     YY     -43.8472
        XZ       1.1561     YZ      -0.2003     ZZ     -40.9860
    Octopole Moments (Debye-Ang^2)
       XXX     -45.3066    XXY       4.4670    XYY     -15.4196
       YYY     -18.3733    XXZ      -2.7438    XYZ       1.9481
       YYZ      -4.0457    XZZ     -13.1169    YZZ      -1.1960
       ZZZ     -30.9113
    Hexadecapole Moments (Debye-Ang^3)
      XXXX    -275.8292   XXXY     -66.8857   XXYY     -86.1288
      XYYY     -89.6674   YYYY    -295.0492   XXXZ       0.7360
      XXYZ       2.5122   XYYZ       3.2017   YYYZ     -15.4212
      XXZZ     -87.9924   XYZZ     -18.4665   YYZZ     -98.8702
      XZZZ      -4.2238   YZZZ     -12.8238   ZZZZ    -301.2457
 -----------------------------------------------------------------
 Total job time:  11.48s(wall), 604.95s(cpu) 
 Sun Sep 24 15:10:36 2023

        *************************************************************
        *                                                           *
        *  Thank you very much for using Q-Chem.  Have a nice day.  *
        *                                                           *
        *************************************************************


0 sent ACK to 0 
now end server 0 ... 
cleanup process ... done
remove work dirs ./qchem3819139.0 -- ./qchem3819139.0
rm -rf ./qchem3819139.0
rm -rf ./qchem3819139
