You are running Q-Chem version: 5.4.0

#
# job setting
#
local host:  exp-2-46
current dir: /expanse/lustre/projects/csd626/rramji/aromodel/PNDIT/Hydrogenated_Impropers_Test
input file:  Dimethyl_Naphthalene_Dicarboximide_Phi_40_Theta_310_Thiophene_Hydrogenated_Improper.qcin
output file: 
nprocs     : 1
nthreads   : 64
#
# qchem installation setting
#
QC:          /cm/shared/apps/spack/cpu/opt/spack/linux-centos8-zen2/gcc-10.2.0/qchem-5.4-akfmr7b3t57bfs6qan3padb2wnb2i7cl
QCAUX:       /cm/shared/apps/spack/cpu/opt/spack/linux-centos8-zen2/gcc-10.2.0/qchem-5.4-akfmr7b3t57bfs6qan3padb2wnb2i7cl/qcaux
QCPROG:      /cm/shared/apps/spack/cpu/opt/spack/linux-centos8-zen2/gcc-10.2.0/qchem-5.4-akfmr7b3t57bfs6qan3padb2wnb2i7cl/exe/qcprog.exe
QCPROG_S:    /cm/shared/apps/spack/cpu/opt/spack/linux-centos8-zen2/gcc-10.2.0/qchem-5.4-akfmr7b3t57bfs6qan3padb2wnb2i7cl/exe/qcprog.exe_s
PARALLEL:    -DPARALLEL
QCMPI:       mpich
#
# qchem directory setting
#
qcrun:       qchem1891875
QCSCRATCH:   .
QCLOCALSCR:  
QCTMPDIR:    .
QCFILEPREF:  ./qchem1891875
QCSAVEDIR:   
workdirs:    ./qchem1891875
workdir0:    ./qchem1891875
partmpdirs =  
#
# parallel setting
#
QCRSH:           ssh
QCMPI:           mpich
QCMPIRUN:        /cm/shared/apps/spack/cpu/opt/spack/linux-centos8-zen2/gcc-10.2.0/qchem-5.4-akfmr7b3t57bfs6qan3padb2wnb2i7cl/bin/mpi/mpirun_qchem
QCMACHINEFILE:   ./qchem1891875/hostfile
exp-2-46

#
# env setting
#
exported envs:   QC QCAUX QCSCRATCH QCRUNNAME QCFILEPREF QCPROG QCPROG_S GUIFILE

Running Job 1 of 1 Dimethyl_Naphthalene_Dicarboximide_Phi_40_Theta_310_Thiophene_Hydrogenated_Improper.qcin
qchem Dimethyl_Naphthalene_Dicarboximide_Phi_40_Theta_310_Thiophene_Hydrogenated_Improper.qcin_1891875.0 ./qchem1891875/ 1
/cm/shared/apps/spack/cpu/opt/spack/linux-centos8-zen2/gcc-10.2.0/qchem-5.4-akfmr7b3t57bfs6qan3padb2wnb2i7cl/bin/mpi/mpirun_qchem -machinefile ./qchem1891875/hostfile -np 1 /cm/shared/apps/spack/cpu/opt/spack/linux-centos8-zen2/gcc-10.2.0/qchem-5.4-akfmr7b3t57bfs6qan3padb2wnb2i7cl/exe/qcprog.exe Dimethyl_Naphthalene_Dicarboximide_Phi_40_Theta_310_Thiophene_Hydrogenated_Improper.qcin_1891875.0 ./qchem1891875/

Process 0 of 1 is on exp-2-46 - thread support 0
initial socket setup ...start
initial socket setup ...done 
now start server 0 ... 
                  Welcome to Q-Chem
     A Quantum Leap Into The Future Of Chemistry


 Q-Chem 5.4, Q-Chem, Inc., Pleasanton, CA (2021)

 License issued to: University of California, San Diego (site)

 E. Epifanovsky,  A. T. B. Gilbert,  Xintian Feng,  Joonho Lee,  Yuezhi Mao,  
 N. Mardirossian,  P. Pokhilko,  A. White,  M. Wormit,  M. P. Coons,  
 A. L. Dempwolff,  Zhengting Gan,  D. Hait,  P. R. Horn,  L. D. Jacobson,  
 I. Kaliman,  J. Kussmann,  A. W. Lange,  Ka Un Lao,  D. S. Levine,  Jie Liu,  
 S. C. McKenzie,  A. F. Morrison,  K. Nanda,  F. Plasser,  D. R. Rehn,  
 M. L. Vidal,  Zhi-Qiang You,  Ying Zhu,  B. Alam,  B. Albrecht,  
 A. Aldossary,  E. Alguire,  J. H. Andersen,  D. Barton,  K. Begam,  A. Behn,  
 Y. A. Bernard,  E. J. Berquist,  H. Burton,  A. Carreras,  K. Carter-Fenk,  
 R. Chakraborty,  A. D. Chien,  K. D. Closser,  V. Cofer-Shabica,  
 S. Dasgupta,  Jia Deng,  M. de Wergifosse,  M. Diedenhofen,  Hainam Do,  
 S. Ehlert,  Po-Tung Fang,  S. Fatehi,  Qingguo Feng,  J. Gayvert,  
 Qinghui Ge,  G. Gidofalvi,  M. Goldey,  J. Gomes,  C. Gonzalez-Espinoza,  
 S. Gulania,  A. Gunina,  M. W. D. Hanson-Heine,  P. H. P. Harbach,  
 A. W. Hauser,  M. F. Herbst,  M. Hernandez Vera,  M. Hodecker,  
 Z. C. Holden,  S. Houck,  Xunkun Huang,  Kerwin Hui,  B. C. Huynh,  
 M. Ivanov,  Hyunjun Ji,  Hanjie Jiang,  B. Kaduk,  S. Kaehler,  
 K. Khistyaev,  Jaehoon Kim,  P. Klunzinger,  Z. Koczor-Benda,  
 Joong Hoon Koh,  D. Kosenkov,  L. Koulias,  T. Kowalczyk,  C. M. Krauter,  
 K. Kue,  A. Kunitsa,  T. Kus,  A. Landau,  K. V. Lawler,  D. Lefrancois,  
 S. Lehtola,  Rain Li,  Yi-Pei Li,  Jiashu Liang,  M. Liebenthal,  
 Hung-Hsuan Lin,  You-Sheng Lin,  Fenglai Liu,  Kuan-Yu Liu,  
 M. Loipersberger,  A. Luenser,  A. Manjanath,  P. Manohar,  E. Mansoor,  
 S. F. Manzer,  Shan-Ping Mao,  A. V. Marenich,  T. Markovich,  S. Mason,  
 S. A. Maurer,  P. F. McLaughlin,  M. F. S. J. Menger,  J.-M. Mewes,  
 S. A. Mewes,  P. Morgante,  J. W. Mullinax,  T. S. Nguyen-Beck,  
 K. J. Oosterbaan,  G. Paran,  Alexander C. Paul,  Suranjan K. Paul,  
 F. Pavosevic,  Zheng Pei,  S. Prager,  E. I. Proynov,  E. Ramos,  B. Rana,  
 A. E. Rask,  A. Rettig,  R. M. Richard,  F. Rob,  E. Rossomme,  T. Scheele,  
 M. Scheurer,  M. Schneider,  N. Sergueev,  S. M. Sharada,  W. Skomorowski,  
 D. W. Small,  C. J. Stein,  Yu-Chuan Su,  E. J. Sundstrom,  Zhen Tao,  
 J. Thirman,  T. Tsuchimochi,  N. M. Tubman,  S. P. Veccham,  O. Vydrov,  
 J. Wenzel,  J. Witte,  A. Yamada,  Kun Yao,  S. Yeganeh,  S. R. Yost,  
 A. Zech,  Igor Ying Zhang,  Xing Zhang,  Yu Zhang,  D. Zuev,  
 A. Aspuru-Guzik,  A. T. Bell,  N. A. Besley,  K. B. Bravaya,  B. R. Brooks,  
 D. Casanova,  Jeng-Da Chai,  S. Coriani,  C. J. Cramer,  
 A. E. DePrince, III,  R. A. DiStasio Jr.,  A. Dreuw,  B. D. Dunietz,  
 T. R. Furlani,  W. A. Goddard III,  S. Grimme,  S. Hammes-Schiffer,  
 T. Head-Gordon,  W. J. Hehre,  Chao-Ping Hsu,  T.-C. Jagau,  Yousung Jung,  
 A. Klamt,  Jing Kong,  D. S. Lambrecht,  WanZhen Liang,  N. J. Mayhall,  
 C. W. McCurdy,  J. B. Neaton,  C. Ochsenfeld,  J. A. Parkhill,  R. Peverati,  
 V. A. Rassolov,  Yihan Shao,  L. V. Slipchenko,  T. Stauch,  R. P. Steele,  
 J. E. Subotnik,  A. J. W. Thom,  A. Tkatchenko,  D. G. Truhlar,  
 T. Van Voorhis,  T. A. Wesolowski,  K. B. Whaley,  H. L. Woodcock III,  
 P. M. Zimmerman,  S. Faraji,  P. M. W. Gill,  M. Head-Gordon,  
 J. M. Herbert,  A. I. Krylov

 Contributors to earlier versions of Q-Chem not listed above: 
 R. D. Adamson,  B. Austin,  R. Baer,  J. Baker,  G. J. O. Beran,  
 K. Brandhorst,  S. T. Brown,  E. F. C. Byrd,  A. K. Chakraborty,  
 G. K. L. Chan,  Chun-Min Chang,  Yunqing Chen,  C.-L. Cheng,  
 Siu Hung Chien,  D. M. Chipman,  D. L. Crittenden,  H. Dachsel,  
 R. J. Doerksen,  A. D. Dutoi,  R. G. Edgar,  J. Fosso-Tande,  
 L. Fusti-Molnar,  D. Ghosh,  A. Ghysels,  A. Golubeva-Zadorozhnaya,  
 J. Gonthier,  M. S. Gordon,  S. R. Gwaltney,  G. Hawkins,  J. E. Herr,  
 A. Heyden,  S. Hirata,  E. G. Hohenstein,  G. Kedziora,  F. J. Keil,  
 C. Kelley,  Jihan Kim,  R. A. King,  R. Z. Khaliullin,  P. P. Korambath,  
 W. Kurlancheek,  A. Laurent,  A. M. Lee,  M. S. Lee,  S. V. Levchenko,  
 Ching Yeh Lin,  D. Liotard,  E. Livshits,  R. C. Lochan,  I. Lotan,  
 L. A. Martinez-Martinez,  P. E. Maslen,  N. Nair,  D. P. O'Neill,  
 D. Neuhauser,  E. Neuscamman,  C. M. Oana,  R. Olivares-Amaya,  R. Olson,  
 T. M. Perrine,  B. Peters,  P. A. Pieniazek,  A. Prociuk,  Y. M. Rhee,  
 J. Ritchie,  M. A. Rohrdanz,  E. Rosta,  N. J. Russ,  H. F. Schaefer III,  
 M. W. Schmidt,  N. E. Schultz,  S. Sharma,  N. Shenvi,  C. D. Sherrill,  
 A. C. Simmonett,  A. Sodt,  T. Stein,  D. Stuck,  K. S. Thanthiriwatte,  
 V. Vanovschi,  L. Vogt,  Tao Wang,  A. Warshel,  M. A. Watson,  
 C. F. Williams,  Q. Wu,  X. Xu,  Jun Yang,  W. Zhang,  Yan Zhao

 Please cite Q-Chem as follows:
 Y. Shao et al., Mol. Phys. 113, 184-215 (2015)
 DOI: 10.1080/00268976.2014.952696

 Q-Chem 5.4.0 for Intel X86 EM64T Linux

 Parts of Q-Chem use Armadillo 9.800.1 (Horizon Scraper).
 http://arma.sourceforge.net/

 Q-Chem begins on Sun Sep 24 15:15:29 2023  

 Host: 
0

     Scratch files written to ./qchem1891875//
 May1621 |scratch|qcdevops|jenkins|workspace|build_RNUM    
 Parallel job on  1  processors
 Processing $rem in /cm/shared/apps/spack/cpu/opt/spack/linux-centos8-zen2/gcc-10.2.0/qchem-5.4-akfmr7b3t57bfs6qan3padb2wnb2i7cl/config/preferences:
 Processing $rem in /home/rramji/.qchemrc:
 Symmetry turned off for PCM/SM12/SMD calculation
 Core orbitals will be frozen

 Checking the input file for inconsistencies... 	...done.

 Q-Chem warning in module forms1/BasisType.C, line 2236:

 You are not using the predefined 5D/6D in this basis set.


--------------------------------------------------------------
User input:
--------------------------------------------------------------
$molecule
0 1
C	-0.337459	-0.278098	-0.210801
S	0.172241	0.329602	1.369699
C	1.224941	1.584202	0.694099
C	0.303941	0.486502	-1.196201
C	1.152441	1.497902	-0.704301
H	0.152441	0.306002	-2.270701
H	1.718641	2.172802	-1.363401
C	-0.337459	-1.756298	-0.210801
H	0.357141	-1.756898	-1.037801
H	0.418341	-2.195598	0.423399
H	-0.960359	-2.467298	-0.733301
H	1.790941	2.258902	1.345199
$end

$rem
JOBTYPE		SP
EXCHANGE	HF
CORRELATION	pRIMP2
BASIS		cc-pvtz
METHOD		rimp2
AUX_BASIS	rimp2-cc-pvtz
SOLVENT_METHOD	PCM
PURECART	11111
SYMMETRY	false
MEM_TOTAL	110000
SCF_CONVERGENCE = 6
THRESH=10
GUI = 2
$end



$solvent
dielectric 4.90
$end
--------------------------------------------------------------
 ----------------------------------------------------------------
             Standard Nuclear Orientation (Angstroms)
    I     Atom           X                Y                Z
 ----------------------------------------------------------------
    1      C      -0.3374590000    -0.2780980000    -0.2108010000
    2      S       0.1722410000     0.3296020000     1.3696990000
    3      C       1.2249410000     1.5842020000     0.6940990000
    4      C       0.3039410000     0.4865020000    -1.1962010000
    5      C       1.1524410000     1.4979020000    -0.7043010000
    6      H       0.1524410000     0.3060020000    -2.2707010000
    7      H       1.7186410000     2.1728020000    -1.3634010000
    8      C      -0.3374590000    -1.7562980000    -0.2108010000
    9      H       0.3571410000    -1.7568980000    -1.0378010000
   10      H       0.4183410000    -2.1955980000     0.4233990000
   11      H      -0.9603590000    -2.4672980000    -0.7333010000
   12      H       1.7909410000     2.2589020000     1.3451990000
 ----------------------------------------------------------------
 Nuclear Repulsion Energy =         272.94873543 hartrees
 There are       26 alpha and       26 beta electrons
 Requested basis set is cc-pVTZ
 There are 98 shells and 268 basis functions

 Total QAlloc Memory Limit 110000 MB
 Mega-Array Size       188 MB
 MEM_STATIC part       192 MB
 Discretize the solute cavity surface with Lebedev spheres
	Using 110 Lebedev grid points for each H atom
	Using 194 Lebedev grid points for other atoms
	Atomic van der Waals radii will be scaled by 1.20
 Remove points where switching function is < 1.0e-08
 Keep 864 surface tesserae and discard 960 interior tesserae
 Molecular Surface Area = 136.630 Angst**2

                       Distance Matrix (Angstroms)
             C (  1)   S (  2)   C (  3)   C (  4)   C (  5)   H (  6)
   S (  2)  1.768353
   C (  3)  2.593858  1.771619
   C (  4)  1.402505  2.574064  2.372008
   C (  5)  2.370131  2.574333  1.402935  1.408846
   H (  6)  2.196443  3.640530  3.402072  1.100038  2.207767
   H (  7)  3.400433  3.641233  2.196246  2.207474  1.100221  2.600215
   C (  8)  1.478200  2.666225  3.797220  2.532303  3.612916  2.955718
   H (  9)  1.831187  3.191195  3.862060  2.249614  3.367113  2.411950
   H ( 10)  2.156444  2.707893  3.874374  3.135259  3.930973  3.686039
   H ( 11)  2.335296  3.678049  4.819508  3.246177  4.493059  3.360523
   H ( 12)  3.658906  2.518529  1.095220  3.436755  2.277554  4.424165
             H (  7)   C (  8)   H (  9)   H ( 10)   H ( 11)
   C (  8)  4.581906
   H (  9)  4.171599  1.079999
   H ( 10)  4.895544  1.080013  1.526862
   H ( 11)  5.394867  1.080061  1.527480  1.820052
   H ( 12)  2.710932  4.803442  4.884785  4.751454  5.850366
 
 Requested basis set is rimp2-cc-pVTZ
 There are 207 shells and 707 basis functions
 A cutoff of  1.0D-10 yielded   4436 shell pairs
 There are     33358 function pairs (     43156 Cartesian)
 Smallest overlap matrix eigenvalue = 1.68E-04

 Scale SEOQF with 1.000000e-01/1.000000e-01/1.000000e-01

 Standard Electronic Orientation quadrupole field applied
 Nucleus-field energy     =     0.0000000003 hartrees
 Guess from superposition of atomic densities
 Warning:  Energy on first SCF cycle will be non-variational
 SAD guess density has 52.000000 electrons

 -----------------------------------------------------------------------
  General SCF calculation program by
  Eric Jon Sundstrom, Paul Horn, Yuezhi Mao, Dmitri Zuev, Alec White,
  David Stuck, Shaama M.S., Shane Yost, Joonho Lee, David Small,
  Daniel Levine, Susi Lehtola, Hugh Burton, Evgeny Epifanovsky,
  Bang C. Huynh
 -----------------------------------------------------------------------
 Hartree-Fock
 using 64 threads for integral computing
 -------------------------------------------------------
 OpenMP Integral computing Module                
 Release: version 1.0, May 2013, Q-Chem Inc. Pittsburgh 
 -------------------------------------------------------
 A restricted SCF calculation will be
 performed using DIIS
 SCF converges when DIIS error is below 1.0e-06
 ---------------------------------------
  Cycle       Energy         DIIS error
 ---------------------------------------
    1    -592.6250591913      3.24e-02  
    2    -590.2708297688      2.16e-03  
    3    -590.3315919835      7.72e-04  
    4    -590.3383027674      3.64e-04  
    5    -590.3400247222      7.22e-05  
    6    -590.3401539983      3.01e-05  
    7    -590.3401894566      1.60e-05  
    8    -590.3402009761      6.34e-06  
    9    -590.3402032352      2.89e-06  
   10    -590.3402035173      8.84e-07  Convergence criterion met
 ---------------------------------------
 SCF time:   CPU 507.47s  wall 9.00s 

************** Final PCM Free Energy Summary **************
 G_electrostatic  =      -0.00548336 hartree =      -3.44085764 kcal/mol
 G_cavitation     =       0.00000000 hartree =       0.00000000 kcal/mol
 G_dispersion     =       0.00000000 hartree =       0.00000000 kcal/mol
 G_repulsion      =       0.00000000 hartree =       0.00000000 kcal/mol
 --------------------------------------------------
 Non-electrostatic Free Energy =       0.00000000 hartree =       0.00000000 kcal/mol
 Total                         =      -0.00548336 hartree =      -3.44085764 kcal/mol
 --------------------------------------------------
 SCF Energy (H0 + V/2)                       =    -590.34020352 
 Solute Internal Energy (H0)                 =    -590.33472016 
 Total Free Energy (H0 + V/2 + non-elec)     =    -590.34020352 hartree
                                             = -370444.06881919 kcal/mol
***********************************************************

 SCF   energy in the final basis set =     -590.3402035173
 Total energy in the final basis set =     -590.3402035173


 --------------------------------------------------------------
  Generalized many-body perturbation theory program
  by Joonho Lee, Fazle Rob, Xintian Feng, Evgeny Epifanovsky

 No regularization used 
 (reg. param. = 0.0000e+00)
  (P|Q)^-1/2 Time:  CPU 8.69 s  wall 0.15 s

 In RI-MP2 calculation: 
 # of frozen core orbitals: 10

 Components of the RIMP2 correlation energy:
        aaaa    correlation energy =        -0.1265787848 a.u.
        abab    correlation energy =        -0.7556442229 a.u.
        bbbb    correlation energy =        -0.1265787848 a.u.
        non-Brillouin singles      =        -0.0000000000 a.u.
        total same-spin energy     =        -0.2531575695 a.u.
        total opposite-spin energy =        -0.7556442229 a.u.

 Total  RIMP2   correlation energy =        -1.0088017924 a.u.
        RIMP2         total energy =      -591.3490053098 a.u.

 RI-MP2 Energy Time:  CPU 30.77 s  wall 0.58 s
 
 --------------------------------------------------------------
 
                    Orbital Energies (a.u.)
 --------------------------------------------------------------
 
 Alpha MOs
 -- Occupied --
-91.9776 -11.2760 -11.2741 -11.2436 -11.2415 -11.2188  -8.9776  -6.6584
 -6.6579  -6.6574  -1.1625  -1.0375  -0.9751  -0.9116  -0.7577  -0.7254
 -0.6711  -0.5963  -0.5697  -0.5536  -0.5459  -0.4835  -0.4702  -0.4474
 -0.3428  -0.3038
 -- Virtual --
  0.0812   0.1553   0.1614   0.1798   0.1864   0.1943   0.2163   0.2261
  0.2315   0.2484   0.3057   0.3345   0.3444   0.3706   0.3848   0.4026
  0.4312   0.4477   0.4556   0.4618   0.4875   0.5111   0.5197   0.5295
  0.5402   0.5484   0.5531   0.5822   0.5975   0.6107   0.6152   0.6169
  0.6279   0.6465   0.6474   0.6830   0.6936   0.7023   0.7115   0.7583
  0.7816   0.8010   0.8227   0.8345   0.8435   0.8747   0.9041   0.9118
  0.9317   0.9819   1.0320   1.0555   1.0806   1.0876   1.1094   1.1503
  1.1622   1.1688   1.1969   1.2042   1.2212   1.2310   1.2506   1.2668
  1.3033   1.3175   1.3220   1.3399   1.3564   1.4051   1.4207   1.4458
  1.4560   1.4881   1.4988   1.5105   1.5349   1.5416   1.5623   1.6013
  1.6044   1.6153   1.6404   1.6696   1.6776   1.7255   1.7768   1.7975
  1.8449   1.8839   1.8993   1.9060   1.9585   2.0010   2.0107   2.1185
  2.1385   2.1600   2.1742   2.2147   2.2427   2.2694   2.3170   2.4015
  2.4278   2.4530   2.4625   2.5194   2.5770   2.6056   2.6317   2.6543
  2.6687   2.7095   2.7270   2.7321   2.7545   2.8083   2.8334   2.8616
  2.8735   2.9005   2.9290   2.9509   2.9946   3.0174   3.0274   3.0534
  3.0747   3.1116   3.1169   3.1517   3.1838   3.2010   3.2069   3.2297
  3.2458   3.2648   3.2818   3.3086   3.3209   3.3397   3.3556   3.3741
  3.3796   3.4056   3.4297   3.4506   3.4576   3.4850   3.4938   3.5090
  3.5214   3.5531   3.5589   3.5757   3.5852   3.6250   3.6411   3.6668
  3.6794   3.7017   3.7168   3.7385   3.7731   3.8066   3.8163   3.8341
  3.8620   3.9064   3.9173   3.9355   3.9521   3.9568   3.9747   4.0125
  4.0404   4.0482   4.0613   4.1139   4.1200   4.1643   4.1744   4.2091
  4.2573   4.2696   4.2748   4.2938   4.3179   4.3657   4.3964   4.4098
  4.4197   4.4426   4.4818   4.5043   4.5837   4.5961   4.6252   4.6704
  4.6819   4.7071   4.7330   4.7610   4.7799   4.8135   4.8345   4.8987
  4.9229   4.9956   5.0263   5.0346   5.0986   5.1579   5.1718   5.1919
  5.2074   5.2902   5.3528   5.3983   5.4394   5.4883   5.5352   5.5714
  5.6190   5.7049   5.7857   5.8392   5.8579   5.8957   5.9702   6.0362
  6.0831   6.3160   6.3897   6.4546   6.5784   9.5068  11.5036  12.6983
 13.8852  13.9745
 --------------------------------------------------------------
 
          Ground-State Mulliken Net Atomic Charges

     Atom                 Charge (a.u.)
  ----------------------------------------
      1 C                    -0.023542
      2 S                     0.005347
      3 C                    -0.210191
      4 C                    -0.181433
      5 C                    -0.210858
      6 H                     0.179782
      7 H                     0.187180
      8 C                    -0.366202
      9 H                     0.135749
     10 H                     0.137341
     11 H                     0.142620
     12 H                     0.204208
  ----------------------------------------
  Sum of atomic charges =     0.000000

 -----------------------------------------------------------------
                    Cartesian Multipole Moments
 -----------------------------------------------------------------
    Charge (ESU x 10^10)
                 0.0000
    Dipole Moment (Debye)
         X       1.5420      Y      -0.3086      Z      -1.5813
       Tot       2.2302
    Quadrupole Moments (Debye-Ang)
        XX     -44.6423     XY       3.7434     YY     -40.4572
        XZ       0.8260     YZ       1.7535     ZZ     -41.3908
    Octopole Moments (Debye-Ang^2)
       XXX     -44.1718    XXY      -5.7620    XYY      -4.8762
       YYY     -34.5494    XXZ      -5.2928    XYZ       0.9864
       YYZ      -6.9113    XZZ     -10.5814    YZZ      -6.8301
       ZZZ     -28.3722
    Hexadecapole Moments (Debye-Ang^3)
      XXXX    -194.0465   XXXY     -82.3665   XXYY     -84.2495
      XYYY     -72.1585   YYYY    -409.0596   XXXZ      -4.3279
      XXYZ      -2.6543   XYYZ       5.5974   YYYZ      -8.3319
      XXZZ     -79.4532   XYZZ     -16.9486   YYZZ    -111.4031
      XZZZ      -3.7485   YZZZ     -16.8352   ZZZZ    -306.3016
 -----------------------------------------------------------------
 Total job time:  10.90s(wall), 570.47s(cpu) 
 Sun Sep 24 15:15:40 2023

        *************************************************************
        *                                                           *
        *  Thank you very much for using Q-Chem.  Have a nice day.  *
        *                                                           *
        *************************************************************


0 sent ACK to 0 
now end server 0 ... 
cleanup process ... done
remove work dirs ./qchem1891875.0 -- ./qchem1891875.0
rm -rf ./qchem1891875.0
rm -rf ./qchem1891875
