You are running Q-Chem version: 5.4.0

#
# job setting
#
local host:  exp-2-38
current dir: /expanse/lustre/projects/csd626/rramji/aromodel/PNDIT/Hydrogenated_Impropers_Test
input file:  Dimethyl_Naphthalene_Dicarboximide_Phi_15_Theta_250_Thiophene_Hydrogenated_Improper.qcin
output file: 
nprocs     : 1
nthreads   : 64
#
# qchem installation setting
#
QC:          /cm/shared/apps/spack/cpu/opt/spack/linux-centos8-zen2/gcc-10.2.0/qchem-5.4-akfmr7b3t57bfs6qan3padb2wnb2i7cl
QCAUX:       /cm/shared/apps/spack/cpu/opt/spack/linux-centos8-zen2/gcc-10.2.0/qchem-5.4-akfmr7b3t57bfs6qan3padb2wnb2i7cl/qcaux
QCPROG:      /cm/shared/apps/spack/cpu/opt/spack/linux-centos8-zen2/gcc-10.2.0/qchem-5.4-akfmr7b3t57bfs6qan3padb2wnb2i7cl/exe/qcprog.exe
QCPROG_S:    /cm/shared/apps/spack/cpu/opt/spack/linux-centos8-zen2/gcc-10.2.0/qchem-5.4-akfmr7b3t57bfs6qan3padb2wnb2i7cl/exe/qcprog.exe_s
PARALLEL:    -DPARALLEL
QCMPI:       mpich
#
# qchem directory setting
#
qcrun:       qchem3743489
QCSCRATCH:   .
QCLOCALSCR:  
QCTMPDIR:    .
QCFILEPREF:  ./qchem3743489
QCSAVEDIR:   
workdirs:    ./qchem3743489
workdir0:    ./qchem3743489
partmpdirs =  
#
# parallel setting
#
QCRSH:           ssh
QCMPI:           mpich
QCMPIRUN:        /cm/shared/apps/spack/cpu/opt/spack/linux-centos8-zen2/gcc-10.2.0/qchem-5.4-akfmr7b3t57bfs6qan3padb2wnb2i7cl/bin/mpi/mpirun_qchem
QCMACHINEFILE:   ./qchem3743489/hostfile
exp-2-38

#
# env setting
#
exported envs:   QC QCAUX QCSCRATCH QCRUNNAME QCFILEPREF QCPROG QCPROG_S GUIFILE

Running Job 1 of 1 Dimethyl_Naphthalene_Dicarboximide_Phi_15_Theta_250_Thiophene_Hydrogenated_Improper.qcin
qchem Dimethyl_Naphthalene_Dicarboximide_Phi_15_Theta_250_Thiophene_Hydrogenated_Improper.qcin_3743489.0 ./qchem3743489/ 1
/cm/shared/apps/spack/cpu/opt/spack/linux-centos8-zen2/gcc-10.2.0/qchem-5.4-akfmr7b3t57bfs6qan3padb2wnb2i7cl/bin/mpi/mpirun_qchem -machinefile ./qchem3743489/hostfile -np 1 /cm/shared/apps/spack/cpu/opt/spack/linux-centos8-zen2/gcc-10.2.0/qchem-5.4-akfmr7b3t57bfs6qan3padb2wnb2i7cl/exe/qcprog.exe Dimethyl_Naphthalene_Dicarboximide_Phi_15_Theta_250_Thiophene_Hydrogenated_Improper.qcin_3743489.0 ./qchem3743489/

Process 0 of 1 is on exp-2-38 - thread support 0
initial socket setup ...start
initial socket setup ...done 
now start server 0 ... 
                  Welcome to Q-Chem
     A Quantum Leap Into The Future Of Chemistry


 Q-Chem 5.4, Q-Chem, Inc., Pleasanton, CA (2021)

 License issued to: University of California, San Diego (site)

 E. Epifanovsky,  A. T. B. Gilbert,  Xintian Feng,  Joonho Lee,  Yuezhi Mao,  
 N. Mardirossian,  P. Pokhilko,  A. White,  M. Wormit,  M. P. Coons,  
 A. L. Dempwolff,  Zhengting Gan,  D. Hait,  P. R. Horn,  L. D. Jacobson,  
 I. Kaliman,  J. Kussmann,  A. W. Lange,  Ka Un Lao,  D. S. Levine,  Jie Liu,  
 S. C. McKenzie,  A. F. Morrison,  K. Nanda,  F. Plasser,  D. R. Rehn,  
 M. L. Vidal,  Zhi-Qiang You,  Ying Zhu,  B. Alam,  B. Albrecht,  
 A. Aldossary,  E. Alguire,  J. H. Andersen,  D. Barton,  K. Begam,  A. Behn,  
 Y. A. Bernard,  E. J. Berquist,  H. Burton,  A. Carreras,  K. Carter-Fenk,  
 R. Chakraborty,  A. D. Chien,  K. D. Closser,  V. Cofer-Shabica,  
 S. Dasgupta,  Jia Deng,  M. de Wergifosse,  M. Diedenhofen,  Hainam Do,  
 S. Ehlert,  Po-Tung Fang,  S. Fatehi,  Qingguo Feng,  J. Gayvert,  
 Qinghui Ge,  G. Gidofalvi,  M. Goldey,  J. Gomes,  C. Gonzalez-Espinoza,  
 S. Gulania,  A. Gunina,  M. W. D. Hanson-Heine,  P. H. P. Harbach,  
 A. W. Hauser,  M. F. Herbst,  M. Hernandez Vera,  M. Hodecker,  
 Z. C. Holden,  S. Houck,  Xunkun Huang,  Kerwin Hui,  B. C. Huynh,  
 M. Ivanov,  Hyunjun Ji,  Hanjie Jiang,  B. Kaduk,  S. Kaehler,  
 K. Khistyaev,  Jaehoon Kim,  P. Klunzinger,  Z. Koczor-Benda,  
 Joong Hoon Koh,  D. Kosenkov,  L. Koulias,  T. Kowalczyk,  C. M. Krauter,  
 K. Kue,  A. Kunitsa,  T. Kus,  A. Landau,  K. V. Lawler,  D. Lefrancois,  
 S. Lehtola,  Rain Li,  Yi-Pei Li,  Jiashu Liang,  M. Liebenthal,  
 Hung-Hsuan Lin,  You-Sheng Lin,  Fenglai Liu,  Kuan-Yu Liu,  
 M. Loipersberger,  A. Luenser,  A. Manjanath,  P. Manohar,  E. Mansoor,  
 S. F. Manzer,  Shan-Ping Mao,  A. V. Marenich,  T. Markovich,  S. Mason,  
 S. A. Maurer,  P. F. McLaughlin,  M. F. S. J. Menger,  J.-M. Mewes,  
 S. A. Mewes,  P. Morgante,  J. W. Mullinax,  T. S. Nguyen-Beck,  
 K. J. Oosterbaan,  G. Paran,  Alexander C. Paul,  Suranjan K. Paul,  
 F. Pavosevic,  Zheng Pei,  S. Prager,  E. I. Proynov,  E. Ramos,  B. Rana,  
 A. E. Rask,  A. Rettig,  R. M. Richard,  F. Rob,  E. Rossomme,  T. Scheele,  
 M. Scheurer,  M. Schneider,  N. Sergueev,  S. M. Sharada,  W. Skomorowski,  
 D. W. Small,  C. J. Stein,  Yu-Chuan Su,  E. J. Sundstrom,  Zhen Tao,  
 J. Thirman,  T. Tsuchimochi,  N. M. Tubman,  S. P. Veccham,  O. Vydrov,  
 J. Wenzel,  J. Witte,  A. Yamada,  Kun Yao,  S. Yeganeh,  S. R. Yost,  
 A. Zech,  Igor Ying Zhang,  Xing Zhang,  Yu Zhang,  D. Zuev,  
 A. Aspuru-Guzik,  A. T. Bell,  N. A. Besley,  K. B. Bravaya,  B. R. Brooks,  
 D. Casanova,  Jeng-Da Chai,  S. Coriani,  C. J. Cramer,  
 A. E. DePrince, III,  R. A. DiStasio Jr.,  A. Dreuw,  B. D. Dunietz,  
 T. R. Furlani,  W. A. Goddard III,  S. Grimme,  S. Hammes-Schiffer,  
 T. Head-Gordon,  W. J. Hehre,  Chao-Ping Hsu,  T.-C. Jagau,  Yousung Jung,  
 A. Klamt,  Jing Kong,  D. S. Lambrecht,  WanZhen Liang,  N. J. Mayhall,  
 C. W. McCurdy,  J. B. Neaton,  C. Ochsenfeld,  J. A. Parkhill,  R. Peverati,  
 V. A. Rassolov,  Yihan Shao,  L. V. Slipchenko,  T. Stauch,  R. P. Steele,  
 J. E. Subotnik,  A. J. W. Thom,  A. Tkatchenko,  D. G. Truhlar,  
 T. Van Voorhis,  T. A. Wesolowski,  K. B. Whaley,  H. L. Woodcock III,  
 P. M. Zimmerman,  S. Faraji,  P. M. W. Gill,  M. Head-Gordon,  
 J. M. Herbert,  A. I. Krylov

 Contributors to earlier versions of Q-Chem not listed above: 
 R. D. Adamson,  B. Austin,  R. Baer,  J. Baker,  G. J. O. Beran,  
 K. Brandhorst,  S. T. Brown,  E. F. C. Byrd,  A. K. Chakraborty,  
 G. K. L. Chan,  Chun-Min Chang,  Yunqing Chen,  C.-L. Cheng,  
 Siu Hung Chien,  D. M. Chipman,  D. L. Crittenden,  H. Dachsel,  
 R. J. Doerksen,  A. D. Dutoi,  R. G. Edgar,  J. Fosso-Tande,  
 L. Fusti-Molnar,  D. Ghosh,  A. Ghysels,  A. Golubeva-Zadorozhnaya,  
 J. Gonthier,  M. S. Gordon,  S. R. Gwaltney,  G. Hawkins,  J. E. Herr,  
 A. Heyden,  S. Hirata,  E. G. Hohenstein,  G. Kedziora,  F. J. Keil,  
 C. Kelley,  Jihan Kim,  R. A. King,  R. Z. Khaliullin,  P. P. Korambath,  
 W. Kurlancheek,  A. Laurent,  A. M. Lee,  M. S. Lee,  S. V. Levchenko,  
 Ching Yeh Lin,  D. Liotard,  E. Livshits,  R. C. Lochan,  I. Lotan,  
 L. A. Martinez-Martinez,  P. E. Maslen,  N. Nair,  D. P. O'Neill,  
 D. Neuhauser,  E. Neuscamman,  C. M. Oana,  R. Olivares-Amaya,  R. Olson,  
 T. M. Perrine,  B. Peters,  P. A. Pieniazek,  A. Prociuk,  Y. M. Rhee,  
 J. Ritchie,  M. A. Rohrdanz,  E. Rosta,  N. J. Russ,  H. F. Schaefer III,  
 M. W. Schmidt,  N. E. Schultz,  S. Sharma,  N. Shenvi,  C. D. Sherrill,  
 A. C. Simmonett,  A. Sodt,  T. Stein,  D. Stuck,  K. S. Thanthiriwatte,  
 V. Vanovschi,  L. Vogt,  Tao Wang,  A. Warshel,  M. A. Watson,  
 C. F. Williams,  Q. Wu,  X. Xu,  Jun Yang,  W. Zhang,  Yan Zhao

 Please cite Q-Chem as follows:
 Y. Shao et al., Mol. Phys. 113, 184-215 (2015)
 DOI: 10.1080/00268976.2014.952696

 Q-Chem 5.4.0 for Intel X86 EM64T Linux

 Parts of Q-Chem use Armadillo 9.800.1 (Horizon Scraper).
 http://arma.sourceforge.net/

 Q-Chem begins on Sun Sep 24 16:04:09 2023  

 Host: 
0

     Scratch files written to ./qchem3743489//
 May1621 |scratch|qcdevops|jenkins|workspace|build_RNUM    
 Parallel job on  1  processors
 Processing $rem in /cm/shared/apps/spack/cpu/opt/spack/linux-centos8-zen2/gcc-10.2.0/qchem-5.4-akfmr7b3t57bfs6qan3padb2wnb2i7cl/config/preferences:
 Processing $rem in /home/rramji/.qchemrc:
 Symmetry turned off for PCM/SM12/SMD calculation
 Core orbitals will be frozen

 Checking the input file for inconsistencies... 	...done.

 Q-Chem warning in module forms1/BasisType.C, line 2236:

 You are not using the predefined 5D/6D in this basis set.


--------------------------------------------------------------
User input:
--------------------------------------------------------------
$molecule
0 1
C	-0.133053	-0.381707	-0.208958
S	0.072047	0.384493	1.371542
C	0.495847	1.966393	0.695942
C	0.125047	0.582293	-1.194358
C	0.466647	1.857593	-0.702458
H	0.064147	0.354693	-2.268858
H	0.694647	2.708493	-1.361558
C	-0.133053	-1.859907	-0.208958
H	-0.501953	-1.860507	-1.223958
H	0.794047	-2.299207	-0.546358
H	-0.896953	-2.570907	0.069242
H	0.723747	2.817093	1.347042
$end

$rem
JOBTYPE		SP
EXCHANGE	HF
CORRELATION	pRIMP2
BASIS		cc-pvtz
METHOD		rimp2
AUX_BASIS	rimp2-cc-pvtz
SOLVENT_METHOD	PCM
PURECART	11111
SYMMETRY	false
MEM_TOTAL	110000
SCF_CONVERGENCE = 6
THRESH=10
GUI = 2
$end



$solvent
dielectric 4.90
$end
--------------------------------------------------------------
 ----------------------------------------------------------------
             Standard Nuclear Orientation (Angstroms)
    I     Atom           X                Y                Z
 ----------------------------------------------------------------
    1      C      -0.1330530000    -0.3817070000    -0.2089580000
    2      S       0.0720470000     0.3844930000     1.3715420000
    3      C       0.4958470000     1.9663930000     0.6959420000
    4      C       0.1250470000     0.5822930000    -1.1943580000
    5      C       0.4666470000     1.8575930000    -0.7024580000
    6      H       0.0641470000     0.3546930000    -2.2688580000
    7      H       0.6946470000     2.7084930000    -1.3615580000
    8      C      -0.1330530000    -1.8599070000    -0.2089580000
    9      H      -0.5019530000    -1.8605070000    -1.2239580000
   10      H       0.7940470000    -2.2992070000    -0.5463580000
   11      H      -0.8969530000    -2.5709070000     0.0692420000
   12      H       0.7237470000     2.8170930000     1.3470420000
 ----------------------------------------------------------------
 Nuclear Repulsion Energy =         270.16376228 hartrees
 There are       26 alpha and       26 beta electrons
 Requested basis set is cc-pVTZ
 There are 98 shells and 268 basis functions

 Total QAlloc Memory Limit 110000 MB
 Mega-Array Size       188 MB
 MEM_STATIC part       192 MB
 Discretize the solute cavity surface with Lebedev spheres
	Using 110 Lebedev grid points for each H atom
	Using 194 Lebedev grid points for other atoms
	Atomic van der Waals radii will be scaled by 1.20
 Remove points where switching function is < 1.0e-08
 Keep 887 surface tesserae and discard 937 interior tesserae
 Molecular Surface Area = 137.872 Angst**2

                       Distance Matrix (Angstroms)
             C (  1)   S (  2)   C (  3)   C (  4)   C (  5)   H (  6)
   S (  2)  1.768363
   C (  3)  2.593826  1.771567
   C (  4)  1.402471  2.574058  2.372016
   C (  5)  2.370158  2.574337  1.402930  1.408917
   H (  6)  2.196443  3.640531  3.402055  1.100028  2.207787
   H (  7)  3.400428  3.641214  2.196256  2.207516  1.100194  2.600211
   C (  8)  1.478200  2.752704  3.981825  2.646124  3.797761  3.030929
   H (  9)  1.831164  3.479385  4.396224  2.522157  3.877424  2.513841
   H ( 10)  2.156423  3.376666  4.452817  3.028285  4.172594  3.246990
   H ( 11)  2.335281  3.371845  4.787456  3.547371  4.697503  3.866466
   H ( 12)  3.658902  2.518503  1.095244  3.436784  2.277541  4.424163
             H (  7)   C (  8)   H (  9)   H ( 10)   H ( 11)
   C (  8)  4.783707
   H (  9)  4.725097  1.079960
   H ( 10)  5.074593  1.079971  1.526832
   H ( 11)  5.696705  1.080028  1.527436  1.819963
   H ( 12)  2.710932  5.002956  5.476525  5.455862  5.769747
 
 Requested basis set is rimp2-cc-pVTZ
 There are 207 shells and 707 basis functions
 A cutoff of  1.0D-10 yielded   4376 shell pairs
 There are     32848 function pairs (     42484 Cartesian)
 Smallest overlap matrix eigenvalue = 1.23E-04

 Scale SEOQF with 1.000000e+00/1.000000e-01/1.000000e-01

 Standard Electronic Orientation quadrupole field applied
 Nucleus-field energy     =     0.0000000033 hartrees
 Guess from superposition of atomic densities
 Warning:  Energy on first SCF cycle will be non-variational
 SAD guess density has 52.000000 electrons

 -----------------------------------------------------------------------
  General SCF calculation program by
  Eric Jon Sundstrom, Paul Horn, Yuezhi Mao, Dmitri Zuev, Alec White,
  David Stuck, Shaama M.S., Shane Yost, Joonho Lee, David Small,
  Daniel Levine, Susi Lehtola, Hugh Burton, Evgeny Epifanovsky,
  Bang C. Huynh
 -----------------------------------------------------------------------
 Hartree-Fock
 using 64 threads for integral computing
 -------------------------------------------------------
 OpenMP Integral computing Module                
 Release: version 1.0, May 2013, Q-Chem Inc. Pittsburgh 
 -------------------------------------------------------
 A restricted SCF calculation will be
 performed using DIIS
 SCF converges when DIIS error is below 1.0e-06
 ---------------------------------------
  Cycle       Energy         DIIS error
 ---------------------------------------
    1    -592.5738382172      3.22e-02  
    2    -590.3013883488      2.14e-03  
    3    -590.3612473906      7.68e-04  
    4    -590.3677686784      3.76e-04  
    5    -590.3695266051      6.99e-05  
    6    -590.3696465502      2.99e-05  
    7    -590.3696761601      1.47e-05  
    8    -590.3696857686      5.65e-06  
    9    -590.3696873624      2.03e-06  
   10    -590.3696875045      6.05e-07  Convergence criterion met
 ---------------------------------------
 SCF time:   CPU 486.04s  wall 9.00s 

************** Final PCM Free Energy Summary **************
 G_electrostatic  =      -0.00574871 hartree =      -3.60736969 kcal/mol
 G_cavitation     =       0.00000000 hartree =       0.00000000 kcal/mol
 G_dispersion     =       0.00000000 hartree =       0.00000000 kcal/mol
 G_repulsion      =       0.00000000 hartree =       0.00000000 kcal/mol
 --------------------------------------------------
 Non-electrostatic Free Energy =       0.00000000 hartree =       0.00000000 kcal/mol
 Total                         =      -0.00574871 hartree =      -3.60736969 kcal/mol
 --------------------------------------------------
 SCF Energy (H0 + V/2)                       =    -590.36968750 
 Solute Internal Energy (H0)                 =    -590.36393879 
 Total Free Energy (H0 + V/2 + non-elec)     =    -590.36968750 hartree
                                             = -370462.57030039 kcal/mol
***********************************************************

 SCF   energy in the final basis set =     -590.3696875045
 Total energy in the final basis set =     -590.3696875045


 --------------------------------------------------------------
  Generalized many-body perturbation theory program
  by Joonho Lee, Fazle Rob, Xintian Feng, Evgeny Epifanovsky

 No regularization used 
 (reg. param. = 0.0000e+00)
  (P|Q)^-1/2 Time:  CPU 6.30 s  wall 0.10 s

 In RI-MP2 calculation: 
 # of frozen core orbitals: 10

 Components of the RIMP2 correlation energy:
        aaaa    correlation energy =        -0.1256030791 a.u.
        abab    correlation energy =        -0.7518035013 a.u.
        bbbb    correlation energy =        -0.1256030791 a.u.
        non-Brillouin singles      =        -0.0000000000 a.u.
        total same-spin energy     =        -0.2512061583 a.u.
        total opposite-spin energy =        -0.7518035013 a.u.

 Total  RIMP2   correlation energy =        -1.0030096596 a.u.
        RIMP2         total energy =      -591.3726971641 a.u.

 RI-MP2 Energy Time:  CPU 24.55 s  wall 0.45 s
 
 --------------------------------------------------------------
 
                    Orbital Energies (a.u.)
 --------------------------------------------------------------
 
 Alpha MOs
 -- Occupied --
-91.9745 -11.2847 -11.2688 -11.2432 -11.2411 -11.2235  -8.9746  -6.6555
 -6.6549  -6.6544  -1.1573  -1.0380  -0.9727  -0.9188  -0.7544  -0.7241
 -0.6721  -0.5975  -0.5697  -0.5605  -0.5397  -0.5005  -0.4668  -0.4372
 -0.3449  -0.3104
 -- Virtual --
  0.1021   0.1486   0.1605   0.1767   0.1887   0.1947   0.2123   0.2302
  0.2389   0.2541   0.3117   0.3358   0.3630   0.3662   0.3943   0.3999
  0.4127   0.4514   0.4587   0.4674   0.4924   0.5172   0.5203   0.5354
  0.5385   0.5492   0.5661   0.5845   0.5960   0.6093   0.6152   0.6206
  0.6342   0.6527   0.6642   0.6646   0.6871   0.7208   0.7269   0.7478
  0.7887   0.8008   0.8272   0.8649   0.8758   0.8874   0.9019   0.9231
  0.9543   0.9806   1.0016   1.0172   1.0620   1.0794   1.0965   1.1202
  1.1439   1.1644   1.1700   1.1952   1.2164   1.2247   1.2570   1.2639
  1.2895   1.3163   1.3242   1.3371   1.3535   1.3927   1.4260   1.4446
  1.4708   1.4943   1.5255   1.5361   1.5413   1.5575   1.5654   1.5810
  1.5869   1.6278   1.6541   1.6964   1.7089   1.7371   1.7479   1.7871
  1.8259   1.8874   1.8970   1.9158   1.9476   1.9930   2.0515   2.0876
  2.1472   2.1693   2.1845   2.2157   2.2525   2.2793   2.3416   2.4020
  2.4300   2.4612   2.4980   2.5099   2.5765   2.5880   2.6353   2.6518
  2.6794   2.7134   2.7357   2.7394   2.7419   2.7688   2.8067   2.8502
  2.8833   2.8949   2.9335   2.9427   3.0009   3.0116   3.0197   3.0350
  3.0773   3.1026   3.1125   3.1482   3.1520   3.1919   3.2223   3.2509
  3.2626   3.2691   3.2917   3.3118   3.3329   3.3441   3.3486   3.3767
  3.4029   3.4244   3.4406   3.4507   3.4632   3.4696   3.4932   3.5011
  3.5131   3.5269   3.5443   3.5863   3.5881   3.6144   3.6306   3.6615
  3.6767   3.6891   3.7199   3.7392   3.7537   3.7699   3.8032   3.8309
  3.8495   3.8823   3.8961   3.9158   3.9281   3.9505   3.9699   3.9759
  4.0019   4.0267   4.0449   4.0925   4.1278   4.1597   4.1683   4.2064
  4.2188   4.2389   4.2469   4.2859   4.3014   4.3702   4.3885   4.4279
  4.4297   4.4381   4.4563   4.5055   4.5634   4.5804   4.6301   4.6333
  4.6823   4.6922   4.6988   4.7657   4.7984   4.8125   4.8484   4.8880
  4.9570   4.9854   5.0193   5.0554   5.0890   5.1304   5.1775   5.1892
  5.2067   5.2936   5.3574   5.4186   5.4276   5.4852   5.5318   5.5816
  5.6443   5.6946   5.8039   5.8487   5.8905   5.9689   6.0147   6.0444
  6.0884   6.2964   6.4161   6.4668   6.6730   9.4092  11.2822  12.7536
 13.9572  14.2922
 --------------------------------------------------------------
 
          Ground-State Mulliken Net Atomic Charges

     Atom                 Charge (a.u.)
  ----------------------------------------
      1 C                     0.026428
      2 S                    -0.006466
      3 C                    -0.227751
      4 C                    -0.226008
      5 C                    -0.196155
      6 H                     0.182895
      7 H                     0.186482
      8 C                    -0.359895
      9 H                     0.119191
     10 H                     0.131205
     11 H                     0.166424
     12 H                     0.203649
  ----------------------------------------
  Sum of atomic charges =     0.000000

 -----------------------------------------------------------------
                    Cartesian Multipole Moments
 -----------------------------------------------------------------
    Charge (ESU x 10^10)
                -0.0000
    Dipole Moment (Debye)
         X       0.1294      Y      -0.3769      Z      -1.7608
       Tot       1.8053
    Quadrupole Moments (Debye-Ang)
        XX     -46.9012     XY       2.9789     YY     -36.6360
        XZ       0.0050     YZ       1.9365     ZZ     -42.0604
    Octopole Moments (Debye-Ang^2)
       XXX     -20.2587    XXY     -20.4109    XYY      -1.8539
       YYY     -40.7069    XXZ      -6.8593    XYZ       1.5835
       YYZ      -5.6938    XZZ      -3.9718    YZZ      -9.2138
       ZZZ     -27.6624
    Hexadecapole Moments (Debye-Ang^3)
      XXXX     -89.2596   XXXY     -50.4636   XXYY    -103.6283
      XYYY     -19.8669   YYYY    -487.4336   XXXZ      -3.2191
      XXYZ      -6.5305   XYYZ      -0.3264   YYYZ      -9.3303
      XXZZ     -71.6537   XYZZ      -9.2430   YYZZ    -126.2504
      XZZZ      -1.1351   YZZZ     -19.7628   ZZZZ    -309.1756
 -----------------------------------------------------------------
 Total job time:  10.40s(wall), 547.59s(cpu) 
 Sun Sep 24 16:04:19 2023

        *************************************************************
        *                                                           *
        *  Thank you very much for using Q-Chem.  Have a nice day.  *
        *                                                           *
        *************************************************************


0 sent ACK to 0 
now end server 0 ... 
cleanup process ... done
remove work dirs ./qchem3743489.0 -- ./qchem3743489.0
rm -rf ./qchem3743489.0
rm -rf ./qchem3743489
