You are running Q-Chem version: 5.4.0

#
# job setting
#
local host:  exp-3-02
current dir: /expanse/lustre/projects/csd626/rramji/aromodel/PNDIT/Hydrogenated_Impropers_Test
input file:  Dimethyl_Naphthalene_Dicarboximide_Phi_5_Theta_340_Thiophene_Hydrogenated_Improper.qcin
output file: 
nprocs     : 1
nthreads   : 64
#
# qchem installation setting
#
QC:          /cm/shared/apps/spack/cpu/opt/spack/linux-centos8-zen2/gcc-10.2.0/qchem-5.4-akfmr7b3t57bfs6qan3padb2wnb2i7cl
QCAUX:       /cm/shared/apps/spack/cpu/opt/spack/linux-centos8-zen2/gcc-10.2.0/qchem-5.4-akfmr7b3t57bfs6qan3padb2wnb2i7cl/qcaux
QCPROG:      /cm/shared/apps/spack/cpu/opt/spack/linux-centos8-zen2/gcc-10.2.0/qchem-5.4-akfmr7b3t57bfs6qan3padb2wnb2i7cl/exe/qcprog.exe
QCPROG_S:    /cm/shared/apps/spack/cpu/opt/spack/linux-centos8-zen2/gcc-10.2.0/qchem-5.4-akfmr7b3t57bfs6qan3padb2wnb2i7cl/exe/qcprog.exe_s
PARALLEL:    -DPARALLEL
QCMPI:       mpich
#
# qchem directory setting
#
qcrun:       qchem1053212
QCSCRATCH:   .
QCLOCALSCR:  
QCTMPDIR:    .
QCFILEPREF:  ./qchem1053212
QCSAVEDIR:   
workdirs:    ./qchem1053212
workdir0:    ./qchem1053212
partmpdirs =  
#
# parallel setting
#
QCRSH:           ssh
QCMPI:           mpich
QCMPIRUN:        /cm/shared/apps/spack/cpu/opt/spack/linux-centos8-zen2/gcc-10.2.0/qchem-5.4-akfmr7b3t57bfs6qan3padb2wnb2i7cl/bin/mpi/mpirun_qchem
QCMACHINEFILE:   ./qchem1053212/hostfile
exp-3-02

#
# env setting
#
exported envs:   QC QCAUX QCSCRATCH QCRUNNAME QCFILEPREF QCPROG QCPROG_S GUIFILE

Running Job 1 of 1 Dimethyl_Naphthalene_Dicarboximide_Phi_5_Theta_340_Thiophene_Hydrogenated_Improper.qcin
qchem Dimethyl_Naphthalene_Dicarboximide_Phi_5_Theta_340_Thiophene_Hydrogenated_Improper.qcin_1053212.0 ./qchem1053212/ 1
/cm/shared/apps/spack/cpu/opt/spack/linux-centos8-zen2/gcc-10.2.0/qchem-5.4-akfmr7b3t57bfs6qan3padb2wnb2i7cl/bin/mpi/mpirun_qchem -machinefile ./qchem1053212/hostfile -np 1 /cm/shared/apps/spack/cpu/opt/spack/linux-centos8-zen2/gcc-10.2.0/qchem-5.4-akfmr7b3t57bfs6qan3padb2wnb2i7cl/exe/qcprog.exe Dimethyl_Naphthalene_Dicarboximide_Phi_5_Theta_340_Thiophene_Hydrogenated_Improper.qcin_1053212.0 ./qchem1053212/

Process 0 of 1 is on exp-3-02 - thread support 0
initial socket setup ...start
initial socket setup ...done 
now start server 0 ... 
                  Welcome to Q-Chem
     A Quantum Leap Into The Future Of Chemistry


 Q-Chem 5.4, Q-Chem, Inc., Pleasanton, CA (2021)

 License issued to: University of California, San Diego (site)

 E. Epifanovsky,  A. T. B. Gilbert,  Xintian Feng,  Joonho Lee,  Yuezhi Mao,  
 N. Mardirossian,  P. Pokhilko,  A. White,  M. Wormit,  M. P. Coons,  
 A. L. Dempwolff,  Zhengting Gan,  D. Hait,  P. R. Horn,  L. D. Jacobson,  
 I. Kaliman,  J. Kussmann,  A. W. Lange,  Ka Un Lao,  D. S. Levine,  Jie Liu,  
 S. C. McKenzie,  A. F. Morrison,  K. Nanda,  F. Plasser,  D. R. Rehn,  
 M. L. Vidal,  Zhi-Qiang You,  Ying Zhu,  B. Alam,  B. Albrecht,  
 A. Aldossary,  E. Alguire,  J. H. Andersen,  D. Barton,  K. Begam,  A. Behn,  
 Y. A. Bernard,  E. J. Berquist,  H. Burton,  A. Carreras,  K. Carter-Fenk,  
 R. Chakraborty,  A. D. Chien,  K. D. Closser,  V. Cofer-Shabica,  
 S. Dasgupta,  Jia Deng,  M. de Wergifosse,  M. Diedenhofen,  Hainam Do,  
 S. Ehlert,  Po-Tung Fang,  S. Fatehi,  Qingguo Feng,  J. Gayvert,  
 Qinghui Ge,  G. Gidofalvi,  M. Goldey,  J. Gomes,  C. Gonzalez-Espinoza,  
 S. Gulania,  A. Gunina,  M. W. D. Hanson-Heine,  P. H. P. Harbach,  
 A. W. Hauser,  M. F. Herbst,  M. Hernandez Vera,  M. Hodecker,  
 Z. C. Holden,  S. Houck,  Xunkun Huang,  Kerwin Hui,  B. C. Huynh,  
 M. Ivanov,  Hyunjun Ji,  Hanjie Jiang,  B. Kaduk,  S. Kaehler,  
 K. Khistyaev,  Jaehoon Kim,  P. Klunzinger,  Z. Koczor-Benda,  
 Joong Hoon Koh,  D. Kosenkov,  L. Koulias,  T. Kowalczyk,  C. M. Krauter,  
 K. Kue,  A. Kunitsa,  T. Kus,  A. Landau,  K. V. Lawler,  D. Lefrancois,  
 S. Lehtola,  Rain Li,  Yi-Pei Li,  Jiashu Liang,  M. Liebenthal,  
 Hung-Hsuan Lin,  You-Sheng Lin,  Fenglai Liu,  Kuan-Yu Liu,  
 M. Loipersberger,  A. Luenser,  A. Manjanath,  P. Manohar,  E. Mansoor,  
 S. F. Manzer,  Shan-Ping Mao,  A. V. Marenich,  T. Markovich,  S. Mason,  
 S. A. Maurer,  P. F. McLaughlin,  M. F. S. J. Menger,  J.-M. Mewes,  
 S. A. Mewes,  P. Morgante,  J. W. Mullinax,  T. S. Nguyen-Beck,  
 K. J. Oosterbaan,  G. Paran,  Alexander C. Paul,  Suranjan K. Paul,  
 F. Pavosevic,  Zheng Pei,  S. Prager,  E. I. Proynov,  E. Ramos,  B. Rana,  
 A. E. Rask,  A. Rettig,  R. M. Richard,  F. Rob,  E. Rossomme,  T. Scheele,  
 M. Scheurer,  M. Schneider,  N. Sergueev,  S. M. Sharada,  W. Skomorowski,  
 D. W. Small,  C. J. Stein,  Yu-Chuan Su,  E. J. Sundstrom,  Zhen Tao,  
 J. Thirman,  T. Tsuchimochi,  N. M. Tubman,  S. P. Veccham,  O. Vydrov,  
 J. Wenzel,  J. Witte,  A. Yamada,  Kun Yao,  S. Yeganeh,  S. R. Yost,  
 A. Zech,  Igor Ying Zhang,  Xing Zhang,  Yu Zhang,  D. Zuev,  
 A. Aspuru-Guzik,  A. T. Bell,  N. A. Besley,  K. B. Bravaya,  B. R. Brooks,  
 D. Casanova,  Jeng-Da Chai,  S. Coriani,  C. J. Cramer,  
 A. E. DePrince, III,  R. A. DiStasio Jr.,  A. Dreuw,  B. D. Dunietz,  
 T. R. Furlani,  W. A. Goddard III,  S. Grimme,  S. Hammes-Schiffer,  
 T. Head-Gordon,  W. J. Hehre,  Chao-Ping Hsu,  T.-C. Jagau,  Yousung Jung,  
 A. Klamt,  Jing Kong,  D. S. Lambrecht,  WanZhen Liang,  N. J. Mayhall,  
 C. W. McCurdy,  J. B. Neaton,  C. Ochsenfeld,  J. A. Parkhill,  R. Peverati,  
 V. A. Rassolov,  Yihan Shao,  L. V. Slipchenko,  T. Stauch,  R. P. Steele,  
 J. E. Subotnik,  A. J. W. Thom,  A. Tkatchenko,  D. G. Truhlar,  
 T. Van Voorhis,  T. A. Wesolowski,  K. B. Whaley,  H. L. Woodcock III,  
 P. M. Zimmerman,  S. Faraji,  P. M. W. Gill,  M. Head-Gordon,  
 J. M. Herbert,  A. I. Krylov

 Contributors to earlier versions of Q-Chem not listed above: 
 R. D. Adamson,  B. Austin,  R. Baer,  J. Baker,  G. J. O. Beran,  
 K. Brandhorst,  S. T. Brown,  E. F. C. Byrd,  A. K. Chakraborty,  
 G. K. L. Chan,  Chun-Min Chang,  Yunqing Chen,  C.-L. Cheng,  
 Siu Hung Chien,  D. M. Chipman,  D. L. Crittenden,  H. Dachsel,  
 R. J. Doerksen,  A. D. Dutoi,  R. G. Edgar,  J. Fosso-Tande,  
 L. Fusti-Molnar,  D. Ghosh,  A. Ghysels,  A. Golubeva-Zadorozhnaya,  
 J. Gonthier,  M. S. Gordon,  S. R. Gwaltney,  G. Hawkins,  J. E. Herr,  
 A. Heyden,  S. Hirata,  E. G. Hohenstein,  G. Kedziora,  F. J. Keil,  
 C. Kelley,  Jihan Kim,  R. A. King,  R. Z. Khaliullin,  P. P. Korambath,  
 W. Kurlancheek,  A. Laurent,  A. M. Lee,  M. S. Lee,  S. V. Levchenko,  
 Ching Yeh Lin,  D. Liotard,  E. Livshits,  R. C. Lochan,  I. Lotan,  
 L. A. Martinez-Martinez,  P. E. Maslen,  N. Nair,  D. P. O'Neill,  
 D. Neuhauser,  E. Neuscamman,  C. M. Oana,  R. Olivares-Amaya,  R. Olson,  
 T. M. Perrine,  B. Peters,  P. A. Pieniazek,  A. Prociuk,  Y. M. Rhee,  
 J. Ritchie,  M. A. Rohrdanz,  E. Rosta,  N. J. Russ,  H. F. Schaefer III,  
 M. W. Schmidt,  N. E. Schultz,  S. Sharma,  N. Shenvi,  C. D. Sherrill,  
 A. C. Simmonett,  A. Sodt,  T. Stein,  D. Stuck,  K. S. Thanthiriwatte,  
 V. Vanovschi,  L. Vogt,  Tao Wang,  A. Warshel,  M. A. Watson,  
 C. F. Williams,  Q. Wu,  X. Xu,  Jun Yang,  W. Zhang,  Yan Zhao

 Please cite Q-Chem as follows:
 Y. Shao et al., Mol. Phys. 113, 184-215 (2015)
 DOI: 10.1080/00268976.2014.952696

 Q-Chem 5.4.0 for Intel X86 EM64T Linux

 Parts of Q-Chem use Armadillo 9.800.1 (Horizon Scraper).
 http://arma.sourceforge.net/

 Q-Chem begins on Sun Sep 24 16:03:59 2023  

 Host: 
0

     Scratch files written to ./qchem1053212//
 May1621 |scratch|qcdevops|jenkins|workspace|build_RNUM    
 Parallel job on  1  processors
 Processing $rem in /cm/shared/apps/spack/cpu/opt/spack/linux-centos8-zen2/gcc-10.2.0/qchem-5.4-akfmr7b3t57bfs6qan3padb2wnb2i7cl/config/preferences:
 Processing $rem in /home/rramji/.qchemrc:
 Symmetry turned off for PCM/SM12/SMD calculation
 Core orbitals will be frozen

 Checking the input file for inconsistencies... 	...done.

 Q-Chem warning in module forms1/BasisType.C, line 2236:

 You are not using the predefined 5D/6D in this basis set.


--------------------------------------------------------------
User input:
--------------------------------------------------------------
$molecule
0 1
C	-0.050619	-0.397395	-0.213418
S	0.018281	0.392805	1.367082
C	0.160981	2.024305	0.691482
C	0.036181	0.596805	-1.198818
C	0.151181	1.912005	-0.706918
H	0.015681	0.362105	-2.273318
H	0.227881	2.789605	-1.366018
C	-0.050619	-1.875595	-0.213418
H	0.964381	-1.876195	-0.582318
H	0.286781	-2.314895	0.713682
H	-0.328819	-2.586595	-0.977318
H	0.237681	2.901605	1.342582
$end

$rem
JOBTYPE		SP
EXCHANGE	HF
CORRELATION	pRIMP2
BASIS		cc-pvtz
METHOD		rimp2
AUX_BASIS	rimp2-cc-pvtz
SOLVENT_METHOD	PCM
PURECART	11111
SYMMETRY	false
MEM_TOTAL	110000
SCF_CONVERGENCE = 6
THRESH=10
GUI = 2
$end



$solvent
dielectric 4.90
$end
--------------------------------------------------------------
 ----------------------------------------------------------------
             Standard Nuclear Orientation (Angstroms)
    I     Atom           X                Y                Z
 ----------------------------------------------------------------
    1      C      -0.0506190000    -0.3973950000    -0.2134180000
    2      S       0.0182810000     0.3928050000     1.3670820000
    3      C       0.1609810000     2.0243050000     0.6914820000
    4      C       0.0361810000     0.5968050000    -1.1988180000
    5      C       0.1511810000     1.9120050000    -0.7069180000
    6      H       0.0156810000     0.3621050000    -2.2733180000
    7      H       0.2278810000     2.7896050000    -1.3660180000
    8      C      -0.0506190000    -1.8755950000    -0.2134180000
    9      H       0.9643810000    -1.8761950000    -0.5823180000
   10      H       0.2867810000    -2.3148950000     0.7136820000
   11      H      -0.3288190000    -2.5865950000    -0.9773180000
   12      H       0.2376810000     2.9016050000     1.3425820000
 ----------------------------------------------------------------
 Nuclear Repulsion Energy =         270.29006142 hartrees
 There are       26 alpha and       26 beta electrons
 Requested basis set is cc-pVTZ
 There are 98 shells and 268 basis functions

 Total QAlloc Memory Limit 110000 MB
 Mega-Array Size       188 MB
 MEM_STATIC part       192 MB
 Discretize the solute cavity surface with Lebedev spheres
	Using 110 Lebedev grid points for each H atom
	Using 194 Lebedev grid points for other atoms
	Atomic van der Waals radii will be scaled by 1.20
 Remove points where switching function is < 1.0e-08
 Keep 900 surface tesserae and discard 924 interior tesserae
 Molecular Surface Area = 138.204 Angst**2

                       Distance Matrix (Angstroms)
             C (  1)   S (  2)   C (  3)   C (  4)   C (  5)   H (  6)
   S (  2)  1.768373
   C (  3)  2.593887  1.771607
   C (  4)  1.402491  2.574059  2.372038
   C (  5)  2.370146  2.574317  1.402936  1.408880
   H (  6)  2.196457  3.640530  3.402067  1.100025  2.207750
   H (  7)  3.400444  3.641211  2.196239  2.207505  1.100217  2.600188
   C (  8)  1.478200  2.765568  4.009094  2.662951  3.824942  3.042184
   H (  9)  1.831164  3.137455  4.181138  2.712445  3.876503  2.961334
   H ( 10)  2.156423  2.798332  4.341080  3.492628  4.461297  4.020198
   H ( 11)  2.335281  3.807035  4.928001  3.211903  4.532209  3.239310
   H ( 12)  3.658914  2.518494  1.095203  3.436775  2.277551  4.424147
             H (  7)   C (  8)   H (  9)   H ( 10)   H ( 11)
   C (  8)  4.813537
   H (  9)  4.788142  1.079960
   H ( 10)  5.512217  1.079971  1.526832
   H ( 11)  5.418905  1.080028  1.527436  1.819963
   H ( 12)  2.710932  5.032484  5.201991  5.254503  5.985248
 
 Requested basis set is rimp2-cc-pVTZ
 There are 207 shells and 707 basis functions
 A cutoff of  1.0D-10 yielded   4365 shell pairs
 There are     32669 function pairs (     42219 Cartesian)
 Smallest overlap matrix eigenvalue = 1.10E-04

 Scale SEOQF with 1.000000e+00/1.000000e-01/1.000000e-01

 Standard Electronic Orientation quadrupole field applied
 Nucleus-field energy     =     0.0000000021 hartrees
 Guess from superposition of atomic densities
 Warning:  Energy on first SCF cycle will be non-variational
 SAD guess density has 52.000000 electrons

 -----------------------------------------------------------------------
  General SCF calculation program by
  Eric Jon Sundstrom, Paul Horn, Yuezhi Mao, Dmitri Zuev, Alec White,
  David Stuck, Shaama M.S., Shane Yost, Joonho Lee, David Small,
  Daniel Levine, Susi Lehtola, Hugh Burton, Evgeny Epifanovsky,
  Bang C. Huynh
 -----------------------------------------------------------------------
 Hartree-Fock
 using 64 threads for integral computing
 -------------------------------------------------------
 OpenMP Integral computing Module                
 Release: version 1.0, May 2013, Q-Chem Inc. Pittsburgh 
 -------------------------------------------------------
 A restricted SCF calculation will be
 performed using DIIS
 SCF converges when DIIS error is below 1.0e-06
 ---------------------------------------
  Cycle       Energy         DIIS error
 ---------------------------------------
    1    -592.5724687239      3.22e-02  
    2    -590.3031558118      2.21e-03  
    3    -590.3642286513      8.59e-04  
    4    -590.3716994296      4.06e-04  
    5    -590.3737867819      6.92e-05  
    6    -590.3739074786      3.19e-05  
    7    -590.3739361302      1.39e-05  
    8    -590.3739451599      5.61e-06  
    9    -590.3739465480      1.85e-06  
   10    -590.3739466787      6.35e-07  Convergence criterion met
 ---------------------------------------
 SCF time:   CPU 473.73s  wall 8.00s 

************** Final PCM Free Energy Summary **************
 G_electrostatic  =      -0.00603944 hartree =      -3.78980742 kcal/mol
 G_cavitation     =       0.00000000 hartree =       0.00000000 kcal/mol
 G_dispersion     =       0.00000000 hartree =       0.00000000 kcal/mol
 G_repulsion      =       0.00000000 hartree =       0.00000000 kcal/mol
 --------------------------------------------------
 Non-electrostatic Free Energy =       0.00000000 hartree =       0.00000000 kcal/mol
 Total                         =      -0.00603944 hartree =      -3.78980742 kcal/mol
 --------------------------------------------------
 SCF Energy (H0 + V/2)                       =    -590.37394668 
 Solute Internal Energy (H0)                 =    -590.36790724 
 Total Free Energy (H0 + V/2 + non-elec)     =    -590.37394668 hartree
                                             = -370465.24297251 kcal/mol
***********************************************************

 SCF   energy in the final basis set =     -590.3739466787
 Total energy in the final basis set =     -590.3739466787


 --------------------------------------------------------------
  Generalized many-body perturbation theory program
  by Joonho Lee, Fazle Rob, Xintian Feng, Evgeny Epifanovsky

 No regularization used 
 (reg. param. = 0.0000e+00)
  (P|Q)^-1/2 Time:  CPU 6.06 s  wall 0.10 s

 In RI-MP2 calculation: 
 # of frozen core orbitals: 10

 Components of the RIMP2 correlation energy:
        aaaa    correlation energy =        -0.1250798258 a.u.
        abab    correlation energy =        -0.7501111181 a.u.
        bbbb    correlation energy =        -0.1250798258 a.u.
        non-Brillouin singles      =        -0.0000000000 a.u.
        total same-spin energy     =        -0.2501596517 a.u.
        total opposite-spin energy =        -0.7501111181 a.u.

 Total  RIMP2   correlation energy =        -1.0002707698 a.u.
        RIMP2         total energy =      -591.3742174484 a.u.

 RI-MP2 Energy Time:  CPU 25.06 s  wall 0.44 s
 
 --------------------------------------------------------------
 
                    Orbital Energies (a.u.)
 --------------------------------------------------------------
 
 Alpha MOs
 -- Occupied --
-91.9794 -11.2918 -11.2618 -11.2430 -11.2307 -11.2281  -8.9791  -6.6600
 -6.6595  -6.6589  -1.1569  -1.0405  -0.9713  -0.9194  -0.7543  -0.7224
 -0.6715  -0.5974  -0.5657  -0.5545  -0.5451  -0.4974  -0.4743  -0.4555
 -0.3463  -0.2987
 -- Virtual --
  0.1125   0.1469   0.1602   0.1800   0.1867   0.1921   0.2149   0.2240
  0.2375   0.2487   0.3166   0.3280   0.3528   0.3649   0.3878   0.4119
  0.4261   0.4429   0.4599   0.4889   0.5015   0.5141   0.5238   0.5409
  0.5484   0.5560   0.5778   0.5825   0.5873   0.6117   0.6174   0.6259
  0.6333   0.6408   0.6456   0.6532   0.6990   0.7077   0.7388   0.7809
  0.7898   0.7951   0.8448   0.8726   0.8777   0.8820   0.8904   0.9171
  0.9668   0.9813   1.0036   1.0389   1.0599   1.0662   1.0827   1.1163
  1.1371   1.1619   1.1677   1.1838   1.2232   1.2363   1.2382   1.2685
  1.2874   1.3052   1.3290   1.3451   1.3948   1.4115   1.4367   1.4505
  1.4836   1.4929   1.5061   1.5159   1.5291   1.5441   1.5628   1.5745
  1.5947   1.6189   1.6502   1.6958   1.7267   1.7578   1.7785   1.7913
  1.8289   1.8853   1.9115   1.9361   1.9490   1.9955   2.0625   2.0772
  2.1571   2.1694   2.2193   2.2335   2.2589   2.2942   2.3021   2.4200
  2.4264   2.4496   2.4756   2.5288   2.5584   2.5789   2.6342   2.6544
  2.7105   2.7203   2.7336   2.7446   2.7654   2.7711   2.7947   2.8055
  2.8790   2.8975   2.9147   2.9710   2.9924   3.0088   3.0252   3.0448
  3.0587   3.0875   3.1132   3.1386   3.1643   3.2036   3.2247   3.2441
  3.2655   3.2785   3.3002   3.3077   3.3134   3.3450   3.3572   3.3857
  3.4031   3.4300   3.4382   3.4549   3.4596   3.4722   3.4818   3.4991
  3.5116   3.5165   3.5486   3.5568   3.5874   3.6244   3.6251   3.6726
  3.6822   3.6966   3.7175   3.7331   3.7644   3.7836   3.7986   3.8369
  3.8524   3.8876   3.9021   3.9143   3.9432   3.9512   3.9780   3.9984
  4.0286   4.0350   4.0643   4.1172   4.1286   4.1591   4.1658   4.1874
  4.2337   4.2604   4.2835   4.2974   4.3140   4.3548   4.3640   4.3870
  4.4222   4.4603   4.4897   4.4924   4.5529   4.5684   4.5899   4.6280
  4.6614   4.6942   4.7398   4.7711   4.7884   4.8178   4.8502   4.8978
  4.9486   4.9994   5.0192   5.0384   5.0640   5.1358   5.1603   5.1948
  5.2324   5.3031   5.3580   5.4228   5.4683   5.4996   5.5362   5.5738
  5.6322   5.6976   5.7964   5.8099   5.8837   5.9664   6.0146   6.0887
  6.1478   6.3434   6.4206   6.4807   6.7292   9.3780  11.3289  12.8741
 13.9106  14.3156
 --------------------------------------------------------------
 
          Ground-State Mulliken Net Atomic Charges

     Atom                 Charge (a.u.)
  ----------------------------------------
      1 C                     0.032120
      2 S                     0.001921
      3 C                    -0.250913
      4 C                    -0.243953
      5 C                    -0.186734
      6 H                     0.179551
      7 H                     0.185515
      8 C                    -0.364499
      9 H                     0.141677
     10 H                     0.137276
     11 H                     0.164401
     12 H                     0.203638
  ----------------------------------------
  Sum of atomic charges =     0.000000

 -----------------------------------------------------------------
                    Cartesian Multipole Moments
 -----------------------------------------------------------------
    Charge (ESU x 10^10)
                -0.0000
    Dipole Moment (Debye)
         X       0.7908      Y      -0.8441      Z      -1.2928
       Tot       1.7347
    Quadrupole Moments (Debye-Ang)
        XX     -48.2208     XY      -0.5748     YY     -36.0264
        XZ       0.1092     YZ       1.5401     ZZ     -41.6805
    Octopole Moments (Debye-Ang^2)
       XXX      -7.6673    XXY     -21.2051    XYY       2.0750
       YYY     -43.4452    XXZ      -7.2018    XYZ      -0.2500
       YYZ      -6.2329    XZZ      -1.6714    YZZ     -11.9730
       ZZZ     -27.7981
    Hexadecapole Moments (Debye-Ang^3)
      XXXX     -67.3753   XXXY     -15.1692   XXYY    -117.0331
      XYYY      -9.7736   YYYY    -498.2424   XXXZ      -1.1991
      XXYZ      -6.9035   XYYZ       2.3446   YYYZ      -5.0138
      XXZZ     -70.0127   XYZZ      -1.9691   YYZZ    -121.8972
      XZZZ       0.0783   YZZZ     -15.2773   ZZZZ    -307.8010
 -----------------------------------------------------------------
 Total job time:  10.07s(wall), 537.88s(cpu) 
 Sun Sep 24 16:04:09 2023

        *************************************************************
        *                                                           *
        *  Thank you very much for using Q-Chem.  Have a nice day.  *
        *                                                           *
        *************************************************************


0 sent ACK to 0 
now end server 0 ... 
cleanup process ... done
remove work dirs ./qchem1053212.0 -- ./qchem1053212.0
rm -rf ./qchem1053212.0
rm -rf ./qchem1053212
