You are running Q-Chem version: 5.4.0

#
# job setting
#
local host:  exp-2-46
current dir: /expanse/lustre/projects/csd626/rramji/aromodel/PNDIT/Hydrogenated_Impropers_Test
input file:  Dimethyl_Naphthalene_Dicarboximide_Phi_40_Theta_240_Thiophene_Hydrogenated_Improper.qcin
output file: 
nprocs     : 1
nthreads   : 64
#
# qchem installation setting
#
QC:          /cm/shared/apps/spack/cpu/opt/spack/linux-centos8-zen2/gcc-10.2.0/qchem-5.4-akfmr7b3t57bfs6qan3padb2wnb2i7cl
QCAUX:       /cm/shared/apps/spack/cpu/opt/spack/linux-centos8-zen2/gcc-10.2.0/qchem-5.4-akfmr7b3t57bfs6qan3padb2wnb2i7cl/qcaux
QCPROG:      /cm/shared/apps/spack/cpu/opt/spack/linux-centos8-zen2/gcc-10.2.0/qchem-5.4-akfmr7b3t57bfs6qan3padb2wnb2i7cl/exe/qcprog.exe
QCPROG_S:    /cm/shared/apps/spack/cpu/opt/spack/linux-centos8-zen2/gcc-10.2.0/qchem-5.4-akfmr7b3t57bfs6qan3padb2wnb2i7cl/exe/qcprog.exe_s
PARALLEL:    -DPARALLEL
QCMPI:       mpich
#
# qchem directory setting
#
qcrun:       qchem1890616
QCSCRATCH:   .
QCLOCALSCR:  
QCTMPDIR:    .
QCFILEPREF:  ./qchem1890616
QCSAVEDIR:   
workdirs:    ./qchem1890616
workdir0:    ./qchem1890616
partmpdirs =  
#
# parallel setting
#
QCRSH:           ssh
QCMPI:           mpich
QCMPIRUN:        /cm/shared/apps/spack/cpu/opt/spack/linux-centos8-zen2/gcc-10.2.0/qchem-5.4-akfmr7b3t57bfs6qan3padb2wnb2i7cl/bin/mpi/mpirun_qchem
QCMACHINEFILE:   ./qchem1890616/hostfile
exp-2-46

#
# env setting
#
exported envs:   QC QCAUX QCSCRATCH QCRUNNAME QCFILEPREF QCPROG QCPROG_S GUIFILE

Running Job 1 of 1 Dimethyl_Naphthalene_Dicarboximide_Phi_40_Theta_240_Thiophene_Hydrogenated_Improper.qcin
qchem Dimethyl_Naphthalene_Dicarboximide_Phi_40_Theta_240_Thiophene_Hydrogenated_Improper.qcin_1890616.0 ./qchem1890616/ 1
/cm/shared/apps/spack/cpu/opt/spack/linux-centos8-zen2/gcc-10.2.0/qchem-5.4-akfmr7b3t57bfs6qan3padb2wnb2i7cl/bin/mpi/mpirun_qchem -machinefile ./qchem1890616/hostfile -np 1 /cm/shared/apps/spack/cpu/opt/spack/linux-centos8-zen2/gcc-10.2.0/qchem-5.4-akfmr7b3t57bfs6qan3padb2wnb2i7cl/exe/qcprog.exe Dimethyl_Naphthalene_Dicarboximide_Phi_40_Theta_240_Thiophene_Hydrogenated_Improper.qcin_1890616.0 ./qchem1890616/

Process 0 of 1 is on exp-2-46 - thread support 0
initial socket setup ...start
initial socket setup ...done 
now start server 0 ... 
                  Welcome to Q-Chem
     A Quantum Leap Into The Future Of Chemistry


 Q-Chem 5.4, Q-Chem, Inc., Pleasanton, CA (2021)

 License issued to: University of California, San Diego (site)

 E. Epifanovsky,  A. T. B. Gilbert,  Xintian Feng,  Joonho Lee,  Yuezhi Mao,  
 N. Mardirossian,  P. Pokhilko,  A. White,  M. Wormit,  M. P. Coons,  
 A. L. Dempwolff,  Zhengting Gan,  D. Hait,  P. R. Horn,  L. D. Jacobson,  
 I. Kaliman,  J. Kussmann,  A. W. Lange,  Ka Un Lao,  D. S. Levine,  Jie Liu,  
 S. C. McKenzie,  A. F. Morrison,  K. Nanda,  F. Plasser,  D. R. Rehn,  
 M. L. Vidal,  Zhi-Qiang You,  Ying Zhu,  B. Alam,  B. Albrecht,  
 A. Aldossary,  E. Alguire,  J. H. Andersen,  D. Barton,  K. Begam,  A. Behn,  
 Y. A. Bernard,  E. J. Berquist,  H. Burton,  A. Carreras,  K. Carter-Fenk,  
 R. Chakraborty,  A. D. Chien,  K. D. Closser,  V. Cofer-Shabica,  
 S. Dasgupta,  Jia Deng,  M. de Wergifosse,  M. Diedenhofen,  Hainam Do,  
 S. Ehlert,  Po-Tung Fang,  S. Fatehi,  Qingguo Feng,  J. Gayvert,  
 Qinghui Ge,  G. Gidofalvi,  M. Goldey,  J. Gomes,  C. Gonzalez-Espinoza,  
 S. Gulania,  A. Gunina,  M. W. D. Hanson-Heine,  P. H. P. Harbach,  
 A. W. Hauser,  M. F. Herbst,  M. Hernandez Vera,  M. Hodecker,  
 Z. C. Holden,  S. Houck,  Xunkun Huang,  Kerwin Hui,  B. C. Huynh,  
 M. Ivanov,  Hyunjun Ji,  Hanjie Jiang,  B. Kaduk,  S. Kaehler,  
 K. Khistyaev,  Jaehoon Kim,  P. Klunzinger,  Z. Koczor-Benda,  
 Joong Hoon Koh,  D. Kosenkov,  L. Koulias,  T. Kowalczyk,  C. M. Krauter,  
 K. Kue,  A. Kunitsa,  T. Kus,  A. Landau,  K. V. Lawler,  D. Lefrancois,  
 S. Lehtola,  Rain Li,  Yi-Pei Li,  Jiashu Liang,  M. Liebenthal,  
 Hung-Hsuan Lin,  You-Sheng Lin,  Fenglai Liu,  Kuan-Yu Liu,  
 M. Loipersberger,  A. Luenser,  A. Manjanath,  P. Manohar,  E. Mansoor,  
 S. F. Manzer,  Shan-Ping Mao,  A. V. Marenich,  T. Markovich,  S. Mason,  
 S. A. Maurer,  P. F. McLaughlin,  M. F. S. J. Menger,  J.-M. Mewes,  
 S. A. Mewes,  P. Morgante,  J. W. Mullinax,  T. S. Nguyen-Beck,  
 K. J. Oosterbaan,  G. Paran,  Alexander C. Paul,  Suranjan K. Paul,  
 F. Pavosevic,  Zheng Pei,  S. Prager,  E. I. Proynov,  E. Ramos,  B. Rana,  
 A. E. Rask,  A. Rettig,  R. M. Richard,  F. Rob,  E. Rossomme,  T. Scheele,  
 M. Scheurer,  M. Schneider,  N. Sergueev,  S. M. Sharada,  W. Skomorowski,  
 D. W. Small,  C. J. Stein,  Yu-Chuan Su,  E. J. Sundstrom,  Zhen Tao,  
 J. Thirman,  T. Tsuchimochi,  N. M. Tubman,  S. P. Veccham,  O. Vydrov,  
 J. Wenzel,  J. Witte,  A. Yamada,  Kun Yao,  S. Yeganeh,  S. R. Yost,  
 A. Zech,  Igor Ying Zhang,  Xing Zhang,  Yu Zhang,  D. Zuev,  
 A. Aspuru-Guzik,  A. T. Bell,  N. A. Besley,  K. B. Bravaya,  B. R. Brooks,  
 D. Casanova,  Jeng-Da Chai,  S. Coriani,  C. J. Cramer,  
 A. E. DePrince, III,  R. A. DiStasio Jr.,  A. Dreuw,  B. D. Dunietz,  
 T. R. Furlani,  W. A. Goddard III,  S. Grimme,  S. Hammes-Schiffer,  
 T. Head-Gordon,  W. J. Hehre,  Chao-Ping Hsu,  T.-C. Jagau,  Yousung Jung,  
 A. Klamt,  Jing Kong,  D. S. Lambrecht,  WanZhen Liang,  N. J. Mayhall,  
 C. W. McCurdy,  J. B. Neaton,  C. Ochsenfeld,  J. A. Parkhill,  R. Peverati,  
 V. A. Rassolov,  Yihan Shao,  L. V. Slipchenko,  T. Stauch,  R. P. Steele,  
 J. E. Subotnik,  A. J. W. Thom,  A. Tkatchenko,  D. G. Truhlar,  
 T. Van Voorhis,  T. A. Wesolowski,  K. B. Whaley,  H. L. Woodcock III,  
 P. M. Zimmerman,  S. Faraji,  P. M. W. Gill,  M. Head-Gordon,  
 J. M. Herbert,  A. I. Krylov

 Contributors to earlier versions of Q-Chem not listed above: 
 R. D. Adamson,  B. Austin,  R. Baer,  J. Baker,  G. J. O. Beran,  
 K. Brandhorst,  S. T. Brown,  E. F. C. Byrd,  A. K. Chakraborty,  
 G. K. L. Chan,  Chun-Min Chang,  Yunqing Chen,  C.-L. Cheng,  
 Siu Hung Chien,  D. M. Chipman,  D. L. Crittenden,  H. Dachsel,  
 R. J. Doerksen,  A. D. Dutoi,  R. G. Edgar,  J. Fosso-Tande,  
 L. Fusti-Molnar,  D. Ghosh,  A. Ghysels,  A. Golubeva-Zadorozhnaya,  
 J. Gonthier,  M. S. Gordon,  S. R. Gwaltney,  G. Hawkins,  J. E. Herr,  
 A. Heyden,  S. Hirata,  E. G. Hohenstein,  G. Kedziora,  F. J. Keil,  
 C. Kelley,  Jihan Kim,  R. A. King,  R. Z. Khaliullin,  P. P. Korambath,  
 W. Kurlancheek,  A. Laurent,  A. M. Lee,  M. S. Lee,  S. V. Levchenko,  
 Ching Yeh Lin,  D. Liotard,  E. Livshits,  R. C. Lochan,  I. Lotan,  
 L. A. Martinez-Martinez,  P. E. Maslen,  N. Nair,  D. P. O'Neill,  
 D. Neuhauser,  E. Neuscamman,  C. M. Oana,  R. Olivares-Amaya,  R. Olson,  
 T. M. Perrine,  B. Peters,  P. A. Pieniazek,  A. Prociuk,  Y. M. Rhee,  
 J. Ritchie,  M. A. Rohrdanz,  E. Rosta,  N. J. Russ,  H. F. Schaefer III,  
 M. W. Schmidt,  N. E. Schultz,  S. Sharma,  N. Shenvi,  C. D. Sherrill,  
 A. C. Simmonett,  A. Sodt,  T. Stein,  D. Stuck,  K. S. Thanthiriwatte,  
 V. Vanovschi,  L. Vogt,  Tao Wang,  A. Warshel,  M. A. Watson,  
 C. F. Williams,  Q. Wu,  X. Xu,  Jun Yang,  W. Zhang,  Yan Zhao

 Please cite Q-Chem as follows:
 Y. Shao et al., Mol. Phys. 113, 184-215 (2015)
 DOI: 10.1080/00268976.2014.952696

 Q-Chem 5.4.0 for Intel X86 EM64T Linux

 Parts of Q-Chem use Armadillo 9.800.1 (Horizon Scraper).
 http://arma.sourceforge.net/

 Q-Chem begins on Sun Sep 24 15:13:30 2023  

 Host: 
0

     Scratch files written to ./qchem1890616//
 May1621 |scratch|qcdevops|jenkins|workspace|build_RNUM    
 Parallel job on  1  processors
 Processing $rem in /cm/shared/apps/spack/cpu/opt/spack/linux-centos8-zen2/gcc-10.2.0/qchem-5.4-akfmr7b3t57bfs6qan3padb2wnb2i7cl/config/preferences:
 Processing $rem in /home/rramji/.qchemrc:
 Symmetry turned off for PCM/SM12/SMD calculation
 Core orbitals will be frozen

 Checking the input file for inconsistencies... 	...done.

 Q-Chem warning in module forms1/BasisType.C, line 2236:

 You are not using the predefined 5D/6D in this basis set.


--------------------------------------------------------------
User input:
--------------------------------------------------------------
$molecule
0 1
C	-0.331213	-0.278098	-0.209225
S	0.178487	0.329602	1.371275
C	1.231187	1.584202	0.695675
C	0.310187	0.486502	-1.194625
C	1.158687	1.497902	-0.702725
H	0.158687	0.306002	-2.269125
H	1.724887	2.172802	-1.361825
C	-0.331213	-1.756298	-0.209225
H	-0.870713	-1.756898	-1.144825
H	0.523287	-2.195598	-0.702525
H	-1.035213	-2.467298	0.197375
H	1.797187	2.258902	1.346775
$end

$rem
JOBTYPE		SP
EXCHANGE	HF
CORRELATION	pRIMP2
BASIS		cc-pvtz
METHOD		rimp2
AUX_BASIS	rimp2-cc-pvtz
SOLVENT_METHOD	PCM
PURECART	11111
SYMMETRY	false
MEM_TOTAL	110000
SCF_CONVERGENCE = 6
THRESH=10
GUI = 2
$end



$solvent
dielectric 4.90
$end
--------------------------------------------------------------
 ----------------------------------------------------------------
             Standard Nuclear Orientation (Angstroms)
    I     Atom           X                Y                Z
 ----------------------------------------------------------------
    1      C      -0.3312130000    -0.2780980000    -0.2092250000
    2      S       0.1784870000     0.3296020000     1.3712750000
    3      C       1.2311870000     1.5842020000     0.6956750000
    4      C       0.3101870000     0.4865020000    -1.1946250000
    5      C       1.1586870000     1.4979020000    -0.7027250000
    6      H       0.1586870000     0.3060020000    -2.2691250000
    7      H       1.7248870000     2.1728020000    -1.3618250000
    8      C      -0.3312130000    -1.7562980000    -0.2092250000
    9      H      -0.8707130000    -1.7568980000    -1.1448250000
   10      H       0.5232870000    -2.1955980000    -0.7025250000
   11      H      -1.0352130000    -2.4672980000     0.1973750000
   12      H       1.7971870000     2.2589020000     1.3467750000
 ----------------------------------------------------------------
 Nuclear Repulsion Energy =         272.16969905 hartrees
 There are       26 alpha and       26 beta electrons
 Requested basis set is cc-pVTZ
 There are 98 shells and 268 basis functions

 Total QAlloc Memory Limit 110000 MB
 Mega-Array Size       188 MB
 MEM_STATIC part       192 MB
 Discretize the solute cavity surface with Lebedev spheres
	Using 110 Lebedev grid points for each H atom
	Using 194 Lebedev grid points for other atoms
	Atomic van der Waals radii will be scaled by 1.20
 Remove points where switching function is < 1.0e-08
 Keep 870 surface tesserae and discard 954 interior tesserae
 Molecular Surface Area = 137.330 Angst**2

                       Distance Matrix (Angstroms)
             C (  1)   S (  2)   C (  3)   C (  4)   C (  5)   H (  6)
   S (  2)  1.768353
   C (  3)  2.593858  1.771619
   C (  4)  1.402505  2.574064  2.372008
   C (  5)  2.370131  2.574333  1.402935  1.408846
   H (  6)  2.196443  3.640530  3.402072  1.100038  2.207767
   H (  7)  3.400433  3.641233  2.196246  2.207474  1.100221  2.600215
   C (  8)  1.478200  2.666225  3.797220  2.532303  3.612916  2.955718
   H (  9)  1.831190  3.432938  4.355270  2.535715  3.861041  2.565009
   H ( 10)  2.156460  3.285752  4.091818  2.735185  3.747756  2.974083
   H ( 11)  2.335281  3.267072  4.668996  3.531671  4.620194  3.898745
   H ( 12)  3.658906  2.518529  1.095220  3.436755  2.277554  4.424165
             H (  7)   C (  8)   H (  9)   H ( 10)   H ( 11)
   C (  8)  4.581906
   H (  9)  4.714528  1.080004
   H ( 10)  4.578366  1.080046  1.526867
   H ( 11)  5.619589  1.080028  1.527491  1.820045
   H ( 12)  2.710932  4.803442  5.427008  5.066066  5.628550
 
 Requested basis set is rimp2-cc-pVTZ
 There are 207 shells and 707 basis functions
 A cutoff of  1.0D-10 yielded   4427 shell pairs
 There are     33287 function pairs (     43059 Cartesian)
 Smallest overlap matrix eigenvalue = 1.55E-04

 Scale SEOQF with 1.000000e-01/1.000000e-01/1.000000e-01

 Standard Electronic Orientation quadrupole field applied
 Nucleus-field energy     =     0.0000000004 hartrees
 Guess from superposition of atomic densities
 Warning:  Energy on first SCF cycle will be non-variational
 SAD guess density has 52.000000 electrons

 -----------------------------------------------------------------------
  General SCF calculation program by
  Eric Jon Sundstrom, Paul Horn, Yuezhi Mao, Dmitri Zuev, Alec White,
  David Stuck, Shaama M.S., Shane Yost, Joonho Lee, David Small,
  Daniel Levine, Susi Lehtola, Hugh Burton, Evgeny Epifanovsky,
  Bang C. Huynh
 -----------------------------------------------------------------------
 Hartree-Fock
 using 64 threads for integral computing
 -------------------------------------------------------
 OpenMP Integral computing Module                
 Release: version 1.0, May 2013, Q-Chem Inc. Pittsburgh 
 -------------------------------------------------------
 A restricted SCF calculation will be
 performed using DIIS
 SCF converges when DIIS error is below 1.0e-06
 ---------------------------------------
  Cycle       Energy         DIIS error
 ---------------------------------------
    1    -592.6031347154      3.24e-02  
    2    -590.2751150169      2.12e-03  
    3    -590.3348640118      7.32e-04  
    4    -590.3412420926      3.48e-04  
    5    -590.3428053038      6.95e-05  
    6    -590.3429329252      2.82e-05  
    7    -590.3429674376      1.50e-05  
    8    -590.3429782259      5.47e-06  
    9    -590.3429801086      2.66e-06  
   10    -590.3429803091      8.49e-07  Convergence criterion met
 ---------------------------------------
 SCF time:   CPU 514.32s  wall 9.00s 

************** Final PCM Free Energy Summary **************
 G_electrostatic  =      -0.00560056 hartree =      -3.51440134 kcal/mol
 G_cavitation     =       0.00000000 hartree =       0.00000000 kcal/mol
 G_dispersion     =       0.00000000 hartree =       0.00000000 kcal/mol
 G_repulsion      =       0.00000000 hartree =       0.00000000 kcal/mol
 --------------------------------------------------
 Non-electrostatic Free Energy =       0.00000000 hartree =       0.00000000 kcal/mol
 Total                         =      -0.00560056 hartree =      -3.51440134 kcal/mol
 --------------------------------------------------
 SCF Energy (H0 + V/2)                       =    -590.34298031 
 Solute Internal Energy (H0)                 =    -590.33737975 
 Total Free Energy (H0 + V/2 + non-elec)     =    -590.34298031 hartree
                                             = -370445.81128231 kcal/mol
***********************************************************

 SCF   energy in the final basis set =     -590.3429803091
 Total energy in the final basis set =     -590.3429803091


 --------------------------------------------------------------
  Generalized many-body perturbation theory program
  by Joonho Lee, Fazle Rob, Xintian Feng, Evgeny Epifanovsky

 No regularization used 
 (reg. param. = 0.0000e+00)
  (P|Q)^-1/2 Time:  CPU 7.04 s  wall 0.12 s

 In RI-MP2 calculation: 
 # of frozen core orbitals: 10

 Components of the RIMP2 correlation energy:
        aaaa    correlation energy =        -0.1266098704 a.u.
        abab    correlation energy =        -0.7557255700 a.u.
        bbbb    correlation energy =        -0.1266098704 a.u.
        non-Brillouin singles      =        -0.0000000000 a.u.
        total same-spin energy     =        -0.2532197408 a.u.
        total opposite-spin energy =        -0.7557255700 a.u.

 Total  RIMP2   correlation energy =        -1.0089453108 a.u.
        RIMP2         total energy =      -591.3519256198 a.u.

 RI-MP2 Energy Time:  CPU 26.83 s  wall 0.48 s
 
 --------------------------------------------------------------
 
                    Orbital Energies (a.u.)
 --------------------------------------------------------------
 
 Alpha MOs
 -- Occupied --
-91.9732 -11.2771 -11.2724 -11.2474 -11.2441 -11.2191  -8.9737  -6.6545
 -6.6538  -6.6535  -1.1610  -1.0366  -0.9746  -0.9146  -0.7570  -0.7255
 -0.6711  -0.5950  -0.5711  -0.5589  -0.5395  -0.4983  -0.4647  -0.4313
 -0.3443  -0.3076
 -- Virtual --
  0.0806   0.1526   0.1601   0.1766   0.1853   0.1941   0.2171   0.2263
  0.2409   0.2486   0.2976   0.3280   0.3562   0.3716   0.3920   0.4080
  0.4151   0.4487   0.4571   0.4671   0.4752   0.5004   0.5252   0.5338
  0.5401   0.5513   0.5597   0.5830   0.5939   0.6063   0.6107   0.6245
  0.6248   0.6474   0.6580   0.6689   0.6769   0.7077   0.7325   0.7522
  0.7749   0.7969   0.8141   0.8528   0.8669   0.8865   0.9160   0.9299
  0.9739   0.9787   0.9977   1.0316   1.0680   1.0766   1.0931   1.1424
  1.1461   1.1504   1.1737   1.2062   1.2210   1.2297   1.2513   1.2793
  1.2970   1.3000   1.3286   1.3590   1.3762   1.3962   1.4151   1.4280
  1.4644   1.4775   1.5091   1.5240   1.5321   1.5421   1.5559   1.5827
  1.6199   1.6331   1.6446   1.6748   1.7016   1.7151   1.7584   1.8041
  1.8380   1.8734   1.9017   1.9085   1.9636   1.9984   2.0351   2.0990
  2.1359   2.1621   2.1737   2.2061   2.2523   2.2538   2.3343   2.3582
  2.4246   2.4542   2.4864   2.5159   2.5691   2.5927   2.6344   2.6578
  2.7009   2.7105   2.7378   2.7488   2.7585   2.7704   2.8220   2.8390
  2.8840   2.9197   2.9466   2.9687   2.9994   3.0031   3.0336   3.0573
  3.0728   3.1119   3.1181   3.1389   3.1762   3.1803   3.2219   3.2365
  3.2549   3.2648   3.2856   3.3119   3.3225   3.3400   3.3545   3.3799
  3.3952   3.4156   3.4374   3.4429   3.4543   3.4636   3.4978   3.5085
  3.5117   3.5355   3.5539   3.5784   3.5894   3.5988   3.6583   3.6593
  3.6745   3.6834   3.7132   3.7365   3.7698   3.8054   3.8194   3.8321
  3.8704   3.9051   3.9169   3.9293   3.9374   3.9643   3.9760   3.9898
  4.0060   4.0330   4.0624   4.1080   4.1257   4.1655   4.1696   4.1988
  4.2330   4.2452   4.2717   4.2986   4.3186   4.3684   4.4103   4.4198
  4.4385   4.4658   4.4780   4.5229   4.5534   4.5839   4.6080   4.6471
  4.6711   4.6982   4.7209   4.7504   4.7874   4.8129   4.8339   4.8804
  4.9226   5.0071   5.0257   5.0436   5.0904   5.1280   5.1427   5.1790
  5.1902   5.2919   5.3508   5.4201   5.4432   5.4846   5.5340   5.5910
  5.6553   5.6693   5.7823   5.8282   5.8688   5.9343   5.9989   6.0751
  6.0796   6.3143   6.3856   6.4725   6.6101   9.5344  11.4272  12.6422
 13.8536  14.2368
 --------------------------------------------------------------
 
          Ground-State Mulliken Net Atomic Charges

     Atom                 Charge (a.u.)
  ----------------------------------------
      1 C                    -0.024876
      2 S                     0.000768
      3 C                    -0.199201
      4 C                    -0.185581
      5 C                    -0.208363
      6 H                     0.182743
      7 H                     0.187058
      8 C                    -0.367279
      9 H                     0.114475
     10 H                     0.139179
     11 H                     0.157055
     12 H                     0.204022
  ----------------------------------------
  Sum of atomic charges =     0.000000

 -----------------------------------------------------------------
                    Cartesian Multipole Moments
 -----------------------------------------------------------------
    Charge (ESU x 10^10)
                 0.0000
    Dipole Moment (Debye)
         X       0.8664      Y      -0.1692      Z      -1.7088
       Tot       1.9233
    Quadrupole Moments (Debye-Ang)
        XX     -43.8727     XY       5.4850     YY     -40.1314
        XZ       0.2697     YZ       1.5606     ZZ     -41.7312
    Octopole Moments (Debye-Ang^2)
       XXX     -43.1019    XXY      -6.8473    XYY      -7.7407
       YYY     -34.7679    XXZ      -4.9439    XYZ       3.1106
       YYZ      -5.8414    XZZ      -9.8430    YZZ      -6.0045
       ZZZ     -28.2621
    Hexadecapole Moments (Debye-Ang^3)
      XXXX    -196.1087   XXXY     -83.5309   XXYY     -80.9432
      XYYY     -68.0255   YYYY    -405.7315   XXXZ      -4.9662
      XXYZ      -3.6146   XYYZ      -0.4769   YYYZ     -12.8181
      XXZZ     -80.3642   XYZZ     -19.1335   YYZZ    -113.5695
      XZZZ      -3.9199   YZZZ     -18.9578   ZZZZ    -308.4420
 -----------------------------------------------------------------
 Total job time:  11.18s(wall), 592.53s(cpu) 
 Sun Sep 24 15:13:41 2023

        *************************************************************
        *                                                           *
        *  Thank you very much for using Q-Chem.  Have a nice day.  *
        *                                                           *
        *************************************************************


0 sent ACK to 0 
now end server 0 ... 
cleanup process ... done
remove work dirs ./qchem1890616.0 -- ./qchem1890616.0
rm -rf ./qchem1890616.0
rm -rf ./qchem1890616
