You are running Q-Chem version: 5.4.0

#
# job setting
#
local host:  exp-2-38
current dir: /expanse/lustre/projects/csd626/rramji/aromodel/PNDIT/Hydrogenated_Impropers_Test
input file:  Dimethyl_Naphthalene_Dicarboximide_Phi_0_Theta_290_Thiophene_Hydrogenated_Improper.qcin
output file: 
nprocs     : 1
nthreads   : 64
#
# qchem installation setting
#
QC:          /cm/shared/apps/spack/cpu/opt/spack/linux-centos8-zen2/gcc-10.2.0/qchem-5.4-akfmr7b3t57bfs6qan3padb2wnb2i7cl
QCAUX:       /cm/shared/apps/spack/cpu/opt/spack/linux-centos8-zen2/gcc-10.2.0/qchem-5.4-akfmr7b3t57bfs6qan3padb2wnb2i7cl/qcaux
QCPROG:      /cm/shared/apps/spack/cpu/opt/spack/linux-centos8-zen2/gcc-10.2.0/qchem-5.4-akfmr7b3t57bfs6qan3padb2wnb2i7cl/exe/qcprog.exe
QCPROG_S:    /cm/shared/apps/spack/cpu/opt/spack/linux-centos8-zen2/gcc-10.2.0/qchem-5.4-akfmr7b3t57bfs6qan3padb2wnb2i7cl/exe/qcprog.exe_s
PARALLEL:    -DPARALLEL
QCMPI:       mpich
#
# qchem directory setting
#
qcrun:       qchem3722931
QCSCRATCH:   .
QCLOCALSCR:  
QCTMPDIR:    .
QCFILEPREF:  ./qchem3722931
QCSAVEDIR:   
workdirs:    ./qchem3722931
workdir0:    ./qchem3722931
partmpdirs =  
#
# parallel setting
#
QCRSH:           ssh
QCMPI:           mpich
QCMPIRUN:        /cm/shared/apps/spack/cpu/opt/spack/linux-centos8-zen2/gcc-10.2.0/qchem-5.4-akfmr7b3t57bfs6qan3padb2wnb2i7cl/bin/mpi/mpirun_qchem
QCMACHINEFILE:   ./qchem3722931/hostfile
exp-2-38

#
# env setting
#
exported envs:   QC QCAUX QCSCRATCH QCRUNNAME QCFILEPREF QCPROG QCPROG_S GUIFILE

Running Job 1 of 1 Dimethyl_Naphthalene_Dicarboximide_Phi_0_Theta_290_Thiophene_Hydrogenated_Improper.qcin
qchem Dimethyl_Naphthalene_Dicarboximide_Phi_0_Theta_290_Thiophene_Hydrogenated_Improper.qcin_3722931.0 ./qchem3722931/ 1
/cm/shared/apps/spack/cpu/opt/spack/linux-centos8-zen2/gcc-10.2.0/qchem-5.4-akfmr7b3t57bfs6qan3padb2wnb2i7cl/bin/mpi/mpirun_qchem -machinefile ./qchem3722931/hostfile -np 1 /cm/shared/apps/spack/cpu/opt/spack/linux-centos8-zen2/gcc-10.2.0/qchem-5.4-akfmr7b3t57bfs6qan3padb2wnb2i7cl/exe/qcprog.exe Dimethyl_Naphthalene_Dicarboximide_Phi_0_Theta_290_Thiophene_Hydrogenated_Improper.qcin_3722931.0 ./qchem3722931/

Process 0 of 1 is on exp-2-38 - thread support 0
initial socket setup ...start
initial socket setup ...done 
now start server 0 ... 
                  Welcome to Q-Chem
     A Quantum Leap Into The Future Of Chemistry


 Q-Chem 5.4, Q-Chem, Inc., Pleasanton, CA (2021)

 License issued to: University of California, San Diego (site)

 E. Epifanovsky,  A. T. B. Gilbert,  Xintian Feng,  Joonho Lee,  Yuezhi Mao,  
 N. Mardirossian,  P. Pokhilko,  A. White,  M. Wormit,  M. P. Coons,  
 A. L. Dempwolff,  Zhengting Gan,  D. Hait,  P. R. Horn,  L. D. Jacobson,  
 I. Kaliman,  J. Kussmann,  A. W. Lange,  Ka Un Lao,  D. S. Levine,  Jie Liu,  
 S. C. McKenzie,  A. F. Morrison,  K. Nanda,  F. Plasser,  D. R. Rehn,  
 M. L. Vidal,  Zhi-Qiang You,  Ying Zhu,  B. Alam,  B. Albrecht,  
 A. Aldossary,  E. Alguire,  J. H. Andersen,  D. Barton,  K. Begam,  A. Behn,  
 Y. A. Bernard,  E. J. Berquist,  H. Burton,  A. Carreras,  K. Carter-Fenk,  
 R. Chakraborty,  A. D. Chien,  K. D. Closser,  V. Cofer-Shabica,  
 S. Dasgupta,  Jia Deng,  M. de Wergifosse,  M. Diedenhofen,  Hainam Do,  
 S. Ehlert,  Po-Tung Fang,  S. Fatehi,  Qingguo Feng,  J. Gayvert,  
 Qinghui Ge,  G. Gidofalvi,  M. Goldey,  J. Gomes,  C. Gonzalez-Espinoza,  
 S. Gulania,  A. Gunina,  M. W. D. Hanson-Heine,  P. H. P. Harbach,  
 A. W. Hauser,  M. F. Herbst,  M. Hernandez Vera,  M. Hodecker,  
 Z. C. Holden,  S. Houck,  Xunkun Huang,  Kerwin Hui,  B. C. Huynh,  
 M. Ivanov,  Hyunjun Ji,  Hanjie Jiang,  B. Kaduk,  S. Kaehler,  
 K. Khistyaev,  Jaehoon Kim,  P. Klunzinger,  Z. Koczor-Benda,  
 Joong Hoon Koh,  D. Kosenkov,  L. Koulias,  T. Kowalczyk,  C. M. Krauter,  
 K. Kue,  A. Kunitsa,  T. Kus,  A. Landau,  K. V. Lawler,  D. Lefrancois,  
 S. Lehtola,  Rain Li,  Yi-Pei Li,  Jiashu Liang,  M. Liebenthal,  
 Hung-Hsuan Lin,  You-Sheng Lin,  Fenglai Liu,  Kuan-Yu Liu,  
 M. Loipersberger,  A. Luenser,  A. Manjanath,  P. Manohar,  E. Mansoor,  
 S. F. Manzer,  Shan-Ping Mao,  A. V. Marenich,  T. Markovich,  S. Mason,  
 S. A. Maurer,  P. F. McLaughlin,  M. F. S. J. Menger,  J.-M. Mewes,  
 S. A. Mewes,  P. Morgante,  J. W. Mullinax,  T. S. Nguyen-Beck,  
 K. J. Oosterbaan,  G. Paran,  Alexander C. Paul,  Suranjan K. Paul,  
 F. Pavosevic,  Zheng Pei,  S. Prager,  E. I. Proynov,  E. Ramos,  B. Rana,  
 A. E. Rask,  A. Rettig,  R. M. Richard,  F. Rob,  E. Rossomme,  T. Scheele,  
 M. Scheurer,  M. Schneider,  N. Sergueev,  S. M. Sharada,  W. Skomorowski,  
 D. W. Small,  C. J. Stein,  Yu-Chuan Su,  E. J. Sundstrom,  Zhen Tao,  
 J. Thirman,  T. Tsuchimochi,  N. M. Tubman,  S. P. Veccham,  O. Vydrov,  
 J. Wenzel,  J. Witte,  A. Yamada,  Kun Yao,  S. Yeganeh,  S. R. Yost,  
 A. Zech,  Igor Ying Zhang,  Xing Zhang,  Yu Zhang,  D. Zuev,  
 A. Aspuru-Guzik,  A. T. Bell,  N. A. Besley,  K. B. Bravaya,  B. R. Brooks,  
 D. Casanova,  Jeng-Da Chai,  S. Coriani,  C. J. Cramer,  
 A. E. DePrince, III,  R. A. DiStasio Jr.,  A. Dreuw,  B. D. Dunietz,  
 T. R. Furlani,  W. A. Goddard III,  S. Grimme,  S. Hammes-Schiffer,  
 T. Head-Gordon,  W. J. Hehre,  Chao-Ping Hsu,  T.-C. Jagau,  Yousung Jung,  
 A. Klamt,  Jing Kong,  D. S. Lambrecht,  WanZhen Liang,  N. J. Mayhall,  
 C. W. McCurdy,  J. B. Neaton,  C. Ochsenfeld,  J. A. Parkhill,  R. Peverati,  
 V. A. Rassolov,  Yihan Shao,  L. V. Slipchenko,  T. Stauch,  R. P. Steele,  
 J. E. Subotnik,  A. J. W. Thom,  A. Tkatchenko,  D. G. Truhlar,  
 T. Van Voorhis,  T. A. Wesolowski,  K. B. Whaley,  H. L. Woodcock III,  
 P. M. Zimmerman,  S. Faraji,  P. M. W. Gill,  M. Head-Gordon,  
 J. M. Herbert,  A. I. Krylov

 Contributors to earlier versions of Q-Chem not listed above: 
 R. D. Adamson,  B. Austin,  R. Baer,  J. Baker,  G. J. O. Beran,  
 K. Brandhorst,  S. T. Brown,  E. F. C. Byrd,  A. K. Chakraborty,  
 G. K. L. Chan,  Chun-Min Chang,  Yunqing Chen,  C.-L. Cheng,  
 Siu Hung Chien,  D. M. Chipman,  D. L. Crittenden,  H. Dachsel,  
 R. J. Doerksen,  A. D. Dutoi,  R. G. Edgar,  J. Fosso-Tande,  
 L. Fusti-Molnar,  D. Ghosh,  A. Ghysels,  A. Golubeva-Zadorozhnaya,  
 J. Gonthier,  M. S. Gordon,  S. R. Gwaltney,  G. Hawkins,  J. E. Herr,  
 A. Heyden,  S. Hirata,  E. G. Hohenstein,  G. Kedziora,  F. J. Keil,  
 C. Kelley,  Jihan Kim,  R. A. King,  R. Z. Khaliullin,  P. P. Korambath,  
 W. Kurlancheek,  A. Laurent,  A. M. Lee,  M. S. Lee,  S. V. Levchenko,  
 Ching Yeh Lin,  D. Liotard,  E. Livshits,  R. C. Lochan,  I. Lotan,  
 L. A. Martinez-Martinez,  P. E. Maslen,  N. Nair,  D. P. O'Neill,  
 D. Neuhauser,  E. Neuscamman,  C. M. Oana,  R. Olivares-Amaya,  R. Olson,  
 T. M. Perrine,  B. Peters,  P. A. Pieniazek,  A. Prociuk,  Y. M. Rhee,  
 J. Ritchie,  M. A. Rohrdanz,  E. Rosta,  N. J. Russ,  H. F. Schaefer III,  
 M. W. Schmidt,  N. E. Schultz,  S. Sharma,  N. Shenvi,  C. D. Sherrill,  
 A. C. Simmonett,  A. Sodt,  T. Stein,  D. Stuck,  K. S. Thanthiriwatte,  
 V. Vanovschi,  L. Vogt,  Tao Wang,  A. Warshel,  M. A. Watson,  
 C. F. Williams,  Q. Wu,  X. Xu,  Jun Yang,  W. Zhang,  Yan Zhao

 Please cite Q-Chem as follows:
 Y. Shao et al., Mol. Phys. 113, 184-215 (2015)
 DOI: 10.1080/00268976.2014.952696

 Q-Chem 5.4.0 for Intel X86 EM64T Linux

 Parts of Q-Chem use Armadillo 9.800.1 (Horizon Scraper).
 http://arma.sourceforge.net/

 Q-Chem begins on Sun Sep 24 15:09:02 2023  

 Host: 
0

     Scratch files written to ./qchem3722931//
 May1621 |scratch|qcdevops|jenkins|workspace|build_RNUM    
 Parallel job on  1  processors
 Processing $rem in /cm/shared/apps/spack/cpu/opt/spack/linux-centos8-zen2/gcc-10.2.0/qchem-5.4-akfmr7b3t57bfs6qan3padb2wnb2i7cl/config/preferences:
 Processing $rem in /home/rramji/.qchemrc:
 Symmetry turned off for PCM/SM12/SMD calculation
 Core orbitals will be frozen

 Checking the input file for inconsistencies... 	...done.

 Q-Chem warning in module forms1/BasisType.C, line 2236:

 You are not using the predefined 5D/6D in this basis set.


--------------------------------------------------------------
User input:
--------------------------------------------------------------
$molecule
0 1
C	-0.002658	-0.399361	-0.209570
S	-0.002858	0.393839	1.370930
C	-0.002858	2.031539	0.695330
C	-0.002858	0.598639	-1.194970
C	-0.002958	1.918839	-0.703070
H	-0.002758	0.362939	-2.269470
H	-0.002958	2.799839	-1.362170
C	-0.002658	-1.877561	-0.209570
H	0.367242	-1.878161	-1.224270
H	0.924442	-2.316861	0.127930
H	-0.766658	-2.588561	-0.487470
H	-0.002958	2.912239	1.346430
$end

$rem
JOBTYPE		SP
EXCHANGE	HF
CORRELATION	pRIMP2
BASIS		cc-pvtz
METHOD		rimp2
AUX_BASIS	rimp2-cc-pvtz
SOLVENT_METHOD	PCM
PURECART	11111
SYMMETRY	false
MEM_TOTAL	110000
SCF_CONVERGENCE = 6
THRESH=10
GUI = 2
$end



$solvent
dielectric 4.90
$end
--------------------------------------------------------------
 ----------------------------------------------------------------
             Standard Nuclear Orientation (Angstroms)
    I     Atom           X                Y                Z
 ----------------------------------------------------------------
    1      C      -0.0026580000    -0.3993610000    -0.2095700000
    2      S      -0.0028580000     0.3938390000     1.3709300000
    3      C      -0.0028580000     2.0315390000     0.6953300000
    4      C      -0.0028580000     0.5986390000    -1.1949700000
    5      C      -0.0029580000     1.9188390000    -0.7030700000
    6      H      -0.0027580000     0.3629390000    -2.2694700000
    7      H      -0.0029580000     2.7998390000    -1.3621700000
    8      C      -0.0026580000    -1.8775610000    -0.2095700000
    9      H       0.3672420000    -1.8781610000    -1.2242700000
   10      H       0.9244420000    -2.3168610000     0.1279300000
   11      H      -0.7666580000    -2.5885610000    -0.4874700000
   12      H      -0.0029580000     2.9122390000     1.3464300000
 ----------------------------------------------------------------
 Nuclear Repulsion Energy =         269.91069020 hartrees
 There are       26 alpha and       26 beta electrons
 Requested basis set is cc-pVTZ
 There are 98 shells and 268 basis functions

 Total QAlloc Memory Limit 110000 MB
 Mega-Array Size       188 MB
 MEM_STATIC part       192 MB
 Discretize the solute cavity surface with Lebedev spheres
	Using 110 Lebedev grid points for each H atom
	Using 194 Lebedev grid points for other atoms
	Atomic van der Waals radii will be scaled by 1.20
 Remove points where switching function is < 1.0e-08
 Keep 893 surface tesserae and discard 931 interior tesserae
 Molecular Surface Area = 138.257 Angst**2

                       Distance Matrix (Angstroms)
             C (  1)   S (  2)   C (  3)   C (  4)   C (  5)   H (  6)
   S (  2)  1.768374
   C (  3)  2.593862  1.771580
   C (  4)  1.402504  2.574060  2.372011
   C (  5)  2.370146  2.574316  1.402934  1.408863
   H (  6)  2.196426  3.640531  3.402097  1.100048  2.207812
   H (  7)  3.400495  3.641246  2.196268  2.207541  1.100261  2.600322
   C (  8)  1.478200  2.767172  4.012469  2.665067  3.828341  3.043522
   H (  9)  1.831199  3.469009  4.371223  2.504470  3.850442  2.500374
   H ( 10)  2.156438  3.122952  4.482233  3.333180  4.414950  3.713294
   H ( 11)  2.335278  3.596074  4.829879  3.352938  4.576721  3.531348
   H ( 12)  3.658938  2.518519  1.095246  3.436780  2.277563  4.424213
             H (  7)   C (  8)   H (  9)   H ( 10)   H ( 11)
   C (  8)  4.817319
   H (  9)  4.694651  1.080020
   H ( 10)  5.409352  1.080002  1.526884
   H ( 11)  5.512095  1.080021  1.527505  1.819988
   H ( 12)  2.710931  5.036201  5.449172  5.448697  5.848524
 
 Requested basis set is rimp2-cc-pVTZ
 There are 207 shells and 707 basis functions
 A cutoff of  1.0D-10 yielded   4371 shell pairs
 There are     32737 function pairs (     42307 Cartesian)
 Smallest overlap matrix eigenvalue = 1.17E-04

 Scale SEOQF with 1.000000e+00/1.000000e-01/1.000000e-01

 Standard Electronic Orientation quadrupole field applied
 Nucleus-field energy     =     0.0000000022 hartrees
 Guess from superposition of atomic densities
 Warning:  Energy on first SCF cycle will be non-variational
 SAD guess density has 52.000000 electrons

 -----------------------------------------------------------------------
  General SCF calculation program by
  Eric Jon Sundstrom, Paul Horn, Yuezhi Mao, Dmitri Zuev, Alec White,
  David Stuck, Shaama M.S., Shane Yost, Joonho Lee, David Small,
  Daniel Levine, Susi Lehtola, Hugh Burton, Evgeny Epifanovsky,
  Bang C. Huynh
 -----------------------------------------------------------------------
 Hartree-Fock
 using 64 threads for integral computing
 -------------------------------------------------------
 OpenMP Integral computing Module                
 Release: version 1.0, May 2013, Q-Chem Inc. Pittsburgh 
 -------------------------------------------------------
 A restricted SCF calculation will be
 performed using DIIS
 SCF converges when DIIS error is below 1.0e-06
 ---------------------------------------
  Cycle       Energy         DIIS error
 ---------------------------------------
    1    -592.5709154823      3.22e-02  
    2    -590.3052139273      2.15e-03  
    3    -590.3652411677      7.79e-04  
    4    -590.3718594567      3.80e-04  
    5    -590.3736635249      6.96e-05  
    6    -590.3737838536      3.01e-05  
    7    -590.3738133936      1.46e-05  
    8    -590.3738229629      5.60e-06  
    9    -590.3738244907      1.97e-06  
   10    -590.3738246209      5.77e-07  Convergence criterion met
 ---------------------------------------
 SCF time:   CPU 519.56s  wall 14.00s 

************** Final PCM Free Energy Summary **************
 G_electrostatic  =      -0.00575891 hartree =      -3.61376847 kcal/mol
 G_cavitation     =       0.00000000 hartree =       0.00000000 kcal/mol
 G_dispersion     =       0.00000000 hartree =       0.00000000 kcal/mol
 G_repulsion      =       0.00000000 hartree =       0.00000000 kcal/mol
 --------------------------------------------------
 Non-electrostatic Free Energy =       0.00000000 hartree =       0.00000000 kcal/mol
 Total                         =      -0.00575891 hartree =      -3.61376847 kcal/mol
 --------------------------------------------------
 SCF Energy (H0 + V/2)                       =    -590.37382462 
 Solute Internal Energy (H0)                 =    -590.36806571 
 Total Free Energy (H0 + V/2 + non-elec)     =    -590.37382462 hartree
                                             = -370465.16638008 kcal/mol
***********************************************************

 SCF   energy in the final basis set =     -590.3738246209
 Total energy in the final basis set =     -590.3738246209


 --------------------------------------------------------------
  Generalized many-body perturbation theory program
  by Joonho Lee, Fazle Rob, Xintian Feng, Evgeny Epifanovsky

 No regularization used 
 (reg. param. = 0.0000e+00)
  (P|Q)^-1/2 Time:  CPU 6.01 s  wall 0.10 s

 In RI-MP2 calculation: 
 # of frozen core orbitals: 10

 Components of the RIMP2 correlation energy:
        aaaa    correlation energy =        -0.1254091921 a.u.
        abab    correlation energy =        -0.7511142698 a.u.
        bbbb    correlation energy =        -0.1254091921 a.u.
        non-Brillouin singles      =        -0.0000000000 a.u.
        total same-spin energy     =        -0.2508183843 a.u.
        total opposite-spin energy =        -0.7511142698 a.u.

 Total  RIMP2   correlation energy =        -1.0019326541 a.u.
        RIMP2         total energy =      -591.3757572750 a.u.

 RI-MP2 Energy Time:  CPU 24.76 s  wall 0.44 s
 
 --------------------------------------------------------------
 
                    Orbital Energies (a.u.)
 --------------------------------------------------------------
 
 Alpha MOs
 -- Occupied --
-91.9755 -11.2858 -11.2682 -11.2429 -11.2400 -11.2239  -8.9756  -6.6564
 -6.6559  -6.6554  -1.1569  -1.0381  -0.9727  -0.9194  -0.7545  -0.7241
 -0.6726  -0.5971  -0.5702  -0.5590  -0.5395  -0.5005  -0.4677  -0.4396
 -0.3451  -0.3109
 -- Virtual --
  0.1052   0.1480   0.1600   0.1769   0.1907   0.1942   0.2153   0.2269
  0.2370   0.2547   0.3102   0.3358   0.3641   0.3728   0.3922   0.3986
  0.4159   0.4518   0.4586   0.4680   0.4970   0.5131   0.5318   0.5351
  0.5430   0.5510   0.5676   0.5834   0.6004   0.6101   0.6162   0.6196
  0.6351   0.6519   0.6577   0.6649   0.6977   0.7152   0.7266   0.7540
  0.7850   0.7968   0.8226   0.8638   0.8723   0.8864   0.9094   0.9169
  0.9642   0.9795   1.0005   1.0146   1.0611   1.0775   1.1135   1.1240
  1.1403   1.1652   1.1713   1.1863   1.2089   1.2270   1.2491   1.2562
  1.2882   1.3244   1.3260   1.3530   1.3967   1.4013   1.4106   1.4465
  1.4753   1.4798   1.5192   1.5297   1.5449   1.5571   1.5693   1.5748
  1.6016   1.6299   1.6536   1.6821   1.7057   1.7277   1.7563   1.8136
  1.8276   1.8865   1.9082   1.9253   1.9334   1.9844   2.0530   2.0818
  2.1516   2.1753   2.1861   2.2247   2.2505   2.2897   2.3303   2.4165
  2.4252   2.4636   2.5019   2.5140   2.5730   2.5991   2.6225   2.6636
  2.6810   2.7098   2.7228   2.7342   2.7617   2.7852   2.8362   2.8383
  2.8641   2.8863   2.9225   2.9305   2.9631   3.0149   3.0180   3.0417
  3.0617   3.1105   3.1265   3.1452   3.1878   3.2090   3.2284   3.2307
  3.2526   3.2752   3.2991   3.3100   3.3319   3.3452   3.3478   3.3712
  3.3952   3.4133   3.4342   3.4500   3.4589   3.4668   3.4906   3.5005
  3.5100   3.5160   3.5536   3.5955   3.6089   3.6303   3.6411   3.6609
  3.6845   3.7023   3.7033   3.7378   3.7518   3.7749   3.7851   3.8370
  3.8543   3.8685   3.8955   3.9220   3.9287   3.9445   3.9642   3.9778
  4.0047   4.0358   4.0525   4.0869   4.1062   4.1610   4.1636   4.1948
  4.2176   4.2274   4.2579   4.2884   4.3112   4.3621   4.3752   4.3915
  4.4039   4.4585   4.4903   4.4988   4.5463   4.5816   4.6309   4.6443
  4.6899   4.6981   4.7043   4.7854   4.8087   4.8199   4.8407   4.8657
  4.9582   4.9779   5.0164   5.0553   5.0727   5.1402   5.1848   5.2159
  5.2284   5.2988   5.3589   5.4267   5.4308   5.4913   5.5364   5.5899
  5.6375   5.7327   5.8100   5.8151   5.8714   5.9161   6.0134   6.0734
  6.1374   6.3108   6.4145   6.4792   6.6811   9.3926  11.2898  12.8190
 13.9839  14.2596
 --------------------------------------------------------------
 
          Ground-State Mulliken Net Atomic Charges

     Atom                 Charge (a.u.)
  ----------------------------------------
      1 C                     0.033903
      2 S                    -0.008476
      3 C                    -0.229674
      4 C                    -0.221847
      5 C                    -0.199680
      6 H                     0.183760
      7 H                     0.186238
      8 C                    -0.357438
      9 H                     0.120605
     10 H                     0.138005
     11 H                     0.150413
     12 H                     0.204192
  ----------------------------------------
  Sum of atomic charges =     0.000000

 -----------------------------------------------------------------
                    Cartesian Multipole Moments
 -----------------------------------------------------------------
    Charge (ESU x 10^10)
                -0.0000
    Dipole Moment (Debye)
         X       0.2525      Y      -0.3643      Z      -1.7402
       Tot       1.7958
    Quadrupole Moments (Debye-Ang)
        XX     -47.5596     XY      -0.3495     YY     -36.0114
        XZ       0.2125     YZ       2.1357     ZZ     -42.0345
    Octopole Moments (Debye-Ang^2)
       XXX      -0.1791    XXY     -23.0713    XYY      -0.2481
       YYY     -40.6929    XXZ      -7.0173    XYZ      -0.8174
       YYZ      -6.3429    XZZ      -0.2723    YZZ      -9.8865
       ZZZ     -27.7923
    Hexadecapole Moments (Debye-Ang^3)
      XXXX     -65.4951   XXXY       0.9299   XXYY    -111.8613
      XYYY       3.1909   YYYY    -500.0933   XXXZ       0.5240
      XXYZ      -7.3759   XYYZ       2.5895   YYYZ      -5.1578
      XXZZ     -69.9316   XYZZ       0.8570   YYZZ    -127.8367
      XZZZ      -0.3715   YZZZ     -19.2900   ZZZZ    -308.6998
 -----------------------------------------------------------------
 Total job time:  16.57s(wall), 588.64s(cpu) 
 Sun Sep 24 15:09:18 2023

        *************************************************************
        *                                                           *
        *  Thank you very much for using Q-Chem.  Have a nice day.  *
        *                                                           *
        *************************************************************


0 sent ACK to 0 
now end server 0 ... 
cleanup process ... done
remove work dirs ./qchem3722931.0 -- ./qchem3722931.0
rm -rf ./qchem3722931.0
rm -rf ./qchem3722931
