You are running Q-Chem version: 5.4.0

#
# job setting
#
local host:  exp-4-53
current dir: /expanse/lustre/projects/csd626/rramji/aromodel/PNDIT/Hydrogenated_Impropers_Test
input file:  Dimethyl_Naphthalene_Dicarboximide_Phi_30_Theta_240_Thiophene_Hydrogenated_Improper.qcin
output file: 
nprocs     : 1
nthreads   : 64
#
# qchem installation setting
#
QC:          /cm/shared/apps/spack/cpu/opt/spack/linux-centos8-zen2/gcc-10.2.0/qchem-5.4-akfmr7b3t57bfs6qan3padb2wnb2i7cl
QCAUX:       /cm/shared/apps/spack/cpu/opt/spack/linux-centos8-zen2/gcc-10.2.0/qchem-5.4-akfmr7b3t57bfs6qan3padb2wnb2i7cl/qcaux
QCPROG:      /cm/shared/apps/spack/cpu/opt/spack/linux-centos8-zen2/gcc-10.2.0/qchem-5.4-akfmr7b3t57bfs6qan3padb2wnb2i7cl/exe/qcprog.exe
QCPROG_S:    /cm/shared/apps/spack/cpu/opt/spack/linux-centos8-zen2/gcc-10.2.0/qchem-5.4-akfmr7b3t57bfs6qan3padb2wnb2i7cl/exe/qcprog.exe_s
PARALLEL:    -DPARALLEL
QCMPI:       mpich
#
# qchem directory setting
#
qcrun:       qchem1072752
QCSCRATCH:   .
QCLOCALSCR:  
QCTMPDIR:    .
QCFILEPREF:  ./qchem1072752
QCSAVEDIR:   
workdirs:    ./qchem1072752
workdir0:    ./qchem1072752
partmpdirs =  
#
# parallel setting
#
QCRSH:           ssh
QCMPI:           mpich
QCMPIRUN:        /cm/shared/apps/spack/cpu/opt/spack/linux-centos8-zen2/gcc-10.2.0/qchem-5.4-akfmr7b3t57bfs6qan3padb2wnb2i7cl/bin/mpi/mpirun_qchem
QCMACHINEFILE:   ./qchem1072752/hostfile
exp-4-53

#
# env setting
#
exported envs:   QC QCAUX QCSCRATCH QCRUNNAME QCFILEPREF QCPROG QCPROG_S GUIFILE

Running Job 1 of 1 Dimethyl_Naphthalene_Dicarboximide_Phi_30_Theta_240_Thiophene_Hydrogenated_Improper.qcin
qchem Dimethyl_Naphthalene_Dicarboximide_Phi_30_Theta_240_Thiophene_Hydrogenated_Improper.qcin_1072752.0 ./qchem1072752/ 1
/cm/shared/apps/spack/cpu/opt/spack/linux-centos8-zen2/gcc-10.2.0/qchem-5.4-akfmr7b3t57bfs6qan3padb2wnb2i7cl/bin/mpi/mpirun_qchem -machinefile ./qchem1072752/hostfile -np 1 /cm/shared/apps/spack/cpu/opt/spack/linux-centos8-zen2/gcc-10.2.0/qchem-5.4-akfmr7b3t57bfs6qan3padb2wnb2i7cl/exe/qcprog.exe Dimethyl_Naphthalene_Dicarboximide_Phi_30_Theta_240_Thiophene_Hydrogenated_Improper.qcin_1072752.0 ./qchem1072752/

Process 0 of 1 is on exp-4-53 - thread support 0
initial socket setup ...start
initial socket setup ...done 
now start server 0 ... 
                  Welcome to Q-Chem
     A Quantum Leap Into The Future Of Chemistry


 Q-Chem 5.4, Q-Chem, Inc., Pleasanton, CA (2021)

 License issued to: University of California, San Diego (site)

 E. Epifanovsky,  A. T. B. Gilbert,  Xintian Feng,  Joonho Lee,  Yuezhi Mao,  
 N. Mardirossian,  P. Pokhilko,  A. White,  M. Wormit,  M. P. Coons,  
 A. L. Dempwolff,  Zhengting Gan,  D. Hait,  P. R. Horn,  L. D. Jacobson,  
 I. Kaliman,  J. Kussmann,  A. W. Lange,  Ka Un Lao,  D. S. Levine,  Jie Liu,  
 S. C. McKenzie,  A. F. Morrison,  K. Nanda,  F. Plasser,  D. R. Rehn,  
 M. L. Vidal,  Zhi-Qiang You,  Ying Zhu,  B. Alam,  B. Albrecht,  
 A. Aldossary,  E. Alguire,  J. H. Andersen,  D. Barton,  K. Begam,  A. Behn,  
 Y. A. Bernard,  E. J. Berquist,  H. Burton,  A. Carreras,  K. Carter-Fenk,  
 R. Chakraborty,  A. D. Chien,  K. D. Closser,  V. Cofer-Shabica,  
 S. Dasgupta,  Jia Deng,  M. de Wergifosse,  M. Diedenhofen,  Hainam Do,  
 S. Ehlert,  Po-Tung Fang,  S. Fatehi,  Qingguo Feng,  J. Gayvert,  
 Qinghui Ge,  G. Gidofalvi,  M. Goldey,  J. Gomes,  C. Gonzalez-Espinoza,  
 S. Gulania,  A. Gunina,  M. W. D. Hanson-Heine,  P. H. P. Harbach,  
 A. W. Hauser,  M. F. Herbst,  M. Hernandez Vera,  M. Hodecker,  
 Z. C. Holden,  S. Houck,  Xunkun Huang,  Kerwin Hui,  B. C. Huynh,  
 M. Ivanov,  Hyunjun Ji,  Hanjie Jiang,  B. Kaduk,  S. Kaehler,  
 K. Khistyaev,  Jaehoon Kim,  P. Klunzinger,  Z. Koczor-Benda,  
 Joong Hoon Koh,  D. Kosenkov,  L. Koulias,  T. Kowalczyk,  C. M. Krauter,  
 K. Kue,  A. Kunitsa,  T. Kus,  A. Landau,  K. V. Lawler,  D. Lefrancois,  
 S. Lehtola,  Rain Li,  Yi-Pei Li,  Jiashu Liang,  M. Liebenthal,  
 Hung-Hsuan Lin,  You-Sheng Lin,  Fenglai Liu,  Kuan-Yu Liu,  
 M. Loipersberger,  A. Luenser,  A. Manjanath,  P. Manohar,  E. Mansoor,  
 S. F. Manzer,  Shan-Ping Mao,  A. V. Marenich,  T. Markovich,  S. Mason,  
 S. A. Maurer,  P. F. McLaughlin,  M. F. S. J. Menger,  J.-M. Mewes,  
 S. A. Mewes,  P. Morgante,  J. W. Mullinax,  T. S. Nguyen-Beck,  
 K. J. Oosterbaan,  G. Paran,  Alexander C. Paul,  Suranjan K. Paul,  
 F. Pavosevic,  Zheng Pei,  S. Prager,  E. I. Proynov,  E. Ramos,  B. Rana,  
 A. E. Rask,  A. Rettig,  R. M. Richard,  F. Rob,  E. Rossomme,  T. Scheele,  
 M. Scheurer,  M. Schneider,  N. Sergueev,  S. M. Sharada,  W. Skomorowski,  
 D. W. Small,  C. J. Stein,  Yu-Chuan Su,  E. J. Sundstrom,  Zhen Tao,  
 J. Thirman,  T. Tsuchimochi,  N. M. Tubman,  S. P. Veccham,  O. Vydrov,  
 J. Wenzel,  J. Witte,  A. Yamada,  Kun Yao,  S. Yeganeh,  S. R. Yost,  
 A. Zech,  Igor Ying Zhang,  Xing Zhang,  Yu Zhang,  D. Zuev,  
 A. Aspuru-Guzik,  A. T. Bell,  N. A. Besley,  K. B. Bravaya,  B. R. Brooks,  
 D. Casanova,  Jeng-Da Chai,  S. Coriani,  C. J. Cramer,  
 A. E. DePrince, III,  R. A. DiStasio Jr.,  A. Dreuw,  B. D. Dunietz,  
 T. R. Furlani,  W. A. Goddard III,  S. Grimme,  S. Hammes-Schiffer,  
 T. Head-Gordon,  W. J. Hehre,  Chao-Ping Hsu,  T.-C. Jagau,  Yousung Jung,  
 A. Klamt,  Jing Kong,  D. S. Lambrecht,  WanZhen Liang,  N. J. Mayhall,  
 C. W. McCurdy,  J. B. Neaton,  C. Ochsenfeld,  J. A. Parkhill,  R. Peverati,  
 V. A. Rassolov,  Yihan Shao,  L. V. Slipchenko,  T. Stauch,  R. P. Steele,  
 J. E. Subotnik,  A. J. W. Thom,  A. Tkatchenko,  D. G. Truhlar,  
 T. Van Voorhis,  T. A. Wesolowski,  K. B. Whaley,  H. L. Woodcock III,  
 P. M. Zimmerman,  S. Faraji,  P. M. W. Gill,  M. Head-Gordon,  
 J. M. Herbert,  A. I. Krylov

 Contributors to earlier versions of Q-Chem not listed above: 
 R. D. Adamson,  B. Austin,  R. Baer,  J. Baker,  G. J. O. Beran,  
 K. Brandhorst,  S. T. Brown,  E. F. C. Byrd,  A. K. Chakraborty,  
 G. K. L. Chan,  Chun-Min Chang,  Yunqing Chen,  C.-L. Cheng,  
 Siu Hung Chien,  D. M. Chipman,  D. L. Crittenden,  H. Dachsel,  
 R. J. Doerksen,  A. D. Dutoi,  R. G. Edgar,  J. Fosso-Tande,  
 L. Fusti-Molnar,  D. Ghosh,  A. Ghysels,  A. Golubeva-Zadorozhnaya,  
 J. Gonthier,  M. S. Gordon,  S. R. Gwaltney,  G. Hawkins,  J. E. Herr,  
 A. Heyden,  S. Hirata,  E. G. Hohenstein,  G. Kedziora,  F. J. Keil,  
 C. Kelley,  Jihan Kim,  R. A. King,  R. Z. Khaliullin,  P. P. Korambath,  
 W. Kurlancheek,  A. Laurent,  A. M. Lee,  M. S. Lee,  S. V. Levchenko,  
 Ching Yeh Lin,  D. Liotard,  E. Livshits,  R. C. Lochan,  I. Lotan,  
 L. A. Martinez-Martinez,  P. E. Maslen,  N. Nair,  D. P. O'Neill,  
 D. Neuhauser,  E. Neuscamman,  C. M. Oana,  R. Olivares-Amaya,  R. Olson,  
 T. M. Perrine,  B. Peters,  P. A. Pieniazek,  A. Prociuk,  Y. M. Rhee,  
 J. Ritchie,  M. A. Rohrdanz,  E. Rosta,  N. J. Russ,  H. F. Schaefer III,  
 M. W. Schmidt,  N. E. Schultz,  S. Sharma,  N. Shenvi,  C. D. Sherrill,  
 A. C. Simmonett,  A. Sodt,  T. Stein,  D. Stuck,  K. S. Thanthiriwatte,  
 V. Vanovschi,  L. Vogt,  Tao Wang,  A. Warshel,  M. A. Watson,  
 C. F. Williams,  Q. Wu,  X. Xu,  Jun Yang,  W. Zhang,  Yan Zhao

 Please cite Q-Chem as follows:
 Y. Shao et al., Mol. Phys. 113, 184-215 (2015)
 DOI: 10.1080/00268976.2014.952696

 Q-Chem 5.4.0 for Intel X86 EM64T Linux

 Parts of Q-Chem use Armadillo 9.800.1 (Horizon Scraper).
 http://arma.sourceforge.net/

 Q-Chem begins on Sun Sep 24 15:10:33 2023  

 Host: 
0

     Scratch files written to ./qchem1072752//
 May1621 |scratch|qcdevops|jenkins|workspace|build_RNUM    
 Parallel job on  1  processors
 Processing $rem in /cm/shared/apps/spack/cpu/opt/spack/linux-centos8-zen2/gcc-10.2.0/qchem-5.4-akfmr7b3t57bfs6qan3padb2wnb2i7cl/config/preferences:
 Processing $rem in /home/rramji/.qchemrc:
 Symmetry turned off for PCM/SM12/SMD calculation
 Core orbitals will be frozen

 Checking the input file for inconsistencies... 	...done.

 Q-Chem warning in module forms1/BasisType.C, line 2236:

 You are not using the predefined 5D/6D in this basis set.


--------------------------------------------------------------
User input:
--------------------------------------------------------------
$molecule
0 1
C	-0.257163	-0.329934	-0.209225
S	0.139237	0.357066	1.371275
C	0.958037	1.775366	0.695675
C	0.241637	0.534466	-1.194625
C	0.901737	1.677866	-0.702725
H	0.123837	0.330366	-2.269125
H	1.342137	2.440766	-1.361825
C	-0.257163	-1.808134	-0.209225
H	-0.796663	-1.808734	-1.144825
H	0.597337	-2.247434	-0.702525
H	-0.961163	-2.519134	0.197375
H	1.398337	2.538166	1.346775
$end

$rem
JOBTYPE		SP
EXCHANGE	HF
CORRELATION	pRIMP2
BASIS		cc-pvtz
METHOD		rimp2
AUX_BASIS	rimp2-cc-pvtz
SOLVENT_METHOD	PCM
PURECART	11111
SYMMETRY	false
MEM_TOTAL	110000
SCF_CONVERGENCE = 6
THRESH=10
GUI = 2
$end



$solvent
dielectric 4.90
$end
--------------------------------------------------------------
 ----------------------------------------------------------------
             Standard Nuclear Orientation (Angstroms)
    I     Atom           X                Y                Z
 ----------------------------------------------------------------
    1      C      -0.2571630000    -0.3299340000    -0.2092250000
    2      S       0.1392370000     0.3570660000     1.3712750000
    3      C       0.9580370000     1.7753660000     0.6956750000
    4      C       0.2416370000     0.5344660000    -1.1946250000
    5      C       0.9017370000     1.6778660000    -0.7027250000
    6      H       0.1238370000     0.3303660000    -2.2691250000
    7      H       1.3421370000     2.4407660000    -1.3618250000
    8      C      -0.2571630000    -1.8081340000    -0.2092250000
    9      H      -0.7966630000    -1.8087340000    -1.1448250000
   10      H       0.5973370000    -2.2474340000    -0.7025250000
   11      H      -0.9611630000    -2.5191340000     0.1973750000
   12      H       1.3983370000     2.5381660000     1.3467750000
 ----------------------------------------------------------------
 Nuclear Repulsion Energy =         271.11317887 hartrees
 There are       26 alpha and       26 beta electrons
 Requested basis set is cc-pVTZ
 There are 98 shells and 268 basis functions

 Total QAlloc Memory Limit 110000 MB
 Mega-Array Size       188 MB
 MEM_STATIC part       192 MB
 Discretize the solute cavity surface with Lebedev spheres
	Using 110 Lebedev grid points for each H atom
	Using 194 Lebedev grid points for other atoms
	Atomic van der Waals radii will be scaled by 1.20
 Remove points where switching function is < 1.0e-08
 Keep 883 surface tesserae and discard 941 interior tesserae
 Molecular Surface Area = 137.637 Angst**2

                       Distance Matrix (Angstroms)
             C (  1)   S (  2)   C (  3)   C (  4)   C (  5)   H (  6)
   S (  2)  1.768356
   C (  3)  2.593809  1.771565
   C (  4)  1.402498  2.574063  2.371981
   C (  5)  2.370201  2.574373  1.402925  1.408922
   H (  6)  2.196439  3.640530  3.402051  1.100038  2.207826
   H (  7)  3.400445  3.641237  2.196269  2.207495  1.100173  2.600238
   C (  8)  1.478200  2.709835  3.890633  2.589901  3.706587  2.993582
   H (  9)  1.831190  3.449255  4.394563  2.563422  3.903382  2.585947
   H ( 10)  2.156460  3.360643  4.274107  2.847394  3.937085  3.053439
   H ( 11)  2.335281  3.295671  4.730155  3.564949  4.679251  3.921798
   H ( 12)  3.658936  2.518557  1.095290  3.436784  2.277538  4.424191
             H (  7)   C (  8)   H (  9)   H ( 10)   H ( 11)
   C (  8)  4.683951
   H (  9)  4.762332  1.080004
   H ( 10)  4.792559  1.080046  1.526867
   H ( 11)  5.686555  1.080028  1.527491  1.820045
   H ( 12)  2.710933  4.904298  5.470067  5.267181  5.697775
 
 Requested basis set is rimp2-cc-pVTZ
 There are 207 shells and 707 basis functions
 A cutoff of  1.0D-10 yielded   4397 shell pairs
 There are     32963 function pairs (     42620 Cartesian)
 Smallest overlap matrix eigenvalue = 1.40E-04

 Scale SEOQF with 1.000000e+00/1.000000e-01/1.000000e-01

 Standard Electronic Orientation quadrupole field applied
 Nucleus-field energy     =     0.0000000065 hartrees
 Guess from superposition of atomic densities
 Warning:  Energy on first SCF cycle will be non-variational
 SAD guess density has 52.000000 electrons

 -----------------------------------------------------------------------
  General SCF calculation program by
  Eric Jon Sundstrom, Paul Horn, Yuezhi Mao, Dmitri Zuev, Alec White,
  David Stuck, Shaama M.S., Shane Yost, Joonho Lee, David Small,
  Daniel Levine, Susi Lehtola, Hugh Burton, Evgeny Epifanovsky,
  Bang C. Huynh
 -----------------------------------------------------------------------
 Hartree-Fock
 using 64 threads for integral computing
 -------------------------------------------------------
 OpenMP Integral computing Module                
 Release: version 1.0, May 2013, Q-Chem Inc. Pittsburgh 
 -------------------------------------------------------
 A restricted SCF calculation will be
 performed using DIIS
 SCF converges when DIIS error is below 1.0e-06
 ---------------------------------------
  Cycle       Energy         DIIS error
 ---------------------------------------
    1    -592.5860006850      3.23e-02  
    2    -590.2882717566      2.13e-03  
    3    -590.3480465380      7.51e-04  
    4    -590.3544802663      3.62e-04  
    5    -590.3561426412      7.05e-05  
    6    -590.3562646904      2.92e-05  
    7    -590.3562958133      1.52e-05  
    8    -590.3563058021      5.87e-06  
    9    -590.3563076427      2.39e-06  
   10    -590.3563078382      7.28e-07  Convergence criterion met
 ---------------------------------------
 SCF time:   CPU 527.58s  wall 9.00s 

************** Final PCM Free Energy Summary **************
 G_electrostatic  =      -0.00564889 hartree =      -3.54473170 kcal/mol
 G_cavitation     =       0.00000000 hartree =       0.00000000 kcal/mol
 G_dispersion     =       0.00000000 hartree =       0.00000000 kcal/mol
 G_repulsion      =       0.00000000 hartree =       0.00000000 kcal/mol
 --------------------------------------------------
 Non-electrostatic Free Energy =       0.00000000 hartree =       0.00000000 kcal/mol
 Total                         =      -0.00564889 hartree =      -3.54473170 kcal/mol
 --------------------------------------------------
 SCF Energy (H0 + V/2)                       =    -590.35630784 
 Solute Internal Energy (H0)                 =    -590.35065895 
 Total Free Energy (H0 + V/2 + non-elec)     =    -590.35630784 hartree
                                             = -370454.17443309 kcal/mol
***********************************************************

 SCF   energy in the final basis set =     -590.3563078382
 Total energy in the final basis set =     -590.3563078382


 --------------------------------------------------------------
  Generalized many-body perturbation theory program
  by Joonho Lee, Fazle Rob, Xintian Feng, Evgeny Epifanovsky

 No regularization used 
 (reg. param. = 0.0000e+00)
  (P|Q)^-1/2 Time:  CPU 6.89 s  wall 0.11 s

 In RI-MP2 calculation: 
 # of frozen core orbitals: 10

 Components of the RIMP2 correlation energy:
        aaaa    correlation energy =        -0.1261146679 a.u.
        abab    correlation energy =        -0.7538330157 a.u.
        bbbb    correlation energy =        -0.1261146679 a.u.
        non-Brillouin singles      =        -0.0000000000 a.u.
        total same-spin energy     =        -0.2522293358 a.u.
        total opposite-spin energy =        -0.7538330157 a.u.

 Total  RIMP2   correlation energy =        -1.0060623516 a.u.
        RIMP2         total energy =      -591.3623701898 a.u.

 RI-MP2 Energy Time:  CPU 27.32 s  wall 0.47 s
 
 --------------------------------------------------------------
 
                    Orbital Energies (a.u.)
 --------------------------------------------------------------
 
 Alpha MOs
 -- Occupied --
-91.9738 -11.2793 -11.2721 -11.2441 -11.2430 -11.2214  -8.9741  -6.6550
 -6.6543  -6.6539  -1.1588  -1.0372  -0.9733  -0.9169  -0.7554  -0.7244
 -0.6713  -0.5962  -0.5693  -0.5599  -0.5400  -0.5000  -0.4653  -0.4354
 -0.3447  -0.3077
 -- Virtual --
  0.0910   0.1506   0.1606   0.1766   0.1858   0.1939   0.2167   0.2277
  0.2402   0.2509   0.3052   0.3298   0.3577   0.3684   0.3933   0.4076
  0.4129   0.4507   0.4590   0.4722   0.4811   0.5065   0.5255   0.5298
  0.5403   0.5478   0.5629   0.5827   0.5952   0.6082   0.6115   0.6237
  0.6279   0.6496   0.6595   0.6628   0.6824   0.7144   0.7313   0.7482
  0.7833   0.8005   0.8191   0.8561   0.8674   0.8908   0.9089   0.9208
  0.9739   0.9821   0.9914   1.0297   1.0635   1.0818   1.0890   1.1327
  1.1389   1.1537   1.1711   1.2023   1.2189   1.2272   1.2546   1.2719
  1.2951   1.3021   1.3305   1.3531   1.3607   1.3917   1.4204   1.4363
  1.4639   1.4838   1.5179   1.5253   1.5373   1.5454   1.5606   1.5813
  1.6254   1.6265   1.6440   1.6811   1.7066   1.7289   1.7490   1.7878
  1.8377   1.8799   1.9056   1.9069   1.9617   1.9993   2.0443   2.0916
  2.1425   2.1653   2.1792   2.2099   2.2539   2.2642   2.3374   2.3701
  2.4271   2.4579   2.4902   2.5129   2.5726   2.5878   2.6395   2.6564
  2.6900   2.7158   2.7386   2.7445   2.7479   2.7634   2.8205   2.8401
  2.8814   2.9071   2.9532   2.9758   2.9931   3.0037   3.0269   3.0528
  3.0739   3.1062   3.1131   3.1380   3.1582   3.1812   3.2227   3.2501
  3.2586   3.2679   3.2960   3.3127   3.3240   3.3467   3.3525   3.3717
  3.3972   3.4293   3.4367   3.4415   3.4616   3.4650   3.5023   3.5087
  3.5200   3.5337   3.5587   3.5691   3.5874   3.6075   3.6423   3.6616
  3.6675   3.6869   3.7120   3.7335   3.7647   3.7951   3.8141   3.8290
  3.8593   3.8995   3.9055   3.9227   3.9271   3.9502   3.9671   3.9801
  4.0027   4.0312   4.0567   4.1074   4.1300   4.1589   4.1697   4.2098
  4.2218   4.2452   4.2623   4.2944   4.3092   4.3663   4.3968   4.4206
  4.4395   4.4567   4.4668   4.5102   4.5576   4.5828   4.6025   4.6492
  4.6731   4.6863   4.7051   4.7631   4.7926   4.8124   4.8355   4.8873
  4.9384   5.0013   5.0228   5.0469   5.0869   5.1395   5.1549   5.1778
  5.1858   5.2944   5.3515   5.4205   5.4365   5.4822   5.5352   5.5818
  5.6518   5.6715   5.7865   5.8410   5.8873   5.9362   6.0110   6.0658
  6.0807   6.3097   6.3993   6.4684   6.6474   9.4607  11.3471  12.6841
 13.8853  14.2904
 --------------------------------------------------------------
 
          Ground-State Mulliken Net Atomic Charges

     Atom                 Charge (a.u.)
  ----------------------------------------
      1 C                     0.002614
      2 S                    -0.002544
      3 C                    -0.215549
      4 C                    -0.214432
      5 C                    -0.197283
      6 H                     0.182003
      7 H                     0.186739
      8 C                    -0.365552
      9 H                     0.118841
     10 H                     0.138651
     11 H                     0.163166
     12 H                     0.203347
  ----------------------------------------
  Sum of atomic charges =     0.000000

 -----------------------------------------------------------------
                    Cartesian Multipole Moments
 -----------------------------------------------------------------
    Charge (ESU x 10^10)
                -0.0000
    Dipole Moment (Debye)
         X       0.4498      Y      -0.3005      Z      -1.7186
       Tot       1.8017
    Quadrupole Moments (Debye-Ang)
        XX     -45.3249     XY       4.8765     YY     -38.4697
        XZ       0.1264     YZ       1.6889     ZZ     -41.8789
    Octopole Moments (Debye-Ang^2)
       XXX     -36.2968    XXY     -12.8259    XYY      -4.4329
       YYY     -38.6989    XXZ      -5.9316    XYZ       2.6766
       YYZ      -5.6254    XZZ      -7.6582    YZZ      -7.7939
       ZZZ     -27.9748
    Hexadecapole Moments (Debye-Ang^3)
      XXXX    -149.3272   XXXY     -79.8323   XXYY     -88.7251
      XYYY     -49.3194   YYYY    -448.2020   XXXZ      -4.8967
      XXYZ      -5.0307   XYYZ      -0.4771   YYYZ     -11.7989
      XXZZ     -76.1792   XYZZ     -16.3770   YYZZ    -119.2993
      XZZZ      -2.8533   YZZZ     -19.1104   ZZZZ    -309.0495
 -----------------------------------------------------------------
 Total job time:  11.62s(wall), 590.86s(cpu) 
 Sun Sep 24 15:10:45 2023

        *************************************************************
        *                                                           *
        *  Thank you very much for using Q-Chem.  Have a nice day.  *
        *                                                           *
        *************************************************************


0 sent ACK to 0 
now end server 0 ... 
cleanup process ... done
remove work dirs ./qchem1072752.0 -- ./qchem1072752.0
rm -rf ./qchem1072752.0
rm -rf ./qchem1072752
