You are running Q-Chem version: 5.4.0

#
# job setting
#
local host:  exp-4-53
current dir: /expanse/lustre/projects/csd626/rramji/aromodel/PNDIT/Hydrogenated_Impropers_Test
input file:  Dimethyl_Naphthalene_Dicarboximide_Phi_30_Theta_70_Thiophene_Hydrogenated_Improper.qcin
output file: 
nprocs     : 1
nthreads   : 64
#
# qchem installation setting
#
QC:          /cm/shared/apps/spack/cpu/opt/spack/linux-centos8-zen2/gcc-10.2.0/qchem-5.4-akfmr7b3t57bfs6qan3padb2wnb2i7cl
QCAUX:       /cm/shared/apps/spack/cpu/opt/spack/linux-centos8-zen2/gcc-10.2.0/qchem-5.4-akfmr7b3t57bfs6qan3padb2wnb2i7cl/qcaux
QCPROG:      /cm/shared/apps/spack/cpu/opt/spack/linux-centos8-zen2/gcc-10.2.0/qchem-5.4-akfmr7b3t57bfs6qan3padb2wnb2i7cl/exe/qcprog.exe
QCPROG_S:    /cm/shared/apps/spack/cpu/opt/spack/linux-centos8-zen2/gcc-10.2.0/qchem-5.4-akfmr7b3t57bfs6qan3padb2wnb2i7cl/exe/qcprog.exe_s
PARALLEL:    -DPARALLEL
QCMPI:       mpich
#
# qchem directory setting
#
qcrun:       qchem1069799
QCSCRATCH:   .
QCLOCALSCR:  
QCTMPDIR:    .
QCFILEPREF:  ./qchem1069799
QCSAVEDIR:   
workdirs:    ./qchem1069799
workdir0:    ./qchem1069799
partmpdirs =  
#
# parallel setting
#
QCRSH:           ssh
QCMPI:           mpich
QCMPIRUN:        /cm/shared/apps/spack/cpu/opt/spack/linux-centos8-zen2/gcc-10.2.0/qchem-5.4-akfmr7b3t57bfs6qan3padb2wnb2i7cl/bin/mpi/mpirun_qchem
QCMACHINEFILE:   ./qchem1069799/hostfile
exp-4-53

#
# env setting
#
exported envs:   QC QCAUX QCSCRATCH QCRUNNAME QCFILEPREF QCPROG QCPROG_S GUIFILE

Running Job 1 of 1 Dimethyl_Naphthalene_Dicarboximide_Phi_30_Theta_70_Thiophene_Hydrogenated_Improper.qcin
qchem Dimethyl_Naphthalene_Dicarboximide_Phi_30_Theta_70_Thiophene_Hydrogenated_Improper.qcin_1069799.0 ./qchem1069799/ 1
/cm/shared/apps/spack/cpu/opt/spack/linux-centos8-zen2/gcc-10.2.0/qchem-5.4-akfmr7b3t57bfs6qan3padb2wnb2i7cl/bin/mpi/mpirun_qchem -machinefile ./qchem1069799/hostfile -np 1 /cm/shared/apps/spack/cpu/opt/spack/linux-centos8-zen2/gcc-10.2.0/qchem-5.4-akfmr7b3t57bfs6qan3padb2wnb2i7cl/exe/qcprog.exe Dimethyl_Naphthalene_Dicarboximide_Phi_30_Theta_70_Thiophene_Hydrogenated_Improper.qcin_1069799.0 ./qchem1069799/

Process 0 of 1 is on exp-4-53 - thread support 0
initial socket setup ...start
initial socket setup ...done 
now start server 0 ... 
                  Welcome to Q-Chem
     A Quantum Leap Into The Future Of Chemistry


 Q-Chem 5.4, Q-Chem, Inc., Pleasanton, CA (2021)

 License issued to: University of California, San Diego (site)

 E. Epifanovsky,  A. T. B. Gilbert,  Xintian Feng,  Joonho Lee,  Yuezhi Mao,  
 N. Mardirossian,  P. Pokhilko,  A. White,  M. Wormit,  M. P. Coons,  
 A. L. Dempwolff,  Zhengting Gan,  D. Hait,  P. R. Horn,  L. D. Jacobson,  
 I. Kaliman,  J. Kussmann,  A. W. Lange,  Ka Un Lao,  D. S. Levine,  Jie Liu,  
 S. C. McKenzie,  A. F. Morrison,  K. Nanda,  F. Plasser,  D. R. Rehn,  
 M. L. Vidal,  Zhi-Qiang You,  Ying Zhu,  B. Alam,  B. Albrecht,  
 A. Aldossary,  E. Alguire,  J. H. Andersen,  D. Barton,  K. Begam,  A. Behn,  
 Y. A. Bernard,  E. J. Berquist,  H. Burton,  A. Carreras,  K. Carter-Fenk,  
 R. Chakraborty,  A. D. Chien,  K. D. Closser,  V. Cofer-Shabica,  
 S. Dasgupta,  Jia Deng,  M. de Wergifosse,  M. Diedenhofen,  Hainam Do,  
 S. Ehlert,  Po-Tung Fang,  S. Fatehi,  Qingguo Feng,  J. Gayvert,  
 Qinghui Ge,  G. Gidofalvi,  M. Goldey,  J. Gomes,  C. Gonzalez-Espinoza,  
 S. Gulania,  A. Gunina,  M. W. D. Hanson-Heine,  P. H. P. Harbach,  
 A. W. Hauser,  M. F. Herbst,  M. Hernandez Vera,  M. Hodecker,  
 Z. C. Holden,  S. Houck,  Xunkun Huang,  Kerwin Hui,  B. C. Huynh,  
 M. Ivanov,  Hyunjun Ji,  Hanjie Jiang,  B. Kaduk,  S. Kaehler,  
 K. Khistyaev,  Jaehoon Kim,  P. Klunzinger,  Z. Koczor-Benda,  
 Joong Hoon Koh,  D. Kosenkov,  L. Koulias,  T. Kowalczyk,  C. M. Krauter,  
 K. Kue,  A. Kunitsa,  T. Kus,  A. Landau,  K. V. Lawler,  D. Lefrancois,  
 S. Lehtola,  Rain Li,  Yi-Pei Li,  Jiashu Liang,  M. Liebenthal,  
 Hung-Hsuan Lin,  You-Sheng Lin,  Fenglai Liu,  Kuan-Yu Liu,  
 M. Loipersberger,  A. Luenser,  A. Manjanath,  P. Manohar,  E. Mansoor,  
 S. F. Manzer,  Shan-Ping Mao,  A. V. Marenich,  T. Markovich,  S. Mason,  
 S. A. Maurer,  P. F. McLaughlin,  M. F. S. J. Menger,  J.-M. Mewes,  
 S. A. Mewes,  P. Morgante,  J. W. Mullinax,  T. S. Nguyen-Beck,  
 K. J. Oosterbaan,  G. Paran,  Alexander C. Paul,  Suranjan K. Paul,  
 F. Pavosevic,  Zheng Pei,  S. Prager,  E. I. Proynov,  E. Ramos,  B. Rana,  
 A. E. Rask,  A. Rettig,  R. M. Richard,  F. Rob,  E. Rossomme,  T. Scheele,  
 M. Scheurer,  M. Schneider,  N. Sergueev,  S. M. Sharada,  W. Skomorowski,  
 D. W. Small,  C. J. Stein,  Yu-Chuan Su,  E. J. Sundstrom,  Zhen Tao,  
 J. Thirman,  T. Tsuchimochi,  N. M. Tubman,  S. P. Veccham,  O. Vydrov,  
 J. Wenzel,  J. Witte,  A. Yamada,  Kun Yao,  S. Yeganeh,  S. R. Yost,  
 A. Zech,  Igor Ying Zhang,  Xing Zhang,  Yu Zhang,  D. Zuev,  
 A. Aspuru-Guzik,  A. T. Bell,  N. A. Besley,  K. B. Bravaya,  B. R. Brooks,  
 D. Casanova,  Jeng-Da Chai,  S. Coriani,  C. J. Cramer,  
 A. E. DePrince, III,  R. A. DiStasio Jr.,  A. Dreuw,  B. D. Dunietz,  
 T. R. Furlani,  W. A. Goddard III,  S. Grimme,  S. Hammes-Schiffer,  
 T. Head-Gordon,  W. J. Hehre,  Chao-Ping Hsu,  T.-C. Jagau,  Yousung Jung,  
 A. Klamt,  Jing Kong,  D. S. Lambrecht,  WanZhen Liang,  N. J. Mayhall,  
 C. W. McCurdy,  J. B. Neaton,  C. Ochsenfeld,  J. A. Parkhill,  R. Peverati,  
 V. A. Rassolov,  Yihan Shao,  L. V. Slipchenko,  T. Stauch,  R. P. Steele,  
 J. E. Subotnik,  A. J. W. Thom,  A. Tkatchenko,  D. G. Truhlar,  
 T. Van Voorhis,  T. A. Wesolowski,  K. B. Whaley,  H. L. Woodcock III,  
 P. M. Zimmerman,  S. Faraji,  P. M. W. Gill,  M. Head-Gordon,  
 J. M. Herbert,  A. I. Krylov

 Contributors to earlier versions of Q-Chem not listed above: 
 R. D. Adamson,  B. Austin,  R. Baer,  J. Baker,  G. J. O. Beran,  
 K. Brandhorst,  S. T. Brown,  E. F. C. Byrd,  A. K. Chakraborty,  
 G. K. L. Chan,  Chun-Min Chang,  Yunqing Chen,  C.-L. Cheng,  
 Siu Hung Chien,  D. M. Chipman,  D. L. Crittenden,  H. Dachsel,  
 R. J. Doerksen,  A. D. Dutoi,  R. G. Edgar,  J. Fosso-Tande,  
 L. Fusti-Molnar,  D. Ghosh,  A. Ghysels,  A. Golubeva-Zadorozhnaya,  
 J. Gonthier,  M. S. Gordon,  S. R. Gwaltney,  G. Hawkins,  J. E. Herr,  
 A. Heyden,  S. Hirata,  E. G. Hohenstein,  G. Kedziora,  F. J. Keil,  
 C. Kelley,  Jihan Kim,  R. A. King,  R. Z. Khaliullin,  P. P. Korambath,  
 W. Kurlancheek,  A. Laurent,  A. M. Lee,  M. S. Lee,  S. V. Levchenko,  
 Ching Yeh Lin,  D. Liotard,  E. Livshits,  R. C. Lochan,  I. Lotan,  
 L. A. Martinez-Martinez,  P. E. Maslen,  N. Nair,  D. P. O'Neill,  
 D. Neuhauser,  E. Neuscamman,  C. M. Oana,  R. Olivares-Amaya,  R. Olson,  
 T. M. Perrine,  B. Peters,  P. A. Pieniazek,  A. Prociuk,  Y. M. Rhee,  
 J. Ritchie,  M. A. Rohrdanz,  E. Rosta,  N. J. Russ,  H. F. Schaefer III,  
 M. W. Schmidt,  N. E. Schultz,  S. Sharma,  N. Shenvi,  C. D. Sherrill,  
 A. C. Simmonett,  A. Sodt,  T. Stein,  D. Stuck,  K. S. Thanthiriwatte,  
 V. Vanovschi,  L. Vogt,  Tao Wang,  A. Warshel,  M. A. Watson,  
 C. F. Williams,  Q. Wu,  X. Xu,  Jun Yang,  W. Zhang,  Yan Zhao

 Please cite Q-Chem as follows:
 Y. Shao et al., Mol. Phys. 113, 184-215 (2015)
 DOI: 10.1080/00268976.2014.952696

 Q-Chem 5.4.0 for Intel X86 EM64T Linux

 Parts of Q-Chem use Armadillo 9.800.1 (Horizon Scraper).
 http://arma.sourceforge.net/

 Q-Chem begins on Sun Sep 24 15:06:26 2023  

 Host: 
0

     Scratch files written to ./qchem1069799//
 May1621 |scratch|qcdevops|jenkins|workspace|build_RNUM    
 Parallel job on  1  processors
 Processing $rem in /cm/shared/apps/spack/cpu/opt/spack/linux-centos8-zen2/gcc-10.2.0/qchem-5.4-akfmr7b3t57bfs6qan3padb2wnb2i7cl/config/preferences:
 Processing $rem in /home/rramji/.qchemrc:
 Symmetry turned off for PCM/SM12/SMD calculation
 Core orbitals will be frozen

 Checking the input file for inconsistencies... 	...done.

 Q-Chem warning in module forms1/BasisType.C, line 2236:

 You are not using the predefined 5D/6D in this basis set.


--------------------------------------------------------------
User input:
--------------------------------------------------------------
$molecule
0 1
C	-0.260216	-0.329934	-0.219989
S	0.136184	0.357066	1.360511
C	0.954984	1.775366	0.684911
C	0.238584	0.534466	-1.205389
C	0.898684	1.677866	-0.713489
H	0.120784	0.330366	-2.279889
H	1.339084	2.440766	-1.372589
C	-0.260216	-1.808134	-0.219989
H	0.108684	-1.808734	0.795011
H	-1.187316	-2.247434	0.117411
H	0.503684	-2.519134	-0.498189
H	1.395284	2.538166	1.336011
$end

$rem
JOBTYPE		SP
EXCHANGE	HF
CORRELATION	pRIMP2
BASIS		cc-pvtz
METHOD		rimp2
AUX_BASIS	rimp2-cc-pvtz
SOLVENT_METHOD	PCM
PURECART	11111
SYMMETRY	false
MEM_TOTAL	110000
SCF_CONVERGENCE = 6
THRESH=10
GUI = 2
$end



$solvent
dielectric 4.90
$end
--------------------------------------------------------------
 ----------------------------------------------------------------
             Standard Nuclear Orientation (Angstroms)
    I     Atom           X                Y                Z
 ----------------------------------------------------------------
    1      C      -0.2602160000    -0.3299340000    -0.2199890000
    2      S       0.1361840000     0.3570660000     1.3605110000
    3      C       0.9549840000     1.7753660000     0.6849110000
    4      C       0.2385840000     0.5344660000    -1.2053890000
    5      C       0.8986840000     1.6778660000    -0.7134890000
    6      H       0.1207840000     0.3303660000    -2.2798890000
    7      H       1.3390840000     2.4407660000    -1.3725890000
    8      C      -0.2602160000    -1.8081340000    -0.2199890000
    9      H       0.1086840000    -1.8087340000     0.7950110000
   10      H      -1.1873160000    -2.2474340000     0.1174110000
   11      H       0.5036840000    -2.5191340000    -0.4981890000
   12      H       1.3952840000     2.5381660000     1.3360110000
 ----------------------------------------------------------------
 Nuclear Repulsion Energy =         272.24334483 hartrees
 There are       26 alpha and       26 beta electrons
 Requested basis set is cc-pVTZ
 There are 98 shells and 268 basis functions

 Total QAlloc Memory Limit 110000 MB
 Mega-Array Size       188 MB
 MEM_STATIC part       192 MB
 Discretize the solute cavity surface with Lebedev spheres
	Using 110 Lebedev grid points for each H atom
	Using 194 Lebedev grid points for other atoms
	Atomic van der Waals radii will be scaled by 1.20
 Remove points where switching function is < 1.0e-08
 Keep 878 surface tesserae and discard 946 interior tesserae
 Molecular Surface Area = 137.003 Angst**2

                       Distance Matrix (Angstroms)
             C (  1)   S (  2)   C (  3)   C (  4)   C (  5)   H (  6)
   S (  2)  1.768356
   C (  3)  2.593809  1.771565
   C (  4)  1.402498  2.574063  2.371981
   C (  5)  2.370201  2.574373  1.402925  1.408922
   H (  6)  2.196439  3.640530  3.402051  1.100038  2.207826
   H (  7)  3.400445  3.641237  2.196269  2.207495  1.100173  2.600238
   C (  8)  1.478200  2.709835  3.890633  2.589901  3.706587  2.993582
   H (  9)  1.831164  2.238579  3.684307  3.083676  3.880213  3.745785
   H ( 10)  2.156423  3.174960  4.592867  3.394401  4.522142  3.755426
   H ( 11)  2.335281  3.444176  4.477290  3.145613  4.221041  3.382413
   H ( 12)  3.658936  2.518557  1.095290  3.436784  2.277538  4.424191
             H (  7)   C (  8)   H (  9)   H ( 10)   H ( 11)
   C (  8)  4.683951
   H (  9)  4.926523  1.079960
   H ( 10)  5.530101  1.079971  1.526832
   H ( 11)  5.105201  1.080028  1.527436  1.819963
   H ( 12)  2.710933  4.904298  4.565475  5.572861  5.453029
 
 Requested basis set is rimp2-cc-pVTZ
 There are 207 shells and 707 basis functions
 A cutoff of  1.0D-10 yielded   4408 shell pairs
 There are     33080 function pairs (     42768 Cartesian)
 Smallest overlap matrix eigenvalue = 1.50E-04

 Scale SEOQF with 1.000000e+00/1.000000e-01/1.000000e-01

 Standard Electronic Orientation quadrupole field applied
 Nucleus-field energy     =     0.0000000065 hartrees
 Guess from superposition of atomic densities
 Warning:  Energy on first SCF cycle will be non-variational
 SAD guess density has 52.000000 electrons

 -----------------------------------------------------------------------
  General SCF calculation program by
  Eric Jon Sundstrom, Paul Horn, Yuezhi Mao, Dmitri Zuev, Alec White,
  David Stuck, Shaama M.S., Shane Yost, Joonho Lee, David Small,
  Daniel Levine, Susi Lehtola, Hugh Burton, Evgeny Epifanovsky,
  Bang C. Huynh
 -----------------------------------------------------------------------
 Hartree-Fock
 using 64 threads for integral computing
 -------------------------------------------------------
 OpenMP Integral computing Module                
 Release: version 1.0, May 2013, Q-Chem Inc. Pittsburgh 
 -------------------------------------------------------
 A restricted SCF calculation will be
 performed using DIIS
 SCF converges when DIIS error is below 1.0e-06
 ---------------------------------------
  Cycle       Energy         DIIS error
 ---------------------------------------
    1    -592.6200349910      3.24e-02  
    2    -590.2792596984      2.18e-03  
    3    -590.3405007042      7.97e-04  
    4    -590.3475027514      3.74e-04  
    5    -590.3493443303      7.23e-05  
    6    -590.3494794605      3.05e-05  
    7    -590.3495153329      1.50e-05  
    8    -590.3495258827      5.83e-06  
    9    -590.3495275289      2.40e-06  
   10    -590.3495277156      6.59e-07  Convergence criterion met
 ---------------------------------------
 SCF time:   CPU 532.41s  wall 10.00s 

************** Final PCM Free Energy Summary **************
 G_electrostatic  =      -0.00513926 hartree =      -3.22493718 kcal/mol
 G_cavitation     =       0.00000000 hartree =       0.00000000 kcal/mol
 G_dispersion     =       0.00000000 hartree =       0.00000000 kcal/mol
 G_repulsion      =       0.00000000 hartree =       0.00000000 kcal/mol
 --------------------------------------------------
 Non-electrostatic Free Energy =       0.00000000 hartree =       0.00000000 kcal/mol
 Total                         =      -0.00513926 hartree =      -3.22493718 kcal/mol
 --------------------------------------------------
 SCF Energy (H0 + V/2)                       =    -590.34952772 
 Solute Internal Energy (H0)                 =    -590.34438845 
 Total Free Energy (H0 + V/2 + non-elec)     =    -590.34952772 hartree
                                             = -370449.91984194 kcal/mol
***********************************************************

 SCF   energy in the final basis set =     -590.3495277156
 Total energy in the final basis set =     -590.3495277156


 --------------------------------------------------------------
  Generalized many-body perturbation theory program
  by Joonho Lee, Fazle Rob, Xintian Feng, Evgeny Epifanovsky

 No regularization used 
 (reg. param. = 0.0000e+00)
  (P|Q)^-1/2 Time:  CPU 6.90 s  wall 0.12 s

 In RI-MP2 calculation: 
 # of frozen core orbitals: 10

 Components of the RIMP2 correlation energy:
        aaaa    correlation energy =        -0.1259472100 a.u.
        abab    correlation energy =        -0.7537914160 a.u.
        bbbb    correlation energy =        -0.1259472100 a.u.
        non-Brillouin singles      =        -0.0000000000 a.u.
        total same-spin energy     =        -0.2518944199 a.u.
        total opposite-spin energy =        -0.7537914160 a.u.

 Total  RIMP2   correlation energy =        -1.0056858359 a.u.
        RIMP2         total energy =      -591.3552135515 a.u.

 RI-MP2 Energy Time:  CPU 29.48 s  wall 0.52 s
 
 --------------------------------------------------------------
 
                    Orbital Energies (a.u.)
 --------------------------------------------------------------
 
 Alpha MOs
 -- Occupied --
-91.9775 -11.2756 -11.2748 -11.2431 -11.2412 -11.2188  -8.9780  -6.6588
 -6.6582  -6.6577  -1.1608  -1.0388  -0.9746  -0.9144  -0.7607  -0.7214
 -0.6716  -0.5934  -0.5704  -0.5632  -0.5358  -0.4944  -0.4624  -0.4480
 -0.3444  -0.3093
 -- Virtual --
  0.0884   0.1513   0.1609   0.1738   0.1918   0.1972   0.2099   0.2217
  0.2378   0.2619   0.3036   0.3144   0.3634   0.3687   0.3996   0.4096
  0.4358   0.4553   0.4586   0.4673   0.4830   0.5028   0.5160   0.5324
  0.5380   0.5583   0.5633   0.5744   0.6026   0.6075   0.6150   0.6237
  0.6312   0.6403   0.6504   0.6598   0.6862   0.7148   0.7249   0.7585
  0.7824   0.7908   0.8203   0.8524   0.8741   0.8791   0.8965   0.9385
  0.9478   0.9814   0.9949   1.0410   1.0624   1.0820   1.1054   1.1379
  1.1471   1.1521   1.1750   1.1942   1.2296   1.2348   1.2390   1.2564
  1.2985   1.3204   1.3517   1.3643   1.3776   1.4070   1.4220   1.4300
  1.4690   1.4820   1.4910   1.5113   1.5421   1.5465   1.5527   1.5745
  1.6126   1.6420   1.6501   1.6580   1.7150   1.7332   1.7630   1.8228
  1.8246   1.8864   1.9051   1.9378   1.9472   2.0003   2.0385   2.1188
  2.1402   2.1735   2.1800   2.2050   2.2525   2.2675   2.3501   2.4104
  2.4332   2.4641   2.4863   2.5020   2.5752   2.5953   2.6125   2.6735
  2.6938   2.7069   2.7187   2.7273   2.7418   2.7786   2.7971   2.8381
  2.8839   2.8936   2.9243   2.9813   2.9896   3.0156   3.0340   3.0373
  3.0606   3.1260   3.1359   3.1420   3.1671   3.1982   3.2140   3.2400
  3.2709   3.2733   3.2898   3.3163   3.3296   3.3452   3.3690   3.3863
  3.4156   3.4219   3.4324   3.4447   3.4540   3.4646   3.4749   3.5001
  3.5089   3.5324   3.5584   3.5871   3.5989   3.6215   3.6522   3.6650
  3.6850   3.7126   3.7310   3.7440   3.7675   3.7977   3.8172   3.8583
  3.8743   3.8976   3.9012   3.9299   3.9523   3.9595   3.9692   3.9856
  4.0150   4.0311   4.0452   4.1124   4.1237   4.1411   4.1782   4.2118
  4.2217   4.2484   4.2638   4.2993   4.3119   4.3541   4.3860   4.4030
  4.4363   4.4501   4.4810   4.4869   4.5396   4.5676   4.6030   4.6327
  4.6665   4.6853   4.7061   4.7694   4.7866   4.7970   4.8289   4.8734
  4.9011   5.0124   5.0209   5.0332   5.0768   5.1615   5.1658   5.1978
  5.2219   5.2978   5.3590   5.4128   5.4632   5.5022   5.5350   5.5996
  5.6252   5.6678   5.7749   5.8103   5.8768   5.9243   5.9836   6.0617
  6.1058   6.3196   6.4205   6.4353   6.6679   9.4397  11.3799  12.6942
 13.8745  14.1921
 --------------------------------------------------------------
 
          Ground-State Mulliken Net Atomic Charges

     Atom                 Charge (a.u.)
  ----------------------------------------
      1 C                    -0.006539
      2 S                    -0.004301
      3 C                    -0.217186
      4 C                    -0.207790
      5 C                    -0.191577
      6 H                     0.184279
      7 H                     0.186439
      8 C                    -0.355701
      9 H                     0.121742
     10 H                     0.122848
     11 H                     0.161705
     12 H                     0.206082
  ----------------------------------------
  Sum of atomic charges =     0.000000

 -----------------------------------------------------------------
                    Cartesian Multipole Moments
 -----------------------------------------------------------------
    Charge (ESU x 10^10)
                 0.0000
    Dipole Moment (Debye)
         X       1.0782      Y      -0.0751      Z      -0.4877
       Tot       1.1857
    Quadrupole Moments (Debye-Ang)
        XX     -45.5273     XY       3.2567     YY     -38.6935
        XZ      -0.0432     YZ      -0.3647     ZZ     -42.1190
    Octopole Moments (Debye-Ang^2)
       XXX     -36.6739    XXY     -12.0959    XYY       0.1320
       YYY     -37.2937    XXZ      -6.0665    XYZ       3.2391
       YYZ      -2.2378    XZZ      -7.6324    YZZ      -6.3755
       ZZZ     -29.3471
    Hexadecapole Moments (Debye-Ang^3)
      XXXX    -147.6122   XXXY     -78.0015   XXYY     -90.2374
      XYYY     -60.5906   YYYY    -450.9491   XXXZ      -3.2985
      XXYZ      -3.4241   XYYZ      -0.2336   YYYZ     -10.8744
      XXZZ     -75.6055   XYZZ     -15.6414   YYZZ    -120.6277
      XZZZ      -0.8458   YZZZ     -13.2983   ZZZZ    -302.2085
 -----------------------------------------------------------------
 Total job time:  11.92s(wall), 597.85s(cpu) 
 Sun Sep 24 15:06:38 2023

        *************************************************************
        *                                                           *
        *  Thank you very much for using Q-Chem.  Have a nice day.  *
        *                                                           *
        *************************************************************


0 sent ACK to 0 
now end server 0 ... 
cleanup process ... done
remove work dirs ./qchem1069799.0 -- ./qchem1069799.0
rm -rf ./qchem1069799.0
rm -rf ./qchem1069799
