You are running Q-Chem version: 5.4.0

#
# job setting
#
local host:  exp-2-38
current dir: /expanse/lustre/projects/csd626/rramji/aromodel/PNDIT/Hydrogenated_Impropers_Test
input file:  Dimethyl_Naphthalene_Dicarboximide_Phi_0_Theta_30_Thiophene_Hydrogenated_Improper.qcin
output file: 
nprocs     : 1
nthreads   : 64
#
# qchem installation setting
#
QC:          /cm/shared/apps/spack/cpu/opt/spack/linux-centos8-zen2/gcc-10.2.0/qchem-5.4-akfmr7b3t57bfs6qan3padb2wnb2i7cl
QCAUX:       /cm/shared/apps/spack/cpu/opt/spack/linux-centos8-zen2/gcc-10.2.0/qchem-5.4-akfmr7b3t57bfs6qan3padb2wnb2i7cl/qcaux
QCPROG:      /cm/shared/apps/spack/cpu/opt/spack/linux-centos8-zen2/gcc-10.2.0/qchem-5.4-akfmr7b3t57bfs6qan3padb2wnb2i7cl/exe/qcprog.exe
QCPROG_S:    /cm/shared/apps/spack/cpu/opt/spack/linux-centos8-zen2/gcc-10.2.0/qchem-5.4-akfmr7b3t57bfs6qan3padb2wnb2i7cl/exe/qcprog.exe_s
PARALLEL:    -DPARALLEL
QCMPI:       mpich
#
# qchem directory setting
#
qcrun:       qchem3718536
QCSCRATCH:   .
QCLOCALSCR:  
QCTMPDIR:    .
QCFILEPREF:  ./qchem3718536
QCSAVEDIR:   
workdirs:    ./qchem3718536
workdir0:    ./qchem3718536
partmpdirs =  
#
# parallel setting
#
QCRSH:           ssh
QCMPI:           mpich
QCMPIRUN:        /cm/shared/apps/spack/cpu/opt/spack/linux-centos8-zen2/gcc-10.2.0/qchem-5.4-akfmr7b3t57bfs6qan3padb2wnb2i7cl/bin/mpi/mpirun_qchem
QCMACHINEFILE:   ./qchem3718536/hostfile
exp-2-38

#
# env setting
#
exported envs:   QC QCAUX QCSCRATCH QCRUNNAME QCFILEPREF QCPROG QCPROG_S GUIFILE

Running Job 1 of 1 Dimethyl_Naphthalene_Dicarboximide_Phi_0_Theta_30_Thiophene_Hydrogenated_Improper.qcin
qchem Dimethyl_Naphthalene_Dicarboximide_Phi_0_Theta_30_Thiophene_Hydrogenated_Improper.qcin_3718536.0 ./qchem3718536/ 1
/cm/shared/apps/spack/cpu/opt/spack/linux-centos8-zen2/gcc-10.2.0/qchem-5.4-akfmr7b3t57bfs6qan3padb2wnb2i7cl/bin/mpi/mpirun_qchem -machinefile ./qchem3718536/hostfile -np 1 /cm/shared/apps/spack/cpu/opt/spack/linux-centos8-zen2/gcc-10.2.0/qchem-5.4-akfmr7b3t57bfs6qan3padb2wnb2i7cl/exe/qcprog.exe Dimethyl_Naphthalene_Dicarboximide_Phi_0_Theta_30_Thiophene_Hydrogenated_Improper.qcin_3718536.0 ./qchem3718536/

Process 0 of 1 is on exp-2-38 - thread support 0
initial socket setup ...start
initial socket setup ...done 
now start server 0 ... 
                  Welcome to Q-Chem
     A Quantum Leap Into The Future Of Chemistry


 Q-Chem 5.4, Q-Chem, Inc., Pleasanton, CA (2021)

 License issued to: University of California, San Diego (site)

 E. Epifanovsky,  A. T. B. Gilbert,  Xintian Feng,  Joonho Lee,  Yuezhi Mao,  
 N. Mardirossian,  P. Pokhilko,  A. White,  M. Wormit,  M. P. Coons,  
 A. L. Dempwolff,  Zhengting Gan,  D. Hait,  P. R. Horn,  L. D. Jacobson,  
 I. Kaliman,  J. Kussmann,  A. W. Lange,  Ka Un Lao,  D. S. Levine,  Jie Liu,  
 S. C. McKenzie,  A. F. Morrison,  K. Nanda,  F. Plasser,  D. R. Rehn,  
 M. L. Vidal,  Zhi-Qiang You,  Ying Zhu,  B. Alam,  B. Albrecht,  
 A. Aldossary,  E. Alguire,  J. H. Andersen,  D. Barton,  K. Begam,  A. Behn,  
 Y. A. Bernard,  E. J. Berquist,  H. Burton,  A. Carreras,  K. Carter-Fenk,  
 R. Chakraborty,  A. D. Chien,  K. D. Closser,  V. Cofer-Shabica,  
 S. Dasgupta,  Jia Deng,  M. de Wergifosse,  M. Diedenhofen,  Hainam Do,  
 S. Ehlert,  Po-Tung Fang,  S. Fatehi,  Qingguo Feng,  J. Gayvert,  
 Qinghui Ge,  G. Gidofalvi,  M. Goldey,  J. Gomes,  C. Gonzalez-Espinoza,  
 S. Gulania,  A. Gunina,  M. W. D. Hanson-Heine,  P. H. P. Harbach,  
 A. W. Hauser,  M. F. Herbst,  M. Hernandez Vera,  M. Hodecker,  
 Z. C. Holden,  S. Houck,  Xunkun Huang,  Kerwin Hui,  B. C. Huynh,  
 M. Ivanov,  Hyunjun Ji,  Hanjie Jiang,  B. Kaduk,  S. Kaehler,  
 K. Khistyaev,  Jaehoon Kim,  P. Klunzinger,  Z. Koczor-Benda,  
 Joong Hoon Koh,  D. Kosenkov,  L. Koulias,  T. Kowalczyk,  C. M. Krauter,  
 K. Kue,  A. Kunitsa,  T. Kus,  A. Landau,  K. V. Lawler,  D. Lefrancois,  
 S. Lehtola,  Rain Li,  Yi-Pei Li,  Jiashu Liang,  M. Liebenthal,  
 Hung-Hsuan Lin,  You-Sheng Lin,  Fenglai Liu,  Kuan-Yu Liu,  
 M. Loipersberger,  A. Luenser,  A. Manjanath,  P. Manohar,  E. Mansoor,  
 S. F. Manzer,  Shan-Ping Mao,  A. V. Marenich,  T. Markovich,  S. Mason,  
 S. A. Maurer,  P. F. McLaughlin,  M. F. S. J. Menger,  J.-M. Mewes,  
 S. A. Mewes,  P. Morgante,  J. W. Mullinax,  T. S. Nguyen-Beck,  
 K. J. Oosterbaan,  G. Paran,  Alexander C. Paul,  Suranjan K. Paul,  
 F. Pavosevic,  Zheng Pei,  S. Prager,  E. I. Proynov,  E. Ramos,  B. Rana,  
 A. E. Rask,  A. Rettig,  R. M. Richard,  F. Rob,  E. Rossomme,  T. Scheele,  
 M. Scheurer,  M. Schneider,  N. Sergueev,  S. M. Sharada,  W. Skomorowski,  
 D. W. Small,  C. J. Stein,  Yu-Chuan Su,  E. J. Sundstrom,  Zhen Tao,  
 J. Thirman,  T. Tsuchimochi,  N. M. Tubman,  S. P. Veccham,  O. Vydrov,  
 J. Wenzel,  J. Witte,  A. Yamada,  Kun Yao,  S. Yeganeh,  S. R. Yost,  
 A. Zech,  Igor Ying Zhang,  Xing Zhang,  Yu Zhang,  D. Zuev,  
 A. Aspuru-Guzik,  A. T. Bell,  N. A. Besley,  K. B. Bravaya,  B. R. Brooks,  
 D. Casanova,  Jeng-Da Chai,  S. Coriani,  C. J. Cramer,  
 A. E. DePrince, III,  R. A. DiStasio Jr.,  A. Dreuw,  B. D. Dunietz,  
 T. R. Furlani,  W. A. Goddard III,  S. Grimme,  S. Hammes-Schiffer,  
 T. Head-Gordon,  W. J. Hehre,  Chao-Ping Hsu,  T.-C. Jagau,  Yousung Jung,  
 A. Klamt,  Jing Kong,  D. S. Lambrecht,  WanZhen Liang,  N. J. Mayhall,  
 C. W. McCurdy,  J. B. Neaton,  C. Ochsenfeld,  J. A. Parkhill,  R. Peverati,  
 V. A. Rassolov,  Yihan Shao,  L. V. Slipchenko,  T. Stauch,  R. P. Steele,  
 J. E. Subotnik,  A. J. W. Thom,  A. Tkatchenko,  D. G. Truhlar,  
 T. Van Voorhis,  T. A. Wesolowski,  K. B. Whaley,  H. L. Woodcock III,  
 P. M. Zimmerman,  S. Faraji,  P. M. W. Gill,  M. Head-Gordon,  
 J. M. Herbert,  A. I. Krylov

 Contributors to earlier versions of Q-Chem not listed above: 
 R. D. Adamson,  B. Austin,  R. Baer,  J. Baker,  G. J. O. Beran,  
 K. Brandhorst,  S. T. Brown,  E. F. C. Byrd,  A. K. Chakraborty,  
 G. K. L. Chan,  Chun-Min Chang,  Yunqing Chen,  C.-L. Cheng,  
 Siu Hung Chien,  D. M. Chipman,  D. L. Crittenden,  H. Dachsel,  
 R. J. Doerksen,  A. D. Dutoi,  R. G. Edgar,  J. Fosso-Tande,  
 L. Fusti-Molnar,  D. Ghosh,  A. Ghysels,  A. Golubeva-Zadorozhnaya,  
 J. Gonthier,  M. S. Gordon,  S. R. Gwaltney,  G. Hawkins,  J. E. Herr,  
 A. Heyden,  S. Hirata,  E. G. Hohenstein,  G. Kedziora,  F. J. Keil,  
 C. Kelley,  Jihan Kim,  R. A. King,  R. Z. Khaliullin,  P. P. Korambath,  
 W. Kurlancheek,  A. Laurent,  A. M. Lee,  M. S. Lee,  S. V. Levchenko,  
 Ching Yeh Lin,  D. Liotard,  E. Livshits,  R. C. Lochan,  I. Lotan,  
 L. A. Martinez-Martinez,  P. E. Maslen,  N. Nair,  D. P. O'Neill,  
 D. Neuhauser,  E. Neuscamman,  C. M. Oana,  R. Olivares-Amaya,  R. Olson,  
 T. M. Perrine,  B. Peters,  P. A. Pieniazek,  A. Prociuk,  Y. M. Rhee,  
 J. Ritchie,  M. A. Rohrdanz,  E. Rosta,  N. J. Russ,  H. F. Schaefer III,  
 M. W. Schmidt,  N. E. Schultz,  S. Sharma,  N. Shenvi,  C. D. Sherrill,  
 A. C. Simmonett,  A. Sodt,  T. Stein,  D. Stuck,  K. S. Thanthiriwatte,  
 V. Vanovschi,  L. Vogt,  Tao Wang,  A. Warshel,  M. A. Watson,  
 C. F. Williams,  Q. Wu,  X. Xu,  Jun Yang,  W. Zhang,  Yan Zhao

 Please cite Q-Chem as follows:
 Y. Shao et al., Mol. Phys. 113, 184-215 (2015)
 DOI: 10.1080/00268976.2014.952696

 Q-Chem 5.4.0 for Intel X86 EM64T Linux

 Parts of Q-Chem use Armadillo 9.800.1 (Horizon Scraper).
 http://arma.sourceforge.net/

 Q-Chem begins on Sun Sep 24 15:02:44 2023  

 Host: 
0

     Scratch files written to ./qchem3718536//
 May1621 |scratch|qcdevops|jenkins|workspace|build_RNUM    
 Parallel job on  1  processors
 Processing $rem in /cm/shared/apps/spack/cpu/opt/spack/linux-centos8-zen2/gcc-10.2.0/qchem-5.4-akfmr7b3t57bfs6qan3padb2wnb2i7cl/config/preferences:
 Processing $rem in /home/rramji/.qchemrc:
 Symmetry turned off for PCM/SM12/SMD calculation
 Core orbitals will be frozen

 Checking the input file for inconsistencies... 	...done.

 Q-Chem warning in module forms1/BasisType.C, line 2236:

 You are not using the predefined 5D/6D in this basis set.


--------------------------------------------------------------
User input:
--------------------------------------------------------------
$molecule
0 1
C	-0.004275	-0.399361	-0.218020
S	-0.004475	0.393839	1.362480
C	-0.004475	2.031539	0.686880
C	-0.004475	0.598639	-1.203420
C	-0.004575	1.918839	-0.711520
H	-0.004375	0.362939	-2.277920
H	-0.004575	2.799839	-1.370620
C	-0.004275	-1.877561	-0.218020
H	0.930725	-1.878161	0.322480
H	-0.497575	-2.316861	0.636380
H	0.402125	-2.588561	-0.922120
H	-0.004575	2.912239	1.337980
$end

$rem
JOBTYPE		SP
EXCHANGE	HF
CORRELATION	pRIMP2
BASIS		cc-pvtz
METHOD		rimp2
AUX_BASIS	rimp2-cc-pvtz
SOLVENT_METHOD	PCM
PURECART	11111
SYMMETRY	false
MEM_TOTAL	110000
SCF_CONVERGENCE = 6
THRESH=10
GUI = 2
$end



$solvent
dielectric 4.90
$end
--------------------------------------------------------------
 ----------------------------------------------------------------
             Standard Nuclear Orientation (Angstroms)
    I     Atom           X                Y                Z
 ----------------------------------------------------------------
    1      C      -0.0042750000    -0.3993610000    -0.2180200000
    2      S      -0.0044750000     0.3938390000     1.3624800000
    3      C      -0.0044750000     2.0315390000     0.6868800000
    4      C      -0.0044750000     0.5986390000    -1.2034200000
    5      C      -0.0045750000     1.9188390000    -0.7115200000
    6      H      -0.0043750000     0.3629390000    -2.2779200000
    7      H      -0.0045750000     2.7998390000    -1.3706200000
    8      C      -0.0042750000    -1.8775610000    -0.2180200000
    9      H       0.9307250000    -1.8781610000     0.3224800000
   10      H      -0.4975750000    -2.3168610000     0.6363800000
   11      H       0.4021250000    -2.5885610000    -0.9221200000
   12      H      -0.0045750000     2.9122390000     1.3379800000
 ----------------------------------------------------------------
 Nuclear Repulsion Energy =         270.52373530 hartrees
 There are       26 alpha and       26 beta electrons
 Requested basis set is cc-pVTZ
 There are 98 shells and 268 basis functions

 Total QAlloc Memory Limit 110000 MB
 Mega-Array Size       188 MB
 MEM_STATIC part       192 MB
 Discretize the solute cavity surface with Lebedev spheres
	Using 110 Lebedev grid points for each H atom
	Using 194 Lebedev grid points for other atoms
	Atomic van der Waals radii will be scaled by 1.20
 Remove points where switching function is < 1.0e-08
 Keep 889 surface tesserae and discard 935 interior tesserae
 Molecular Surface Area = 138.424 Angst**2

                       Distance Matrix (Angstroms)
             C (  1)   S (  2)   C (  3)   C (  4)   C (  5)   H (  6)
   S (  2)  1.768374
   C (  3)  2.593862  1.771580
   C (  4)  1.402504  2.574060  2.372011
   C (  5)  2.370146  2.574316  1.402934  1.408863
   H (  6)  2.196426  3.640531  3.402097  1.100048  2.207812
   H (  7)  3.400495  3.641246  2.196268  2.207541  1.100261  2.600322
   C (  8)  1.478200  2.767172  4.012469  2.665067  3.828341  3.043522
   H (  9)  1.831178  2.667992  4.036476  3.055734  4.044892  3.557952
   H ( 10)  2.156421  2.849257  4.376560  3.482550  4.472252  3.989702
   H ( 11)  2.335276  3.778813  4.909127  3.225321  4.530608  3.273345
   H ( 12)  3.658938  2.518519  1.095246  3.436780  2.277563  4.424213
             H (  7)   C (  8)   H (  9)   H ( 10)   H ( 11)
   C (  8)  4.817319
   H (  9)  5.062120  1.079984
   H ( 10)  5.518307  1.079967  1.526772
   H ( 11)  5.422307  1.080018  1.527454  1.819946
   H ( 12)  2.710931  5.036201  4.985374  5.298941  5.960894
 
 Requested basis set is rimp2-cc-pVTZ
 There are 207 shells and 707 basis functions
 A cutoff of  1.0D-10 yielded   4359 shell pairs
 There are     32641 function pairs (     42187 Cartesian)
 Smallest overlap matrix eigenvalue = 1.04E-04

 Scale SEOQF with 1.000000e+00/1.000000e-01/1.000000e-01

 Standard Electronic Orientation quadrupole field applied
 Nucleus-field energy     =     0.0000000021 hartrees
 Guess from superposition of atomic densities
 Warning:  Energy on first SCF cycle will be non-variational
 SAD guess density has 52.000000 electrons

 -----------------------------------------------------------------------
  General SCF calculation program by
  Eric Jon Sundstrom, Paul Horn, Yuezhi Mao, Dmitri Zuev, Alec White,
  David Stuck, Shaama M.S., Shane Yost, Joonho Lee, David Small,
  Daniel Levine, Susi Lehtola, Hugh Burton, Evgeny Epifanovsky,
  Bang C. Huynh
 -----------------------------------------------------------------------
 Hartree-Fock
 using 64 threads for integral computing
 -------------------------------------------------------
 OpenMP Integral computing Module                
 Release: version 1.0, May 2013, Q-Chem Inc. Pittsburgh 
 -------------------------------------------------------
 A restricted SCF calculation will be
 performed using DIIS
 SCF converges when DIIS error is below 1.0e-06
 ---------------------------------------
  Cycle       Energy         DIIS error
 ---------------------------------------
    1    -592.5769487224      3.22e-02  
    2    -590.3026289833      2.21e-03  
    3    -590.3639439749      8.66e-04  
    4    -590.3715307105      4.05e-04  
    5    -590.3736329931      7.07e-05  
    6    -590.3737608793      3.22e-05  
    7    -590.3737919842      1.43e-05  
    8    -590.3738015382      5.73e-06  
    9    -590.3738029517      1.87e-06  
   10    -590.3738030809      6.17e-07  Convergence criterion met
 ---------------------------------------
 SCF time:   CPU 511.11s  wall 18.00s 

************** Final PCM Free Energy Summary **************
 G_electrostatic  =      -0.00585757 hartree =      -3.67567872 kcal/mol
 G_cavitation     =       0.00000000 hartree =       0.00000000 kcal/mol
 G_dispersion     =       0.00000000 hartree =       0.00000000 kcal/mol
 G_repulsion      =       0.00000000 hartree =       0.00000000 kcal/mol
 --------------------------------------------------
 Non-electrostatic Free Energy =       0.00000000 hartree =       0.00000000 kcal/mol
 Total                         =      -0.00585757 hartree =      -3.67567872 kcal/mol
 --------------------------------------------------
 SCF Energy (H0 + V/2)                       =    -590.37380308 
 Solute Internal Energy (H0)                 =    -590.36794551 
 Total Free Energy (H0 + V/2 + non-elec)     =    -590.37380308 hartree
                                             = -370465.15286356 kcal/mol
***********************************************************

 SCF   energy in the final basis set =     -590.3738030809
 Total energy in the final basis set =     -590.3738030809


 --------------------------------------------------------------
  Generalized many-body perturbation theory program
  by Joonho Lee, Fazle Rob, Xintian Feng, Evgeny Epifanovsky

 No regularization used 
 (reg. param. = 0.0000e+00)
  (P|Q)^-1/2 Time:  CPU 5.45 s  wall 0.09 s

 In RI-MP2 calculation: 
 # of frozen core orbitals: 10

 Components of the RIMP2 correlation energy:
        aaaa    correlation energy =        -0.1248790720 a.u.
        abab    correlation energy =        -0.7499598034 a.u.
        bbbb    correlation energy =        -0.1248790720 a.u.
        non-Brillouin singles      =        -0.0000000000 a.u.
        total same-spin energy     =        -0.2497581440 a.u.
        total opposite-spin energy =        -0.7499598034 a.u.

 Total  RIMP2   correlation energy =        -0.9997179474 a.u.
        RIMP2         total energy =      -591.3735210283 a.u.

 RI-MP2 Energy Time:  CPU 23.52 s  wall 0.40 s
 
 --------------------------------------------------------------
 
                    Orbital Energies (a.u.)
 --------------------------------------------------------------
 
 Alpha MOs
 -- Occupied --
-91.9790 -11.2899 -11.2648 -11.2426 -11.2317 -11.2272  -8.9790  -6.6599
 -6.6594  -6.6588  -1.1574  -1.0410  -0.9715  -0.9195  -0.7558  -0.7210
 -0.6715  -0.5974  -0.5656  -0.5616  -0.5368  -0.4985  -0.4742  -0.4561
 -0.3469  -0.3008
 -- Virtual --
  0.1094   0.1454   0.1605   0.1810   0.1896   0.2037   0.2133   0.2207
  0.2304   0.2472   0.3093   0.3377   0.3496   0.3679   0.3837   0.4154
  0.4269   0.4430   0.4600   0.4879   0.4955   0.5069   0.5216   0.5421
  0.5499   0.5552   0.5719   0.5848   0.6021   0.6062   0.6151   0.6206
  0.6266   0.6420   0.6493   0.6629   0.7039   0.7124   0.7424   0.7762
  0.7817   0.8063   0.8390   0.8450   0.8759   0.8818   0.8939   0.9456
  0.9593   0.9855   1.0040   1.0292   1.0618   1.0763   1.1012   1.1124
  1.1374   1.1688   1.1723   1.1762   1.2227   1.2243   1.2467   1.2626
  1.2797   1.3030   1.3390   1.3598   1.3909   1.4180   1.4323   1.4424
  1.4792   1.4986   1.5142   1.5295   1.5479   1.5549   1.5595   1.5838
  1.5997   1.6318   1.6500   1.6802   1.7082   1.7430   1.7655   1.7941
  1.8366   1.8852   1.9148   1.9275   1.9448   2.0131   2.0690   2.0801
  2.1504   2.1705   2.2218   2.2275   2.2559   2.2894   2.3347   2.4157
  2.4334   2.4491   2.4557   2.5336   2.5408   2.5998   2.6428   2.6567
  2.6952   2.7227   2.7328   2.7384   2.7526   2.7685   2.8106   2.8392
  2.8768   2.8915   2.9398   2.9624   2.9775   3.0183   3.0369   3.0457
  3.0533   3.0756   3.1133   3.1557   3.1699   3.2104   3.2170   3.2383
  3.2538   3.2854   3.2890   3.3102   3.3168   3.3515   3.3720   3.3890
  3.3909   3.4324   3.4404   3.4496   3.4568   3.4699   3.4824   3.4986
  3.5053   3.5181   3.5477   3.5600   3.5878   3.6149   3.6216   3.6554
  3.6923   3.7079   3.7245   3.7412   3.7692   3.7870   3.8077   3.8357
  3.8551   3.8834   3.9124   3.9263   3.9566   3.9592   3.9633   3.9794
  4.0107   4.0386   4.0664   4.0893   4.1327   4.1481   4.1628   4.1949
  4.2150   4.2486   4.2749   4.2805   4.2986   4.3444   4.3872   4.3997
  4.4169   4.4620   4.4798   4.5041   4.5408   4.5657   4.5877   4.6412
  4.6676   4.7001   4.7356   4.7502   4.8009   4.8210   4.8397   4.8566
  4.9482   5.0124   5.0277   5.0377   5.0767   5.1385   5.1752   5.1986
  5.2155   5.3024   5.3677   5.4381   5.4675   5.4924   5.5367   5.6104
  5.6203   5.7050   5.8022   5.8155   5.8578   5.9812   6.0358   6.0870
  6.1383   6.3299   6.4146   6.4827   6.7316   9.3857  11.3072  12.8836
 13.9281  14.3123
 --------------------------------------------------------------
 
          Ground-State Mulliken Net Atomic Charges

     Atom                 Charge (a.u.)
  ----------------------------------------
      1 C                     0.020916
      2 S                    -0.005987
      3 C                    -0.241910
      4 C                    -0.234909
      5 C                    -0.187876
      6 H                     0.184391
      7 H                     0.185064
      8 C                    -0.357864
      9 H                     0.131578
     10 H                     0.136197
     11 H                     0.165292
     12 H                     0.205109
  ----------------------------------------
  Sum of atomic charges =     0.000000

 -----------------------------------------------------------------
                    Cartesian Multipole Moments
 -----------------------------------------------------------------
    Charge (ESU x 10^10)
                 0.0000
    Dipole Moment (Debye)
         X       0.6170      Y      -0.6785      Z      -0.7047
       Tot       1.1565
    Quadrupole Moments (Debye-Ang)
        XX     -48.0932     XY      -1.3618     YY     -35.8331
        XZ      -0.4795     YZ       0.3712     ZZ     -42.0190
    Octopole Moments (Debye-Ang^2)
       XXX      -0.4158    XXY     -21.8946    XYY       2.7856
       YYY     -42.6953    XXZ      -7.3173    XYZ       1.4553
       YYZ      -3.6726    XZZ      -0.1302    YZZ     -10.8226
       ZZZ     -28.5788
    Hexadecapole Moments (Debye-Ang^3)
      XXXX     -65.4023   XXXY       2.3585   XXYY    -116.3051
      XYYY      -4.9517   YYYY    -498.6601   XXXZ       0.8774
      XXYZ      -6.0713   XYYZ      -3.8401   YYYZ      -6.3601
      XXZZ     -69.3880   XYZZ       0.4198   YYZZ    -123.9029
      XZZZ       0.2362   YZZZ     -13.3874   ZZZZ    -306.1828
 -----------------------------------------------------------------
 Total job time:  22.18s(wall), 593.62s(cpu) 
 Sun Sep 24 15:03:07 2023

        *************************************************************
        *                                                           *
        *  Thank you very much for using Q-Chem.  Have a nice day.  *
        *                                                           *
        *************************************************************


0 sent ACK to 0 
now end server 0 ... 
cleanup process ... done
remove work dirs ./qchem3718536.0 -- ./qchem3718536.0
rm -rf ./qchem3718536.0
rm -rf ./qchem3718536
