You are running Q-Chem version: 5.4.0

#
# job setting
#
local host:  exp-2-46
current dir: /expanse/lustre/projects/csd626/rramji/aromodel/PNDIT/Hydrogenated_Impropers_Test
input file:  Dimethyl_Naphthalene_Dicarboximide_Phi_40_Theta_300_Thiophene_Hydrogenated_Improper.qcin
output file: 
nprocs     : 1
nthreads   : 64
#
# qchem installation setting
#
QC:          /cm/shared/apps/spack/cpu/opt/spack/linux-centos8-zen2/gcc-10.2.0/qchem-5.4-akfmr7b3t57bfs6qan3padb2wnb2i7cl
QCAUX:       /cm/shared/apps/spack/cpu/opt/spack/linux-centos8-zen2/gcc-10.2.0/qchem-5.4-akfmr7b3t57bfs6qan3padb2wnb2i7cl/qcaux
QCPROG:      /cm/shared/apps/spack/cpu/opt/spack/linux-centos8-zen2/gcc-10.2.0/qchem-5.4-akfmr7b3t57bfs6qan3padb2wnb2i7cl/exe/qcprog.exe
QCPROG_S:    /cm/shared/apps/spack/cpu/opt/spack/linux-centos8-zen2/gcc-10.2.0/qchem-5.4-akfmr7b3t57bfs6qan3padb2wnb2i7cl/exe/qcprog.exe_s
PARALLEL:    -DPARALLEL
QCMPI:       mpich
#
# qchem directory setting
#
qcrun:       qchem1891724
QCSCRATCH:   .
QCLOCALSCR:  
QCTMPDIR:    .
QCFILEPREF:  ./qchem1891724
QCSAVEDIR:   
workdirs:    ./qchem1891724
workdir0:    ./qchem1891724
partmpdirs =  
#
# parallel setting
#
QCRSH:           ssh
QCMPI:           mpich
QCMPIRUN:        /cm/shared/apps/spack/cpu/opt/spack/linux-centos8-zen2/gcc-10.2.0/qchem-5.4-akfmr7b3t57bfs6qan3padb2wnb2i7cl/bin/mpi/mpirun_qchem
QCMACHINEFILE:   ./qchem1891724/hostfile
exp-2-46

#
# env setting
#
exported envs:   QC QCAUX QCSCRATCH QCRUNNAME QCFILEPREF QCPROG QCPROG_S GUIFILE

Running Job 1 of 1 Dimethyl_Naphthalene_Dicarboximide_Phi_40_Theta_300_Thiophene_Hydrogenated_Improper.qcin
qchem Dimethyl_Naphthalene_Dicarboximide_Phi_40_Theta_300_Thiophene_Hydrogenated_Improper.qcin_1891724.0 ./qchem1891724/ 1
/cm/shared/apps/spack/cpu/opt/spack/linux-centos8-zen2/gcc-10.2.0/qchem-5.4-akfmr7b3t57bfs6qan3padb2wnb2i7cl/bin/mpi/mpirun_qchem -machinefile ./qchem1891724/hostfile -np 1 /cm/shared/apps/spack/cpu/opt/spack/linux-centos8-zen2/gcc-10.2.0/qchem-5.4-akfmr7b3t57bfs6qan3padb2wnb2i7cl/exe/qcprog.exe Dimethyl_Naphthalene_Dicarboximide_Phi_40_Theta_300_Thiophene_Hydrogenated_Improper.qcin_1891724.0 ./qchem1891724/

Process 0 of 1 is on exp-2-46 - thread support 0
initial socket setup ...start
initial socket setup ...done 
now start server 0 ... 
                  Welcome to Q-Chem
     A Quantum Leap Into The Future Of Chemistry


 Q-Chem 5.4, Q-Chem, Inc., Pleasanton, CA (2021)

 License issued to: University of California, San Diego (site)

 E. Epifanovsky,  A. T. B. Gilbert,  Xintian Feng,  Joonho Lee,  Yuezhi Mao,  
 N. Mardirossian,  P. Pokhilko,  A. White,  M. Wormit,  M. P. Coons,  
 A. L. Dempwolff,  Zhengting Gan,  D. Hait,  P. R. Horn,  L. D. Jacobson,  
 I. Kaliman,  J. Kussmann,  A. W. Lange,  Ka Un Lao,  D. S. Levine,  Jie Liu,  
 S. C. McKenzie,  A. F. Morrison,  K. Nanda,  F. Plasser,  D. R. Rehn,  
 M. L. Vidal,  Zhi-Qiang You,  Ying Zhu,  B. Alam,  B. Albrecht,  
 A. Aldossary,  E. Alguire,  J. H. Andersen,  D. Barton,  K. Begam,  A. Behn,  
 Y. A. Bernard,  E. J. Berquist,  H. Burton,  A. Carreras,  K. Carter-Fenk,  
 R. Chakraborty,  A. D. Chien,  K. D. Closser,  V. Cofer-Shabica,  
 S. Dasgupta,  Jia Deng,  M. de Wergifosse,  M. Diedenhofen,  Hainam Do,  
 S. Ehlert,  Po-Tung Fang,  S. Fatehi,  Qingguo Feng,  J. Gayvert,  
 Qinghui Ge,  G. Gidofalvi,  M. Goldey,  J. Gomes,  C. Gonzalez-Espinoza,  
 S. Gulania,  A. Gunina,  M. W. D. Hanson-Heine,  P. H. P. Harbach,  
 A. W. Hauser,  M. F. Herbst,  M. Hernandez Vera,  M. Hodecker,  
 Z. C. Holden,  S. Houck,  Xunkun Huang,  Kerwin Hui,  B. C. Huynh,  
 M. Ivanov,  Hyunjun Ji,  Hanjie Jiang,  B. Kaduk,  S. Kaehler,  
 K. Khistyaev,  Jaehoon Kim,  P. Klunzinger,  Z. Koczor-Benda,  
 Joong Hoon Koh,  D. Kosenkov,  L. Koulias,  T. Kowalczyk,  C. M. Krauter,  
 K. Kue,  A. Kunitsa,  T. Kus,  A. Landau,  K. V. Lawler,  D. Lefrancois,  
 S. Lehtola,  Rain Li,  Yi-Pei Li,  Jiashu Liang,  M. Liebenthal,  
 Hung-Hsuan Lin,  You-Sheng Lin,  Fenglai Liu,  Kuan-Yu Liu,  
 M. Loipersberger,  A. Luenser,  A. Manjanath,  P. Manohar,  E. Mansoor,  
 S. F. Manzer,  Shan-Ping Mao,  A. V. Marenich,  T. Markovich,  S. Mason,  
 S. A. Maurer,  P. F. McLaughlin,  M. F. S. J. Menger,  J.-M. Mewes,  
 S. A. Mewes,  P. Morgante,  J. W. Mullinax,  T. S. Nguyen-Beck,  
 K. J. Oosterbaan,  G. Paran,  Alexander C. Paul,  Suranjan K. Paul,  
 F. Pavosevic,  Zheng Pei,  S. Prager,  E. I. Proynov,  E. Ramos,  B. Rana,  
 A. E. Rask,  A. Rettig,  R. M. Richard,  F. Rob,  E. Rossomme,  T. Scheele,  
 M. Scheurer,  M. Schneider,  N. Sergueev,  S. M. Sharada,  W. Skomorowski,  
 D. W. Small,  C. J. Stein,  Yu-Chuan Su,  E. J. Sundstrom,  Zhen Tao,  
 J. Thirman,  T. Tsuchimochi,  N. M. Tubman,  S. P. Veccham,  O. Vydrov,  
 J. Wenzel,  J. Witte,  A. Yamada,  Kun Yao,  S. Yeganeh,  S. R. Yost,  
 A. Zech,  Igor Ying Zhang,  Xing Zhang,  Yu Zhang,  D. Zuev,  
 A. Aspuru-Guzik,  A. T. Bell,  N. A. Besley,  K. B. Bravaya,  B. R. Brooks,  
 D. Casanova,  Jeng-Da Chai,  S. Coriani,  C. J. Cramer,  
 A. E. DePrince, III,  R. A. DiStasio Jr.,  A. Dreuw,  B. D. Dunietz,  
 T. R. Furlani,  W. A. Goddard III,  S. Grimme,  S. Hammes-Schiffer,  
 T. Head-Gordon,  W. J. Hehre,  Chao-Ping Hsu,  T.-C. Jagau,  Yousung Jung,  
 A. Klamt,  Jing Kong,  D. S. Lambrecht,  WanZhen Liang,  N. J. Mayhall,  
 C. W. McCurdy,  J. B. Neaton,  C. Ochsenfeld,  J. A. Parkhill,  R. Peverati,  
 V. A. Rassolov,  Yihan Shao,  L. V. Slipchenko,  T. Stauch,  R. P. Steele,  
 J. E. Subotnik,  A. J. W. Thom,  A. Tkatchenko,  D. G. Truhlar,  
 T. Van Voorhis,  T. A. Wesolowski,  K. B. Whaley,  H. L. Woodcock III,  
 P. M. Zimmerman,  S. Faraji,  P. M. W. Gill,  M. Head-Gordon,  
 J. M. Herbert,  A. I. Krylov

 Contributors to earlier versions of Q-Chem not listed above: 
 R. D. Adamson,  B. Austin,  R. Baer,  J. Baker,  G. J. O. Beran,  
 K. Brandhorst,  S. T. Brown,  E. F. C. Byrd,  A. K. Chakraborty,  
 G. K. L. Chan,  Chun-Min Chang,  Yunqing Chen,  C.-L. Cheng,  
 Siu Hung Chien,  D. M. Chipman,  D. L. Crittenden,  H. Dachsel,  
 R. J. Doerksen,  A. D. Dutoi,  R. G. Edgar,  J. Fosso-Tande,  
 L. Fusti-Molnar,  D. Ghosh,  A. Ghysels,  A. Golubeva-Zadorozhnaya,  
 J. Gonthier,  M. S. Gordon,  S. R. Gwaltney,  G. Hawkins,  J. E. Herr,  
 A. Heyden,  S. Hirata,  E. G. Hohenstein,  G. Kedziora,  F. J. Keil,  
 C. Kelley,  Jihan Kim,  R. A. King,  R. Z. Khaliullin,  P. P. Korambath,  
 W. Kurlancheek,  A. Laurent,  A. M. Lee,  M. S. Lee,  S. V. Levchenko,  
 Ching Yeh Lin,  D. Liotard,  E. Livshits,  R. C. Lochan,  I. Lotan,  
 L. A. Martinez-Martinez,  P. E. Maslen,  N. Nair,  D. P. O'Neill,  
 D. Neuhauser,  E. Neuscamman,  C. M. Oana,  R. Olivares-Amaya,  R. Olson,  
 T. M. Perrine,  B. Peters,  P. A. Pieniazek,  A. Prociuk,  Y. M. Rhee,  
 J. Ritchie,  M. A. Rohrdanz,  E. Rosta,  N. J. Russ,  H. F. Schaefer III,  
 M. W. Schmidt,  N. E. Schultz,  S. Sharma,  N. Shenvi,  C. D. Sherrill,  
 A. C. Simmonett,  A. Sodt,  T. Stein,  D. Stuck,  K. S. Thanthiriwatte,  
 V. Vanovschi,  L. Vogt,  Tao Wang,  A. Warshel,  M. A. Watson,  
 C. F. Williams,  Q. Wu,  X. Xu,  Jun Yang,  W. Zhang,  Yan Zhao

 Please cite Q-Chem as follows:
 Y. Shao et al., Mol. Phys. 113, 184-215 (2015)
 DOI: 10.1080/00268976.2014.952696

 Q-Chem 5.4.0 for Intel X86 EM64T Linux

 Parts of Q-Chem use Armadillo 9.800.1 (Horizon Scraper).
 http://arma.sourceforge.net/

 Q-Chem begins on Sun Sep 24 15:15:15 2023  

 Host: 
0

     Scratch files written to ./qchem1891724//
 May1621 |scratch|qcdevops|jenkins|workspace|build_RNUM    
 Parallel job on  1  processors
 Processing $rem in /cm/shared/apps/spack/cpu/opt/spack/linux-centos8-zen2/gcc-10.2.0/qchem-5.4-akfmr7b3t57bfs6qan3padb2wnb2i7cl/config/preferences:
 Processing $rem in /home/rramji/.qchemrc:
 Symmetry turned off for PCM/SM12/SMD calculation
 Core orbitals will be frozen

 Checking the input file for inconsistencies... 	...done.

 Q-Chem warning in module forms1/BasisType.C, line 2236:

 You are not using the predefined 5D/6D in this basis set.


--------------------------------------------------------------
User input:
--------------------------------------------------------------
$molecule
0 1
C	-0.336757	-0.278098	-0.210119
S	0.172943	0.329602	1.370381
C	1.225643	1.584202	0.694781
C	0.304643	0.486502	-1.195519
C	1.153143	1.497902	-0.703619
H	0.153143	0.306002	-2.270019
H	1.719343	2.172802	-1.362719
C	-0.336757	-1.756298	-0.210119
H	0.203743	-1.756898	-1.145119
H	0.517643	-2.195598	0.283181
H	-1.040857	-2.467298	-0.616519
H	1.791643	2.258902	1.345881
$end

$rem
JOBTYPE		SP
EXCHANGE	HF
CORRELATION	pRIMP2
BASIS		cc-pvtz
METHOD		rimp2
AUX_BASIS	rimp2-cc-pvtz
SOLVENT_METHOD	PCM
PURECART	11111
SYMMETRY	false
MEM_TOTAL	110000
SCF_CONVERGENCE = 6
THRESH=10
GUI = 2
$end



$solvent
dielectric 4.90
$end
--------------------------------------------------------------
 ----------------------------------------------------------------
             Standard Nuclear Orientation (Angstroms)
    I     Atom           X                Y                Z
 ----------------------------------------------------------------
    1      C      -0.3367570000    -0.2780980000    -0.2101190000
    2      S       0.1729430000     0.3296020000     1.3703810000
    3      C       1.2256430000     1.5842020000     0.6947810000
    4      C       0.3046430000     0.4865020000    -1.1955190000
    5      C       1.1531430000     1.4979020000    -0.7036190000
    6      H       0.1531430000     0.3060020000    -2.2700190000
    7      H       1.7193430000     2.1728020000    -1.3627190000
    8      C      -0.3367570000    -1.7562980000    -0.2101190000
    9      H       0.2037430000    -1.7568980000    -1.1451190000
   10      H       0.5176430000    -2.1955980000     0.2831810000
   11      H      -1.0408570000    -2.4672980000    -0.6165190000
   12      H       1.7916430000     2.2589020000     1.3458810000
 ----------------------------------------------------------------
 Nuclear Repulsion Energy =         272.82524264 hartrees
 There are       26 alpha and       26 beta electrons
 Requested basis set is cc-pVTZ
 There are 98 shells and 268 basis functions

 Total QAlloc Memory Limit 110000 MB
 Mega-Array Size       188 MB
 MEM_STATIC part       192 MB
 Discretize the solute cavity surface with Lebedev spheres
	Using 110 Lebedev grid points for each H atom
	Using 194 Lebedev grid points for other atoms
	Atomic van der Waals radii will be scaled by 1.20
 Remove points where switching function is < 1.0e-08
 Keep 865 surface tesserae and discard 959 interior tesserae
 Molecular Surface Area = 136.644 Angst**2

                       Distance Matrix (Angstroms)
             C (  1)   S (  2)   C (  3)   C (  4)   C (  5)   H (  6)
   S (  2)  1.768353
   C (  3)  2.593858  1.771619
   C (  4)  1.402505  2.574064  2.372008
   C (  5)  2.370131  2.574333  1.402935  1.408846
   H (  6)  2.196443  3.640530  3.402072  1.100038  2.207767
   H (  7)  3.400433  3.641233  2.196246  2.207474  1.100221  2.600215
   C (  8)  1.478200  2.666225  3.797220  2.532303  3.612916  2.955718
   H (  9)  1.831178  3.268359  3.948729  2.246233  3.419065  2.350216
   H ( 10)  2.156421  2.770822  3.867501  3.070111  3.875510  3.593006
   H ( 11)  2.335276  3.639194  4.824021  3.297051  4.532553  3.442512
   H ( 12)  3.658906  2.518529  1.095220  3.436755  2.277554  4.424165
             H (  7)   C (  8)   H (  9)   H ( 10)   H ( 11)
   C (  8)  4.581906
   H (  9)  4.217456  1.079984
   H ( 10)  4.820372  1.079967  1.526772
   H ( 11)  5.450325  1.080018  1.527454  1.819946
   H ( 12)  2.710932  4.803442  4.985294  4.753417  5.849020
 
 Requested basis set is rimp2-cc-pVTZ
 There are 207 shells and 707 basis functions
 A cutoff of  1.0D-10 yielded   4433 shell pairs
 There are     33309 function pairs (     43099 Cartesian)
 Smallest overlap matrix eigenvalue = 1.73E-04

 Scale SEOQF with 1.000000e-01/1.000000e-01/1.000000e-01

 Standard Electronic Orientation quadrupole field applied
 Nucleus-field energy     =     0.0000000003 hartrees
 Guess from superposition of atomic densities
 Warning:  Energy on first SCF cycle will be non-variational
 SAD guess density has 52.000000 electrons

 -----------------------------------------------------------------------
  General SCF calculation program by
  Eric Jon Sundstrom, Paul Horn, Yuezhi Mao, Dmitri Zuev, Alec White,
  David Stuck, Shaama M.S., Shane Yost, Joonho Lee, David Small,
  Daniel Levine, Susi Lehtola, Hugh Burton, Evgeny Epifanovsky,
  Bang C. Huynh
 -----------------------------------------------------------------------
 Hartree-Fock
 using 64 threads for integral computing
 -------------------------------------------------------
 OpenMP Integral computing Module                
 Release: version 1.0, May 2013, Q-Chem Inc. Pittsburgh 
 -------------------------------------------------------
 A restricted SCF calculation will be
 performed using DIIS
 SCF converges when DIIS error is below 1.0e-06
 ---------------------------------------
  Cycle       Energy         DIIS error
 ---------------------------------------
    1    -592.6234194297      3.24e-02  
    2    -590.2721698339      2.15e-03  
    3    -590.3327387944      7.59e-04  
    4    -590.3393461369      3.58e-04  
    5    -590.3410125330      7.14e-05  
    6    -590.3411425143      2.95e-05  
    7    -590.3411784590      1.58e-05  
    8    -590.3411899983      6.07e-06  
    9    -590.3411921417      2.90e-06  
   10    -590.3411924006      8.66e-07  Convergence criterion met
 ---------------------------------------
 SCF time:   CPU 508.81s  wall 9.00s 

************** Final PCM Free Energy Summary **************
 G_electrostatic  =      -0.00550967 hartree =      -3.45736866 kcal/mol
 G_cavitation     =       0.00000000 hartree =       0.00000000 kcal/mol
 G_dispersion     =       0.00000000 hartree =       0.00000000 kcal/mol
 G_repulsion      =       0.00000000 hartree =       0.00000000 kcal/mol
 --------------------------------------------------
 Non-electrostatic Free Energy =       0.00000000 hartree =       0.00000000 kcal/mol
 Total                         =      -0.00550967 hartree =      -3.45736866 kcal/mol
 --------------------------------------------------
 SCF Energy (H0 + V/2)                       =    -590.34119240 
 Solute Internal Energy (H0)                 =    -590.33568273 
 Total Free Energy (H0 + V/2 + non-elec)     =    -590.34119240 hartree
                                             = -370444.68935279 kcal/mol
***********************************************************

 SCF   energy in the final basis set =     -590.3411924006
 Total energy in the final basis set =     -590.3411924006


 --------------------------------------------------------------
  Generalized many-body perturbation theory program
  by Joonho Lee, Fazle Rob, Xintian Feng, Evgeny Epifanovsky

 No regularization used 
 (reg. param. = 0.0000e+00)
  (P|Q)^-1/2 Time:  CPU 7.31 s  wall 0.12 s

 In RI-MP2 calculation: 
 # of frozen core orbitals: 10

 Components of the RIMP2 correlation energy:
        aaaa    correlation energy =        -0.1265653100 a.u.
        abab    correlation energy =        -0.7555918719 a.u.
        bbbb    correlation energy =        -0.1265653100 a.u.
        non-Brillouin singles      =        -0.0000000000 a.u.
        total same-spin energy     =        -0.2531306199 a.u.
        total opposite-spin energy =        -0.7555918719 a.u.

 Total  RIMP2   correlation energy =        -1.0087224918 a.u.
        RIMP2         total energy =      -591.3499148924 a.u.

 RI-MP2 Energy Time:  CPU 30.09 s  wall 0.55 s
 
 --------------------------------------------------------------
 
                    Orbital Energies (a.u.)
 --------------------------------------------------------------
 
 Alpha MOs
 -- Occupied --
-91.9764 -11.2756 -11.2745 -11.2442 -11.2430 -11.2184  -8.9766  -6.6574
 -6.6567  -6.6563  -1.1624  -1.0372  -0.9753  -0.9118  -0.7577  -0.7259
 -0.6713  -0.5962  -0.5712  -0.5545  -0.5442  -0.4847  -0.4695  -0.4426
 -0.3424  -0.3072
 -- Virtual --
  0.0806   0.1549   0.1614   0.1788   0.1879   0.1948   0.2139   0.2257
  0.2325   0.2516   0.3023   0.3352   0.3495   0.3705   0.3838   0.4032
  0.4272   0.4469   0.4549   0.4614   0.4851   0.5094   0.5251   0.5304
  0.5365   0.5480   0.5560   0.5765   0.5977   0.6081   0.6159   0.6197
  0.6271   0.6453   0.6525   0.6807   0.6839   0.7058   0.7235   0.7595
  0.7838   0.8031   0.8185   0.8318   0.8414   0.8756   0.8987   0.9175
  0.9480   0.9888   1.0295   1.0445   1.0766   1.0876   1.1111   1.1470
  1.1648   1.1709   1.1900   1.1998   1.2215   1.2277   1.2525   1.2671
  1.2999   1.3214   1.3268   1.3358   1.3581   1.4059   1.4124   1.4490
  1.4634   1.4878   1.4943   1.5070   1.5270   1.5420   1.5677   1.5970
  1.6151   1.6223   1.6285   1.6679   1.6774   1.7168   1.7749   1.8025
  1.8401   1.8881   1.8976   1.9075   1.9512   1.9999   2.0135   2.1135
  2.1382   2.1525   2.1772   2.2202   2.2431   2.2652   2.3220   2.4023
  2.4277   2.4574   2.4638   2.5165   2.5786   2.6097   2.6251   2.6568
  2.6749   2.7148   2.7229   2.7388   2.7524   2.8227   2.8383   2.8669
  2.8773   2.9031   2.9306   2.9554   2.9861   3.0041   3.0272   3.0584
  3.0713   3.1109   3.1299   3.1482   3.1782   3.2025   3.2056   3.2294
  3.2483   3.2688   3.2793   3.3077   3.3140   3.3393   3.3507   3.3686
  3.3848   3.4074   3.4288   3.4513   3.4584   3.4848   3.4971   3.5097
  3.5221   3.5557   3.5707   3.5798   3.5855   3.6291   3.6454   3.6672
  3.6878   3.6997   3.7157   3.7348   3.7802   3.7961   3.8141   3.8403
  3.8540   3.9010   3.9208   3.9342   3.9487   3.9595   3.9707   3.9988
  4.0235   4.0426   4.0665   4.1167   4.1217   4.1632   4.1756   4.2015
  4.2449   4.2658   4.2731   4.2906   4.3201   4.3602   4.4057   4.4123
  4.4242   4.4452   4.4812   4.5017   4.5782   4.5978   4.6228   4.6751
  4.6906   4.7151   4.7287   4.7542   4.7752   4.8147   4.8327   4.9034
  4.9254   4.9922   5.0253   5.0427   5.0959   5.1484   5.1655   5.1864
  5.2039   5.2886   5.3585   5.4001   5.4399   5.4864   5.5354   5.5692
  5.6203   5.7127   5.7745   5.8197   5.8629   5.9131   5.9699   6.0299
  6.0823   6.3111   6.3886   6.4540   6.5834   9.5107  11.5049  12.6903
 13.9102  13.9505
 --------------------------------------------------------------
 
          Ground-State Mulliken Net Atomic Charges

     Atom                 Charge (a.u.)
  ----------------------------------------
      1 C                    -0.021501
      2 S                     0.002929
      3 C                    -0.207407
      4 C                    -0.182885
      5 C                    -0.209062
      6 H                     0.180098
      7 H                     0.187442
      8 C                    -0.362754
      9 H                     0.129602
     10 H                     0.137747
     11 H                     0.141501
     12 H                     0.204291
  ----------------------------------------
  Sum of atomic charges =     0.000000

 -----------------------------------------------------------------
                    Cartesian Multipole Moments
 -----------------------------------------------------------------
    Charge (ESU x 10^10)
                 0.0000
    Dipole Moment (Debye)
         X       1.4940      Y      -0.2275      Z      -1.6634
       Tot       2.2474
    Quadrupole Moments (Debye-Ang)
        XX     -44.4222     XY       3.9759     YY     -40.4193
        XZ       0.8571     YZ       1.8169     ZZ     -41.5071
    Octopole Moments (Debye-Ang^2)
       XXX     -43.9880    XXY      -6.1436    XYY      -5.2045
       YYY     -34.2364    XXZ      -5.1982    XYZ       1.1049
       YYZ      -6.9389    XZZ     -10.5224    YZZ      -6.3833
       ZZZ     -28.4211
    Hexadecapole Moments (Debye-Ang^3)
      XXXX    -194.0346   XXXY     -82.2052   XXYY     -82.8245
      XYYY     -71.3131   YYYY    -408.7530   XXXZ      -4.0522
      XXYZ      -2.6047   XYYZ       5.4967   YYYZ      -8.5224
      XXZZ     -79.6930   XYZZ     -17.0705   YYZZ    -112.5037
      XZZZ      -4.0668   YZZZ     -17.7020   ZZZZ    -306.4589
 -----------------------------------------------------------------
 Total job time:  11.10s(wall), 595.63s(cpu) 
 Sun Sep 24 15:15:26 2023

        *************************************************************
        *                                                           *
        *  Thank you very much for using Q-Chem.  Have a nice day.  *
        *                                                           *
        *************************************************************


0 sent ACK to 0 
now end server 0 ... 
cleanup process ... done
remove work dirs ./qchem1891724.0 -- ./qchem1891724.0
rm -rf ./qchem1891724.0
rm -rf ./qchem1891724
