You are running Q-Chem version: 5.4.0

#
# job setting
#
local host:  exp-4-53
current dir: /expanse/lustre/projects/csd626/rramji/aromodel/PNDIT/Hydrogenated_Impropers_Test
input file:  Dimethyl_Naphthalene_Dicarboximide_Phi_30_Theta_40_Thiophene_Hydrogenated_Improper.qcin
output file: 
nprocs     : 1
nthreads   : 64
#
# qchem installation setting
#
QC:          /cm/shared/apps/spack/cpu/opt/spack/linux-centos8-zen2/gcc-10.2.0/qchem-5.4-akfmr7b3t57bfs6qan3padb2wnb2i7cl
QCAUX:       /cm/shared/apps/spack/cpu/opt/spack/linux-centos8-zen2/gcc-10.2.0/qchem-5.4-akfmr7b3t57bfs6qan3padb2wnb2i7cl/qcaux
QCPROG:      /cm/shared/apps/spack/cpu/opt/spack/linux-centos8-zen2/gcc-10.2.0/qchem-5.4-akfmr7b3t57bfs6qan3padb2wnb2i7cl/exe/qcprog.exe
QCPROG_S:    /cm/shared/apps/spack/cpu/opt/spack/linux-centos8-zen2/gcc-10.2.0/qchem-5.4-akfmr7b3t57bfs6qan3padb2wnb2i7cl/exe/qcprog.exe_s
PARALLEL:    -DPARALLEL
QCMPI:       mpich
#
# qchem directory setting
#
qcrun:       qchem1069178
QCSCRATCH:   .
QCLOCALSCR:  
QCTMPDIR:    .
QCFILEPREF:  ./qchem1069178
QCSAVEDIR:   
workdirs:    ./qchem1069178
workdir0:    ./qchem1069178
partmpdirs =  
#
# parallel setting
#
QCRSH:           ssh
QCMPI:           mpich
QCMPIRUN:        /cm/shared/apps/spack/cpu/opt/spack/linux-centos8-zen2/gcc-10.2.0/qchem-5.4-akfmr7b3t57bfs6qan3padb2wnb2i7cl/bin/mpi/mpirun_qchem
QCMACHINEFILE:   ./qchem1069178/hostfile
exp-4-53

#
# env setting
#
exported envs:   QC QCAUX QCSCRATCH QCRUNNAME QCFILEPREF QCPROG QCPROG_S GUIFILE

Running Job 1 of 1 Dimethyl_Naphthalene_Dicarboximide_Phi_30_Theta_40_Thiophene_Hydrogenated_Improper.qcin
qchem Dimethyl_Naphthalene_Dicarboximide_Phi_30_Theta_40_Thiophene_Hydrogenated_Improper.qcin_1069178.0 ./qchem1069178/ 1
/cm/shared/apps/spack/cpu/opt/spack/linux-centos8-zen2/gcc-10.2.0/qchem-5.4-akfmr7b3t57bfs6qan3padb2wnb2i7cl/bin/mpi/mpirun_qchem -machinefile ./qchem1069178/hostfile -np 1 /cm/shared/apps/spack/cpu/opt/spack/linux-centos8-zen2/gcc-10.2.0/qchem-5.4-akfmr7b3t57bfs6qan3padb2wnb2i7cl/exe/qcprog.exe Dimethyl_Naphthalene_Dicarboximide_Phi_30_Theta_40_Thiophene_Hydrogenated_Improper.qcin_1069178.0 ./qchem1069178/

Process 0 of 1 is on exp-4-53 - thread support 0
initial socket setup ...start
initial socket setup ...done 
now start server 0 ... 
                  Welcome to Q-Chem
     A Quantum Leap Into The Future Of Chemistry


 Q-Chem 5.4, Q-Chem, Inc., Pleasanton, CA (2021)

 License issued to: University of California, San Diego (site)

 E. Epifanovsky,  A. T. B. Gilbert,  Xintian Feng,  Joonho Lee,  Yuezhi Mao,  
 N. Mardirossian,  P. Pokhilko,  A. White,  M. Wormit,  M. P. Coons,  
 A. L. Dempwolff,  Zhengting Gan,  D. Hait,  P. R. Horn,  L. D. Jacobson,  
 I. Kaliman,  J. Kussmann,  A. W. Lange,  Ka Un Lao,  D. S. Levine,  Jie Liu,  
 S. C. McKenzie,  A. F. Morrison,  K. Nanda,  F. Plasser,  D. R. Rehn,  
 M. L. Vidal,  Zhi-Qiang You,  Ying Zhu,  B. Alam,  B. Albrecht,  
 A. Aldossary,  E. Alguire,  J. H. Andersen,  D. Barton,  K. Begam,  A. Behn,  
 Y. A. Bernard,  E. J. Berquist,  H. Burton,  A. Carreras,  K. Carter-Fenk,  
 R. Chakraborty,  A. D. Chien,  K. D. Closser,  V. Cofer-Shabica,  
 S. Dasgupta,  Jia Deng,  M. de Wergifosse,  M. Diedenhofen,  Hainam Do,  
 S. Ehlert,  Po-Tung Fang,  S. Fatehi,  Qingguo Feng,  J. Gayvert,  
 Qinghui Ge,  G. Gidofalvi,  M. Goldey,  J. Gomes,  C. Gonzalez-Espinoza,  
 S. Gulania,  A. Gunina,  M. W. D. Hanson-Heine,  P. H. P. Harbach,  
 A. W. Hauser,  M. F. Herbst,  M. Hernandez Vera,  M. Hodecker,  
 Z. C. Holden,  S. Houck,  Xunkun Huang,  Kerwin Hui,  B. C. Huynh,  
 M. Ivanov,  Hyunjun Ji,  Hanjie Jiang,  B. Kaduk,  S. Kaehler,  
 K. Khistyaev,  Jaehoon Kim,  P. Klunzinger,  Z. Koczor-Benda,  
 Joong Hoon Koh,  D. Kosenkov,  L. Koulias,  T. Kowalczyk,  C. M. Krauter,  
 K. Kue,  A. Kunitsa,  T. Kus,  A. Landau,  K. V. Lawler,  D. Lefrancois,  
 S. Lehtola,  Rain Li,  Yi-Pei Li,  Jiashu Liang,  M. Liebenthal,  
 Hung-Hsuan Lin,  You-Sheng Lin,  Fenglai Liu,  Kuan-Yu Liu,  
 M. Loipersberger,  A. Luenser,  A. Manjanath,  P. Manohar,  E. Mansoor,  
 S. F. Manzer,  Shan-Ping Mao,  A. V. Marenich,  T. Markovich,  S. Mason,  
 S. A. Maurer,  P. F. McLaughlin,  M. F. S. J. Menger,  J.-M. Mewes,  
 S. A. Mewes,  P. Morgante,  J. W. Mullinax,  T. S. Nguyen-Beck,  
 K. J. Oosterbaan,  G. Paran,  Alexander C. Paul,  Suranjan K. Paul,  
 F. Pavosevic,  Zheng Pei,  S. Prager,  E. I. Proynov,  E. Ramos,  B. Rana,  
 A. E. Rask,  A. Rettig,  R. M. Richard,  F. Rob,  E. Rossomme,  T. Scheele,  
 M. Scheurer,  M. Schneider,  N. Sergueev,  S. M. Sharada,  W. Skomorowski,  
 D. W. Small,  C. J. Stein,  Yu-Chuan Su,  E. J. Sundstrom,  Zhen Tao,  
 J. Thirman,  T. Tsuchimochi,  N. M. Tubman,  S. P. Veccham,  O. Vydrov,  
 J. Wenzel,  J. Witte,  A. Yamada,  Kun Yao,  S. Yeganeh,  S. R. Yost,  
 A. Zech,  Igor Ying Zhang,  Xing Zhang,  Yu Zhang,  D. Zuev,  
 A. Aspuru-Guzik,  A. T. Bell,  N. A. Besley,  K. B. Bravaya,  B. R. Brooks,  
 D. Casanova,  Jeng-Da Chai,  S. Coriani,  C. J. Cramer,  
 A. E. DePrince, III,  R. A. DiStasio Jr.,  A. Dreuw,  B. D. Dunietz,  
 T. R. Furlani,  W. A. Goddard III,  S. Grimme,  S. Hammes-Schiffer,  
 T. Head-Gordon,  W. J. Hehre,  Chao-Ping Hsu,  T.-C. Jagau,  Yousung Jung,  
 A. Klamt,  Jing Kong,  D. S. Lambrecht,  WanZhen Liang,  N. J. Mayhall,  
 C. W. McCurdy,  J. B. Neaton,  C. Ochsenfeld,  J. A. Parkhill,  R. Peverati,  
 V. A. Rassolov,  Yihan Shao,  L. V. Slipchenko,  T. Stauch,  R. P. Steele,  
 J. E. Subotnik,  A. J. W. Thom,  A. Tkatchenko,  D. G. Truhlar,  
 T. Van Voorhis,  T. A. Wesolowski,  K. B. Whaley,  H. L. Woodcock III,  
 P. M. Zimmerman,  S. Faraji,  P. M. W. Gill,  M. Head-Gordon,  
 J. M. Herbert,  A. I. Krylov

 Contributors to earlier versions of Q-Chem not listed above: 
 R. D. Adamson,  B. Austin,  R. Baer,  J. Baker,  G. J. O. Beran,  
 K. Brandhorst,  S. T. Brown,  E. F. C. Byrd,  A. K. Chakraborty,  
 G. K. L. Chan,  Chun-Min Chang,  Yunqing Chen,  C.-L. Cheng,  
 Siu Hung Chien,  D. M. Chipman,  D. L. Crittenden,  H. Dachsel,  
 R. J. Doerksen,  A. D. Dutoi,  R. G. Edgar,  J. Fosso-Tande,  
 L. Fusti-Molnar,  D. Ghosh,  A. Ghysels,  A. Golubeva-Zadorozhnaya,  
 J. Gonthier,  M. S. Gordon,  S. R. Gwaltney,  G. Hawkins,  J. E. Herr,  
 A. Heyden,  S. Hirata,  E. G. Hohenstein,  G. Kedziora,  F. J. Keil,  
 C. Kelley,  Jihan Kim,  R. A. King,  R. Z. Khaliullin,  P. P. Korambath,  
 W. Kurlancheek,  A. Laurent,  A. M. Lee,  M. S. Lee,  S. V. Levchenko,  
 Ching Yeh Lin,  D. Liotard,  E. Livshits,  R. C. Lochan,  I. Lotan,  
 L. A. Martinez-Martinez,  P. E. Maslen,  N. Nair,  D. P. O'Neill,  
 D. Neuhauser,  E. Neuscamman,  C. M. Oana,  R. Olivares-Amaya,  R. Olson,  
 T. M. Perrine,  B. Peters,  P. A. Pieniazek,  A. Prociuk,  Y. M. Rhee,  
 J. Ritchie,  M. A. Rohrdanz,  E. Rosta,  N. J. Russ,  H. F. Schaefer III,  
 M. W. Schmidt,  N. E. Schultz,  S. Sharma,  N. Shenvi,  C. D. Sherrill,  
 A. C. Simmonett,  A. Sodt,  T. Stein,  D. Stuck,  K. S. Thanthiriwatte,  
 V. Vanovschi,  L. Vogt,  Tao Wang,  A. Warshel,  M. A. Watson,  
 C. F. Williams,  Q. Wu,  X. Xu,  Jun Yang,  W. Zhang,  Yan Zhao

 Please cite Q-Chem as follows:
 Y. Shao et al., Mol. Phys. 113, 184-215 (2015)
 DOI: 10.1080/00268976.2014.952696

 Q-Chem 5.4.0 for Intel X86 EM64T Linux

 Parts of Q-Chem use Armadillo 9.800.1 (Horizon Scraper).
 http://arma.sourceforge.net/

 Q-Chem begins on Sun Sep 24 15:05:42 2023  

 Host: 
0

     Scratch files written to ./qchem1069178//
 May1621 |scratch|qcdevops|jenkins|workspace|build_RNUM    
 Parallel job on  1  processors
 Processing $rem in /cm/shared/apps/spack/cpu/opt/spack/linux-centos8-zen2/gcc-10.2.0/qchem-5.4-akfmr7b3t57bfs6qan3padb2wnb2i7cl/config/preferences:
 Processing $rem in /home/rramji/.qchemrc:
 Symmetry turned off for PCM/SM12/SMD calculation
 Core orbitals will be frozen

 Checking the input file for inconsistencies... 	...done.

 Q-Chem warning in module forms1/BasisType.C, line 2236:

 You are not using the predefined 5D/6D in this basis set.


--------------------------------------------------------------
User input:
--------------------------------------------------------------
$molecule
0 1
C	-0.262833	-0.329934	-0.218722
S	0.133567	0.357066	1.361778
C	0.952367	1.775366	0.686178
C	0.235967	0.534466	-1.204122
C	0.896067	1.677866	-0.712222
H	0.118167	0.330366	-2.278622
H	1.336467	2.440766	-1.371322
C	-0.262833	-1.808134	-0.218722
H	0.564167	-1.808734	0.475878
H	-0.897033	-2.247434	0.537078
H	0.259667	-2.519134	-0.841622
H	1.392667	2.538166	1.337278
$end

$rem
JOBTYPE		SP
EXCHANGE	HF
CORRELATION	pRIMP2
BASIS		cc-pvtz
METHOD		rimp2
AUX_BASIS	rimp2-cc-pvtz
SOLVENT_METHOD	PCM
PURECART	11111
SYMMETRY	false
MEM_TOTAL	110000
SCF_CONVERGENCE = 6
THRESH=10
GUI = 2
$end



$solvent
dielectric 4.90
$end
--------------------------------------------------------------
 ----------------------------------------------------------------
             Standard Nuclear Orientation (Angstroms)
    I     Atom           X                Y                Z
 ----------------------------------------------------------------
    1      C      -0.2628330000    -0.3299340000    -0.2187220000
    2      S       0.1335670000     0.3570660000     1.3617780000
    3      C       0.9523670000     1.7753660000     0.6861780000
    4      C       0.2359670000     0.5344660000    -1.2041220000
    5      C       0.8960670000     1.6778660000    -0.7122220000
    6      H       0.1181670000     0.3303660000    -2.2786220000
    7      H       1.3364670000     2.4407660000    -1.3713220000
    8      C      -0.2628330000    -1.8081340000    -0.2187220000
    9      H       0.5641670000    -1.8087340000     0.4758780000
   10      H      -0.8970330000    -2.2474340000     0.5370780000
   11      H       0.2596670000    -2.5191340000    -0.8416220000
   12      H       1.3926670000     2.5381660000     1.3372780000
 ----------------------------------------------------------------
 Nuclear Repulsion Energy =         272.27773228 hartrees
 There are       26 alpha and       26 beta electrons
 Requested basis set is cc-pVTZ
 There are 98 shells and 268 basis functions

 Total QAlloc Memory Limit 110000 MB
 Mega-Array Size       188 MB
 MEM_STATIC part       192 MB
 Discretize the solute cavity surface with Lebedev spheres
	Using 110 Lebedev grid points for each H atom
	Using 194 Lebedev grid points for other atoms
	Atomic van der Waals radii will be scaled by 1.20
 Remove points where switching function is < 1.0e-08
 Keep 878 surface tesserae and discard 946 interior tesserae
 Molecular Surface Area = 137.126 Angst**2

                       Distance Matrix (Angstroms)
             C (  1)   S (  2)   C (  3)   C (  4)   C (  5)   H (  6)
   S (  2)  1.768356
   C (  3)  2.593809  1.771565
   C (  4)  1.402498  2.574063  2.371981
   C (  5)  2.370201  2.574373  1.402925  1.408922
   H (  6)  2.196439  3.640530  3.402051  1.100038  2.207826
   H (  7)  3.400445  3.641237  2.196269  2.207495  1.100173  2.600238
   C (  8)  1.478200  2.709835  3.890633  2.589901  3.706587  2.993582
   H (  9)  1.831187  2.379270  3.611191  2.901844  3.698394  3.515954
   H ( 10)  2.156444  2.919878  4.430060  3.471950  4.492654  3.950171
   H ( 11)  2.335296  3.625383  4.610503  3.075133  4.246947  3.194470
   H ( 12)  3.658936  2.518557  1.095290  3.436784  2.277538  4.424191
             H (  7)   C (  8)   H (  9)   H ( 10)   H ( 11)
   C (  8)  4.683951
   H (  9)  4.697536  1.079999
   H ( 10)  5.532606  1.080013  1.526862
   H ( 11)  5.103008  1.080061  1.527480  1.820052
   H ( 12)  2.710933  4.904298  4.508210  5.365167  5.622062
 
 Requested basis set is rimp2-cc-pVTZ
 There are 207 shells and 707 basis functions
 A cutoff of  1.0D-10 yielded   4416 shell pairs
 There are     33202 function pairs (     42945 Cartesian)
 Smallest overlap matrix eigenvalue = 1.47E-04

 Scale SEOQF with 1.000000e+00/1.000000e-01/1.000000e-01

 Standard Electronic Orientation quadrupole field applied
 Nucleus-field energy     =     0.0000000063 hartrees
 Guess from superposition of atomic densities
 Warning:  Energy on first SCF cycle will be non-variational
 SAD guess density has 52.000000 electrons

 -----------------------------------------------------------------------
  General SCF calculation program by
  Eric Jon Sundstrom, Paul Horn, Yuezhi Mao, Dmitri Zuev, Alec White,
  David Stuck, Shaama M.S., Shane Yost, Joonho Lee, David Small,
  Daniel Levine, Susi Lehtola, Hugh Burton, Evgeny Epifanovsky,
  Bang C. Huynh
 -----------------------------------------------------------------------
 Hartree-Fock
 using 64 threads for integral computing
 -------------------------------------------------------
 OpenMP Integral computing Module                
 Release: version 1.0, May 2013, Q-Chem Inc. Pittsburgh 
 -------------------------------------------------------
 A restricted SCF calculation will be
 performed using DIIS
 SCF converges when DIIS error is below 1.0e-06
 ---------------------------------------
  Cycle       Energy         DIIS error
 ---------------------------------------
    1    -592.6108076118      3.24e-02  
    2    -590.2837438165      2.19e-03  
    3    -590.3450053589      8.24e-04  
    4    -590.3521747812      3.89e-04  
    5    -590.3541252286      7.22e-05  
    6    -590.3542568118      3.16e-05  
    7    -590.3542908736      1.50e-05  
    8    -590.3543013231      6.05e-06  
    9    -590.3543030087      2.12e-06  
   10    -590.3543031847      6.43e-07  Convergence criterion met
 ---------------------------------------
 SCF time:   CPU 503.85s  wall 9.00s 

************** Final PCM Free Energy Summary **************
 G_electrostatic  =      -0.00542380 hartree =      -3.40348460 kcal/mol
 G_cavitation     =       0.00000000 hartree =       0.00000000 kcal/mol
 G_dispersion     =       0.00000000 hartree =       0.00000000 kcal/mol
 G_repulsion      =       0.00000000 hartree =       0.00000000 kcal/mol
 --------------------------------------------------
 Non-electrostatic Free Energy =       0.00000000 hartree =       0.00000000 kcal/mol
 Total                         =      -0.00542380 hartree =      -3.40348460 kcal/mol
 --------------------------------------------------
 SCF Energy (H0 + V/2)                       =    -590.35430318 
 Solute Internal Energy (H0)                 =    -590.34887939 
 Total Free Energy (H0 + V/2 + non-elec)     =    -590.35430318 hartree
                                             = -370452.91649402 kcal/mol
***********************************************************

 SCF   energy in the final basis set =     -590.3543031847
 Total energy in the final basis set =     -590.3543031847


 --------------------------------------------------------------
  Generalized many-body perturbation theory program
  by Joonho Lee, Fazle Rob, Xintian Feng, Evgeny Epifanovsky

 No regularization used 
 (reg. param. = 0.0000e+00)
  (P|Q)^-1/2 Time:  CPU 6.50 s  wall 0.11 s

 In RI-MP2 calculation: 
 # of frozen core orbitals: 10

 Components of the RIMP2 correlation energy:
        aaaa    correlation energy =        -0.1255557570 a.u.
        abab    correlation energy =        -0.7528037150 a.u.
        bbbb    correlation energy =        -0.1255557570 a.u.
        non-Brillouin singles      =        -0.0000000000 a.u.
        total same-spin energy     =        -0.2511115140 a.u.
        total opposite-spin energy =        -0.7528037150 a.u.

 Total  RIMP2   correlation energy =        -1.0039152290 a.u.
        RIMP2         total energy =      -591.3582184137 a.u.

 RI-MP2 Energy Time:  CPU 27.30 s  wall 0.48 s
 
 --------------------------------------------------------------
 
                    Orbital Energies (a.u.)
 --------------------------------------------------------------
 
 Alpha MOs
 -- Occupied --
-91.9759 -11.2820 -11.2716 -11.2431 -11.2380 -11.2227  -8.9765  -6.6574
 -6.6568  -6.6562  -1.1610  -1.0398  -0.9735  -0.9149  -0.7587  -0.7219
 -0.6717  -0.5945  -0.5689  -0.5635  -0.5319  -0.5009  -0.4664  -0.4533
 -0.3465  -0.3014
 -- Virtual --
  0.0921   0.1515   0.1603   0.1787   0.1893   0.1983   0.2123   0.2191
  0.2327   0.2547   0.3087   0.3281   0.3569   0.3669   0.3918   0.4148
  0.4322   0.4486   0.4553   0.4669   0.4825   0.5005   0.5287   0.5336
  0.5370   0.5585   0.5611   0.5707   0.5883   0.6091   0.6158   0.6201
  0.6325   0.6384   0.6546   0.6602   0.6917   0.7104   0.7308   0.7586
  0.7779   0.7991   0.8304   0.8528   0.8678   0.8747   0.8991   0.9135
  0.9344   1.0011   1.0154   1.0482   1.0697   1.0722   1.1098   1.1207
  1.1448   1.1702   1.1729   1.1811   1.2200   1.2389   1.2501   1.2736
  1.2917   1.3109   1.3352   1.3504   1.3793   1.4099   1.4212   1.4447
  1.4671   1.4872   1.5011   1.5077   1.5261   1.5378   1.5485   1.5859
  1.6048   1.6339   1.6462   1.6656   1.7197   1.7354   1.7473   1.7867
  1.8346   1.9006   1.9113   1.9375   1.9527   2.0105   2.0599   2.1163
  2.1284   2.1643   2.1863   2.2124   2.2609   2.2659   2.3283   2.3784
  2.4309   2.4570   2.4817   2.4965   2.5431   2.5991   2.6195   2.6658
  2.6883   2.7020   2.7291   2.7385   2.7578   2.7769   2.8410   2.8507
  2.8731   2.9082   2.9497   2.9693   2.9948   3.0105   3.0320   3.0524
  3.0665   3.0886   3.1237   3.1511   3.1528   3.1947   3.2026   3.2286
  3.2469   3.2557   3.2965   3.3016   3.3503   3.3541   3.3826   3.3933
  3.4035   3.4100   3.4171   3.4466   3.4612   3.4774   3.4942   3.5029
  3.5094   3.5187   3.5360   3.5869   3.6023   3.6105   3.6291   3.6431
  3.6856   3.7112   3.7269   3.7405   3.7699   3.7971   3.7987   3.8357
  3.8673   3.8882   3.9225   3.9300   3.9365   3.9599   3.9685   3.9973
  4.0087   4.0302   4.0468   4.1114   4.1382   4.1464   4.1752   4.2102
  4.2367   4.2612   4.2778   4.2982   4.3099   4.3568   4.3961   4.4115
  4.4336   4.4784   4.4800   4.5142   4.5408   4.5648   4.6098   4.6435
  4.6558   4.7007   4.7280   4.7433   4.7889   4.7973   4.8130   4.8357
  4.8998   5.0162   5.0254   5.0537   5.0629   5.1170   5.1785   5.1893
  5.2404   5.2996   5.3533   5.4249   5.4769   5.4970   5.5434   5.5791
  5.6259   5.6660   5.7806   5.8352   5.8665   5.9414   5.9862   6.0752
  6.1056   6.3325   6.4207   6.4498   6.6793   9.4293  11.3459  12.6736
 13.8346  14.2769
 --------------------------------------------------------------
 
          Ground-State Mulliken Net Atomic Charges

     Atom                 Charge (a.u.)
  ----------------------------------------
      1 C                     0.011493
      2 S                    -0.006324
      3 C                    -0.226025
      4 C                    -0.237301
      5 C                    -0.184715
      6 H                     0.183247
      7 H                     0.187071
      8 C                    -0.362347
      9 H                     0.136402
     10 H                     0.128915
     11 H                     0.164632
     12 H                     0.204951
  ----------------------------------------
  Sum of atomic charges =     0.000000

 -----------------------------------------------------------------
                    Cartesian Multipole Moments
 -----------------------------------------------------------------
    Charge (ESU x 10^10)
                 0.0000
    Dipole Moment (Debye)
         X       1.2772      Y      -0.4096      Z      -0.6850
       Tot       1.5061
    Quadrupole Moments (Debye-Ang)
        XX     -46.0578     XY       2.7942     YY     -38.4887
        XZ      -0.1847     YZ       0.0952     ZZ     -41.9755
    Octopole Moments (Debye-Ang^2)
       XXX     -36.9158    XXY     -11.2702    XYY       0.4207
       YYY     -38.9591    XXZ      -5.9543    XYZ       3.5398
       YYZ      -3.7643    XZZ      -7.8979    YZZ      -7.9252
       ZZZ     -29.2935
    Hexadecapole Moments (Debye-Ang^3)
      XXXX    -147.2798   XXXY     -78.0707   XXYY     -93.3875
      XYYY     -59.8540   YYYY    -449.1701   XXXZ      -2.8051
      XXYZ      -4.1521   XYYZ      -1.5246   YYYZ      -8.2936
      XXZZ     -75.2263   XYZZ     -14.8232   YYZZ    -116.9566
      XZZZ      -1.1377   YZZZ     -13.4581   ZZZZ    -305.0691
 -----------------------------------------------------------------
 Total job time:  11.30s(wall), 579.68s(cpu) 
 Sun Sep 24 15:05:53 2023

        *************************************************************
        *                                                           *
        *  Thank you very much for using Q-Chem.  Have a nice day.  *
        *                                                           *
        *************************************************************


0 sent ACK to 0 
now end server 0 ... 
cleanup process ... done
remove work dirs ./qchem1069178.0 -- ./qchem1069178.0
rm -rf ./qchem1069178.0
rm -rf ./qchem1069178
