You are running Q-Chem version: 5.4.0

#
# job setting
#
local host:  exp-3-09
current dir: /expanse/lustre/projects/csd626/rramji/aromodel/PNDIT/Hydrogenated_Impropers_Test
input file:  Dimethyl_Naphthalene_Dicarboximide_Phi_25_Theta_0_Thiophene_Hydrogenated_Improper.qcin
output file: 
nprocs     : 1
nthreads   : 64
#
# qchem installation setting
#
QC:          /cm/shared/apps/spack/cpu/opt/spack/linux-centos8-zen2/gcc-10.2.0/qchem-5.4-akfmr7b3t57bfs6qan3padb2wnb2i7cl
QCAUX:       /cm/shared/apps/spack/cpu/opt/spack/linux-centos8-zen2/gcc-10.2.0/qchem-5.4-akfmr7b3t57bfs6qan3padb2wnb2i7cl/qcaux
QCPROG:      /cm/shared/apps/spack/cpu/opt/spack/linux-centos8-zen2/gcc-10.2.0/qchem-5.4-akfmr7b3t57bfs6qan3padb2wnb2i7cl/exe/qcprog.exe
QCPROG_S:    /cm/shared/apps/spack/cpu/opt/spack/linux-centos8-zen2/gcc-10.2.0/qchem-5.4-akfmr7b3t57bfs6qan3padb2wnb2i7cl/exe/qcprog.exe_s
PARALLEL:    -DPARALLEL
QCMPI:       mpich
#
# qchem directory setting
#
qcrun:       qchem3331760
QCSCRATCH:   .
QCLOCALSCR:  
QCTMPDIR:    .
QCFILEPREF:  ./qchem3331760
QCSAVEDIR:   
workdirs:    ./qchem3331760
workdir0:    ./qchem3331760
partmpdirs =  
#
# parallel setting
#
QCRSH:           ssh
QCMPI:           mpich
QCMPIRUN:        /cm/shared/apps/spack/cpu/opt/spack/linux-centos8-zen2/gcc-10.2.0/qchem-5.4-akfmr7b3t57bfs6qan3padb2wnb2i7cl/bin/mpi/mpirun_qchem
QCMACHINEFILE:   ./qchem3331760/hostfile
exp-3-09

#
# env setting
#
exported envs:   QC QCAUX QCSCRATCH QCRUNNAME QCFILEPREF QCPROG QCPROG_S GUIFILE

Running Job 1 of 1 Dimethyl_Naphthalene_Dicarboximide_Phi_25_Theta_0_Thiophene_Hydrogenated_Improper.qcin
qchem Dimethyl_Naphthalene_Dicarboximide_Phi_25_Theta_0_Thiophene_Hydrogenated_Improper.qcin_3331760.0 ./qchem3331760/ 1
/cm/shared/apps/spack/cpu/opt/spack/linux-centos8-zen2/gcc-10.2.0/qchem-5.4-akfmr7b3t57bfs6qan3padb2wnb2i7cl/bin/mpi/mpirun_qchem -machinefile ./qchem3331760/hostfile -np 1 /cm/shared/apps/spack/cpu/opt/spack/linux-centos8-zen2/gcc-10.2.0/qchem-5.4-akfmr7b3t57bfs6qan3padb2wnb2i7cl/exe/qcprog.exe Dimethyl_Naphthalene_Dicarboximide_Phi_25_Theta_0_Thiophene_Hydrogenated_Improper.qcin_3331760.0 ./qchem3331760/

Process 0 of 1 is on exp-3-09 - thread support 0
initial socket setup ...start
initial socket setup ...done 
now start server 0 ... 
                  Welcome to Q-Chem
     A Quantum Leap Into The Future Of Chemistry


 Q-Chem 5.4, Q-Chem, Inc., Pleasanton, CA (2021)

 License issued to: University of California, San Diego (site)

 E. Epifanovsky,  A. T. B. Gilbert,  Xintian Feng,  Joonho Lee,  Yuezhi Mao,  
 N. Mardirossian,  P. Pokhilko,  A. White,  M. Wormit,  M. P. Coons,  
 A. L. Dempwolff,  Zhengting Gan,  D. Hait,  P. R. Horn,  L. D. Jacobson,  
 I. Kaliman,  J. Kussmann,  A. W. Lange,  Ka Un Lao,  D. S. Levine,  Jie Liu,  
 S. C. McKenzie,  A. F. Morrison,  K. Nanda,  F. Plasser,  D. R. Rehn,  
 M. L. Vidal,  Zhi-Qiang You,  Ying Zhu,  B. Alam,  B. Albrecht,  
 A. Aldossary,  E. Alguire,  J. H. Andersen,  D. Barton,  K. Begam,  A. Behn,  
 Y. A. Bernard,  E. J. Berquist,  H. Burton,  A. Carreras,  K. Carter-Fenk,  
 R. Chakraborty,  A. D. Chien,  K. D. Closser,  V. Cofer-Shabica,  
 S. Dasgupta,  Jia Deng,  M. de Wergifosse,  M. Diedenhofen,  Hainam Do,  
 S. Ehlert,  Po-Tung Fang,  S. Fatehi,  Qingguo Feng,  J. Gayvert,  
 Qinghui Ge,  G. Gidofalvi,  M. Goldey,  J. Gomes,  C. Gonzalez-Espinoza,  
 S. Gulania,  A. Gunina,  M. W. D. Hanson-Heine,  P. H. P. Harbach,  
 A. W. Hauser,  M. F. Herbst,  M. Hernandez Vera,  M. Hodecker,  
 Z. C. Holden,  S. Houck,  Xunkun Huang,  Kerwin Hui,  B. C. Huynh,  
 M. Ivanov,  Hyunjun Ji,  Hanjie Jiang,  B. Kaduk,  S. Kaehler,  
 K. Khistyaev,  Jaehoon Kim,  P. Klunzinger,  Z. Koczor-Benda,  
 Joong Hoon Koh,  D. Kosenkov,  L. Koulias,  T. Kowalczyk,  C. M. Krauter,  
 K. Kue,  A. Kunitsa,  T. Kus,  A. Landau,  K. V. Lawler,  D. Lefrancois,  
 S. Lehtola,  Rain Li,  Yi-Pei Li,  Jiashu Liang,  M. Liebenthal,  
 Hung-Hsuan Lin,  You-Sheng Lin,  Fenglai Liu,  Kuan-Yu Liu,  
 M. Loipersberger,  A. Luenser,  A. Manjanath,  P. Manohar,  E. Mansoor,  
 S. F. Manzer,  Shan-Ping Mao,  A. V. Marenich,  T. Markovich,  S. Mason,  
 S. A. Maurer,  P. F. McLaughlin,  M. F. S. J. Menger,  J.-M. Mewes,  
 S. A. Mewes,  P. Morgante,  J. W. Mullinax,  T. S. Nguyen-Beck,  
 K. J. Oosterbaan,  G. Paran,  Alexander C. Paul,  Suranjan K. Paul,  
 F. Pavosevic,  Zheng Pei,  S. Prager,  E. I. Proynov,  E. Ramos,  B. Rana,  
 A. E. Rask,  A. Rettig,  R. M. Richard,  F. Rob,  E. Rossomme,  T. Scheele,  
 M. Scheurer,  M. Schneider,  N. Sergueev,  S. M. Sharada,  W. Skomorowski,  
 D. W. Small,  C. J. Stein,  Yu-Chuan Su,  E. J. Sundstrom,  Zhen Tao,  
 J. Thirman,  T. Tsuchimochi,  N. M. Tubman,  S. P. Veccham,  O. Vydrov,  
 J. Wenzel,  J. Witte,  A. Yamada,  Kun Yao,  S. Yeganeh,  S. R. Yost,  
 A. Zech,  Igor Ying Zhang,  Xing Zhang,  Yu Zhang,  D. Zuev,  
 A. Aspuru-Guzik,  A. T. Bell,  N. A. Besley,  K. B. Bravaya,  B. R. Brooks,  
 D. Casanova,  Jeng-Da Chai,  S. Coriani,  C. J. Cramer,  
 A. E. DePrince, III,  R. A. DiStasio Jr.,  A. Dreuw,  B. D. Dunietz,  
 T. R. Furlani,  W. A. Goddard III,  S. Grimme,  S. Hammes-Schiffer,  
 T. Head-Gordon,  W. J. Hehre,  Chao-Ping Hsu,  T.-C. Jagau,  Yousung Jung,  
 A. Klamt,  Jing Kong,  D. S. Lambrecht,  WanZhen Liang,  N. J. Mayhall,  
 C. W. McCurdy,  J. B. Neaton,  C. Ochsenfeld,  J. A. Parkhill,  R. Peverati,  
 V. A. Rassolov,  Yihan Shao,  L. V. Slipchenko,  T. Stauch,  R. P. Steele,  
 J. E. Subotnik,  A. J. W. Thom,  A. Tkatchenko,  D. G. Truhlar,  
 T. Van Voorhis,  T. A. Wesolowski,  K. B. Whaley,  H. L. Woodcock III,  
 P. M. Zimmerman,  S. Faraji,  P. M. W. Gill,  M. Head-Gordon,  
 J. M. Herbert,  A. I. Krylov

 Contributors to earlier versions of Q-Chem not listed above: 
 R. D. Adamson,  B. Austin,  R. Baer,  J. Baker,  G. J. O. Beran,  
 K. Brandhorst,  S. T. Brown,  E. F. C. Byrd,  A. K. Chakraborty,  
 G. K. L. Chan,  Chun-Min Chang,  Yunqing Chen,  C.-L. Cheng,  
 Siu Hung Chien,  D. M. Chipman,  D. L. Crittenden,  H. Dachsel,  
 R. J. Doerksen,  A. D. Dutoi,  R. G. Edgar,  J. Fosso-Tande,  
 L. Fusti-Molnar,  D. Ghosh,  A. Ghysels,  A. Golubeva-Zadorozhnaya,  
 J. Gonthier,  M. S. Gordon,  S. R. Gwaltney,  G. Hawkins,  J. E. Herr,  
 A. Heyden,  S. Hirata,  E. G. Hohenstein,  G. Kedziora,  F. J. Keil,  
 C. Kelley,  Jihan Kim,  R. A. King,  R. Z. Khaliullin,  P. P. Korambath,  
 W. Kurlancheek,  A. Laurent,  A. M. Lee,  M. S. Lee,  S. V. Levchenko,  
 Ching Yeh Lin,  D. Liotard,  E. Livshits,  R. C. Lochan,  I. Lotan,  
 L. A. Martinez-Martinez,  P. E. Maslen,  N. Nair,  D. P. O'Neill,  
 D. Neuhauser,  E. Neuscamman,  C. M. Oana,  R. Olivares-Amaya,  R. Olson,  
 T. M. Perrine,  B. Peters,  P. A. Pieniazek,  A. Prociuk,  Y. M. Rhee,  
 J. Ritchie,  M. A. Rohrdanz,  E. Rosta,  N. J. Russ,  H. F. Schaefer III,  
 M. W. Schmidt,  N. E. Schultz,  S. Sharma,  N. Shenvi,  C. D. Sherrill,  
 A. C. Simmonett,  A. Sodt,  T. Stein,  D. Stuck,  K. S. Thanthiriwatte,  
 V. Vanovschi,  L. Vogt,  Tao Wang,  A. Warshel,  M. A. Watson,  
 C. F. Williams,  Q. Wu,  X. Xu,  Jun Yang,  W. Zhang,  Yan Zhao

 Please cite Q-Chem as follows:
 Y. Shao et al., Mol. Phys. 113, 184-215 (2015)
 DOI: 10.1080/00268976.2014.952696

 Q-Chem 5.4.0 for Intel X86 EM64T Linux

 Parts of Q-Chem use Armadillo 9.800.1 (Horizon Scraper).
 http://arma.sourceforge.net/

 Q-Chem begins on Sun Sep 24 15:57:45 2023  

 Host: 
0

     Scratch files written to ./qchem3331760//
 May1621 |scratch|qcdevops|jenkins|workspace|build_RNUM    
 Parallel job on  1  processors
 Processing $rem in /cm/shared/apps/spack/cpu/opt/spack/linux-centos8-zen2/gcc-10.2.0/qchem-5.4-akfmr7b3t57bfs6qan3padb2wnb2i7cl/config/preferences:
 Processing $rem in /home/rramji/.qchemrc:
 Symmetry turned off for PCM/SM12/SMD calculation
 Core orbitals will be frozen

 Checking the input file for inconsistencies... 	...done.

 Q-Chem warning in module forms1/BasisType.C, line 2236:

 You are not using the predefined 5D/6D in this basis set.


--------------------------------------------------------------
User input:
--------------------------------------------------------------
$molecule
0 1
C	-0.193158	-0.369053	-0.215368
S	0.077942	0.376347	1.365132
C	0.638042	1.915347	0.689532
C	0.148042	0.568847	-1.200768
C	0.599442	1.809447	-0.708868
H	0.067442	0.347347	-2.275268
H	0.900742	2.637247	-1.367968
C	-0.064358	-1.841653	-0.215368
H	1.011642	-1.748153	-0.214868
H	-0.026058	-2.279253	0.771232
H	-0.002458	-2.549853	-1.028368
H	0.939142	2.742947	1.340632
$end

$rem
JOBTYPE		SP
EXCHANGE	HF
CORRELATION	pRIMP2
BASIS		cc-pvtz
METHOD		rimp2
AUX_BASIS	rimp2-cc-pvtz
SOLVENT_METHOD	PCM
PURECART	11111
SYMMETRY	false
MEM_TOTAL	110000
SCF_CONVERGENCE = 6
THRESH=10
GUI = 2
$end



$solvent
dielectric 4.90
$end
--------------------------------------------------------------
 ----------------------------------------------------------------
             Standard Nuclear Orientation (Angstroms)
    I     Atom           X                Y                Z
 ----------------------------------------------------------------
    1      C      -0.1931580000    -0.3690530000    -0.2153680000
    2      S       0.0779420000     0.3763470000     1.3651320000
    3      C       0.6380420000     1.9153470000     0.6895320000
    4      C       0.1480420000     0.5688470000    -1.2007680000
    5      C       0.5994420000     1.8094470000    -0.7088680000
    6      H       0.0674420000     0.3473470000    -2.2752680000
    7      H       0.9007420000     2.6372470000    -1.3679680000
    8      C      -0.0643580000    -1.8416530000    -0.2153680000
    9      H       1.0116420000    -1.7481530000    -0.2148680000
   10      H      -0.0260580000    -2.2792530000     0.7712320000
   11      H      -0.0024580000    -2.5498530000    -1.0283680000
   12      H       0.9391420000     2.7429470000     1.3406320000
 ----------------------------------------------------------------
 Nuclear Repulsion Energy =         271.61533647 hartrees
 There are       26 alpha and       26 beta electrons
 Requested basis set is cc-pVTZ
 There are 98 shells and 268 basis functions

 Total QAlloc Memory Limit 110000 MB
 Mega-Array Size       188 MB
 MEM_STATIC part       192 MB
 Discretize the solute cavity surface with Lebedev spheres
	Using 110 Lebedev grid points for each H atom
	Using 194 Lebedev grid points for other atoms
	Atomic van der Waals radii will be scaled by 1.20
 Remove points where switching function is < 1.0e-08
 Keep 883 surface tesserae and discard 941 interior tesserae
 Molecular Surface Area = 137.857 Angst**2

                       Distance Matrix (Angstroms)
             C (  1)   S (  2)   C (  3)   C (  4)   C (  5)   H (  6)
   S (  2)  1.768360
   C (  3)  2.593881  1.771629
   C (  4)  1.402529  2.574065  2.372003
   C (  5)  2.370152  2.574338  1.402935  1.408835
   H (  6)  2.196436  3.640531  3.402095  1.100049  2.207797
   H (  7)  3.400433  3.641223  2.196237  2.207440  1.100203  2.600235
   C (  8)  1.478222  2.727225  3.927755  2.612783  3.743622  3.008701
   H (  9)  1.831246  2.807436  3.791932  2.662009  3.615309  3.086727
   H ( 10)  2.156424  2.723186  4.247631  3.468540  4.393110  4.023547
   H ( 11)  2.335214  3.781263  4.826948  3.127085  4.412240  3.154903
   H ( 12)  3.658932  2.518543  1.095223  3.436752  2.277558  4.424194
             H (  7)   C (  8)   H (  9)   H ( 10)   H ( 11)
   C (  8)  4.724452
   H (  9)  4.535821  1.080055
   H ( 10)  5.441241  1.079972  1.526854
   H ( 11)  5.276088  1.079976  1.527385  1.819984
   H ( 12)  2.710934  4.944361  4.753400  5.145709  5.874734
 
 Requested basis set is rimp2-cc-pVTZ
 There are 207 shells and 707 basis functions
 A cutoff of  1.0D-10 yielded   4406 shell pairs
 There are     33074 function pairs (     42782 Cartesian)
 Smallest overlap matrix eigenvalue = 1.47E-04

 Scale SEOQF with 1.000000e+00/1.000000e-01/1.000000e-01

 Standard Electronic Orientation quadrupole field applied
 Nucleus-field energy     =     0.0000000037 hartrees
 Guess from superposition of atomic densities
 Warning:  Energy on first SCF cycle will be non-variational
 SAD guess density has 52.000000 electrons

 -----------------------------------------------------------------------
  General SCF calculation program by
  Eric Jon Sundstrom, Paul Horn, Yuezhi Mao, Dmitri Zuev, Alec White,
  David Stuck, Shaama M.S., Shane Yost, Joonho Lee, David Small,
  Daniel Levine, Susi Lehtola, Hugh Burton, Evgeny Epifanovsky,
  Bang C. Huynh
 -----------------------------------------------------------------------
 Hartree-Fock
 using 64 threads for integral computing
 -------------------------------------------------------
 OpenMP Integral computing Module                
 Release: version 1.0, May 2013, Q-Chem Inc. Pittsburgh 
 -------------------------------------------------------
 A restricted SCF calculation will be
 performed using DIIS
 SCF converges when DIIS error is below 1.0e-06
 ---------------------------------------
  Cycle       Energy         DIIS error
 ---------------------------------------
    1    -592.5924086385      3.23e-02  
    2    -590.2936246014      2.21e-03  
    3    -590.3549236766      8.59e-04  
    4    -590.3624189018      4.04e-04  
    5    -590.3644974288      7.05e-05  
    6    -590.3646215895      3.24e-05  
    7    -590.3646521011      1.43e-05  
    8    -590.3646617508      5.78e-06  
    9    -590.3646632743      1.94e-06  
   10    -590.3646634264      6.42e-07  Convergence criterion met
 ---------------------------------------
 SCF time:   CPU 511.86s  wall 10.00s 

************** Final PCM Free Energy Summary **************
 G_electrostatic  =      -0.00574285 hartree =      -3.60369369 kcal/mol
 G_cavitation     =       0.00000000 hartree =       0.00000000 kcal/mol
 G_dispersion     =       0.00000000 hartree =       0.00000000 kcal/mol
 G_repulsion      =       0.00000000 hartree =       0.00000000 kcal/mol
 --------------------------------------------------
 Non-electrostatic Free Energy =       0.00000000 hartree =       0.00000000 kcal/mol
 Total                         =      -0.00574285 hartree =      -3.60369369 kcal/mol
 --------------------------------------------------
 SCF Energy (H0 + V/2)                       =    -590.36466343 
 Solute Internal Energy (H0)                 =    -590.35892057 
 Total Free Energy (H0 + V/2 + non-elec)     =    -590.36466343 hartree
                                             = -370459.41764381 kcal/mol
***********************************************************

 SCF   energy in the final basis set =     -590.3646634264
 Total energy in the final basis set =     -590.3646634264


 --------------------------------------------------------------
  Generalized many-body perturbation theory program
  by Joonho Lee, Fazle Rob, Xintian Feng, Evgeny Epifanovsky

 No regularization used 
 (reg. param. = 0.0000e+00)
  (P|Q)^-1/2 Time:  CPU 6.65 s  wall 0.11 s

 In RI-MP2 calculation: 
 # of frozen core orbitals: 10

 Components of the RIMP2 correlation energy:
        aaaa    correlation energy =        -0.1253067040 a.u.
        abab    correlation energy =        -0.7513838766 a.u.
        bbbb    correlation energy =        -0.1253067040 a.u.
        non-Brillouin singles      =        -0.0000000000 a.u.
        total same-spin energy     =        -0.2506134080 a.u.
        total opposite-spin energy =        -0.7513838766 a.u.

 Total  RIMP2   correlation energy =        -1.0019972845 a.u.
        RIMP2         total energy =      -591.3666607110 a.u.

 RI-MP2 Energy Time:  CPU 35.57 s  wall 0.62 s
 
 --------------------------------------------------------------
 
                    Orbital Energies (a.u.)
 --------------------------------------------------------------
 
 Alpha MOs
 -- Occupied --
-91.9789 -11.2892 -11.2650 -11.2434 -11.2314 -11.2281  -8.9789  -6.6598
 -6.6593  -6.6587  -1.1596  -1.0406  -0.9721  -0.9166  -0.7560  -0.7224
 -0.6715  -0.5967  -0.5666  -0.5577  -0.5398  -0.4957  -0.4763  -0.4569
 -0.3470  -0.2969
 -- Virtual --
  0.1009   0.1515   0.1602   0.1805   0.1876   0.1979   0.2143   0.2168
  0.2292   0.2563   0.3162   0.3389   0.3436   0.3651   0.3883   0.4106
  0.4354   0.4427   0.4541   0.4696   0.4911   0.5147   0.5206   0.5320
  0.5453   0.5622   0.5711   0.5804   0.5876   0.6074   0.6175   0.6229
  0.6314   0.6353   0.6442   0.6571   0.6799   0.7069   0.7413   0.7677
  0.7778   0.7830   0.8235   0.8462   0.8661   0.8807   0.8993   0.9245
  0.9486   0.9812   1.0225   1.0565   1.0695   1.0710   1.1035   1.1216
  1.1267   1.1530   1.1718   1.1794   1.2163   1.2349   1.2567   1.2764
  1.2845   1.2946   1.3305   1.3449   1.3973   1.4150   1.4261   1.4424
  1.4574   1.4775   1.4925   1.5107   1.5388   1.5481   1.5542   1.5690
  1.5962   1.6180   1.6494   1.6882   1.7239   1.7549   1.7751   1.7934
  1.8357   1.8837   1.9084   1.9153   1.9590   2.0061   2.0437   2.1122
  2.1392   2.1717   2.2014   2.2235   2.2568   2.2824   2.3130   2.3956
  2.4306   2.4440   2.4792   2.5334   2.5357   2.5885   2.6031   2.6655
  2.6913   2.7228   2.7272   2.7523   2.7649   2.7844   2.8086   2.8423
  2.8641   2.9101   2.9271   2.9796   3.0073   3.0209   3.0353   3.0718
  3.0828   3.1020   3.1093   3.1334   3.1677   3.1865   3.2040   3.2340
  3.2572   3.2727   3.2802   3.3021   3.3241   3.3386   3.3652   3.3959
  3.4135   3.4174   3.4272   3.4467   3.4624   3.4735   3.4893   3.4956
  3.5106   3.5338   3.5552   3.5724   3.5888   3.6096   3.6370   3.6423
  3.6643   3.6886   3.7287   3.7524   3.7602   3.7931   3.8381   3.8417
  3.8496   3.8764   3.8959   3.9243   3.9362   3.9623   3.9886   3.9998
  4.0046   4.0538   4.0798   4.0852   4.1257   4.1420   4.1701   4.2066
  4.2517   4.2706   4.2768   4.2913   4.3279   4.3564   4.3854   4.3936
  4.4319   4.4745   4.4788   4.5034   4.5501   4.5741   4.5956   4.6366
  4.6443   4.7018   4.7346   4.7474   4.7891   4.8054   4.8163   4.8512
  4.9363   5.0167   5.0199   5.0451   5.0695   5.1124   5.1652   5.1887
  5.2432   5.3010   5.3533   5.4213   5.4767   5.4955   5.5349   5.5771
  5.6136   5.6968   5.7862   5.8156   5.8679   5.9620   5.9893   6.0715
  6.1220   6.3403   6.4121   6.4548   6.6687   9.3953  11.3455  12.7373
 13.9175  14.1868
 --------------------------------------------------------------
 
          Ground-State Mulliken Net Atomic Charges

     Atom                 Charge (a.u.)
  ----------------------------------------
      1 C                     0.020567
      2 S                     0.000232
      3 C                    -0.247037
      4 C                    -0.244817
      5 C                    -0.181364
      6 H                     0.178910
      7 H                     0.186738
      8 C                    -0.359933
      9 H                     0.148494
     10 H                     0.131590
     11 H                     0.162193
     12 H                     0.204427
  ----------------------------------------
  Sum of atomic charges =     0.000000

 -----------------------------------------------------------------
                    Cartesian Multipole Moments
 -----------------------------------------------------------------
    Charge (ESU x 10^10)
                -0.0000
    Dipole Moment (Debye)
         X       1.2702      Y      -0.6828      Z      -1.0604
       Tot       1.7900
    Quadrupole Moments (Debye-Ang)
        XX     -47.3838     XY       1.2530     YY     -37.3576
        XZ      -0.0452     YZ       1.0779     ZZ     -41.6836
    Octopole Moments (Debye-Ang^2)
       XXX     -28.6464    XXY     -16.4613    XYY       1.9816
       YYY     -41.4306    XXZ      -6.8702    XYZ       1.6574
       YYZ      -5.4355    XZZ      -6.1589    YZZ     -10.9675
       ZZZ     -28.1808
    Hexadecapole Moments (Debye-Ang^3)
      XXXX    -101.8820   XXXY     -54.0010   XXYY    -105.4030
      XYYY     -33.2719   YYYY    -478.0688   XXXZ      -2.0823
      XXYZ      -5.4793   XYYZ       0.8855   YYYZ      -6.0825
      XXZZ     -72.6798   XYZZ      -8.4416   YYZZ    -117.5990
      XZZZ      -0.2104   YZZZ     -14.0655   ZZZZ    -306.6113
 -----------------------------------------------------------------
 Total job time:  11.65s(wall), 587.97s(cpu) 
 Sun Sep 24 15:57:56 2023

        *************************************************************
        *                                                           *
        *  Thank you very much for using Q-Chem.  Have a nice day.  *
        *                                                           *
        *************************************************************


0 sent ACK to 0 
now end server 0 ... 
cleanup process ... done
remove work dirs ./qchem3331760.0 -- ./qchem3331760.0
rm -rf ./qchem3331760.0
rm -rf ./qchem3331760
