You are running Q-Chem version: 5.4.0

#
# job setting
#
local host:  exp-3-30
current dir: /expanse/lustre/projects/csd626/rramji/aromodel/PNDIT/Hydrogenated_Impropers_Test
input file:  Dimethyl_Naphthalene_Dicarboximide_Phi_50_Theta_270_Thiophene_Hydrogenated_Improper.qcin
output file: 
nprocs     : 1
nthreads   : 64
#
# qchem installation setting
#
QC:          /cm/shared/apps/spack/cpu/opt/spack/linux-centos8-zen2/gcc-10.2.0/qchem-5.4-akfmr7b3t57bfs6qan3padb2wnb2i7cl
QCAUX:       /cm/shared/apps/spack/cpu/opt/spack/linux-centos8-zen2/gcc-10.2.0/qchem-5.4-akfmr7b3t57bfs6qan3padb2wnb2i7cl/qcaux
QCPROG:      /cm/shared/apps/spack/cpu/opt/spack/linux-centos8-zen2/gcc-10.2.0/qchem-5.4-akfmr7b3t57bfs6qan3padb2wnb2i7cl/exe/qcprog.exe
QCPROG_S:    /cm/shared/apps/spack/cpu/opt/spack/linux-centos8-zen2/gcc-10.2.0/qchem-5.4-akfmr7b3t57bfs6qan3padb2wnb2i7cl/exe/qcprog.exe_s
PARALLEL:    -DPARALLEL
QCMPI:       mpich
#
# qchem directory setting
#
qcrun:       qchem1228116
QCSCRATCH:   .
QCLOCALSCR:  
QCTMPDIR:    .
QCFILEPREF:  ./qchem1228116
QCSAVEDIR:   
workdirs:    ./qchem1228116
workdir0:    ./qchem1228116
partmpdirs =  
#
# parallel setting
#
QCRSH:           ssh
QCMPI:           mpich
QCMPIRUN:        /cm/shared/apps/spack/cpu/opt/spack/linux-centos8-zen2/gcc-10.2.0/qchem-5.4-akfmr7b3t57bfs6qan3padb2wnb2i7cl/bin/mpi/mpirun_qchem
QCMACHINEFILE:   ./qchem1228116/hostfile
exp-3-30

#
# env setting
#
exported envs:   QC QCAUX QCSCRATCH QCRUNNAME QCFILEPREF QCPROG QCPROG_S GUIFILE

Running Job 1 of 1 Dimethyl_Naphthalene_Dicarboximide_Phi_50_Theta_270_Thiophene_Hydrogenated_Improper.qcin
qchem Dimethyl_Naphthalene_Dicarboximide_Phi_50_Theta_270_Thiophene_Hydrogenated_Improper.qcin_1228116.0 ./qchem1228116/ 1
/cm/shared/apps/spack/cpu/opt/spack/linux-centos8-zen2/gcc-10.2.0/qchem-5.4-akfmr7b3t57bfs6qan3padb2wnb2i7cl/bin/mpi/mpirun_qchem -machinefile ./qchem1228116/hostfile -np 1 /cm/shared/apps/spack/cpu/opt/spack/linux-centos8-zen2/gcc-10.2.0/qchem-5.4-akfmr7b3t57bfs6qan3padb2wnb2i7cl/exe/qcprog.exe Dimethyl_Naphthalene_Dicarboximide_Phi_50_Theta_270_Thiophene_Hydrogenated_Improper.qcin_1228116.0 ./qchem1228116/

Process 0 of 1 is on exp-3-30 - thread support 0
initial socket setup ...start
initial socket setup ...done 
now start server 0 ... 
                  Welcome to Q-Chem
     A Quantum Leap Into The Future Of Chemistry


 Q-Chem 5.4, Q-Chem, Inc., Pleasanton, CA (2021)

 License issued to: University of California, San Diego (site)

 E. Epifanovsky,  A. T. B. Gilbert,  Xintian Feng,  Joonho Lee,  Yuezhi Mao,  
 N. Mardirossian,  P. Pokhilko,  A. White,  M. Wormit,  M. P. Coons,  
 A. L. Dempwolff,  Zhengting Gan,  D. Hait,  P. R. Horn,  L. D. Jacobson,  
 I. Kaliman,  J. Kussmann,  A. W. Lange,  Ka Un Lao,  D. S. Levine,  Jie Liu,  
 S. C. McKenzie,  A. F. Morrison,  K. Nanda,  F. Plasser,  D. R. Rehn,  
 M. L. Vidal,  Zhi-Qiang You,  Ying Zhu,  B. Alam,  B. Albrecht,  
 A. Aldossary,  E. Alguire,  J. H. Andersen,  D. Barton,  K. Begam,  A. Behn,  
 Y. A. Bernard,  E. J. Berquist,  H. Burton,  A. Carreras,  K. Carter-Fenk,  
 R. Chakraborty,  A. D. Chien,  K. D. Closser,  V. Cofer-Shabica,  
 S. Dasgupta,  Jia Deng,  M. de Wergifosse,  M. Diedenhofen,  Hainam Do,  
 S. Ehlert,  Po-Tung Fang,  S. Fatehi,  Qingguo Feng,  J. Gayvert,  
 Qinghui Ge,  G. Gidofalvi,  M. Goldey,  J. Gomes,  C. Gonzalez-Espinoza,  
 S. Gulania,  A. Gunina,  M. W. D. Hanson-Heine,  P. H. P. Harbach,  
 A. W. Hauser,  M. F. Herbst,  M. Hernandez Vera,  M. Hodecker,  
 Z. C. Holden,  S. Houck,  Xunkun Huang,  Kerwin Hui,  B. C. Huynh,  
 M. Ivanov,  Hyunjun Ji,  Hanjie Jiang,  B. Kaduk,  S. Kaehler,  
 K. Khistyaev,  Jaehoon Kim,  P. Klunzinger,  Z. Koczor-Benda,  
 Joong Hoon Koh,  D. Kosenkov,  L. Koulias,  T. Kowalczyk,  C. M. Krauter,  
 K. Kue,  A. Kunitsa,  T. Kus,  A. Landau,  K. V. Lawler,  D. Lefrancois,  
 S. Lehtola,  Rain Li,  Yi-Pei Li,  Jiashu Liang,  M. Liebenthal,  
 Hung-Hsuan Lin,  You-Sheng Lin,  Fenglai Liu,  Kuan-Yu Liu,  
 M. Loipersberger,  A. Luenser,  A. Manjanath,  P. Manohar,  E. Mansoor,  
 S. F. Manzer,  Shan-Ping Mao,  A. V. Marenich,  T. Markovich,  S. Mason,  
 S. A. Maurer,  P. F. McLaughlin,  M. F. S. J. Menger,  J.-M. Mewes,  
 S. A. Mewes,  P. Morgante,  J. W. Mullinax,  T. S. Nguyen-Beck,  
 K. J. Oosterbaan,  G. Paran,  Alexander C. Paul,  Suranjan K. Paul,  
 F. Pavosevic,  Zheng Pei,  S. Prager,  E. I. Proynov,  E. Ramos,  B. Rana,  
 A. E. Rask,  A. Rettig,  R. M. Richard,  F. Rob,  E. Rossomme,  T. Scheele,  
 M. Scheurer,  M. Schneider,  N. Sergueev,  S. M. Sharada,  W. Skomorowski,  
 D. W. Small,  C. J. Stein,  Yu-Chuan Su,  E. J. Sundstrom,  Zhen Tao,  
 J. Thirman,  T. Tsuchimochi,  N. M. Tubman,  S. P. Veccham,  O. Vydrov,  
 J. Wenzel,  J. Witte,  A. Yamada,  Kun Yao,  S. Yeganeh,  S. R. Yost,  
 A. Zech,  Igor Ying Zhang,  Xing Zhang,  Yu Zhang,  D. Zuev,  
 A. Aspuru-Guzik,  A. T. Bell,  N. A. Besley,  K. B. Bravaya,  B. R. Brooks,  
 D. Casanova,  Jeng-Da Chai,  S. Coriani,  C. J. Cramer,  
 A. E. DePrince, III,  R. A. DiStasio Jr.,  A. Dreuw,  B. D. Dunietz,  
 T. R. Furlani,  W. A. Goddard III,  S. Grimme,  S. Hammes-Schiffer,  
 T. Head-Gordon,  W. J. Hehre,  Chao-Ping Hsu,  T.-C. Jagau,  Yousung Jung,  
 A. Klamt,  Jing Kong,  D. S. Lambrecht,  WanZhen Liang,  N. J. Mayhall,  
 C. W. McCurdy,  J. B. Neaton,  C. Ochsenfeld,  J. A. Parkhill,  R. Peverati,  
 V. A. Rassolov,  Yihan Shao,  L. V. Slipchenko,  T. Stauch,  R. P. Steele,  
 J. E. Subotnik,  A. J. W. Thom,  A. Tkatchenko,  D. G. Truhlar,  
 T. Van Voorhis,  T. A. Wesolowski,  K. B. Whaley,  H. L. Woodcock III,  
 P. M. Zimmerman,  S. Faraji,  P. M. W. Gill,  M. Head-Gordon,  
 J. M. Herbert,  A. I. Krylov

 Contributors to earlier versions of Q-Chem not listed above: 
 R. D. Adamson,  B. Austin,  R. Baer,  J. Baker,  G. J. O. Beran,  
 K. Brandhorst,  S. T. Brown,  E. F. C. Byrd,  A. K. Chakraborty,  
 G. K. L. Chan,  Chun-Min Chang,  Yunqing Chen,  C.-L. Cheng,  
 Siu Hung Chien,  D. M. Chipman,  D. L. Crittenden,  H. Dachsel,  
 R. J. Doerksen,  A. D. Dutoi,  R. G. Edgar,  J. Fosso-Tande,  
 L. Fusti-Molnar,  D. Ghosh,  A. Ghysels,  A. Golubeva-Zadorozhnaya,  
 J. Gonthier,  M. S. Gordon,  S. R. Gwaltney,  G. Hawkins,  J. E. Herr,  
 A. Heyden,  S. Hirata,  E. G. Hohenstein,  G. Kedziora,  F. J. Keil,  
 C. Kelley,  Jihan Kim,  R. A. King,  R. Z. Khaliullin,  P. P. Korambath,  
 W. Kurlancheek,  A. Laurent,  A. M. Lee,  M. S. Lee,  S. V. Levchenko,  
 Ching Yeh Lin,  D. Liotard,  E. Livshits,  R. C. Lochan,  I. Lotan,  
 L. A. Martinez-Martinez,  P. E. Maslen,  N. Nair,  D. P. O'Neill,  
 D. Neuhauser,  E. Neuscamman,  C. M. Oana,  R. Olivares-Amaya,  R. Olson,  
 T. M. Perrine,  B. Peters,  P. A. Pieniazek,  A. Prociuk,  Y. M. Rhee,  
 J. Ritchie,  M. A. Rohrdanz,  E. Rosta,  N. J. Russ,  H. F. Schaefer III,  
 M. W. Schmidt,  N. E. Schultz,  S. Sharma,  N. Shenvi,  C. D. Sherrill,  
 A. C. Simmonett,  A. Sodt,  T. Stein,  D. Stuck,  K. S. Thanthiriwatte,  
 V. Vanovschi,  L. Vogt,  Tao Wang,  A. Warshel,  M. A. Watson,  
 C. F. Williams,  Q. Wu,  X. Xu,  Jun Yang,  W. Zhang,  Yan Zhao

 Please cite Q-Chem as follows:
 Y. Shao et al., Mol. Phys. 113, 184-215 (2015)
 DOI: 10.1080/00268976.2014.952696

 Q-Chem 5.4.0 for Intel X86 EM64T Linux

 Parts of Q-Chem use Armadillo 9.800.1 (Horizon Scraper).
 http://arma.sourceforge.net/

 Q-Chem begins on Sun Sep 24 15:13:48 2023  

 Host: 
0

     Scratch files written to ./qchem1228116//
 May1621 |scratch|qcdevops|jenkins|workspace|build_RNUM    
 Parallel job on  1  processors
 Processing $rem in /cm/shared/apps/spack/cpu/opt/spack/linux-centos8-zen2/gcc-10.2.0/qchem-5.4-akfmr7b3t57bfs6qan3padb2wnb2i7cl/config/preferences:
 Processing $rem in /home/rramji/.qchemrc:
 Symmetry turned off for PCM/SM12/SMD calculation
 Core orbitals will be frozen

 Checking the input file for inconsistencies... 	...done.

 Q-Chem warning in module forms1/BasisType.C, line 2236:

 You are not using the predefined 5D/6D in this basis set.


--------------------------------------------------------------
User input:
--------------------------------------------------------------
$molecule
0 1
C	-0.398017	-0.214208	-0.208929
S	0.209483	0.295792	1.371571
C	1.463983	1.348492	0.695971
C	0.366383	0.427392	-1.194329
C	1.377683	1.276092	-0.702429
H	0.185883	0.275892	-2.268829
H	2.052483	1.842392	-1.361529
C	-0.398017	-1.692408	-0.208929
H	-0.397517	-1.693008	-1.288929
H	0.588583	-2.131708	-0.208929
H	-1.211017	-2.403408	-0.208829
H	2.138583	1.914692	1.347071
$end

$rem
JOBTYPE		SP
EXCHANGE	HF
CORRELATION	pRIMP2
BASIS		cc-pvtz
METHOD		rimp2
AUX_BASIS	rimp2-cc-pvtz
SOLVENT_METHOD	PCM
PURECART	11111
SYMMETRY	false
MEM_TOTAL	110000
SCF_CONVERGENCE = 6
THRESH=10
GUI = 2
$end



$solvent
dielectric 4.90
$end
--------------------------------------------------------------
 ----------------------------------------------------------------
             Standard Nuclear Orientation (Angstroms)
    I     Atom           X                Y                Z
 ----------------------------------------------------------------
    1      C      -0.3980170000    -0.2142080000    -0.2089290000
    2      S       0.2094830000     0.2957920000     1.3715710000
    3      C       1.4639830000     1.3484920000     0.6959710000
    4      C       0.3663830000     0.4273920000    -1.1943290000
    5      C       1.3776830000     1.2760920000    -0.7024290000
    6      H       0.1858830000     0.2758920000    -2.2688290000
    7      H       2.0524830000     1.8423920000    -1.3615290000
    8      C      -0.3980170000    -1.6924080000    -0.2089290000
    9      H      -0.3975170000    -1.6930080000    -1.2889290000
   10      H       0.5885830000    -2.1317080000    -0.2089290000
   11      H      -1.2110170000    -2.4034080000    -0.2088290000
   12      H       2.1385830000     1.9146920000     1.3470710000
 ----------------------------------------------------------------
 Nuclear Repulsion Energy =         273.94341401 hartrees
 There are       26 alpha and       26 beta electrons
 Requested basis set is cc-pVTZ
 There are 98 shells and 268 basis functions

 Total QAlloc Memory Limit 110000 MB
 Mega-Array Size       188 MB
 MEM_STATIC part       192 MB
 Discretize the solute cavity surface with Lebedev spheres
	Using 110 Lebedev grid points for each H atom
	Using 194 Lebedev grid points for other atoms
	Atomic van der Waals radii will be scaled by 1.20
 Remove points where switching function is < 1.0e-08
 Keep 850 surface tesserae and discard 974 interior tesserae
 Molecular Surface Area = 136.310 Angst**2

                       Distance Matrix (Angstroms)
             C (  1)   S (  2)   C (  3)   C (  4)   C (  5)   H (  6)
   S (  2)  1.768371
   C (  3)  2.593823  1.771548
   C (  4)  1.402487  2.574059  2.372000
   C (  5)  2.370158  2.574326  1.402930  1.408895
   H (  6)  2.196435  3.640531  3.402065  1.100038  2.207803
   H (  7)  3.400447  3.641216  2.196264  2.207513  1.100211  2.600252
   C (  8)  1.478200  2.611508  3.678717  2.459446  3.494087  2.908321
   H (  9)  1.831188  3.376690  4.081144  2.255790  3.508685  2.275330
   H ( 10)  2.156429  2.921379  3.700941  2.751250  3.532608  3.194040
   H ( 11)  2.335287  3.435282  4.695854  3.387157  4.525895  3.656990
   H ( 12)  3.658919  2.518504  1.095262  3.436782  2.277549  4.424188
             H (  7)   C (  8)   H (  9)   H ( 10)   H ( 11)
   C (  8)  4.452892
   H (  9)  4.301956  1.080000
   H ( 10)  4.389187  1.079983  1.526843
   H ( 11)  5.477770  1.080042  1.527438  1.819995
   H ( 12)  2.710932  4.676179  5.137684  4.604019  5.682133
 
 Requested basis set is rimp2-cc-pVTZ
 There are 207 shells and 707 basis functions
 A cutoff of  1.0D-10 yielded   4466 shell pairs
 There are     33702 function pairs (     43623 Cartesian)
 Smallest overlap matrix eigenvalue = 1.79E-04

 Scale SEOQF with 1.000000e-01/1.000000e-01/1.000000e-01

 Standard Electronic Orientation quadrupole field applied
 Nucleus-field energy     =    -0.0000000002 hartrees
 Guess from superposition of atomic densities
 Warning:  Energy on first SCF cycle will be non-variational
 SAD guess density has 52.000000 electrons

 -----------------------------------------------------------------------
  General SCF calculation program by
  Eric Jon Sundstrom, Paul Horn, Yuezhi Mao, Dmitri Zuev, Alec White,
  David Stuck, Shaama M.S., Shane Yost, Joonho Lee, David Small,
  Daniel Levine, Susi Lehtola, Hugh Burton, Evgeny Epifanovsky,
  Bang C. Huynh
 -----------------------------------------------------------------------
 Hartree-Fock
 using 64 threads for integral computing
 -------------------------------------------------------
 OpenMP Integral computing Module                
 Release: version 1.0, May 2013, Q-Chem Inc. Pittsburgh 
 -------------------------------------------------------
 A restricted SCF calculation will be
 performed using DIIS
 SCF converges when DIIS error is below 1.0e-06
 ---------------------------------------
  Cycle       Energy         DIIS error
 ---------------------------------------
    1    -592.6432642571      3.25e-02  
    2    -590.2592377403      2.13e-03  
    3    -590.3195357864      7.33e-04  
    4    -590.3260465943      3.52e-04  
    5    -590.3276554594      7.08e-05  
    6    -590.3277984635      3.41e-05  
    7    -590.3278420980      1.64e-05  
    8    -590.3278579106      7.95e-06  
    9    -590.3278610080      2.81e-06  
   10    -590.3278613539      1.18e-06  
   11    -590.3278614089      4.54e-07  Convergence criterion met
 ---------------------------------------
 SCF time:   CPU 552.00s  wall 9.00s 

************** Final PCM Free Energy Summary **************
 G_electrostatic  =      -0.00577835 hartree =      -3.62596670 kcal/mol
 G_cavitation     =       0.00000000 hartree =       0.00000000 kcal/mol
 G_dispersion     =       0.00000000 hartree =       0.00000000 kcal/mol
 G_repulsion      =       0.00000000 hartree =       0.00000000 kcal/mol
 --------------------------------------------------
 Non-electrostatic Free Energy =       0.00000000 hartree =       0.00000000 kcal/mol
 Total                         =      -0.00577835 hartree =      -3.62596670 kcal/mol
 --------------------------------------------------
 SCF Energy (H0 + V/2)                       =    -590.32786141 
 Solute Internal Energy (H0)                 =    -590.32208306 
 Total Free Energy (H0 + V/2 + non-elec)     =    -590.32786141 hartree
                                             = -370436.32402925 kcal/mol
***********************************************************

 SCF   energy in the final basis set =     -590.3278614089
 Total energy in the final basis set =     -590.3278614089


 --------------------------------------------------------------
  Generalized many-body perturbation theory program
  by Joonho Lee, Fazle Rob, Xintian Feng, Evgeny Epifanovsky

 No regularization used 
 (reg. param. = 0.0000e+00)
  (P|Q)^-1/2 Time:  CPU 8.67 s  wall 0.14 s

 In RI-MP2 calculation: 
 # of frozen core orbitals: 10

 Components of the RIMP2 correlation energy:
        aaaa    correlation energy =        -0.1270681119 a.u.
        abab    correlation energy =        -0.7572886742 a.u.
        bbbb    correlation energy =        -0.1270681119 a.u.
        non-Brillouin singles      =        -0.0000000000 a.u.
        total same-spin energy     =        -0.2541362239 a.u.
        total opposite-spin energy =        -0.7572886742 a.u.

 Total  RIMP2   correlation energy =        -1.0114248981 a.u.
        RIMP2         total energy =      -591.3392863069 a.u.

 RI-MP2 Energy Time:  CPU 28.60 s  wall 0.50 s
 
 --------------------------------------------------------------
 
                    Orbital Energies (a.u.)
 --------------------------------------------------------------
 
 Alpha MOs
 -- Occupied --
-91.9737 -11.2849 -11.2636 -11.2526 -11.2446 -11.2168  -8.9744  -6.6551
 -6.6544  -6.6541  -1.1655  -1.0371  -0.9772  -0.9098  -0.7598  -0.7283
 -0.6719  -0.5956  -0.5764  -0.5558  -0.5401  -0.4855  -0.4677  -0.4289
 -0.3416  -0.3142
 -- Virtual --
  0.0700   0.1546   0.1613   0.1763   0.1875   0.1983   0.2080   0.2245
  0.2364   0.2550   0.2902   0.3369   0.3543   0.3671   0.3825   0.3988
  0.4292   0.4438   0.4520   0.4592   0.4766   0.5043   0.5220   0.5328
  0.5378   0.5433   0.5609   0.5843   0.5915   0.6000   0.6165   0.6212
  0.6267   0.6373   0.6569   0.6622   0.6864   0.7215   0.7296   0.7722
  0.7795   0.7941   0.8147   0.8378   0.8544   0.8741   0.8964   0.9463
  0.9788   0.9855   1.0200   1.0305   1.0642   1.0895   1.1285   1.1393
  1.1571   1.1576   1.1839   1.2035   1.2234   1.2313   1.2551   1.2789
  1.2923   1.3134   1.3292   1.3523   1.3731   1.3844   1.4106   1.4427
  1.4592   1.4813   1.4951   1.5046   1.5170   1.5414   1.5728   1.5956
  1.6099   1.6318   1.6526   1.6655   1.6949   1.7130   1.7561   1.8129
  1.8208   1.8753   1.8971   1.9021   1.9581   1.9660   2.0273   2.1009
  2.1238   2.1601   2.1756   2.2064   2.2403   2.2537   2.3356   2.3759
  2.4239   2.4561   2.4840   2.5153   2.5694   2.6134   2.6319   2.6580
  2.6912   2.7123   2.7191   2.7458   2.7760   2.8294   2.8595   2.8726
  2.8995   2.9164   2.9441   2.9486   2.9790   3.0107   3.0244   3.0447
  3.1100   3.1213   3.1350   3.1440   3.1695   3.1913   3.2042   3.2301
  3.2542   3.2560   3.2786   3.2975   3.3182   3.3332   3.3481   3.3679
  3.3903   3.4135   3.4272   3.4438   3.4605   3.4744   3.4906   3.5078
  3.5193   3.5303   3.5512   3.5801   3.5975   3.6444   3.6559   3.6618
  3.6742   3.6850   3.7247   3.7702   3.7858   3.8091   3.8231   3.8397
  3.8854   3.9001   3.9156   3.9436   3.9575   3.9638   3.9761   3.9848
  4.0272   4.0427   4.0549   4.1120   4.1239   4.1598   4.1688   4.2031
  4.2395   4.2737   4.2852   4.2999   4.3034   4.3651   4.4090   4.4252
  4.4798   4.4806   4.5012   4.5220   4.5505   4.5830   4.6166   4.6468
  4.6859   4.7294   4.7342   4.7622   4.7759   4.8083   4.8309   4.8904
  4.9238   4.9995   5.0181   5.0271   5.0868   5.1375   5.1687   5.1814
  5.2090   5.2856   5.3588   5.4189   5.4578   5.4737   5.5257   5.5989
  5.6277   5.7072   5.7595   5.8072   5.8470   5.9450   5.9852   6.0510
  6.0756   6.3150   6.3843   6.4729   6.5785   9.5692  11.5672  12.6279
 13.8452  14.0581
 --------------------------------------------------------------
 
          Ground-State Mulliken Net Atomic Charges

     Atom                 Charge (a.u.)
  ----------------------------------------
      1 C                    -0.061176
      2 S                     0.005225
      3 C                    -0.181116
      4 C                    -0.141712
      5 C                    -0.223332
      6 H                     0.182174
      7 H                     0.188147
      8 C                    -0.349756
      9 H                     0.106060
     10 H                     0.130810
     11 H                     0.138468
     12 H                     0.206207
  ----------------------------------------
  Sum of atomic charges =     0.000000

 -----------------------------------------------------------------
                    Cartesian Multipole Moments
 -----------------------------------------------------------------
    Charge (ESU x 10^10)
                 0.0000
    Dipole Moment (Debye)
         X       1.7550      Y      -0.0054      Z      -1.7496
       Tot       2.4781
    Quadrupole Moments (Debye-Ang)
        XX     -42.4050     XY       5.0006     YY     -42.0246
        XZ       0.8118     YZ       1.6546     ZZ     -41.5792
    Octopole Moments (Debye-Ang^2)
       XXX     -46.9124    XXY      -1.2651    XYY     -11.0591
       YYY     -27.7799    XXZ      -3.7592    XYZ       2.2908
       YYZ      -6.9852    XZZ     -12.0217    YZZ      -3.3919
       ZZZ     -28.5895
    Hexadecapole Moments (Debye-Ang^3)
      XXXX    -237.2084   XXXY     -75.5179   XXYY     -77.7735
      XYYY     -81.3973   YYYY    -353.6297   XXXZ      -3.2801
      XXYZ      -1.2140   XYYZ       2.4190   YYYZ     -11.2399
      XXZZ     -84.8186   XYZZ     -18.9787   YYZZ    -108.0560
      XZZZ      -4.9388   YZZZ     -19.2823   ZZZZ    -306.1980
 -----------------------------------------------------------------
 Total job time:  11.48s(wall), 622.33s(cpu) 
 Sun Sep 24 15:13:59 2023

        *************************************************************
        *                                                           *
        *  Thank you very much for using Q-Chem.  Have a nice day.  *
        *                                                           *
        *************************************************************


0 sent ACK to 0 
now end server 0 ... 
cleanup process ... done
remove work dirs ./qchem1228116.0 -- ./qchem1228116.0
rm -rf ./qchem1228116.0
rm -rf ./qchem1228116
