You are running Q-Chem version: 5.4.0

#
# job setting
#
local host:  exp-3-30
current dir: /expanse/lustre/projects/csd626/rramji/aromodel/PNDIT/Hydrogenated_Impropers_Test
input file:  Dimethyl_Naphthalene_Dicarboximide_Phi_50_Theta_0_Thiophene_Hydrogenated_Improper.qcin
output file: 
nprocs     : 1
nthreads   : 64
#
# qchem installation setting
#
QC:          /cm/shared/apps/spack/cpu/opt/spack/linux-centos8-zen2/gcc-10.2.0/qchem-5.4-akfmr7b3t57bfs6qan3padb2wnb2i7cl
QCAUX:       /cm/shared/apps/spack/cpu/opt/spack/linux-centos8-zen2/gcc-10.2.0/qchem-5.4-akfmr7b3t57bfs6qan3padb2wnb2i7cl/qcaux
QCPROG:      /cm/shared/apps/spack/cpu/opt/spack/linux-centos8-zen2/gcc-10.2.0/qchem-5.4-akfmr7b3t57bfs6qan3padb2wnb2i7cl/exe/qcprog.exe
QCPROG_S:    /cm/shared/apps/spack/cpu/opt/spack/linux-centos8-zen2/gcc-10.2.0/qchem-5.4-akfmr7b3t57bfs6qan3padb2wnb2i7cl/exe/qcprog.exe_s
PARALLEL:    -DPARALLEL
QCMPI:       mpich
#
# qchem directory setting
#
qcrun:       qchem1221941
QCSCRATCH:   .
QCLOCALSCR:  
QCTMPDIR:    .
QCFILEPREF:  ./qchem1221941
QCSAVEDIR:   
workdirs:    ./qchem1221941
workdir0:    ./qchem1221941
partmpdirs =  
#
# parallel setting
#
QCRSH:           ssh
QCMPI:           mpich
QCMPIRUN:        /cm/shared/apps/spack/cpu/opt/spack/linux-centos8-zen2/gcc-10.2.0/qchem-5.4-akfmr7b3t57bfs6qan3padb2wnb2i7cl/bin/mpi/mpirun_qchem
QCMACHINEFILE:   ./qchem1221941/hostfile
exp-3-30

#
# env setting
#
exported envs:   QC QCAUX QCSCRATCH QCRUNNAME QCFILEPREF QCPROG QCPROG_S GUIFILE

Running Job 1 of 1 Dimethyl_Naphthalene_Dicarboximide_Phi_50_Theta_0_Thiophene_Hydrogenated_Improper.qcin
qchem Dimethyl_Naphthalene_Dicarboximide_Phi_50_Theta_0_Thiophene_Hydrogenated_Improper.qcin_1221941.0 ./qchem1221941/ 1
/cm/shared/apps/spack/cpu/opt/spack/linux-centos8-zen2/gcc-10.2.0/qchem-5.4-akfmr7b3t57bfs6qan3padb2wnb2i7cl/bin/mpi/mpirun_qchem -machinefile ./qchem1221941/hostfile -np 1 /cm/shared/apps/spack/cpu/opt/spack/linux-centos8-zen2/gcc-10.2.0/qchem-5.4-akfmr7b3t57bfs6qan3padb2wnb2i7cl/exe/qcprog.exe Dimethyl_Naphthalene_Dicarboximide_Phi_50_Theta_0_Thiophene_Hydrogenated_Improper.qcin_1221941.0 ./qchem1221941/

Process 0 of 1 is on exp-3-30 - thread support 0
initial socket setup ...start
initial socket setup ...done 
now start server 0 ... 
                  Welcome to Q-Chem
     A Quantum Leap Into The Future Of Chemistry


 Q-Chem 5.4, Q-Chem, Inc., Pleasanton, CA (2021)

 License issued to: University of California, San Diego (site)

 E. Epifanovsky,  A. T. B. Gilbert,  Xintian Feng,  Joonho Lee,  Yuezhi Mao,  
 N. Mardirossian,  P. Pokhilko,  A. White,  M. Wormit,  M. P. Coons,  
 A. L. Dempwolff,  Zhengting Gan,  D. Hait,  P. R. Horn,  L. D. Jacobson,  
 I. Kaliman,  J. Kussmann,  A. W. Lange,  Ka Un Lao,  D. S. Levine,  Jie Liu,  
 S. C. McKenzie,  A. F. Morrison,  K. Nanda,  F. Plasser,  D. R. Rehn,  
 M. L. Vidal,  Zhi-Qiang You,  Ying Zhu,  B. Alam,  B. Albrecht,  
 A. Aldossary,  E. Alguire,  J. H. Andersen,  D. Barton,  K. Begam,  A. Behn,  
 Y. A. Bernard,  E. J. Berquist,  H. Burton,  A. Carreras,  K. Carter-Fenk,  
 R. Chakraborty,  A. D. Chien,  K. D. Closser,  V. Cofer-Shabica,  
 S. Dasgupta,  Jia Deng,  M. de Wergifosse,  M. Diedenhofen,  Hainam Do,  
 S. Ehlert,  Po-Tung Fang,  S. Fatehi,  Qingguo Feng,  J. Gayvert,  
 Qinghui Ge,  G. Gidofalvi,  M. Goldey,  J. Gomes,  C. Gonzalez-Espinoza,  
 S. Gulania,  A. Gunina,  M. W. D. Hanson-Heine,  P. H. P. Harbach,  
 A. W. Hauser,  M. F. Herbst,  M. Hernandez Vera,  M. Hodecker,  
 Z. C. Holden,  S. Houck,  Xunkun Huang,  Kerwin Hui,  B. C. Huynh,  
 M. Ivanov,  Hyunjun Ji,  Hanjie Jiang,  B. Kaduk,  S. Kaehler,  
 K. Khistyaev,  Jaehoon Kim,  P. Klunzinger,  Z. Koczor-Benda,  
 Joong Hoon Koh,  D. Kosenkov,  L. Koulias,  T. Kowalczyk,  C. M. Krauter,  
 K. Kue,  A. Kunitsa,  T. Kus,  A. Landau,  K. V. Lawler,  D. Lefrancois,  
 S. Lehtola,  Rain Li,  Yi-Pei Li,  Jiashu Liang,  M. Liebenthal,  
 Hung-Hsuan Lin,  You-Sheng Lin,  Fenglai Liu,  Kuan-Yu Liu,  
 M. Loipersberger,  A. Luenser,  A. Manjanath,  P. Manohar,  E. Mansoor,  
 S. F. Manzer,  Shan-Ping Mao,  A. V. Marenich,  T. Markovich,  S. Mason,  
 S. A. Maurer,  P. F. McLaughlin,  M. F. S. J. Menger,  J.-M. Mewes,  
 S. A. Mewes,  P. Morgante,  J. W. Mullinax,  T. S. Nguyen-Beck,  
 K. J. Oosterbaan,  G. Paran,  Alexander C. Paul,  Suranjan K. Paul,  
 F. Pavosevic,  Zheng Pei,  S. Prager,  E. I. Proynov,  E. Ramos,  B. Rana,  
 A. E. Rask,  A. Rettig,  R. M. Richard,  F. Rob,  E. Rossomme,  T. Scheele,  
 M. Scheurer,  M. Schneider,  N. Sergueev,  S. M. Sharada,  W. Skomorowski,  
 D. W. Small,  C. J. Stein,  Yu-Chuan Su,  E. J. Sundstrom,  Zhen Tao,  
 J. Thirman,  T. Tsuchimochi,  N. M. Tubman,  S. P. Veccham,  O. Vydrov,  
 J. Wenzel,  J. Witte,  A. Yamada,  Kun Yao,  S. Yeganeh,  S. R. Yost,  
 A. Zech,  Igor Ying Zhang,  Xing Zhang,  Yu Zhang,  D. Zuev,  
 A. Aspuru-Guzik,  A. T. Bell,  N. A. Besley,  K. B. Bravaya,  B. R. Brooks,  
 D. Casanova,  Jeng-Da Chai,  S. Coriani,  C. J. Cramer,  
 A. E. DePrince, III,  R. A. DiStasio Jr.,  A. Dreuw,  B. D. Dunietz,  
 T. R. Furlani,  W. A. Goddard III,  S. Grimme,  S. Hammes-Schiffer,  
 T. Head-Gordon,  W. J. Hehre,  Chao-Ping Hsu,  T.-C. Jagau,  Yousung Jung,  
 A. Klamt,  Jing Kong,  D. S. Lambrecht,  WanZhen Liang,  N. J. Mayhall,  
 C. W. McCurdy,  J. B. Neaton,  C. Ochsenfeld,  J. A. Parkhill,  R. Peverati,  
 V. A. Rassolov,  Yihan Shao,  L. V. Slipchenko,  T. Stauch,  R. P. Steele,  
 J. E. Subotnik,  A. J. W. Thom,  A. Tkatchenko,  D. G. Truhlar,  
 T. Van Voorhis,  T. A. Wesolowski,  K. B. Whaley,  H. L. Woodcock III,  
 P. M. Zimmerman,  S. Faraji,  P. M. W. Gill,  M. Head-Gordon,  
 J. M. Herbert,  A. I. Krylov

 Contributors to earlier versions of Q-Chem not listed above: 
 R. D. Adamson,  B. Austin,  R. Baer,  J. Baker,  G. J. O. Beran,  
 K. Brandhorst,  S. T. Brown,  E. F. C. Byrd,  A. K. Chakraborty,  
 G. K. L. Chan,  Chun-Min Chang,  Yunqing Chen,  C.-L. Cheng,  
 Siu Hung Chien,  D. M. Chipman,  D. L. Crittenden,  H. Dachsel,  
 R. J. Doerksen,  A. D. Dutoi,  R. G. Edgar,  J. Fosso-Tande,  
 L. Fusti-Molnar,  D. Ghosh,  A. Ghysels,  A. Golubeva-Zadorozhnaya,  
 J. Gonthier,  M. S. Gordon,  S. R. Gwaltney,  G. Hawkins,  J. E. Herr,  
 A. Heyden,  S. Hirata,  E. G. Hohenstein,  G. Kedziora,  F. J. Keil,  
 C. Kelley,  Jihan Kim,  R. A. King,  R. Z. Khaliullin,  P. P. Korambath,  
 W. Kurlancheek,  A. Laurent,  A. M. Lee,  M. S. Lee,  S. V. Levchenko,  
 Ching Yeh Lin,  D. Liotard,  E. Livshits,  R. C. Lochan,  I. Lotan,  
 L. A. Martinez-Martinez,  P. E. Maslen,  N. Nair,  D. P. O'Neill,  
 D. Neuhauser,  E. Neuscamman,  C. M. Oana,  R. Olivares-Amaya,  R. Olson,  
 T. M. Perrine,  B. Peters,  P. A. Pieniazek,  A. Prociuk,  Y. M. Rhee,  
 J. Ritchie,  M. A. Rohrdanz,  E. Rosta,  N. J. Russ,  H. F. Schaefer III,  
 M. W. Schmidt,  N. E. Schultz,  S. Sharma,  N. Shenvi,  C. D. Sherrill,  
 A. C. Simmonett,  A. Sodt,  T. Stein,  D. Stuck,  K. S. Thanthiriwatte,  
 V. Vanovschi,  L. Vogt,  Tao Wang,  A. Warshel,  M. A. Watson,  
 C. F. Williams,  Q. Wu,  X. Xu,  Jun Yang,  W. Zhang,  Yan Zhao

 Please cite Q-Chem as follows:
 Y. Shao et al., Mol. Phys. 113, 184-215 (2015)
 DOI: 10.1080/00268976.2014.952696

 Q-Chem 5.4.0 for Intel X86 EM64T Linux

 Parts of Q-Chem use Armadillo 9.800.1 (Horizon Scraper).
 http://arma.sourceforge.net/

 Q-Chem begins on Sun Sep 24 15:07:14 2023  

 Host: 
0

     Scratch files written to ./qchem1221941//
 May1621 |scratch|qcdevops|jenkins|workspace|build_RNUM    
 Parallel job on  1  processors
 Processing $rem in /cm/shared/apps/spack/cpu/opt/spack/linux-centos8-zen2/gcc-10.2.0/qchem-5.4-akfmr7b3t57bfs6qan3padb2wnb2i7cl/config/preferences:
 Processing $rem in /home/rramji/.qchemrc:
 Symmetry turned off for PCM/SM12/SMD calculation
 Core orbitals will be frozen

 Checking the input file for inconsistencies... 	...done.

 Q-Chem warning in module forms1/BasisType.C, line 2236:

 You are not using the predefined 5D/6D in this basis set.


--------------------------------------------------------------
User input:
--------------------------------------------------------------
$molecule
0 1
C	-0.359354	-0.280867	-0.215368
S	0.150346	0.326833	1.365132
C	1.203046	1.581433	0.689532
C	0.282046	0.483733	-1.200768
C	1.130546	1.495133	-0.708868
H	0.130546	0.303233	-2.275268
H	1.696746	2.170033	-1.367968
C	-0.102654	-1.736667	-0.215368
H	0.961046	-1.549667	-0.214868
H	-0.026454	-2.169267	0.771232
H	0.020646	-2.436767	-1.028368
H	1.769046	2.256133	1.340632
$end

$rem
JOBTYPE		SP
EXCHANGE	HF
CORRELATION	pRIMP2
BASIS		cc-pvtz
METHOD		rimp2
AUX_BASIS	rimp2-cc-pvtz
SOLVENT_METHOD	PCM
PURECART	11111
SYMMETRY	false
MEM_TOTAL	110000
SCF_CONVERGENCE = 6
THRESH=10
GUI = 2
$end



$solvent
dielectric 4.90
$end
--------------------------------------------------------------
 ----------------------------------------------------------------
             Standard Nuclear Orientation (Angstroms)
    I     Atom           X                Y                Z
 ----------------------------------------------------------------
    1      C      -0.3593540000    -0.2808670000    -0.2153680000
    2      S       0.1503460000     0.3268330000     1.3651320000
    3      C       1.2030460000     1.5814330000     0.6895320000
    4      C       0.2820460000     0.4837330000    -1.2007680000
    5      C       1.1305460000     1.4951330000    -0.7088680000
    6      H       0.1305460000     0.3032330000    -2.2752680000
    7      H       1.6967460000     2.1700330000    -1.3679680000
    8      C      -0.1026540000    -1.7366670000    -0.2153680000
    9      H       0.9610460000    -1.5496670000    -0.2148680000
   10      H      -0.0264540000    -2.1692670000     0.7712320000
   11      H       0.0206460000    -2.4367670000    -1.0283680000
   12      H       1.7690460000     2.2561330000     1.3406320000
 ----------------------------------------------------------------
 Nuclear Repulsion Energy =         275.04805458 hartrees
 There are       26 alpha and       26 beta electrons
 Requested basis set is cc-pVTZ
 There are 98 shells and 268 basis functions

 Total QAlloc Memory Limit 110000 MB
 Mega-Array Size       188 MB
 MEM_STATIC part       192 MB
 Discretize the solute cavity surface with Lebedev spheres
	Using 110 Lebedev grid points for each H atom
	Using 194 Lebedev grid points for other atoms
	Atomic van der Waals radii will be scaled by 1.20
 Remove points where switching function is < 1.0e-08
 Keep 850 surface tesserae and discard 974 interior tesserae
 Molecular Surface Area = 136.179 Angst**2

                       Distance Matrix (Angstroms)
             C (  1)   S (  2)   C (  3)   C (  4)   C (  5)   H (  6)
   S (  2)  1.768353
   C (  3)  2.593858  1.771619
   C (  4)  1.402505  2.574064  2.372008
   C (  5)  2.370131  2.574333  1.402935  1.408846
   H (  6)  2.196443  3.640530  3.402072  1.100038  2.207767
   H (  7)  3.400433  3.641233  2.196246  2.207474  1.100221  2.600215
   C (  8)  1.478259  2.611517  3.678788  2.459509  3.494117  2.908395
   H (  9)  1.831204  2.583580  3.268071  2.359609  3.089267  2.892787
   H ( 10)  2.156445  2.571865  3.947923  3.319995  4.117909  3.926712
   H ( 11)  2.335225  3.658299  4.527160  2.937239  4.098023  3.012381
   H ( 12)  3.658906  2.518529  1.095220  3.436755  2.277554  4.424165
             H (  7)   C (  8)   H (  9)   H ( 10)   H ( 11)
   C (  8)  4.452935
   H (  9)  3.963214  1.080012
   H ( 10)  5.135671  1.079967  1.526910
   H ( 11)  4.913985  1.079959  1.527443  1.819982
   H ( 12)  2.710932  4.676200  4.190055  4.809595  5.540070
 
 Requested basis set is rimp2-cc-pVTZ
 There are 207 shells and 707 basis functions
 A cutoff of  1.0D-10 yielded   4493 shell pairs
 There are     33823 function pairs (     43733 Cartesian)
 Smallest overlap matrix eigenvalue = 1.78E-04

 Scale SEOQF with 1.000000e-01/1.000000e-01/1.000000e-01

 Standard Electronic Orientation quadrupole field applied
 Nucleus-field energy     =     0.0000000002 hartrees
 Guess from superposition of atomic densities
 Warning:  Energy on first SCF cycle will be non-variational
 SAD guess density has 52.000000 electrons

 -----------------------------------------------------------------------
  General SCF calculation program by
  Eric Jon Sundstrom, Paul Horn, Yuezhi Mao, Dmitri Zuev, Alec White,
  David Stuck, Shaama M.S., Shane Yost, Joonho Lee, David Small,
  Daniel Levine, Susi Lehtola, Hugh Burton, Evgeny Epifanovsky,
  Bang C. Huynh
 -----------------------------------------------------------------------
 Hartree-Fock
 using 64 threads for integral computing
 -------------------------------------------------------
 OpenMP Integral computing Module                
 Release: version 1.0, May 2013, Q-Chem Inc. Pittsburgh 
 -------------------------------------------------------
 A restricted SCF calculation will be
 performed using DIIS
 SCF converges when DIIS error is below 1.0e-06
 ---------------------------------------
  Cycle       Energy         DIIS error
 ---------------------------------------
    1    -592.6609730147      3.26e-02  
    2    -590.2555619251      2.18e-03  
    3    -590.3169999967      7.94e-04  
    4    -590.3240097824      3.71e-04  
    5    -590.3258314166      7.05e-05  
    6    -590.3259667817      2.94e-05  
    7    -590.3260033295      1.53e-05  
    8    -590.3260145324      5.76e-06  
    9    -590.3260165660      3.00e-06  
   10    -590.3260168289      9.62e-07  Convergence criterion met
 ---------------------------------------
 SCF time:   CPU 522.16s  wall 10.00s 

************** Final PCM Free Energy Summary **************
 G_electrostatic  =      -0.00562585 hartree =      -3.53027226 kcal/mol
 G_cavitation     =       0.00000000 hartree =       0.00000000 kcal/mol
 G_dispersion     =       0.00000000 hartree =       0.00000000 kcal/mol
 G_repulsion      =       0.00000000 hartree =       0.00000000 kcal/mol
 --------------------------------------------------
 Non-electrostatic Free Energy =       0.00000000 hartree =       0.00000000 kcal/mol
 Total                         =      -0.00562585 hartree =      -3.53027226 kcal/mol
 --------------------------------------------------
 SCF Energy (H0 + V/2)                       =    -590.32601683 
 Solute Internal Energy (H0)                 =    -590.32039098 
 Total Free Energy (H0 + V/2 + non-elec)     =    -590.32601683 hartree
                                             = -370435.16653783 kcal/mol
***********************************************************

 SCF   energy in the final basis set =     -590.3260168289
 Total energy in the final basis set =     -590.3260168289


 --------------------------------------------------------------
  Generalized many-body perturbation theory program
  by Joonho Lee, Fazle Rob, Xintian Feng, Evgeny Epifanovsky

 No regularization used 
 (reg. param. = 0.0000e+00)
  (P|Q)^-1/2 Time:  CPU 6.35 s  wall 0.10 s

 In RI-MP2 calculation: 
 # of frozen core orbitals: 10

 Components of the RIMP2 correlation energy:
        aaaa    correlation energy =        -0.1268628904 a.u.
        abab    correlation energy =        -0.7571366418 a.u.
        bbbb    correlation energy =        -0.1268628904 a.u.
        non-Brillouin singles      =        -0.0000000000 a.u.
        total same-spin energy     =        -0.2537257807 a.u.
        total opposite-spin energy =        -0.7571366418 a.u.

 Total  RIMP2   correlation energy =        -1.0108624225 a.u.
        RIMP2         total energy =      -591.3368792514 a.u.

 RI-MP2 Energy Time:  CPU 26.40 s  wall 0.46 s
 
 --------------------------------------------------------------
 
                    Orbital Energies (a.u.)
 --------------------------------------------------------------
 
 Alpha MOs
 -- Occupied --
-91.9777 -11.2798 -11.2736 -11.2455 -11.2416 -11.2224  -8.9782  -6.6590
 -6.6584  -6.6580  -1.1679  -1.0397  -0.9767  -0.9089  -0.7616  -0.7257
 -0.6728  -0.5953  -0.5681  -0.5632  -0.5346  -0.4946  -0.4654  -0.4545
 -0.3468  -0.2961
 -- Virtual --
  0.0739   0.1568   0.1590   0.1816   0.1852   0.1985   0.2138   0.2149
  0.2283   0.2536   0.3104   0.3255   0.3420   0.3638   0.3807   0.4012
  0.4403   0.4456   0.4488   0.4585   0.4772   0.5006   0.5234   0.5333
  0.5440   0.5575   0.5683   0.5771   0.5940   0.5992   0.6033   0.6226
  0.6237   0.6377   0.6400   0.6675   0.6934   0.6980   0.7375   0.7613
  0.7651   0.7869   0.8008   0.8480   0.8621   0.8848   0.8986   0.9032
  0.9741   0.9911   1.0394   1.0548   1.0790   1.1088   1.1226   1.1425
  1.1461   1.1614   1.1693   1.1752   1.2151   1.2411   1.2610   1.2739
  1.2917   1.3209   1.3275   1.3516   1.3849   1.4061   1.4230   1.4387
  1.4556   1.4621   1.4889   1.5126   1.5204   1.5439   1.5679   1.5780
  1.5997   1.6231   1.6426   1.6505   1.7320   1.7386   1.7774   1.7988
  1.8490   1.8659   1.8940   1.9098   1.9629   1.9754   2.0138   2.1106
  2.1432   2.1653   2.1859   2.2153   2.2373   2.2753   2.3345   2.3833
  2.4212   2.4502   2.4765   2.5152   2.5419   2.5742   2.6675   2.6728
  2.6884   2.7069   2.7206   2.7508   2.7703   2.7827   2.8411   2.8600
  2.8742   2.9138   2.9412   2.9754   3.0115   3.0295   3.0417   3.0485
  3.0845   3.1083   3.1271   3.1376   3.1645   3.1806   3.2093   3.2241
  3.2468   3.2667   3.2790   3.2912   3.3241   3.3288   3.3548   3.3753
  3.3987   3.4211   3.4380   3.4525   3.4610   3.4746   3.4869   3.4977
  3.5142   3.5167   3.5428   3.5817   3.5973   3.6269   3.6434   3.6741
  3.6825   3.6925   3.7307   3.7521   3.7717   3.7883   3.8273   3.8694
  3.8859   3.9046   3.9130   3.9364   3.9581   3.9672   3.9827   4.0010
  4.0359   4.0595   4.0823   4.1134   4.1478   4.1691   4.1843   4.2055
  4.2431   4.2726   4.2882   4.3050   4.3200   4.3768   4.4053   4.4192
  4.4383   4.4577   4.4769   4.5303   4.5547   4.5719   4.6301   4.6414
  4.6607   4.6959   4.7385   4.7654   4.7828   4.8179   4.8389   4.8660
  4.8743   5.0085   5.0305   5.0451   5.0862   5.0986   5.1772   5.2076
  5.2658   5.2909   5.3561   5.4348   5.4647   5.4896   5.5426   5.5883
  5.5949   5.7025   5.7727   5.8258   5.8567   5.9568   5.9627   6.0244
  6.0781   6.3301   6.3975   6.4655   6.5700   9.6505  11.6154  12.6185
 13.9346  14.0443
 --------------------------------------------------------------
 
          Ground-State Mulliken Net Atomic Charges

     Atom                 Charge (a.u.)
  ----------------------------------------
      1 C                    -0.052106
      2 S                     0.009004
      3 C                    -0.204385
      4 C                    -0.162928
      5 C                    -0.212476
      6 H                     0.180623
      7 H                     0.187637
      8 C                    -0.353959
      9 H                     0.130924
     10 H                     0.123530
     11 H                     0.147253
     12 H                     0.206883
  ----------------------------------------
  Sum of atomic charges =     0.000000

 -----------------------------------------------------------------
                    Cartesian Multipole Moments
 -----------------------------------------------------------------
    Charge (ESU x 10^10)
                 0.0000
    Dipole Moment (Debye)
         X       2.1072      Y      -0.0397      Z      -1.0755
       Tot       2.3661
    Quadrupole Moments (Debye-Ang)
        XX     -45.0271     XY       3.2545     YY     -40.6297
        XZ       0.2306     YZ       1.0448     ZZ     -41.1898
    Octopole Moments (Debye-Ang^2)
       XXX     -47.1130    XXY      -4.7716    XYY      -3.7926
       YYY     -32.7029    XXZ      -5.1881    XYZ       2.9543
       YYZ      -5.4130    XZZ     -11.2547    YZZ      -7.6685
       ZZZ     -28.9885
    Hexadecapole Moments (Debye-Ang^3)
      XXXX    -184.9470   XXXY     -68.1656   XXYY     -84.7815
      XYYY     -64.1652   YYYY    -405.2310   XXXZ      -1.7290
      XXYZ      -2.3385   XYYZ       1.9291   YYYZ      -7.3287
      XXZZ     -78.7699   XYZZ     -13.4247   YYZZ    -107.1507
      XZZZ      -0.6081   YZZZ     -13.8636   ZZZZ    -304.2649
 -----------------------------------------------------------------
 Total job time:  11.77s(wall), 606.14s(cpu) 
 Sun Sep 24 15:07:26 2023

        *************************************************************
        *                                                           *
        *  Thank you very much for using Q-Chem.  Have a nice day.  *
        *                                                           *
        *************************************************************


0 sent ACK to 0 
now end server 0 ... 
cleanup process ... done
remove work dirs ./qchem1221941.0 -- ./qchem1221941.0
rm -rf ./qchem1221941.0
rm -rf ./qchem1221941
