You are running Q-Chem version: 5.4.0

#
# job setting
#
local host:  exp-4-23
current dir: /expanse/lustre/projects/csd626/rramji/aromodel/PNDIT/Hydrogenated_Impropers_Test
input file:  Dimethyl_Naphthalene_Dicarboximide_Phi_60_Theta_190_Thiophene_Hydrogenated_Improper.qcin
output file: 
nprocs     : 1
nthreads   : 64
#
# qchem installation setting
#
QC:          /cm/shared/apps/spack/cpu/opt/spack/linux-centos8-zen2/gcc-10.2.0/qchem-5.4-akfmr7b3t57bfs6qan3padb2wnb2i7cl
QCAUX:       /cm/shared/apps/spack/cpu/opt/spack/linux-centos8-zen2/gcc-10.2.0/qchem-5.4-akfmr7b3t57bfs6qan3padb2wnb2i7cl/qcaux
QCPROG:      /cm/shared/apps/spack/cpu/opt/spack/linux-centos8-zen2/gcc-10.2.0/qchem-5.4-akfmr7b3t57bfs6qan3padb2wnb2i7cl/exe/qcprog.exe
QCPROG_S:    /cm/shared/apps/spack/cpu/opt/spack/linux-centos8-zen2/gcc-10.2.0/qchem-5.4-akfmr7b3t57bfs6qan3padb2wnb2i7cl/exe/qcprog.exe_s
PARALLEL:    -DPARALLEL
QCMPI:       mpich
#
# qchem directory setting
#
qcrun:       qchem3820025
QCSCRATCH:   .
QCLOCALSCR:  
QCTMPDIR:    .
QCFILEPREF:  ./qchem3820025
QCSAVEDIR:   
workdirs:    ./qchem3820025
workdir0:    ./qchem3820025
partmpdirs =  
#
# parallel setting
#
QCRSH:           ssh
QCMPI:           mpich
QCMPIRUN:        /cm/shared/apps/spack/cpu/opt/spack/linux-centos8-zen2/gcc-10.2.0/qchem-5.4-akfmr7b3t57bfs6qan3padb2wnb2i7cl/bin/mpi/mpirun_qchem
QCMACHINEFILE:   ./qchem3820025/hostfile
exp-4-23

#
# env setting
#
exported envs:   QC QCAUX QCSCRATCH QCRUNNAME QCFILEPREF QCPROG QCPROG_S GUIFILE

Running Job 1 of 1 Dimethyl_Naphthalene_Dicarboximide_Phi_60_Theta_190_Thiophene_Hydrogenated_Improper.qcin
qchem Dimethyl_Naphthalene_Dicarboximide_Phi_60_Theta_190_Thiophene_Hydrogenated_Improper.qcin_3820025.0 ./qchem3820025/ 1
/cm/shared/apps/spack/cpu/opt/spack/linux-centos8-zen2/gcc-10.2.0/qchem-5.4-akfmr7b3t57bfs6qan3padb2wnb2i7cl/bin/mpi/mpirun_qchem -machinefile ./qchem3820025/hostfile -np 1 /cm/shared/apps/spack/cpu/opt/spack/linux-centos8-zen2/gcc-10.2.0/qchem-5.4-akfmr7b3t57bfs6qan3padb2wnb2i7cl/exe/qcprog.exe Dimethyl_Naphthalene_Dicarboximide_Phi_60_Theta_190_Thiophene_Hydrogenated_Improper.qcin_3820025.0 ./qchem3820025/

Process 0 of 1 is on exp-4-23 - thread support 0
initial socket setup ...start
initial socket setup ...done 
now start server 0 ... 
                  Welcome to Q-Chem
     A Quantum Leap Into The Future Of Chemistry


 Q-Chem 5.4, Q-Chem, Inc., Pleasanton, CA (2021)

 License issued to: University of California, San Diego (site)

 E. Epifanovsky,  A. T. B. Gilbert,  Xintian Feng,  Joonho Lee,  Yuezhi Mao,  
 N. Mardirossian,  P. Pokhilko,  A. White,  M. Wormit,  M. P. Coons,  
 A. L. Dempwolff,  Zhengting Gan,  D. Hait,  P. R. Horn,  L. D. Jacobson,  
 I. Kaliman,  J. Kussmann,  A. W. Lange,  Ka Un Lao,  D. S. Levine,  Jie Liu,  
 S. C. McKenzie,  A. F. Morrison,  K. Nanda,  F. Plasser,  D. R. Rehn,  
 M. L. Vidal,  Zhi-Qiang You,  Ying Zhu,  B. Alam,  B. Albrecht,  
 A. Aldossary,  E. Alguire,  J. H. Andersen,  D. Barton,  K. Begam,  A. Behn,  
 Y. A. Bernard,  E. J. Berquist,  H. Burton,  A. Carreras,  K. Carter-Fenk,  
 R. Chakraborty,  A. D. Chien,  K. D. Closser,  V. Cofer-Shabica,  
 S. Dasgupta,  Jia Deng,  M. de Wergifosse,  M. Diedenhofen,  Hainam Do,  
 S. Ehlert,  Po-Tung Fang,  S. Fatehi,  Qingguo Feng,  J. Gayvert,  
 Qinghui Ge,  G. Gidofalvi,  M. Goldey,  J. Gomes,  C. Gonzalez-Espinoza,  
 S. Gulania,  A. Gunina,  M. W. D. Hanson-Heine,  P. H. P. Harbach,  
 A. W. Hauser,  M. F. Herbst,  M. Hernandez Vera,  M. Hodecker,  
 Z. C. Holden,  S. Houck,  Xunkun Huang,  Kerwin Hui,  B. C. Huynh,  
 M. Ivanov,  Hyunjun Ji,  Hanjie Jiang,  B. Kaduk,  S. Kaehler,  
 K. Khistyaev,  Jaehoon Kim,  P. Klunzinger,  Z. Koczor-Benda,  
 Joong Hoon Koh,  D. Kosenkov,  L. Koulias,  T. Kowalczyk,  C. M. Krauter,  
 K. Kue,  A. Kunitsa,  T. Kus,  A. Landau,  K. V. Lawler,  D. Lefrancois,  
 S. Lehtola,  Rain Li,  Yi-Pei Li,  Jiashu Liang,  M. Liebenthal,  
 Hung-Hsuan Lin,  You-Sheng Lin,  Fenglai Liu,  Kuan-Yu Liu,  
 M. Loipersberger,  A. Luenser,  A. Manjanath,  P. Manohar,  E. Mansoor,  
 S. F. Manzer,  Shan-Ping Mao,  A. V. Marenich,  T. Markovich,  S. Mason,  
 S. A. Maurer,  P. F. McLaughlin,  M. F. S. J. Menger,  J.-M. Mewes,  
 S. A. Mewes,  P. Morgante,  J. W. Mullinax,  T. S. Nguyen-Beck,  
 K. J. Oosterbaan,  G. Paran,  Alexander C. Paul,  Suranjan K. Paul,  
 F. Pavosevic,  Zheng Pei,  S. Prager,  E. I. Proynov,  E. Ramos,  B. Rana,  
 A. E. Rask,  A. Rettig,  R. M. Richard,  F. Rob,  E. Rossomme,  T. Scheele,  
 M. Scheurer,  M. Schneider,  N. Sergueev,  S. M. Sharada,  W. Skomorowski,  
 D. W. Small,  C. J. Stein,  Yu-Chuan Su,  E. J. Sundstrom,  Zhen Tao,  
 J. Thirman,  T. Tsuchimochi,  N. M. Tubman,  S. P. Veccham,  O. Vydrov,  
 J. Wenzel,  J. Witte,  A. Yamada,  Kun Yao,  S. Yeganeh,  S. R. Yost,  
 A. Zech,  Igor Ying Zhang,  Xing Zhang,  Yu Zhang,  D. Zuev,  
 A. Aspuru-Guzik,  A. T. Bell,  N. A. Besley,  K. B. Bravaya,  B. R. Brooks,  
 D. Casanova,  Jeng-Da Chai,  S. Coriani,  C. J. Cramer,  
 A. E. DePrince, III,  R. A. DiStasio Jr.,  A. Dreuw,  B. D. Dunietz,  
 T. R. Furlani,  W. A. Goddard III,  S. Grimme,  S. Hammes-Schiffer,  
 T. Head-Gordon,  W. J. Hehre,  Chao-Ping Hsu,  T.-C. Jagau,  Yousung Jung,  
 A. Klamt,  Jing Kong,  D. S. Lambrecht,  WanZhen Liang,  N. J. Mayhall,  
 C. W. McCurdy,  J. B. Neaton,  C. Ochsenfeld,  J. A. Parkhill,  R. Peverati,  
 V. A. Rassolov,  Yihan Shao,  L. V. Slipchenko,  T. Stauch,  R. P. Steele,  
 J. E. Subotnik,  A. J. W. Thom,  A. Tkatchenko,  D. G. Truhlar,  
 T. Van Voorhis,  T. A. Wesolowski,  K. B. Whaley,  H. L. Woodcock III,  
 P. M. Zimmerman,  S. Faraji,  P. M. W. Gill,  M. Head-Gordon,  
 J. M. Herbert,  A. I. Krylov

 Contributors to earlier versions of Q-Chem not listed above: 
 R. D. Adamson,  B. Austin,  R. Baer,  J. Baker,  G. J. O. Beran,  
 K. Brandhorst,  S. T. Brown,  E. F. C. Byrd,  A. K. Chakraborty,  
 G. K. L. Chan,  Chun-Min Chang,  Yunqing Chen,  C.-L. Cheng,  
 Siu Hung Chien,  D. M. Chipman,  D. L. Crittenden,  H. Dachsel,  
 R. J. Doerksen,  A. D. Dutoi,  R. G. Edgar,  J. Fosso-Tande,  
 L. Fusti-Molnar,  D. Ghosh,  A. Ghysels,  A. Golubeva-Zadorozhnaya,  
 J. Gonthier,  M. S. Gordon,  S. R. Gwaltney,  G. Hawkins,  J. E. Herr,  
 A. Heyden,  S. Hirata,  E. G. Hohenstein,  G. Kedziora,  F. J. Keil,  
 C. Kelley,  Jihan Kim,  R. A. King,  R. Z. Khaliullin,  P. P. Korambath,  
 W. Kurlancheek,  A. Laurent,  A. M. Lee,  M. S. Lee,  S. V. Levchenko,  
 Ching Yeh Lin,  D. Liotard,  E. Livshits,  R. C. Lochan,  I. Lotan,  
 L. A. Martinez-Martinez,  P. E. Maslen,  N. Nair,  D. P. O'Neill,  
 D. Neuhauser,  E. Neuscamman,  C. M. Oana,  R. Olivares-Amaya,  R. Olson,  
 T. M. Perrine,  B. Peters,  P. A. Pieniazek,  A. Prociuk,  Y. M. Rhee,  
 J. Ritchie,  M. A. Rohrdanz,  E. Rosta,  N. J. Russ,  H. F. Schaefer III,  
 M. W. Schmidt,  N. E. Schultz,  S. Sharma,  N. Shenvi,  C. D. Sherrill,  
 A. C. Simmonett,  A. Sodt,  T. Stein,  D. Stuck,  K. S. Thanthiriwatte,  
 V. Vanovschi,  L. Vogt,  Tao Wang,  A. Warshel,  M. A. Watson,  
 C. F. Williams,  Q. Wu,  X. Xu,  Jun Yang,  W. Zhang,  Yan Zhao

 Please cite Q-Chem as follows:
 Y. Shao et al., Mol. Phys. 113, 184-215 (2015)
 DOI: 10.1080/00268976.2014.952696

 Q-Chem 5.4.0 for Intel X86 EM64T Linux

 Parts of Q-Chem use Armadillo 9.800.1 (Horizon Scraper).
 http://arma.sourceforge.net/

 Q-Chem begins on Sun Sep 24 15:12:14 2023  

 Host: 
0

     Scratch files written to ./qchem3820025//
 May1621 |scratch|qcdevops|jenkins|workspace|build_RNUM    
 Parallel job on  1  processors
 Processing $rem in /cm/shared/apps/spack/cpu/opt/spack/linux-centos8-zen2/gcc-10.2.0/qchem-5.4-akfmr7b3t57bfs6qan3padb2wnb2i7cl/config/preferences:
 Processing $rem in /home/rramji/.qchemrc:
 Symmetry turned off for PCM/SM12/SMD calculation
 Core orbitals will be frozen

 Checking the input file for inconsistencies... 	...done.

 Q-Chem warning in module forms1/BasisType.C, line 2236:

 You are not using the predefined 5D/6D in this basis set.


--------------------------------------------------------------
User input:
--------------------------------------------------------------
$molecule
0 1
C	-0.443662	-0.140188	-0.212630
S	0.243138	0.256612	1.367870
C	1.661438	1.075412	0.692270
C	0.420538	0.358912	-1.198030
C	1.563838	1.019112	-0.706130
H	0.216438	0.241112	-2.272530
H	2.326738	1.459712	-1.365230
C	-0.443662	-1.618388	-0.212630
H	-1.507162	-1.618988	-0.400730
H	-0.272262	-2.057688	-1.184230
H	-0.584662	-2.329388	0.588070
H	2.424038	1.515912	1.343370
$end

$rem
JOBTYPE		SP
EXCHANGE	HF
CORRELATION	pRIMP2
BASIS		cc-pvtz
METHOD		rimp2
AUX_BASIS	rimp2-cc-pvtz
SOLVENT_METHOD	PCM
PURECART	11111
SYMMETRY	false
MEM_TOTAL	110000
SCF_CONVERGENCE = 6
THRESH=10
GUI = 2
$end



$solvent
dielectric 4.90
$end
--------------------------------------------------------------
 ----------------------------------------------------------------
             Standard Nuclear Orientation (Angstroms)
    I     Atom           X                Y                Z
 ----------------------------------------------------------------
    1      C      -0.4436620000    -0.1401880000    -0.2126300000
    2      S       0.2431380000     0.2566120000     1.3678700000
    3      C       1.6614380000     1.0754120000     0.6922700000
    4      C       0.4205380000     0.3589120000    -1.1980300000
    5      C       1.5638380000     1.0191120000    -0.7061300000
    6      H       0.2164380000     0.2411120000    -2.2725300000
    7      H       2.3267380000     1.4597120000    -1.3652300000
    8      C      -0.4436620000    -1.6183880000    -0.2126300000
    9      H      -1.5071620000    -1.6189880000    -0.4007300000
   10      H      -0.2722620000    -2.0576880000    -1.1842300000
   11      H      -0.5846620000    -2.3293880000     0.5880700000
   12      H       2.4240380000     1.5159120000     1.3433700000
 ----------------------------------------------------------------
 Nuclear Repulsion Energy =         275.15438492 hartrees
 There are       26 alpha and       26 beta electrons
 Requested basis set is cc-pVTZ
 There are 98 shells and 268 basis functions

 Total QAlloc Memory Limit 110000 MB
 Mega-Array Size       188 MB
 MEM_STATIC part       192 MB
 Discretize the solute cavity surface with Lebedev spheres
	Using 110 Lebedev grid points for each H atom
	Using 194 Lebedev grid points for other atoms
	Atomic van der Waals radii will be scaled by 1.20
 Remove points where switching function is < 1.0e-08
 Keep 867 surface tesserae and discard 957 interior tesserae
 Molecular Surface Area = 135.525 Angst**2

                       Distance Matrix (Angstroms)
             C (  1)   S (  2)   C (  3)   C (  4)   C (  5)   H (  6)
   S (  2)  1.768368
   C (  3)  2.593834  1.771565
   C (  4)  1.402482  2.574059  2.372012
   C (  5)  2.370142  2.574321  1.402932  1.408888
   H (  6)  2.196431  3.640531  3.402076  1.100038  2.207800
   H (  7)  3.400483  3.641246  2.196273  2.207559  1.100253  2.600297
   C (  8)  1.478200  2.546625  3.536502  2.372250  3.351120  2.852483
   H (  9)  1.831192  3.115986  4.300519  2.874683  4.060035  3.151889
   H ( 10)  2.156430  3.483509  4.132404  2.513984  3.614767  2.589924
   H ( 11)  2.335294  2.825020  4.080256  3.380464  4.183713  3.928392
   H ( 12)  3.658894  2.518484  1.095231  3.436768  2.277544  4.424177
             H (  7)   C (  8)   H (  9)   H ( 10)   H ( 11)
   C (  8)  4.298640
   H (  9)  5.010733  1.080007
   H ( 10)  4.377175  1.079986  1.526862
   H ( 11)  5.162258  1.080057  1.527547  1.820017
   H ( 12)  2.710930  4.524232  5.322012  5.140954  4.940555
 
 Requested basis set is rimp2-cc-pVTZ
 There are 207 shells and 707 basis functions
 A cutoff of  1.0D-10 yielded   4461 shell pairs
 There are     33551 function pairs (     43383 Cartesian)
 Smallest overlap matrix eigenvalue = 1.81E-04

 Scale SEOQF with 1.000000e-01/1.000000e-01/1.000000e-01

 Standard Electronic Orientation quadrupole field applied
 Nucleus-field energy     =    -0.0000000008 hartrees
 Guess from superposition of atomic densities
 Warning:  Energy on first SCF cycle will be non-variational
 SAD guess density has 52.000000 electrons

 -----------------------------------------------------------------------
  General SCF calculation program by
  Eric Jon Sundstrom, Paul Horn, Yuezhi Mao, Dmitri Zuev, Alec White,
  David Stuck, Shaama M.S., Shane Yost, Joonho Lee, David Small,
  Daniel Levine, Susi Lehtola, Hugh Burton, Evgeny Epifanovsky,
  Bang C. Huynh
 -----------------------------------------------------------------------
 Hartree-Fock
 using 64 threads for integral computing
 -------------------------------------------------------
 OpenMP Integral computing Module                
 Release: version 1.0, May 2013, Q-Chem Inc. Pittsburgh 
 -------------------------------------------------------
 A restricted SCF calculation will be
 performed using DIIS
 SCF converges when DIIS error is below 1.0e-06
 ---------------------------------------
  Cycle       Energy         DIIS error
 ---------------------------------------
    1    -592.6583918020      3.26e-02  
    2    -590.2202997854      2.14e-03  
    3    -590.2804795659      7.66e-04  
    4    -590.2873737639      3.85e-04  
    5    -590.2893124915      7.96e-05  
    6    -590.2894962605      4.44e-05  
    7    -590.2895619491      1.97e-05  
    8    -590.2895897992      1.12e-05  
    9    -590.2895959414      4.05e-06  
   10    -590.2895967906      1.93e-06  
   11    -590.2895969901      8.06e-07  Convergence criterion met
 ---------------------------------------
 SCF time:   CPU 548.50s  wall 9.00s 

************** Final PCM Free Energy Summary **************
 G_electrostatic  =      -0.00608137 hartree =      -3.81611972 kcal/mol
 G_cavitation     =       0.00000000 hartree =       0.00000000 kcal/mol
 G_dispersion     =       0.00000000 hartree =       0.00000000 kcal/mol
 G_repulsion      =       0.00000000 hartree =       0.00000000 kcal/mol
 --------------------------------------------------
 Non-electrostatic Free Energy =       0.00000000 hartree =       0.00000000 kcal/mol
 Total                         =      -0.00608137 hartree =      -3.81611972 kcal/mol
 --------------------------------------------------
 SCF Energy (H0 + V/2)                       =    -590.28959699 
 Solute Internal Energy (H0)                 =    -590.28351562 
 Total Free Energy (H0 + V/2 + non-elec)     =    -590.28959699 hartree
                                             = -370412.31274408 kcal/mol
***********************************************************

 SCF   energy in the final basis set =     -590.2895969901
 Total energy in the final basis set =     -590.2895969901


 --------------------------------------------------------------
  Generalized many-body perturbation theory program
  by Joonho Lee, Fazle Rob, Xintian Feng, Evgeny Epifanovsky

 No regularization used 
 (reg. param. = 0.0000e+00)
  (P|Q)^-1/2 Time:  CPU 6.62 s  wall 0.11 s

 In RI-MP2 calculation: 
 # of frozen core orbitals: 10

 Components of the RIMP2 correlation energy:
        aaaa    correlation energy =        -0.1278500641 a.u.
        abab    correlation energy =        -0.7606558938 a.u.
        bbbb    correlation energy =        -0.1278500641 a.u.
        non-Brillouin singles      =        -0.0000000000 a.u.
        total same-spin energy     =        -0.2557001282 a.u.
        total opposite-spin energy =        -0.7606558938 a.u.

 Total  RIMP2   correlation energy =        -1.0163560221 a.u.
        RIMP2         total energy =      -591.3059530122 a.u.

 RI-MP2 Energy Time:  CPU 29.67 s  wall 0.52 s
 
 --------------------------------------------------------------
 
                    Orbital Energies (a.u.)
 --------------------------------------------------------------
 
 Alpha MOs
 -- Occupied --
-91.9738 -11.2907 -11.2572 -11.2483 -11.2447 -11.2096  -8.9746  -6.6553
 -6.6544  -6.6542  -1.1670  -1.0352  -0.9781  -0.9087  -0.7630  -0.7282
 -0.6697  -0.5916  -0.5662  -0.5560  -0.5462  -0.4981  -0.4592  -0.4254
 -0.3430  -0.2924
 -- Virtual --
  0.0609   0.1551   0.1582   0.1820   0.1859   0.1949   0.2126   0.2190
  0.2318   0.2355   0.2903   0.3288   0.3490   0.3598   0.3943   0.3974
  0.4365   0.4432   0.4546   0.4607   0.4781   0.5142   0.5212   0.5378
  0.5422   0.5534   0.5726   0.5835   0.6024   0.6034   0.6137   0.6166
  0.6224   0.6382   0.6463   0.6648   0.6858   0.7127   0.7387   0.7564
  0.7762   0.7872   0.8235   0.8473   0.8766   0.8792   0.9000   0.9018
  0.9585   1.0076   1.0420   1.0571   1.0815   1.0943   1.1190   1.1212
  1.1414   1.1616   1.1732   1.2020   1.2158   1.2472   1.2546   1.2765
  1.3052   1.3158   1.3333   1.3671   1.3789   1.4029   1.4207   1.4299
  1.4484   1.4634   1.4896   1.5070   1.5140   1.5430   1.5788   1.5851
  1.6157   1.6283   1.6360   1.6653   1.7162   1.7497   1.7658   1.7982
  1.8257   1.8723   1.8962   1.9045   1.9561   1.9686   2.0309   2.1045
  2.1245   2.1663   2.1983   2.2113   2.2194   2.2566   2.3121   2.3650
  2.4233   2.4598   2.4921   2.5314   2.5574   2.6092   2.6261   2.6720
  2.6944   2.7028   2.7255   2.7284   2.7729   2.7848   2.8100   2.8545
  2.8935   2.9045   2.9347   2.9539   2.9839   3.0118   3.0371   3.0863
  3.1032   3.1192   3.1377   3.1439   3.1738   3.1759   3.2208   3.2222
  3.2400   3.2676   3.2794   3.3068   3.3175   3.3348   3.3488   3.3893
  3.3905   3.4187   3.4291   3.4385   3.4626   3.4715   3.4735   3.5022
  3.5165   3.5576   3.5613   3.5914   3.6035   3.6350   3.6506   3.6565
  3.6787   3.7001   3.7511   3.7551   3.7845   3.8119   3.8286   3.8640
  3.9041   3.9085   3.9294   3.9529   3.9620   3.9687   3.9891   3.9997
  4.0247   4.0640   4.0962   4.1209   4.1348   4.1601   4.1792   4.2170
  4.2444   4.2617   4.2781   4.3032   4.3430   4.3718   4.3777   4.4210
  4.4364   4.4573   4.5083   4.5142   4.5422   4.5935   4.6143   4.6515
  4.6933   4.7226   4.7351   4.7605   4.8065   4.8401   4.8623   4.8813
  4.9085   4.9947   5.0140   5.0253   5.0812   5.1208   5.1542   5.1760
  5.2223   5.2895   5.3563   5.4233   5.4344   5.4915   5.5345   5.5822
  5.6333   5.7175   5.7794   5.8258   5.8346   5.9469   5.9527   6.0560
  6.0784   6.3486   6.3847   6.4612   6.5561   9.6405  11.6586  12.6222
 13.8486  14.0032
 --------------------------------------------------------------
 
          Ground-State Mulliken Net Atomic Charges

     Atom                 Charge (a.u.)
  ----------------------------------------
      1 C                    -0.113381
      2 S                     0.011934
      3 C                    -0.159754
      4 C                    -0.096468
      5 C                    -0.235954
      6 H                     0.188052
      7 H                     0.185666
      8 C                    -0.390414
      9 H                     0.124114
     10 H                     0.123923
     11 H                     0.155393
     12 H                     0.206888
  ----------------------------------------
  Sum of atomic charges =     0.000000

 -----------------------------------------------------------------
                    Cartesian Multipole Moments
 -----------------------------------------------------------------
    Charge (ESU x 10^10)
                 0.0000
    Dipole Moment (Debye)
         X       1.7050      Y      -0.1188      Z      -1.2647
       Tot       2.1261
    Quadrupole Moments (Debye-Ang)
        XX     -41.3223     XY       5.4663     YY     -43.8837
        XZ       0.6884     YZ       0.3393     ZZ     -40.6313
    Octopole Moments (Debye-Ang^2)
       XXX     -45.7272    XXY       4.5456    XYY     -16.9019
       YYY     -19.7483    XXZ      -2.1329    XYZ       3.1077
       YYZ      -4.7805    XZZ     -13.3725    YZZ      -3.0453
       ZZZ     -30.4364
    Hexadecapole Moments (Debye-Ang^3)
      XXXX    -277.1228   XXXY     -69.6660   XXYY     -88.1159
      XYYY     -87.3264   YYYY    -294.2999   XXXZ      -1.3847
      XXYZ      -1.0447   XYYZ      -1.2940   YYYZ     -17.2050
      XXZZ     -89.4781   XYZZ     -18.6966   YYZZ     -96.4343
      XZZZ      -5.5464   YZZZ     -14.5480   ZZZZ    -303.5018
 -----------------------------------------------------------------
 Total job time:  12.37s(wall), 616.73s(cpu) 
 Sun Sep 24 15:12:26 2023

        *************************************************************
        *                                                           *
        *  Thank you very much for using Q-Chem.  Have a nice day.  *
        *                                                           *
        *************************************************************


0 sent ACK to 0 
now end server 0 ... 
cleanup process ... done
remove work dirs ./qchem3820025.0 -- ./qchem3820025.0
rm -rf ./qchem3820025.0
rm -rf ./qchem3820025
