You are running Q-Chem version: 5.4.0

#
# job setting
#
local host:  exp-2-32
current dir: /home/rramji/csd626/aromodel/PNDIT/Hydrogenated_Impropers_Test
input file:  Dimethyl_Naphthalene_Dicarboximide_Phi_0_Theta_20_Thiophene_Hydrogenated_Improper.qcin
output file: 
nprocs     : 1
nthreads   : 64
#
# qchem installation setting
#
QC:          /cm/shared/apps/spack/cpu/opt/spack/linux-centos8-zen2/gcc-10.2.0/qchem-5.4-akfmr7b3t57bfs6qan3padb2wnb2i7cl
QCAUX:       /cm/shared/apps/spack/cpu/opt/spack/linux-centos8-zen2/gcc-10.2.0/qchem-5.4-akfmr7b3t57bfs6qan3padb2wnb2i7cl/qcaux
QCPROG:      /cm/shared/apps/spack/cpu/opt/spack/linux-centos8-zen2/gcc-10.2.0/qchem-5.4-akfmr7b3t57bfs6qan3padb2wnb2i7cl/exe/qcprog.exe
QCPROG_S:    /cm/shared/apps/spack/cpu/opt/spack/linux-centos8-zen2/gcc-10.2.0/qchem-5.4-akfmr7b3t57bfs6qan3padb2wnb2i7cl/exe/qcprog.exe_s
PARALLEL:    -DPARALLEL
QCMPI:       mpich
#
# qchem directory setting
#
qcrun:       qchem1693423
QCSCRATCH:   .
QCLOCALSCR:  
QCTMPDIR:    .
QCFILEPREF:  ./qchem1693423
QCSAVEDIR:   
workdirs:    ./qchem1693423
workdir0:    ./qchem1693423
partmpdirs =  
#
# parallel setting
#
QCRSH:           ssh
QCMPI:           mpich
QCMPIRUN:        /cm/shared/apps/spack/cpu/opt/spack/linux-centos8-zen2/gcc-10.2.0/qchem-5.4-akfmr7b3t57bfs6qan3padb2wnb2i7cl/bin/mpi/mpirun_qchem
QCMACHINEFILE:   ./qchem1693423/hostfile
exp-2-32

#
# env setting
#
exported envs:   QC QCAUX QCSCRATCH QCRUNNAME QCFILEPREF QCPROG QCPROG_S GUIFILE

Running Job 1 of 1 Dimethyl_Naphthalene_Dicarboximide_Phi_0_Theta_20_Thiophene_Hydrogenated_Improper.qcin
qchem Dimethyl_Naphthalene_Dicarboximide_Phi_0_Theta_20_Thiophene_Hydrogenated_Improper.qcin_1693423.0 ./qchem1693423/ 1
/cm/shared/apps/spack/cpu/opt/spack/linux-centos8-zen2/gcc-10.2.0/qchem-5.4-akfmr7b3t57bfs6qan3padb2wnb2i7cl/bin/mpi/mpirun_qchem -machinefile ./qchem1693423/hostfile -np 1 /cm/shared/apps/spack/cpu/opt/spack/linux-centos8-zen2/gcc-10.2.0/qchem-5.4-akfmr7b3t57bfs6qan3padb2wnb2i7cl/exe/qcprog.exe Dimethyl_Naphthalene_Dicarboximide_Phi_0_Theta_20_Thiophene_Hydrogenated_Improper.qcin_1693423.0 ./qchem1693423/

Process 0 of 1 is on exp-2-32 - thread support 0
initial socket setup ...start
initial socket setup ...done 
now start server 0 ... 
                  Welcome to Q-Chem
     A Quantum Leap Into The Future Of Chemistry


 Q-Chem 5.4, Q-Chem, Inc., Pleasanton, CA (2021)

 License issued to: University of California, San Diego (site)

 E. Epifanovsky,  A. T. B. Gilbert,  Xintian Feng,  Joonho Lee,  Yuezhi Mao,  
 N. Mardirossian,  P. Pokhilko,  A. White,  M. Wormit,  M. P. Coons,  
 A. L. Dempwolff,  Zhengting Gan,  D. Hait,  P. R. Horn,  L. D. Jacobson,  
 I. Kaliman,  J. Kussmann,  A. W. Lange,  Ka Un Lao,  D. S. Levine,  Jie Liu,  
 S. C. McKenzie,  A. F. Morrison,  K. Nanda,  F. Plasser,  D. R. Rehn,  
 M. L. Vidal,  Zhi-Qiang You,  Ying Zhu,  B. Alam,  B. Albrecht,  
 A. Aldossary,  E. Alguire,  J. H. Andersen,  D. Barton,  K. Begam,  A. Behn,  
 Y. A. Bernard,  E. J. Berquist,  H. Burton,  A. Carreras,  K. Carter-Fenk,  
 R. Chakraborty,  A. D. Chien,  K. D. Closser,  V. Cofer-Shabica,  
 S. Dasgupta,  Jia Deng,  M. de Wergifosse,  M. Diedenhofen,  Hainam Do,  
 S. Ehlert,  Po-Tung Fang,  S. Fatehi,  Qingguo Feng,  J. Gayvert,  
 Qinghui Ge,  G. Gidofalvi,  M. Goldey,  J. Gomes,  C. Gonzalez-Espinoza,  
 S. Gulania,  A. Gunina,  M. W. D. Hanson-Heine,  P. H. P. Harbach,  
 A. W. Hauser,  M. F. Herbst,  M. Hernandez Vera,  M. Hodecker,  
 Z. C. Holden,  S. Houck,  Xunkun Huang,  Kerwin Hui,  B. C. Huynh,  
 M. Ivanov,  Hyunjun Ji,  Hanjie Jiang,  B. Kaduk,  S. Kaehler,  
 K. Khistyaev,  Jaehoon Kim,  P. Klunzinger,  Z. Koczor-Benda,  
 Joong Hoon Koh,  D. Kosenkov,  L. Koulias,  T. Kowalczyk,  C. M. Krauter,  
 K. Kue,  A. Kunitsa,  T. Kus,  A. Landau,  K. V. Lawler,  D. Lefrancois,  
 S. Lehtola,  Rain Li,  Yi-Pei Li,  Jiashu Liang,  M. Liebenthal,  
 Hung-Hsuan Lin,  You-Sheng Lin,  Fenglai Liu,  Kuan-Yu Liu,  
 M. Loipersberger,  A. Luenser,  A. Manjanath,  P. Manohar,  E. Mansoor,  
 S. F. Manzer,  Shan-Ping Mao,  A. V. Marenich,  T. Markovich,  S. Mason,  
 S. A. Maurer,  P. F. McLaughlin,  M. F. S. J. Menger,  J.-M. Mewes,  
 S. A. Mewes,  P. Morgante,  J. W. Mullinax,  T. S. Nguyen-Beck,  
 K. J. Oosterbaan,  G. Paran,  Alexander C. Paul,  Suranjan K. Paul,  
 F. Pavosevic,  Zheng Pei,  S. Prager,  E. I. Proynov,  E. Ramos,  B. Rana,  
 A. E. Rask,  A. Rettig,  R. M. Richard,  F. Rob,  E. Rossomme,  T. Scheele,  
 M. Scheurer,  M. Schneider,  N. Sergueev,  S. M. Sharada,  W. Skomorowski,  
 D. W. Small,  C. J. Stein,  Yu-Chuan Su,  E. J. Sundstrom,  Zhen Tao,  
 J. Thirman,  T. Tsuchimochi,  N. M. Tubman,  S. P. Veccham,  O. Vydrov,  
 J. Wenzel,  J. Witte,  A. Yamada,  Kun Yao,  S. Yeganeh,  S. R. Yost,  
 A. Zech,  Igor Ying Zhang,  Xing Zhang,  Yu Zhang,  D. Zuev,  
 A. Aspuru-Guzik,  A. T. Bell,  N. A. Besley,  K. B. Bravaya,  B. R. Brooks,  
 D. Casanova,  Jeng-Da Chai,  S. Coriani,  C. J. Cramer,  
 A. E. DePrince, III,  R. A. DiStasio Jr.,  A. Dreuw,  B. D. Dunietz,  
 T. R. Furlani,  W. A. Goddard III,  S. Grimme,  S. Hammes-Schiffer,  
 T. Head-Gordon,  W. J. Hehre,  Chao-Ping Hsu,  T.-C. Jagau,  Yousung Jung,  
 A. Klamt,  Jing Kong,  D. S. Lambrecht,  WanZhen Liang,  N. J. Mayhall,  
 C. W. McCurdy,  J. B. Neaton,  C. Ochsenfeld,  J. A. Parkhill,  R. Peverati,  
 V. A. Rassolov,  Yihan Shao,  L. V. Slipchenko,  T. Stauch,  R. P. Steele,  
 J. E. Subotnik,  A. J. W. Thom,  A. Tkatchenko,  D. G. Truhlar,  
 T. Van Voorhis,  T. A. Wesolowski,  K. B. Whaley,  H. L. Woodcock III,  
 P. M. Zimmerman,  S. Faraji,  P. M. W. Gill,  M. Head-Gordon,  
 J. M. Herbert,  A. I. Krylov

 Contributors to earlier versions of Q-Chem not listed above: 
 R. D. Adamson,  B. Austin,  R. Baer,  J. Baker,  G. J. O. Beran,  
 K. Brandhorst,  S. T. Brown,  E. F. C. Byrd,  A. K. Chakraborty,  
 G. K. L. Chan,  Chun-Min Chang,  Yunqing Chen,  C.-L. Cheng,  
 Siu Hung Chien,  D. M. Chipman,  D. L. Crittenden,  H. Dachsel,  
 R. J. Doerksen,  A. D. Dutoi,  R. G. Edgar,  J. Fosso-Tande,  
 L. Fusti-Molnar,  D. Ghosh,  A. Ghysels,  A. Golubeva-Zadorozhnaya,  
 J. Gonthier,  M. S. Gordon,  S. R. Gwaltney,  G. Hawkins,  J. E. Herr,  
 A. Heyden,  S. Hirata,  E. G. Hohenstein,  G. Kedziora,  F. J. Keil,  
 C. Kelley,  Jihan Kim,  R. A. King,  R. Z. Khaliullin,  P. P. Korambath,  
 W. Kurlancheek,  A. Laurent,  A. M. Lee,  M. S. Lee,  S. V. Levchenko,  
 Ching Yeh Lin,  D. Liotard,  E. Livshits,  R. C. Lochan,  I. Lotan,  
 L. A. Martinez-Martinez,  P. E. Maslen,  N. Nair,  D. P. O'Neill,  
 D. Neuhauser,  E. Neuscamman,  C. M. Oana,  R. Olivares-Amaya,  R. Olson,  
 T. M. Perrine,  B. Peters,  P. A. Pieniazek,  A. Prociuk,  Y. M. Rhee,  
 J. Ritchie,  M. A. Rohrdanz,  E. Rosta,  N. J. Russ,  H. F. Schaefer III,  
 M. W. Schmidt,  N. E. Schultz,  S. Sharma,  N. Shenvi,  C. D. Sherrill,  
 A. C. Simmonett,  A. Sodt,  T. Stein,  D. Stuck,  K. S. Thanthiriwatte,  
 V. Vanovschi,  L. Vogt,  Tao Wang,  A. Warshel,  M. A. Watson,  
 C. F. Williams,  Q. Wu,  X. Xu,  Jun Yang,  W. Zhang,  Yan Zhao

 Please cite Q-Chem as follows:
 Y. Shao et al., Mol. Phys. 113, 184-215 (2015)
 DOI: 10.1080/00268976.2014.952696

 Q-Chem 5.4.0 for Intel X86 EM64T Linux

 Parts of Q-Chem use Armadillo 9.800.1 (Horizon Scraper).
 http://arma.sourceforge.net/

 Q-Chem begins on Thu Oct 19 09:24:20 2023  

 Host: 
0

     Scratch files written to ./qchem1693423//
 May1621 |scratch|qcdevops|jenkins|workspace|build_RNUM    
 Parallel job on  1  processors
 Processing $rem in /cm/shared/apps/spack/cpu/opt/spack/linux-centos8-zen2/gcc-10.2.0/qchem-5.4-akfmr7b3t57bfs6qan3padb2wnb2i7cl/config/preferences:
 Processing $rem in /home/rramji/.qchemrc:
 Symmetry turned off for PCM/SM12/SMD calculation
 Core orbitals will be frozen

 Checking the input file for inconsistencies... 	...done.

 Q-Chem warning in module forms1/BasisType.C, line 2236:

 You are not using the predefined 5D/6D in this basis set.


--------------------------------------------------------------
User input:
--------------------------------------------------------------
$molecule
0 1
C 0.0000 0.0000 0.0000
S -0.0002 0.7932 1.5805
C -0.0002 2.4309 0.9049
C -0.0002 0.9980 -0.9854
C -0.0003 2.3182 -0.4935
H -0.0001 0.7623 -2.0599
H -0.0003 3.1992 -1.1526
C -0.0000 -1.4782 -0.0000
H 1.0147 -1.4788 0.3699
H -0.3375 -1.9175 0.9271
H 0.2779 -2.1892 -0.7640
H -0.0003 3.3116 1.5560
$end

$rem
JOBTYPE         SP
EXCHANGE        HF
CORRELATION     pRIMP2
BASIS           cc-pvtz
METHOD          rimp2
AUX_BASIS       rimp2-cc-pvtz
SOLVENT_METHOD  PCM
PURECART        11111
SYMMETRY        false
MEM_TOTAL       110000
SCF_CONVERGENCE = 6
THRESH=10
GUI = 2
$end
--------------------------------------------------------------
 ----------------------------------------------------------------
             Standard Nuclear Orientation (Angstroms)
    I     Atom           X                Y                Z
 ----------------------------------------------------------------
    1      C       0.0000000000     0.0000000000     0.0000000000
    2      S      -0.0002000000     0.7932000000     1.5805000000
    3      C      -0.0002000000     2.4309000000     0.9049000000
    4      C      -0.0002000000     0.9980000000    -0.9854000000
    5      C      -0.0003000000     2.3182000000    -0.4935000000
    6      H      -0.0001000000     0.7623000000    -2.0599000000
    7      H      -0.0003000000     3.1992000000    -1.1526000000
    8      C       0.0000000000    -1.4782000000     0.0000000000
    9      H       1.0147000000    -1.4788000000     0.3699000000
   10      H      -0.3375000000    -1.9175000000     0.9271000000
   11      H       0.2779000000    -2.1892000000    -0.7640000000
   12      H      -0.0003000000     3.3116000000     1.5560000000
 ----------------------------------------------------------------
 Nuclear Repulsion Energy =         270.45972176 hartrees
 There are       26 alpha and       26 beta electrons
 Requested basis set is cc-pVTZ
 There are 98 shells and 268 basis functions

 Total QAlloc Memory Limit 110000 MB
 Mega-Array Size       188 MB
 MEM_STATIC part       192 MB
 Discretize the solute cavity surface with Lebedev spheres
	Using 110 Lebedev grid points for each H atom
	Using 194 Lebedev grid points for other atoms
	Atomic van der Waals radii will be scaled by 1.20
 Remove points where switching function is < 1.0e-08
 Keep 893 surface tesserae and discard 931 interior tesserae
 Molecular Surface Area = 138.462 Angst**2

                       Distance Matrix (Angstroms)
             C (  1)   S (  2)   C (  3)   C (  4)   C (  5)   H (  6)
   S (  2)  1.768374
   C (  3)  2.593862  1.771580
   C (  4)  1.402504  2.574060  2.372011
   C (  5)  2.370146  2.574316  1.402934  1.408863
   H (  6)  2.196426  3.640531  3.402097  1.100048  2.207812
   H (  7)  3.400495  3.641246  2.196268  2.207541  1.100261  2.600322
   C (  8)  1.478200  2.767172  4.012469  2.665067  3.828341  3.043522
   H (  9)  1.831199  2.767229  4.074555  3.000233  4.024039  3.457785
   H ( 10)  2.156438  2.808665  4.361519  3.503080  4.480286  4.027075
   H ( 11)  2.335278  3.803778  4.920152  3.206961  4.524071  3.235428
   H ( 12)  3.658938  2.518519  1.095246  3.436780  2.277563  4.424213
             H (  7)   C (  8)   H (  9)   H ( 10)   H ( 11)
   C (  8)  4.817319
   H (  9)  5.023138  1.080020
   H ( 10)  5.533487  1.080002  1.526884
   H ( 11)  5.409553  1.080021  1.527505  1.819988
   H ( 12)  2.710931  5.036201  5.038352  5.277566  5.976504
 
 Requested basis set is rimp2-cc-pVTZ
 There are 207 shells and 707 basis functions
 A cutoff of  1.0D-10 yielded   4354 shell pairs
 There are     32598 function pairs (     42132 Cartesian)
 Smallest overlap matrix eigenvalue = 1.02E-04

 Scale SEOQF with 1.000000e+00/1.000000e-01/1.000000e-01

 Standard Electronic Orientation quadrupole field applied
 Nucleus-field energy     =     0.0000000031 hartrees
 Guess from superposition of atomic densities
 Warning:  Energy on first SCF cycle will be non-variational
 SAD guess density has 52.000000 electrons

 -----------------------------------------------------------------------
  General SCF calculation program by
  Eric Jon Sundstrom, Paul Horn, Yuezhi Mao, Dmitri Zuev, Alec White,
  David Stuck, Shaama M.S., Shane Yost, Joonho Lee, David Small,
  Daniel Levine, Susi Lehtola, Hugh Burton, Evgeny Epifanovsky,
  Bang C. Huynh
 -----------------------------------------------------------------------
 Hartree-Fock
 using 64 threads for integral computing
 -------------------------------------------------------
 OpenMP Integral computing Module                
 Release: version 1.0, May 2013, Q-Chem Inc. Pittsburgh 
 -------------------------------------------------------
 A restricted SCF calculation will be
 performed using DIIS
 SCF converges when DIIS error is below 1.0e-06
 ---------------------------------------
  Cycle       Energy         DIIS error
 ---------------------------------------
    1    -592.5748560395      3.22e-02  
    2    -590.3045020434      2.21e-03  
    3    -590.3658649414      8.61e-04  
    4    -590.3734669082      3.99e-04  
    5    -590.3755257103      6.94e-05  
    6    -590.3756551767      3.19e-05  
    7    -590.3756865095      1.40e-05  
    8    -590.3756959591      5.59e-06  
    9    -590.3756973081      1.81e-06  
   10    -590.3756974295      6.40e-07  Convergence criterion met
 ---------------------------------------
 SCF time:   CPU 506.20s  wall 9.00s 

************** Final PCM Free Energy Summary **************
 G_electrostatic  =      -0.00782953 hartree =      -4.91310197 kcal/mol
 G_cavitation     =       0.00000000 hartree =       0.00000000 kcal/mol
 G_dispersion     =       0.00000000 hartree =       0.00000000 kcal/mol
 G_repulsion      =       0.00000000 hartree =       0.00000000 kcal/mol
 --------------------------------------------------
 Non-electrostatic Free Energy =       0.00000000 hartree =       0.00000000 kcal/mol
 Total                         =      -0.00782953 hartree =      -4.91310197 kcal/mol
 --------------------------------------------------
 SCF Energy (H0 + V/2)                       =    -590.37569743 
 Solute Internal Energy (H0)                 =    -590.36786790 
 Total Free Energy (H0 + V/2 + non-elec)     =    -590.37569743 hartree
                                             = -370466.34158526 kcal/mol
***********************************************************

 SCF   energy in the final basis set =     -590.3756974295
 Total energy in the final basis set =     -590.3756974295


 --------------------------------------------------------------
  Generalized many-body perturbation theory program
  by Joonho Lee, Fazle Rob, Xintian Feng, Evgeny Epifanovsky

 No regularization used 
 (reg. param. = 0.0000e+00)
  (P|Q)^-1/2 Time:  CPU 7.67 s  wall 0.13 s

 In RI-MP2 calculation: 
 # of frozen core orbitals: 10

 Components of the RIMP2 correlation energy:
        aaaa    correlation energy =        -0.1248369252 a.u.
        abab    correlation energy =        -0.7495562930 a.u.
        bbbb    correlation energy =        -0.1248369252 a.u.
        non-Brillouin singles      =        -0.0000000000 a.u.
        total same-spin energy     =        -0.2496738504 a.u.
        total opposite-spin energy =        -0.7495562930 a.u.

 Total  RIMP2   correlation energy =        -0.9992301434 a.u.
        RIMP2         total energy =      -591.3749275730 a.u.

 RI-MP2 Energy Time:  CPU 29.02 s  wall 0.53 s
 
 --------------------------------------------------------------
 
                    Orbital Energies (a.u.)
 --------------------------------------------------------------
 
 Alpha MOs
 -- Occupied --
-91.9800 -11.2917 -11.2637 -11.2431 -11.2307 -11.2260  -8.9799  -6.6609
 -6.6604  -6.6598  -1.1579  -1.0405  -0.9719  -0.9194  -0.7555  -0.7210
 -0.6712  -0.5959  -0.5648  -0.5599  -0.5382  -0.4976  -0.4766  -0.4573
 -0.3483  -0.2997
 -- Virtual --
  0.1107   0.1471   0.1618   0.1825   0.1915   0.2070   0.2121   0.2187
  0.2279   0.2508   0.3133   0.3432   0.3452   0.3668   0.3848   0.4161
  0.4262   0.4418   0.4556   0.4863   0.4995   0.5072   0.5261   0.5433
  0.5488   0.5558   0.5747   0.5843   0.5990   0.6089   0.6171   0.6217
  0.6278   0.6422   0.6503   0.6588   0.7019   0.7120   0.7435   0.7798
  0.7837   0.8047   0.8424   0.8474   0.8774   0.8832   0.8947   0.9450
  0.9598   0.9813   0.9962   1.0391   1.0631   1.0901   1.0985   1.1113
  1.1181   1.1649   1.1729   1.1740   1.2172   1.2323   1.2467   1.2678
  1.2821   1.3012   1.3420   1.3540   1.4011   1.4222   1.4335   1.4429
  1.4807   1.4967   1.5133   1.5228   1.5459   1.5536   1.5668   1.5846
  1.5994   1.6333   1.6523   1.6935   1.7023   1.7608   1.7682   1.7915
  1.8359   1.8807   1.9064   1.9280   1.9378   2.0204   2.0692   2.0763
  2.1515   2.1679   2.2278   2.2350   2.2546   2.2892   2.3322   2.4165
  2.4327   2.4433   2.4526   2.5366   2.5377   2.5983   2.6442   2.6558
  2.6926   2.7296   2.7351   2.7401   2.7520   2.7758   2.7964   2.8429
  2.8706   2.8900   2.9295   2.9626   2.9778   3.0181   3.0381   3.0447
  3.0580   3.1010   3.1128   3.1528   3.1691   3.2086   3.2168   3.2390
  3.2560   3.2825   3.2874   3.3074   3.3157   3.3501   3.3859   3.3888
  3.4021   3.4351   3.4387   3.4463   3.4526   3.4569   3.4745   3.4987
  3.5081   3.5173   3.5389   3.5560   3.5978   3.6122   3.6197   3.6536
  3.6903   3.7070   3.7296   3.7481   3.7622   3.7943   3.8217   3.8300
  3.8587   3.8851   3.9160   3.9240   3.9572   3.9677   3.9721   3.9898
  4.0083   4.0432   4.0632   4.0935   4.1345   4.1530   4.1643   4.2027
  4.2192   4.2530   4.2784   4.2832   4.3016   4.3511   4.3842   4.4019
  4.4094   4.4665   4.4858   4.5072   4.5435   4.5688   4.5828   4.6316
  4.6697   4.6977   4.7456   4.7577   4.8044   4.8215   4.8453   4.8507
  4.9577   5.0106   5.0276   5.0356   5.0746   5.1455   5.1717   5.1976
  5.2178   5.3015   5.3655   5.4375   5.4693   5.4962   5.5383   5.6058
  5.6232   5.6939   5.7986   5.8180   5.8657   5.9940   6.0452   6.0929
  6.1419   6.3409   6.4124   6.4885   6.7438   9.3987  11.3046  12.8780
 13.9154  14.3322
 --------------------------------------------------------------
 
          Ground-State Mulliken Net Atomic Charges

     Atom                 Charge (a.u.)
  ----------------------------------------
      1 C                     0.017069
      2 S                    -0.009691
      3 C                    -0.253322
      4 C                    -0.243750
      5 C                    -0.193893
      6 H                     0.190722
      7 H                     0.191965
      8 C                    -0.362309
      9 H                     0.139444
     10 H                     0.139696
     11 H                     0.171897
     12 H                     0.212170
  ----------------------------------------
  Sum of atomic charges =     0.000000

 -----------------------------------------------------------------
                    Cartesian Multipole Moments
 -----------------------------------------------------------------
    Charge (ESU x 10^10)
                -0.0000
    Dipole Moment (Debye)
         X       0.7353      Y      -0.8343      Z      -0.8583
       Tot       1.4048
    Quadrupole Moments (Debye-Ang)
        XX     -48.2584     XY      -1.2155     YY     -36.1601
        XZ      -0.2685     YZ       0.0549     ZZ     -42.2172
    Octopole Moments (Debye-Ang^2)
       XXX      -1.0434    XXY     -41.0479    XYY       1.6627
       YYY     -86.2575    XXZ     -17.8336    XYZ       0.7857
       YYZ     -11.8717    XZZ      -0.4819    YZZ     -27.9561
       ZZZ     -56.1710
    Hexadecapole Moments (Debye-Ang^3)
      XXXX     -65.1988   XXXY       1.7976   XXYY    -142.4072
      XYYY      -2.3622   YYYY    -597.9809   XXXZ       0.5645
      XXYZ     -18.1184   XYYZ      -1.9043   YYYZ     -29.4679
      XXZZ     -75.3514   XYZZ       0.7301   YYZZ    -140.9963
      XZZZ      -0.3061   YZZZ     -43.4351   ZZZZ    -342.8941
 -----------------------------------------------------------------
 Total job time:  12.39s(wall), 585.96s(cpu) 
 Thu Oct 19 09:24:32 2023

        *************************************************************
        *                                                           *
        *  Thank you very much for using Q-Chem.  Have a nice day.  *
        *                                                           *
        *************************************************************


0 sent ACK to 0 
now end server 0 ... 
cleanup process ... done
remove work dirs ./qchem1693423.0 -- ./qchem1693423.0
rm -rf ./qchem1693423.0
rm -rf ./qchem1693423
