You are running Q-Chem version: 5.4.0

#
# job setting
#
local host:  exp-4-23
current dir: /expanse/lustre/projects/csd626/rramji/aromodel/PNDIT/Hydrogenated_Impropers_Test
input file:  Dimethyl_Naphthalene_Dicarboximide_Phi_60_Theta_20_Thiophene_Hydrogenated_Improper.qcin
output file: 
nprocs     : 1
nthreads   : 64
#
# qchem installation setting
#
QC:          /cm/shared/apps/spack/cpu/opt/spack/linux-centos8-zen2/gcc-10.2.0/qchem-5.4-akfmr7b3t57bfs6qan3padb2wnb2i7cl
QCAUX:       /cm/shared/apps/spack/cpu/opt/spack/linux-centos8-zen2/gcc-10.2.0/qchem-5.4-akfmr7b3t57bfs6qan3padb2wnb2i7cl/qcaux
QCPROG:      /cm/shared/apps/spack/cpu/opt/spack/linux-centos8-zen2/gcc-10.2.0/qchem-5.4-akfmr7b3t57bfs6qan3padb2wnb2i7cl/exe/qcprog.exe
QCPROG_S:    /cm/shared/apps/spack/cpu/opt/spack/linux-centos8-zen2/gcc-10.2.0/qchem-5.4-akfmr7b3t57bfs6qan3padb2wnb2i7cl/exe/qcprog.exe_s
PARALLEL:    -DPARALLEL
QCMPI:       mpich
#
# qchem directory setting
#
qcrun:       qchem3817079
QCSCRATCH:   .
QCLOCALSCR:  
QCTMPDIR:    .
QCFILEPREF:  ./qchem3817079
QCSAVEDIR:   
workdirs:    ./qchem3817079
workdir0:    ./qchem3817079
partmpdirs =  
#
# parallel setting
#
QCRSH:           ssh
QCMPI:           mpich
QCMPIRUN:        /cm/shared/apps/spack/cpu/opt/spack/linux-centos8-zen2/gcc-10.2.0/qchem-5.4-akfmr7b3t57bfs6qan3padb2wnb2i7cl/bin/mpi/mpirun_qchem
QCMACHINEFILE:   ./qchem3817079/hostfile
exp-4-23

#
# env setting
#
exported envs:   QC QCAUX QCSCRATCH QCRUNNAME QCFILEPREF QCPROG QCPROG_S GUIFILE

Running Job 1 of 1 Dimethyl_Naphthalene_Dicarboximide_Phi_60_Theta_20_Thiophene_Hydrogenated_Improper.qcin
qchem Dimethyl_Naphthalene_Dicarboximide_Phi_60_Theta_20_Thiophene_Hydrogenated_Improper.qcin_3817079.0 ./qchem3817079/ 1
/cm/shared/apps/spack/cpu/opt/spack/linux-centos8-zen2/gcc-10.2.0/qchem-5.4-akfmr7b3t57bfs6qan3padb2wnb2i7cl/bin/mpi/mpirun_qchem -machinefile ./qchem3817079/hostfile -np 1 /cm/shared/apps/spack/cpu/opt/spack/linux-centos8-zen2/gcc-10.2.0/qchem-5.4-akfmr7b3t57bfs6qan3padb2wnb2i7cl/exe/qcprog.exe Dimethyl_Naphthalene_Dicarboximide_Phi_60_Theta_20_Thiophene_Hydrogenated_Improper.qcin_3817079.0 ./qchem3817079/

Process 0 of 1 is on exp-4-23 - thread support 0
initial socket setup ...start
initial socket setup ...done 
now start server 0 ... 
                  Welcome to Q-Chem
     A Quantum Leap Into The Future Of Chemistry


 Q-Chem 5.4, Q-Chem, Inc., Pleasanton, CA (2021)

 License issued to: University of California, San Diego (site)

 E. Epifanovsky,  A. T. B. Gilbert,  Xintian Feng,  Joonho Lee,  Yuezhi Mao,  
 N. Mardirossian,  P. Pokhilko,  A. White,  M. Wormit,  M. P. Coons,  
 A. L. Dempwolff,  Zhengting Gan,  D. Hait,  P. R. Horn,  L. D. Jacobson,  
 I. Kaliman,  J. Kussmann,  A. W. Lange,  Ka Un Lao,  D. S. Levine,  Jie Liu,  
 S. C. McKenzie,  A. F. Morrison,  K. Nanda,  F. Plasser,  D. R. Rehn,  
 M. L. Vidal,  Zhi-Qiang You,  Ying Zhu,  B. Alam,  B. Albrecht,  
 A. Aldossary,  E. Alguire,  J. H. Andersen,  D. Barton,  K. Begam,  A. Behn,  
 Y. A. Bernard,  E. J. Berquist,  H. Burton,  A. Carreras,  K. Carter-Fenk,  
 R. Chakraborty,  A. D. Chien,  K. D. Closser,  V. Cofer-Shabica,  
 S. Dasgupta,  Jia Deng,  M. de Wergifosse,  M. Diedenhofen,  Hainam Do,  
 S. Ehlert,  Po-Tung Fang,  S. Fatehi,  Qingguo Feng,  J. Gayvert,  
 Qinghui Ge,  G. Gidofalvi,  M. Goldey,  J. Gomes,  C. Gonzalez-Espinoza,  
 S. Gulania,  A. Gunina,  M. W. D. Hanson-Heine,  P. H. P. Harbach,  
 A. W. Hauser,  M. F. Herbst,  M. Hernandez Vera,  M. Hodecker,  
 Z. C. Holden,  S. Houck,  Xunkun Huang,  Kerwin Hui,  B. C. Huynh,  
 M. Ivanov,  Hyunjun Ji,  Hanjie Jiang,  B. Kaduk,  S. Kaehler,  
 K. Khistyaev,  Jaehoon Kim,  P. Klunzinger,  Z. Koczor-Benda,  
 Joong Hoon Koh,  D. Kosenkov,  L. Koulias,  T. Kowalczyk,  C. M. Krauter,  
 K. Kue,  A. Kunitsa,  T. Kus,  A. Landau,  K. V. Lawler,  D. Lefrancois,  
 S. Lehtola,  Rain Li,  Yi-Pei Li,  Jiashu Liang,  M. Liebenthal,  
 Hung-Hsuan Lin,  You-Sheng Lin,  Fenglai Liu,  Kuan-Yu Liu,  
 M. Loipersberger,  A. Luenser,  A. Manjanath,  P. Manohar,  E. Mansoor,  
 S. F. Manzer,  Shan-Ping Mao,  A. V. Marenich,  T. Markovich,  S. Mason,  
 S. A. Maurer,  P. F. McLaughlin,  M. F. S. J. Menger,  J.-M. Mewes,  
 S. A. Mewes,  P. Morgante,  J. W. Mullinax,  T. S. Nguyen-Beck,  
 K. J. Oosterbaan,  G. Paran,  Alexander C. Paul,  Suranjan K. Paul,  
 F. Pavosevic,  Zheng Pei,  S. Prager,  E. I. Proynov,  E. Ramos,  B. Rana,  
 A. E. Rask,  A. Rettig,  R. M. Richard,  F. Rob,  E. Rossomme,  T. Scheele,  
 M. Scheurer,  M. Schneider,  N. Sergueev,  S. M. Sharada,  W. Skomorowski,  
 D. W. Small,  C. J. Stein,  Yu-Chuan Su,  E. J. Sundstrom,  Zhen Tao,  
 J. Thirman,  T. Tsuchimochi,  N. M. Tubman,  S. P. Veccham,  O. Vydrov,  
 J. Wenzel,  J. Witte,  A. Yamada,  Kun Yao,  S. Yeganeh,  S. R. Yost,  
 A. Zech,  Igor Ying Zhang,  Xing Zhang,  Yu Zhang,  D. Zuev,  
 A. Aspuru-Guzik,  A. T. Bell,  N. A. Besley,  K. B. Bravaya,  B. R. Brooks,  
 D. Casanova,  Jeng-Da Chai,  S. Coriani,  C. J. Cramer,  
 A. E. DePrince, III,  R. A. DiStasio Jr.,  A. Dreuw,  B. D. Dunietz,  
 T. R. Furlani,  W. A. Goddard III,  S. Grimme,  S. Hammes-Schiffer,  
 T. Head-Gordon,  W. J. Hehre,  Chao-Ping Hsu,  T.-C. Jagau,  Yousung Jung,  
 A. Klamt,  Jing Kong,  D. S. Lambrecht,  WanZhen Liang,  N. J. Mayhall,  
 C. W. McCurdy,  J. B. Neaton,  C. Ochsenfeld,  J. A. Parkhill,  R. Peverati,  
 V. A. Rassolov,  Yihan Shao,  L. V. Slipchenko,  T. Stauch,  R. P. Steele,  
 J. E. Subotnik,  A. J. W. Thom,  A. Tkatchenko,  D. G. Truhlar,  
 T. Van Voorhis,  T. A. Wesolowski,  K. B. Whaley,  H. L. Woodcock III,  
 P. M. Zimmerman,  S. Faraji,  P. M. W. Gill,  M. Head-Gordon,  
 J. M. Herbert,  A. I. Krylov

 Contributors to earlier versions of Q-Chem not listed above: 
 R. D. Adamson,  B. Austin,  R. Baer,  J. Baker,  G. J. O. Beran,  
 K. Brandhorst,  S. T. Brown,  E. F. C. Byrd,  A. K. Chakraborty,  
 G. K. L. Chan,  Chun-Min Chang,  Yunqing Chen,  C.-L. Cheng,  
 Siu Hung Chien,  D. M. Chipman,  D. L. Crittenden,  H. Dachsel,  
 R. J. Doerksen,  A. D. Dutoi,  R. G. Edgar,  J. Fosso-Tande,  
 L. Fusti-Molnar,  D. Ghosh,  A. Ghysels,  A. Golubeva-Zadorozhnaya,  
 J. Gonthier,  M. S. Gordon,  S. R. Gwaltney,  G. Hawkins,  J. E. Herr,  
 A. Heyden,  S. Hirata,  E. G. Hohenstein,  G. Kedziora,  F. J. Keil,  
 C. Kelley,  Jihan Kim,  R. A. King,  R. Z. Khaliullin,  P. P. Korambath,  
 W. Kurlancheek,  A. Laurent,  A. M. Lee,  M. S. Lee,  S. V. Levchenko,  
 Ching Yeh Lin,  D. Liotard,  E. Livshits,  R. C. Lochan,  I. Lotan,  
 L. A. Martinez-Martinez,  P. E. Maslen,  N. Nair,  D. P. O'Neill,  
 D. Neuhauser,  E. Neuscamman,  C. M. Oana,  R. Olivares-Amaya,  R. Olson,  
 T. M. Perrine,  B. Peters,  P. A. Pieniazek,  A. Prociuk,  Y. M. Rhee,  
 J. Ritchie,  M. A. Rohrdanz,  E. Rosta,  N. J. Russ,  H. F. Schaefer III,  
 M. W. Schmidt,  N. E. Schultz,  S. Sharma,  N. Shenvi,  C. D. Sherrill,  
 A. C. Simmonett,  A. Sodt,  T. Stein,  D. Stuck,  K. S. Thanthiriwatte,  
 V. Vanovschi,  L. Vogt,  Tao Wang,  A. Warshel,  M. A. Watson,  
 C. F. Williams,  Q. Wu,  X. Xu,  Jun Yang,  W. Zhang,  Yan Zhao

 Please cite Q-Chem as follows:
 Y. Shao et al., Mol. Phys. 113, 184-215 (2015)
 DOI: 10.1080/00268976.2014.952696

 Q-Chem 5.4.0 for Intel X86 EM64T Linux

 Parts of Q-Chem use Armadillo 9.800.1 (Horizon Scraper).
 http://arma.sourceforge.net/

 Q-Chem begins on Sun Sep 24 15:07:21 2023  

 Host: 
0

     Scratch files written to ./qchem3817079//
 May1621 |scratch|qcdevops|jenkins|workspace|build_RNUM    
 Parallel job on  1  processors
 Processing $rem in /cm/shared/apps/spack/cpu/opt/spack/linux-centos8-zen2/gcc-10.2.0/qchem-5.4-akfmr7b3t57bfs6qan3padb2wnb2i7cl/config/preferences:
 Processing $rem in /home/rramji/.qchemrc:
 Symmetry turned off for PCM/SM12/SMD calculation
 Core orbitals will be frozen

 Checking the input file for inconsistencies... 	...done.

 Q-Chem warning in module forms1/BasisType.C, line 2236:

 You are not using the predefined 5D/6D in this basis set.


--------------------------------------------------------------
User input:
--------------------------------------------------------------
$molecule
0 1
C	-0.453870	-0.140188	-0.217210
S	0.232930	0.256612	1.363290
C	1.651230	1.075412	0.687690
C	0.410330	0.358912	-1.202610
C	1.553630	1.019112	-0.710710
H	0.206230	0.241112	-2.277110
H	2.316530	1.459712	-1.369810
C	-0.453870	-1.618388	-0.217210
H	0.560830	-1.618988	0.152690
H	-0.791370	-2.057688	0.709890
H	-0.175970	-2.329388	-0.981210
H	2.413830	1.515912	1.338790
$end

$rem
JOBTYPE		SP
EXCHANGE	HF
CORRELATION	pRIMP2
BASIS		cc-pvtz
METHOD		rimp2
AUX_BASIS	rimp2-cc-pvtz
SOLVENT_METHOD	PCM
PURECART	11111
SYMMETRY	false
MEM_TOTAL	110000
SCF_CONVERGENCE = 6
THRESH=10
GUI = 2
$end



$solvent
dielectric 4.90
$end
--------------------------------------------------------------
 ----------------------------------------------------------------
             Standard Nuclear Orientation (Angstroms)
    I     Atom           X                Y                Z
 ----------------------------------------------------------------
    1      C      -0.4538700000    -0.1401880000    -0.2172100000
    2      S       0.2329300000     0.2566120000     1.3632900000
    3      C       1.6512300000     1.0754120000     0.6876900000
    4      C       0.4103300000     0.3589120000    -1.2026100000
    5      C       1.5536300000     1.0191120000    -0.7107100000
    6      H       0.2062300000     0.2411120000    -2.2771100000
    7      H       2.3165300000     1.4597120000    -1.3698100000
    8      C      -0.4538700000    -1.6183880000    -0.2172100000
    9      H       0.5608300000    -1.6189880000     0.1526900000
   10      H      -0.7913700000    -2.0576880000     0.7098900000
   11      H      -0.1759700000    -2.3293880000    -0.9812100000
   12      H       2.4138300000     1.5159120000     1.3387900000
 ----------------------------------------------------------------
 Nuclear Repulsion Energy =         277.19735342 hartrees
 There are       26 alpha and       26 beta electrons
 Requested basis set is cc-pVTZ
 There are 98 shells and 268 basis functions

 Total QAlloc Memory Limit 110000 MB
 Mega-Array Size       188 MB
 MEM_STATIC part       192 MB
 Discretize the solute cavity surface with Lebedev spheres
	Using 110 Lebedev grid points for each H atom
	Using 194 Lebedev grid points for other atoms
	Atomic van der Waals radii will be scaled by 1.20
 Remove points where switching function is < 1.0e-08
 Keep 860 surface tesserae and discard 964 interior tesserae
 Molecular Surface Area = 134.736 Angst**2

                       Distance Matrix (Angstroms)
             C (  1)   S (  2)   C (  3)   C (  4)   C (  5)   H (  6)
   S (  2)  1.768368
   C (  3)  2.593834  1.771565
   C (  4)  1.402482  2.574059  2.372012
   C (  5)  2.370142  2.574321  1.402932  1.408888
   H (  6)  2.196431  3.640531  3.402076  1.100038  2.207800
   H (  7)  3.400483  3.641246  2.196273  2.207559  1.100253  2.600297
   C (  8)  1.478200  2.546625  3.536502  2.372250  3.351120  2.852483
   H (  9)  1.831199  2.256313  2.955501  2.402411  2.947996  3.080526
   H ( 10)  2.156438  2.613830  3.972795  3.307823  4.121144  3.898956
   H ( 11)  2.335278  3.514438  4.209103  2.760384  3.778510  2.903946
   H ( 12)  3.658894  2.518484  1.095231  3.436768  2.277544  4.424177
             H (  7)   C (  8)   H (  9)   H ( 10)   H ( 11)
   C (  8)  4.298640
   H (  9)  3.857315  1.080020
   H ( 10)  5.133838  1.080002  1.526884
   H ( 11)  4.552015  1.080021  1.527505  1.819988
   H ( 12)  2.710930  4.524232  3.829888  4.841429  5.184187
 
 Requested basis set is rimp2-cc-pVTZ
 There are 207 shells and 707 basis functions
 A cutoff of  1.0D-10 yielded   4524 shell pairs
 There are     34042 function pairs (     43997 Cartesian)
 Smallest overlap matrix eigenvalue = 1.83E-04

 Scale SEOQF with 1.000000e-01/1.000000e-01/1.000000e-01

 Standard Electronic Orientation quadrupole field applied
 Nucleus-field energy     =    -0.0000000008 hartrees
 Guess from superposition of atomic densities
 Warning:  Energy on first SCF cycle will be non-variational
 SAD guess density has 52.000000 electrons

 -----------------------------------------------------------------------
  General SCF calculation program by
  Eric Jon Sundstrom, Paul Horn, Yuezhi Mao, Dmitri Zuev, Alec White,
  David Stuck, Shaama M.S., Shane Yost, Joonho Lee, David Small,
  Daniel Levine, Susi Lehtola, Hugh Burton, Evgeny Epifanovsky,
  Bang C. Huynh
 -----------------------------------------------------------------------
 Hartree-Fock
 using 64 threads for integral computing
 -------------------------------------------------------
 OpenMP Integral computing Module                
 Release: version 1.0, May 2013, Q-Chem Inc. Pittsburgh 
 -------------------------------------------------------
 A restricted SCF calculation will be
 performed using DIIS
 SCF converges when DIIS error is below 1.0e-06
 ---------------------------------------
  Cycle       Energy         DIIS error
 ---------------------------------------
    1    -592.7175436845      3.29e-02  
    2    -590.2296924981      2.18e-03  
    3    -590.2917917118      8.02e-04  
    4    -590.2990353821      3.86e-04  
    5    -590.3009953478      7.49e-05  
    6    -590.3011520182      3.81e-05  
    7    -590.3012006948      1.69e-05  
    8    -590.3012173484      8.49e-06  
    9    -590.3012206277      2.94e-06  
   10    -590.3012210795      1.25e-06  
   11    -590.3012211449      4.81e-07  Convergence criterion met
 ---------------------------------------
 SCF time:   CPU 559.19s  wall 10.00s 

************** Final PCM Free Energy Summary **************
 G_electrostatic  =      -0.00626932 hartree =      -3.93406012 kcal/mol
 G_cavitation     =       0.00000000 hartree =       0.00000000 kcal/mol
 G_dispersion     =       0.00000000 hartree =       0.00000000 kcal/mol
 G_repulsion      =       0.00000000 hartree =       0.00000000 kcal/mol
 --------------------------------------------------
 Non-electrostatic Free Energy =       0.00000000 hartree =       0.00000000 kcal/mol
 Total                         =      -0.00626932 hartree =      -3.93406012 kcal/mol
 --------------------------------------------------
 SCF Energy (H0 + V/2)                       =    -590.30122114 
 Solute Internal Energy (H0)                 =    -590.29495182 
 Total Free Energy (H0 + V/2 + non-elec)     =    -590.30122114 hartree
                                             = -370419.60701127 kcal/mol
***********************************************************

 SCF   energy in the final basis set =     -590.3012211449
 Total energy in the final basis set =     -590.3012211449


 --------------------------------------------------------------
  Generalized many-body perturbation theory program
  by Joonho Lee, Fazle Rob, Xintian Feng, Evgeny Epifanovsky

 No regularization used 
 (reg. param. = 0.0000e+00)
  (P|Q)^-1/2 Time:  CPU 7.24 s  wall 0.12 s

 In RI-MP2 calculation: 
 # of frozen core orbitals: 10

 Components of the RIMP2 correlation energy:
        aaaa    correlation energy =        -0.1274342666 a.u.
        abab    correlation energy =        -0.7591787599 a.u.
        bbbb    correlation energy =        -0.1274342666 a.u.
        non-Brillouin singles      =        -0.0000000000 a.u.
        total same-spin energy     =        -0.2548685331 a.u.
        total opposite-spin energy =        -0.7591787599 a.u.

 Total  RIMP2   correlation energy =        -1.0140472930 a.u.
        RIMP2         total energy =      -591.3152684379 a.u.

 RI-MP2 Energy Time:  CPU 31.13 s  wall 0.55 s
 
 --------------------------------------------------------------
 
                    Orbital Energies (a.u.)
 --------------------------------------------------------------
 
 Alpha MOs
 -- Occupied --
-91.9739 -11.2919 -11.2615 -11.2528 -11.2467 -11.2191  -8.9753  -6.6560
 -6.6553  -6.6550  -1.1744  -1.0407  -0.9804  -0.9048  -0.7665  -0.7287
 -0.6749  -0.5938  -0.5746  -0.5672  -0.5263  -0.5006  -0.4644  -0.4412
 -0.3470  -0.2981
 -- Virtual --
  0.0632   0.1559   0.1586   0.1809   0.1854   0.1979   0.2082   0.2127
  0.2298   0.2614   0.3032   0.3212   0.3447   0.3567   0.3756   0.3979
  0.4339   0.4404   0.4438   0.4597   0.4740   0.5174   0.5202   0.5307
  0.5371   0.5513   0.5644   0.5754   0.5925   0.6008   0.6073   0.6180
  0.6312   0.6391   0.6457   0.6710   0.6955   0.7028   0.7245   0.7553
  0.7637   0.7833   0.8291   0.8506   0.8673   0.8719   0.8984   0.9199
  0.9852   0.9946   1.0372   1.0556   1.0905   1.1038   1.1255   1.1378
  1.1550   1.1598   1.1788   1.1872   1.2231   1.2468   1.2604   1.2757
  1.2878   1.3182   1.3399   1.3523   1.3814   1.3937   1.4067   1.4360
  1.4487   1.4823   1.4904   1.5120   1.5228   1.5447   1.5602   1.5964
  1.6020   1.6237   1.6462   1.6522   1.7127   1.7335   1.7630   1.8075
  1.8439   1.8608   1.8983   1.9364   1.9467   1.9647   2.0367   2.1068
  2.1420   2.1688   2.2087   2.2124   2.2327   2.2727   2.3238   2.3714
  2.4221   2.4499   2.4757   2.5189   2.5290   2.5775   2.6704   2.6731
  2.6882   2.6917   2.7205   2.7499   2.7600   2.8269   2.8427   2.8715
  2.9078   2.9256   2.9517   2.9882   3.0151   3.0160   3.0408   3.0509
  3.0943   3.1038   3.1326   3.1493   3.1694   3.1805   3.1953   3.2244
  3.2296   3.2530   3.2878   3.3067   3.3161   3.3286   3.3611   3.3798
  3.3958   3.4254   3.4271   3.4428   3.4640   3.4750   3.4794   3.4915
  3.5175   3.5284   3.5464   3.5886   3.6058   3.6402   3.6518   3.6651
  3.6804   3.7060   3.7501   3.7649   3.7893   3.7916   3.8147   3.8852
  3.8978   3.9245   3.9342   3.9418   3.9672   3.9882   3.9962   4.0155
  4.0229   4.0642   4.0994   4.1233   4.1710   4.1727   4.1879   4.2015
  4.2412   4.2626   4.2905   4.3110   4.3191   4.3914   4.4169   4.4282
  4.4376   4.4583   4.5038   4.5148   4.5738   4.5981   4.6300   4.6480
  4.6809   4.6995   4.7354   4.7538   4.7766   4.8215   4.8362   4.8652
  4.8987   5.0031   5.0215   5.0472   5.0716   5.1355   5.1681   5.2019
  5.2577   5.2882   5.3554   5.4323   5.4786   5.5006   5.5382   5.5807
  5.6002   5.6740   5.8254   5.8511   5.8816   5.9554   5.9674   6.0093
  6.0626   6.3288   6.3932   6.4939   6.5574   9.7308  11.6415  12.5977
 13.8902  14.1722
 --------------------------------------------------------------
 
          Ground-State Mulliken Net Atomic Charges

     Atom                 Charge (a.u.)
  ----------------------------------------
      1 C                    -0.094074
      2 S                     0.002187
      3 C                    -0.168076
      4 C                    -0.112380
      5 C                    -0.233103
      6 H                     0.186672
      7 H                     0.187460
      8 C                    -0.351208
      9 H                     0.113438
     10 H                     0.113016
     11 H                     0.147059
     12 H                     0.209010
  ----------------------------------------
  Sum of atomic charges =     0.000000

 -----------------------------------------------------------------
                    Cartesian Multipole Moments
 -----------------------------------------------------------------
    Charge (ESU x 10^10)
                 0.0000
    Dipole Moment (Debye)
         X       2.7107      Y      -0.2600      Z      -0.9996
       Tot       2.9008
    Quadrupole Moments (Debye-Ang)
        XX     -42.0696     XY       3.7652     YY     -43.6661
        XZ       0.3981     YZ       0.4285     ZZ     -41.0754
    Octopole Moments (Debye-Ang^2)
       XXX     -47.8736    XXY       5.8792    XYY     -13.4685
       YYY     -20.1057    XXZ      -2.3669    XYZ       3.6691
       YYZ      -6.5945    XZZ     -13.5030    YZZ      -2.5782
       ZZZ     -30.5152
    Hexadecapole Moments (Debye-Ang^3)
      XXXX    -269.4719   XXXY     -62.9707   XXYY     -88.0681
      XYYY     -88.7447   YYYY    -293.5585   XXXZ       0.7547
      XXYZ      -0.2726   XYYZ      -1.2159   YYYZ      -8.8609
      XXZZ     -87.3511   XYZZ     -16.8090   YYZZ     -96.5559
      XZZZ      -3.3212   YZZZ     -13.3192   ZZZZ    -302.6611
 -----------------------------------------------------------------
 Total job time:  12.59s(wall), 638.74s(cpu) 
 Sun Sep 24 15:07:34 2023

        *************************************************************
        *                                                           *
        *  Thank you very much for using Q-Chem.  Have a nice day.  *
        *                                                           *
        *************************************************************


0 sent ACK to 0 
now end server 0 ... 
cleanup process ... done
remove work dirs ./qchem3817079.0 -- ./qchem3817079.0
rm -rf ./qchem3817079.0
rm -rf ./qchem3817079
