You are running Q-Chem version: 5.4.0

#
# job setting
#
local host:  exp-13-35
current dir: /home/rramji/csd626/aromodel/PNDIT/Hydrogenated_Impropers_Test
input file:  Dimethyl_Naphthalene_Dicarboximide_Phi_0_Theta_0_Thiophene_Hydrogenated_Improper.qcin
output file: 
nprocs     : 1
nthreads   : 64
#
# qchem installation setting
#
QC:          /cm/shared/apps/spack/cpu/opt/spack/linux-centos8-zen2/gcc-10.2.0/qchem-5.4-akfmr7b3t57bfs6qan3padb2wnb2i7cl
QCAUX:       /cm/shared/apps/spack/cpu/opt/spack/linux-centos8-zen2/gcc-10.2.0/qchem-5.4-akfmr7b3t57bfs6qan3padb2wnb2i7cl/qcaux
QCPROG:      /cm/shared/apps/spack/cpu/opt/spack/linux-centos8-zen2/gcc-10.2.0/qchem-5.4-akfmr7b3t57bfs6qan3padb2wnb2i7cl/exe/qcprog.exe
QCPROG_S:    /cm/shared/apps/spack/cpu/opt/spack/linux-centos8-zen2/gcc-10.2.0/qchem-5.4-akfmr7b3t57bfs6qan3padb2wnb2i7cl/exe/qcprog.exe_s
PARALLEL:    -DPARALLEL
QCMPI:       mpich
#
# qchem directory setting
#
qcrun:       qchem170474
QCSCRATCH:   .
QCLOCALSCR:  
QCTMPDIR:    .
QCFILEPREF:  ./qchem170474
QCSAVEDIR:   
workdirs:    ./qchem170474
workdir0:    ./qchem170474
partmpdirs =  
#
# parallel setting
#
QCRSH:           ssh
QCMPI:           mpich
QCMPIRUN:        /cm/shared/apps/spack/cpu/opt/spack/linux-centos8-zen2/gcc-10.2.0/qchem-5.4-akfmr7b3t57bfs6qan3padb2wnb2i7cl/bin/mpi/mpirun_qchem
QCMACHINEFILE:   ./qchem170474/hostfile
exp-13-35

#
# env setting
#
exported envs:   QC QCAUX QCSCRATCH QCRUNNAME QCFILEPREF QCPROG QCPROG_S GUIFILE

Running Job 1 of 1 Dimethyl_Naphthalene_Dicarboximide_Phi_0_Theta_0_Thiophene_Hydrogenated_Improper.qcin
qchem Dimethyl_Naphthalene_Dicarboximide_Phi_0_Theta_0_Thiophene_Hydrogenated_Improper.qcin_170474.0 ./qchem170474/ 1
/cm/shared/apps/spack/cpu/opt/spack/linux-centos8-zen2/gcc-10.2.0/qchem-5.4-akfmr7b3t57bfs6qan3padb2wnb2i7cl/bin/mpi/mpirun_qchem -machinefile ./qchem170474/hostfile -np 1 /cm/shared/apps/spack/cpu/opt/spack/linux-centos8-zen2/gcc-10.2.0/qchem-5.4-akfmr7b3t57bfs6qan3padb2wnb2i7cl/exe/qcprog.exe Dimethyl_Naphthalene_Dicarboximide_Phi_0_Theta_0_Thiophene_Hydrogenated_Improper.qcin_170474.0 ./qchem170474/

Process 0 of 1 is on exp-13-35 - thread support 0
initial socket setup ...start
initial socket setup ...done 
now start server 0 ... 
                  Welcome to Q-Chem
     A Quantum Leap Into The Future Of Chemistry


 Q-Chem 5.4, Q-Chem, Inc., Pleasanton, CA (2021)

 License issued to: University of California, San Diego (site)

 E. Epifanovsky,  A. T. B. Gilbert,  Xintian Feng,  Joonho Lee,  Yuezhi Mao,  
 N. Mardirossian,  P. Pokhilko,  A. White,  M. Wormit,  M. P. Coons,  
 A. L. Dempwolff,  Zhengting Gan,  D. Hait,  P. R. Horn,  L. D. Jacobson,  
 I. Kaliman,  J. Kussmann,  A. W. Lange,  Ka Un Lao,  D. S. Levine,  Jie Liu,  
 S. C. McKenzie,  A. F. Morrison,  K. Nanda,  F. Plasser,  D. R. Rehn,  
 M. L. Vidal,  Zhi-Qiang You,  Ying Zhu,  B. Alam,  B. Albrecht,  
 A. Aldossary,  E. Alguire,  J. H. Andersen,  D. Barton,  K. Begam,  A. Behn,  
 Y. A. Bernard,  E. J. Berquist,  H. Burton,  A. Carreras,  K. Carter-Fenk,  
 R. Chakraborty,  A. D. Chien,  K. D. Closser,  V. Cofer-Shabica,  
 S. Dasgupta,  Jia Deng,  M. de Wergifosse,  M. Diedenhofen,  Hainam Do,  
 S. Ehlert,  Po-Tung Fang,  S. Fatehi,  Qingguo Feng,  J. Gayvert,  
 Qinghui Ge,  G. Gidofalvi,  M. Goldey,  J. Gomes,  C. Gonzalez-Espinoza,  
 S. Gulania,  A. Gunina,  M. W. D. Hanson-Heine,  P. H. P. Harbach,  
 A. W. Hauser,  M. F. Herbst,  M. Hernandez Vera,  M. Hodecker,  
 Z. C. Holden,  S. Houck,  Xunkun Huang,  Kerwin Hui,  B. C. Huynh,  
 M. Ivanov,  Hyunjun Ji,  Hanjie Jiang,  B. Kaduk,  S. Kaehler,  
 K. Khistyaev,  Jaehoon Kim,  P. Klunzinger,  Z. Koczor-Benda,  
 Joong Hoon Koh,  D. Kosenkov,  L. Koulias,  T. Kowalczyk,  C. M. Krauter,  
 K. Kue,  A. Kunitsa,  T. Kus,  A. Landau,  K. V. Lawler,  D. Lefrancois,  
 S. Lehtola,  Rain Li,  Yi-Pei Li,  Jiashu Liang,  M. Liebenthal,  
 Hung-Hsuan Lin,  You-Sheng Lin,  Fenglai Liu,  Kuan-Yu Liu,  
 M. Loipersberger,  A. Luenser,  A. Manjanath,  P. Manohar,  E. Mansoor,  
 S. F. Manzer,  Shan-Ping Mao,  A. V. Marenich,  T. Markovich,  S. Mason,  
 S. A. Maurer,  P. F. McLaughlin,  M. F. S. J. Menger,  J.-M. Mewes,  
 S. A. Mewes,  P. Morgante,  J. W. Mullinax,  T. S. Nguyen-Beck,  
 K. J. Oosterbaan,  G. Paran,  Alexander C. Paul,  Suranjan K. Paul,  
 F. Pavosevic,  Zheng Pei,  S. Prager,  E. I. Proynov,  E. Ramos,  B. Rana,  
 A. E. Rask,  A. Rettig,  R. M. Richard,  F. Rob,  E. Rossomme,  T. Scheele,  
 M. Scheurer,  M. Schneider,  N. Sergueev,  S. M. Sharada,  W. Skomorowski,  
 D. W. Small,  C. J. Stein,  Yu-Chuan Su,  E. J. Sundstrom,  Zhen Tao,  
 J. Thirman,  T. Tsuchimochi,  N. M. Tubman,  S. P. Veccham,  O. Vydrov,  
 J. Wenzel,  J. Witte,  A. Yamada,  Kun Yao,  S. Yeganeh,  S. R. Yost,  
 A. Zech,  Igor Ying Zhang,  Xing Zhang,  Yu Zhang,  D. Zuev,  
 A. Aspuru-Guzik,  A. T. Bell,  N. A. Besley,  K. B. Bravaya,  B. R. Brooks,  
 D. Casanova,  Jeng-Da Chai,  S. Coriani,  C. J. Cramer,  
 A. E. DePrince, III,  R. A. DiStasio Jr.,  A. Dreuw,  B. D. Dunietz,  
 T. R. Furlani,  W. A. Goddard III,  S. Grimme,  S. Hammes-Schiffer,  
 T. Head-Gordon,  W. J. Hehre,  Chao-Ping Hsu,  T.-C. Jagau,  Yousung Jung,  
 A. Klamt,  Jing Kong,  D. S. Lambrecht,  WanZhen Liang,  N. J. Mayhall,  
 C. W. McCurdy,  J. B. Neaton,  C. Ochsenfeld,  J. A. Parkhill,  R. Peverati,  
 V. A. Rassolov,  Yihan Shao,  L. V. Slipchenko,  T. Stauch,  R. P. Steele,  
 J. E. Subotnik,  A. J. W. Thom,  A. Tkatchenko,  D. G. Truhlar,  
 T. Van Voorhis,  T. A. Wesolowski,  K. B. Whaley,  H. L. Woodcock III,  
 P. M. Zimmerman,  S. Faraji,  P. M. W. Gill,  M. Head-Gordon,  
 J. M. Herbert,  A. I. Krylov

 Contributors to earlier versions of Q-Chem not listed above: 
 R. D. Adamson,  B. Austin,  R. Baer,  J. Baker,  G. J. O. Beran,  
 K. Brandhorst,  S. T. Brown,  E. F. C. Byrd,  A. K. Chakraborty,  
 G. K. L. Chan,  Chun-Min Chang,  Yunqing Chen,  C.-L. Cheng,  
 Siu Hung Chien,  D. M. Chipman,  D. L. Crittenden,  H. Dachsel,  
 R. J. Doerksen,  A. D. Dutoi,  R. G. Edgar,  J. Fosso-Tande,  
 L. Fusti-Molnar,  D. Ghosh,  A. Ghysels,  A. Golubeva-Zadorozhnaya,  
 J. Gonthier,  M. S. Gordon,  S. R. Gwaltney,  G. Hawkins,  J. E. Herr,  
 A. Heyden,  S. Hirata,  E. G. Hohenstein,  G. Kedziora,  F. J. Keil,  
 C. Kelley,  Jihan Kim,  R. A. King,  R. Z. Khaliullin,  P. P. Korambath,  
 W. Kurlancheek,  A. Laurent,  A. M. Lee,  M. S. Lee,  S. V. Levchenko,  
 Ching Yeh Lin,  D. Liotard,  E. Livshits,  R. C. Lochan,  I. Lotan,  
 L. A. Martinez-Martinez,  P. E. Maslen,  N. Nair,  D. P. O'Neill,  
 D. Neuhauser,  E. Neuscamman,  C. M. Oana,  R. Olivares-Amaya,  R. Olson,  
 T. M. Perrine,  B. Peters,  P. A. Pieniazek,  A. Prociuk,  Y. M. Rhee,  
 J. Ritchie,  M. A. Rohrdanz,  E. Rosta,  N. J. Russ,  H. F. Schaefer III,  
 M. W. Schmidt,  N. E. Schultz,  S. Sharma,  N. Shenvi,  C. D. Sherrill,  
 A. C. Simmonett,  A. Sodt,  T. Stein,  D. Stuck,  K. S. Thanthiriwatte,  
 V. Vanovschi,  L. Vogt,  Tao Wang,  A. Warshel,  M. A. Watson,  
 C. F. Williams,  Q. Wu,  X. Xu,  Jun Yang,  W. Zhang,  Yan Zhao

 Please cite Q-Chem as follows:
 Y. Shao et al., Mol. Phys. 113, 184-215 (2015)
 DOI: 10.1080/00268976.2014.952696

 Q-Chem 5.4.0 for Intel X86 EM64T Linux

 Parts of Q-Chem use Armadillo 9.800.1 (Horizon Scraper).
 http://arma.sourceforge.net/

 Q-Chem begins on Fri Oct 20 13:55:46 2023  

 Host: 
0

     Scratch files written to ./qchem170474//
 May1621 |scratch|qcdevops|jenkins|workspace|build_RNUM    
 Parallel job on  1  processors
 Processing $rem in /cm/shared/apps/spack/cpu/opt/spack/linux-centos8-zen2/gcc-10.2.0/qchem-5.4-akfmr7b3t57bfs6qan3padb2wnb2i7cl/config/preferences:
 Processing $rem in /home/rramji/.qchemrc:
 Symmetry turned off for PCM/SM12/SMD calculation
 Core orbitals will be frozen

 Checking the input file for inconsistencies... 	...done.

 Q-Chem warning in module forms1/BasisType.C, line 2236:

 You are not using the predefined 5D/6D in this basis set.


--------------------------------------------------------------
User input:
--------------------------------------------------------------
$molecule
0 1
C 0.0000 0.0000 0.0000
S -0.0002 0.7932 1.5805
C -0.0002 2.4309 0.9049
C -0.0002 0.9980 -0.9854
C -0.0003 2.3182 -0.4935
H -0.0001 0.7623 -2.0599
H -0.0003 3.1992 -1.1526
C -0.0000 -1.4782 0.0000
H 1.0635 -1.4788 0.1881
H -0.1714 -1.9175 0.9716
H 0.1410 -2.1892 -0.8007
H -0.0003 3.3116 1.5560
$end

$rem
JOBTYPE         SP
EXCHANGE        HF
CORRELATION     pRIMP2
BASIS           cc-pvtz
METHOD          rimp2
AUX_BASIS       rimp2-cc-pvtz
SOLVENT_METHOD  PCM
PURECART        11111
SYMMETRY        false
MEM_TOTAL       110000
SCF_CONVERGENCE = 6
THRESH=10
GUI = 2
$end



$solvent
dielectric 4.90
$end
--------------------------------------------------------------
 ----------------------------------------------------------------
             Standard Nuclear Orientation (Angstroms)
    I     Atom           X                Y                Z
 ----------------------------------------------------------------
    1      C       0.0000000000     0.0000000000     0.0000000000
    2      S      -0.0002000000     0.7932000000     1.5805000000
    3      C      -0.0002000000     2.4309000000     0.9049000000
    4      C      -0.0002000000     0.9980000000    -0.9854000000
    5      C      -0.0003000000     2.3182000000    -0.4935000000
    6      H      -0.0001000000     0.7623000000    -2.0599000000
    7      H      -0.0003000000     3.1992000000    -1.1526000000
    8      C       0.0000000000    -1.4782000000     0.0000000000
    9      H       1.0635000000    -1.4788000000     0.1881000000
   10      H      -0.1714000000    -1.9175000000     0.9716000000
   11      H       0.1410000000    -2.1892000000    -0.8007000000
   12      H      -0.0003000000     3.3116000000     1.5560000000
 ----------------------------------------------------------------
 Nuclear Repulsion Energy =         270.39395032 hartrees
 There are       26 alpha and       26 beta electrons
 Requested basis set is cc-pVTZ
 There are 98 shells and 268 basis functions

 Total QAlloc Memory Limit 110000 MB
 Mega-Array Size       188 MB
 MEM_STATIC part       192 MB
 Discretize the solute cavity surface with Lebedev spheres
	Using 110 Lebedev grid points for each H atom
	Using 194 Lebedev grid points for other atoms
	Atomic van der Waals radii will be scaled by 1.20
 Remove points where switching function is < 1.0e-08
 Keep 887 surface tesserae and discard 937 interior tesserae
 Molecular Surface Area = 138.408 Angst**2

                       Distance Matrix (Angstroms)
             C (  1)   S (  2)   C (  3)   C (  4)   C (  5)   H (  6)
   S (  2)  1.768374
   C (  3)  2.593862  1.771580
   C (  4)  1.402504  2.574060  2.372011
   C (  5)  2.370146  2.574316  1.402934  1.408863
   H (  6)  2.196426  3.640531  3.402097  1.100048  2.207812
   H (  7)  3.400495  3.641246  2.196268  2.207541  1.100261  2.600322
   C (  8)  1.478200  2.767172  4.012469  2.665067  3.828341  3.043522
   H (  9)  1.831192  2.869184  4.114731  2.939915  4.001682  3.347727
   H ( 10)  2.156430  2.783516  4.352280  3.515579  4.485192  4.049773
   H ( 11)  2.335294  3.819000  4.926899  3.195668  4.520066  3.211985
   H ( 12)  3.658938  2.518519  1.095246  3.436780  2.277563  4.424213
             H (  7)   C (  8)   H (  9)   H ( 10)   H ( 11)
   C (  8)  4.817319
   H (  9)  4.981248  1.080007
   H ( 10)  5.542754  1.079986  1.526862
   H ( 11)  5.401727  1.080057  1.527547  1.820017
   H ( 12)  2.710931  5.036201  5.094188  5.264436  5.986051
 
 Requested basis set is rimp2-cc-pVTZ
 There are 207 shells and 707 basis functions
 A cutoff of  1.0D-10 yielded   4358 shell pairs
 There are     32640 function pairs (     42182 Cartesian)
 Smallest overlap matrix eigenvalue = 1.01E-04

 Scale SEOQF with 1.000000e+00/1.000000e-01/1.000000e-01

 Standard Electronic Orientation quadrupole field applied
 Nucleus-field energy     =     0.0000000030 hartrees
 Guess from superposition of atomic densities
 Warning:  Energy on first SCF cycle will be non-variational
 SAD guess density has 52.000000 electrons

 -----------------------------------------------------------------------
  General SCF calculation program by
  Eric Jon Sundstrom, Paul Horn, Yuezhi Mao, Dmitri Zuev, Alec White,
  David Stuck, Shaama M.S., Shane Yost, Joonho Lee, David Small,
  Daniel Levine, Susi Lehtola, Hugh Burton, Evgeny Epifanovsky,
  Bang C. Huynh
 -----------------------------------------------------------------------
 Hartree-Fock
 using 64 threads for integral computing
 -------------------------------------------------------
 OpenMP Integral computing Module                
 Release: version 1.0, May 2013, Q-Chem Inc. Pittsburgh 
 -------------------------------------------------------
 A restricted SCF calculation will be
 performed using DIIS
 SCF converges when DIIS error is below 1.0e-06
 ---------------------------------------
  Cycle       Energy         DIIS error
 ---------------------------------------
    1    -592.5733809275      3.22e-02  
    2    -590.3029973970      2.22e-03  
    3    -590.3643748471      8.77e-04  
    4    -590.3720931560      4.09e-04  
    5    -590.3742328538      6.98e-05  
    6    -590.3743585815      3.23e-05  
    7    -590.3743886071      1.41e-05  
    8    -590.3743978980      5.67e-06  
    9    -590.3743992746      1.84e-06  
   10    -590.3743994003      6.44e-07  Convergence criterion met
 ---------------------------------------
 SCF time:   CPU 511.63s  wall 9.00s 

************** Final PCM Free Energy Summary **************
 G_electrostatic  =      -0.00607282 hartree =      -3.81075173 kcal/mol
 G_cavitation     =       0.00000000 hartree =       0.00000000 kcal/mol
 G_dispersion     =       0.00000000 hartree =       0.00000000 kcal/mol
 G_repulsion      =       0.00000000 hartree =       0.00000000 kcal/mol
 --------------------------------------------------
 Non-electrostatic Free Energy =       0.00000000 hartree =       0.00000000 kcal/mol
 Total                         =      -0.00607282 hartree =      -3.81075173 kcal/mol
 --------------------------------------------------
 SCF Energy (H0 + V/2)                       =    -590.37439940 
 Solute Internal Energy (H0)                 =    -590.36832658 
 Total Free Energy (H0 + V/2 + non-elec)     =    -590.37439940 hartree
                                             = -370465.52705962 kcal/mol
***********************************************************

 SCF   energy in the final basis set =     -590.3743994003
 Total energy in the final basis set =     -590.3743994003


 --------------------------------------------------------------
  Generalized many-body perturbation theory program
  by Joonho Lee, Fazle Rob, Xintian Feng, Evgeny Epifanovsky

 No regularization used 
 (reg. param. = 0.0000e+00)
  (P|Q)^-1/2 Time:  CPU 6.63 s  wall 0.11 s

 In RI-MP2 calculation: 
 # of frozen core orbitals: 10

 Components of the RIMP2 correlation energy:
        aaaa    correlation energy =        -0.1248568393 a.u.
        abab    correlation energy =        -0.7497211108 a.u.
        bbbb    correlation energy =        -0.1248568393 a.u.
        non-Brillouin singles      =        -0.0000000000 a.u.
        total same-spin energy     =        -0.2497136786 a.u.
        total opposite-spin energy =        -0.7497211108 a.u.

 Total  RIMP2   correlation energy =        -0.9994347894 a.u.
        RIMP2         total energy =      -591.3738341897 a.u.

 RI-MP2 Energy Time:  CPU 25.39 s  wall 0.43 s
 
 --------------------------------------------------------------
 
                    Orbital Energies (a.u.)
 --------------------------------------------------------------
 
 Alpha MOs
 -- Occupied --
-91.9792 -11.2920 -11.2625 -11.2427 -11.2300 -11.2287  -8.9791  -6.6600
 -6.6596  -6.6589  -1.1571  -1.0413  -0.9711  -0.9198  -0.7549  -0.7215
 -0.6713  -0.5974  -0.5653  -0.5582  -0.5405  -0.4973  -0.4775  -0.4567
 -0.3469  -0.2979
 -- Virtual --
  0.1130   0.1452   0.1603   0.1806   0.1894   0.2038   0.2118   0.2173
  0.2250   0.2513   0.3137   0.3388   0.3467   0.3647   0.3878   0.4188
  0.4264   0.4410   0.4555   0.4855   0.5038   0.5099   0.5279   0.5449
  0.5506   0.5610   0.5782   0.5810   0.5960   0.6098   0.6190   0.6241
  0.6292   0.6417   0.6481   0.6530   0.6983   0.7099   0.7431   0.7807
  0.7848   0.8046   0.8439   0.8582   0.8784   0.8865   0.8940   0.9456
  0.9532   0.9781   0.9986   1.0469   1.0645   1.0778   1.0982   1.1041
  1.1124   1.1610   1.1710   1.1741   1.2161   1.2392   1.2465   1.2681
  1.2835   1.2977   1.3437   1.3502   1.4011   1.4161   1.4382   1.4448
  1.4803   1.4926   1.5113   1.5168   1.5421   1.5523   1.5695   1.5824
  1.5957   1.6334   1.6530   1.6975   1.7070   1.7547   1.7856   1.7962
  1.8390   1.8786   1.9025   1.9241   1.9397   2.0222   2.0686   2.0735
  2.1547   2.1682   2.2274   2.2476   2.2580   2.2845   2.3268   2.4185
  2.4288   2.4413   2.4531   2.5341   2.5419   2.5964   2.6424   2.6569
  2.6927   2.7243   2.7355   2.7501   2.7586   2.7760   2.7887   2.8399
  2.8653   2.8900   2.9200   2.9649   2.9890   3.0188   3.0375   3.0439
  3.0616   3.1055   3.1177   3.1425   3.1658   3.2088   3.2189   3.2425
  3.2569   3.2769   3.2881   3.3034   3.3162   3.3498   3.3838   3.3941
  3.4074   3.4207   3.4342   3.4459   3.4542   3.4580   3.4715   3.4997
  3.5073   3.5144   3.5272   3.5578   3.6073   3.6096   3.6194   3.6574
  3.6885   3.7033   3.7281   3.7466   3.7624   3.7906   3.8254   3.8367
  3.8545   3.8858   3.9133   3.9212   3.9554   3.9686   3.9733   4.0027
  4.0173   4.0433   4.0529   4.1027   4.1327   4.1573   4.1655   4.1922
  4.2333   4.2533   4.2784   4.2863   4.3061   4.3540   4.3717   4.3970
  4.4108   4.4645   4.4906   4.5144   4.5406   4.5679   4.5816   4.6213
  4.6705   4.6952   4.7463   4.7681   4.8015   4.8234   4.8431   4.8595
  4.9694   5.0007   5.0224   5.0341   5.0725   5.1413   5.1869   5.1979
  5.2142   5.3000   5.3611   5.4298   5.4690   5.4999   5.5377   5.5873
  5.6314   5.6835   5.7921   5.8188   5.8703   5.9975   6.0439   6.0937
  6.1474   6.3468   6.4126   6.4888   6.7513   9.4089  11.3072  12.8672
 13.9057  14.3500
 --------------------------------------------------------------
 
          Ground-State Mulliken Net Atomic Charges

     Atom                 Charge (a.u.)
  ----------------------------------------
      1 C                     0.021371
      2 S                    -0.003571
      3 C                    -0.249731
      4 C                    -0.238262
      5 C                    -0.186677
      6 H                     0.182330
      7 H                     0.184859
      8 C                    -0.362513
      9 H                     0.140838
     10 H                     0.137657
     11 H                     0.168908
     12 H                     0.204793
  ----------------------------------------
  Sum of atomic charges =     0.000000

 -----------------------------------------------------------------
                    Cartesian Multipole Moments
 -----------------------------------------------------------------
    Charge (ESU x 10^10)
                 0.0000
    Dipole Moment (Debye)
         X       0.7315      Y      -0.8517      Z      -0.9211
       Tot       1.4522
    Quadrupole Moments (Debye-Ang)
        XX     -48.2833     XY      -1.2029     YY     -36.4868
        XZ      -0.1678     YZ       0.2913     ZZ     -42.2174
    Octopole Moments (Debye-Ang^2)
       XXX      -1.2279    XXY     -40.7533    XYY       1.3818
       YYY     -87.0137    XXZ     -17.7506    XYZ       0.4324
       YYZ     -12.2521    XZZ      -0.5342    YZZ     -28.3742
       ZZZ     -55.4615
    Hexadecapole Moments (Debye-Ang^3)
      XXXX     -64.7266   XXXY       2.0369   XXYY    -142.9403
      XYYY      -1.7608   YYYY    -602.6693   XXXZ       0.3005
      XXYZ     -18.1453   XYYZ      -1.1227   YYYZ     -29.8547
      XXZZ     -75.5344   XYZZ       0.6749   YYZZ    -141.5334
      XZZZ      -0.3114   YZZZ     -43.5944   ZZZZ    -342.8898
 -----------------------------------------------------------------
 Total job time:  12.29s(wall), 589.34s(cpu) 
 Fri Oct 20 13:55:59 2023

        *************************************************************
        *                                                           *
        *  Thank you very much for using Q-Chem.  Have a nice day.  *
        *                                                           *
        *************************************************************


0 sent ACK to 0 
now end server 0 ... 
cleanup process ... done
remove work dirs ./qchem170474.0 -- ./qchem170474.0
rm -rf ./qchem170474.0
rm -rf ./qchem170474
