You are running Q-Chem version: 5.4.0

#
# job setting
#
local host:  exp-2-38
current dir: /expanse/lustre/projects/csd626/rramji/aromodel/PNDIT/Hydrogenated_Impropers_Test
input file:  Dimethyl_Naphthalene_Dicarboximide_Phi_15_Theta_270_Thiophene_Hydrogenated_Improper.qcin
output file: 
nprocs     : 1
nthreads   : 64
#
# qchem installation setting
#
QC:          /cm/shared/apps/spack/cpu/opt/spack/linux-centos8-zen2/gcc-10.2.0/qchem-5.4-akfmr7b3t57bfs6qan3padb2wnb2i7cl
QCAUX:       /cm/shared/apps/spack/cpu/opt/spack/linux-centos8-zen2/gcc-10.2.0/qchem-5.4-akfmr7b3t57bfs6qan3padb2wnb2i7cl/qcaux
QCPROG:      /cm/shared/apps/spack/cpu/opt/spack/linux-centos8-zen2/gcc-10.2.0/qchem-5.4-akfmr7b3t57bfs6qan3padb2wnb2i7cl/exe/qcprog.exe
QCPROG_S:    /cm/shared/apps/spack/cpu/opt/spack/linux-centos8-zen2/gcc-10.2.0/qchem-5.4-akfmr7b3t57bfs6qan3padb2wnb2i7cl/exe/qcprog.exe_s
PARALLEL:    -DPARALLEL
QCMPI:       mpich
#
# qchem directory setting
#
qcrun:       qchem3743905
QCSCRATCH:   .
QCLOCALSCR:  
QCTMPDIR:    .
QCFILEPREF:  ./qchem3743905
QCSAVEDIR:   
workdirs:    ./qchem3743905
workdir0:    ./qchem3743905
partmpdirs =  
#
# parallel setting
#
QCRSH:           ssh
QCMPI:           mpich
QCMPIRUN:        /cm/shared/apps/spack/cpu/opt/spack/linux-centos8-zen2/gcc-10.2.0/qchem-5.4-akfmr7b3t57bfs6qan3padb2wnb2i7cl/bin/mpi/mpirun_qchem
QCMACHINEFILE:   ./qchem3743905/hostfile
exp-2-38

#
# env setting
#
exported envs:   QC QCAUX QCSCRATCH QCRUNNAME QCFILEPREF QCPROG QCPROG_S GUIFILE

Running Job 1 of 1 Dimethyl_Naphthalene_Dicarboximide_Phi_15_Theta_270_Thiophene_Hydrogenated_Improper.qcin
qchem Dimethyl_Naphthalene_Dicarboximide_Phi_15_Theta_270_Thiophene_Hydrogenated_Improper.qcin_3743905.0 ./qchem3743905/ 1
/cm/shared/apps/spack/cpu/opt/spack/linux-centos8-zen2/gcc-10.2.0/qchem-5.4-akfmr7b3t57bfs6qan3padb2wnb2i7cl/bin/mpi/mpirun_qchem -machinefile ./qchem3743905/hostfile -np 1 /cm/shared/apps/spack/cpu/opt/spack/linux-centos8-zen2/gcc-10.2.0/qchem-5.4-akfmr7b3t57bfs6qan3padb2wnb2i7cl/exe/qcprog.exe Dimethyl_Naphthalene_Dicarboximide_Phi_15_Theta_270_Thiophene_Hydrogenated_Improper.qcin_3743905.0 ./qchem3743905/

Process 0 of 1 is on exp-2-38 - thread support 0
initial socket setup ...start
initial socket setup ...done 
now start server 0 ... 
                  Welcome to Q-Chem
     A Quantum Leap Into The Future Of Chemistry


 Q-Chem 5.4, Q-Chem, Inc., Pleasanton, CA (2021)

 License issued to: University of California, San Diego (site)

 E. Epifanovsky,  A. T. B. Gilbert,  Xintian Feng,  Joonho Lee,  Yuezhi Mao,  
 N. Mardirossian,  P. Pokhilko,  A. White,  M. Wormit,  M. P. Coons,  
 A. L. Dempwolff,  Zhengting Gan,  D. Hait,  P. R. Horn,  L. D. Jacobson,  
 I. Kaliman,  J. Kussmann,  A. W. Lange,  Ka Un Lao,  D. S. Levine,  Jie Liu,  
 S. C. McKenzie,  A. F. Morrison,  K. Nanda,  F. Plasser,  D. R. Rehn,  
 M. L. Vidal,  Zhi-Qiang You,  Ying Zhu,  B. Alam,  B. Albrecht,  
 A. Aldossary,  E. Alguire,  J. H. Andersen,  D. Barton,  K. Begam,  A. Behn,  
 Y. A. Bernard,  E. J. Berquist,  H. Burton,  A. Carreras,  K. Carter-Fenk,  
 R. Chakraborty,  A. D. Chien,  K. D. Closser,  V. Cofer-Shabica,  
 S. Dasgupta,  Jia Deng,  M. de Wergifosse,  M. Diedenhofen,  Hainam Do,  
 S. Ehlert,  Po-Tung Fang,  S. Fatehi,  Qingguo Feng,  J. Gayvert,  
 Qinghui Ge,  G. Gidofalvi,  M. Goldey,  J. Gomes,  C. Gonzalez-Espinoza,  
 S. Gulania,  A. Gunina,  M. W. D. Hanson-Heine,  P. H. P. Harbach,  
 A. W. Hauser,  M. F. Herbst,  M. Hernandez Vera,  M. Hodecker,  
 Z. C. Holden,  S. Houck,  Xunkun Huang,  Kerwin Hui,  B. C. Huynh,  
 M. Ivanov,  Hyunjun Ji,  Hanjie Jiang,  B. Kaduk,  S. Kaehler,  
 K. Khistyaev,  Jaehoon Kim,  P. Klunzinger,  Z. Koczor-Benda,  
 Joong Hoon Koh,  D. Kosenkov,  L. Koulias,  T. Kowalczyk,  C. M. Krauter,  
 K. Kue,  A. Kunitsa,  T. Kus,  A. Landau,  K. V. Lawler,  D. Lefrancois,  
 S. Lehtola,  Rain Li,  Yi-Pei Li,  Jiashu Liang,  M. Liebenthal,  
 Hung-Hsuan Lin,  You-Sheng Lin,  Fenglai Liu,  Kuan-Yu Liu,  
 M. Loipersberger,  A. Luenser,  A. Manjanath,  P. Manohar,  E. Mansoor,  
 S. F. Manzer,  Shan-Ping Mao,  A. V. Marenich,  T. Markovich,  S. Mason,  
 S. A. Maurer,  P. F. McLaughlin,  M. F. S. J. Menger,  J.-M. Mewes,  
 S. A. Mewes,  P. Morgante,  J. W. Mullinax,  T. S. Nguyen-Beck,  
 K. J. Oosterbaan,  G. Paran,  Alexander C. Paul,  Suranjan K. Paul,  
 F. Pavosevic,  Zheng Pei,  S. Prager,  E. I. Proynov,  E. Ramos,  B. Rana,  
 A. E. Rask,  A. Rettig,  R. M. Richard,  F. Rob,  E. Rossomme,  T. Scheele,  
 M. Scheurer,  M. Schneider,  N. Sergueev,  S. M. Sharada,  W. Skomorowski,  
 D. W. Small,  C. J. Stein,  Yu-Chuan Su,  E. J. Sundstrom,  Zhen Tao,  
 J. Thirman,  T. Tsuchimochi,  N. M. Tubman,  S. P. Veccham,  O. Vydrov,  
 J. Wenzel,  J. Witte,  A. Yamada,  Kun Yao,  S. Yeganeh,  S. R. Yost,  
 A. Zech,  Igor Ying Zhang,  Xing Zhang,  Yu Zhang,  D. Zuev,  
 A. Aspuru-Guzik,  A. T. Bell,  N. A. Besley,  K. B. Bravaya,  B. R. Brooks,  
 D. Casanova,  Jeng-Da Chai,  S. Coriani,  C. J. Cramer,  
 A. E. DePrince, III,  R. A. DiStasio Jr.,  A. Dreuw,  B. D. Dunietz,  
 T. R. Furlani,  W. A. Goddard III,  S. Grimme,  S. Hammes-Schiffer,  
 T. Head-Gordon,  W. J. Hehre,  Chao-Ping Hsu,  T.-C. Jagau,  Yousung Jung,  
 A. Klamt,  Jing Kong,  D. S. Lambrecht,  WanZhen Liang,  N. J. Mayhall,  
 C. W. McCurdy,  J. B. Neaton,  C. Ochsenfeld,  J. A. Parkhill,  R. Peverati,  
 V. A. Rassolov,  Yihan Shao,  L. V. Slipchenko,  T. Stauch,  R. P. Steele,  
 J. E. Subotnik,  A. J. W. Thom,  A. Tkatchenko,  D. G. Truhlar,  
 T. Van Voorhis,  T. A. Wesolowski,  K. B. Whaley,  H. L. Woodcock III,  
 P. M. Zimmerman,  S. Faraji,  P. M. W. Gill,  M. Head-Gordon,  
 J. M. Herbert,  A. I. Krylov

 Contributors to earlier versions of Q-Chem not listed above: 
 R. D. Adamson,  B. Austin,  R. Baer,  J. Baker,  G. J. O. Beran,  
 K. Brandhorst,  S. T. Brown,  E. F. C. Byrd,  A. K. Chakraborty,  
 G. K. L. Chan,  Chun-Min Chang,  Yunqing Chen,  C.-L. Cheng,  
 Siu Hung Chien,  D. M. Chipman,  D. L. Crittenden,  H. Dachsel,  
 R. J. Doerksen,  A. D. Dutoi,  R. G. Edgar,  J. Fosso-Tande,  
 L. Fusti-Molnar,  D. Ghosh,  A. Ghysels,  A. Golubeva-Zadorozhnaya,  
 J. Gonthier,  M. S. Gordon,  S. R. Gwaltney,  G. Hawkins,  J. E. Herr,  
 A. Heyden,  S. Hirata,  E. G. Hohenstein,  G. Kedziora,  F. J. Keil,  
 C. Kelley,  Jihan Kim,  R. A. King,  R. Z. Khaliullin,  P. P. Korambath,  
 W. Kurlancheek,  A. Laurent,  A. M. Lee,  M. S. Lee,  S. V. Levchenko,  
 Ching Yeh Lin,  D. Liotard,  E. Livshits,  R. C. Lochan,  I. Lotan,  
 L. A. Martinez-Martinez,  P. E. Maslen,  N. Nair,  D. P. O'Neill,  
 D. Neuhauser,  E. Neuscamman,  C. M. Oana,  R. Olivares-Amaya,  R. Olson,  
 T. M. Perrine,  B. Peters,  P. A. Pieniazek,  A. Prociuk,  Y. M. Rhee,  
 J. Ritchie,  M. A. Rohrdanz,  E. Rosta,  N. J. Russ,  H. F. Schaefer III,  
 M. W. Schmidt,  N. E. Schultz,  S. Sharma,  N. Shenvi,  C. D. Sherrill,  
 A. C. Simmonett,  A. Sodt,  T. Stein,  D. Stuck,  K. S. Thanthiriwatte,  
 V. Vanovschi,  L. Vogt,  Tao Wang,  A. Warshel,  M. A. Watson,  
 C. F. Williams,  Q. Wu,  X. Xu,  Jun Yang,  W. Zhang,  Yan Zhao

 Please cite Q-Chem as follows:
 Y. Shao et al., Mol. Phys. 113, 184-215 (2015)
 DOI: 10.1080/00268976.2014.952696

 Q-Chem 5.4.0 for Intel X86 EM64T Linux

 Parts of Q-Chem use Armadillo 9.800.1 (Horizon Scraper).
 http://arma.sourceforge.net/

 Q-Chem begins on Sun Sep 24 16:04:35 2023  

 Host: 
0

     Scratch files written to ./qchem3743905//
 May1621 |scratch|qcdevops|jenkins|workspace|build_RNUM    
 Parallel job on  1  processors
 Processing $rem in /cm/shared/apps/spack/cpu/opt/spack/linux-centos8-zen2/gcc-10.2.0/qchem-5.4-akfmr7b3t57bfs6qan3padb2wnb2i7cl/config/preferences:
 Processing $rem in /home/rramji/.qchemrc:
 Symmetry turned off for PCM/SM12/SMD calculation
 Core orbitals will be frozen

 Checking the input file for inconsistencies... 	...done.

 Q-Chem warning in module forms1/BasisType.C, line 2236:

 You are not using the predefined 5D/6D in this basis set.


--------------------------------------------------------------
User input:
--------------------------------------------------------------
$molecule
0 1
C	-0.135003	-0.381707	-0.208929
S	0.070097	0.384493	1.371571
C	0.493897	1.966393	0.695971
C	0.123097	0.582293	-1.194329
C	0.464697	1.857593	-0.702429
H	0.062197	0.354693	-2.268829
H	0.692697	2.708493	-1.361529
C	-0.135003	-1.859907	-0.208929
H	-0.134503	-1.860507	-1.288929
H	0.851597	-2.299207	-0.208929
H	-0.948003	-2.570907	-0.208829
H	0.721797	2.817093	1.347071
$end

$rem
JOBTYPE		SP
EXCHANGE	HF
CORRELATION	pRIMP2
BASIS		cc-pvtz
METHOD		rimp2
AUX_BASIS	rimp2-cc-pvtz
SOLVENT_METHOD	PCM
PURECART	11111
SYMMETRY	false
MEM_TOTAL	110000
SCF_CONVERGENCE = 6
THRESH=10
GUI = 2
$end



$solvent
dielectric 4.90
$end
--------------------------------------------------------------
 ----------------------------------------------------------------
             Standard Nuclear Orientation (Angstroms)
    I     Atom           X                Y                Z
 ----------------------------------------------------------------
    1      C      -0.1350030000    -0.3817070000    -0.2089290000
    2      S       0.0700970000     0.3844930000     1.3715710000
    3      C       0.4938970000     1.9663930000     0.6959710000
    4      C       0.1230970000     0.5822930000    -1.1943290000
    5      C       0.4646970000     1.8575930000    -0.7024290000
    6      H       0.0621970000     0.3546930000    -2.2688290000
    7      H       0.6926970000     2.7084930000    -1.3615290000
    8      C      -0.1350030000    -1.8599070000    -0.2089290000
    9      H      -0.1345030000    -1.8605070000    -1.2889290000
   10      H       0.8515970000    -2.2992070000    -0.2089290000
   11      H      -0.9480030000    -2.5709070000    -0.2088290000
   12      H       0.7217970000     2.8170930000     1.3470710000
 ----------------------------------------------------------------
 Nuclear Repulsion Energy =         270.24003147 hartrees
 There are       26 alpha and       26 beta electrons
 Requested basis set is cc-pVTZ
 There are 98 shells and 268 basis functions

 Total QAlloc Memory Limit 110000 MB
 Mega-Array Size       188 MB
 MEM_STATIC part       192 MB
 Discretize the solute cavity surface with Lebedev spheres
	Using 110 Lebedev grid points for each H atom
	Using 194 Lebedev grid points for other atoms
	Atomic van der Waals radii will be scaled by 1.20
 Remove points where switching function is < 1.0e-08
 Keep 874 surface tesserae and discard 950 interior tesserae
 Molecular Surface Area = 137.788 Angst**2

                       Distance Matrix (Angstroms)
             C (  1)   S (  2)   C (  3)   C (  4)   C (  5)   H (  6)
   S (  2)  1.768363
   C (  3)  2.593826  1.771567
   C (  4)  1.402471  2.574058  2.372016
   C (  5)  2.370158  2.574337  1.402930  1.408917
   H (  6)  2.196443  3.640531  3.402055  1.100028  2.207787
   H (  7)  3.400428  3.641214  2.196256  2.207516  1.100194  2.600211
   C (  8)  1.478200  2.752704  3.981825  2.646124  3.797761  3.030929
   H (  9)  1.831188  3.487140  4.356590  2.458166  3.811468  2.430228
   H ( 10)  2.156429  3.211070  4.375173  3.131257  4.203834  3.451018
   H ( 11)  2.335287  3.502653  4.846115  3.472915  4.674503  3.717962
   H ( 12)  3.658902  2.518503  1.095244  3.436784  2.277541  4.424163
             H (  7)   C (  8)   H (  9)   H ( 10)   H ( 11)
   C (  8)  4.783707
   H (  9)  4.643844  1.080000
   H ( 10)  5.141089  1.079983  1.526843
   H ( 11)  5.647360  1.080042  1.527438  1.819995
   H ( 12)  2.710932  5.002956  5.437066  5.349253  5.851461
 
 Requested basis set is rimp2-cc-pVTZ
 There are 207 shells and 707 basis functions
 A cutoff of  1.0D-10 yielded   4372 shell pairs
 There are     32838 function pairs (     42490 Cartesian)
 Smallest overlap matrix eigenvalue = 1.32E-04

 Scale SEOQF with 1.000000e+00/1.000000e-01/1.000000e-01

 Standard Electronic Orientation quadrupole field applied
 Nucleus-field energy     =     0.0000000033 hartrees
 Guess from superposition of atomic densities
 Warning:  Energy on first SCF cycle will be non-variational
 SAD guess density has 52.000000 electrons

 -----------------------------------------------------------------------
  General SCF calculation program by
  Eric Jon Sundstrom, Paul Horn, Yuezhi Mao, Dmitri Zuev, Alec White,
  David Stuck, Shaama M.S., Shane Yost, Joonho Lee, David Small,
  Daniel Levine, Susi Lehtola, Hugh Burton, Evgeny Epifanovsky,
  Bang C. Huynh
 -----------------------------------------------------------------------
 Hartree-Fock
 using 64 threads for integral computing
 -------------------------------------------------------
 OpenMP Integral computing Module                
 Release: version 1.0, May 2013, Q-Chem Inc. Pittsburgh 
 -------------------------------------------------------
 A restricted SCF calculation will be
 performed using DIIS
 SCF converges when DIIS error is below 1.0e-06
 ---------------------------------------
  Cycle       Energy         DIIS error
 ---------------------------------------
    1    -592.5767293247      3.22e-02  
    2    -590.3021259603      2.14e-03  
    3    -590.3620385486      7.65e-04  
    4    -590.3685442547      3.73e-04  
    5    -590.3702809556      6.98e-05  
    6    -590.3704021803      2.97e-05  
    7    -590.3704324805      1.48e-05  
    8    -590.3704423090      5.65e-06  
    9    -590.3704439161      2.05e-06  
   10    -590.3704440549      5.94e-07  Convergence criterion met
 ---------------------------------------
 SCF time:   CPU 473.60s  wall 8.00s 

************** Final PCM Free Energy Summary **************
 G_electrostatic  =      -0.00568036 hartree =      -3.56447890 kcal/mol
 G_cavitation     =       0.00000000 hartree =       0.00000000 kcal/mol
 G_dispersion     =       0.00000000 hartree =       0.00000000 kcal/mol
 G_repulsion      =       0.00000000 hartree =       0.00000000 kcal/mol
 --------------------------------------------------
 Non-electrostatic Free Energy =       0.00000000 hartree =       0.00000000 kcal/mol
 Total                         =      -0.00568036 hartree =      -3.56447890 kcal/mol
 --------------------------------------------------
 SCF Energy (H0 + V/2)                       =    -590.37044405 
 Solute Internal Energy (H0)                 =    -590.36476370 
 Total Free Energy (H0 + V/2 + non-elec)     =    -590.37044405 hartree
                                             = -370463.04504291 kcal/mol
***********************************************************

 SCF   energy in the final basis set =     -590.3704440549
 Total energy in the final basis set =     -590.3704440549


 --------------------------------------------------------------
  Generalized many-body perturbation theory program
  by Joonho Lee, Fazle Rob, Xintian Feng, Evgeny Epifanovsky

 No regularization used 
 (reg. param. = 0.0000e+00)
  (P|Q)^-1/2 Time:  CPU 5.35 s  wall 0.09 s

 In RI-MP2 calculation: 
 # of frozen core orbitals: 10

 Components of the RIMP2 correlation energy:
        aaaa    correlation energy =        -0.1255666961 a.u.
        abab    correlation energy =        -0.7517257514 a.u.
        bbbb    correlation energy =        -0.1255666961 a.u.
        non-Brillouin singles      =        -0.0000000000 a.u.
        total same-spin energy     =        -0.2511333922 a.u.
        total opposite-spin energy =        -0.7517257514 a.u.

 Total  RIMP2   correlation energy =        -1.0028591435 a.u.
        RIMP2         total energy =      -591.3733031984 a.u.

 RI-MP2 Energy Time:  CPU 23.74 s  wall 0.41 s
 
 --------------------------------------------------------------
 
                    Orbital Energies (a.u.)
 --------------------------------------------------------------
 
 Alpha MOs
 -- Occupied --
-91.9745 -11.2839 -11.2699 -11.2431 -11.2418 -11.2231  -8.9747  -6.6555
 -6.6550  -6.6545  -1.1576  -1.0378  -0.9731  -0.9184  -0.7548  -0.7245
 -0.6724  -0.5973  -0.5713  -0.5596  -0.5388  -0.4996  -0.4674  -0.4359
 -0.3448  -0.3130
 -- Virtual --
  0.1007   0.1495   0.1606   0.1767   0.1925   0.1971   0.2071   0.2303
  0.2389   0.2536   0.3103   0.3394   0.3675   0.3722   0.3903   0.3969
  0.4173   0.4512   0.4582   0.4622   0.4873   0.5140   0.5263   0.5354
  0.5375   0.5583   0.5655   0.5794   0.5996   0.6095   0.6163   0.6228
  0.6362   0.6508   0.6636   0.6706   0.6773   0.7155   0.7344   0.7467
  0.7881   0.7934   0.8243   0.8615   0.8757   0.8869   0.8996   0.9227
  0.9529   0.9828   1.0040   1.0105   1.0644   1.0717   1.1066   1.1254
  1.1473   1.1627   1.1707   1.1965   1.2144   1.2311   1.2477   1.2609
  1.2865   1.3167   1.3249   1.3353   1.3697   1.3983   1.4275   1.4480
  1.4658   1.4966   1.5049   1.5324   1.5406   1.5583   1.5612   1.5707
  1.5924   1.6264   1.6565   1.6895   1.7005   1.7390   1.7538   1.8017
  1.8189   1.8936   1.9054   1.9198   1.9404   1.9898   2.0458   2.0896
  2.1363   2.1678   2.1773   2.2172   2.2490   2.2795   2.3324   2.4133
  2.4302   2.4633   2.4975   2.5104   2.5706   2.6000   2.6331   2.6489
  2.6900   2.7119   2.7283   2.7347   2.7504   2.7917   2.8224   2.8516
  2.8777   2.8951   2.9197   2.9319   2.9691   3.0101   3.0208   3.0572
  3.0788   3.0978   3.1260   3.1587   3.1746   3.1974   3.2189   3.2334
  3.2628   3.2743   3.3047   3.3058   3.3252   3.3397   3.3468   3.3704
  3.3992   3.4250   3.4395   3.4527   3.4571   3.4660   3.4936   3.5021
  3.5100   3.5260   3.5449   3.5894   3.5951   3.6300   3.6382   3.6705
  3.6812   3.6898   3.7211   3.7342   3.7390   3.7552   3.8080   3.8232
  3.8377   3.8748   3.9029   3.9181   3.9372   3.9582   3.9668   3.9735
  4.0080   4.0278   4.0409   4.0927   4.1202   4.1565   4.1656   4.1869
  4.2238   4.2286   4.2499   4.2919   4.2932   4.3685   4.3787   4.4195
  4.4303   4.4461   4.4686   4.4953   4.5667   4.5855   4.6232   4.6613
  4.6838   4.6956   4.7171   4.7689   4.7918   4.8157   4.8344   4.8732
  4.9582   4.9917   5.0198   5.0514   5.0749   5.1268   5.1797   5.2131
  5.2145   5.2868   5.3697   5.4138   5.4175   5.4885   5.5289   5.5977
  5.6288   5.7265   5.7970   5.8244   5.8961   5.9458   5.9985   6.0529
  6.0910   6.2884   6.4093   6.4615   6.6576   9.4013  11.2993  12.7461
 13.9575  14.2211
 --------------------------------------------------------------
 
          Ground-State Mulliken Net Atomic Charges

     Atom                 Charge (a.u.)
  ----------------------------------------
      1 C                     0.029099
      2 S                    -0.008156
      3 C                    -0.225244
      4 C                    -0.222706
      5 C                    -0.199444
      6 H                     0.182877
      7 H                     0.187201
      8 C                    -0.356719
      9 H                     0.117029
     10 H                     0.133301
     11 H                     0.158501
     12 H                     0.204262
  ----------------------------------------
  Sum of atomic charges =     0.000000

 -----------------------------------------------------------------
                    Cartesian Multipole Moments
 -----------------------------------------------------------------
    Charge (ESU x 10^10)
                -0.0000
    Dipole Moment (Debye)
         X       0.3835      Y      -0.2995      Z      -1.7869
       Tot       1.8519
    Quadrupole Moments (Debye-Ang)
        XX     -46.8750     XY       2.4663     YY     -36.6572
        XZ       0.2403     YZ       2.0878     ZZ     -42.1011
    Octopole Moments (Debye-Ang^2)
       XXX     -20.4411    XXY     -20.5064    XYY      -0.9473
       YYY     -40.1420    XXZ      -6.8246    XYZ       0.8326
       YYZ      -6.1269    XZZ      -4.2222    YZZ      -8.9294
       ZZZ     -27.7228
    Hexadecapole Moments (Debye-Ang^3)
      XXXX     -88.5199   XXXY     -49.5727   XXYY    -103.1358
      XYYY     -20.9003   YYYY    -487.6940   XXXZ      -2.7250
      XXYZ      -6.4142   XYYZ       2.0967   YYYZ      -7.1659
      XXZZ     -71.9466   XYZZ      -8.4188   YYZZ    -126.6941
      XZZZ      -1.4843   YZZZ     -20.0083   ZZZZ    -308.5369
 -----------------------------------------------------------------
 Total job time:  9.77s(wall), 530.59s(cpu) 
 Sun Sep 24 16:04:45 2023

        *************************************************************
        *                                                           *
        *  Thank you very much for using Q-Chem.  Have a nice day.  *
        *                                                           *
        *************************************************************


0 sent ACK to 0 
now end server 0 ... 
cleanup process ... done
remove work dirs ./qchem3743905.0 -- ./qchem3743905.0
rm -rf ./qchem3743905.0
rm -rf ./qchem3743905
