You are running Q-Chem version: 5.4.0

#
# job setting
#
local host:  exp-2-38
current dir: /expanse/lustre/projects/csd626/rramji/aromodel/PNDIT/Hydrogenated_Impropers_Test
input file:  Dimethyl_Naphthalene_Dicarboximide_Phi_0_Theta_80_Thiophene_Hydrogenated_Improper.qcin
output file: 
nprocs     : 1
nthreads   : 64
#
# qchem installation setting
#
QC:          /cm/shared/apps/spack/cpu/opt/spack/linux-centos8-zen2/gcc-10.2.0/qchem-5.4-akfmr7b3t57bfs6qan3padb2wnb2i7cl
QCAUX:       /cm/shared/apps/spack/cpu/opt/spack/linux-centos8-zen2/gcc-10.2.0/qchem-5.4-akfmr7b3t57bfs6qan3padb2wnb2i7cl/qcaux
QCPROG:      /cm/shared/apps/spack/cpu/opt/spack/linux-centos8-zen2/gcc-10.2.0/qchem-5.4-akfmr7b3t57bfs6qan3padb2wnb2i7cl/exe/qcprog.exe
QCPROG_S:    /cm/shared/apps/spack/cpu/opt/spack/linux-centos8-zen2/gcc-10.2.0/qchem-5.4-akfmr7b3t57bfs6qan3padb2wnb2i7cl/exe/qcprog.exe_s
PARALLEL:    -DPARALLEL
QCMPI:       mpich
#
# qchem directory setting
#
qcrun:       qchem3719395
QCSCRATCH:   .
QCLOCALSCR:  
QCTMPDIR:    .
QCFILEPREF:  ./qchem3719395
QCSAVEDIR:   
workdirs:    ./qchem3719395
workdir0:    ./qchem3719395
partmpdirs =  
#
# parallel setting
#
QCRSH:           ssh
QCMPI:           mpich
QCMPIRUN:        /cm/shared/apps/spack/cpu/opt/spack/linux-centos8-zen2/gcc-10.2.0/qchem-5.4-akfmr7b3t57bfs6qan3padb2wnb2i7cl/bin/mpi/mpirun_qchem
QCMACHINEFILE:   ./qchem3719395/hostfile
exp-2-38

#
# env setting
#
exported envs:   QC QCAUX QCSCRATCH QCRUNNAME QCFILEPREF QCPROG QCPROG_S GUIFILE

Running Job 1 of 1 Dimethyl_Naphthalene_Dicarboximide_Phi_0_Theta_80_Thiophene_Hydrogenated_Improper.qcin
qchem Dimethyl_Naphthalene_Dicarboximide_Phi_0_Theta_80_Thiophene_Hydrogenated_Improper.qcin_3719395.0 ./qchem3719395/ 1
/cm/shared/apps/spack/cpu/opt/spack/linux-centos8-zen2/gcc-10.2.0/qchem-5.4-akfmr7b3t57bfs6qan3padb2wnb2i7cl/bin/mpi/mpirun_qchem -machinefile ./qchem3719395/hostfile -np 1 /cm/shared/apps/spack/cpu/opt/spack/linux-centos8-zen2/gcc-10.2.0/qchem-5.4-akfmr7b3t57bfs6qan3padb2wnb2i7cl/exe/qcprog.exe Dimethyl_Naphthalene_Dicarboximide_Phi_0_Theta_80_Thiophene_Hydrogenated_Improper.qcin_3719395.0 ./qchem3719395/

Process 0 of 1 is on exp-2-38 - thread support 0
initial socket setup ...start
initial socket setup ...done 
now start server 0 ... 
                  Welcome to Q-Chem
     A Quantum Leap Into The Future Of Chemistry


 Q-Chem 5.4, Q-Chem, Inc., Pleasanton, CA (2021)

 License issued to: University of California, San Diego (site)

 E. Epifanovsky,  A. T. B. Gilbert,  Xintian Feng,  Joonho Lee,  Yuezhi Mao,  
 N. Mardirossian,  P. Pokhilko,  A. White,  M. Wormit,  M. P. Coons,  
 A. L. Dempwolff,  Zhengting Gan,  D. Hait,  P. R. Horn,  L. D. Jacobson,  
 I. Kaliman,  J. Kussmann,  A. W. Lange,  Ka Un Lao,  D. S. Levine,  Jie Liu,  
 S. C. McKenzie,  A. F. Morrison,  K. Nanda,  F. Plasser,  D. R. Rehn,  
 M. L. Vidal,  Zhi-Qiang You,  Ying Zhu,  B. Alam,  B. Albrecht,  
 A. Aldossary,  E. Alguire,  J. H. Andersen,  D. Barton,  K. Begam,  A. Behn,  
 Y. A. Bernard,  E. J. Berquist,  H. Burton,  A. Carreras,  K. Carter-Fenk,  
 R. Chakraborty,  A. D. Chien,  K. D. Closser,  V. Cofer-Shabica,  
 S. Dasgupta,  Jia Deng,  M. de Wergifosse,  M. Diedenhofen,  Hainam Do,  
 S. Ehlert,  Po-Tung Fang,  S. Fatehi,  Qingguo Feng,  J. Gayvert,  
 Qinghui Ge,  G. Gidofalvi,  M. Goldey,  J. Gomes,  C. Gonzalez-Espinoza,  
 S. Gulania,  A. Gunina,  M. W. D. Hanson-Heine,  P. H. P. Harbach,  
 A. W. Hauser,  M. F. Herbst,  M. Hernandez Vera,  M. Hodecker,  
 Z. C. Holden,  S. Houck,  Xunkun Huang,  Kerwin Hui,  B. C. Huynh,  
 M. Ivanov,  Hyunjun Ji,  Hanjie Jiang,  B. Kaduk,  S. Kaehler,  
 K. Khistyaev,  Jaehoon Kim,  P. Klunzinger,  Z. Koczor-Benda,  
 Joong Hoon Koh,  D. Kosenkov,  L. Koulias,  T. Kowalczyk,  C. M. Krauter,  
 K. Kue,  A. Kunitsa,  T. Kus,  A. Landau,  K. V. Lawler,  D. Lefrancois,  
 S. Lehtola,  Rain Li,  Yi-Pei Li,  Jiashu Liang,  M. Liebenthal,  
 Hung-Hsuan Lin,  You-Sheng Lin,  Fenglai Liu,  Kuan-Yu Liu,  
 M. Loipersberger,  A. Luenser,  A. Manjanath,  P. Manohar,  E. Mansoor,  
 S. F. Manzer,  Shan-Ping Mao,  A. V. Marenich,  T. Markovich,  S. Mason,  
 S. A. Maurer,  P. F. McLaughlin,  M. F. S. J. Menger,  J.-M. Mewes,  
 S. A. Mewes,  P. Morgante,  J. W. Mullinax,  T. S. Nguyen-Beck,  
 K. J. Oosterbaan,  G. Paran,  Alexander C. Paul,  Suranjan K. Paul,  
 F. Pavosevic,  Zheng Pei,  S. Prager,  E. I. Proynov,  E. Ramos,  B. Rana,  
 A. E. Rask,  A. Rettig,  R. M. Richard,  F. Rob,  E. Rossomme,  T. Scheele,  
 M. Scheurer,  M. Schneider,  N. Sergueev,  S. M. Sharada,  W. Skomorowski,  
 D. W. Small,  C. J. Stein,  Yu-Chuan Su,  E. J. Sundstrom,  Zhen Tao,  
 J. Thirman,  T. Tsuchimochi,  N. M. Tubman,  S. P. Veccham,  O. Vydrov,  
 J. Wenzel,  J. Witte,  A. Yamada,  Kun Yao,  S. Yeganeh,  S. R. Yost,  
 A. Zech,  Igor Ying Zhang,  Xing Zhang,  Yu Zhang,  D. Zuev,  
 A. Aspuru-Guzik,  A. T. Bell,  N. A. Besley,  K. B. Bravaya,  B. R. Brooks,  
 D. Casanova,  Jeng-Da Chai,  S. Coriani,  C. J. Cramer,  
 A. E. DePrince, III,  R. A. DiStasio Jr.,  A. Dreuw,  B. D. Dunietz,  
 T. R. Furlani,  W. A. Goddard III,  S. Grimme,  S. Hammes-Schiffer,  
 T. Head-Gordon,  W. J. Hehre,  Chao-Ping Hsu,  T.-C. Jagau,  Yousung Jung,  
 A. Klamt,  Jing Kong,  D. S. Lambrecht,  WanZhen Liang,  N. J. Mayhall,  
 C. W. McCurdy,  J. B. Neaton,  C. Ochsenfeld,  J. A. Parkhill,  R. Peverati,  
 V. A. Rassolov,  Yihan Shao,  L. V. Slipchenko,  T. Stauch,  R. P. Steele,  
 J. E. Subotnik,  A. J. W. Thom,  A. Tkatchenko,  D. G. Truhlar,  
 T. Van Voorhis,  T. A. Wesolowski,  K. B. Whaley,  H. L. Woodcock III,  
 P. M. Zimmerman,  S. Faraji,  P. M. W. Gill,  M. Head-Gordon,  
 J. M. Herbert,  A. I. Krylov

 Contributors to earlier versions of Q-Chem not listed above: 
 R. D. Adamson,  B. Austin,  R. Baer,  J. Baker,  G. J. O. Beran,  
 K. Brandhorst,  S. T. Brown,  E. F. C. Byrd,  A. K. Chakraborty,  
 G. K. L. Chan,  Chun-Min Chang,  Yunqing Chen,  C.-L. Cheng,  
 Siu Hung Chien,  D. M. Chipman,  D. L. Crittenden,  H. Dachsel,  
 R. J. Doerksen,  A. D. Dutoi,  R. G. Edgar,  J. Fosso-Tande,  
 L. Fusti-Molnar,  D. Ghosh,  A. Ghysels,  A. Golubeva-Zadorozhnaya,  
 J. Gonthier,  M. S. Gordon,  S. R. Gwaltney,  G. Hawkins,  J. E. Herr,  
 A. Heyden,  S. Hirata,  E. G. Hohenstein,  G. Kedziora,  F. J. Keil,  
 C. Kelley,  Jihan Kim,  R. A. King,  R. Z. Khaliullin,  P. P. Korambath,  
 W. Kurlancheek,  A. Laurent,  A. M. Lee,  M. S. Lee,  S. V. Levchenko,  
 Ching Yeh Lin,  D. Liotard,  E. Livshits,  R. C. Lochan,  I. Lotan,  
 L. A. Martinez-Martinez,  P. E. Maslen,  N. Nair,  D. P. O'Neill,  
 D. Neuhauser,  E. Neuscamman,  C. M. Oana,  R. Olivares-Amaya,  R. Olson,  
 T. M. Perrine,  B. Peters,  P. A. Pieniazek,  A. Prociuk,  Y. M. Rhee,  
 J. Ritchie,  M. A. Rohrdanz,  E. Rosta,  N. J. Russ,  H. F. Schaefer III,  
 M. W. Schmidt,  N. E. Schultz,  S. Sharma,  N. Shenvi,  C. D. Sherrill,  
 A. C. Simmonett,  A. Sodt,  T. Stein,  D. Stuck,  K. S. Thanthiriwatte,  
 V. Vanovschi,  L. Vogt,  Tao Wang,  A. Warshel,  M. A. Watson,  
 C. F. Williams,  Q. Wu,  X. Xu,  Jun Yang,  W. Zhang,  Yan Zhao

 Please cite Q-Chem as follows:
 Y. Shao et al., Mol. Phys. 113, 184-215 (2015)
 DOI: 10.1080/00268976.2014.952696

 Q-Chem 5.4.0 for Intel X86 EM64T Linux

 Parts of Q-Chem use Armadillo 9.800.1 (Horizon Scraper).
 http://arma.sourceforge.net/

 Q-Chem begins on Sun Sep 24 15:04:07 2023  

 Host: 
0

     Scratch files written to ./qchem3719395//
 May1621 |scratch|qcdevops|jenkins|workspace|build_RNUM    
 Parallel job on  1  processors
 Processing $rem in /cm/shared/apps/spack/cpu/opt/spack/linux-centos8-zen2/gcc-10.2.0/qchem-5.4-akfmr7b3t57bfs6qan3padb2wnb2i7cl/config/preferences:
 Processing $rem in /home/rramji/.qchemrc:
 Symmetry turned off for PCM/SM12/SMD calculation
 Core orbitals will be frozen

 Checking the input file for inconsistencies... 	...done.

 Q-Chem warning in module forms1/BasisType.C, line 2236:

 You are not using the predefined 5D/6D in this basis set.


--------------------------------------------------------------
User input:
--------------------------------------------------------------
$molecule
0 1
C	-0.000003	-0.399361	-0.220089
S	-0.000203	0.393839	1.360411
C	-0.000203	2.031539	0.684811
C	-0.000203	0.598639	-1.205489
C	-0.000303	1.918839	-0.713589
H	-0.000103	0.362939	-2.279989
H	-0.000303	2.799839	-1.372689
C	-0.000003	-1.877561	-0.220089
H	0.186997	-1.878161	0.843611
H	-0.971603	-2.316861	-0.048789
H	0.800597	-2.588561	-0.361389
H	-0.000303	2.912239	1.335911
$end

$rem
JOBTYPE		SP
EXCHANGE	HF
CORRELATION	pRIMP2
BASIS		cc-pvtz
METHOD		rimp2
AUX_BASIS	rimp2-cc-pvtz
SOLVENT_METHOD	PCM
PURECART	11111
SYMMETRY	false
MEM_TOTAL	110000
SCF_CONVERGENCE = 6
THRESH=10
GUI = 2
$end



$solvent
dielectric 4.90
$end
--------------------------------------------------------------
 ----------------------------------------------------------------
             Standard Nuclear Orientation (Angstroms)
    I     Atom           X                Y                Z
 ----------------------------------------------------------------
    1      C      -0.0000030000    -0.3993610000    -0.2200890000
    2      S      -0.0002030000     0.3938390000     1.3604110000
    3      C      -0.0002030000     2.0315390000     0.6848110000
    4      C      -0.0002030000     0.5986390000    -1.2054890000
    5      C      -0.0003030000     1.9188390000    -0.7135890000
    6      H      -0.0001030000     0.3629390000    -2.2799890000
    7      H      -0.0003030000     2.7998390000    -1.3726890000
    8      C      -0.0000030000    -1.8775610000    -0.2200890000
    9      H       0.1869970000    -1.8781610000     0.8436110000
   10      H      -0.9716030000    -2.3168610000    -0.0487890000
   11      H       0.8005970000    -2.5885610000    -0.3613890000
   12      H      -0.0003030000     2.9122390000     1.3359110000
 ----------------------------------------------------------------
 Nuclear Repulsion Energy =         270.74371597 hartrees
 There are       26 alpha and       26 beta electrons
 Requested basis set is cc-pVTZ
 There are 98 shells and 268 basis functions

 Total QAlloc Memory Limit 110000 MB
 Mega-Array Size       188 MB
 MEM_STATIC part       192 MB
 Discretize the solute cavity surface with Lebedev spheres
	Using 110 Lebedev grid points for each H atom
	Using 194 Lebedev grid points for other atoms
	Atomic van der Waals radii will be scaled by 1.20
 Remove points where switching function is < 1.0e-08
 Keep 882 surface tesserae and discard 942 interior tesserae
 Molecular Surface Area = 137.796 Angst**2

                       Distance Matrix (Angstroms)
             C (  1)   S (  2)   C (  3)   C (  4)   C (  5)   H (  6)
   S (  2)  1.768374
   C (  3)  2.593862  1.771580
   C (  4)  1.402504  2.574060  2.372011
   C (  5)  2.370146  2.574316  1.402934  1.408863
   H (  6)  2.196426  3.640531  3.402097  1.100048  2.207812
   H (  7)  3.400495  3.641246  2.196268  2.207541  1.100261  2.600322
   C (  8)  1.478200  2.767172  4.012469  2.665067  3.828341  3.043522
   H (  9)  1.831195  2.337544  3.917399  3.219999  4.108182  3.848950
   H ( 10)  2.156422  3.205832  4.515570  3.283552  4.396196  3.619861
   H ( 11)  2.335278  3.535617  4.804283  3.392938  4.591529  3.610194
   H ( 12)  3.658938  2.518519  1.095246  3.436780  2.277563  4.424213
             H (  7)   C (  8)   H (  9)   H ( 10)   H ( 11)
   C (  8)  4.817319
   H (  9)  5.179841  1.080013
   H ( 10)  5.373709  1.079970  1.526823
   H ( 11)  5.540670  1.080022  1.527481  1.819954
   H ( 12)  2.710931  5.036201  4.819271  5.495844  5.812148
 
 Requested basis set is rimp2-cc-pVTZ
 There are 207 shells and 707 basis functions
 A cutoff of  1.0D-10 yielded   4367 shell pairs
 There are     32651 function pairs (     42189 Cartesian)
 Smallest overlap matrix eigenvalue = 1.18E-04

 Scale SEOQF with 1.000000e+00/1.000000e-01/1.000000e-01

 Standard Electronic Orientation quadrupole field applied
 Nucleus-field energy     =     0.0000000023 hartrees
 Guess from superposition of atomic densities
 Warning:  Energy on first SCF cycle will be non-variational
 SAD guess density has 52.000000 electrons

 -----------------------------------------------------------------------
  General SCF calculation program by
  Eric Jon Sundstrom, Paul Horn, Yuezhi Mao, Dmitri Zuev, Alec White,
  David Stuck, Shaama M.S., Shane Yost, Joonho Lee, David Small,
  Daniel Levine, Susi Lehtola, Hugh Burton, Evgeny Epifanovsky,
  Bang C. Huynh
 -----------------------------------------------------------------------
 Hartree-Fock
 using 64 threads for integral computing
 -------------------------------------------------------
 OpenMP Integral computing Module                
 Release: version 1.0, May 2013, Q-Chem Inc. Pittsburgh 
 -------------------------------------------------------
 A restricted SCF calculation will be
 performed using DIIS
 SCF converges when DIIS error is below 1.0e-06
 ---------------------------------------
  Cycle       Energy         DIIS error
 ---------------------------------------
    1    -592.5921460219      3.23e-02  
    2    -590.3003160651      2.19e-03  
    3    -590.3614787007      8.21e-04  
    4    -590.3686279821      3.87e-04  
    5    -590.3705685743      7.15e-05  
    6    -590.3706966860      3.13e-05  
    7    -590.3707284055      1.46e-05  
    8    -590.3707379651      5.80e-06  
    9    -590.3707394460      2.04e-06  
   10    -590.3707395936      5.86e-07  Convergence criterion met
 ---------------------------------------
 SCF time:   CPU 488.16s  wall 8.00s 

************** Final PCM Free Energy Summary **************
 G_electrostatic  =      -0.00530392 hartree =      -3.32825861 kcal/mol
 G_cavitation     =       0.00000000 hartree =       0.00000000 kcal/mol
 G_dispersion     =       0.00000000 hartree =       0.00000000 kcal/mol
 G_repulsion      =       0.00000000 hartree =       0.00000000 kcal/mol
 --------------------------------------------------
 Non-electrostatic Free Energy =       0.00000000 hartree =       0.00000000 kcal/mol
 Total                         =      -0.00530392 hartree =      -3.32825861 kcal/mol
 --------------------------------------------------
 SCF Energy (H0 + V/2)                       =    -590.37073959 
 Solute Internal Energy (H0)                 =    -590.36543568 
 Total Free Energy (H0 + V/2 + non-elec)     =    -590.37073959 hartree
                                             = -370463.23049624 kcal/mol
***********************************************************

 SCF   energy in the final basis set =     -590.3707395936
 Total energy in the final basis set =     -590.3707395936


 --------------------------------------------------------------
  Generalized many-body perturbation theory program
  by Joonho Lee, Fazle Rob, Xintian Feng, Evgeny Epifanovsky

 No regularization used 
 (reg. param. = 0.0000e+00)
  (P|Q)^-1/2 Time:  CPU 6.09 s  wall 0.10 s

 In RI-MP2 calculation: 
 # of frozen core orbitals: 10

 Components of the RIMP2 correlation energy:
        aaaa    correlation energy =        -0.1253292468 a.u.
        abab    correlation energy =        -0.7511521239 a.u.
        bbbb    correlation energy =        -0.1253292468 a.u.
        non-Brillouin singles      =        -0.0000000000 a.u.
        total same-spin energy     =        -0.2506584935 a.u.
        total opposite-spin energy =        -0.7511521239 a.u.

 Total  RIMP2   correlation energy =        -1.0018106174 a.u.
        RIMP2         total energy =      -591.3725502110 a.u.

 RI-MP2 Energy Time:  CPU 23.97 s  wall 0.41 s
 
 --------------------------------------------------------------
 
                    Orbital Energies (a.u.)
 --------------------------------------------------------------
 
 Alpha MOs
 -- Occupied --
-91.9809 -11.2832 -11.2692 -11.2430 -11.2359 -11.2238  -8.9807  -6.6616
 -6.6611  -6.6605  -1.1580  -1.0400  -0.9731  -0.9184  -0.7587  -0.7203
 -0.6718  -0.5971  -0.5690  -0.5628  -0.5348  -0.5010  -0.4628  -0.4498
 -0.3467  -0.3117
 -- Virtual --
  0.1047   0.1446   0.1608   0.1742   0.1927   0.1978   0.2068   0.2291
  0.2350   0.2827   0.3017   0.3140   0.3656   0.3761   0.3917   0.3969
  0.4256   0.4527   0.4569   0.4632   0.4966   0.5097   0.5323   0.5347
  0.5597   0.5655   0.5706   0.5772   0.6049   0.6105   0.6160   0.6250
  0.6323   0.6455   0.6522   0.6565   0.6862   0.7221   0.7380   0.7492
  0.7812   0.7988   0.8205   0.8663   0.8739   0.8904   0.8951   0.9239
  0.9670   0.9712   0.9996   1.0066   1.0572   1.0785   1.1127   1.1220
  1.1272   1.1592   1.1724   1.2072   1.2169   1.2400   1.2468   1.2635
  1.2849   1.3030   1.3530   1.3599   1.3924   1.4079   1.4172   1.4384
  1.4739   1.4826   1.4949   1.5301   1.5530   1.5640   1.5742   1.5861
  1.5924   1.6284   1.6421   1.6682   1.7054   1.7442   1.7743   1.8289
  1.8356   1.8803   1.9211   1.9307   1.9516   1.9644   2.0535   2.0905
  2.1526   2.1750   2.2163   2.2177   2.2498   2.2889   2.3333   2.4211
  2.4273   2.4687   2.4989   2.5122   2.5642   2.6002   2.6012   2.6590
  2.6839   2.7273   2.7354   2.7400   2.7526   2.7925   2.7953   2.8220
  2.8699   2.8903   2.9093   2.9508   2.9935   3.0160   3.0259   3.0544
  3.0653   3.1317   3.1443   3.1559   3.1722   3.1938   3.2264   3.2434
  3.2521   3.2750   3.2945   3.3068   3.3131   3.3412   3.3529   3.3673
  3.3918   3.4025   3.4393   3.4464   3.4529   3.4679   3.5007   3.5048
  3.5112   3.5171   3.5473   3.5870   3.6050   3.6232   3.6552   3.6605
  3.6787   3.6997   3.7272   3.7396   3.7705   3.8027   3.8141   3.8331
  3.8482   3.8877   3.9063   3.9259   3.9435   3.9515   3.9633   3.9816
  4.0112   4.0410   4.0463   4.1105   4.1200   4.1552   4.1642   4.1757
  4.2108   4.2320   4.2559   4.2886   4.3023   4.3294   4.4011   4.4047
  4.4239   4.4418   4.4793   4.5000   4.5277   4.5440   4.6248   4.6435
  4.6727   4.6895   4.6931   4.7234   4.8005   4.8157   4.8490   4.9269
  4.9510   5.0156   5.0242   5.0501   5.0738   5.1510   5.1858   5.2244
  5.2566   5.2910   5.3594   5.4157   5.4445   5.4926   5.5363   5.5882
  5.6399   5.7265   5.8076   5.8196   5.8727   5.8835   6.0093   6.0736
  6.1264   6.2965   6.4357   6.4558   6.6806   9.3990  11.2799  12.7910
 14.0281  14.2395
 --------------------------------------------------------------
 
          Ground-State Mulliken Net Atomic Charges

     Atom                 Charge (a.u.)
  ----------------------------------------
      1 C                     0.027291
      2 S                    -0.005481
      3 C                    -0.235895
      4 C                    -0.215041
      5 C                    -0.190220
      6 H                     0.185316
      7 H                     0.185900
      8 C                    -0.349248
      9 H                     0.111724
     10 H                     0.126009
     11 H                     0.153092
     12 H                     0.206552
  ----------------------------------------
  Sum of atomic charges =     0.000000

 -----------------------------------------------------------------
                    Cartesian Multipole Moments
 -----------------------------------------------------------------
    Charge (ESU x 10^10)
                -0.0000
    Dipole Moment (Debye)
         X       0.0916      Y      -0.2165      Z      -0.4334
       Tot       0.4930
    Quadrupole Moments (Debye-Ang)
        XX     -47.4697     XY      -0.4350     YY     -36.0520
        XZ      -0.1381     YZ      -0.3396     ZZ     -42.4118
    Octopole Moments (Debye-Ang^2)
       XXX      -0.1937    XXY     -23.2141    XYY       1.6844
       YYY     -39.9972    XXZ      -7.5255    XYZ       0.4919
       YYZ      -1.2900    XZZ       0.0996    YZZ      -8.2369
       ZZZ     -28.8196
    Hexadecapole Moments (Debye-Ang^3)
      XXXX     -65.2687   XXXY       0.5226   XXYY    -111.1481
      XYYY      -5.2252   YYYY    -500.6300   XXXZ      -0.1498
      XXYZ      -5.3854   XYYZ      -1.3863   YYYZ     -10.3817
      XXZZ     -69.4512   XYZZ      -0.1258   YYZZ    -130.1890
      XZZZ       0.4451   YZZZ     -12.9922   ZZZZ    -302.8190
 -----------------------------------------------------------------
 Total job time:  10.55s(wall), 552.00s(cpu) 
 Sun Sep 24 15:04:18 2023

        *************************************************************
        *                                                           *
        *  Thank you very much for using Q-Chem.  Have a nice day.  *
        *                                                           *
        *************************************************************


0 sent ACK to 0 
now end server 0 ... 
cleanup process ... done
remove work dirs ./qchem3719395.0 -- ./qchem3719395.0
rm -rf ./qchem3719395.0
rm -rf ./qchem3719395
