You are running Q-Chem version: 5.4.0

#
# job setting
#
local host:  exp-3-45
current dir: /expanse/lustre/projects/csd626/rramji/aromodel/PNDIT/Hydrogenated_Impropers_Test
input file:  Dimethyl_Naphthalene_Dicarboximide_Phi_20_Theta_270_Thiophene_Hydrogenated_Improper.qcin
output file: 
nprocs     : 1
nthreads   : 64
#
# qchem installation setting
#
QC:          /cm/shared/apps/spack/cpu/opt/spack/linux-centos8-zen2/gcc-10.2.0/qchem-5.4-akfmr7b3t57bfs6qan3padb2wnb2i7cl
QCAUX:       /cm/shared/apps/spack/cpu/opt/spack/linux-centos8-zen2/gcc-10.2.0/qchem-5.4-akfmr7b3t57bfs6qan3padb2wnb2i7cl/qcaux
QCPROG:      /cm/shared/apps/spack/cpu/opt/spack/linux-centos8-zen2/gcc-10.2.0/qchem-5.4-akfmr7b3t57bfs6qan3padb2wnb2i7cl/exe/qcprog.exe
QCPROG_S:    /cm/shared/apps/spack/cpu/opt/spack/linux-centos8-zen2/gcc-10.2.0/qchem-5.4-akfmr7b3t57bfs6qan3padb2wnb2i7cl/exe/qcprog.exe_s
PARALLEL:    -DPARALLEL
QCMPI:       mpich
#
# qchem directory setting
#
qcrun:       qchem117896
QCSCRATCH:   .
QCLOCALSCR:  
QCTMPDIR:    .
QCFILEPREF:  ./qchem117896
QCSAVEDIR:   
workdirs:    ./qchem117896
workdir0:    ./qchem117896
partmpdirs =  
#
# parallel setting
#
QCRSH:           ssh
QCMPI:           mpich
QCMPIRUN:        /cm/shared/apps/spack/cpu/opt/spack/linux-centos8-zen2/gcc-10.2.0/qchem-5.4-akfmr7b3t57bfs6qan3padb2wnb2i7cl/bin/mpi/mpirun_qchem
QCMACHINEFILE:   ./qchem117896/hostfile
exp-3-45

#
# env setting
#
exported envs:   QC QCAUX QCSCRATCH QCRUNNAME QCFILEPREF QCPROG QCPROG_S GUIFILE

Running Job 1 of 1 Dimethyl_Naphthalene_Dicarboximide_Phi_20_Theta_270_Thiophene_Hydrogenated_Improper.qcin
qchem Dimethyl_Naphthalene_Dicarboximide_Phi_20_Theta_270_Thiophene_Hydrogenated_Improper.qcin_117896.0 ./qchem117896/ 1
/cm/shared/apps/spack/cpu/opt/spack/linux-centos8-zen2/gcc-10.2.0/qchem-5.4-akfmr7b3t57bfs6qan3padb2wnb2i7cl/bin/mpi/mpirun_qchem -machinefile ./qchem117896/hostfile -np 1 /cm/shared/apps/spack/cpu/opt/spack/linux-centos8-zen2/gcc-10.2.0/qchem-5.4-akfmr7b3t57bfs6qan3padb2wnb2i7cl/exe/qcprog.exe Dimethyl_Naphthalene_Dicarboximide_Phi_20_Theta_270_Thiophene_Hydrogenated_Improper.qcin_117896.0 ./qchem117896/

Process 0 of 1 is on exp-3-45 - thread support 0
initial socket setup ...start
initial socket setup ...done 
now start server 0 ... 
                  Welcome to Q-Chem
     A Quantum Leap Into The Future Of Chemistry


 Q-Chem 5.4, Q-Chem, Inc., Pleasanton, CA (2021)

 License issued to: University of California, San Diego (site)

 E. Epifanovsky,  A. T. B. Gilbert,  Xintian Feng,  Joonho Lee,  Yuezhi Mao,  
 N. Mardirossian,  P. Pokhilko,  A. White,  M. Wormit,  M. P. Coons,  
 A. L. Dempwolff,  Zhengting Gan,  D. Hait,  P. R. Horn,  L. D. Jacobson,  
 I. Kaliman,  J. Kussmann,  A. W. Lange,  Ka Un Lao,  D. S. Levine,  Jie Liu,  
 S. C. McKenzie,  A. F. Morrison,  K. Nanda,  F. Plasser,  D. R. Rehn,  
 M. L. Vidal,  Zhi-Qiang You,  Ying Zhu,  B. Alam,  B. Albrecht,  
 A. Aldossary,  E. Alguire,  J. H. Andersen,  D. Barton,  K. Begam,  A. Behn,  
 Y. A. Bernard,  E. J. Berquist,  H. Burton,  A. Carreras,  K. Carter-Fenk,  
 R. Chakraborty,  A. D. Chien,  K. D. Closser,  V. Cofer-Shabica,  
 S. Dasgupta,  Jia Deng,  M. de Wergifosse,  M. Diedenhofen,  Hainam Do,  
 S. Ehlert,  Po-Tung Fang,  S. Fatehi,  Qingguo Feng,  J. Gayvert,  
 Qinghui Ge,  G. Gidofalvi,  M. Goldey,  J. Gomes,  C. Gonzalez-Espinoza,  
 S. Gulania,  A. Gunina,  M. W. D. Hanson-Heine,  P. H. P. Harbach,  
 A. W. Hauser,  M. F. Herbst,  M. Hernandez Vera,  M. Hodecker,  
 Z. C. Holden,  S. Houck,  Xunkun Huang,  Kerwin Hui,  B. C. Huynh,  
 M. Ivanov,  Hyunjun Ji,  Hanjie Jiang,  B. Kaduk,  S. Kaehler,  
 K. Khistyaev,  Jaehoon Kim,  P. Klunzinger,  Z. Koczor-Benda,  
 Joong Hoon Koh,  D. Kosenkov,  L. Koulias,  T. Kowalczyk,  C. M. Krauter,  
 K. Kue,  A. Kunitsa,  T. Kus,  A. Landau,  K. V. Lawler,  D. Lefrancois,  
 S. Lehtola,  Rain Li,  Yi-Pei Li,  Jiashu Liang,  M. Liebenthal,  
 Hung-Hsuan Lin,  You-Sheng Lin,  Fenglai Liu,  Kuan-Yu Liu,  
 M. Loipersberger,  A. Luenser,  A. Manjanath,  P. Manohar,  E. Mansoor,  
 S. F. Manzer,  Shan-Ping Mao,  A. V. Marenich,  T. Markovich,  S. Mason,  
 S. A. Maurer,  P. F. McLaughlin,  M. F. S. J. Menger,  J.-M. Mewes,  
 S. A. Mewes,  P. Morgante,  J. W. Mullinax,  T. S. Nguyen-Beck,  
 K. J. Oosterbaan,  G. Paran,  Alexander C. Paul,  Suranjan K. Paul,  
 F. Pavosevic,  Zheng Pei,  S. Prager,  E. I. Proynov,  E. Ramos,  B. Rana,  
 A. E. Rask,  A. Rettig,  R. M. Richard,  F. Rob,  E. Rossomme,  T. Scheele,  
 M. Scheurer,  M. Schneider,  N. Sergueev,  S. M. Sharada,  W. Skomorowski,  
 D. W. Small,  C. J. Stein,  Yu-Chuan Su,  E. J. Sundstrom,  Zhen Tao,  
 J. Thirman,  T. Tsuchimochi,  N. M. Tubman,  S. P. Veccham,  O. Vydrov,  
 J. Wenzel,  J. Witte,  A. Yamada,  Kun Yao,  S. Yeganeh,  S. R. Yost,  
 A. Zech,  Igor Ying Zhang,  Xing Zhang,  Yu Zhang,  D. Zuev,  
 A. Aspuru-Guzik,  A. T. Bell,  N. A. Besley,  K. B. Bravaya,  B. R. Brooks,  
 D. Casanova,  Jeng-Da Chai,  S. Coriani,  C. J. Cramer,  
 A. E. DePrince, III,  R. A. DiStasio Jr.,  A. Dreuw,  B. D. Dunietz,  
 T. R. Furlani,  W. A. Goddard III,  S. Grimme,  S. Hammes-Schiffer,  
 T. Head-Gordon,  W. J. Hehre,  Chao-Ping Hsu,  T.-C. Jagau,  Yousung Jung,  
 A. Klamt,  Jing Kong,  D. S. Lambrecht,  WanZhen Liang,  N. J. Mayhall,  
 C. W. McCurdy,  J. B. Neaton,  C. Ochsenfeld,  J. A. Parkhill,  R. Peverati,  
 V. A. Rassolov,  Yihan Shao,  L. V. Slipchenko,  T. Stauch,  R. P. Steele,  
 J. E. Subotnik,  A. J. W. Thom,  A. Tkatchenko,  D. G. Truhlar,  
 T. Van Voorhis,  T. A. Wesolowski,  K. B. Whaley,  H. L. Woodcock III,  
 P. M. Zimmerman,  S. Faraji,  P. M. W. Gill,  M. Head-Gordon,  
 J. M. Herbert,  A. I. Krylov

 Contributors to earlier versions of Q-Chem not listed above: 
 R. D. Adamson,  B. Austin,  R. Baer,  J. Baker,  G. J. O. Beran,  
 K. Brandhorst,  S. T. Brown,  E. F. C. Byrd,  A. K. Chakraborty,  
 G. K. L. Chan,  Chun-Min Chang,  Yunqing Chen,  C.-L. Cheng,  
 Siu Hung Chien,  D. M. Chipman,  D. L. Crittenden,  H. Dachsel,  
 R. J. Doerksen,  A. D. Dutoi,  R. G. Edgar,  J. Fosso-Tande,  
 L. Fusti-Molnar,  D. Ghosh,  A. Ghysels,  A. Golubeva-Zadorozhnaya,  
 J. Gonthier,  M. S. Gordon,  S. R. Gwaltney,  G. Hawkins,  J. E. Herr,  
 A. Heyden,  S. Hirata,  E. G. Hohenstein,  G. Kedziora,  F. J. Keil,  
 C. Kelley,  Jihan Kim,  R. A. King,  R. Z. Khaliullin,  P. P. Korambath,  
 W. Kurlancheek,  A. Laurent,  A. M. Lee,  M. S. Lee,  S. V. Levchenko,  
 Ching Yeh Lin,  D. Liotard,  E. Livshits,  R. C. Lochan,  I. Lotan,  
 L. A. Martinez-Martinez,  P. E. Maslen,  N. Nair,  D. P. O'Neill,  
 D. Neuhauser,  E. Neuscamman,  C. M. Oana,  R. Olivares-Amaya,  R. Olson,  
 T. M. Perrine,  B. Peters,  P. A. Pieniazek,  A. Prociuk,  Y. M. Rhee,  
 J. Ritchie,  M. A. Rohrdanz,  E. Rosta,  N. J. Russ,  H. F. Schaefer III,  
 M. W. Schmidt,  N. E. Schultz,  S. Sharma,  N. Shenvi,  C. D. Sherrill,  
 A. C. Simmonett,  A. Sodt,  T. Stein,  D. Stuck,  K. S. Thanthiriwatte,  
 V. Vanovschi,  L. Vogt,  Tao Wang,  A. Warshel,  M. A. Watson,  
 C. F. Williams,  Q. Wu,  X. Xu,  Jun Yang,  W. Zhang,  Yan Zhao

 Please cite Q-Chem as follows:
 Y. Shao et al., Mol. Phys. 113, 184-215 (2015)
 DOI: 10.1080/00268976.2014.952696

 Q-Chem 5.4.0 for Intel X86 EM64T Linux

 Parts of Q-Chem use Armadillo 9.800.1 (Horizon Scraper).
 http://arma.sourceforge.net/

 Q-Chem begins on Sun Sep 24 15:11:03 2023  

 Host: 
0

     Scratch files written to ./qchem117896//
 May1621 |scratch|qcdevops|jenkins|workspace|build_RNUM    
 Parallel job on  1  processors
 Processing $rem in /cm/shared/apps/spack/cpu/opt/spack/linux-centos8-zen2/gcc-10.2.0/qchem-5.4-akfmr7b3t57bfs6qan3padb2wnb2i7cl/config/preferences:
 Processing $rem in /home/rramji/.qchemrc:
 Symmetry turned off for PCM/SM12/SMD calculation
 Core orbitals will be frozen

 Checking the input file for inconsistencies... 	...done.

 Q-Chem warning in module forms1/BasisType.C, line 2236:

 You are not using the predefined 5D/6D in this basis set.


--------------------------------------------------------------
User input:
--------------------------------------------------------------
$molecule
0 1
C	-0.178149	-0.368118	-0.208929
S	0.092951	0.377282	1.371571
C	0.653051	1.916282	0.695971
C	0.163051	0.569782	-1.194329
C	0.614451	1.810382	-0.702429
H	0.082451	0.348282	-2.268829
H	0.915751	2.638182	-1.361529
C	-0.178149	-1.846318	-0.208929
H	-0.177649	-1.846918	-1.288929
H	0.808451	-2.285618	-0.208929
H	-0.991149	-2.557318	-0.208829
H	0.954151	2.743882	1.347071
$end

$rem
JOBTYPE		SP
EXCHANGE	HF
CORRELATION	pRIMP2
BASIS		cc-pvtz
METHOD		rimp2
AUX_BASIS	rimp2-cc-pvtz
SOLVENT_METHOD	PCM
PURECART	11111
SYMMETRY	false
MEM_TOTAL	110000
SCF_CONVERGENCE = 6
THRESH=10
GUI = 2
$end



$solvent
dielectric 4.90
$end
--------------------------------------------------------------
 ----------------------------------------------------------------
             Standard Nuclear Orientation (Angstroms)
    I     Atom           X                Y                Z
 ----------------------------------------------------------------
    1      C      -0.1781490000    -0.3681180000    -0.2089290000
    2      S       0.0929510000     0.3772820000     1.3715710000
    3      C       0.6530510000     1.9162820000     0.6959710000
    4      C       0.1630510000     0.5697820000    -1.1943290000
    5      C       0.6144510000     1.8103820000    -0.7024290000
    6      H       0.0824510000     0.3482820000    -2.2688290000
    7      H       0.9157510000     2.6381820000    -1.3615290000
    8      C      -0.1781490000    -1.8463180000    -0.2089290000
    9      H      -0.1776490000    -1.8469180000    -1.2889290000
   10      H       0.8084510000    -2.2856180000    -0.2089290000
   11      H      -0.9911490000    -2.5573180000    -0.2088290000
   12      H       0.9541510000     2.7438820000     1.3470710000
 ----------------------------------------------------------------
 Nuclear Repulsion Energy =         270.51797553 hartrees
 There are       26 alpha and       26 beta electrons
 Requested basis set is cc-pVTZ
 There are 98 shells and 268 basis functions

 Total QAlloc Memory Limit 110000 MB
 Mega-Array Size       188 MB
 MEM_STATIC part       192 MB
 Discretize the solute cavity surface with Lebedev spheres
	Using 110 Lebedev grid points for each H atom
	Using 194 Lebedev grid points for other atoms
	Atomic van der Waals radii will be scaled by 1.20
 Remove points where switching function is < 1.0e-08
 Keep 881 surface tesserae and discard 943 interior tesserae
 Molecular Surface Area = 137.796 Angst**2

                       Distance Matrix (Angstroms)
             C (  1)   S (  2)   C (  3)   C (  4)   C (  5)   H (  6)
   S (  2)  1.768360
   C (  3)  2.593881  1.771629
   C (  4)  1.402529  2.574065  2.372003
   C (  5)  2.370152  2.574338  1.402935  1.408835
   H (  6)  2.196436  3.640531  3.402095  1.100049  2.207797
   H (  7)  3.400433  3.641223  2.196237  2.207440  1.100203  2.600235
   C (  8)  1.478200  2.741509  3.958143  2.631534  3.774018  3.021154
   H (  9)  1.831188  3.478297  4.334924  2.442430  3.787776  2.418007
   H ( 10)  2.156429  3.178200  4.301041  3.088829  4.130181  3.421651
   H ( 11)  2.335287  3.504970  4.851304  3.475938  4.679572  3.720044
   H ( 12)  3.658932  2.518543  1.095223  3.436752  2.277558  4.424194
             H (  7)   C (  8)   H (  9)   H ( 10)   H ( 11)
   C (  8)  4.757714
   H (  9)  4.617025  1.080000
   H ( 10)  5.058044  1.079983  1.526843
   H ( 11)  5.653159  1.080042  1.527438  1.819995
   H ( 12)  2.710934  4.977266  5.413401  5.266710  5.857281
 
 Requested basis set is rimp2-cc-pVTZ
 There are 207 shells and 707 basis functions
 A cutoff of  1.0D-10 yielded   4376 shell pairs
 There are     32866 function pairs (     42523 Cartesian)
 Smallest overlap matrix eigenvalue = 1.40E-04

 Scale SEOQF with 1.000000e+00/1.000000e-01/1.000000e-01

 Standard Electronic Orientation quadrupole field applied
 Nucleus-field energy     =     0.0000000042 hartrees
 Guess from superposition of atomic densities
 Warning:  Energy on first SCF cycle will be non-variational
 SAD guess density has 52.000000 electrons

 -----------------------------------------------------------------------
  General SCF calculation program by
  Eric Jon Sundstrom, Paul Horn, Yuezhi Mao, Dmitri Zuev, Alec White,
  David Stuck, Shaama M.S., Shane Yost, Joonho Lee, David Small,
  Daniel Levine, Susi Lehtola, Hugh Burton, Evgeny Epifanovsky,
  Bang C. Huynh
 -----------------------------------------------------------------------
 Hartree-Fock
 using 64 threads for integral computing
 -------------------------------------------------------
 OpenMP Integral computing Module                
 Release: version 1.0, May 2013, Q-Chem Inc. Pittsburgh 
 -------------------------------------------------------
 A restricted SCF calculation will be
 performed using DIIS
 SCF converges when DIIS error is below 1.0e-06
 ---------------------------------------
  Cycle       Energy         DIIS error
 ---------------------------------------
    1    -592.5808430946      3.22e-02  
    2    -590.2991107212      2.14e-03  
    3    -590.3590217391      7.60e-04  
    4    -590.3655030623      3.69e-04  
    5    -590.3672131716      7.00e-05  
    6    -590.3673350000      2.96e-05  
    7    -590.3673657785      1.50e-05  
    8    -590.3673757454      5.71e-06  
    9    -590.3673774148      2.13e-06  
   10    -590.3673775638      6.16e-07  Convergence criterion met
 ---------------------------------------
 SCF time:   CPU 488.69s  wall 8.00s 

************** Final PCM Free Energy Summary **************
 G_electrostatic  =      -0.00564145 hartree =      -3.54006331 kcal/mol
 G_cavitation     =       0.00000000 hartree =       0.00000000 kcal/mol
 G_dispersion     =       0.00000000 hartree =       0.00000000 kcal/mol
 G_repulsion      =       0.00000000 hartree =       0.00000000 kcal/mol
 --------------------------------------------------
 Non-electrostatic Free Energy =       0.00000000 hartree =       0.00000000 kcal/mol
 Total                         =      -0.00564145 hartree =      -3.54006331 kcal/mol
 --------------------------------------------------
 SCF Energy (H0 + V/2)                       =    -590.36737756 
 Solute Internal Energy (H0)                 =    -590.36173611 
 Total Free Energy (H0 + V/2 + non-elec)     =    -590.36737756 hartree
                                             = -370461.12079073 kcal/mol
***********************************************************

 SCF   energy in the final basis set =     -590.3673775638
 Total energy in the final basis set =     -590.3673775638


 --------------------------------------------------------------
  Generalized many-body perturbation theory program
  by Joonho Lee, Fazle Rob, Xintian Feng, Evgeny Epifanovsky

 No regularization used 
 (reg. param. = 0.0000e+00)
  (P|Q)^-1/2 Time:  CPU 6.27 s  wall 0.10 s

 In RI-MP2 calculation: 
 # of frozen core orbitals: 10

 Components of the RIMP2 correlation energy:
        aaaa    correlation energy =        -0.1256860033 a.u.
        abab    correlation energy =        -0.7522020929 a.u.
        bbbb    correlation energy =        -0.1256860033 a.u.
        non-Brillouin singles      =        -0.0000000000 a.u.
        total same-spin energy     =        -0.2513720067 a.u.
        total opposite-spin energy =        -0.7522020929 a.u.

 Total  RIMP2   correlation energy =        -1.0035740996 a.u.
        RIMP2         total energy =      -591.3709516634 a.u.

 RI-MP2 Energy Time:  CPU 26.03 s  wall 0.46 s
 
 --------------------------------------------------------------
 
                    Orbital Energies (a.u.)
 --------------------------------------------------------------
 
 Alpha MOs
 -- Occupied --
-91.9744 -11.2825 -11.2708 -11.2434 -11.2423 -11.2226  -8.9746  -6.6554
 -6.6548  -6.6544  -1.1581  -1.0376  -0.9733  -0.9178  -0.7551  -0.7247
 -0.6722  -0.5971  -0.5716  -0.5593  -0.5389  -0.4987  -0.4673  -0.4354
 -0.3446  -0.3130
 -- Virtual --
  0.0976   0.1504   0.1607   0.1767   0.1919   0.1971   0.2071   0.2298
  0.2390   0.2540   0.3093   0.3397   0.3679   0.3698   0.3893   0.3993
  0.4182   0.4501   0.4577   0.4641   0.4825   0.5146   0.5227   0.5339
  0.5375   0.5539   0.5639   0.5812   0.5993   0.6084   0.6161   0.6221
  0.6356   0.6488   0.6631   0.6691   0.6762   0.7153   0.7396   0.7463
  0.7891   0.7937   0.8254   0.8570   0.8734   0.8853   0.8936   0.9270
  0.9468   0.9851   1.0036   1.0142   1.0646   1.0744   1.1068   1.1235
  1.1533   1.1630   1.1695   1.1980   1.2133   1.2328   1.2501   1.2659
  1.2833   1.3152   1.3237   1.3360   1.3622   1.3954   1.4262   1.4471
  1.4633   1.4978   1.5058   1.5307   1.5389   1.5519   1.5660   1.5723
  1.5917   1.6275   1.6554   1.6896   1.6966   1.7358   1.7564   1.7974
  1.8180   1.8899   1.9085   1.9174   1.9433   1.9931   2.0387   2.0925
  2.1318   2.1634   2.1769   2.2159   2.2488   2.2741   2.3316   2.4097
  2.4312   2.4614   2.4943   2.5105   2.5690   2.5995   2.6348   2.6513
  2.6935   2.7125   2.7296   2.7427   2.7500   2.7942   2.8261   2.8552
  2.8801   2.9014   2.9180   2.9338   2.9710   3.0057   3.0231   3.0546
  3.0868   3.0958   3.1287   3.1537   3.1712   3.1925   3.2192   3.2314
  3.2615   3.2770   3.2993   3.3050   3.3245   3.3412   3.3487   3.3628
  3.4028   3.4200   3.4437   3.4545   3.4590   3.4798   3.4973   3.5030
  3.5083   3.5367   3.5456   3.5835   3.5920   3.6288   3.6315   3.6700
  3.6777   3.6978   3.7190   3.7339   3.7391   3.7624   3.8135   3.8185
  3.8343   3.8775   3.8981   3.9156   3.9389   3.9555   3.9681   3.9738
  4.0163   4.0272   4.0421   4.0988   4.1241   4.1496   4.1643   4.1891
  4.2246   4.2323   4.2535   4.2912   4.2945   4.3685   4.3808   4.4192
  4.4395   4.4507   4.4672   4.4930   4.5680   4.5852   4.6233   4.6555
  4.6881   4.6980   4.7163   4.7627   4.7890   4.8103   4.8315   4.8751
  4.9504   4.9967   5.0213   5.0501   5.0778   5.1299   5.1777   5.2055
  5.2089   5.2871   5.3688   5.4161   5.4186   5.4872   5.5296   5.5965
  5.6269   5.7234   5.7876   5.8122   5.9062   5.9434   5.9955   6.0436
  6.0878   6.2893   6.4048   6.4580   6.6511   9.4022  11.3178  12.7239
 13.9357  14.1901
 --------------------------------------------------------------
 
          Ground-State Mulliken Net Atomic Charges

     Atom                 Charge (a.u.)
  ----------------------------------------
      1 C                     0.023092
      2 S                    -0.007203
      3 C                    -0.222903
      4 C                    -0.221018
      5 C                    -0.198598
      6 H                     0.182493
      7 H                     0.187441
      8 C                    -0.356694
      9 H                     0.116482
     10 H                     0.135052
     11 H                     0.157572
     12 H                     0.204284
  ----------------------------------------
  Sum of atomic charges =     0.000000

 -----------------------------------------------------------------
                    Cartesian Multipole Moments
 -----------------------------------------------------------------
    Charge (ESU x 10^10)
                -0.0000
    Dipole Moment (Debye)
         X       0.5203      Y      -0.2704      Z      -1.7854
       Tot       1.8792
    Quadrupole Moments (Debye-Ang)
        XX     -46.4462     XY       3.1228     YY     -37.1621
        XZ       0.3199     YZ       2.0572     ZZ     -42.0685
    Octopole Moments (Debye-Ang^2)
       XXX     -26.4948    XXY     -18.3934    XYY      -1.3174
       YYY     -39.6823    XXZ      -6.6018    XYZ       1.1227
       YYZ      -6.1937    XZZ      -5.5380    YZZ      -8.4808
       ZZZ     -27.7783
    Hexadecapole Moments (Debye-Ang^3)
      XXXX    -105.3781   XXXY     -62.1847   XXYY     -98.1537
      XYYY     -30.3557   YYYY    -477.9367   XXXZ      -3.4412
      XXYZ      -5.8645   XYYZ       2.5182   YYYZ      -7.5908
      XXZZ     -73.1961   XYZZ     -10.9712   YYZZ    -124.9962
      XZZZ      -2.0028   YZZZ     -19.9410   ZZZZ    -308.3754
 -----------------------------------------------------------------
 Total job time:  10.49s(wall), 565.50s(cpu) 
 Sun Sep 24 15:11:14 2023

        *************************************************************
        *                                                           *
        *  Thank you very much for using Q-Chem.  Have a nice day.  *
        *                                                           *
        *************************************************************


0 sent ACK to 0 
now end server 0 ... 
cleanup process ... done
remove work dirs ./qchem117896.0 -- ./qchem117896.0
rm -rf ./qchem117896.0
rm -rf ./qchem117896
