You are running Q-Chem version: 5.4.0

#
# job setting
#
local host:  exp-2-38
current dir: /expanse/lustre/projects/csd626/rramji/aromodel/PNDIT/Hydrogenated_Impropers_Test
input file:  Dimethyl_Naphthalene_Dicarboximide_Phi_15_Theta_160_Thiophene_Hydrogenated_Improper.qcin
output file: 
nprocs     : 1
nthreads   : 64
#
# qchem installation setting
#
QC:          /cm/shared/apps/spack/cpu/opt/spack/linux-centos8-zen2/gcc-10.2.0/qchem-5.4-akfmr7b3t57bfs6qan3padb2wnb2i7cl
QCAUX:       /cm/shared/apps/spack/cpu/opt/spack/linux-centos8-zen2/gcc-10.2.0/qchem-5.4-akfmr7b3t57bfs6qan3padb2wnb2i7cl/qcaux
QCPROG:      /cm/shared/apps/spack/cpu/opt/spack/linux-centos8-zen2/gcc-10.2.0/qchem-5.4-akfmr7b3t57bfs6qan3padb2wnb2i7cl/exe/qcprog.exe
QCPROG_S:    /cm/shared/apps/spack/cpu/opt/spack/linux-centos8-zen2/gcc-10.2.0/qchem-5.4-akfmr7b3t57bfs6qan3padb2wnb2i7cl/exe/qcprog.exe_s
PARALLEL:    -DPARALLEL
QCMPI:       mpich
#
# qchem directory setting
#
qcrun:       qchem3741428
QCSCRATCH:   .
QCLOCALSCR:  
QCTMPDIR:    .
QCFILEPREF:  ./qchem3741428
QCSAVEDIR:   
workdirs:    ./qchem3741428
workdir0:    ./qchem3741428
partmpdirs =  
#
# parallel setting
#
QCRSH:           ssh
QCMPI:           mpich
QCMPIRUN:        /cm/shared/apps/spack/cpu/opt/spack/linux-centos8-zen2/gcc-10.2.0/qchem-5.4-akfmr7b3t57bfs6qan3padb2wnb2i7cl/bin/mpi/mpirun_qchem
QCMACHINEFILE:   ./qchem3741428/hostfile
exp-2-38

#
# env setting
#
exported envs:   QC QCAUX QCSCRATCH QCRUNNAME QCFILEPREF QCPROG QCPROG_S GUIFILE

Running Job 1 of 1 Dimethyl_Naphthalene_Dicarboximide_Phi_15_Theta_160_Thiophene_Hydrogenated_Improper.qcin
qchem Dimethyl_Naphthalene_Dicarboximide_Phi_15_Theta_160_Thiophene_Hydrogenated_Improper.qcin_3741428.0 ./qchem3741428/ 1
/cm/shared/apps/spack/cpu/opt/spack/linux-centos8-zen2/gcc-10.2.0/qchem-5.4-akfmr7b3t57bfs6qan3padb2wnb2i7cl/bin/mpi/mpirun_qchem -machinefile ./qchem3741428/hostfile -np 1 /cm/shared/apps/spack/cpu/opt/spack/linux-centos8-zen2/gcc-10.2.0/qchem-5.4-akfmr7b3t57bfs6qan3padb2wnb2i7cl/exe/qcprog.exe Dimethyl_Naphthalene_Dicarboximide_Phi_15_Theta_160_Thiophene_Hydrogenated_Improper.qcin_3741428.0 ./qchem3741428/

Process 0 of 1 is on exp-2-38 - thread support 0
initial socket setup ...start
initial socket setup ...done 
now start server 0 ... 
                  Welcome to Q-Chem
     A Quantum Leap Into The Future Of Chemistry


 Q-Chem 5.4, Q-Chem, Inc., Pleasanton, CA (2021)

 License issued to: University of California, San Diego (site)

 E. Epifanovsky,  A. T. B. Gilbert,  Xintian Feng,  Joonho Lee,  Yuezhi Mao,  
 N. Mardirossian,  P. Pokhilko,  A. White,  M. Wormit,  M. P. Coons,  
 A. L. Dempwolff,  Zhengting Gan,  D. Hait,  P. R. Horn,  L. D. Jacobson,  
 I. Kaliman,  J. Kussmann,  A. W. Lange,  Ka Un Lao,  D. S. Levine,  Jie Liu,  
 S. C. McKenzie,  A. F. Morrison,  K. Nanda,  F. Plasser,  D. R. Rehn,  
 M. L. Vidal,  Zhi-Qiang You,  Ying Zhu,  B. Alam,  B. Albrecht,  
 A. Aldossary,  E. Alguire,  J. H. Andersen,  D. Barton,  K. Begam,  A. Behn,  
 Y. A. Bernard,  E. J. Berquist,  H. Burton,  A. Carreras,  K. Carter-Fenk,  
 R. Chakraborty,  A. D. Chien,  K. D. Closser,  V. Cofer-Shabica,  
 S. Dasgupta,  Jia Deng,  M. de Wergifosse,  M. Diedenhofen,  Hainam Do,  
 S. Ehlert,  Po-Tung Fang,  S. Fatehi,  Qingguo Feng,  J. Gayvert,  
 Qinghui Ge,  G. Gidofalvi,  M. Goldey,  J. Gomes,  C. Gonzalez-Espinoza,  
 S. Gulania,  A. Gunina,  M. W. D. Hanson-Heine,  P. H. P. Harbach,  
 A. W. Hauser,  M. F. Herbst,  M. Hernandez Vera,  M. Hodecker,  
 Z. C. Holden,  S. Houck,  Xunkun Huang,  Kerwin Hui,  B. C. Huynh,  
 M. Ivanov,  Hyunjun Ji,  Hanjie Jiang,  B. Kaduk,  S. Kaehler,  
 K. Khistyaev,  Jaehoon Kim,  P. Klunzinger,  Z. Koczor-Benda,  
 Joong Hoon Koh,  D. Kosenkov,  L. Koulias,  T. Kowalczyk,  C. M. Krauter,  
 K. Kue,  A. Kunitsa,  T. Kus,  A. Landau,  K. V. Lawler,  D. Lefrancois,  
 S. Lehtola,  Rain Li,  Yi-Pei Li,  Jiashu Liang,  M. Liebenthal,  
 Hung-Hsuan Lin,  You-Sheng Lin,  Fenglai Liu,  Kuan-Yu Liu,  
 M. Loipersberger,  A. Luenser,  A. Manjanath,  P. Manohar,  E. Mansoor,  
 S. F. Manzer,  Shan-Ping Mao,  A. V. Marenich,  T. Markovich,  S. Mason,  
 S. A. Maurer,  P. F. McLaughlin,  M. F. S. J. Menger,  J.-M. Mewes,  
 S. A. Mewes,  P. Morgante,  J. W. Mullinax,  T. S. Nguyen-Beck,  
 K. J. Oosterbaan,  G. Paran,  Alexander C. Paul,  Suranjan K. Paul,  
 F. Pavosevic,  Zheng Pei,  S. Prager,  E. I. Proynov,  E. Ramos,  B. Rana,  
 A. E. Rask,  A. Rettig,  R. M. Richard,  F. Rob,  E. Rossomme,  T. Scheele,  
 M. Scheurer,  M. Schneider,  N. Sergueev,  S. M. Sharada,  W. Skomorowski,  
 D. W. Small,  C. J. Stein,  Yu-Chuan Su,  E. J. Sundstrom,  Zhen Tao,  
 J. Thirman,  T. Tsuchimochi,  N. M. Tubman,  S. P. Veccham,  O. Vydrov,  
 J. Wenzel,  J. Witte,  A. Yamada,  Kun Yao,  S. Yeganeh,  S. R. Yost,  
 A. Zech,  Igor Ying Zhang,  Xing Zhang,  Yu Zhang,  D. Zuev,  
 A. Aspuru-Guzik,  A. T. Bell,  N. A. Besley,  K. B. Bravaya,  B. R. Brooks,  
 D. Casanova,  Jeng-Da Chai,  S. Coriani,  C. J. Cramer,  
 A. E. DePrince, III,  R. A. DiStasio Jr.,  A. Dreuw,  B. D. Dunietz,  
 T. R. Furlani,  W. A. Goddard III,  S. Grimme,  S. Hammes-Schiffer,  
 T. Head-Gordon,  W. J. Hehre,  Chao-Ping Hsu,  T.-C. Jagau,  Yousung Jung,  
 A. Klamt,  Jing Kong,  D. S. Lambrecht,  WanZhen Liang,  N. J. Mayhall,  
 C. W. McCurdy,  J. B. Neaton,  C. Ochsenfeld,  J. A. Parkhill,  R. Peverati,  
 V. A. Rassolov,  Yihan Shao,  L. V. Slipchenko,  T. Stauch,  R. P. Steele,  
 J. E. Subotnik,  A. J. W. Thom,  A. Tkatchenko,  D. G. Truhlar,  
 T. Van Voorhis,  T. A. Wesolowski,  K. B. Whaley,  H. L. Woodcock III,  
 P. M. Zimmerman,  S. Faraji,  P. M. W. Gill,  M. Head-Gordon,  
 J. M. Herbert,  A. I. Krylov

 Contributors to earlier versions of Q-Chem not listed above: 
 R. D. Adamson,  B. Austin,  R. Baer,  J. Baker,  G. J. O. Beran,  
 K. Brandhorst,  S. T. Brown,  E. F. C. Byrd,  A. K. Chakraborty,  
 G. K. L. Chan,  Chun-Min Chang,  Yunqing Chen,  C.-L. Cheng,  
 Siu Hung Chien,  D. M. Chipman,  D. L. Crittenden,  H. Dachsel,  
 R. J. Doerksen,  A. D. Dutoi,  R. G. Edgar,  J. Fosso-Tande,  
 L. Fusti-Molnar,  D. Ghosh,  A. Ghysels,  A. Golubeva-Zadorozhnaya,  
 J. Gonthier,  M. S. Gordon,  S. R. Gwaltney,  G. Hawkins,  J. E. Herr,  
 A. Heyden,  S. Hirata,  E. G. Hohenstein,  G. Kedziora,  F. J. Keil,  
 C. Kelley,  Jihan Kim,  R. A. King,  R. Z. Khaliullin,  P. P. Korambath,  
 W. Kurlancheek,  A. Laurent,  A. M. Lee,  M. S. Lee,  S. V. Levchenko,  
 Ching Yeh Lin,  D. Liotard,  E. Livshits,  R. C. Lochan,  I. Lotan,  
 L. A. Martinez-Martinez,  P. E. Maslen,  N. Nair,  D. P. O'Neill,  
 D. Neuhauser,  E. Neuscamman,  C. M. Oana,  R. Olivares-Amaya,  R. Olson,  
 T. M. Perrine,  B. Peters,  P. A. Pieniazek,  A. Prociuk,  Y. M. Rhee,  
 J. Ritchie,  M. A. Rohrdanz,  E. Rosta,  N. J. Russ,  H. F. Schaefer III,  
 M. W. Schmidt,  N. E. Schultz,  S. Sharma,  N. Shenvi,  C. D. Sherrill,  
 A. C. Simmonett,  A. Sodt,  T. Stein,  D. Stuck,  K. S. Thanthiriwatte,  
 V. Vanovschi,  L. Vogt,  Tao Wang,  A. Warshel,  M. A. Watson,  
 C. F. Williams,  Q. Wu,  X. Xu,  Jun Yang,  W. Zhang,  Yan Zhao

 Please cite Q-Chem as follows:
 Y. Shao et al., Mol. Phys. 113, 184-215 (2015)
 DOI: 10.1080/00268976.2014.952696

 Q-Chem 5.4.0 for Intel X86 EM64T Linux

 Parts of Q-Chem use Armadillo 9.800.1 (Horizon Scraper).
 http://arma.sourceforge.net/

 Q-Chem begins on Sun Sep 24 16:00:33 2023  

 Host: 
0

     Scratch files written to ./qchem3741428//
 May1621 |scratch|qcdevops|jenkins|workspace|build_RNUM    
 Parallel job on  1  processors
 Processing $rem in /cm/shared/apps/spack/cpu/opt/spack/linux-centos8-zen2/gcc-10.2.0/qchem-5.4-akfmr7b3t57bfs6qan3padb2wnb2i7cl/config/preferences:
 Processing $rem in /home/rramji/.qchemrc:
 Symmetry turned off for PCM/SM12/SMD calculation
 Core orbitals will be frozen

 Checking the input file for inconsistencies... 	...done.

 Q-Chem warning in module forms1/BasisType.C, line 2236:

 You are not using the predefined 5D/6D in this basis set.


--------------------------------------------------------------
User input:
--------------------------------------------------------------
$molecule
0 1
C	-0.128593	-0.381707	-0.215530
S	0.076507	0.384493	1.364970
C	0.500307	1.966393	0.689370
C	0.129507	0.582293	-1.200930
C	0.471107	1.857593	-0.709030
H	0.068607	0.354693	-2.275430
H	0.699107	2.708493	-1.368130
C	-0.128593	-1.859907	-0.215530
H	-1.143593	-1.860507	0.153370
H	-0.465993	-2.299207	-1.142630
H	0.149607	-2.570907	0.548370
H	0.728207	2.817093	1.340470
$end

$rem
JOBTYPE		SP
EXCHANGE	HF
CORRELATION	pRIMP2
BASIS		cc-pvtz
METHOD		rimp2
AUX_BASIS	rimp2-cc-pvtz
SOLVENT_METHOD	PCM
PURECART	11111
SYMMETRY	false
MEM_TOTAL	110000
SCF_CONVERGENCE = 6
THRESH=10
GUI = 2
$end



$solvent
dielectric 4.90
$end
--------------------------------------------------------------
 ----------------------------------------------------------------
             Standard Nuclear Orientation (Angstroms)
    I     Atom           X                Y                Z
 ----------------------------------------------------------------
    1      C      -0.1285930000    -0.3817070000    -0.2155300000
    2      S       0.0765070000     0.3844930000     1.3649700000
    3      C       0.5003070000     1.9663930000     0.6893700000
    4      C       0.1295070000     0.5822930000    -1.2009300000
    5      C       0.4711070000     1.8575930000    -0.7090300000
    6      H       0.0686070000     0.3546930000    -2.2754300000
    7      H       0.6991070000     2.7084930000    -1.3681300000
    8      C      -0.1285930000    -1.8599070000    -0.2155300000
    9      H      -1.1435930000    -1.8605070000     0.1533700000
   10      H      -0.4659930000    -2.2992070000    -1.1426300000
   11      H       0.1496070000    -2.5709070000     0.5483700000
   12      H       0.7282070000     2.8170930000     1.3404700000
 ----------------------------------------------------------------
 Nuclear Repulsion Energy =         270.44844224 hartrees
 There are       26 alpha and       26 beta electrons
 Requested basis set is cc-pVTZ
 There are 98 shells and 268 basis functions

 Total QAlloc Memory Limit 110000 MB
 Mega-Array Size       188 MB
 MEM_STATIC part       192 MB
 Discretize the solute cavity surface with Lebedev spheres
	Using 110 Lebedev grid points for each H atom
	Using 194 Lebedev grid points for other atoms
	Atomic van der Waals radii will be scaled by 1.20
 Remove points where switching function is < 1.0e-08
 Keep 888 surface tesserae and discard 936 interior tesserae
 Molecular Surface Area = 138.002 Angst**2

                       Distance Matrix (Angstroms)
             C (  1)   S (  2)   C (  3)   C (  4)   C (  5)   H (  6)
   S (  2)  1.768363
   C (  3)  2.593826  1.771567
   C (  4)  1.402471  2.574058  2.372016
   C (  5)  2.370158  2.574337  1.402930  1.408917
   H (  6)  2.196443  3.640531  3.402055  1.100028  2.207787
   H (  7)  3.400428  3.641214  2.196256  2.207516  1.100194  2.600211
   C (  8)  1.478200  2.752704  3.981825  2.646124  3.797761  3.030929
   H (  9)  1.831164  2.827834  4.199389  3.069558  4.144304  3.503657
   H ( 10)  2.156423  3.712763  4.741867  2.942968  4.283124  2.934658
   H ( 11)  2.335281  3.067013  4.553017  3.605985  4.614762  4.066884
   H ( 12)  3.658902  2.518503  1.095244  3.436784  2.277541  4.424163
             H (  7)   C (  8)   H (  9)   H ( 10)   H ( 11)
   C (  8)  4.783707
   H (  9)  5.156187  1.079960
   H ( 10)  5.146394  1.079971  1.526832
   H ( 11)  5.643313  1.080028  1.527436  1.819963
   H ( 12)  2.710932  5.002956  5.176175  5.811061  5.476563
 
 Requested basis set is rimp2-cc-pVTZ
 There are 207 shells and 707 basis functions
 A cutoff of  1.0D-10 yielded   4360 shell pairs
 There are     32746 function pairs (     42357 Cartesian)
 Smallest overlap matrix eigenvalue = 1.20E-04

 Scale SEOQF with 1.000000e+00/1.000000e-01/1.000000e-01

 Standard Electronic Orientation quadrupole field applied
 Nucleus-field energy     =     0.0000000033 hartrees
 Guess from superposition of atomic densities
 Warning:  Energy on first SCF cycle will be non-variational
 SAD guess density has 52.000000 electrons

 -----------------------------------------------------------------------
  General SCF calculation program by
  Eric Jon Sundstrom, Paul Horn, Yuezhi Mao, Dmitri Zuev, Alec White,
  David Stuck, Shaama M.S., Shane Yost, Joonho Lee, David Small,
  Daniel Levine, Susi Lehtola, Hugh Burton, Evgeny Epifanovsky,
  Bang C. Huynh
 -----------------------------------------------------------------------
 Hartree-Fock
 using 64 threads for integral computing
 -------------------------------------------------------
 OpenMP Integral computing Module                
 Release: version 1.0, May 2013, Q-Chem Inc. Pittsburgh 
 -------------------------------------------------------
 A restricted SCF calculation will be
 performed using DIIS
 SCF converges when DIIS error is below 1.0e-06
 ---------------------------------------
  Cycle       Energy         DIIS error
 ---------------------------------------
    1    -592.5730761350      3.22e-02  
    2    -590.2967961235      2.19e-03  
    3    -590.3576208051      8.36e-04  
    4    -590.3648767304      3.98e-04  
    5    -590.3669046678      7.17e-05  
    6    -590.3670332513      3.18e-05  
    7    -590.3670646017      1.46e-05  
    8    -590.3670742338      5.72e-06  
    9    -590.3670757340      1.92e-06  
   10    -590.3670758700      6.06e-07  Convergence criterion met
 ---------------------------------------
 SCF time:   CPU 475.62s  wall 8.00s 

************** Final PCM Free Energy Summary **************
 G_electrostatic  =      -0.00592424 hartree =      -3.71751875 kcal/mol
 G_cavitation     =       0.00000000 hartree =       0.00000000 kcal/mol
 G_dispersion     =       0.00000000 hartree =       0.00000000 kcal/mol
 G_repulsion      =       0.00000000 hartree =       0.00000000 kcal/mol
 --------------------------------------------------
 Non-electrostatic Free Energy =       0.00000000 hartree =       0.00000000 kcal/mol
 Total                         =      -0.00592424 hartree =      -3.71751875 kcal/mol
 --------------------------------------------------
 SCF Energy (H0 + V/2)                       =    -590.36707587 
 Solute Internal Energy (H0)                 =    -590.36115163 
 Total Free Energy (H0 + V/2 + non-elec)     =    -590.36707587 hartree
                                             = -370460.93147502 kcal/mol
***********************************************************

 SCF   energy in the final basis set =     -590.3670758700
 Total energy in the final basis set =     -590.3670758700


 --------------------------------------------------------------
  Generalized many-body perturbation theory program
  by Joonho Lee, Fazle Rob, Xintian Feng, Evgeny Epifanovsky

 No regularization used 
 (reg. param. = 0.0000e+00)
  (P|Q)^-1/2 Time:  CPU 5.42 s  wall 0.09 s

 In RI-MP2 calculation: 
 # of frozen core orbitals: 10

 Components of the RIMP2 correlation energy:
        aaaa    correlation energy =        -0.1252631064 a.u.
        abab    correlation energy =        -0.7512388324 a.u.
        bbbb    correlation energy =        -0.1252631064 a.u.
        non-Brillouin singles      =        -0.0000000000 a.u.
        total same-spin energy     =        -0.2505262129 a.u.
        total opposite-spin energy =        -0.7512388324 a.u.

 Total  RIMP2   correlation energy =        -1.0017650453 a.u.
        RIMP2         total energy =      -591.3688409153 a.u.

 RI-MP2 Energy Time:  CPU 23.58 s  wall 0.40 s
 
 --------------------------------------------------------------
 
                    Orbital Energies (a.u.)
 --------------------------------------------------------------
 
 Alpha MOs
 -- Occupied --
-91.9774 -11.2878 -11.2657 -11.2429 -11.2344 -11.2257  -8.9774  -6.6583
 -6.6578  -6.6572  -1.1572  -1.0397  -0.9717  -0.9197  -0.7558  -0.7213
 -0.6704  -0.5979  -0.5652  -0.5578  -0.5463  -0.4904  -0.4730  -0.4545
 -0.3462  -0.2996
 -- Virtual --
  0.1054   0.1459   0.1599   0.1826   0.1881   0.2025   0.2156   0.2214
  0.2299   0.2366   0.3074   0.3410   0.3462   0.3685   0.3873   0.4072
  0.4319   0.4474   0.4593   0.4905   0.5007   0.5107   0.5202   0.5293
  0.5530   0.5545   0.5732   0.5836   0.5961   0.6140   0.6167   0.6210
  0.6293   0.6372   0.6486   0.6618   0.6960   0.7088   0.7437   0.7610
  0.7800   0.7998   0.8423   0.8586   0.8602   0.8807   0.8931   0.9281
  0.9626   0.9753   1.0276   1.0350   1.0639   1.0868   1.0991   1.1031
  1.1321   1.1492   1.1734   1.1774   1.2181   1.2350   1.2409   1.2587
  1.2928   1.3212   1.3422   1.3532   1.3829   1.4124   1.4235   1.4578
  1.4736   1.4966   1.5148   1.5154   1.5394   1.5434   1.5601   1.5925
  1.6078   1.6259   1.6427   1.6920   1.7126   1.7473   1.7886   1.7992
  1.8229   1.8933   1.9078   1.9212   1.9422   2.0165   2.0493   2.0868
  2.1501   2.1711   2.2105   2.2204   2.2553   2.2805   2.3347   2.4135
  2.4371   2.4652   2.4806   2.5327   2.5546   2.5950   2.6370   2.6546
  2.6950   2.7109   2.7260   2.7517   2.7603   2.7778   2.7876   2.8337
  2.8710   2.8976   2.9161   2.9712   3.0018   3.0185   3.0264   3.0505
  3.0689   3.0735   3.1181   3.1390   3.1698   3.2056   3.2221   3.2414
  3.2670   3.2746   3.2872   3.3064   3.3328   3.3475   3.3554   3.3986
  3.4114   3.4179   3.4402   3.4493   3.4621   3.4778   3.4878   3.4905
  3.5143   3.5248   3.5408   3.5615   3.5928   3.6001   3.6164   3.6578
  3.6673   3.7047   3.7272   3.7442   3.7603   3.7917   3.7928   3.8556
  3.8817   3.9001   3.9054   3.9184   3.9453   3.9532   3.9761   3.9968
  4.0033   4.0128   4.0795   4.0941   4.1355   4.1696   4.1790   4.1961
  4.2172   4.2555   4.2828   4.2982   4.3195   4.3567   4.3717   4.3849
  4.4400   4.4431   4.4744   4.5209   4.5355   4.5536   4.5744   4.6354
  4.6682   4.7036   4.7080   4.7505   4.7954   4.8050   4.8232   4.8998
  4.9863   5.0080   5.0214   5.0494   5.0844   5.1387   5.1854   5.1886
  5.2054   5.3002   5.3628   5.4058   5.4216   5.5016   5.5216   5.5927
  5.6038   5.7236   5.7769   5.8433   5.9017   5.9936   6.0337   6.0680
  6.1112   6.3260   6.4397   6.4649   6.6685   9.3873  11.2722  12.8504
 13.9833  14.1771
 --------------------------------------------------------------
 
          Ground-State Mulliken Net Atomic Charges

     Atom                 Charge (a.u.)
  ----------------------------------------
      1 C                     0.000400
      2 S                    -0.011078
      3 C                    -0.233326
      4 C                    -0.214261
      5 C                    -0.195017
      6 H                     0.184370
      7 H                     0.184910
      8 C                    -0.356703
      9 H                     0.134711
     10 H                     0.131888
     11 H                     0.169264
     12 H                     0.204842
  ----------------------------------------
  Sum of atomic charges =     0.000000

 -----------------------------------------------------------------
                    Cartesian Multipole Moments
 -----------------------------------------------------------------
    Charge (ESU x 10^10)
                -0.0000
    Dipole Moment (Debye)
         X      -0.3697      Y      -0.6362      Z      -0.8524
       Tot       1.1260
    Quadrupole Moments (Debye-Ang)
        XX     -47.4866     XY       3.5478     YY     -36.5286
        XZ       0.5305     YZ       0.1274     ZZ     -41.8543
    Octopole Moments (Debye-Ang^2)
       XXX     -19.7262    XXY     -18.7012    XYY      -1.7435
       YYY     -42.4342    XXZ      -7.0579    XYZ      -0.0218
       YYZ      -2.0210    XZZ      -4.1300    YZZ     -10.6604
       ZZZ     -28.7277
    Hexadecapole Moments (Debye-Ang^3)
      XXXX     -90.0586   XXXY     -53.5546   XXYY    -109.7540
      XYYY     -24.9023   YYYY    -486.5525   XXXZ      -3.4439
      XXYZ      -5.5276   XYYZ       3.6234   YYYZ     -15.6955
      XXZZ     -71.6425   XYZZ      -8.7025   YYZZ    -121.4799
      XZZZ      -1.1132   YZZZ     -13.9253   ZZZZ    -306.8728
 -----------------------------------------------------------------
 Total job time:  10.02s(wall), 536.93s(cpu) 
 Sun Sep 24 16:00:43 2023

        *************************************************************
        *                                                           *
        *  Thank you very much for using Q-Chem.  Have a nice day.  *
        *                                                           *
        *************************************************************


0 sent ACK to 0 
now end server 0 ... 
cleanup process ... done
remove work dirs ./qchem3741428.0 -- ./qchem3741428.0
rm -rf ./qchem3741428.0
rm -rf ./qchem3741428
