You are running Q-Chem version: 5.4.0

#
# job setting
#
local host:  exp-3-06
current dir: /expanse/lustre/projects/csd626/rramji/aromodel/PNDIT/Hydrogenated_Impropers_Test
input file:  Dimethyl_Naphthalene_Dicarboximide_Phi_10_Theta_260_Thiophene_Hydrogenated_Improper.qcin
output file: 
nprocs     : 1
nthreads   : 64
#
# qchem installation setting
#
QC:          /cm/shared/apps/spack/cpu/opt/spack/linux-centos8-zen2/gcc-10.2.0/qchem-5.4-akfmr7b3t57bfs6qan3padb2wnb2i7cl
QCAUX:       /cm/shared/apps/spack/cpu/opt/spack/linux-centos8-zen2/gcc-10.2.0/qchem-5.4-akfmr7b3t57bfs6qan3padb2wnb2i7cl/qcaux
QCPROG:      /cm/shared/apps/spack/cpu/opt/spack/linux-centos8-zen2/gcc-10.2.0/qchem-5.4-akfmr7b3t57bfs6qan3padb2wnb2i7cl/exe/qcprog.exe
QCPROG_S:    /cm/shared/apps/spack/cpu/opt/spack/linux-centos8-zen2/gcc-10.2.0/qchem-5.4-akfmr7b3t57bfs6qan3padb2wnb2i7cl/exe/qcprog.exe_s
PARALLEL:    -DPARALLEL
QCMPI:       mpich
#
# qchem directory setting
#
qcrun:       qchem1491787
QCSCRATCH:   .
QCLOCALSCR:  
QCTMPDIR:    .
QCFILEPREF:  ./qchem1491787
QCSAVEDIR:   
workdirs:    ./qchem1491787
workdir0:    ./qchem1491787
partmpdirs =  
#
# parallel setting
#
QCRSH:           ssh
QCMPI:           mpich
QCMPIRUN:        /cm/shared/apps/spack/cpu/opt/spack/linux-centos8-zen2/gcc-10.2.0/qchem-5.4-akfmr7b3t57bfs6qan3padb2wnb2i7cl/bin/mpi/mpirun_qchem
QCMACHINEFILE:   ./qchem1491787/hostfile
exp-3-06

#
# env setting
#
exported envs:   QC QCAUX QCSCRATCH QCRUNNAME QCFILEPREF QCPROG QCPROG_S GUIFILE

Running Job 1 of 1 Dimethyl_Naphthalene_Dicarboximide_Phi_10_Theta_260_Thiophene_Hydrogenated_Improper.qcin
qchem Dimethyl_Naphthalene_Dicarboximide_Phi_10_Theta_260_Thiophene_Hydrogenated_Improper.qcin_1491787.0 ./qchem1491787/ 1
/cm/shared/apps/spack/cpu/opt/spack/linux-centos8-zen2/gcc-10.2.0/qchem-5.4-akfmr7b3t57bfs6qan3padb2wnb2i7cl/bin/mpi/mpirun_qchem -machinefile ./qchem1491787/hostfile -np 1 /cm/shared/apps/spack/cpu/opt/spack/linux-centos8-zen2/gcc-10.2.0/qchem-5.4-akfmr7b3t57bfs6qan3padb2wnb2i7cl/exe/qcprog.exe Dimethyl_Naphthalene_Dicarboximide_Phi_10_Theta_260_Thiophene_Hydrogenated_Improper.qcin_1491787.0 ./qchem1491787/

Process 0 of 1 is on exp-3-06 - thread support 0
initial socket setup ...start
initial socket setup ...done 
now start server 0 ... 
                  Welcome to Q-Chem
     A Quantum Leap Into The Future Of Chemistry


 Q-Chem 5.4, Q-Chem, Inc., Pleasanton, CA (2021)

 License issued to: University of California, San Diego (site)

 E. Epifanovsky,  A. T. B. Gilbert,  Xintian Feng,  Joonho Lee,  Yuezhi Mao,  
 N. Mardirossian,  P. Pokhilko,  A. White,  M. Wormit,  M. P. Coons,  
 A. L. Dempwolff,  Zhengting Gan,  D. Hait,  P. R. Horn,  L. D. Jacobson,  
 I. Kaliman,  J. Kussmann,  A. W. Lange,  Ka Un Lao,  D. S. Levine,  Jie Liu,  
 S. C. McKenzie,  A. F. Morrison,  K. Nanda,  F. Plasser,  D. R. Rehn,  
 M. L. Vidal,  Zhi-Qiang You,  Ying Zhu,  B. Alam,  B. Albrecht,  
 A. Aldossary,  E. Alguire,  J. H. Andersen,  D. Barton,  K. Begam,  A. Behn,  
 Y. A. Bernard,  E. J. Berquist,  H. Burton,  A. Carreras,  K. Carter-Fenk,  
 R. Chakraborty,  A. D. Chien,  K. D. Closser,  V. Cofer-Shabica,  
 S. Dasgupta,  Jia Deng,  M. de Wergifosse,  M. Diedenhofen,  Hainam Do,  
 S. Ehlert,  Po-Tung Fang,  S. Fatehi,  Qingguo Feng,  J. Gayvert,  
 Qinghui Ge,  G. Gidofalvi,  M. Goldey,  J. Gomes,  C. Gonzalez-Espinoza,  
 S. Gulania,  A. Gunina,  M. W. D. Hanson-Heine,  P. H. P. Harbach,  
 A. W. Hauser,  M. F. Herbst,  M. Hernandez Vera,  M. Hodecker,  
 Z. C. Holden,  S. Houck,  Xunkun Huang,  Kerwin Hui,  B. C. Huynh,  
 M. Ivanov,  Hyunjun Ji,  Hanjie Jiang,  B. Kaduk,  S. Kaehler,  
 K. Khistyaev,  Jaehoon Kim,  P. Klunzinger,  Z. Koczor-Benda,  
 Joong Hoon Koh,  D. Kosenkov,  L. Koulias,  T. Kowalczyk,  C. M. Krauter,  
 K. Kue,  A. Kunitsa,  T. Kus,  A. Landau,  K. V. Lawler,  D. Lefrancois,  
 S. Lehtola,  Rain Li,  Yi-Pei Li,  Jiashu Liang,  M. Liebenthal,  
 Hung-Hsuan Lin,  You-Sheng Lin,  Fenglai Liu,  Kuan-Yu Liu,  
 M. Loipersberger,  A. Luenser,  A. Manjanath,  P. Manohar,  E. Mansoor,  
 S. F. Manzer,  Shan-Ping Mao,  A. V. Marenich,  T. Markovich,  S. Mason,  
 S. A. Maurer,  P. F. McLaughlin,  M. F. S. J. Menger,  J.-M. Mewes,  
 S. A. Mewes,  P. Morgante,  J. W. Mullinax,  T. S. Nguyen-Beck,  
 K. J. Oosterbaan,  G. Paran,  Alexander C. Paul,  Suranjan K. Paul,  
 F. Pavosevic,  Zheng Pei,  S. Prager,  E. I. Proynov,  E. Ramos,  B. Rana,  
 A. E. Rask,  A. Rettig,  R. M. Richard,  F. Rob,  E. Rossomme,  T. Scheele,  
 M. Scheurer,  M. Schneider,  N. Sergueev,  S. M. Sharada,  W. Skomorowski,  
 D. W. Small,  C. J. Stein,  Yu-Chuan Su,  E. J. Sundstrom,  Zhen Tao,  
 J. Thirman,  T. Tsuchimochi,  N. M. Tubman,  S. P. Veccham,  O. Vydrov,  
 J. Wenzel,  J. Witte,  A. Yamada,  Kun Yao,  S. Yeganeh,  S. R. Yost,  
 A. Zech,  Igor Ying Zhang,  Xing Zhang,  Yu Zhang,  D. Zuev,  
 A. Aspuru-Guzik,  A. T. Bell,  N. A. Besley,  K. B. Bravaya,  B. R. Brooks,  
 D. Casanova,  Jeng-Da Chai,  S. Coriani,  C. J. Cramer,  
 A. E. DePrince, III,  R. A. DiStasio Jr.,  A. Dreuw,  B. D. Dunietz,  
 T. R. Furlani,  W. A. Goddard III,  S. Grimme,  S. Hammes-Schiffer,  
 T. Head-Gordon,  W. J. Hehre,  Chao-Ping Hsu,  T.-C. Jagau,  Yousung Jung,  
 A. Klamt,  Jing Kong,  D. S. Lambrecht,  WanZhen Liang,  N. J. Mayhall,  
 C. W. McCurdy,  J. B. Neaton,  C. Ochsenfeld,  J. A. Parkhill,  R. Peverati,  
 V. A. Rassolov,  Yihan Shao,  L. V. Slipchenko,  T. Stauch,  R. P. Steele,  
 J. E. Subotnik,  A. J. W. Thom,  A. Tkatchenko,  D. G. Truhlar,  
 T. Van Voorhis,  T. A. Wesolowski,  K. B. Whaley,  H. L. Woodcock III,  
 P. M. Zimmerman,  S. Faraji,  P. M. W. Gill,  M. Head-Gordon,  
 J. M. Herbert,  A. I. Krylov

 Contributors to earlier versions of Q-Chem not listed above: 
 R. D. Adamson,  B. Austin,  R. Baer,  J. Baker,  G. J. O. Beran,  
 K. Brandhorst,  S. T. Brown,  E. F. C. Byrd,  A. K. Chakraborty,  
 G. K. L. Chan,  Chun-Min Chang,  Yunqing Chen,  C.-L. Cheng,  
 Siu Hung Chien,  D. M. Chipman,  D. L. Crittenden,  H. Dachsel,  
 R. J. Doerksen,  A. D. Dutoi,  R. G. Edgar,  J. Fosso-Tande,  
 L. Fusti-Molnar,  D. Ghosh,  A. Ghysels,  A. Golubeva-Zadorozhnaya,  
 J. Gonthier,  M. S. Gordon,  S. R. Gwaltney,  G. Hawkins,  J. E. Herr,  
 A. Heyden,  S. Hirata,  E. G. Hohenstein,  G. Kedziora,  F. J. Keil,  
 C. Kelley,  Jihan Kim,  R. A. King,  R. Z. Khaliullin,  P. P. Korambath,  
 W. Kurlancheek,  A. Laurent,  A. M. Lee,  M. S. Lee,  S. V. Levchenko,  
 Ching Yeh Lin,  D. Liotard,  E. Livshits,  R. C. Lochan,  I. Lotan,  
 L. A. Martinez-Martinez,  P. E. Maslen,  N. Nair,  D. P. O'Neill,  
 D. Neuhauser,  E. Neuscamman,  C. M. Oana,  R. Olivares-Amaya,  R. Olson,  
 T. M. Perrine,  B. Peters,  P. A. Pieniazek,  A. Prociuk,  Y. M. Rhee,  
 J. Ritchie,  M. A. Rohrdanz,  E. Rosta,  N. J. Russ,  H. F. Schaefer III,  
 M. W. Schmidt,  N. E. Schultz,  S. Sharma,  N. Shenvi,  C. D. Sherrill,  
 A. C. Simmonett,  A. Sodt,  T. Stein,  D. Stuck,  K. S. Thanthiriwatte,  
 V. Vanovschi,  L. Vogt,  Tao Wang,  A. Warshel,  M. A. Watson,  
 C. F. Williams,  Q. Wu,  X. Xu,  Jun Yang,  W. Zhang,  Yan Zhao

 Please cite Q-Chem as follows:
 Y. Shao et al., Mol. Phys. 113, 184-215 (2015)
 DOI: 10.1080/00268976.2014.952696

 Q-Chem 5.4.0 for Intel X86 EM64T Linux

 Parts of Q-Chem use Armadillo 9.800.1 (Horizon Scraper).
 http://arma.sourceforge.net/

 Q-Chem begins on Sun Sep 24 15:10:49 2023  

 Host: 
0

     Scratch files written to ./qchem1491787//
 May1621 |scratch|qcdevops|jenkins|workspace|build_RNUM    
 Parallel job on  1  processors
 Processing $rem in /cm/shared/apps/spack/cpu/opt/spack/linux-centos8-zen2/gcc-10.2.0/qchem-5.4-akfmr7b3t57bfs6qan3padb2wnb2i7cl/config/preferences:
 Processing $rem in /home/rramji/.qchemrc:
 Symmetry turned off for PCM/SM12/SMD calculation
 Core orbitals will be frozen

 Checking the input file for inconsistencies... 	...done.

 Q-Chem warning in module forms1/BasisType.C, line 2236:

 You are not using the predefined 5D/6D in this basis set.


--------------------------------------------------------------
User input:
--------------------------------------------------------------
$molecule
0 1
C	-0.089865	-0.391505	-0.208858
S	0.047635	0.389695	1.371642
C	0.332035	2.002495	0.696042
C	0.083235	0.591395	-1.194258
C	0.312435	1.891595	-0.702358
H	0.042335	0.359295	-2.268758
H	0.465335	2.759095	-1.361458
C	-0.089865	-1.869705	-0.208858
H	-0.276865	-1.870305	-1.272558
H	0.881735	-2.309005	-0.380158
H	-0.890465	-2.580705	-0.067558
H	0.484835	2.869795	1.347142
$end

$rem
JOBTYPE		SP
EXCHANGE	HF
CORRELATION	pRIMP2
BASIS		cc-pvtz
METHOD		rimp2
AUX_BASIS	rimp2-cc-pvtz
SOLVENT_METHOD	PCM
PURECART	11111
SYMMETRY	false
MEM_TOTAL	110000
SCF_CONVERGENCE = 6
THRESH=10
GUI = 2
$end



$solvent
dielectric 4.90
$end
--------------------------------------------------------------
 ----------------------------------------------------------------
             Standard Nuclear Orientation (Angstroms)
    I     Atom           X                Y                Z
 ----------------------------------------------------------------
    1      C      -0.0898650000    -0.3915050000    -0.2088580000
    2      S       0.0476350000     0.3896950000     1.3716420000
    3      C       0.3320350000     2.0024950000     0.6960420000
    4      C       0.0832350000     0.5913950000    -1.1942580000
    5      C       0.3124350000     1.8915950000    -0.7023580000
    6      H       0.0423350000     0.3592950000    -2.2687580000
    7      H       0.4653350000     2.7590950000    -1.3614580000
    8      C      -0.0898650000    -1.8697050000    -0.2088580000
    9      H      -0.2768650000    -1.8703050000    -1.2725580000
   10      H       0.8817350000    -2.3090050000    -0.3801580000
   11      H      -0.8904650000    -2.5807050000    -0.0675580000
   12      H       0.4848350000     2.8697950000     1.3471420000
 ----------------------------------------------------------------
 Nuclear Repulsion Energy =         270.00481482 hartrees
 There are       26 alpha and       26 beta electrons
 Requested basis set is cc-pVTZ
 There are 98 shells and 268 basis functions

 Total QAlloc Memory Limit 110000 MB
 Mega-Array Size       188 MB
 MEM_STATIC part       192 MB
 Discretize the solute cavity surface with Lebedev spheres
	Using 110 Lebedev grid points for each H atom
	Using 194 Lebedev grid points for other atoms
	Atomic van der Waals radii will be scaled by 1.20
 Remove points where switching function is < 1.0e-08
 Keep 886 surface tesserae and discard 938 interior tesserae
 Molecular Surface Area = 137.938 Angst**2

                       Distance Matrix (Angstroms)
             C (  1)   S (  2)   C (  3)   C (  4)   C (  5)   H (  6)
   S (  2)  1.768378
   C (  3)  2.593854  1.771565
   C (  4)  1.402522  2.574062  2.371990
   C (  5)  2.370218  2.574354  1.402927  1.408907
   H (  6)  2.196444  3.640531  3.402069  1.100042  2.207828
   H (  7)  3.400443  3.641204  2.196251  2.207460  1.100158  2.600224
   C (  8)  1.478200  2.760756  3.998847  2.656688  3.814809  3.037944
   H (  9)  1.831195  3.493522  4.386881  2.489130  3.850233  2.462807
   H ( 10)  2.156422  3.323779  4.477657  3.116517  4.251230  3.375089
   H ( 11)  2.335278  3.431414  4.804510  3.504249  4.674549  3.789327
   H ( 12)  3.658892  2.518460  1.095212  3.436729  2.277509  4.424155
             H (  7)   C (  8)   H (  9)   H ( 10)   H ( 11)
   C (  8)  4.802346
   H (  9)  4.689361  1.080013
   H ( 10)  5.178994  1.079970  1.526823
   H ( 11)  5.659137  1.080022  1.527481  1.819954
   H ( 12)  2.710931  5.021382  5.469146  5.473670  5.796618
 
 Requested basis set is rimp2-cc-pVTZ
 There are 207 shells and 707 basis functions
 A cutoff of  1.0D-10 yielded   4371 shell pairs
 There are     32811 function pairs (     42440 Cartesian)
 Smallest overlap matrix eigenvalue = 1.22E-04

 Scale SEOQF with 1.000000e+00/1.000000e-01/1.000000e-01

 Standard Electronic Orientation quadrupole field applied
 Nucleus-field energy     =     0.0000000027 hartrees
 Guess from superposition of atomic densities
 Warning:  Energy on first SCF cycle will be non-variational
 SAD guess density has 52.000000 electrons

 -----------------------------------------------------------------------
  General SCF calculation program by
  Eric Jon Sundstrom, Paul Horn, Yuezhi Mao, Dmitri Zuev, Alec White,
  David Stuck, Shaama M.S., Shane Yost, Joonho Lee, David Small,
  Daniel Levine, Susi Lehtola, Hugh Burton, Evgeny Epifanovsky,
  Bang C. Huynh
 -----------------------------------------------------------------------
 Hartree-Fock
 using 64 threads for integral computing
 -------------------------------------------------------
 OpenMP Integral computing Module                
 Release: version 1.0, May 2013, Q-Chem Inc. Pittsburgh 
 -------------------------------------------------------
 A restricted SCF calculation will be
 performed using DIIS
 SCF converges when DIIS error is below 1.0e-06
 ---------------------------------------
  Cycle       Energy         DIIS error
 ---------------------------------------
    1    -592.5727013399      3.22e-02  
    2    -590.3039614123      2.14e-03  
    3    -590.3638409482      7.68e-04  
    4    -590.3703614354      3.76e-04  
    5    -590.3721196330      6.97e-05  
    6    -590.3722399411      2.99e-05  
    7    -590.3722696669      1.47e-05  
    8    -590.3722793250      5.61e-06  
    9    -590.3722808838      2.00e-06  
   10    -590.3722810166      5.85e-07  Convergence criterion met
 ---------------------------------------
 SCF time:   CPU 525.54s  wall 10.00s 

************** Final PCM Free Energy Summary **************
 G_electrostatic  =      -0.00573906 hartree =      -3.60131489 kcal/mol
 G_cavitation     =       0.00000000 hartree =       0.00000000 kcal/mol
 G_dispersion     =       0.00000000 hartree =       0.00000000 kcal/mol
 G_repulsion      =       0.00000000 hartree =       0.00000000 kcal/mol
 --------------------------------------------------
 Non-electrostatic Free Energy =       0.00000000 hartree =       0.00000000 kcal/mol
 Total                         =      -0.00573906 hartree =      -3.60131489 kcal/mol
 --------------------------------------------------
 SCF Energy (H0 + V/2)                       =    -590.37228102 
 Solute Internal Energy (H0)                 =    -590.36654196 
 Total Free Energy (H0 + V/2 + non-elec)     =    -590.37228102 hartree
                                             = -370464.19775377 kcal/mol
***********************************************************

 SCF   energy in the final basis set =     -590.3722810166
 Total energy in the final basis set =     -590.3722810166


 --------------------------------------------------------------
  Generalized many-body perturbation theory program
  by Joonho Lee, Fazle Rob, Xintian Feng, Evgeny Epifanovsky

 No regularization used 
 (reg. param. = 0.0000e+00)
  (P|Q)^-1/2 Time:  CPU 7.04 s  wall 0.12 s

 In RI-MP2 calculation: 
 # of frozen core orbitals: 10

 Components of the RIMP2 correlation energy:
        aaaa    correlation energy =        -0.1255042218 a.u.
        abab    correlation energy =        -0.7514355771 a.u.
        bbbb    correlation energy =        -0.1255042218 a.u.
        non-Brillouin singles      =        -0.0000000000 a.u.
        total same-spin energy     =        -0.2510084436 a.u.
        total opposite-spin energy =        -0.7514355771 a.u.

 Total  RIMP2   correlation energy =        -1.0024440207 a.u.
        RIMP2         total energy =      -591.3747250373 a.u.

 RI-MP2 Energy Time:  CPU 38.76 s  wall 0.69 s
 
 --------------------------------------------------------------
 
                    Orbital Energies (a.u.)
 --------------------------------------------------------------
 
 Alpha MOs
 -- Occupied --
-91.9745 -11.2851 -11.2689 -11.2431 -11.2413 -11.2236  -8.9747  -6.6555
 -6.6550  -6.6545  -1.1572  -1.0380  -0.9728  -0.9191  -0.7544  -0.7243
 -0.6724  -0.5976  -0.5706  -0.5603  -0.5391  -0.5004  -0.4672  -0.4364
 -0.3449  -0.3122
 -- Virtual --
  0.1036   0.1485   0.1603   0.1767   0.1917   0.1960   0.2087   0.2309
  0.2389   0.2534   0.3113   0.3383   0.3659   0.3709   0.3941   0.3949
  0.4149   0.4535   0.4556   0.4641   0.4929   0.5151   0.5266   0.5366
  0.5392   0.5579   0.5665   0.5812   0.5980   0.6100   0.6167   0.6214
  0.6356   0.6536   0.6646   0.6685   0.6843   0.7173   0.7265   0.7473
  0.7868   0.7962   0.8250   0.8659   0.8749   0.8876   0.9099   0.9199
  0.9601   0.9796   0.9990   1.0125   1.0638   1.0736   1.1017   1.1224
  1.1447   1.1636   1.1718   1.1943   1.2158   1.2265   1.2470   1.2621
  1.2902   1.3207   1.3239   1.3361   1.3636   1.3995   1.4280   1.4487
  1.4717   1.4956   1.5142   1.5370   1.5420   1.5557   1.5649   1.5711
  1.5906   1.6261   1.6578   1.6905   1.7115   1.7326   1.7593   1.8002
  1.8211   1.8921   1.8955   1.9208   1.9399   1.9887   2.0529   2.0880
  2.1447   2.1716   2.1813   2.2174   2.2502   2.2852   2.3361   2.4127
  2.4291   2.4633   2.5008   2.5101   2.5749   2.5942   2.6327   2.6489
  2.6793   2.7160   2.7278   2.7317   2.7437   2.7774   2.8113   2.8484
  2.8818   2.8912   2.9212   2.9353   2.9819   3.0154   3.0186   3.0498
  3.0752   3.1022   3.1184   3.1524   3.1682   3.1995   3.2202   3.2454
  3.2613   3.2710   3.2998   3.3103   3.3241   3.3371   3.3581   3.3770
  3.3973   3.4222   3.4377   3.4419   3.4559   3.4674   3.4901   3.4955
  3.5110   3.5214   3.5456   3.5932   3.5939   3.6241   3.6389   3.6662
  3.6828   3.6837   3.7211   3.7403   3.7480   3.7572   3.8051   3.8259
  3.8492   3.8740   3.9027   3.9218   3.9330   3.9551   3.9646   3.9751
  4.0027   4.0220   4.0464   4.0872   4.1222   4.1579   4.1723   4.1953
  4.2184   4.2287   4.2460   4.2851   4.2977   4.3723   4.3817   4.4208
  4.4292   4.4369   4.4626   4.5036   4.5636   4.5833   4.6275   4.6535
  4.6851   4.6902   4.7122   4.7707   4.7944   4.8168   4.8462   4.8829
  4.9626   4.9828   5.0185   5.0545   5.0798   5.1238   5.1805   5.2079
  5.2176   5.2892   5.3657   5.4109   5.4221   5.4883   5.5310   5.5926
  5.6370   5.7162   5.8032   5.8506   5.8837   5.9551   6.0075   6.0542
  6.0943   6.2905   6.4174   6.4683   6.6678   9.4143  11.2794  12.7661
 13.9753  14.2699
 --------------------------------------------------------------
 
          Ground-State Mulliken Net Atomic Charges

     Atom                 Charge (a.u.)
  ----------------------------------------
      1 C                     0.031714
      2 S                    -0.008064
      3 C                    -0.227800
      4 C                    -0.223072
      5 C                    -0.199947
      6 H                     0.183216
      7 H                     0.186805
      8 C                    -0.356851
      9 H                     0.117719
     10 H                     0.129915
     11 H                     0.162255
     12 H                     0.204110
  ----------------------------------------
  Sum of atomic charges =     0.000000

 -----------------------------------------------------------------
                    Cartesian Multipole Moments
 -----------------------------------------------------------------
    Charge (ESU x 10^10)
                -0.0000
    Dipole Moment (Debye)
         X       0.1336      Y      -0.3442      Z      -1.7839
       Tot       1.8217
    Quadrupole Moments (Debye-Ang)
        XX     -47.1914     XY       2.0122     YY     -36.2735
        XZ       0.0397     YZ       2.0514     ZZ     -42.1177
    Octopole Moments (Debye-Ang^2)
       XXX     -13.7766    XXY     -22.0832    XYY      -1.3429
       YYY     -40.5892    XXZ      -7.0111    XYZ       0.9309
       YYZ      -5.8762    XZZ      -2.7475    YZZ      -9.3137
       ZZZ     -27.6364
    Hexadecapole Moments (Debye-Ang^3)
      XXXX     -76.0059   XXXY     -34.9691   XXYY    -107.2561
      XYYY     -11.2877   YYYY    -494.3279   XXXZ      -2.1917
      XXYZ      -6.8245   XYYZ       0.3585   YYYZ      -7.8597
      XXZZ     -70.9385   XYZZ      -6.0732   YYZZ    -127.9053
      XZZZ      -0.7022   YZZZ     -20.0712   ZZZZ    -308.8991
 -----------------------------------------------------------------
 Total job time:  12.06s(wall), 619.76s(cpu) 
 Sun Sep 24 15:11:01 2023

        *************************************************************
        *                                                           *
        *  Thank you very much for using Q-Chem.  Have a nice day.  *
        *                                                           *
        *************************************************************


0 sent ACK to 0 
now end server 0 ... 
cleanup process ... done
remove work dirs ./qchem1491787.0 -- ./qchem1491787.0
rm -rf ./qchem1491787.0
rm -rf ./qchem1491787
