You are running Q-Chem version: 5.4.0

#
# job setting
#
local host:  exp-2-46
current dir: /expanse/lustre/projects/csd626/rramji/aromodel/PNDIT/Hydrogenated_Impropers_Test
input file:  Dimethyl_Naphthalene_Dicarboximide_Phi_40_Theta_230_Thiophene_Hydrogenated_Improper.qcin
output file: 
nprocs     : 1
nthreads   : 64
#
# qchem installation setting
#
QC:          /cm/shared/apps/spack/cpu/opt/spack/linux-centos8-zen2/gcc-10.2.0/qchem-5.4-akfmr7b3t57bfs6qan3padb2wnb2i7cl
QCAUX:       /cm/shared/apps/spack/cpu/opt/spack/linux-centos8-zen2/gcc-10.2.0/qchem-5.4-akfmr7b3t57bfs6qan3padb2wnb2i7cl/qcaux
QCPROG:      /cm/shared/apps/spack/cpu/opt/spack/linux-centos8-zen2/gcc-10.2.0/qchem-5.4-akfmr7b3t57bfs6qan3padb2wnb2i7cl/exe/qcprog.exe
QCPROG_S:    /cm/shared/apps/spack/cpu/opt/spack/linux-centos8-zen2/gcc-10.2.0/qchem-5.4-akfmr7b3t57bfs6qan3padb2wnb2i7cl/exe/qcprog.exe_s
PARALLEL:    -DPARALLEL
QCMPI:       mpich
#
# qchem directory setting
#
qcrun:       qchem1890475
QCSCRATCH:   .
QCLOCALSCR:  
QCTMPDIR:    .
QCFILEPREF:  ./qchem1890475
QCSAVEDIR:   
workdirs:    ./qchem1890475
workdir0:    ./qchem1890475
partmpdirs =  
#
# parallel setting
#
QCRSH:           ssh
QCMPI:           mpich
QCMPIRUN:        /cm/shared/apps/spack/cpu/opt/spack/linux-centos8-zen2/gcc-10.2.0/qchem-5.4-akfmr7b3t57bfs6qan3padb2wnb2i7cl/bin/mpi/mpirun_qchem
QCMACHINEFILE:   ./qchem1890475/hostfile
exp-2-46

#
# env setting
#
exported envs:   QC QCAUX QCSCRATCH QCRUNNAME QCFILEPREF QCPROG QCPROG_S GUIFILE

Running Job 1 of 1 Dimethyl_Naphthalene_Dicarboximide_Phi_40_Theta_230_Thiophene_Hydrogenated_Improper.qcin
qchem Dimethyl_Naphthalene_Dicarboximide_Phi_40_Theta_230_Thiophene_Hydrogenated_Improper.qcin_1890475.0 ./qchem1890475/ 1
/cm/shared/apps/spack/cpu/opt/spack/linux-centos8-zen2/gcc-10.2.0/qchem-5.4-akfmr7b3t57bfs6qan3padb2wnb2i7cl/bin/mpi/mpirun_qchem -machinefile ./qchem1890475/hostfile -np 1 /cm/shared/apps/spack/cpu/opt/spack/linux-centos8-zen2/gcc-10.2.0/qchem-5.4-akfmr7b3t57bfs6qan3padb2wnb2i7cl/exe/qcprog.exe Dimethyl_Naphthalene_Dicarboximide_Phi_40_Theta_230_Thiophene_Hydrogenated_Improper.qcin_1890475.0 ./qchem1890475/

Process 0 of 1 is on exp-2-46 - thread support 0
initial socket setup ...start
initial socket setup ...done 
now start server 0 ... 
                  Welcome to Q-Chem
     A Quantum Leap Into The Future Of Chemistry


 Q-Chem 5.4, Q-Chem, Inc., Pleasanton, CA (2021)

 License issued to: University of California, San Diego (site)

 E. Epifanovsky,  A. T. B. Gilbert,  Xintian Feng,  Joonho Lee,  Yuezhi Mao,  
 N. Mardirossian,  P. Pokhilko,  A. White,  M. Wormit,  M. P. Coons,  
 A. L. Dempwolff,  Zhengting Gan,  D. Hait,  P. R. Horn,  L. D. Jacobson,  
 I. Kaliman,  J. Kussmann,  A. W. Lange,  Ka Un Lao,  D. S. Levine,  Jie Liu,  
 S. C. McKenzie,  A. F. Morrison,  K. Nanda,  F. Plasser,  D. R. Rehn,  
 M. L. Vidal,  Zhi-Qiang You,  Ying Zhu,  B. Alam,  B. Albrecht,  
 A. Aldossary,  E. Alguire,  J. H. Andersen,  D. Barton,  K. Begam,  A. Behn,  
 Y. A. Bernard,  E. J. Berquist,  H. Burton,  A. Carreras,  K. Carter-Fenk,  
 R. Chakraborty,  A. D. Chien,  K. D. Closser,  V. Cofer-Shabica,  
 S. Dasgupta,  Jia Deng,  M. de Wergifosse,  M. Diedenhofen,  Hainam Do,  
 S. Ehlert,  Po-Tung Fang,  S. Fatehi,  Qingguo Feng,  J. Gayvert,  
 Qinghui Ge,  G. Gidofalvi,  M. Goldey,  J. Gomes,  C. Gonzalez-Espinoza,  
 S. Gulania,  A. Gunina,  M. W. D. Hanson-Heine,  P. H. P. Harbach,  
 A. W. Hauser,  M. F. Herbst,  M. Hernandez Vera,  M. Hodecker,  
 Z. C. Holden,  S. Houck,  Xunkun Huang,  Kerwin Hui,  B. C. Huynh,  
 M. Ivanov,  Hyunjun Ji,  Hanjie Jiang,  B. Kaduk,  S. Kaehler,  
 K. Khistyaev,  Jaehoon Kim,  P. Klunzinger,  Z. Koczor-Benda,  
 Joong Hoon Koh,  D. Kosenkov,  L. Koulias,  T. Kowalczyk,  C. M. Krauter,  
 K. Kue,  A. Kunitsa,  T. Kus,  A. Landau,  K. V. Lawler,  D. Lefrancois,  
 S. Lehtola,  Rain Li,  Yi-Pei Li,  Jiashu Liang,  M. Liebenthal,  
 Hung-Hsuan Lin,  You-Sheng Lin,  Fenglai Liu,  Kuan-Yu Liu,  
 M. Loipersberger,  A. Luenser,  A. Manjanath,  P. Manohar,  E. Mansoor,  
 S. F. Manzer,  Shan-Ping Mao,  A. V. Marenich,  T. Markovich,  S. Mason,  
 S. A. Maurer,  P. F. McLaughlin,  M. F. S. J. Menger,  J.-M. Mewes,  
 S. A. Mewes,  P. Morgante,  J. W. Mullinax,  T. S. Nguyen-Beck,  
 K. J. Oosterbaan,  G. Paran,  Alexander C. Paul,  Suranjan K. Paul,  
 F. Pavosevic,  Zheng Pei,  S. Prager,  E. I. Proynov,  E. Ramos,  B. Rana,  
 A. E. Rask,  A. Rettig,  R. M. Richard,  F. Rob,  E. Rossomme,  T. Scheele,  
 M. Scheurer,  M. Schneider,  N. Sergueev,  S. M. Sharada,  W. Skomorowski,  
 D. W. Small,  C. J. Stein,  Yu-Chuan Su,  E. J. Sundstrom,  Zhen Tao,  
 J. Thirman,  T. Tsuchimochi,  N. M. Tubman,  S. P. Veccham,  O. Vydrov,  
 J. Wenzel,  J. Witte,  A. Yamada,  Kun Yao,  S. Yeganeh,  S. R. Yost,  
 A. Zech,  Igor Ying Zhang,  Xing Zhang,  Yu Zhang,  D. Zuev,  
 A. Aspuru-Guzik,  A. T. Bell,  N. A. Besley,  K. B. Bravaya,  B. R. Brooks,  
 D. Casanova,  Jeng-Da Chai,  S. Coriani,  C. J. Cramer,  
 A. E. DePrince, III,  R. A. DiStasio Jr.,  A. Dreuw,  B. D. Dunietz,  
 T. R. Furlani,  W. A. Goddard III,  S. Grimme,  S. Hammes-Schiffer,  
 T. Head-Gordon,  W. J. Hehre,  Chao-Ping Hsu,  T.-C. Jagau,  Yousung Jung,  
 A. Klamt,  Jing Kong,  D. S. Lambrecht,  WanZhen Liang,  N. J. Mayhall,  
 C. W. McCurdy,  J. B. Neaton,  C. Ochsenfeld,  J. A. Parkhill,  R. Peverati,  
 V. A. Rassolov,  Yihan Shao,  L. V. Slipchenko,  T. Stauch,  R. P. Steele,  
 J. E. Subotnik,  A. J. W. Thom,  A. Tkatchenko,  D. G. Truhlar,  
 T. Van Voorhis,  T. A. Wesolowski,  K. B. Whaley,  H. L. Woodcock III,  
 P. M. Zimmerman,  S. Faraji,  P. M. W. Gill,  M. Head-Gordon,  
 J. M. Herbert,  A. I. Krylov

 Contributors to earlier versions of Q-Chem not listed above: 
 R. D. Adamson,  B. Austin,  R. Baer,  J. Baker,  G. J. O. Beran,  
 K. Brandhorst,  S. T. Brown,  E. F. C. Byrd,  A. K. Chakraborty,  
 G. K. L. Chan,  Chun-Min Chang,  Yunqing Chen,  C.-L. Cheng,  
 Siu Hung Chien,  D. M. Chipman,  D. L. Crittenden,  H. Dachsel,  
 R. J. Doerksen,  A. D. Dutoi,  R. G. Edgar,  J. Fosso-Tande,  
 L. Fusti-Molnar,  D. Ghosh,  A. Ghysels,  A. Golubeva-Zadorozhnaya,  
 J. Gonthier,  M. S. Gordon,  S. R. Gwaltney,  G. Hawkins,  J. E. Herr,  
 A. Heyden,  S. Hirata,  E. G. Hohenstein,  G. Kedziora,  F. J. Keil,  
 C. Kelley,  Jihan Kim,  R. A. King,  R. Z. Khaliullin,  P. P. Korambath,  
 W. Kurlancheek,  A. Laurent,  A. M. Lee,  M. S. Lee,  S. V. Levchenko,  
 Ching Yeh Lin,  D. Liotard,  E. Livshits,  R. C. Lochan,  I. Lotan,  
 L. A. Martinez-Martinez,  P. E. Maslen,  N. Nair,  D. P. O'Neill,  
 D. Neuhauser,  E. Neuscamman,  C. M. Oana,  R. Olivares-Amaya,  R. Olson,  
 T. M. Perrine,  B. Peters,  P. A. Pieniazek,  A. Prociuk,  Y. M. Rhee,  
 J. Ritchie,  M. A. Rohrdanz,  E. Rosta,  N. J. Russ,  H. F. Schaefer III,  
 M. W. Schmidt,  N. E. Schultz,  S. Sharma,  N. Shenvi,  C. D. Sherrill,  
 A. C. Simmonett,  A. Sodt,  T. Stein,  D. Stuck,  K. S. Thanthiriwatte,  
 V. Vanovschi,  L. Vogt,  Tao Wang,  A. Warshel,  M. A. Watson,  
 C. F. Williams,  Q. Wu,  X. Xu,  Jun Yang,  W. Zhang,  Yan Zhao

 Please cite Q-Chem as follows:
 Y. Shao et al., Mol. Phys. 113, 184-215 (2015)
 DOI: 10.1080/00268976.2014.952696

 Q-Chem 5.4.0 for Intel X86 EM64T Linux

 Parts of Q-Chem use Armadillo 9.800.1 (Horizon Scraper).
 http://arma.sourceforge.net/

 Q-Chem begins on Sun Sep 24 15:13:15 2023  

 Host: 
0

     Scratch files written to ./qchem1890475//
 May1621 |scratch|qcdevops|jenkins|workspace|build_RNUM    
 Parallel job on  1  processors
 Processing $rem in /cm/shared/apps/spack/cpu/opt/spack/linux-centos8-zen2/gcc-10.2.0/qchem-5.4-akfmr7b3t57bfs6qan3padb2wnb2i7cl/config/preferences:
 Processing $rem in /home/rramji/.qchemrc:
 Symmetry turned off for PCM/SM12/SMD calculation
 Core orbitals will be frozen

 Checking the input file for inconsistencies... 	...done.

 Q-Chem warning in module forms1/BasisType.C, line 2236:

 You are not using the predefined 5D/6D in this basis set.


--------------------------------------------------------------
User input:
--------------------------------------------------------------
$molecule
0 1
C	-0.330331	-0.278098	-0.209652
S	0.179369	0.329602	1.370848
C	1.232069	1.584202	0.695248
C	0.311069	0.486502	-1.195052
C	1.159569	1.497902	-0.703152
H	0.159569	0.306002	-2.269552
H	1.725769	2.172802	-1.362252
C	-0.330331	-1.756298	-0.209652
H	-1.024131	-1.756898	-1.037352
H	0.425469	-2.195598	-0.843852
H	-0.953031	-2.467298	0.313048
H	1.798069	2.258902	1.346348
$end

$rem
JOBTYPE		SP
EXCHANGE	HF
CORRELATION	pRIMP2
BASIS		cc-pvtz
METHOD		rimp2
AUX_BASIS	rimp2-cc-pvtz
SOLVENT_METHOD	PCM
PURECART	11111
SYMMETRY	false
MEM_TOTAL	110000
SCF_CONVERGENCE = 6
THRESH=10
GUI = 2
$end



$solvent
dielectric 4.90
$end
--------------------------------------------------------------
 ----------------------------------------------------------------
             Standard Nuclear Orientation (Angstroms)
    I     Atom           X                Y                Z
 ----------------------------------------------------------------
    1      C      -0.3303310000    -0.2780980000    -0.2096520000
    2      S       0.1793690000     0.3296020000     1.3708480000
    3      C       1.2320690000     1.5842020000     0.6952480000
    4      C       0.3110690000     0.4865020000    -1.1950520000
    5      C       1.1595690000     1.4979020000    -0.7031520000
    6      H       0.1595690000     0.3060020000    -2.2695520000
    7      H       1.7257690000     2.1728020000    -1.3622520000
    8      C      -0.3303310000    -1.7562980000    -0.2096520000
    9      H      -1.0241310000    -1.7568980000    -1.0373520000
   10      H       0.4254690000    -2.1955980000    -0.8438520000
   11      H      -0.9530310000    -2.4672980000     0.3130480000
   12      H       1.7980690000     2.2589020000     1.3463480000
 ----------------------------------------------------------------
 Nuclear Repulsion Energy =         272.11460275 hartrees
 There are       26 alpha and       26 beta electrons
 Requested basis set is cc-pVTZ
 There are 98 shells and 268 basis functions

 Total QAlloc Memory Limit 110000 MB
 Mega-Array Size       188 MB
 MEM_STATIC part       192 MB
 Discretize the solute cavity surface with Lebedev spheres
	Using 110 Lebedev grid points for each H atom
	Using 194 Lebedev grid points for other atoms
	Atomic van der Waals radii will be scaled by 1.20
 Remove points where switching function is < 1.0e-08
 Keep 873 surface tesserae and discard 951 interior tesserae
 Molecular Surface Area = 137.362 Angst**2

                       Distance Matrix (Angstroms)
             C (  1)   S (  2)   C (  3)   C (  4)   C (  5)   H (  6)
   S (  2)  1.768353
   C (  3)  2.593858  1.771619
   C (  4)  1.402505  2.574064  2.372008
   C (  5)  2.370131  2.574333  1.402935  1.408846
   H (  6)  2.196443  3.640530  3.402072  1.100038  2.207767
   H (  7)  3.400433  3.641233  2.196246  2.207474  1.100221  2.600215
   C (  8)  1.478200  2.666225  3.797220  2.532303  3.612916  2.955718
   H (  9)  1.831200  3.406071  4.388085  2.615430  3.933695  2.678623
   H ( 10)  2.156444  3.367803  4.160087  2.707414  3.768374  2.891596
   H ( 11)  2.335287  3.197487  4.619025  3.549260  4.606360  3.949544
   H ( 12)  3.658906  2.518529  1.095220  3.436755  2.277554  4.424165
             H (  7)   C (  8)   H (  9)   H ( 10)   H ( 11)
   C (  8)  4.581906
   H (  9)  4.807292  1.080021
   H ( 10)  4.587204  1.080013  1.526840
   H ( 11)  5.613655  1.080042  1.527515  1.820028
   H ( 12)  2.710932  4.803442  5.456509  5.150105  5.565360
 
 Requested basis set is rimp2-cc-pVTZ
 There are 207 shells and 707 basis functions
 A cutoff of  1.0D-10 yielded   4424 shell pairs
 There are     33266 function pairs (     43032 Cartesian)
 Smallest overlap matrix eigenvalue = 1.57E-04

 Scale SEOQF with 1.000000e-01/1.000000e-01/1.000000e-01

 Standard Electronic Orientation quadrupole field applied
 Nucleus-field energy     =     0.0000000004 hartrees
 Guess from superposition of atomic densities
 Warning:  Energy on first SCF cycle will be non-variational
 SAD guess density has 52.000000 electrons

 -----------------------------------------------------------------------
  General SCF calculation program by
  Eric Jon Sundstrom, Paul Horn, Yuezhi Mao, Dmitri Zuev, Alec White,
  David Stuck, Shaama M.S., Shane Yost, Joonho Lee, David Small,
  Daniel Levine, Susi Lehtola, Hugh Burton, Evgeny Epifanovsky,
  Bang C. Huynh
 -----------------------------------------------------------------------
 Hartree-Fock
 using 64 threads for integral computing
 -------------------------------------------------------
 OpenMP Integral computing Module                
 Release: version 1.0, May 2013, Q-Chem Inc. Pittsburgh 
 -------------------------------------------------------
 A restricted SCF calculation will be
 performed using DIIS
 SCF converges when DIIS error is below 1.0e-06
 ---------------------------------------
  Cycle       Energy         DIIS error
 ---------------------------------------
    1    -592.6010619304      3.23e-02  
    2    -590.2729207646      2.13e-03  
    3    -590.3326841434      7.37e-04  
    4    -590.3390958994      3.51e-04  
    5    -590.3406854661      7.03e-05  
    6    -590.3408128896      2.85e-05  
    7    -590.3408470172      1.53e-05  
    8    -590.3408577466      5.76e-06  
    9    -590.3408597396      2.85e-06  
   10    -590.3408599806      9.00e-07  Convergence criterion met
 ---------------------------------------
 SCF time:   CPU 505.44s  wall 9.00s 

************** Final PCM Free Energy Summary **************
 G_electrostatic  =      -0.00562602 hartree =      -3.53037891 kcal/mol
 G_cavitation     =       0.00000000 hartree =       0.00000000 kcal/mol
 G_dispersion     =       0.00000000 hartree =       0.00000000 kcal/mol
 G_repulsion      =       0.00000000 hartree =       0.00000000 kcal/mol
 --------------------------------------------------
 Non-electrostatic Free Energy =       0.00000000 hartree =       0.00000000 kcal/mol
 Total                         =      -0.00562602 hartree =      -3.53037891 kcal/mol
 --------------------------------------------------
 SCF Energy (H0 + V/2)                       =    -590.34085998 
 Solute Internal Energy (H0)                 =    -590.33523396 
 Total Free Energy (H0 + V/2 + non-elec)     =    -590.34085998 hartree
                                             = -370444.48075609 kcal/mol
***********************************************************

 SCF   energy in the final basis set =     -590.3408599806
 Total energy in the final basis set =     -590.3408599806


 --------------------------------------------------------------
  Generalized many-body perturbation theory program
  by Joonho Lee, Fazle Rob, Xintian Feng, Evgeny Epifanovsky

 No regularization used 
 (reg. param. = 0.0000e+00)
  (P|Q)^-1/2 Time:  CPU 8.87 s  wall 0.15 s

 In RI-MP2 calculation: 
 # of frozen core orbitals: 10

 Components of the RIMP2 correlation energy:
        aaaa    correlation energy =        -0.1266550454 a.u.
        abab    correlation energy =        -0.7559507807 a.u.
        bbbb    correlation energy =        -0.1266550454 a.u.
        non-Brillouin singles      =        -0.0000000000 a.u.
        total same-spin energy     =        -0.2533100908 a.u.
        total opposite-spin energy =        -0.7559507807 a.u.

 Total  RIMP2   correlation energy =        -1.0092608715 a.u.
        RIMP2         total energy =      -591.3501208521 a.u.

 RI-MP2 Energy Time:  CPU 30.17 s  wall 0.54 s
 
 --------------------------------------------------------------
 
                    Orbital Energies (a.u.)
 --------------------------------------------------------------
 
 Alpha MOs
 -- Occupied --
-91.9734 -11.2760 -11.2730 -11.2464 -11.2441 -11.2189  -8.9739  -6.6547
 -6.6539  -6.6536  -1.1607  -1.0366  -0.9742  -0.9149  -0.7568  -0.7250
 -0.6707  -0.5947  -0.5689  -0.5592  -0.5406  -0.4999  -0.4637  -0.4332
 -0.3444  -0.3042
 -- Virtual --
  0.0813   0.1522   0.1598   0.1776   0.1844   0.1928   0.2196   0.2268
  0.2410   0.2436   0.2980   0.3248   0.3556   0.3723   0.3913   0.4051
  0.4191   0.4484   0.4557   0.4686   0.4760   0.5058   0.5265   0.5352
  0.5405   0.5528   0.5607   0.5805   0.5968   0.6080   0.6107   0.6215
  0.6273   0.6481   0.6539   0.6668   0.6833   0.6980   0.7371   0.7474
  0.7722   0.7979   0.8137   0.8529   0.8669   0.8878   0.9167   0.9348
  0.9736   0.9836   1.0135   1.0325   1.0536   1.0783   1.0937   1.1361
  1.1418   1.1457   1.1733   1.2067   1.2231   1.2304   1.2523   1.2746
  1.2926   1.3010   1.3294   1.3601   1.3872   1.4068   1.4226   1.4309
  1.4632   1.4741   1.5021   1.5102   1.5337   1.5356   1.5603   1.5867
  1.6145   1.6269   1.6493   1.6752   1.7043   1.7161   1.7595   1.8070
  1.8473   1.8641   1.9037   1.9085   1.9648   1.9985   2.0406   2.0990
  2.1409   2.1651   2.1746   2.2087   2.2472   2.2546   2.3332   2.3567
  2.4240   2.4566   2.4886   2.5161   2.5671   2.5937   2.6394   2.6668
  2.6897   2.7059   2.7332   2.7494   2.7629   2.7739   2.8130   2.8313
  2.8783   2.9237   2.9494   2.9687   3.0025   3.0111   3.0402   3.0641
  3.0690   3.1032   3.1184   3.1397   3.1747   3.1748   3.2195   3.2350
  3.2536   3.2706   3.2897   3.3061   3.3249   3.3423   3.3586   3.3856
  3.3996   3.4172   3.4224   3.4459   3.4592   3.4627   3.4996   3.5051
  3.5128   3.5453   3.5618   3.5771   3.5839   3.5973   3.6576   3.6703
  3.6722   3.6840   3.7056   3.7443   3.7650   3.7992   3.8254   3.8390
  3.8660   3.9008   3.9204   3.9328   3.9409   3.9562   3.9753   3.9871
  4.0003   4.0262   4.0732   4.1099   4.1431   4.1675   4.1771   4.1987
  4.2278   4.2440   4.2780   4.2989   4.3238   4.3716   4.4066   4.4154
  4.4251   4.4541   4.4836   4.5259   4.5458   4.5931   4.6006   4.6613
  4.6698   4.6845   4.7165   4.7542   4.7938   4.8126   4.8376   4.8808
  4.9176   5.0097   5.0350   5.0390   5.0850   5.1247   5.1334   5.1794
  5.2036   5.2923   5.3519   5.4188   5.4391   5.4838   5.5356   5.5911
  5.6602   5.6612   5.7704   5.8493   5.8713   5.9282   5.9926   6.0756
  6.0849   6.3182   6.3898   6.4680   6.6092   9.5565  11.4299  12.6423
 13.8556  14.2476
 --------------------------------------------------------------
 
          Ground-State Mulliken Net Atomic Charges

     Atom                 Charge (a.u.)
  ----------------------------------------
      1 C                    -0.022655
      2 S                     0.001655
      3 C                    -0.201879
      4 C                    -0.191582
      5 C                    -0.204106
      6 H                     0.182277
      7 H                     0.186914
      8 C                    -0.373404
      9 H                     0.119388
     10 H                     0.140247
     11 H                     0.159773
     12 H                     0.203373
  ----------------------------------------
  Sum of atomic charges =     0.000000

 -----------------------------------------------------------------
                    Cartesian Multipole Moments
 -----------------------------------------------------------------
    Charge (ESU x 10^10)
                 0.0000
    Dipole Moment (Debye)
         X       0.7284      Y      -0.2328      Z      -1.6531
       Tot       1.8214
    Quadrupole Moments (Debye-Ang)
        XX     -43.9575     XY       5.6306     YY     -40.1486
        XZ       0.1988     YZ       1.4049     ZZ     -41.6360
    Octopole Moments (Debye-Ang^2)
       XXX     -43.0233    XXY      -6.6113    XYY      -8.0170
       YYY     -35.1573    XXZ      -4.9313    XYZ       3.2771
       YYZ      -5.4936    XZZ      -9.7971    YZZ      -6.4354
       ZZZ     -28.4166
    Hexadecapole Moments (Debye-Ang^3)
      XXXX    -196.8199   XXXY     -84.3629   XXYY     -82.0825
      XYYY     -68.3936   YYYY    -405.7435   XXXZ      -4.8824
      XXYZ      -3.9096   XYYZ      -1.2018   YYYZ     -13.8595
      XXZZ     -80.3399   XYZZ     -19.3320   YYZZ    -112.6389
      XZZZ      -4.1403   YZZZ     -18.2359   ZZZZ    -308.5268
 -----------------------------------------------------------------
 Total job time:  11.56s(wall), 581.43s(cpu) 
 Sun Sep 24 15:13:27 2023

        *************************************************************
        *                                                           *
        *  Thank you very much for using Q-Chem.  Have a nice day.  *
        *                                                           *
        *************************************************************


0 sent ACK to 0 
now end server 0 ... 
cleanup process ... done
remove work dirs ./qchem1890475.0 -- ./qchem1890475.0
rm -rf ./qchem1890475.0
rm -rf ./qchem1890475
