You are running Q-Chem version: 5.4.0

#
# job setting
#
local host:  exp-4-23
current dir: /expanse/lustre/projects/csd626/rramji/aromodel/PNDIT/Hydrogenated_Impropers_Test
input file:  Dimethyl_Naphthalene_Dicarboximide_Phi_60_Theta_60_Thiophene_Hydrogenated_Improper.qcin
output file: 
nprocs     : 1
nthreads   : 64
#
# qchem installation setting
#
QC:          /cm/shared/apps/spack/cpu/opt/spack/linux-centos8-zen2/gcc-10.2.0/qchem-5.4-akfmr7b3t57bfs6qan3padb2wnb2i7cl
QCAUX:       /cm/shared/apps/spack/cpu/opt/spack/linux-centos8-zen2/gcc-10.2.0/qchem-5.4-akfmr7b3t57bfs6qan3padb2wnb2i7cl/qcaux
QCPROG:      /cm/shared/apps/spack/cpu/opt/spack/linux-centos8-zen2/gcc-10.2.0/qchem-5.4-akfmr7b3t57bfs6qan3padb2wnb2i7cl/exe/qcprog.exe
QCPROG_S:    /cm/shared/apps/spack/cpu/opt/spack/linux-centos8-zen2/gcc-10.2.0/qchem-5.4-akfmr7b3t57bfs6qan3padb2wnb2i7cl/exe/qcprog.exe_s
PARALLEL:    -DPARALLEL
QCMPI:       mpich
#
# qchem directory setting
#
qcrun:       qchem3817816
QCSCRATCH:   .
QCLOCALSCR:  
QCTMPDIR:    .
QCFILEPREF:  ./qchem3817816
QCSAVEDIR:   
workdirs:    ./qchem3817816
workdir0:    ./qchem3817816
partmpdirs =  
#
# parallel setting
#
QCRSH:           ssh
QCMPI:           mpich
QCMPIRUN:        /cm/shared/apps/spack/cpu/opt/spack/linux-centos8-zen2/gcc-10.2.0/qchem-5.4-akfmr7b3t57bfs6qan3padb2wnb2i7cl/bin/mpi/mpirun_qchem
QCMACHINEFILE:   ./qchem3817816/hostfile
exp-4-23

#
# env setting
#
exported envs:   QC QCAUX QCSCRATCH QCRUNNAME QCFILEPREF QCPROG QCPROG_S GUIFILE

Running Job 1 of 1 Dimethyl_Naphthalene_Dicarboximide_Phi_60_Theta_60_Thiophene_Hydrogenated_Improper.qcin
qchem Dimethyl_Naphthalene_Dicarboximide_Phi_60_Theta_60_Thiophene_Hydrogenated_Improper.qcin_3817816.0 ./qchem3817816/ 1
/cm/shared/apps/spack/cpu/opt/spack/linux-centos8-zen2/gcc-10.2.0/qchem-5.4-akfmr7b3t57bfs6qan3padb2wnb2i7cl/bin/mpi/mpirun_qchem -machinefile ./qchem3817816/hostfile -np 1 /cm/shared/apps/spack/cpu/opt/spack/linux-centos8-zen2/gcc-10.2.0/qchem-5.4-akfmr7b3t57bfs6qan3padb2wnb2i7cl/exe/qcprog.exe Dimethyl_Naphthalene_Dicarboximide_Phi_60_Theta_60_Thiophene_Hydrogenated_Improper.qcin_3817816.0 ./qchem3817816/

Process 0 of 1 is on exp-4-23 - thread support 0
initial socket setup ...start
initial socket setup ...done 
now start server 0 ... 
                  Welcome to Q-Chem
     A Quantum Leap Into The Future Of Chemistry


 Q-Chem 5.4, Q-Chem, Inc., Pleasanton, CA (2021)

 License issued to: University of California, San Diego (site)

 E. Epifanovsky,  A. T. B. Gilbert,  Xintian Feng,  Joonho Lee,  Yuezhi Mao,  
 N. Mardirossian,  P. Pokhilko,  A. White,  M. Wormit,  M. P. Coons,  
 A. L. Dempwolff,  Zhengting Gan,  D. Hait,  P. R. Horn,  L. D. Jacobson,  
 I. Kaliman,  J. Kussmann,  A. W. Lange,  Ka Un Lao,  D. S. Levine,  Jie Liu,  
 S. C. McKenzie,  A. F. Morrison,  K. Nanda,  F. Plasser,  D. R. Rehn,  
 M. L. Vidal,  Zhi-Qiang You,  Ying Zhu,  B. Alam,  B. Albrecht,  
 A. Aldossary,  E. Alguire,  J. H. Andersen,  D. Barton,  K. Begam,  A. Behn,  
 Y. A. Bernard,  E. J. Berquist,  H. Burton,  A. Carreras,  K. Carter-Fenk,  
 R. Chakraborty,  A. D. Chien,  K. D. Closser,  V. Cofer-Shabica,  
 S. Dasgupta,  Jia Deng,  M. de Wergifosse,  M. Diedenhofen,  Hainam Do,  
 S. Ehlert,  Po-Tung Fang,  S. Fatehi,  Qingguo Feng,  J. Gayvert,  
 Qinghui Ge,  G. Gidofalvi,  M. Goldey,  J. Gomes,  C. Gonzalez-Espinoza,  
 S. Gulania,  A. Gunina,  M. W. D. Hanson-Heine,  P. H. P. Harbach,  
 A. W. Hauser,  M. F. Herbst,  M. Hernandez Vera,  M. Hodecker,  
 Z. C. Holden,  S. Houck,  Xunkun Huang,  Kerwin Hui,  B. C. Huynh,  
 M. Ivanov,  Hyunjun Ji,  Hanjie Jiang,  B. Kaduk,  S. Kaehler,  
 K. Khistyaev,  Jaehoon Kim,  P. Klunzinger,  Z. Koczor-Benda,  
 Joong Hoon Koh,  D. Kosenkov,  L. Koulias,  T. Kowalczyk,  C. M. Krauter,  
 K. Kue,  A. Kunitsa,  T. Kus,  A. Landau,  K. V. Lawler,  D. Lefrancois,  
 S. Lehtola,  Rain Li,  Yi-Pei Li,  Jiashu Liang,  M. Liebenthal,  
 Hung-Hsuan Lin,  You-Sheng Lin,  Fenglai Liu,  Kuan-Yu Liu,  
 M. Loipersberger,  A. Luenser,  A. Manjanath,  P. Manohar,  E. Mansoor,  
 S. F. Manzer,  Shan-Ping Mao,  A. V. Marenich,  T. Markovich,  S. Mason,  
 S. A. Maurer,  P. F. McLaughlin,  M. F. S. J. Menger,  J.-M. Mewes,  
 S. A. Mewes,  P. Morgante,  J. W. Mullinax,  T. S. Nguyen-Beck,  
 K. J. Oosterbaan,  G. Paran,  Alexander C. Paul,  Suranjan K. Paul,  
 F. Pavosevic,  Zheng Pei,  S. Prager,  E. I. Proynov,  E. Ramos,  B. Rana,  
 A. E. Rask,  A. Rettig,  R. M. Richard,  F. Rob,  E. Rossomme,  T. Scheele,  
 M. Scheurer,  M. Schneider,  N. Sergueev,  S. M. Sharada,  W. Skomorowski,  
 D. W. Small,  C. J. Stein,  Yu-Chuan Su,  E. J. Sundstrom,  Zhen Tao,  
 J. Thirman,  T. Tsuchimochi,  N. M. Tubman,  S. P. Veccham,  O. Vydrov,  
 J. Wenzel,  J. Witte,  A. Yamada,  Kun Yao,  S. Yeganeh,  S. R. Yost,  
 A. Zech,  Igor Ying Zhang,  Xing Zhang,  Yu Zhang,  D. Zuev,  
 A. Aspuru-Guzik,  A. T. Bell,  N. A. Besley,  K. B. Bravaya,  B. R. Brooks,  
 D. Casanova,  Jeng-Da Chai,  S. Coriani,  C. J. Cramer,  
 A. E. DePrince, III,  R. A. DiStasio Jr.,  A. Dreuw,  B. D. Dunietz,  
 T. R. Furlani,  W. A. Goddard III,  S. Grimme,  S. Hammes-Schiffer,  
 T. Head-Gordon,  W. J. Hehre,  Chao-Ping Hsu,  T.-C. Jagau,  Yousung Jung,  
 A. Klamt,  Jing Kong,  D. S. Lambrecht,  WanZhen Liang,  N. J. Mayhall,  
 C. W. McCurdy,  J. B. Neaton,  C. Ochsenfeld,  J. A. Parkhill,  R. Peverati,  
 V. A. Rassolov,  Yihan Shao,  L. V. Slipchenko,  T. Stauch,  R. P. Steele,  
 J. E. Subotnik,  A. J. W. Thom,  A. Tkatchenko,  D. G. Truhlar,  
 T. Van Voorhis,  T. A. Wesolowski,  K. B. Whaley,  H. L. Woodcock III,  
 P. M. Zimmerman,  S. Faraji,  P. M. W. Gill,  M. Head-Gordon,  
 J. M. Herbert,  A. I. Krylov

 Contributors to earlier versions of Q-Chem not listed above: 
 R. D. Adamson,  B. Austin,  R. Baer,  J. Baker,  G. J. O. Beran,  
 K. Brandhorst,  S. T. Brown,  E. F. C. Byrd,  A. K. Chakraborty,  
 G. K. L. Chan,  Chun-Min Chang,  Yunqing Chen,  C.-L. Cheng,  
 Siu Hung Chien,  D. M. Chipman,  D. L. Crittenden,  H. Dachsel,  
 R. J. Doerksen,  A. D. Dutoi,  R. G. Edgar,  J. Fosso-Tande,  
 L. Fusti-Molnar,  D. Ghosh,  A. Ghysels,  A. Golubeva-Zadorozhnaya,  
 J. Gonthier,  M. S. Gordon,  S. R. Gwaltney,  G. Hawkins,  J. E. Herr,  
 A. Heyden,  S. Hirata,  E. G. Hohenstein,  G. Kedziora,  F. J. Keil,  
 C. Kelley,  Jihan Kim,  R. A. King,  R. Z. Khaliullin,  P. P. Korambath,  
 W. Kurlancheek,  A. Laurent,  A. M. Lee,  M. S. Lee,  S. V. Levchenko,  
 Ching Yeh Lin,  D. Liotard,  E. Livshits,  R. C. Lochan,  I. Lotan,  
 L. A. Martinez-Martinez,  P. E. Maslen,  N. Nair,  D. P. O'Neill,  
 D. Neuhauser,  E. Neuscamman,  C. M. Oana,  R. Olivares-Amaya,  R. Olson,  
 T. M. Perrine,  B. Peters,  P. A. Pieniazek,  A. Prociuk,  Y. M. Rhee,  
 J. Ritchie,  M. A. Rohrdanz,  E. Rosta,  N. J. Russ,  H. F. Schaefer III,  
 M. W. Schmidt,  N. E. Schultz,  S. Sharma,  N. Shenvi,  C. D. Sherrill,  
 A. C. Simmonett,  A. Sodt,  T. Stein,  D. Stuck,  K. S. Thanthiriwatte,  
 V. Vanovschi,  L. Vogt,  Tao Wang,  A. Warshel,  M. A. Watson,  
 C. F. Williams,  Q. Wu,  X. Xu,  Jun Yang,  W. Zhang,  Yan Zhao

 Please cite Q-Chem as follows:
 Y. Shao et al., Mol. Phys. 113, 184-215 (2015)
 DOI: 10.1080/00268976.2014.952696

 Q-Chem 5.4.0 for Intel X86 EM64T Linux

 Parts of Q-Chem use Armadillo 9.800.1 (Horizon Scraper).
 http://arma.sourceforge.net/

 Q-Chem begins on Sun Sep 24 15:08:22 2023  

 Host: 
0

     Scratch files written to ./qchem3817816//
 May1621 |scratch|qcdevops|jenkins|workspace|build_RNUM    
 Parallel job on  1  processors
 Processing $rem in /cm/shared/apps/spack/cpu/opt/spack/linux-centos8-zen2/gcc-10.2.0/qchem-5.4-akfmr7b3t57bfs6qan3padb2wnb2i7cl/config/preferences:
 Processing $rem in /home/rramji/.qchemrc:
 Symmetry turned off for PCM/SM12/SMD calculation
 Core orbitals will be frozen

 Checking the input file for inconsistencies... 	...done.

 Q-Chem warning in module forms1/BasisType.C, line 2236:

 You are not using the predefined 5D/6D in this basis set.


--------------------------------------------------------------
User input:
--------------------------------------------------------------
$molecule
0 1
C	-0.450963	-0.140188	-0.219723
S	0.235837	0.256612	1.360777
C	1.654137	1.075412	0.685177
C	0.413237	0.358912	-1.205123
C	1.556537	1.019112	-0.713223
H	0.209137	0.241112	-2.279623
H	2.319437	1.459712	-1.372323
C	-0.450963	-1.618388	-0.219723
H	0.088537	-1.618988	0.715877
H	-1.305463	-2.057688	0.273577
H	0.253037	-2.329388	-0.626323
H	2.416737	1.515912	1.336277
$end

$rem
JOBTYPE		SP
EXCHANGE	HF
CORRELATION	pRIMP2
BASIS		cc-pvtz
METHOD		rimp2
AUX_BASIS	rimp2-cc-pvtz
SOLVENT_METHOD	PCM
PURECART	11111
SYMMETRY	false
MEM_TOTAL	110000
SCF_CONVERGENCE = 6
THRESH=10
GUI = 2
$end



$solvent
dielectric 4.90
$end
--------------------------------------------------------------
 ----------------------------------------------------------------
             Standard Nuclear Orientation (Angstroms)
    I     Atom           X                Y                Z
 ----------------------------------------------------------------
    1      C      -0.4509630000    -0.1401880000    -0.2197230000
    2      S       0.2358370000     0.2566120000     1.3607770000
    3      C       1.6541370000     1.0754120000     0.6851770000
    4      C       0.4132370000     0.3589120000    -1.2051230000
    5      C       1.5565370000     1.0191120000    -0.7132230000
    6      H       0.2091370000     0.2411120000    -2.2796230000
    7      H       2.3194370000     1.4597120000    -1.3723230000
    8      C      -0.4509630000    -1.6183880000    -0.2197230000
    9      H       0.0885370000    -1.6189880000     0.7158770000
   10      H      -1.3054630000    -2.0576880000     0.2735770000
   11      H       0.2530370000    -2.3293880000    -0.6263230000
   12      H       2.4167370000     1.5159120000     1.3362770000
 ----------------------------------------------------------------
 Nuclear Repulsion Energy =         277.08134468 hartrees
 There are       26 alpha and       26 beta electrons
 Requested basis set is cc-pVTZ
 There are 98 shells and 268 basis functions

 Total QAlloc Memory Limit 110000 MB
 Mega-Array Size       188 MB
 MEM_STATIC part       192 MB
 Discretize the solute cavity surface with Lebedev spheres
	Using 110 Lebedev grid points for each H atom
	Using 194 Lebedev grid points for other atoms
	Atomic van der Waals radii will be scaled by 1.20
 Remove points where switching function is < 1.0e-08
 Keep 857 surface tesserae and discard 967 interior tesserae
 Molecular Surface Area = 134.756 Angst**2

                       Distance Matrix (Angstroms)
             C (  1)   S (  2)   C (  3)   C (  4)   C (  5)   H (  6)
   S (  2)  1.768368
   C (  3)  2.593834  1.771565
   C (  4)  1.402482  2.574059  2.372012
   C (  5)  2.370142  2.574321  1.402932  1.408888
   H (  6)  2.196431  3.640531  3.402076  1.100038  2.207800
   H (  7)  3.400483  3.641246  2.196273  2.207559  1.100253  2.600297
   C (  8)  1.478200  2.546625  3.536502  2.372250  3.351120  2.852483
   H (  9)  1.831190  1.988836  3.116382  2.776285  3.340198  3.528107
   H ( 10)  2.156460  2.985564  4.329545  3.313675  4.316424  3.754640
   H ( 11)  2.335281  3.261328  3.908424  2.754565  3.594317  3.056599
   H ( 12)  3.658894  2.518484  1.095231  3.436768  2.277544  4.424177
             H (  7)   C (  8)   H (  9)   H ( 10)   H ( 11)
   C (  8)  4.298640
   H (  9)  4.337728  1.080004
   H ( 10)  5.312343  1.080046  1.526867
   H ( 11)  4.379932  1.080028  1.527491  1.820045
   H ( 12)  2.710930  4.524232  3.953860  5.268275  4.829050
 
 Requested basis set is rimp2-cc-pVTZ
 There are 207 shells and 707 basis functions
 A cutoff of  1.0D-10 yielded   4508 shell pairs
 There are     33964 function pairs (     43920 Cartesian)
 Smallest overlap matrix eigenvalue = 1.72E-04

 Scale SEOQF with 1.000000e-01/1.000000e-01/1.000000e-01

 Standard Electronic Orientation quadrupole field applied
 Nucleus-field energy     =    -0.0000000007 hartrees
 Guess from superposition of atomic densities
 Warning:  Energy on first SCF cycle will be non-variational
 SAD guess density has 52.000000 electrons

 -----------------------------------------------------------------------
  General SCF calculation program by
  Eric Jon Sundstrom, Paul Horn, Yuezhi Mao, Dmitri Zuev, Alec White,
  David Stuck, Shaama M.S., Shane Yost, Joonho Lee, David Small,
  Daniel Levine, Susi Lehtola, Hugh Burton, Evgeny Epifanovsky,
  Bang C. Huynh
 -----------------------------------------------------------------------
 Hartree-Fock
 using 64 threads for integral computing
 -------------------------------------------------------
 OpenMP Integral computing Module                
 Release: version 1.0, May 2013, Q-Chem Inc. Pittsburgh 
 -------------------------------------------------------
 A restricted SCF calculation will be
 performed using DIIS
 SCF converges when DIIS error is below 1.0e-06
 ---------------------------------------
  Cycle       Energy         DIIS error
 ---------------------------------------
    1    -592.7373771195      3.30e-02  
    2    -590.2121061915      2.21e-03  
    3    -590.2749546306      8.30e-04  
    4    -590.2826463840      4.04e-04  
    5    -590.2848046299      8.31e-05  
    6    -590.2849913931      4.38e-05  
    7    -590.2850585446      1.84e-05  
    8    -590.2850809473      9.48e-06  
    9    -590.2850851062      3.07e-06  
   10    -590.2850855964      1.08e-06  
   11    -590.2850856452      3.45e-07  Convergence criterion met
 ---------------------------------------
 SCF time:   CPU 564.88s  wall 10.00s 

************** Final PCM Free Energy Summary **************
 G_electrostatic  =      -0.00623424 hartree =      -3.91204426 kcal/mol
 G_cavitation     =       0.00000000 hartree =       0.00000000 kcal/mol
 G_dispersion     =       0.00000000 hartree =       0.00000000 kcal/mol
 G_repulsion      =       0.00000000 hartree =       0.00000000 kcal/mol
 --------------------------------------------------
 Non-electrostatic Free Energy =       0.00000000 hartree =       0.00000000 kcal/mol
 Total                         =      -0.00623424 hartree =      -3.91204426 kcal/mol
 --------------------------------------------------
 SCF Energy (H0 + V/2)                       =    -590.28508565 
 Solute Internal Energy (H0)                 =    -590.27885141 
 Total Free Energy (H0 + V/2 + non-elec)     =    -590.28508565 hartree
                                             = -370409.48183239 kcal/mol
***********************************************************

 SCF   energy in the final basis set =     -590.2850856452
 Total energy in the final basis set =     -590.2850856452


 --------------------------------------------------------------
  Generalized many-body perturbation theory program
  by Joonho Lee, Fazle Rob, Xintian Feng, Evgeny Epifanovsky

 No regularization used 
 (reg. param. = 0.0000e+00)
  (P|Q)^-1/2 Time:  CPU 6.92 s  wall 0.11 s

 In RI-MP2 calculation: 
 # of frozen core orbitals: 10

 Components of the RIMP2 correlation energy:
        aaaa    correlation energy =        -0.1276500546 a.u.
        abab    correlation energy =        -0.7595803204 a.u.
        bbbb    correlation energy =        -0.1276500546 a.u.
        non-Brillouin singles      =        -0.0000000000 a.u.
        total same-spin energy     =        -0.2553001092 a.u.
        total opposite-spin energy =        -0.7595803204 a.u.

 Total  RIMP2   correlation energy =        -1.0148804296 a.u.
        RIMP2         total energy =      -591.2999660748 a.u.

 RI-MP2 Energy Time:  CPU 28.89 s  wall 0.52 s
 
 --------------------------------------------------------------
 
                    Orbital Energies (a.u.)
 --------------------------------------------------------------
 
 Alpha MOs
 -- Occupied --
-91.9716 -11.2948 -11.2606 -11.2516 -11.2443 -11.2079  -8.9737  -6.6543
 -6.6533  -6.6532  -1.1733  -1.0396  -0.9822  -0.9029  -0.7696  -0.7280
 -0.6731  -0.5880  -0.5791  -0.5657  -0.5362  -0.4843  -0.4638  -0.4367
 -0.3384  -0.3027
 -- Virtual --
  0.0602   0.1563   0.1592   0.1773   0.1897   0.1952   0.2076   0.2191
  0.2308   0.2506   0.2905   0.3223   0.3534   0.3628   0.3892   0.4045
  0.4318   0.4460   0.4475   0.4560   0.4859   0.5030   0.5105   0.5209
  0.5354   0.5401   0.5604   0.5922   0.5967   0.6016   0.6086   0.6156
  0.6291   0.6397   0.6535   0.6770   0.6944   0.7085   0.7361   0.7617
  0.7799   0.7867   0.8122   0.8526   0.8589   0.8745   0.9022   0.9375
  0.9876   1.0059   1.0404   1.0608   1.0792   1.0962   1.1042   1.1457
  1.1605   1.1644   1.1847   1.1865   1.2201   1.2375   1.2633   1.2717
  1.2861   1.3334   1.3544   1.3694   1.3810   1.4045   1.4321   1.4365
  1.4668   1.4734   1.4889   1.4961   1.5195   1.5425   1.5702   1.5947
  1.6149   1.6415   1.6598   1.6680   1.6932   1.7261   1.7623   1.7995
  1.8326   1.8445   1.8966   1.9357   1.9568   1.9821   2.0388   2.0946
  2.1087   2.1759   2.1861   2.2251   2.2426   2.2528   2.3604   2.3876
  2.4296   2.4555   2.4894   2.5209   2.5778   2.6209   2.6267   2.6636
  2.6648   2.7062   2.7171   2.7555   2.7867   2.8222   2.8317   2.8659
  2.9019   2.9292   2.9422   2.9652   3.0031   3.0047   3.0428   3.0630
  3.0827   3.1118   3.1280   3.1445   3.1808   3.2014   3.2070   3.2315
  3.2542   3.2764   3.2824   3.3047   3.3114   3.3389   3.3527   3.3771
  3.3897   3.4217   3.4355   3.4460   3.4668   3.4900   3.5013   3.5157
  3.5315   3.5398   3.5776   3.5842   3.5955   3.6445   3.6612   3.6706
  3.6919   3.7167   3.7299   3.7675   3.7927   3.8205   3.8360   3.8795
  3.9033   3.9168   3.9341   3.9498   3.9535   3.9636   4.0032   4.0190
  4.0557   4.0715   4.1144   4.1263   4.1590   4.1679   4.1926   4.2075
  4.2448   4.2661   4.2782   4.2971   4.3070   4.3702   4.4105   4.4361
  4.4434   4.4700   4.5095   4.5263   4.5524   4.5828   4.6233   4.6300
  4.6423   4.7109   4.7214   4.7603   4.8036   4.8279   4.8490   4.8581
  4.8970   5.0038   5.0224   5.0476   5.0950   5.1022   5.1745   5.2026
  5.2461   5.2877   5.3535   5.4311   5.4806   5.4898   5.5417   5.5672
  5.6433   5.6847   5.7992   5.8286   5.8772   5.9403   5.9655   6.0168
  6.0617   6.3335   6.3940   6.4680   6.5667   9.7293  11.6801  12.5904
 13.7971  14.1936
 --------------------------------------------------------------
 
          Ground-State Mulliken Net Atomic Charges

     Atom                 Charge (a.u.)
  ----------------------------------------
      1 C                    -0.117656
      2 S                    -0.000776
      3 C                    -0.149663
      4 C                    -0.078093
      5 C                    -0.251638
      6 H                     0.189941
      7 H                     0.187091
      8 C                    -0.376157
      9 H                     0.133814
     10 H                     0.105628
     11 H                     0.148180
     12 H                     0.209329
  ----------------------------------------
  Sum of atomic charges =     0.000000

 -----------------------------------------------------------------
                    Cartesian Multipole Moments
 -----------------------------------------------------------------
    Charge (ESU x 10^10)
                 0.0000
    Dipole Moment (Debye)
         X       2.7775      Y       0.0152      Z      -0.6373
       Tot       2.8497
    Quadrupole Moments (Debye-Ang)
        XX     -41.4925     XY       3.4831     YY     -44.1559
        XZ       0.2494     YZ      -0.6765     ZZ     -41.2486
    Octopole Moments (Debye-Ang^2)
       XXX     -47.1955    XXY       4.5844    XYY     -12.6555
       YYY     -18.4055    XXZ      -1.8741    XYZ       4.2884
       YYZ      -4.7243    XZZ     -12.9311    YZZ      -0.9641
       ZZZ     -31.1017
    Hexadecapole Moments (Debye-Ang^3)
      XXXX    -271.6602   XXXY     -64.1810   XXYY     -86.0056
      XYYY     -93.5513   YYYY    -298.1585   XXXZ       1.0502
      XXYZ      -0.0826   XYYZ      -1.9793   YYYZ     -12.5854
      XXZZ     -87.3526   XYZZ     -18.3677   YYZZ    -100.5910
      XZZZ      -2.5092   YZZZ     -14.1033   ZZZZ    -299.3857
 -----------------------------------------------------------------
 Total job time:  12.59s(wall), 628.53s(cpu) 
 Sun Sep 24 15:08:34 2023

        *************************************************************
        *                                                           *
        *  Thank you very much for using Q-Chem.  Have a nice day.  *
        *                                                           *
        *************************************************************


0 sent ACK to 0 
now end server 0 ... 
cleanup process ... done
remove work dirs ./qchem3817816.0 -- ./qchem3817816.0
rm -rf ./qchem3817816.0
rm -rf ./qchem3817816
