You are running Q-Chem version: 5.4.0

#
# job setting
#
local host:  exp-3-02
current dir: /expanse/lustre/projects/csd626/rramji/aromodel/PNDIT/Hydrogenated_Impropers_Test
input file:  Dimethyl_Naphthalene_Dicarboximide_Phi_5_Theta_60_Thiophene_Hydrogenated_Improper.qcin
output file: 
nprocs     : 1
nthreads   : 64
#
# qchem installation setting
#
QC:          /cm/shared/apps/spack/cpu/opt/spack/linux-centos8-zen2/gcc-10.2.0/qchem-5.4-akfmr7b3t57bfs6qan3padb2wnb2i7cl
QCAUX:       /cm/shared/apps/spack/cpu/opt/spack/linux-centos8-zen2/gcc-10.2.0/qchem-5.4-akfmr7b3t57bfs6qan3padb2wnb2i7cl/qcaux
QCPROG:      /cm/shared/apps/spack/cpu/opt/spack/linux-centos8-zen2/gcc-10.2.0/qchem-5.4-akfmr7b3t57bfs6qan3padb2wnb2i7cl/exe/qcprog.exe
QCPROG_S:    /cm/shared/apps/spack/cpu/opt/spack/linux-centos8-zen2/gcc-10.2.0/qchem-5.4-akfmr7b3t57bfs6qan3padb2wnb2i7cl/exe/qcprog.exe_s
PARALLEL:    -DPARALLEL
QCMPI:       mpich
#
# qchem directory setting
#
qcrun:       qchem1048289
QCSCRATCH:   .
QCLOCALSCR:  
QCTMPDIR:    .
QCFILEPREF:  ./qchem1048289
QCSAVEDIR:   
workdirs:    ./qchem1048289
workdir0:    ./qchem1048289
partmpdirs =  
#
# parallel setting
#
QCRSH:           ssh
QCMPI:           mpich
QCMPIRUN:        /cm/shared/apps/spack/cpu/opt/spack/linux-centos8-zen2/gcc-10.2.0/qchem-5.4-akfmr7b3t57bfs6qan3padb2wnb2i7cl/bin/mpi/mpirun_qchem
QCMACHINEFILE:   ./qchem1048289/hostfile
exp-3-02

#
# env setting
#
exported envs:   QC QCAUX QCSCRATCH QCRUNNAME QCFILEPREF QCPROG QCPROG_S GUIFILE

Running Job 1 of 1 Dimethyl_Naphthalene_Dicarboximide_Phi_5_Theta_60_Thiophene_Hydrogenated_Improper.qcin
qchem Dimethyl_Naphthalene_Dicarboximide_Phi_5_Theta_60_Thiophene_Hydrogenated_Improper.qcin_1048289.0 ./qchem1048289/ 1
/cm/shared/apps/spack/cpu/opt/spack/linux-centos8-zen2/gcc-10.2.0/qchem-5.4-akfmr7b3t57bfs6qan3padb2wnb2i7cl/bin/mpi/mpirun_qchem -machinefile ./qchem1048289/hostfile -np 1 /cm/shared/apps/spack/cpu/opt/spack/linux-centos8-zen2/gcc-10.2.0/qchem-5.4-akfmr7b3t57bfs6qan3padb2wnb2i7cl/exe/qcprog.exe Dimethyl_Naphthalene_Dicarboximide_Phi_5_Theta_60_Thiophene_Hydrogenated_Improper.qcin_1048289.0 ./qchem1048289/

Process 0 of 1 is on exp-3-02 - thread support 0
initial socket setup ...start
initial socket setup ...done 
now start server 0 ... 
                  Welcome to Q-Chem
     A Quantum Leap Into The Future Of Chemistry


 Q-Chem 5.4, Q-Chem, Inc., Pleasanton, CA (2021)

 License issued to: University of California, San Diego (site)

 E. Epifanovsky,  A. T. B. Gilbert,  Xintian Feng,  Joonho Lee,  Yuezhi Mao,  
 N. Mardirossian,  P. Pokhilko,  A. White,  M. Wormit,  M. P. Coons,  
 A. L. Dempwolff,  Zhengting Gan,  D. Hait,  P. R. Horn,  L. D. Jacobson,  
 I. Kaliman,  J. Kussmann,  A. W. Lange,  Ka Un Lao,  D. S. Levine,  Jie Liu,  
 S. C. McKenzie,  A. F. Morrison,  K. Nanda,  F. Plasser,  D. R. Rehn,  
 M. L. Vidal,  Zhi-Qiang You,  Ying Zhu,  B. Alam,  B. Albrecht,  
 A. Aldossary,  E. Alguire,  J. H. Andersen,  D. Barton,  K. Begam,  A. Behn,  
 Y. A. Bernard,  E. J. Berquist,  H. Burton,  A. Carreras,  K. Carter-Fenk,  
 R. Chakraborty,  A. D. Chien,  K. D. Closser,  V. Cofer-Shabica,  
 S. Dasgupta,  Jia Deng,  M. de Wergifosse,  M. Diedenhofen,  Hainam Do,  
 S. Ehlert,  Po-Tung Fang,  S. Fatehi,  Qingguo Feng,  J. Gayvert,  
 Qinghui Ge,  G. Gidofalvi,  M. Goldey,  J. Gomes,  C. Gonzalez-Espinoza,  
 S. Gulania,  A. Gunina,  M. W. D. Hanson-Heine,  P. H. P. Harbach,  
 A. W. Hauser,  M. F. Herbst,  M. Hernandez Vera,  M. Hodecker,  
 Z. C. Holden,  S. Houck,  Xunkun Huang,  Kerwin Hui,  B. C. Huynh,  
 M. Ivanov,  Hyunjun Ji,  Hanjie Jiang,  B. Kaduk,  S. Kaehler,  
 K. Khistyaev,  Jaehoon Kim,  P. Klunzinger,  Z. Koczor-Benda,  
 Joong Hoon Koh,  D. Kosenkov,  L. Koulias,  T. Kowalczyk,  C. M. Krauter,  
 K. Kue,  A. Kunitsa,  T. Kus,  A. Landau,  K. V. Lawler,  D. Lefrancois,  
 S. Lehtola,  Rain Li,  Yi-Pei Li,  Jiashu Liang,  M. Liebenthal,  
 Hung-Hsuan Lin,  You-Sheng Lin,  Fenglai Liu,  Kuan-Yu Liu,  
 M. Loipersberger,  A. Luenser,  A. Manjanath,  P. Manohar,  E. Mansoor,  
 S. F. Manzer,  Shan-Ping Mao,  A. V. Marenich,  T. Markovich,  S. Mason,  
 S. A. Maurer,  P. F. McLaughlin,  M. F. S. J. Menger,  J.-M. Mewes,  
 S. A. Mewes,  P. Morgante,  J. W. Mullinax,  T. S. Nguyen-Beck,  
 K. J. Oosterbaan,  G. Paran,  Alexander C. Paul,  Suranjan K. Paul,  
 F. Pavosevic,  Zheng Pei,  S. Prager,  E. I. Proynov,  E. Ramos,  B. Rana,  
 A. E. Rask,  A. Rettig,  R. M. Richard,  F. Rob,  E. Rossomme,  T. Scheele,  
 M. Scheurer,  M. Schneider,  N. Sergueev,  S. M. Sharada,  W. Skomorowski,  
 D. W. Small,  C. J. Stein,  Yu-Chuan Su,  E. J. Sundstrom,  Zhen Tao,  
 J. Thirman,  T. Tsuchimochi,  N. M. Tubman,  S. P. Veccham,  O. Vydrov,  
 J. Wenzel,  J. Witte,  A. Yamada,  Kun Yao,  S. Yeganeh,  S. R. Yost,  
 A. Zech,  Igor Ying Zhang,  Xing Zhang,  Yu Zhang,  D. Zuev,  
 A. Aspuru-Guzik,  A. T. Bell,  N. A. Besley,  K. B. Bravaya,  B. R. Brooks,  
 D. Casanova,  Jeng-Da Chai,  S. Coriani,  C. J. Cramer,  
 A. E. DePrince, III,  R. A. DiStasio Jr.,  A. Dreuw,  B. D. Dunietz,  
 T. R. Furlani,  W. A. Goddard III,  S. Grimme,  S. Hammes-Schiffer,  
 T. Head-Gordon,  W. J. Hehre,  Chao-Ping Hsu,  T.-C. Jagau,  Yousung Jung,  
 A. Klamt,  Jing Kong,  D. S. Lambrecht,  WanZhen Liang,  N. J. Mayhall,  
 C. W. McCurdy,  J. B. Neaton,  C. Ochsenfeld,  J. A. Parkhill,  R. Peverati,  
 V. A. Rassolov,  Yihan Shao,  L. V. Slipchenko,  T. Stauch,  R. P. Steele,  
 J. E. Subotnik,  A. J. W. Thom,  A. Tkatchenko,  D. G. Truhlar,  
 T. Van Voorhis,  T. A. Wesolowski,  K. B. Whaley,  H. L. Woodcock III,  
 P. M. Zimmerman,  S. Faraji,  P. M. W. Gill,  M. Head-Gordon,  
 J. M. Herbert,  A. I. Krylov

 Contributors to earlier versions of Q-Chem not listed above: 
 R. D. Adamson,  B. Austin,  R. Baer,  J. Baker,  G. J. O. Beran,  
 K. Brandhorst,  S. T. Brown,  E. F. C. Byrd,  A. K. Chakraborty,  
 G. K. L. Chan,  Chun-Min Chang,  Yunqing Chen,  C.-L. Cheng,  
 Siu Hung Chien,  D. M. Chipman,  D. L. Crittenden,  H. Dachsel,  
 R. J. Doerksen,  A. D. Dutoi,  R. G. Edgar,  J. Fosso-Tande,  
 L. Fusti-Molnar,  D. Ghosh,  A. Ghysels,  A. Golubeva-Zadorozhnaya,  
 J. Gonthier,  M. S. Gordon,  S. R. Gwaltney,  G. Hawkins,  J. E. Herr,  
 A. Heyden,  S. Hirata,  E. G. Hohenstein,  G. Kedziora,  F. J. Keil,  
 C. Kelley,  Jihan Kim,  R. A. King,  R. Z. Khaliullin,  P. P. Korambath,  
 W. Kurlancheek,  A. Laurent,  A. M. Lee,  M. S. Lee,  S. V. Levchenko,  
 Ching Yeh Lin,  D. Liotard,  E. Livshits,  R. C. Lochan,  I. Lotan,  
 L. A. Martinez-Martinez,  P. E. Maslen,  N. Nair,  D. P. O'Neill,  
 D. Neuhauser,  E. Neuscamman,  C. M. Oana,  R. Olivares-Amaya,  R. Olson,  
 T. M. Perrine,  B. Peters,  P. A. Pieniazek,  A. Prociuk,  Y. M. Rhee,  
 J. Ritchie,  M. A. Rohrdanz,  E. Rosta,  N. J. Russ,  H. F. Schaefer III,  
 M. W. Schmidt,  N. E. Schultz,  S. Sharma,  N. Shenvi,  C. D. Sherrill,  
 A. C. Simmonett,  A. Sodt,  T. Stein,  D. Stuck,  K. S. Thanthiriwatte,  
 V. Vanovschi,  L. Vogt,  Tao Wang,  A. Warshel,  M. A. Watson,  
 C. F. Williams,  Q. Wu,  X. Xu,  Jun Yang,  W. Zhang,  Yan Zhao

 Please cite Q-Chem as follows:
 Y. Shao et al., Mol. Phys. 113, 184-215 (2015)
 DOI: 10.1080/00268976.2014.952696

 Q-Chem 5.4.0 for Intel X86 EM64T Linux

 Parts of Q-Chem use Armadillo 9.800.1 (Horizon Scraper).
 http://arma.sourceforge.net/

 Q-Chem begins on Sun Sep 24 15:57:34 2023  

 Host: 
0

     Scratch files written to ./qchem1048289//
 May1621 |scratch|qcdevops|jenkins|workspace|build_RNUM    
 Parallel job on  1  processors
 Processing $rem in /cm/shared/apps/spack/cpu/opt/spack/linux-centos8-zen2/gcc-10.2.0/qchem-5.4-akfmr7b3t57bfs6qan3padb2wnb2i7cl/config/preferences:
 Processing $rem in /home/rramji/.qchemrc:
 Symmetry turned off for PCM/SM12/SMD calculation
 Core orbitals will be frozen

 Checking the input file for inconsistencies... 	...done.

 Q-Chem warning in module forms1/BasisType.C, line 2236:

 You are not using the predefined 5D/6D in this basis set.


--------------------------------------------------------------
User input:
--------------------------------------------------------------
$molecule
0 1
C	-0.047101	-0.397395	-0.219723
S	0.021799	0.392805	1.360777
C	0.164499	2.024305	0.685177
C	0.039699	0.596805	-1.205123
C	0.154699	1.912005	-0.713223
H	0.019199	0.362105	-2.279623
H	0.231399	2.789605	-1.372323
C	-0.047101	-1.875595	-0.219723
H	0.492399	-1.876195	0.715877
H	-0.901601	-2.314895	0.273577
H	0.656899	-2.586595	-0.626323
H	0.241199	2.901605	1.336277
$end

$rem
JOBTYPE		SP
EXCHANGE	HF
CORRELATION	pRIMP2
BASIS		cc-pvtz
METHOD		rimp2
AUX_BASIS	rimp2-cc-pvtz
SOLVENT_METHOD	PCM
PURECART	11111
SYMMETRY	false
MEM_TOTAL	110000
SCF_CONVERGENCE = 6
THRESH=10
GUI = 2
$end



$solvent
dielectric 4.90
$end
--------------------------------------------------------------
 ----------------------------------------------------------------
             Standard Nuclear Orientation (Angstroms)
    I     Atom           X                Y                Z
 ----------------------------------------------------------------
    1      C      -0.0471010000    -0.3973950000    -0.2197230000
    2      S       0.0217990000     0.3928050000     1.3607770000
    3      C       0.1644990000     2.0243050000     0.6851770000
    4      C       0.0396990000     0.5968050000    -1.2051230000
    5      C       0.1546990000     1.9120050000    -0.7132230000
    6      H       0.0191990000     0.3621050000    -2.2796230000
    7      H       0.2313990000     2.7896050000    -1.3723230000
    8      C      -0.0471010000    -1.8755950000    -0.2197230000
    9      H       0.4923990000    -1.8761950000     0.7158770000
   10      H      -0.9016010000    -2.3148950000     0.2735770000
   11      H       0.6568990000    -2.5865950000    -0.6263230000
   12      H       0.2411990000     2.9016050000     1.3362770000
 ----------------------------------------------------------------
 Nuclear Repulsion Energy =         270.75286213 hartrees
 There are       26 alpha and       26 beta electrons
 Requested basis set is cc-pVTZ
 There are 98 shells and 268 basis functions

 Total QAlloc Memory Limit 110000 MB
 Mega-Array Size       188 MB
 MEM_STATIC part       192 MB
 Discretize the solute cavity surface with Lebedev spheres
	Using 110 Lebedev grid points for each H atom
	Using 194 Lebedev grid points for other atoms
	Atomic van der Waals radii will be scaled by 1.20
 Remove points where switching function is < 1.0e-08
 Keep 892 surface tesserae and discard 932 interior tesserae
 Molecular Surface Area = 137.872 Angst**2

                       Distance Matrix (Angstroms)
             C (  1)   S (  2)   C (  3)   C (  4)   C (  5)   H (  6)
   S (  2)  1.768373
   C (  3)  2.593887  1.771607
   C (  4)  1.402491  2.574059  2.372038
   C (  5)  2.370146  2.574317  1.402936  1.408880
   H (  6)  2.196457  3.640530  3.402067  1.100025  2.207750
   H (  7)  3.400444  3.641211  2.196239  2.207505  1.100217  2.600188
   C (  8)  1.478200  2.765568  4.009094  2.662951  3.824942  3.042184
   H (  9)  1.831190  2.405353  3.914379  3.164002  4.062860  3.769208
   H ( 10)  2.156460  3.060443  4.487164  3.398617  4.467239  3.812221
   H ( 11)  2.335281  3.637134  4.819013  3.293931  4.527379  3.440188
   H ( 12)  3.658914  2.518494  1.095203  3.436775  2.277551  4.424147
             H (  7)   C (  8)   H (  9)   H ( 10)   H ( 11)
   C (  8)  4.813537
   H (  9)  5.118436  1.080004
   H ( 10)  5.481660  1.080046  1.526867
   H ( 11)  5.444363  1.080028  1.527491  1.820045
   H ( 12)  2.710932  5.032484  4.824455  5.444924  5.843368
 
 Requested basis set is rimp2-cc-pVTZ
 There are 207 shells and 707 basis functions
 A cutoff of  1.0D-10 yielded   4366 shell pairs
 There are     32672 function pairs (     42229 Cartesian)
 Smallest overlap matrix eigenvalue = 1.14E-04

 Scale SEOQF with 1.000000e+00/1.000000e-01/1.000000e-01

 Standard Electronic Orientation quadrupole field applied
 Nucleus-field energy     =     0.0000000023 hartrees
 Guess from superposition of atomic densities
 Warning:  Energy on first SCF cycle will be non-variational
 SAD guess density has 52.000000 electrons

 -----------------------------------------------------------------------
  General SCF calculation program by
  Eric Jon Sundstrom, Paul Horn, Yuezhi Mao, Dmitri Zuev, Alec White,
  David Stuck, Shaama M.S., Shane Yost, Joonho Lee, David Small,
  Daniel Levine, Susi Lehtola, Hugh Burton, Evgeny Epifanovsky,
  Bang C. Huynh
 -----------------------------------------------------------------------
 Hartree-Fock
 using 64 threads for integral computing
 -------------------------------------------------------
 OpenMP Integral computing Module                
 Release: version 1.0, May 2013, Q-Chem Inc. Pittsburgh 
 -------------------------------------------------------
 A restricted SCF calculation will be
 performed using DIIS
 SCF converges when DIIS error is below 1.0e-06
 ---------------------------------------
  Cycle       Energy         DIIS error
 ---------------------------------------
    1    -592.5881613598      3.22e-02  
    2    -590.3003463478      2.20e-03  
    3    -590.3615440082      8.34e-04  
    4    -590.3688025114      3.93e-04  
    5    -590.3707922222      7.15e-05  
    6    -590.3709208461      3.17e-05  
    7    -590.3709528375      1.46e-05  
    8    -590.3709625499      5.82e-06  
    9    -590.3709640311      1.98e-06  
   10    -590.3709641728      5.87e-07  Convergence criterion met
 ---------------------------------------
 SCF time:   CPU 489.02s  wall 8.00s 

************** Final PCM Free Energy Summary **************
 G_electrostatic  =      -0.00544167 hartree =      -3.41469844 kcal/mol
 G_cavitation     =       0.00000000 hartree =       0.00000000 kcal/mol
 G_dispersion     =       0.00000000 hartree =       0.00000000 kcal/mol
 G_repulsion      =       0.00000000 hartree =       0.00000000 kcal/mol
 --------------------------------------------------
 Non-electrostatic Free Energy =       0.00000000 hartree =       0.00000000 kcal/mol
 Total                         =      -0.00544167 hartree =      -3.41469844 kcal/mol
 --------------------------------------------------
 SCF Energy (H0 + V/2)                       =    -590.37096417 
 Solute Internal Energy (H0)                 =    -590.36552250 
 Total Free Energy (H0 + V/2 + non-elec)     =    -590.37096417 hartree
                                             = -370463.37142182 kcal/mol
***********************************************************

 SCF   energy in the final basis set =     -590.3709641728
 Total energy in the final basis set =     -590.3709641728


 --------------------------------------------------------------
  Generalized many-body perturbation theory program
  by Joonho Lee, Fazle Rob, Xintian Feng, Evgeny Epifanovsky

 No regularization used 
 (reg. param. = 0.0000e+00)
  (P|Q)^-1/2 Time:  CPU 5.98 s  wall 0.10 s

 In RI-MP2 calculation: 
 # of frozen core orbitals: 10

 Components of the RIMP2 correlation energy:
        aaaa    correlation energy =        -0.1251687538 a.u.
        abab    correlation energy =        -0.7508214602 a.u.
        bbbb    correlation energy =        -0.1251687538 a.u.
        non-Brillouin singles      =        -0.0000000000 a.u.
        total same-spin energy     =        -0.2503375076 a.u.
        total opposite-spin energy =        -0.7508214602 a.u.

 Total  RIMP2   correlation energy =        -1.0011589678 a.u.
        RIMP2         total energy =      -591.3721231406 a.u.

 RI-MP2 Energy Time:  CPU 23.96 s  wall 0.43 s
 
 --------------------------------------------------------------
 
                    Orbital Energies (a.u.)
 --------------------------------------------------------------
 
 Alpha MOs
 -- Occupied --
-91.9797 -11.2852 -11.2683 -11.2428 -11.2350 -11.2243  -8.9797  -6.6606
 -6.6601  -6.6595  -1.1580  -1.0403  -0.9727  -0.9185  -0.7578  -0.7205
 -0.6718  -0.5969  -0.5681  -0.5632  -0.5341  -0.5011  -0.4649  -0.4532
 -0.3466  -0.3079
 -- Virtual --
  0.1047   0.1460   0.1609   0.1764   0.1912   0.1984   0.2113   0.2257
  0.2390   0.2601   0.3043   0.3212   0.3608   0.3726   0.3903   0.4100
  0.4234   0.4485   0.4600   0.4722   0.4934   0.5054   0.5275   0.5369
  0.5468   0.5633   0.5694   0.5746   0.6038   0.6086   0.6155   0.6198
  0.6299   0.6435   0.6501   0.6630   0.7016   0.7228   0.7349   0.7582
  0.7812   0.8078   0.8232   0.8605   0.8685   0.8881   0.8985   0.9241
  0.9623   0.9829   0.9870   1.0172   1.0546   1.0789   1.1061   1.1148
  1.1423   1.1650   1.1744   1.1987   1.2186   1.2354   1.2537   1.2597
  1.2854   1.3042   1.3400   1.3566   1.3917   1.4123   1.4264   1.4339
  1.4773   1.4844   1.5102   1.5317   1.5407   1.5600   1.5703   1.5802
  1.5967   1.6385   1.6444   1.6636   1.7025   1.7372   1.7656   1.8186
  1.8361   1.8923   1.9133   1.9268   1.9661   1.9820   2.0540   2.0936
  2.1481   2.1749   2.2076   2.2212   2.2531   2.2811   2.3361   2.4136
  2.4276   2.4606   2.4806   2.5161   2.5502   2.5992   2.6151   2.6609
  2.7053   2.7183   2.7262   2.7400   2.7497   2.7730   2.7997   2.8337
  2.8846   2.8945   2.9250   2.9932   2.9968   3.0073   3.0250   3.0376
  3.0617   3.0966   3.1336   3.1392   3.1621   3.2081   3.2143   3.2474
  3.2590   3.2824   3.2997   3.3085   3.3293   3.3339   3.3558   3.3694
  3.3870   3.4121   3.4423   3.4515   3.4557   3.4733   3.4972   3.5072
  3.5171   3.5212   3.5482   3.5709   3.6056   3.6109   3.6422   3.6730
  3.6771   3.6952   3.7245   3.7295   3.7653   3.7971   3.8166   3.8267
  3.8517   3.8874   3.9139   3.9296   3.9381   3.9475   3.9586   3.9893
  3.9996   4.0338   4.0590   4.1003   4.1209   4.1543   4.1639   4.1681
  4.2214   4.2321   4.2591   4.2899   4.3035   4.3253   4.3871   4.3983
  4.4421   4.4553   4.4709   4.5100   4.5344   4.5425   4.6208   4.6390
  4.6732   4.6800   4.6999   4.7449   4.8063   4.8173   4.8438   4.8993
  4.9270   5.0107   5.0278   5.0492   5.0692   5.1646   5.1920   5.2085
  5.2385   5.3047   5.3636   5.4305   5.4628   5.4942   5.5396   5.5911
  5.6363   5.7107   5.8080   5.8195   5.8552   5.9116   6.0099   6.0774
  6.1421   6.3146   6.4326   6.4575   6.7022   9.3730  11.2919  12.8200
 13.9633  14.2750
 --------------------------------------------------------------
 
          Ground-State Mulliken Net Atomic Charges

     Atom                 Charge (a.u.)
  ----------------------------------------
      1 C                     0.024529
      2 S                    -0.004202
      3 C                    -0.235577
      4 C                    -0.225544
      5 C                    -0.188526
      6 H                     0.185302
      7 H                     0.185819
      8 C                    -0.353077
      9 H                     0.117477
     10 H                     0.130350
     11 H                     0.157610
     12 H                     0.205840
  ----------------------------------------
  Sum of atomic charges =     0.000000

 -----------------------------------------------------------------
                    Cartesian Multipole Moments
 -----------------------------------------------------------------
    Charge (ESU x 10^10)
                -0.0000
    Dipole Moment (Debye)
         X       0.4350      Y      -0.3418      Z      -0.4911
       Tot       0.7397
    Quadrupole Moments (Debye-Ang)
        XX     -47.6210     XY      -0.1014     YY     -36.0736
        XZ      -0.3585     YZ      -0.1647     ZZ     -42.3002
    Octopole Moments (Debye-Ang^2)
       XXX      -7.4001    XXY     -22.4100    XYY       2.6181
       YYY     -40.7028    XXZ      -7.3394    XYZ       1.6847
       YYZ      -2.0337    XZZ      -1.3239    YZZ      -8.9144
       ZZZ     -28.8730
    Hexadecapole Moments (Debye-Ang^3)
      XXXX     -68.2522   XXXY     -16.5017   XXYY    -111.9208
      XYYY     -13.9159   YYYY    -498.9219   XXXZ      -0.7823
      XXYZ      -5.6568   XYYZ      -2.9569   YYYZ      -8.6374
      XXZZ     -69.2359   XYZZ      -2.9463   YYZZ    -128.0152
      XZZZ       0.6151   YZZZ     -13.0873   ZZZZ    -304.1300
 -----------------------------------------------------------------
 Total job time:  10.80s(wall), 552.54s(cpu) 
 Sun Sep 24 15:57:45 2023

        *************************************************************
        *                                                           *
        *  Thank you very much for using Q-Chem.  Have a nice day.  *
        *                                                           *
        *************************************************************


0 sent ACK to 0 
now end server 0 ... 
cleanup process ... done
remove work dirs ./qchem1048289.0 -- ./qchem1048289.0
rm -rf ./qchem1048289.0
rm -rf ./qchem1048289
