You are running Q-Chem version: 5.4.0

#
# job setting
#
local host:  exp-2-38
current dir: /expanse/lustre/projects/csd626/rramji/aromodel/PNDIT/Hydrogenated_Impropers_Test
input file:  Dimethyl_Naphthalene_Dicarboximide_Phi_15_Theta_80_Thiophene_Hydrogenated_Improper.qcin
output file: 
nprocs     : 1
nthreads   : 64
#
# qchem installation setting
#
QC:          /cm/shared/apps/spack/cpu/opt/spack/linux-centos8-zen2/gcc-10.2.0/qchem-5.4-akfmr7b3t57bfs6qan3padb2wnb2i7cl
QCAUX:       /cm/shared/apps/spack/cpu/opt/spack/linux-centos8-zen2/gcc-10.2.0/qchem-5.4-akfmr7b3t57bfs6qan3padb2wnb2i7cl/qcaux
QCPROG:      /cm/shared/apps/spack/cpu/opt/spack/linux-centos8-zen2/gcc-10.2.0/qchem-5.4-akfmr7b3t57bfs6qan3padb2wnb2i7cl/exe/qcprog.exe
QCPROG_S:    /cm/shared/apps/spack/cpu/opt/spack/linux-centos8-zen2/gcc-10.2.0/qchem-5.4-akfmr7b3t57bfs6qan3padb2wnb2i7cl/exe/qcprog.exe_s
PARALLEL:    -DPARALLEL
QCMPI:       mpich
#
# qchem directory setting
#
qcrun:       qchem3739848
QCSCRATCH:   .
QCLOCALSCR:  
QCTMPDIR:    .
QCFILEPREF:  ./qchem3739848
QCSAVEDIR:   
workdirs:    ./qchem3739848
workdir0:    ./qchem3739848
partmpdirs =  
#
# parallel setting
#
QCRSH:           ssh
QCMPI:           mpich
QCMPIRUN:        /cm/shared/apps/spack/cpu/opt/spack/linux-centos8-zen2/gcc-10.2.0/qchem-5.4-akfmr7b3t57bfs6qan3padb2wnb2i7cl/bin/mpi/mpirun_qchem
QCMACHINEFILE:   ./qchem3739848/hostfile
exp-2-38

#
# env setting
#
exported envs:   QC QCAUX QCSCRATCH QCRUNNAME QCFILEPREF QCPROG QCPROG_S GUIFILE

Running Job 1 of 1 Dimethyl_Naphthalene_Dicarboximide_Phi_15_Theta_80_Thiophene_Hydrogenated_Improper.qcin
qchem Dimethyl_Naphthalene_Dicarboximide_Phi_15_Theta_80_Thiophene_Hydrogenated_Improper.qcin_3739848.0 ./qchem3739848/ 1
/cm/shared/apps/spack/cpu/opt/spack/linux-centos8-zen2/gcc-10.2.0/qchem-5.4-akfmr7b3t57bfs6qan3padb2wnb2i7cl/bin/mpi/mpirun_qchem -machinefile ./qchem3739848/hostfile -np 1 /cm/shared/apps/spack/cpu/opt/spack/linux-centos8-zen2/gcc-10.2.0/qchem-5.4-akfmr7b3t57bfs6qan3padb2wnb2i7cl/exe/qcprog.exe Dimethyl_Naphthalene_Dicarboximide_Phi_15_Theta_80_Thiophene_Hydrogenated_Improper.qcin_3739848.0 ./qchem3739848/

Process 0 of 1 is on exp-2-38 - thread support 0
initial socket setup ...start
initial socket setup ...done 
now start server 0 ... 
                  Welcome to Q-Chem
     A Quantum Leap Into The Future Of Chemistry


 Q-Chem 5.4, Q-Chem, Inc., Pleasanton, CA (2021)

 License issued to: University of California, San Diego (site)

 E. Epifanovsky,  A. T. B. Gilbert,  Xintian Feng,  Joonho Lee,  Yuezhi Mao,  
 N. Mardirossian,  P. Pokhilko,  A. White,  M. Wormit,  M. P. Coons,  
 A. L. Dempwolff,  Zhengting Gan,  D. Hait,  P. R. Horn,  L. D. Jacobson,  
 I. Kaliman,  J. Kussmann,  A. W. Lange,  Ka Un Lao,  D. S. Levine,  Jie Liu,  
 S. C. McKenzie,  A. F. Morrison,  K. Nanda,  F. Plasser,  D. R. Rehn,  
 M. L. Vidal,  Zhi-Qiang You,  Ying Zhu,  B. Alam,  B. Albrecht,  
 A. Aldossary,  E. Alguire,  J. H. Andersen,  D. Barton,  K. Begam,  A. Behn,  
 Y. A. Bernard,  E. J. Berquist,  H. Burton,  A. Carreras,  K. Carter-Fenk,  
 R. Chakraborty,  A. D. Chien,  K. D. Closser,  V. Cofer-Shabica,  
 S. Dasgupta,  Jia Deng,  M. de Wergifosse,  M. Diedenhofen,  Hainam Do,  
 S. Ehlert,  Po-Tung Fang,  S. Fatehi,  Qingguo Feng,  J. Gayvert,  
 Qinghui Ge,  G. Gidofalvi,  M. Goldey,  J. Gomes,  C. Gonzalez-Espinoza,  
 S. Gulania,  A. Gunina,  M. W. D. Hanson-Heine,  P. H. P. Harbach,  
 A. W. Hauser,  M. F. Herbst,  M. Hernandez Vera,  M. Hodecker,  
 Z. C. Holden,  S. Houck,  Xunkun Huang,  Kerwin Hui,  B. C. Huynh,  
 M. Ivanov,  Hyunjun Ji,  Hanjie Jiang,  B. Kaduk,  S. Kaehler,  
 K. Khistyaev,  Jaehoon Kim,  P. Klunzinger,  Z. Koczor-Benda,  
 Joong Hoon Koh,  D. Kosenkov,  L. Koulias,  T. Kowalczyk,  C. M. Krauter,  
 K. Kue,  A. Kunitsa,  T. Kus,  A. Landau,  K. V. Lawler,  D. Lefrancois,  
 S. Lehtola,  Rain Li,  Yi-Pei Li,  Jiashu Liang,  M. Liebenthal,  
 Hung-Hsuan Lin,  You-Sheng Lin,  Fenglai Liu,  Kuan-Yu Liu,  
 M. Loipersberger,  A. Luenser,  A. Manjanath,  P. Manohar,  E. Mansoor,  
 S. F. Manzer,  Shan-Ping Mao,  A. V. Marenich,  T. Markovich,  S. Mason,  
 S. A. Maurer,  P. F. McLaughlin,  M. F. S. J. Menger,  J.-M. Mewes,  
 S. A. Mewes,  P. Morgante,  J. W. Mullinax,  T. S. Nguyen-Beck,  
 K. J. Oosterbaan,  G. Paran,  Alexander C. Paul,  Suranjan K. Paul,  
 F. Pavosevic,  Zheng Pei,  S. Prager,  E. I. Proynov,  E. Ramos,  B. Rana,  
 A. E. Rask,  A. Rettig,  R. M. Richard,  F. Rob,  E. Rossomme,  T. Scheele,  
 M. Scheurer,  M. Schneider,  N. Sergueev,  S. M. Sharada,  W. Skomorowski,  
 D. W. Small,  C. J. Stein,  Yu-Chuan Su,  E. J. Sundstrom,  Zhen Tao,  
 J. Thirman,  T. Tsuchimochi,  N. M. Tubman,  S. P. Veccham,  O. Vydrov,  
 J. Wenzel,  J. Witte,  A. Yamada,  Kun Yao,  S. Yeganeh,  S. R. Yost,  
 A. Zech,  Igor Ying Zhang,  Xing Zhang,  Yu Zhang,  D. Zuev,  
 A. Aspuru-Guzik,  A. T. Bell,  N. A. Besley,  K. B. Bravaya,  B. R. Brooks,  
 D. Casanova,  Jeng-Da Chai,  S. Coriani,  C. J. Cramer,  
 A. E. DePrince, III,  R. A. DiStasio Jr.,  A. Dreuw,  B. D. Dunietz,  
 T. R. Furlani,  W. A. Goddard III,  S. Grimme,  S. Hammes-Schiffer,  
 T. Head-Gordon,  W. J. Hehre,  Chao-Ping Hsu,  T.-C. Jagau,  Yousung Jung,  
 A. Klamt,  Jing Kong,  D. S. Lambrecht,  WanZhen Liang,  N. J. Mayhall,  
 C. W. McCurdy,  J. B. Neaton,  C. Ochsenfeld,  J. A. Parkhill,  R. Peverati,  
 V. A. Rassolov,  Yihan Shao,  L. V. Slipchenko,  T. Stauch,  R. P. Steele,  
 J. E. Subotnik,  A. J. W. Thom,  A. Tkatchenko,  D. G. Truhlar,  
 T. Van Voorhis,  T. A. Wesolowski,  K. B. Whaley,  H. L. Woodcock III,  
 P. M. Zimmerman,  S. Faraji,  P. M. W. Gill,  M. Head-Gordon,  
 J. M. Herbert,  A. I. Krylov

 Contributors to earlier versions of Q-Chem not listed above: 
 R. D. Adamson,  B. Austin,  R. Baer,  J. Baker,  G. J. O. Beran,  
 K. Brandhorst,  S. T. Brown,  E. F. C. Byrd,  A. K. Chakraborty,  
 G. K. L. Chan,  Chun-Min Chang,  Yunqing Chen,  C.-L. Cheng,  
 Siu Hung Chien,  D. M. Chipman,  D. L. Crittenden,  H. Dachsel,  
 R. J. Doerksen,  A. D. Dutoi,  R. G. Edgar,  J. Fosso-Tande,  
 L. Fusti-Molnar,  D. Ghosh,  A. Ghysels,  A. Golubeva-Zadorozhnaya,  
 J. Gonthier,  M. S. Gordon,  S. R. Gwaltney,  G. Hawkins,  J. E. Herr,  
 A. Heyden,  S. Hirata,  E. G. Hohenstein,  G. Kedziora,  F. J. Keil,  
 C. Kelley,  Jihan Kim,  R. A. King,  R. Z. Khaliullin,  P. P. Korambath,  
 W. Kurlancheek,  A. Laurent,  A. M. Lee,  M. S. Lee,  S. V. Levchenko,  
 Ching Yeh Lin,  D. Liotard,  E. Livshits,  R. C. Lochan,  I. Lotan,  
 L. A. Martinez-Martinez,  P. E. Maslen,  N. Nair,  D. P. O'Neill,  
 D. Neuhauser,  E. Neuscamman,  C. M. Oana,  R. Olivares-Amaya,  R. Olson,  
 T. M. Perrine,  B. Peters,  P. A. Pieniazek,  A. Prociuk,  Y. M. Rhee,  
 J. Ritchie,  M. A. Rohrdanz,  E. Rosta,  N. J. Russ,  H. F. Schaefer III,  
 M. W. Schmidt,  N. E. Schultz,  S. Sharma,  N. Shenvi,  C. D. Sherrill,  
 A. C. Simmonett,  A. Sodt,  T. Stein,  D. Stuck,  K. S. Thanthiriwatte,  
 V. Vanovschi,  L. Vogt,  Tao Wang,  A. Warshel,  M. A. Watson,  
 C. F. Williams,  Q. Wu,  X. Xu,  Jun Yang,  W. Zhang,  Yan Zhao

 Please cite Q-Chem as follows:
 Y. Shao et al., Mol. Phys. 113, 184-215 (2015)
 DOI: 10.1080/00268976.2014.952696

 Q-Chem 5.4.0 for Intel X86 EM64T Linux

 Parts of Q-Chem use Armadillo 9.800.1 (Horizon Scraper).
 http://arma.sourceforge.net/

 Q-Chem begins on Sun Sep 24 15:58:49 2023  

 Host: 
0

     Scratch files written to ./qchem3739848//
 May1621 |scratch|qcdevops|jenkins|workspace|build_RNUM    
 Parallel job on  1  processors
 Processing $rem in /cm/shared/apps/spack/cpu/opt/spack/linux-centos8-zen2/gcc-10.2.0/qchem-5.4-akfmr7b3t57bfs6qan3padb2wnb2i7cl/config/preferences:
 Processing $rem in /home/rramji/.qchemrc:
 Symmetry turned off for PCM/SM12/SMD calculation
 Core orbitals will be frozen

 Checking the input file for inconsistencies... 	...done.

 Q-Chem warning in module forms1/BasisType.C, line 2236:

 You are not using the predefined 5D/6D in this basis set.


--------------------------------------------------------------
User input:
--------------------------------------------------------------
$molecule
0 1
C	-0.134191	-0.381707	-0.220089
S	0.070909	0.384493	1.360411
C	0.494709	1.966393	0.684811
C	0.123909	0.582293	-1.205489
C	0.465509	1.857593	-0.713589
H	0.063009	0.354693	-2.279989
H	0.693509	2.708493	-1.372689
C	-0.134191	-1.859907	-0.220089
H	0.052809	-1.860507	0.843611
H	-1.105791	-2.299207	-0.048789
H	0.666409	-2.570907	-0.361389
H	0.722609	2.817093	1.335911
$end

$rem
JOBTYPE		SP
EXCHANGE	HF
CORRELATION	pRIMP2
BASIS		cc-pvtz
METHOD		rimp2
AUX_BASIS	rimp2-cc-pvtz
SOLVENT_METHOD	PCM
PURECART	11111
SYMMETRY	false
MEM_TOTAL	110000
SCF_CONVERGENCE = 6
THRESH=10
GUI = 2
$end



$solvent
dielectric 4.90
$end
--------------------------------------------------------------
 ----------------------------------------------------------------
             Standard Nuclear Orientation (Angstroms)
    I     Atom           X                Y                Z
 ----------------------------------------------------------------
    1      C      -0.1341910000    -0.3817070000    -0.2200890000
    2      S       0.0709090000     0.3844930000     1.3604110000
    3      C       0.4947090000     1.9663930000     0.6848110000
    4      C       0.1239090000     0.5822930000    -1.2054890000
    5      C       0.4655090000     1.8575930000    -0.7135890000
    6      H       0.0630090000     0.3546930000    -2.2799890000
    7      H       0.6935090000     2.7084930000    -1.3726890000
    8      C      -0.1341910000    -1.8599070000    -0.2200890000
    9      H       0.0528090000    -1.8605070000     0.8436110000
   10      H      -1.1057910000    -2.2992070000    -0.0487890000
   11      H       0.6664090000    -2.5709070000    -0.3613890000
   12      H       0.7226090000     2.8170930000     1.3359110000
 ----------------------------------------------------------------
 Nuclear Repulsion Energy =         271.10065743 hartrees
 There are       26 alpha and       26 beta electrons
 Requested basis set is cc-pVTZ
 There are 98 shells and 268 basis functions

 Total QAlloc Memory Limit 110000 MB
 Mega-Array Size       188 MB
 MEM_STATIC part       192 MB
 Discretize the solute cavity surface with Lebedev spheres
	Using 110 Lebedev grid points for each H atom
	Using 194 Lebedev grid points for other atoms
	Atomic van der Waals radii will be scaled by 1.20
 Remove points where switching function is < 1.0e-08
 Keep 876 surface tesserae and discard 948 interior tesserae
 Molecular Surface Area = 137.460 Angst**2

                       Distance Matrix (Angstroms)
             C (  1)   S (  2)   C (  3)   C (  4)   C (  5)   H (  6)
   S (  2)  1.768363
   C (  3)  2.593826  1.771567
   C (  4)  1.402471  2.574058  2.372016
   C (  5)  2.370158  2.574337  1.402930  1.408917
   H (  6)  2.196443  3.640531  3.402055  1.100028  2.207787
   H (  7)  3.400428  3.641214  2.196256  2.207516  1.100194  2.600211
   C (  8)  1.478200  2.752704  3.981825  2.646124  3.797761  3.030929
   H (  9)  1.831195  2.303787  3.855601  3.189222  4.052093  3.829372
   H ( 10)  2.156422  3.251571  4.614663  3.339635  4.493320  3.658898
   H ( 11)  2.335278  3.471830  4.659518  3.309000  4.447023  3.550247
   H ( 12)  3.658902  2.518503  1.095244  3.436784  2.277541  4.424163
             H (  7)   C (  8)   H (  9)   H ( 10)   H ( 11)
   C (  8)  4.783707
   H (  9)  5.118422  1.080013
   H ( 10)  5.483361  1.079970  1.526823
   H ( 11)  5.375456  1.080022  1.527481  1.819954
   H ( 12)  2.710932  5.002956  4.750888  5.606868  5.649295
 
 Requested basis set is rimp2-cc-pVTZ
 There are 207 shells and 707 basis functions
 A cutoff of  1.0D-10 yielded   4377 shell pairs
 There are     32805 function pairs (     42422 Cartesian)
 Smallest overlap matrix eigenvalue = 1.31E-04

 Scale SEOQF with 1.000000e+00/1.000000e-01/1.000000e-01

 Standard Electronic Orientation quadrupole field applied
 Nucleus-field energy     =     0.0000000034 hartrees
 Guess from superposition of atomic densities
 Warning:  Energy on first SCF cycle will be non-variational
 SAD guess density has 52.000000 electrons

 -----------------------------------------------------------------------
  General SCF calculation program by
  Eric Jon Sundstrom, Paul Horn, Yuezhi Mao, Dmitri Zuev, Alec White,
  David Stuck, Shaama M.S., Shane Yost, Joonho Lee, David Small,
  Daniel Levine, Susi Lehtola, Hugh Burton, Evgeny Epifanovsky,
  Bang C. Huynh
 -----------------------------------------------------------------------
 Hartree-Fock
 using 64 threads for integral computing
 -------------------------------------------------------
 OpenMP Integral computing Module                
 Release: version 1.0, May 2013, Q-Chem Inc. Pittsburgh 
 -------------------------------------------------------
 A restricted SCF calculation will be
 performed using DIIS
 SCF converges when DIIS error is below 1.0e-06
 ---------------------------------------
  Cycle       Energy         DIIS error
 ---------------------------------------
    1    -592.5991484399      3.23e-02  
    2    -590.2946458973      2.18e-03  
    3    -590.3557889557      8.11e-04  
    4    -590.3628624856      3.82e-04  
    5    -590.3647635387      7.17e-05  
    6    -590.3648935390      3.10e-05  
    7    -590.3649262678      1.48e-05  
    8    -590.3649360765      5.87e-06  
    9    -590.3649376257      2.14e-06  
   10    -590.3649377871      6.05e-07  Convergence criterion met
 ---------------------------------------
 SCF time:   CPU 475.23s  wall 8.00s 

************** Final PCM Free Energy Summary **************
 G_electrostatic  =      -0.00522258 hartree =      -3.27722036 kcal/mol
 G_cavitation     =       0.00000000 hartree =       0.00000000 kcal/mol
 G_dispersion     =       0.00000000 hartree =       0.00000000 kcal/mol
 G_repulsion      =       0.00000000 hartree =       0.00000000 kcal/mol
 --------------------------------------------------
 Non-electrostatic Free Energy =       0.00000000 hartree =       0.00000000 kcal/mol
 Total                         =      -0.00522258 hartree =      -3.27722036 kcal/mol
 --------------------------------------------------
 SCF Energy (H0 + V/2)                       =    -590.36493779 
 Solute Internal Energy (H0)                 =    -590.35971520 
 Total Free Energy (H0 + V/2 + non-elec)     =    -590.36493779 hartree
                                             = -370459.58980773 kcal/mol
***********************************************************

 SCF   energy in the final basis set =     -590.3649377871
 Total energy in the final basis set =     -590.3649377871


 --------------------------------------------------------------
  Generalized many-body perturbation theory program
  by Joonho Lee, Fazle Rob, Xintian Feng, Evgeny Epifanovsky

 No regularization used 
 (reg. param. = 0.0000e+00)
  (P|Q)^-1/2 Time:  CPU 5.32 s  wall 0.09 s

 In RI-MP2 calculation: 
 # of frozen core orbitals: 10

 Components of the RIMP2 correlation energy:
        aaaa    correlation energy =        -0.1255191960 a.u.
        abab    correlation energy =        -0.7519296436 a.u.
        bbbb    correlation energy =        -0.1255191960 a.u.
        non-Brillouin singles      =        -0.0000000000 a.u.
        total same-spin energy     =        -0.2510383920 a.u.
        total opposite-spin energy =        -0.7519296436 a.u.

 Total  RIMP2   correlation energy =        -1.0029680356 a.u.
        RIMP2         total energy =      -591.3679058227 a.u.

 RI-MP2 Energy Time:  CPU 23.68 s  wall 0.43 s
 
 --------------------------------------------------------------
 
                    Orbital Energies (a.u.)
 --------------------------------------------------------------
 
 Alpha MOs
 -- Occupied --
-91.9801 -11.2808 -11.2708 -11.2430 -11.2375 -11.2222  -8.9801  -6.6609
 -6.6604  -6.6598  -1.1586  -1.0395  -0.9735  -0.9174  -0.7593  -0.7205
 -0.6718  -0.5958  -0.5694  -0.5629  -0.5356  -0.4984  -0.4625  -0.4489
 -0.3460  -0.3116
 -- Virtual --
  0.0997   0.1465   0.1611   0.1736   0.1927   0.1976   0.2074   0.2258
  0.2362   0.2790   0.3027   0.3120   0.3651   0.3735   0.3967   0.4013
  0.4293   0.4555   0.4578   0.4645   0.4936   0.5077   0.5283   0.5354
  0.5517   0.5644   0.5668   0.5725   0.6063   0.6106   0.6155   0.6287
  0.6345   0.6412   0.6500   0.6547   0.6810   0.7177   0.7387   0.7520
  0.7829   0.7937   0.8260   0.8534   0.8727   0.8809   0.8977   0.9354
  0.9526   0.9751   0.9930   1.0205   1.0618   1.0732   1.1138   1.1268
  1.1363   1.1572   1.1710   1.1990   1.2219   1.2394   1.2460   1.2544
  1.2907   1.3055   1.3495   1.3574   1.3859   1.4062   1.4252   1.4341
  1.4717   1.4828   1.4944   1.5284   1.5481   1.5575   1.5740   1.5775
  1.5974   1.6326   1.6456   1.6669   1.7115   1.7339   1.7664   1.8229
  1.8303   1.8897   1.9147   1.9317   1.9499   1.9770   2.0475   2.1031
  2.1470   2.1757   2.2075   2.2177   2.2492   2.2845   2.3431   2.4166
  2.4323   2.4630   2.4988   2.5102   2.5756   2.5897   2.5948   2.6575
  2.6903   2.7215   2.7285   2.7350   2.7540   2.7703   2.7934   2.8294
  2.8875   2.8911   2.8992   2.9664   2.9934   3.0212   3.0235   3.0521
  3.0705   3.1306   3.1397   3.1560   3.1584   3.1965   3.2072   3.2423
  3.2635   3.2815   3.2909   3.3086   3.3219   3.3466   3.3553   3.3838
  3.3920   3.4162   3.4434   3.4476   3.4514   3.4646   3.4945   3.5020
  3.5096   3.5288   3.5465   3.5796   3.5986   3.6248   3.6445   3.6639
  3.6798   3.7009   3.7260   3.7615   3.7860   3.7972   3.8044   3.8471
  3.8546   3.8892   3.9000   3.9274   3.9411   3.9528   3.9603   3.9673
  4.0004   4.0314   4.0674   4.1102   4.1235   4.1583   4.1650   4.1896
  4.2069   4.2285   4.2543   4.2898   4.3131   4.3355   4.3894   4.3994
  4.4297   4.4509   4.4677   4.4997   4.5262   4.5440   4.6264   4.6512
  4.6624   4.6810   4.6903   4.7371   4.8036   4.8059   4.8542   4.9010
  4.9393   5.0059   5.0243   5.0389   5.0719   5.1473   5.1846   5.2173
  5.2442   5.2926   5.3627   5.4121   5.4557   5.4970   5.5430   5.5959
  5.6361   5.6958   5.7886   5.8047   5.8715   5.9061   6.0011   6.0672
  6.1244   6.3095   6.4300   6.4464   6.6852   9.3629  11.2933  12.7615
 13.9912  14.2015
 --------------------------------------------------------------
 
          Ground-State Mulliken Net Atomic Charges

     Atom                 Charge (a.u.)
  ----------------------------------------
      1 C                     0.016452
      2 S                    -0.005240
      3 C                    -0.231220
      4 C                    -0.216612
      5 C                    -0.188519
      6 H                     0.184948
      7 H                     0.185982
      8 C                    -0.346021
      9 H                     0.113756
     10 H                     0.126115
     11 H                     0.153869
     12 H                     0.206490
  ----------------------------------------
  Sum of atomic charges =     0.000000

 -----------------------------------------------------------------
                    Cartesian Multipole Moments
 -----------------------------------------------------------------
    Charge (ESU x 10^10)
                -0.0000
    Dipole Moment (Debye)
         X       0.4828      Y      -0.1496      Z      -0.4413
       Tot       0.6710
    Quadrupole Moments (Debye-Ang)
        XX     -46.9251     XY       1.8206     YY     -36.7758
        XZ      -0.0401     YZ      -0.3648     ZZ     -42.3425
    Octopole Moments (Debye-Ang^2)
       XXX     -20.6503    XXY     -20.0616    XYY       2.0200
       YYY     -39.4664    XXZ      -7.1762    XYZ       1.7360
       YYZ      -1.4188    XZZ      -3.9066    YZZ      -7.6913
       ZZZ     -28.9466
    Hexadecapole Moments (Debye-Ang^3)
      XXXX     -88.6359   XXXY     -49.0687   XXYY    -104.2033
      XYYY     -31.0200   YYYY    -489.1543   XXXZ      -2.2556
      XXYZ      -4.8215   XYYZ      -0.0349   YYYZ     -10.7456
      XXZZ     -71.1847   XYZZ      -8.9303   YYZZ    -127.8567
      XZZZ      -0.3754   YZZZ     -13.0901   ZZZZ    -302.4978
 -----------------------------------------------------------------
 Total job time:  10.05s(wall), 541.36s(cpu) 
 Sun Sep 24 15:58:59 2023

        *************************************************************
        *                                                           *
        *  Thank you very much for using Q-Chem.  Have a nice day.  *
        *                                                           *
        *************************************************************


0 sent ACK to 0 
now end server 0 ... 
cleanup process ... done
remove work dirs ./qchem3739848.0 -- ./qchem3739848.0
rm -rf ./qchem3739848.0
rm -rf ./qchem3739848
