You are running Q-Chem version: 5.4.0

#
# job setting
#
local host:  exp-4-53
current dir: /expanse/lustre/projects/csd626/rramji/aromodel/PNDIT/Hydrogenated_Impropers_Test
input file:  Dimethyl_Naphthalene_Dicarboximide_Phi_30_Theta_80_Thiophene_Hydrogenated_Improper.qcin
output file: 
nprocs     : 1
nthreads   : 64
#
# qchem installation setting
#
QC:          /cm/shared/apps/spack/cpu/opt/spack/linux-centos8-zen2/gcc-10.2.0/qchem-5.4-akfmr7b3t57bfs6qan3padb2wnb2i7cl
QCAUX:       /cm/shared/apps/spack/cpu/opt/spack/linux-centos8-zen2/gcc-10.2.0/qchem-5.4-akfmr7b3t57bfs6qan3padb2wnb2i7cl/qcaux
QCPROG:      /cm/shared/apps/spack/cpu/opt/spack/linux-centos8-zen2/gcc-10.2.0/qchem-5.4-akfmr7b3t57bfs6qan3padb2wnb2i7cl/exe/qcprog.exe
QCPROG_S:    /cm/shared/apps/spack/cpu/opt/spack/linux-centos8-zen2/gcc-10.2.0/qchem-5.4-akfmr7b3t57bfs6qan3padb2wnb2i7cl/exe/qcprog.exe_s
PARALLEL:    -DPARALLEL
QCMPI:       mpich
#
# qchem directory setting
#
qcrun:       qchem1069955
QCSCRATCH:   .
QCLOCALSCR:  
QCTMPDIR:    .
QCFILEPREF:  ./qchem1069955
QCSAVEDIR:   
workdirs:    ./qchem1069955
workdir0:    ./qchem1069955
partmpdirs =  
#
# parallel setting
#
QCRSH:           ssh
QCMPI:           mpich
QCMPIRUN:        /cm/shared/apps/spack/cpu/opt/spack/linux-centos8-zen2/gcc-10.2.0/qchem-5.4-akfmr7b3t57bfs6qan3padb2wnb2i7cl/bin/mpi/mpirun_qchem
QCMACHINEFILE:   ./qchem1069955/hostfile
exp-4-53

#
# env setting
#
exported envs:   QC QCAUX QCSCRATCH QCRUNNAME QCFILEPREF QCPROG QCPROG_S GUIFILE

Running Job 1 of 1 Dimethyl_Naphthalene_Dicarboximide_Phi_30_Theta_80_Thiophene_Hydrogenated_Improper.qcin
qchem Dimethyl_Naphthalene_Dicarboximide_Phi_30_Theta_80_Thiophene_Hydrogenated_Improper.qcin_1069955.0 ./qchem1069955/ 1
/cm/shared/apps/spack/cpu/opt/spack/linux-centos8-zen2/gcc-10.2.0/qchem-5.4-akfmr7b3t57bfs6qan3padb2wnb2i7cl/bin/mpi/mpirun_qchem -machinefile ./qchem1069955/hostfile -np 1 /cm/shared/apps/spack/cpu/opt/spack/linux-centos8-zen2/gcc-10.2.0/qchem-5.4-akfmr7b3t57bfs6qan3padb2wnb2i7cl/exe/qcprog.exe Dimethyl_Naphthalene_Dicarboximide_Phi_30_Theta_80_Thiophene_Hydrogenated_Improper.qcin_1069955.0 ./qchem1069955/

Process 0 of 1 is on exp-4-53 - thread support 0
initial socket setup ...start
initial socket setup ...done 
now start server 0 ... 
                  Welcome to Q-Chem
     A Quantum Leap Into The Future Of Chemistry


 Q-Chem 5.4, Q-Chem, Inc., Pleasanton, CA (2021)

 License issued to: University of California, San Diego (site)

 E. Epifanovsky,  A. T. B. Gilbert,  Xintian Feng,  Joonho Lee,  Yuezhi Mao,  
 N. Mardirossian,  P. Pokhilko,  A. White,  M. Wormit,  M. P. Coons,  
 A. L. Dempwolff,  Zhengting Gan,  D. Hait,  P. R. Horn,  L. D. Jacobson,  
 I. Kaliman,  J. Kussmann,  A. W. Lange,  Ka Un Lao,  D. S. Levine,  Jie Liu,  
 S. C. McKenzie,  A. F. Morrison,  K. Nanda,  F. Plasser,  D. R. Rehn,  
 M. L. Vidal,  Zhi-Qiang You,  Ying Zhu,  B. Alam,  B. Albrecht,  
 A. Aldossary,  E. Alguire,  J. H. Andersen,  D. Barton,  K. Begam,  A. Behn,  
 Y. A. Bernard,  E. J. Berquist,  H. Burton,  A. Carreras,  K. Carter-Fenk,  
 R. Chakraborty,  A. D. Chien,  K. D. Closser,  V. Cofer-Shabica,  
 S. Dasgupta,  Jia Deng,  M. de Wergifosse,  M. Diedenhofen,  Hainam Do,  
 S. Ehlert,  Po-Tung Fang,  S. Fatehi,  Qingguo Feng,  J. Gayvert,  
 Qinghui Ge,  G. Gidofalvi,  M. Goldey,  J. Gomes,  C. Gonzalez-Espinoza,  
 S. Gulania,  A. Gunina,  M. W. D. Hanson-Heine,  P. H. P. Harbach,  
 A. W. Hauser,  M. F. Herbst,  M. Hernandez Vera,  M. Hodecker,  
 Z. C. Holden,  S. Houck,  Xunkun Huang,  Kerwin Hui,  B. C. Huynh,  
 M. Ivanov,  Hyunjun Ji,  Hanjie Jiang,  B. Kaduk,  S. Kaehler,  
 K. Khistyaev,  Jaehoon Kim,  P. Klunzinger,  Z. Koczor-Benda,  
 Joong Hoon Koh,  D. Kosenkov,  L. Koulias,  T. Kowalczyk,  C. M. Krauter,  
 K. Kue,  A. Kunitsa,  T. Kus,  A. Landau,  K. V. Lawler,  D. Lefrancois,  
 S. Lehtola,  Rain Li,  Yi-Pei Li,  Jiashu Liang,  M. Liebenthal,  
 Hung-Hsuan Lin,  You-Sheng Lin,  Fenglai Liu,  Kuan-Yu Liu,  
 M. Loipersberger,  A. Luenser,  A. Manjanath,  P. Manohar,  E. Mansoor,  
 S. F. Manzer,  Shan-Ping Mao,  A. V. Marenich,  T. Markovich,  S. Mason,  
 S. A. Maurer,  P. F. McLaughlin,  M. F. S. J. Menger,  J.-M. Mewes,  
 S. A. Mewes,  P. Morgante,  J. W. Mullinax,  T. S. Nguyen-Beck,  
 K. J. Oosterbaan,  G. Paran,  Alexander C. Paul,  Suranjan K. Paul,  
 F. Pavosevic,  Zheng Pei,  S. Prager,  E. I. Proynov,  E. Ramos,  B. Rana,  
 A. E. Rask,  A. Rettig,  R. M. Richard,  F. Rob,  E. Rossomme,  T. Scheele,  
 M. Scheurer,  M. Schneider,  N. Sergueev,  S. M. Sharada,  W. Skomorowski,  
 D. W. Small,  C. J. Stein,  Yu-Chuan Su,  E. J. Sundstrom,  Zhen Tao,  
 J. Thirman,  T. Tsuchimochi,  N. M. Tubman,  S. P. Veccham,  O. Vydrov,  
 J. Wenzel,  J. Witte,  A. Yamada,  Kun Yao,  S. Yeganeh,  S. R. Yost,  
 A. Zech,  Igor Ying Zhang,  Xing Zhang,  Yu Zhang,  D. Zuev,  
 A. Aspuru-Guzik,  A. T. Bell,  N. A. Besley,  K. B. Bravaya,  B. R. Brooks,  
 D. Casanova,  Jeng-Da Chai,  S. Coriani,  C. J. Cramer,  
 A. E. DePrince, III,  R. A. DiStasio Jr.,  A. Dreuw,  B. D. Dunietz,  
 T. R. Furlani,  W. A. Goddard III,  S. Grimme,  S. Hammes-Schiffer,  
 T. Head-Gordon,  W. J. Hehre,  Chao-Ping Hsu,  T.-C. Jagau,  Yousung Jung,  
 A. Klamt,  Jing Kong,  D. S. Lambrecht,  WanZhen Liang,  N. J. Mayhall,  
 C. W. McCurdy,  J. B. Neaton,  C. Ochsenfeld,  J. A. Parkhill,  R. Peverati,  
 V. A. Rassolov,  Yihan Shao,  L. V. Slipchenko,  T. Stauch,  R. P. Steele,  
 J. E. Subotnik,  A. J. W. Thom,  A. Tkatchenko,  D. G. Truhlar,  
 T. Van Voorhis,  T. A. Wesolowski,  K. B. Whaley,  H. L. Woodcock III,  
 P. M. Zimmerman,  S. Faraji,  P. M. W. Gill,  M. Head-Gordon,  
 J. M. Herbert,  A. I. Krylov

 Contributors to earlier versions of Q-Chem not listed above: 
 R. D. Adamson,  B. Austin,  R. Baer,  J. Baker,  G. J. O. Beran,  
 K. Brandhorst,  S. T. Brown,  E. F. C. Byrd,  A. K. Chakraborty,  
 G. K. L. Chan,  Chun-Min Chang,  Yunqing Chen,  C.-L. Cheng,  
 Siu Hung Chien,  D. M. Chipman,  D. L. Crittenden,  H. Dachsel,  
 R. J. Doerksen,  A. D. Dutoi,  R. G. Edgar,  J. Fosso-Tande,  
 L. Fusti-Molnar,  D. Ghosh,  A. Ghysels,  A. Golubeva-Zadorozhnaya,  
 J. Gonthier,  M. S. Gordon,  S. R. Gwaltney,  G. Hawkins,  J. E. Herr,  
 A. Heyden,  S. Hirata,  E. G. Hohenstein,  G. Kedziora,  F. J. Keil,  
 C. Kelley,  Jihan Kim,  R. A. King,  R. Z. Khaliullin,  P. P. Korambath,  
 W. Kurlancheek,  A. Laurent,  A. M. Lee,  M. S. Lee,  S. V. Levchenko,  
 Ching Yeh Lin,  D. Liotard,  E. Livshits,  R. C. Lochan,  I. Lotan,  
 L. A. Martinez-Martinez,  P. E. Maslen,  N. Nair,  D. P. O'Neill,  
 D. Neuhauser,  E. Neuscamman,  C. M. Oana,  R. Olivares-Amaya,  R. Olson,  
 T. M. Perrine,  B. Peters,  P. A. Pieniazek,  A. Prociuk,  Y. M. Rhee,  
 J. Ritchie,  M. A. Rohrdanz,  E. Rosta,  N. J. Russ,  H. F. Schaefer III,  
 M. W. Schmidt,  N. E. Schultz,  S. Sharma,  N. Shenvi,  C. D. Sherrill,  
 A. C. Simmonett,  A. Sodt,  T. Stein,  D. Stuck,  K. S. Thanthiriwatte,  
 V. Vanovschi,  L. Vogt,  Tao Wang,  A. Warshel,  M. A. Watson,  
 C. F. Williams,  Q. Wu,  X. Xu,  Jun Yang,  W. Zhang,  Yan Zhao

 Please cite Q-Chem as follows:
 Y. Shao et al., Mol. Phys. 113, 184-215 (2015)
 DOI: 10.1080/00268976.2014.952696

 Q-Chem 5.4.0 for Intel X86 EM64T Linux

 Parts of Q-Chem use Armadillo 9.800.1 (Horizon Scraper).
 http://arma.sourceforge.net/

 Q-Chem begins on Sun Sep 24 15:06:41 2023  

 Host: 
0

     Scratch files written to ./qchem1069955//
 May1621 |scratch|qcdevops|jenkins|workspace|build_RNUM    
 Parallel job on  1  processors
 Processing $rem in /cm/shared/apps/spack/cpu/opt/spack/linux-centos8-zen2/gcc-10.2.0/qchem-5.4-akfmr7b3t57bfs6qan3padb2wnb2i7cl/config/preferences:
 Processing $rem in /home/rramji/.qchemrc:
 Symmetry turned off for PCM/SM12/SMD calculation
 Core orbitals will be frozen

 Checking the input file for inconsistencies... 	...done.

 Q-Chem warning in module forms1/BasisType.C, line 2236:

 You are not using the predefined 5D/6D in this basis set.


--------------------------------------------------------------
User input:
--------------------------------------------------------------
$molecule
0 1
C	-0.259242	-0.329934	-0.220089
S	0.137158	0.357066	1.360411
C	0.955958	1.775366	0.684811
C	0.239558	0.534466	-1.205489
C	0.899658	1.677866	-0.713589
H	0.121758	0.330366	-2.279989
H	1.340058	2.440766	-1.372689
C	-0.259242	-1.808134	-0.220089
H	-0.072242	-1.808734	0.843611
H	-1.230842	-2.247434	-0.048789
H	0.541358	-2.519134	-0.361389
H	1.396258	2.538166	1.335911
$end

$rem
JOBTYPE		SP
EXCHANGE	HF
CORRELATION	pRIMP2
BASIS		cc-pvtz
METHOD		rimp2
AUX_BASIS	rimp2-cc-pvtz
SOLVENT_METHOD	PCM
PURECART	11111
SYMMETRY	false
MEM_TOTAL	110000
SCF_CONVERGENCE = 6
THRESH=10
GUI = 2
$end



$solvent
dielectric 4.90
$end
--------------------------------------------------------------
 ----------------------------------------------------------------
             Standard Nuclear Orientation (Angstroms)
    I     Atom           X                Y                Z
 ----------------------------------------------------------------
    1      C      -0.2592420000    -0.3299340000    -0.2200890000
    2      S       0.1371580000     0.3570660000     1.3604110000
    3      C       0.9559580000     1.7753660000     0.6848110000
    4      C       0.2395580000     0.5344660000    -1.2054890000
    5      C       0.8996580000     1.6778660000    -0.7135890000
    6      H       0.1217580000     0.3303660000    -2.2799890000
    7      H       1.3400580000     2.4407660000    -1.3726890000
    8      C      -0.2592420000    -1.8081340000    -0.2200890000
    9      H      -0.0722420000    -1.8087340000     0.8436110000
   10      H      -1.2308420000    -2.2474340000    -0.0487890000
   11      H       0.5413580000    -2.5191340000    -0.3613890000
   12      H       1.3962580000     2.5381660000     1.3359110000
 ----------------------------------------------------------------
 Nuclear Repulsion Energy =         272.18149612 hartrees
 There are       26 alpha and       26 beta electrons
 Requested basis set is cc-pVTZ
 There are 98 shells and 268 basis functions

 Total QAlloc Memory Limit 110000 MB
 Mega-Array Size       188 MB
 MEM_STATIC part       192 MB
 Discretize the solute cavity surface with Lebedev spheres
	Using 110 Lebedev grid points for each H atom
	Using 194 Lebedev grid points for other atoms
	Atomic van der Waals radii will be scaled by 1.20
 Remove points where switching function is < 1.0e-08
 Keep 874 surface tesserae and discard 950 interior tesserae
 Molecular Surface Area = 136.905 Angst**2

                       Distance Matrix (Angstroms)
             C (  1)   S (  2)   C (  3)   C (  4)   C (  5)   H (  6)
   S (  2)  1.768356
   C (  3)  2.593809  1.771565
   C (  4)  1.402498  2.574063  2.371981
   C (  5)  2.370201  2.574373  1.402925  1.408922
   H (  6)  2.196439  3.640530  3.402051  1.100038  2.207826
   H (  7)  3.400445  3.641237  2.196269  2.207495  1.100173  2.600238
   C (  8)  1.478200  2.709835  3.890633  2.589901  3.706587  2.993582
   H (  9)  1.831195  2.236430  3.732048  3.128357  3.940284  3.790813
   H ( 10)  2.156422  3.262007  4.637152  3.352462  4.515415  3.667810
   H ( 11)  2.335278  3.376463  4.439500  3.182461  4.226965  3.460743
   H ( 12)  3.658936  2.518557  1.095290  3.436784  2.277538  4.424191
             H (  7)   C (  8)   H (  9)   H ( 10)   H ( 11)
   C (  8)  4.683951
   H (  9)  4.996481  1.080013
   H ( 10)  5.508308  1.079970  1.526823
   H ( 11)  5.124574  1.080022  1.527481  1.819954
   H ( 12)  2.710933  4.904298  4.614585  5.632141  5.402589
 
 Requested basis set is rimp2-cc-pVTZ
 There are 207 shells and 707 basis functions
 A cutoff of  1.0D-10 yielded   4399 shell pairs
 There are     33027 function pairs (     42710 Cartesian)
 Smallest overlap matrix eigenvalue = 1.56E-04

 Scale SEOQF with 1.000000e+00/1.000000e-01/1.000000e-01

 Standard Electronic Orientation quadrupole field applied
 Nucleus-field energy     =     0.0000000066 hartrees
 Guess from superposition of atomic densities
 Warning:  Energy on first SCF cycle will be non-variational
 SAD guess density has 52.000000 electrons

 -----------------------------------------------------------------------
  General SCF calculation program by
  Eric Jon Sundstrom, Paul Horn, Yuezhi Mao, Dmitri Zuev, Alec White,
  David Stuck, Shaama M.S., Shane Yost, Joonho Lee, David Small,
  Daniel Levine, Susi Lehtola, Hugh Burton, Evgeny Epifanovsky,
  Bang C. Huynh
 -----------------------------------------------------------------------
 Hartree-Fock
 using 64 threads for integral computing
 -------------------------------------------------------
 OpenMP Integral computing Module                
 Release: version 1.0, May 2013, Q-Chem Inc. Pittsburgh 
 -------------------------------------------------------
 A restricted SCF calculation will be
 performed using DIIS
 SCF converges when DIIS error is below 1.0e-06
 ---------------------------------------
  Cycle       Energy         DIIS error
 ---------------------------------------
    1    -592.6193688623      3.24e-02  
    2    -590.2793785418      2.17e-03  
    3    -590.3405485258      7.92e-04  
    4    -590.3475186870      3.71e-04  
    5    -590.3493400746      7.19e-05  
    6    -590.3494760359      3.02e-05  
    7    -590.3495120884      1.49e-05  
    8    -590.3495226007      5.68e-06  
    9    -590.3495242130      2.48e-06  
   10    -590.3495244013      6.86e-07  Convergence criterion met
 ---------------------------------------
 SCF time:   CPU 521.16s  wall 10.00s 

************** Final PCM Free Energy Summary **************
 G_electrostatic  =      -0.00508122 hartree =      -3.18851588 kcal/mol
 G_cavitation     =       0.00000000 hartree =       0.00000000 kcal/mol
 G_dispersion     =       0.00000000 hartree =       0.00000000 kcal/mol
 G_repulsion      =       0.00000000 hartree =       0.00000000 kcal/mol
 --------------------------------------------------
 Non-electrostatic Free Energy =       0.00000000 hartree =       0.00000000 kcal/mol
 Total                         =      -0.00508122 hartree =      -3.18851588 kcal/mol
 --------------------------------------------------
 SCF Energy (H0 + V/2)                       =    -590.34952440 
 Solute Internal Energy (H0)                 =    -590.34444318 
 Total Free Energy (H0 + V/2 + non-elec)     =    -590.34952440 hartree
                                             = -370449.91776216 kcal/mol
***********************************************************

 SCF   energy in the final basis set =     -590.3495244013
 Total energy in the final basis set =     -590.3495244013


 --------------------------------------------------------------
  Generalized many-body perturbation theory program
  by Joonho Lee, Fazle Rob, Xintian Feng, Evgeny Epifanovsky

 No regularization used 
 (reg. param. = 0.0000e+00)
  (P|Q)^-1/2 Time:  CPU 15.57 s  wall 0.26 s

 In RI-MP2 calculation: 
 # of frozen core orbitals: 10

 Components of the RIMP2 correlation energy:
        aaaa    correlation energy =        -0.1260355704 a.u.
        abab    correlation energy =        -0.7539781594 a.u.
        bbbb    correlation energy =        -0.1260355704 a.u.
        non-Brillouin singles      =        -0.0000000000 a.u.
        total same-spin energy     =        -0.2520711409 a.u.
        total opposite-spin energy =        -0.7539781594 a.u.

 Total  RIMP2   correlation energy =        -1.0060493003 a.u.
        RIMP2         total energy =      -591.3555737016 a.u.

 RI-MP2 Energy Time:  CPU 39.65 s  wall 0.71 s
 
 --------------------------------------------------------------
 
                    Orbital Energies (a.u.)
 --------------------------------------------------------------
 
 Alpha MOs
 -- Occupied --
-91.9784 -11.2754 -11.2741 -11.2432 -11.2416 -11.2188  -8.9788  -6.6596
 -6.6589  -6.6584  -1.1606  -1.0385  -0.9748  -0.9146  -0.7611  -0.7213
 -0.6716  -0.5935  -0.5705  -0.5628  -0.5375  -0.4918  -0.4622  -0.4465
 -0.3443  -0.3115
 -- Virtual --
  0.0878   0.1502   0.1609   0.1739   0.1925   0.1968   0.2080   0.2223
  0.2354   0.2728   0.3018   0.3112   0.3630   0.3709   0.3978   0.4065
  0.4361   0.4555   0.4569   0.4692   0.4813   0.5063   0.5194   0.5318
  0.5374   0.5589   0.5662   0.5720   0.6052   0.6105   0.6136   0.6301
  0.6335   0.6374   0.6483   0.6597   0.6795   0.7123   0.7300   0.7575
  0.7855   0.7864   0.8163   0.8539   0.8734   0.8813   0.8943   0.9344
  0.9565   0.9732   0.9926   1.0388   1.0653   1.0789   1.1123   1.1321
  1.1473   1.1512   1.1719   1.1923   1.2330   1.2371   1.2386   1.2546
  1.2945   1.3197   1.3470   1.3657   1.3710   1.4036   1.4261   1.4315
  1.4641   1.4838   1.4939   1.5144   1.5404   1.5523   1.5552   1.5808
  1.6059   1.6376   1.6483   1.6604   1.7140   1.7247   1.7717   1.8271
  1.8281   1.8894   1.9062   1.9391   1.9461   1.9935   2.0286   2.1169
  2.1389   2.1735   2.1879   2.2102   2.2479   2.2707   2.3447   2.4170
  2.4334   2.4667   2.4864   2.5073   2.5871   2.5951   2.6061   2.6693
  2.7007   2.7066   2.7214   2.7285   2.7425   2.7621   2.8045   2.8399
  2.8725   2.8922   2.9230   2.9740   2.9873   3.0153   3.0309   3.0435
  3.0659   3.1294   3.1366   3.1432   3.1648   3.1929   3.2135   3.2367
  3.2653   3.2771   3.2830   3.3129   3.3284   3.3427   3.3691   3.3749
  3.4095   3.4274   3.4335   3.4454   3.4567   3.4713   3.4793   3.4991
  3.5100   3.5383   3.5645   3.5833   3.5919   3.6195   3.6509   3.6651
  3.6887   3.7065   3.7351   3.7559   3.7686   3.7915   3.8164   3.8714
  3.8754   3.8942   3.8989   3.9292   3.9520   3.9581   3.9735   3.9831
  4.0204   4.0287   4.0387   4.1063   4.1242   4.1436   4.1793   4.2092
  4.2229   4.2470   4.2623   4.2957   4.3135   4.3557   4.3828   4.4071
  4.4289   4.4487   4.4759   4.4881   4.5374   4.5578   4.6149   4.6418
  4.6674   4.6819   4.7016   4.7577   4.7910   4.7993   4.8426   4.8726
  4.9142   5.0078   5.0191   5.0272   5.0844   5.1499   5.1708   5.2170
  5.2196   5.2920   5.3623   5.4068   5.4618   5.4988   5.5333   5.6078
  5.6283   5.6692   5.7684   5.7896   5.8808   5.9387   5.9806   6.0571
  6.0995   6.3137   6.4167   6.4388   6.6579   9.4302  11.3866  12.6995
 13.9195  14.1331
 --------------------------------------------------------------
 
          Ground-State Mulliken Net Atomic Charges

     Atom                 Charge (a.u.)
  ----------------------------------------
      1 C                    -0.011500
      2 S                    -0.003374
      3 C                    -0.217454
      4 C                    -0.202683
      5 C                    -0.191161
      6 H                     0.184299
      7 H                     0.186395
      8 C                    -0.348232
      9 H                     0.116658
     10 H                     0.120926
     11 H                     0.159567
     12 H                     0.206559
  ----------------------------------------
  Sum of atomic charges =     0.000000

 -----------------------------------------------------------------
                    Cartesian Multipole Moments
 -----------------------------------------------------------------
    Charge (ESU x 10^10)
                 0.0000
    Dipole Moment (Debye)
         X       0.9860      Y      -0.0074      Z      -0.4679
       Tot       1.0914
    Quadrupole Moments (Debye-Ang)
        XX     -45.4003     XY       3.4881     YY     -38.6929
        XZ       0.0787     YZ      -0.4130     ZZ     -42.1499
    Octopole Moments (Debye-Ang^2)
       XXX     -36.5777    XXY     -12.2899    XYY      -0.1931
       YYY     -37.0000    XXZ      -6.1837    XYZ       2.8706
       YYZ      -1.9182    XZZ      -7.5980    YZZ      -6.0724
       ZZZ     -29.3245
    Hexadecapole Moments (Debye-Ang^3)
      XXXX    -147.6889   XXXY     -78.1009   XXYY     -89.5613
      XYYY     -60.2597   YYYY    -450.8479   XXXZ      -3.2319
      XXYZ      -3.1032   XYYZ       0.7655   YYYZ     -11.6330
      XXZZ     -75.8686   XYZZ     -15.8266   YYZZ    -121.3380
      XZZZ      -1.2067   YZZZ     -13.1687   ZZZZ    -301.6068
 -----------------------------------------------------------------
 Total job time:  12.40s(wall), 614.33s(cpu) 
 Sun Sep 24 15:06:53 2023

        *************************************************************
        *                                                           *
        *  Thank you very much for using Q-Chem.  Have a nice day.  *
        *                                                           *
        *************************************************************


0 sent ACK to 0 
now end server 0 ... 
cleanup process ... done
remove work dirs ./qchem1069955.0 -- ./qchem1069955.0
rm -rf ./qchem1069955.0
rm -rf ./qchem1069955
