You are running Q-Chem version: 5.4.0

#
# job setting
#
local host:  exp-2-38
current dir: /expanse/lustre/projects/csd626/rramji/aromodel/PNDIT/Hydrogenated_Impropers_Test
input file:  Dimethyl_Naphthalene_Dicarboximide_Phi_15_Theta_40_Thiophene_Hydrogenated_Improper.qcin
output file: 
nprocs     : 1
nthreads   : 64
#
# qchem installation setting
#
QC:          /cm/shared/apps/spack/cpu/opt/spack/linux-centos8-zen2/gcc-10.2.0/qchem-5.4-akfmr7b3t57bfs6qan3padb2wnb2i7cl
QCAUX:       /cm/shared/apps/spack/cpu/opt/spack/linux-centos8-zen2/gcc-10.2.0/qchem-5.4-akfmr7b3t57bfs6qan3padb2wnb2i7cl/qcaux
QCPROG:      /cm/shared/apps/spack/cpu/opt/spack/linux-centos8-zen2/gcc-10.2.0/qchem-5.4-akfmr7b3t57bfs6qan3padb2wnb2i7cl/exe/qcprog.exe
QCPROG_S:    /cm/shared/apps/spack/cpu/opt/spack/linux-centos8-zen2/gcc-10.2.0/qchem-5.4-akfmr7b3t57bfs6qan3padb2wnb2i7cl/exe/qcprog.exe_s
PARALLEL:    -DPARALLEL
QCMPI:       mpich
#
# qchem directory setting
#
qcrun:       qchem3738960
QCSCRATCH:   .
QCLOCALSCR:  
QCTMPDIR:    .
QCFILEPREF:  ./qchem3738960
QCSAVEDIR:   
workdirs:    ./qchem3738960
workdir0:    ./qchem3738960
partmpdirs =  
#
# parallel setting
#
QCRSH:           ssh
QCMPI:           mpich
QCMPIRUN:        /cm/shared/apps/spack/cpu/opt/spack/linux-centos8-zen2/gcc-10.2.0/qchem-5.4-akfmr7b3t57bfs6qan3padb2wnb2i7cl/bin/mpi/mpirun_qchem
QCMACHINEFILE:   ./qchem3738960/hostfile
exp-2-38

#
# env setting
#
exported envs:   QC QCAUX QCSCRATCH QCRUNNAME QCFILEPREF QCPROG QCPROG_S GUIFILE

Running Job 1 of 1 Dimethyl_Naphthalene_Dicarboximide_Phi_15_Theta_40_Thiophene_Hydrogenated_Improper.qcin
qchem Dimethyl_Naphthalene_Dicarboximide_Phi_15_Theta_40_Thiophene_Hydrogenated_Improper.qcin_3738960.0 ./qchem3738960/ 1
/cm/shared/apps/spack/cpu/opt/spack/linux-centos8-zen2/gcc-10.2.0/qchem-5.4-akfmr7b3t57bfs6qan3padb2wnb2i7cl/bin/mpi/mpirun_qchem -machinefile ./qchem3738960/hostfile -np 1 /cm/shared/apps/spack/cpu/opt/spack/linux-centos8-zen2/gcc-10.2.0/qchem-5.4-akfmr7b3t57bfs6qan3padb2wnb2i7cl/exe/qcprog.exe Dimethyl_Naphthalene_Dicarboximide_Phi_15_Theta_40_Thiophene_Hydrogenated_Improper.qcin_3738960.0 ./qchem3738960/

Process 0 of 1 is on exp-2-38 - thread support 0
initial socket setup ...start
initial socket setup ...done 
now start server 0 ... 
                  Welcome to Q-Chem
     A Quantum Leap Into The Future Of Chemistry


 Q-Chem 5.4, Q-Chem, Inc., Pleasanton, CA (2021)

 License issued to: University of California, San Diego (site)

 E. Epifanovsky,  A. T. B. Gilbert,  Xintian Feng,  Joonho Lee,  Yuezhi Mao,  
 N. Mardirossian,  P. Pokhilko,  A. White,  M. Wormit,  M. P. Coons,  
 A. L. Dempwolff,  Zhengting Gan,  D. Hait,  P. R. Horn,  L. D. Jacobson,  
 I. Kaliman,  J. Kussmann,  A. W. Lange,  Ka Un Lao,  D. S. Levine,  Jie Liu,  
 S. C. McKenzie,  A. F. Morrison,  K. Nanda,  F. Plasser,  D. R. Rehn,  
 M. L. Vidal,  Zhi-Qiang You,  Ying Zhu,  B. Alam,  B. Albrecht,  
 A. Aldossary,  E. Alguire,  J. H. Andersen,  D. Barton,  K. Begam,  A. Behn,  
 Y. A. Bernard,  E. J. Berquist,  H. Burton,  A. Carreras,  K. Carter-Fenk,  
 R. Chakraborty,  A. D. Chien,  K. D. Closser,  V. Cofer-Shabica,  
 S. Dasgupta,  Jia Deng,  M. de Wergifosse,  M. Diedenhofen,  Hainam Do,  
 S. Ehlert,  Po-Tung Fang,  S. Fatehi,  Qingguo Feng,  J. Gayvert,  
 Qinghui Ge,  G. Gidofalvi,  M. Goldey,  J. Gomes,  C. Gonzalez-Espinoza,  
 S. Gulania,  A. Gunina,  M. W. D. Hanson-Heine,  P. H. P. Harbach,  
 A. W. Hauser,  M. F. Herbst,  M. Hernandez Vera,  M. Hodecker,  
 Z. C. Holden,  S. Houck,  Xunkun Huang,  Kerwin Hui,  B. C. Huynh,  
 M. Ivanov,  Hyunjun Ji,  Hanjie Jiang,  B. Kaduk,  S. Kaehler,  
 K. Khistyaev,  Jaehoon Kim,  P. Klunzinger,  Z. Koczor-Benda,  
 Joong Hoon Koh,  D. Kosenkov,  L. Koulias,  T. Kowalczyk,  C. M. Krauter,  
 K. Kue,  A. Kunitsa,  T. Kus,  A. Landau,  K. V. Lawler,  D. Lefrancois,  
 S. Lehtola,  Rain Li,  Yi-Pei Li,  Jiashu Liang,  M. Liebenthal,  
 Hung-Hsuan Lin,  You-Sheng Lin,  Fenglai Liu,  Kuan-Yu Liu,  
 M. Loipersberger,  A. Luenser,  A. Manjanath,  P. Manohar,  E. Mansoor,  
 S. F. Manzer,  Shan-Ping Mao,  A. V. Marenich,  T. Markovich,  S. Mason,  
 S. A. Maurer,  P. F. McLaughlin,  M. F. S. J. Menger,  J.-M. Mewes,  
 S. A. Mewes,  P. Morgante,  J. W. Mullinax,  T. S. Nguyen-Beck,  
 K. J. Oosterbaan,  G. Paran,  Alexander C. Paul,  Suranjan K. Paul,  
 F. Pavosevic,  Zheng Pei,  S. Prager,  E. I. Proynov,  E. Ramos,  B. Rana,  
 A. E. Rask,  A. Rettig,  R. M. Richard,  F. Rob,  E. Rossomme,  T. Scheele,  
 M. Scheurer,  M. Schneider,  N. Sergueev,  S. M. Sharada,  W. Skomorowski,  
 D. W. Small,  C. J. Stein,  Yu-Chuan Su,  E. J. Sundstrom,  Zhen Tao,  
 J. Thirman,  T. Tsuchimochi,  N. M. Tubman,  S. P. Veccham,  O. Vydrov,  
 J. Wenzel,  J. Witte,  A. Yamada,  Kun Yao,  S. Yeganeh,  S. R. Yost,  
 A. Zech,  Igor Ying Zhang,  Xing Zhang,  Yu Zhang,  D. Zuev,  
 A. Aspuru-Guzik,  A. T. Bell,  N. A. Besley,  K. B. Bravaya,  B. R. Brooks,  
 D. Casanova,  Jeng-Da Chai,  S. Coriani,  C. J. Cramer,  
 A. E. DePrince, III,  R. A. DiStasio Jr.,  A. Dreuw,  B. D. Dunietz,  
 T. R. Furlani,  W. A. Goddard III,  S. Grimme,  S. Hammes-Schiffer,  
 T. Head-Gordon,  W. J. Hehre,  Chao-Ping Hsu,  T.-C. Jagau,  Yousung Jung,  
 A. Klamt,  Jing Kong,  D. S. Lambrecht,  WanZhen Liang,  N. J. Mayhall,  
 C. W. McCurdy,  J. B. Neaton,  C. Ochsenfeld,  J. A. Parkhill,  R. Peverati,  
 V. A. Rassolov,  Yihan Shao,  L. V. Slipchenko,  T. Stauch,  R. P. Steele,  
 J. E. Subotnik,  A. J. W. Thom,  A. Tkatchenko,  D. G. Truhlar,  
 T. Van Voorhis,  T. A. Wesolowski,  K. B. Whaley,  H. L. Woodcock III,  
 P. M. Zimmerman,  S. Faraji,  P. M. W. Gill,  M. Head-Gordon,  
 J. M. Herbert,  A. I. Krylov

 Contributors to earlier versions of Q-Chem not listed above: 
 R. D. Adamson,  B. Austin,  R. Baer,  J. Baker,  G. J. O. Beran,  
 K. Brandhorst,  S. T. Brown,  E. F. C. Byrd,  A. K. Chakraborty,  
 G. K. L. Chan,  Chun-Min Chang,  Yunqing Chen,  C.-L. Cheng,  
 Siu Hung Chien,  D. M. Chipman,  D. L. Crittenden,  H. Dachsel,  
 R. J. Doerksen,  A. D. Dutoi,  R. G. Edgar,  J. Fosso-Tande,  
 L. Fusti-Molnar,  D. Ghosh,  A. Ghysels,  A. Golubeva-Zadorozhnaya,  
 J. Gonthier,  M. S. Gordon,  S. R. Gwaltney,  G. Hawkins,  J. E. Herr,  
 A. Heyden,  S. Hirata,  E. G. Hohenstein,  G. Kedziora,  F. J. Keil,  
 C. Kelley,  Jihan Kim,  R. A. King,  R. Z. Khaliullin,  P. P. Korambath,  
 W. Kurlancheek,  A. Laurent,  A. M. Lee,  M. S. Lee,  S. V. Levchenko,  
 Ching Yeh Lin,  D. Liotard,  E. Livshits,  R. C. Lochan,  I. Lotan,  
 L. A. Martinez-Martinez,  P. E. Maslen,  N. Nair,  D. P. O'Neill,  
 D. Neuhauser,  E. Neuscamman,  C. M. Oana,  R. Olivares-Amaya,  R. Olson,  
 T. M. Perrine,  B. Peters,  P. A. Pieniazek,  A. Prociuk,  Y. M. Rhee,  
 J. Ritchie,  M. A. Rohrdanz,  E. Rosta,  N. J. Russ,  H. F. Schaefer III,  
 M. W. Schmidt,  N. E. Schultz,  S. Sharma,  N. Shenvi,  C. D. Sherrill,  
 A. C. Simmonett,  A. Sodt,  T. Stein,  D. Stuck,  K. S. Thanthiriwatte,  
 V. Vanovschi,  L. Vogt,  Tao Wang,  A. Warshel,  M. A. Watson,  
 C. F. Williams,  Q. Wu,  X. Xu,  Jun Yang,  W. Zhang,  Yan Zhao

 Please cite Q-Chem as follows:
 Y. Shao et al., Mol. Phys. 113, 184-215 (2015)
 DOI: 10.1080/00268976.2014.952696

 Q-Chem 5.4.0 for Intel X86 EM64T Linux

 Parts of Q-Chem use Armadillo 9.800.1 (Horizon Scraper).
 http://arma.sourceforge.net/

 Q-Chem begins on Sun Sep 24 15:57:57 2023  

 Host: 
0

     Scratch files written to ./qchem3738960//
 May1621 |scratch|qcdevops|jenkins|workspace|build_RNUM    
 Parallel job on  1  processors
 Processing $rem in /cm/shared/apps/spack/cpu/opt/spack/linux-centos8-zen2/gcc-10.2.0/qchem-5.4-akfmr7b3t57bfs6qan3padb2wnb2i7cl/config/preferences:
 Processing $rem in /home/rramji/.qchemrc:
 Symmetry turned off for PCM/SM12/SMD calculation
 Core orbitals will be frozen

 Checking the input file for inconsistencies... 	...done.

 Q-Chem warning in module forms1/BasisType.C, line 2236:

 You are not using the predefined 5D/6D in this basis set.


--------------------------------------------------------------
User input:
--------------------------------------------------------------
$molecule
0 1
C	-0.137781	-0.381707	-0.218722
S	0.067319	0.384493	1.361778
C	0.491119	1.966393	0.686178
C	0.120319	0.582293	-1.204122
C	0.461919	1.857593	-0.712222
H	0.059419	0.354693	-2.278622
H	0.689919	2.708493	-1.371322
C	-0.137781	-1.859907	-0.218722
H	0.689219	-1.860507	0.475878
H	-0.771981	-2.299207	0.537078
H	0.384719	-2.570907	-0.841622
H	0.719019	2.817093	1.337278
$end

$rem
JOBTYPE		SP
EXCHANGE	HF
CORRELATION	pRIMP2
BASIS		cc-pvtz
METHOD		rimp2
AUX_BASIS	rimp2-cc-pvtz
SOLVENT_METHOD	PCM
PURECART	11111
SYMMETRY	false
MEM_TOTAL	110000
SCF_CONVERGENCE = 6
THRESH=10
GUI = 2
$end



$solvent
dielectric 4.90
$end
--------------------------------------------------------------
 ----------------------------------------------------------------
             Standard Nuclear Orientation (Angstroms)
    I     Atom           X                Y                Z
 ----------------------------------------------------------------
    1      C      -0.1377810000    -0.3817070000    -0.2187220000
    2      S       0.0673190000     0.3844930000     1.3617780000
    3      C       0.4911190000     1.9663930000     0.6861780000
    4      C       0.1203190000     0.5822930000    -1.2041220000
    5      C       0.4619190000     1.8575930000    -0.7122220000
    6      H       0.0594190000     0.3546930000    -2.2786220000
    7      H       0.6899190000     2.7084930000    -1.3713220000
    8      C      -0.1377810000    -1.8599070000    -0.2187220000
    9      H       0.6892190000    -1.8605070000     0.4758780000
   10      H      -0.7719810000    -2.2992070000     0.5370780000
   11      H       0.3847190000    -2.5709070000    -0.8416220000
   12      H       0.7190190000     2.8170930000     1.3372780000
 ----------------------------------------------------------------
 Nuclear Repulsion Energy =         271.06626666 hartrees
 There are       26 alpha and       26 beta electrons
 Requested basis set is cc-pVTZ
 There are 98 shells and 268 basis functions

 Total QAlloc Memory Limit 110000 MB
 Mega-Array Size       188 MB
 MEM_STATIC part       192 MB
 Discretize the solute cavity surface with Lebedev spheres
	Using 110 Lebedev grid points for each H atom
	Using 194 Lebedev grid points for other atoms
	Atomic van der Waals radii will be scaled by 1.20
 Remove points where switching function is < 1.0e-08
 Keep 879 surface tesserae and discard 945 interior tesserae
 Molecular Surface Area = 137.832 Angst**2

                       Distance Matrix (Angstroms)
             C (  1)   S (  2)   C (  3)   C (  4)   C (  5)   H (  6)
   S (  2)  1.768363
   C (  3)  2.593826  1.771567
   C (  4)  1.402471  2.574058  2.372016
   C (  5)  2.370158  2.574337  1.402930  1.408917
   H (  6)  2.196443  3.640531  3.402055  1.100028  2.207787
   H (  7)  3.400428  3.641214  2.196256  2.207516  1.100194  2.600211
   C (  8)  1.478200  2.752704  3.981825  2.646124  3.797761  3.030929
   H (  9)  1.831187  2.492309  3.837790  3.018827  3.909925  3.590408
   H ( 10)  2.156444  2.930324  4.451179  3.482961  4.512455  3.957597
   H ( 11)  2.335296  3.700014  4.788798  3.184962  4.431063  3.275656
   H ( 12)  3.658902  2.518503  1.095244  3.436784  2.277541  4.424163
             H (  7)   C (  8)   H (  9)   H ( 10)   H ( 11)
   C (  8)  4.783707
   H (  9)  4.928277  1.079999
   H ( 10)  5.554836  1.080013  1.526862
   H ( 11)  5.314677  1.080061  1.527480  1.820052
   H ( 12)  2.710932  5.002956  4.756347  5.388871  5.821504
 
 Requested basis set is rimp2-cc-pVTZ
 There are 207 shells and 707 basis functions
 A cutoff of  1.0D-10 yielded   4374 shell pairs
 There are     32824 function pairs (     42466 Cartesian)
 Smallest overlap matrix eigenvalue = 1.23E-04

 Scale SEOQF with 1.000000e+00/1.000000e-01/1.000000e-01

 Standard Electronic Orientation quadrupole field applied
 Nucleus-field energy     =     0.0000000032 hartrees
 Guess from superposition of atomic densities
 Warning:  Energy on first SCF cycle will be non-variational
 SAD guess density has 52.000000 electrons

 -----------------------------------------------------------------------
  General SCF calculation program by
  Eric Jon Sundstrom, Paul Horn, Yuezhi Mao, Dmitri Zuev, Alec White,
  David Stuck, Shaama M.S., Shane Yost, Joonho Lee, David Small,
  Daniel Levine, Susi Lehtola, Hugh Burton, Evgeny Epifanovsky,
  Bang C. Huynh
 -----------------------------------------------------------------------
 Hartree-Fock
 using 64 threads for integral computing
 -------------------------------------------------------
 OpenMP Integral computing Module                
 Release: version 1.0, May 2013, Q-Chem Inc. Pittsburgh 
 -------------------------------------------------------
 A restricted SCF calculation will be
 performed using DIIS
 SCF converges when DIIS error is below 1.0e-06
 ---------------------------------------
  Cycle       Energy         DIIS error
 ---------------------------------------
    1    -592.5884712883      3.23e-02  
    2    -590.2979240301      2.20e-03  
    3    -590.3591761441      8.48e-04  
    4    -590.3665587341      3.99e-04  
    5    -590.3686017899      7.12e-05  
    6    -590.3687308996      3.20e-05  
    7    -590.3687630830      1.46e-05  
    8    -590.3687730084      5.86e-06  
    9    -590.3687745145      1.94e-06  
   10    -590.3687746566      6.25e-07  Convergence criterion met
 ---------------------------------------
 SCF time:   CPU 494.32s  wall 8.00s 

************** Final PCM Free Energy Summary **************
 G_electrostatic  =      -0.00561041 hartree =      -3.52058761 kcal/mol
 G_cavitation     =       0.00000000 hartree =       0.00000000 kcal/mol
 G_dispersion     =       0.00000000 hartree =       0.00000000 kcal/mol
 G_repulsion      =       0.00000000 hartree =       0.00000000 kcal/mol
 --------------------------------------------------
 Non-electrostatic Free Energy =       0.00000000 hartree =       0.00000000 kcal/mol
 Total                         =      -0.00561041 hartree =      -3.52058761 kcal/mol
 --------------------------------------------------
 SCF Energy (H0 + V/2)                       =    -590.36877466 
 Solute Internal Energy (H0)                 =    -590.36316424 
 Total Free Energy (H0 + V/2 + non-elec)     =    -590.36877466 hartree
                                             = -370461.99747966 kcal/mol
***********************************************************

 SCF   energy in the final basis set =     -590.3687746566
 Total energy in the final basis set =     -590.3687746566


 --------------------------------------------------------------
  Generalized many-body perturbation theory program
  by Joonho Lee, Fazle Rob, Xintian Feng, Evgeny Epifanovsky

 No regularization used 
 (reg. param. = 0.0000e+00)
  (P|Q)^-1/2 Time:  CPU 6.61 s  wall 0.11 s

 In RI-MP2 calculation: 
 # of frozen core orbitals: 10

 Components of the RIMP2 correlation energy:
        aaaa    correlation energy =        -0.1250657199 a.u.
        abab    correlation energy =        -0.7507579792 a.u.
        bbbb    correlation energy =        -0.1250657199 a.u.
        non-Brillouin singles      =        -0.0000000000 a.u.
        total same-spin energy     =        -0.2501314398 a.u.
        total opposite-spin energy =        -0.7507579792 a.u.

 Total  RIMP2   correlation energy =        -1.0008894190 a.u.
        RIMP2         total energy =      -591.3696640755 a.u.

 RI-MP2 Energy Time:  CPU 28.90 s  wall 0.55 s
 
 --------------------------------------------------------------
 
                    Orbital Energies (a.u.)
 --------------------------------------------------------------
 
 Alpha MOs
 -- Occupied --
-91.9779 -11.2872 -11.2672 -11.2427 -11.2341 -11.2255  -8.9781  -6.6590
 -6.6585  -6.6579  -1.1585  -1.0406  -0.9722  -0.9180  -0.7570  -0.7211
 -0.6717  -0.5964  -0.5674  -0.5628  -0.5334  -0.5014  -0.4696  -0.4550
 -0.3468  -0.3024
 -- Virtual --
  0.1034   0.1480   0.1609   0.1791   0.1898   0.2001   0.2137   0.2214
  0.2353   0.2500   0.3087   0.3311   0.3556   0.3684   0.3884   0.4198
  0.4241   0.4458   0.4603   0.4761   0.4926   0.5022   0.5229   0.5372
  0.5409   0.5594   0.5652   0.5793   0.5886   0.6109   0.6157   0.6204
  0.6296   0.6411   0.6512   0.6640   0.7053   0.7097   0.7354   0.7643
  0.7845   0.8104   0.8381   0.8466   0.8630   0.8847   0.8888   0.9202
  0.9481   0.9916   1.0061   1.0329   1.0575   1.0668   1.1082   1.1137
  1.1562   1.1669   1.1712   1.1800   1.2203   1.2367   1.2502   1.2676
  1.2771   1.3067   1.3394   1.3518   1.3913   1.4092   1.4274   1.4353
  1.4788   1.4831   1.5094   1.5174   1.5406   1.5479   1.5542   1.5765
  1.6008   1.6400   1.6412   1.6718   1.7176   1.7250   1.7514   1.7916
  1.8312   1.9067   1.9117   1.9346   1.9603   1.9996   2.0654   2.1001
  2.1387   2.1717   2.1992   2.2197   2.2591   2.2771   2.3387   2.3917
  2.4359   2.4575   2.4665   2.5166   2.5430   2.5967   2.6283   2.6553
  2.6848   2.7049   2.7300   2.7433   2.7629   2.7717   2.8248   2.8440
  2.8799   2.9107   2.9242   2.9645   2.9855   3.0128   3.0249   3.0476
  3.0650   3.0736   3.1233   3.1435   3.1642   3.2036   3.2118   3.2382
  3.2483   3.2625   3.3036   3.3066   3.3351   3.3506   3.3696   3.3886
  3.3996   3.4290   3.4387   3.4444   3.4621   3.4779   3.4908   3.5017
  3.5040   3.5193   3.5372   3.5648   3.5957   3.6096   3.6468   3.6593
  3.6886   3.7057   3.7128   3.7429   3.7693   3.7935   3.8046   3.8286
  3.8414   3.8909   3.9110   3.9162   3.9346   3.9550   3.9578   3.9904
  4.0045   4.0099   4.0671   4.1035   4.1304   4.1483   4.1675   4.2046
  4.2313   4.2433   4.2639   4.2901   4.3030   4.3478   4.3883   4.3980
  4.4383   4.4703   4.4766   4.4998   4.5399   4.5722   4.5864   4.6502
  4.6644   4.6955   4.7259   4.7588   4.7913   4.8151   4.8198   4.8514
  4.9207   5.0081   5.0304   5.0430   5.0695   5.1377   5.1844   5.1958
  5.2209   5.3036   5.3595   5.4330   5.4664   5.4932   5.5439   5.6036
  5.6208   5.6732   5.7932   5.8321   5.8504   5.9569   6.0020   6.0797
  6.1298   6.3319   6.4236   6.4598   6.7287   9.3518  11.2974  12.7741
 13.8834  14.3276
 --------------------------------------------------------------
 
          Ground-State Mulliken Net Atomic Charges

     Atom                 Charge (a.u.)
  ----------------------------------------
      1 C                     0.026268
      2 S                    -0.004349
      3 C                    -0.238863
      4 C                    -0.248682
      5 C                    -0.180823
      6 H                     0.184092
      7 H                     0.186206
      8 C                    -0.358306
      9 H                     0.131063
     10 H                     0.134400
     11 H                     0.164004
     12 H                     0.204990
  ----------------------------------------
  Sum of atomic charges =     0.000000

 -----------------------------------------------------------------
                    Cartesian Multipole Moments
 -----------------------------------------------------------------
    Charge (ESU x 10^10)
                -0.0000
    Dipole Moment (Debye)
         X       0.8561      Y      -0.5412      Z      -0.6344
       Tot       1.1951
    Quadrupole Moments (Debye-Ang)
        XX     -47.5068     XY       1.0474     YY     -36.5833
        XZ      -0.3546     YZ       0.1350     ZZ     -42.1047
    Octopole Moments (Debye-Ang^2)
       XXX     -20.8654    XXY     -19.0254    XYY       2.8607
       YYY     -41.5772    XXZ      -6.9204    XYZ       2.6144
       YYZ      -3.2545    XZZ      -4.1554    YZZ      -9.6256
       ZZZ     -28.8637
    Hexadecapole Moments (Debye-Ang^3)
      XXXX     -88.4701   XXXY     -48.3400   XXYY    -108.2252
      XYYY     -30.9824   YYYY    -487.5424   XXXZ      -1.6088
      XXYZ      -5.6426   XYYZ      -2.6258   YYYZ      -7.4159
      XXZZ     -70.7167   XYZZ      -8.2170   YYZZ    -123.1320
      XZZZ      -0.3335   YZZZ     -13.3591   ZZZZ    -305.6316
 -----------------------------------------------------------------
 Total job time:  10.43s(wall), 566.16s(cpu) 
 Sun Sep 24 15:58:07 2023

        *************************************************************
        *                                                           *
        *  Thank you very much for using Q-Chem.  Have a nice day.  *
        *                                                           *
        *************************************************************


0 sent ACK to 0 
now end server 0 ... 
cleanup process ... done
remove work dirs ./qchem3738960.0 -- ./qchem3738960.0
rm -rf ./qchem3738960.0
rm -rf ./qchem3738960
