You are running Q-Chem version: 5.4.0

#
# job setting
#
local host:  exp-3-02
current dir: /expanse/lustre/projects/csd626/rramji/aromodel/PNDIT/Hydrogenated_Impropers_Test
input file:  Dimethyl_Naphthalene_Dicarboximide_Phi_5_Theta_130_Thiophene_Hydrogenated_Improper.qcin
output file: 
nprocs     : 1
nthreads   : 64
#
# qchem installation setting
#
QC:          /cm/shared/apps/spack/cpu/opt/spack/linux-centos8-zen2/gcc-10.2.0/qchem-5.4-akfmr7b3t57bfs6qan3padb2wnb2i7cl
QCAUX:       /cm/shared/apps/spack/cpu/opt/spack/linux-centos8-zen2/gcc-10.2.0/qchem-5.4-akfmr7b3t57bfs6qan3padb2wnb2i7cl/qcaux
QCPROG:      /cm/shared/apps/spack/cpu/opt/spack/linux-centos8-zen2/gcc-10.2.0/qchem-5.4-akfmr7b3t57bfs6qan3padb2wnb2i7cl/exe/qcprog.exe
QCPROG_S:    /cm/shared/apps/spack/cpu/opt/spack/linux-centos8-zen2/gcc-10.2.0/qchem-5.4-akfmr7b3t57bfs6qan3padb2wnb2i7cl/exe/qcprog.exe_s
PARALLEL:    -DPARALLEL
QCMPI:       mpich
#
# qchem directory setting
#
qcrun:       qchem1049510
QCSCRATCH:   .
QCLOCALSCR:  
QCTMPDIR:    .
QCFILEPREF:  ./qchem1049510
QCSAVEDIR:   
workdirs:    ./qchem1049510
workdir0:    ./qchem1049510
partmpdirs =  
#
# parallel setting
#
QCRSH:           ssh
QCMPI:           mpich
QCMPIRUN:        /cm/shared/apps/spack/cpu/opt/spack/linux-centos8-zen2/gcc-10.2.0/qchem-5.4-akfmr7b3t57bfs6qan3padb2wnb2i7cl/bin/mpi/mpirun_qchem
QCMACHINEFILE:   ./qchem1049510/hostfile
exp-3-02

#
# env setting
#
exported envs:   QC QCAUX QCSCRATCH QCRUNNAME QCFILEPREF QCPROG QCPROG_S GUIFILE

Running Job 1 of 1 Dimethyl_Naphthalene_Dicarboximide_Phi_5_Theta_130_Thiophene_Hydrogenated_Improper.qcin
qchem Dimethyl_Naphthalene_Dicarboximide_Phi_5_Theta_130_Thiophene_Hydrogenated_Improper.qcin_1049510.0 ./qchem1049510/ 1
/cm/shared/apps/spack/cpu/opt/spack/linux-centos8-zen2/gcc-10.2.0/qchem-5.4-akfmr7b3t57bfs6qan3padb2wnb2i7cl/bin/mpi/mpirun_qchem -machinefile ./qchem1049510/hostfile -np 1 /cm/shared/apps/spack/cpu/opt/spack/linux-centos8-zen2/gcc-10.2.0/qchem-5.4-akfmr7b3t57bfs6qan3padb2wnb2i7cl/exe/qcprog.exe Dimethyl_Naphthalene_Dicarboximide_Phi_5_Theta_130_Thiophene_Hydrogenated_Improper.qcin_1049510.0 ./qchem1049510/

Process 0 of 1 is on exp-3-02 - thread support 0
initial socket setup ...start
initial socket setup ...done 
now start server 0 ... 
                  Welcome to Q-Chem
     A Quantum Leap Into The Future Of Chemistry


 Q-Chem 5.4, Q-Chem, Inc., Pleasanton, CA (2021)

 License issued to: University of California, San Diego (site)

 E. Epifanovsky,  A. T. B. Gilbert,  Xintian Feng,  Joonho Lee,  Yuezhi Mao,  
 N. Mardirossian,  P. Pokhilko,  A. White,  M. Wormit,  M. P. Coons,  
 A. L. Dempwolff,  Zhengting Gan,  D. Hait,  P. R. Horn,  L. D. Jacobson,  
 I. Kaliman,  J. Kussmann,  A. W. Lange,  Ka Un Lao,  D. S. Levine,  Jie Liu,  
 S. C. McKenzie,  A. F. Morrison,  K. Nanda,  F. Plasser,  D. R. Rehn,  
 M. L. Vidal,  Zhi-Qiang You,  Ying Zhu,  B. Alam,  B. Albrecht,  
 A. Aldossary,  E. Alguire,  J. H. Andersen,  D. Barton,  K. Begam,  A. Behn,  
 Y. A. Bernard,  E. J. Berquist,  H. Burton,  A. Carreras,  K. Carter-Fenk,  
 R. Chakraborty,  A. D. Chien,  K. D. Closser,  V. Cofer-Shabica,  
 S. Dasgupta,  Jia Deng,  M. de Wergifosse,  M. Diedenhofen,  Hainam Do,  
 S. Ehlert,  Po-Tung Fang,  S. Fatehi,  Qingguo Feng,  J. Gayvert,  
 Qinghui Ge,  G. Gidofalvi,  M. Goldey,  J. Gomes,  C. Gonzalez-Espinoza,  
 S. Gulania,  A. Gunina,  M. W. D. Hanson-Heine,  P. H. P. Harbach,  
 A. W. Hauser,  M. F. Herbst,  M. Hernandez Vera,  M. Hodecker,  
 Z. C. Holden,  S. Houck,  Xunkun Huang,  Kerwin Hui,  B. C. Huynh,  
 M. Ivanov,  Hyunjun Ji,  Hanjie Jiang,  B. Kaduk,  S. Kaehler,  
 K. Khistyaev,  Jaehoon Kim,  P. Klunzinger,  Z. Koczor-Benda,  
 Joong Hoon Koh,  D. Kosenkov,  L. Koulias,  T. Kowalczyk,  C. M. Krauter,  
 K. Kue,  A. Kunitsa,  T. Kus,  A. Landau,  K. V. Lawler,  D. Lefrancois,  
 S. Lehtola,  Rain Li,  Yi-Pei Li,  Jiashu Liang,  M. Liebenthal,  
 Hung-Hsuan Lin,  You-Sheng Lin,  Fenglai Liu,  Kuan-Yu Liu,  
 M. Loipersberger,  A. Luenser,  A. Manjanath,  P. Manohar,  E. Mansoor,  
 S. F. Manzer,  Shan-Ping Mao,  A. V. Marenich,  T. Markovich,  S. Mason,  
 S. A. Maurer,  P. F. McLaughlin,  M. F. S. J. Menger,  J.-M. Mewes,  
 S. A. Mewes,  P. Morgante,  J. W. Mullinax,  T. S. Nguyen-Beck,  
 K. J. Oosterbaan,  G. Paran,  Alexander C. Paul,  Suranjan K. Paul,  
 F. Pavosevic,  Zheng Pei,  S. Prager,  E. I. Proynov,  E. Ramos,  B. Rana,  
 A. E. Rask,  A. Rettig,  R. M. Richard,  F. Rob,  E. Rossomme,  T. Scheele,  
 M. Scheurer,  M. Schneider,  N. Sergueev,  S. M. Sharada,  W. Skomorowski,  
 D. W. Small,  C. J. Stein,  Yu-Chuan Su,  E. J. Sundstrom,  Zhen Tao,  
 J. Thirman,  T. Tsuchimochi,  N. M. Tubman,  S. P. Veccham,  O. Vydrov,  
 J. Wenzel,  J. Witte,  A. Yamada,  Kun Yao,  S. Yeganeh,  S. R. Yost,  
 A. Zech,  Igor Ying Zhang,  Xing Zhang,  Yu Zhang,  D. Zuev,  
 A. Aspuru-Guzik,  A. T. Bell,  N. A. Besley,  K. B. Bravaya,  B. R. Brooks,  
 D. Casanova,  Jeng-Da Chai,  S. Coriani,  C. J. Cramer,  
 A. E. DePrince, III,  R. A. DiStasio Jr.,  A. Dreuw,  B. D. Dunietz,  
 T. R. Furlani,  W. A. Goddard III,  S. Grimme,  S. Hammes-Schiffer,  
 T. Head-Gordon,  W. J. Hehre,  Chao-Ping Hsu,  T.-C. Jagau,  Yousung Jung,  
 A. Klamt,  Jing Kong,  D. S. Lambrecht,  WanZhen Liang,  N. J. Mayhall,  
 C. W. McCurdy,  J. B. Neaton,  C. Ochsenfeld,  J. A. Parkhill,  R. Peverati,  
 V. A. Rassolov,  Yihan Shao,  L. V. Slipchenko,  T. Stauch,  R. P. Steele,  
 J. E. Subotnik,  A. J. W. Thom,  A. Tkatchenko,  D. G. Truhlar,  
 T. Van Voorhis,  T. A. Wesolowski,  K. B. Whaley,  H. L. Woodcock III,  
 P. M. Zimmerman,  S. Faraji,  P. M. W. Gill,  M. Head-Gordon,  
 J. M. Herbert,  A. I. Krylov

 Contributors to earlier versions of Q-Chem not listed above: 
 R. D. Adamson,  B. Austin,  R. Baer,  J. Baker,  G. J. O. Beran,  
 K. Brandhorst,  S. T. Brown,  E. F. C. Byrd,  A. K. Chakraborty,  
 G. K. L. Chan,  Chun-Min Chang,  Yunqing Chen,  C.-L. Cheng,  
 Siu Hung Chien,  D. M. Chipman,  D. L. Crittenden,  H. Dachsel,  
 R. J. Doerksen,  A. D. Dutoi,  R. G. Edgar,  J. Fosso-Tande,  
 L. Fusti-Molnar,  D. Ghosh,  A. Ghysels,  A. Golubeva-Zadorozhnaya,  
 J. Gonthier,  M. S. Gordon,  S. R. Gwaltney,  G. Hawkins,  J. E. Herr,  
 A. Heyden,  S. Hirata,  E. G. Hohenstein,  G. Kedziora,  F. J. Keil,  
 C. Kelley,  Jihan Kim,  R. A. King,  R. Z. Khaliullin,  P. P. Korambath,  
 W. Kurlancheek,  A. Laurent,  A. M. Lee,  M. S. Lee,  S. V. Levchenko,  
 Ching Yeh Lin,  D. Liotard,  E. Livshits,  R. C. Lochan,  I. Lotan,  
 L. A. Martinez-Martinez,  P. E. Maslen,  N. Nair,  D. P. O'Neill,  
 D. Neuhauser,  E. Neuscamman,  C. M. Oana,  R. Olivares-Amaya,  R. Olson,  
 T. M. Perrine,  B. Peters,  P. A. Pieniazek,  A. Prociuk,  Y. M. Rhee,  
 J. Ritchie,  M. A. Rohrdanz,  E. Rosta,  N. J. Russ,  H. F. Schaefer III,  
 M. W. Schmidt,  N. E. Schultz,  S. Sharma,  N. Shenvi,  C. D. Sherrill,  
 A. C. Simmonett,  A. Sodt,  T. Stein,  D. Stuck,  K. S. Thanthiriwatte,  
 V. Vanovschi,  L. Vogt,  Tao Wang,  A. Warshel,  M. A. Watson,  
 C. F. Williams,  Q. Wu,  X. Xu,  Jun Yang,  W. Zhang,  Yan Zhao

 Please cite Q-Chem as follows:
 Y. Shao et al., Mol. Phys. 113, 184-215 (2015)
 DOI: 10.1080/00268976.2014.952696

 Q-Chem 5.4.0 for Intel X86 EM64T Linux

 Parts of Q-Chem use Armadillo 9.800.1 (Horizon Scraper).
 http://arma.sourceforge.net/

 Q-Chem begins on Sun Sep 24 15:59:12 2023  

 Host: 
0

     Scratch files written to ./qchem1049510//
 May1621 |scratch|qcdevops|jenkins|workspace|build_RNUM    
 Parallel job on  1  processors
 Processing $rem in /cm/shared/apps/spack/cpu/opt/spack/linux-centos8-zen2/gcc-10.2.0/qchem-5.4-akfmr7b3t57bfs6qan3padb2wnb2i7cl/config/preferences:
 Processing $rem in /home/rramji/.qchemrc:
 Symmetry turned off for PCM/SM12/SMD calculation
 Core orbitals will be frozen

 Checking the input file for inconsistencies... 	...done.

 Q-Chem warning in module forms1/BasisType.C, line 2236:

 You are not using the predefined 5D/6D in this basis set.


--------------------------------------------------------------
User input:
--------------------------------------------------------------
$molecule
0 1
C	-0.040855	-0.397395	-0.218146
S	0.028045	0.392805	1.362354
C	0.170745	2.024305	0.686754
C	0.045945	0.596805	-1.203546
C	0.160945	1.912005	-0.711646
H	0.025445	0.362105	-2.278046
H	0.237645	2.789605	-1.370746
C	-0.040855	-1.875595	-0.218146
H	-0.735455	-1.876195	0.608854
H	-0.796655	-2.314895	-0.852346
H	0.582045	-2.586595	0.304354
H	0.247445	2.901605	1.337854
$end

$rem
JOBTYPE		SP
EXCHANGE	HF
CORRELATION	pRIMP2
BASIS		cc-pvtz
METHOD		rimp2
AUX_BASIS	rimp2-cc-pvtz
SOLVENT_METHOD	PCM
PURECART	11111
SYMMETRY	false
MEM_TOTAL	110000
SCF_CONVERGENCE = 6
THRESH=10
GUI = 2
$end



$solvent
dielectric 4.90
$end
--------------------------------------------------------------
 ----------------------------------------------------------------
             Standard Nuclear Orientation (Angstroms)
    I     Atom           X                Y                Z
 ----------------------------------------------------------------
    1      C      -0.0408550000    -0.3973950000    -0.2181460000
    2      S       0.0280450000     0.3928050000     1.3623540000
    3      C       0.1707450000     2.0243050000     0.6867540000
    4      C       0.0459450000     0.5968050000    -1.2035460000
    5      C       0.1609450000     1.9120050000    -0.7116460000
    6      H       0.0254450000     0.3621050000    -2.2780460000
    7      H       0.2376450000     2.7896050000    -1.3707460000
    8      C      -0.0408550000    -1.8755950000    -0.2181460000
    9      H      -0.7354550000    -1.8761950000     0.6088540000
   10      H      -0.7966550000    -2.3148950000    -0.8523460000
   11      H       0.5820450000    -2.5865950000     0.3043540000
   12      H       0.2474450000     2.9016050000     1.3378540000
 ----------------------------------------------------------------
 Nuclear Repulsion Energy =         270.51693346 hartrees
 There are       26 alpha and       26 beta electrons
 Requested basis set is cc-pVTZ
 There are 98 shells and 268 basis functions

 Total QAlloc Memory Limit 110000 MB
 Mega-Array Size       188 MB
 MEM_STATIC part       192 MB
 Discretize the solute cavity surface with Lebedev spheres
	Using 110 Lebedev grid points for each H atom
	Using 194 Lebedev grid points for other atoms
	Atomic van der Waals radii will be scaled by 1.20
 Remove points where switching function is < 1.0e-08
 Keep 896 surface tesserae and discard 928 interior tesserae
 Molecular Surface Area = 137.895 Angst**2

                       Distance Matrix (Angstroms)
             C (  1)   S (  2)   C (  3)   C (  4)   C (  5)   H (  6)
   S (  2)  1.768373
   C (  3)  2.593887  1.771607
   C (  4)  1.402491  2.574059  2.372038
   C (  5)  2.370146  2.574317  1.402936  1.408880
   H (  6)  2.196457  3.640530  3.402067  1.100025  2.207750
   H (  7)  3.400444  3.641211  2.196239  2.207505  1.100217  2.600188
   C (  8)  1.478200  2.765568  4.009094  2.662951  3.824942  3.042184
   H (  9)  1.831187  2.509792  4.005143  3.164034  4.110683  3.731373
   H ( 10)  2.156444  3.593976  4.704609  3.051444  4.336298  3.142419
   H ( 11)  2.335296  3.209845  4.644975  3.563033  4.631089  3.958968
   H ( 12)  3.658914  2.518494  1.095203  3.436775  2.277551  4.424147
             H (  7)   C (  8)   H (  9)   H ( 10)   H ( 11)
   C (  8)  4.813537
   H (  9)  5.160952  1.079999
   H ( 10)  5.233969  1.080013  1.526862
   H ( 11)  5.641640  1.080061  1.527480  1.820052
   H ( 12)  2.710932  5.032484  4.932029  5.753172  5.594678
 
 Requested basis set is rimp2-cc-pVTZ
 There are 207 shells and 707 basis functions
 A cutoff of  1.0D-10 yielded   4363 shell pairs
 There are     32675 function pairs (     42234 Cartesian)
 Smallest overlap matrix eigenvalue = 1.15E-04

 Scale SEOQF with 1.000000e+00/1.000000e-01/1.000000e-01

 Standard Electronic Orientation quadrupole field applied
 Nucleus-field energy     =     0.0000000023 hartrees
 Guess from superposition of atomic densities
 Warning:  Energy on first SCF cycle will be non-variational
 SAD guess density has 52.000000 electrons

 -----------------------------------------------------------------------
  General SCF calculation program by
  Eric Jon Sundstrom, Paul Horn, Yuezhi Mao, Dmitri Zuev, Alec White,
  David Stuck, Shaama M.S., Shane Yost, Joonho Lee, David Small,
  Daniel Levine, Susi Lehtola, Hugh Burton, Evgeny Epifanovsky,
  Bang C. Huynh
 -----------------------------------------------------------------------
 Hartree-Fock
 using 64 threads for integral computing
 -------------------------------------------------------
 OpenMP Integral computing Module                
 Release: version 1.0, May 2013, Q-Chem Inc. Pittsburgh 
 -------------------------------------------------------
 A restricted SCF calculation will be
 performed using DIIS
 SCF converges when DIIS error is below 1.0e-06
 ---------------------------------------
  Cycle       Energy         DIIS error
 ---------------------------------------
    1    -592.5802016301      3.22e-02  
    2    -590.3013363574      2.19e-03  
    3    -590.3622364694      8.24e-04  
    4    -590.3693699592      3.92e-04  
    5    -590.3713396289      7.15e-05  
    6    -590.3714674959      3.15e-05  
    7    -590.3714990079      1.47e-05  
    8    -590.3715086390      5.73e-06  
    9    -590.3715101160      1.97e-06  
   10    -590.3715102528      5.90e-07  Convergence criterion met
 ---------------------------------------
 SCF time:   CPU 481.87s  wall 9.00s 

************** Final PCM Free Energy Summary **************
 G_electrostatic  =      -0.00555742 hartree =      -3.48733134 kcal/mol
 G_cavitation     =       0.00000000 hartree =       0.00000000 kcal/mol
 G_dispersion     =       0.00000000 hartree =       0.00000000 kcal/mol
 G_repulsion      =       0.00000000 hartree =       0.00000000 kcal/mol
 --------------------------------------------------
 Non-electrostatic Free Energy =       0.00000000 hartree =       0.00000000 kcal/mol
 Total                         =      -0.00555742 hartree =      -3.48733134 kcal/mol
 --------------------------------------------------
 SCF Energy (H0 + V/2)                       =    -590.37151025 
 Solute Internal Energy (H0)                 =    -590.36595284 
 Total Free Energy (H0 + V/2 + non-elec)     =    -590.37151025 hartree
                                             = -370463.71409220 kcal/mol
***********************************************************

 SCF   energy in the final basis set =     -590.3715102528
 Total energy in the final basis set =     -590.3715102528


 --------------------------------------------------------------
  Generalized many-body perturbation theory program
  by Joonho Lee, Fazle Rob, Xintian Feng, Evgeny Epifanovsky

 No regularization used 
 (reg. param. = 0.0000e+00)
  (P|Q)^-1/2 Time:  CPU 6.62 s  wall 0.11 s

 In RI-MP2 calculation: 
 # of frozen core orbitals: 10

 Components of the RIMP2 correlation energy:
        aaaa    correlation energy =        -0.1251989395 a.u.
        abab    correlation energy =        -0.7508717373 a.u.
        bbbb    correlation energy =        -0.1251989395 a.u.
        non-Brillouin singles      =        -0.0000000000 a.u.
        total same-spin energy     =        -0.2503978790 a.u.
        total opposite-spin energy =        -0.7508717373 a.u.

 Total  RIMP2   correlation energy =        -1.0012696164 a.u.
        RIMP2         total energy =      -591.3727798692 a.u.

 RI-MP2 Energy Time:  CPU 26.29 s  wall 0.45 s
 
 --------------------------------------------------------------
 
                    Orbital Energies (a.u.)
 --------------------------------------------------------------
 
 Alpha MOs
 -- Occupied --
-91.9787 -11.2858 -11.2678 -11.2430 -11.2357 -11.2248  -8.9787  -6.6596
 -6.6591  -6.6585  -1.1576  -1.0398  -0.9725  -0.9192  -0.7574  -0.7207
 -0.6713  -0.5978  -0.5681  -0.5610  -0.5395  -0.4951  -0.4677  -0.4530
 -0.3465  -0.3066
 -- Virtual --
  0.1044   0.1458   0.1601   0.1803   0.1891   0.1980   0.2118   0.2282
  0.2376   0.2533   0.3041   0.3254   0.3581   0.3737   0.3827   0.4054
  0.4242   0.4469   0.4616   0.4786   0.4962   0.5152   0.5253   0.5407
  0.5455   0.5562   0.5706   0.5835   0.6003   0.6102   0.6127   0.6196
  0.6281   0.6466   0.6512   0.6629   0.7027   0.7136   0.7267   0.7589
  0.7821   0.8048   0.8308   0.8691   0.8732   0.8864   0.9044   0.9323
  0.9503   0.9757   1.0026   1.0196   1.0523   1.0645   1.0970   1.1187
  1.1310   1.1711   1.1816   1.2083   1.2195   1.2287   1.2398   1.2616
  1.2901   1.3030   1.3286   1.3438   1.3905   1.4033   1.4291   1.4498
  1.4789   1.4935   1.5070   1.5362   1.5507   1.5630   1.5717   1.5896
  1.5994   1.6253   1.6469   1.6761   1.6962   1.7357   1.7727   1.8076
  1.8297   1.8897   1.9098   1.9254   1.9628   1.9715   2.0525   2.0916
  2.1521   2.1756   2.2122   2.2183   2.2494   2.2856   2.3316   2.4214
  2.4288   2.4644   2.4910   2.5215   2.5576   2.5965   2.6260   2.6641
  2.6811   2.7156   2.7314   2.7512   2.7617   2.7759   2.7895   2.8349
  2.8806   2.9012   2.9393   2.9762   2.9932   3.0108   3.0233   3.0378
  3.0608   3.0686   3.1171   3.1510   3.1708   3.2093   3.2257   3.2385
  3.2630   3.2839   3.2983   3.3121   3.3154   3.3366   3.3604   3.3710
  3.4103   3.4128   3.4365   3.4540   3.4575   3.4688   3.4957   3.5018
  3.5114   3.5191   3.5408   3.5634   3.5887   3.6144   3.6209   3.6765
  3.6844   3.7088   3.7144   3.7330   3.7696   3.7830   3.8247   3.8393
  3.8470   3.8847   3.9043   3.9210   3.9411   3.9582   3.9653   3.9741
  4.0144   4.0383   4.0642   4.1087   4.1247   4.1341   4.1654   4.1826
  4.2132   4.2500   4.2663   4.2848   4.3039   4.3402   4.3747   4.4148
  4.4267   4.4490   4.4657   4.5203   4.5344   4.5409   4.5942   4.6316
  4.6798   4.6984   4.7000   4.7339   4.7878   4.8169   4.8467   4.9060
  4.9761   5.0164   5.0262   5.0479   5.1079   5.1438   5.1819   5.1944
  5.2453   5.2982   5.3632   5.4046   5.4254   5.4917   5.5286   5.5807
  5.6255   5.7292   5.7773   5.8388   5.8904   5.9826   6.0198   6.0594
  6.1035   6.3217   6.4443   6.4597   6.6757   9.3963  11.2711  12.8425
 14.0107  14.2008
 --------------------------------------------------------------
 
          Ground-State Mulliken Net Atomic Charges

     Atom                 Charge (a.u.)
  ----------------------------------------
      1 C                     0.014720
      2 S                    -0.005975
      3 C                    -0.233368
      4 C                    -0.217320
      5 C                    -0.193539
      6 H                     0.184858
      7 H                     0.185710
      8 C                    -0.346348
      9 H                     0.118855
     10 H                     0.131615
     11 H                     0.155662
     12 H                     0.205128
  ----------------------------------------
  Sum of atomic charges =     0.000000

 -----------------------------------------------------------------
                    Cartesian Multipole Moments
 -----------------------------------------------------------------
    Charge (ESU x 10^10)
                -0.0000
    Dipole Moment (Debye)
         X      -0.3277      Y      -0.3887      Z      -0.5844
       Tot       0.7746
    Quadrupole Moments (Debye-Ang)
        XX     -47.7119     XY       1.5600     YY     -36.0354
        XZ       0.5214     YZ      -0.3014     ZZ     -42.1935
    Octopole Moments (Debye-Ang^2)
       XXX      -6.5327    XXY     -22.0591    XYY      -0.4512
       YYY     -40.9846    XXZ      -7.5477    XYZ      -1.0488
       YYZ      -0.9657    XZZ      -1.4130    YZZ      -9.4257
       ZZZ     -28.7749
    Hexadecapole Moments (Debye-Ang^3)
      XXXX     -68.8835   XXXY     -19.8360   XXYY    -113.2072
      XYYY     -10.1429   YYYY    -498.4778   XXXZ      -1.1384
      XXYZ      -5.3162   XYYZ       4.0795   YYYZ     -14.2438
      XXZZ     -69.1286   XYZZ      -3.0125   YYZZ    -127.1426
      XZZZ      -1.0295   YZZZ     -13.6759   ZZZZ    -305.4956
 -----------------------------------------------------------------
 Total job time:  10.91s(wall), 544.21s(cpu) 
 Sun Sep 24 15:59:23 2023

        *************************************************************
        *                                                           *
        *  Thank you very much for using Q-Chem.  Have a nice day.  *
        *                                                           *
        *************************************************************


0 sent ACK to 0 
now end server 0 ... 
cleanup process ... done
remove work dirs ./qchem1049510.0 -- ./qchem1049510.0
rm -rf ./qchem1049510.0
rm -rf ./qchem1049510
