You are running Q-Chem version: 5.4.0

#
# job setting
#
local host:  exp-4-23
current dir: /expanse/lustre/projects/csd626/rramji/aromodel/PNDIT/Hydrogenated_Impropers_Test
input file:  Dimethyl_Naphthalene_Dicarboximide_Phi_60_Theta_80_Thiophene_Hydrogenated_Improper.qcin
output file: 
nprocs     : 1
nthreads   : 64
#
# qchem installation setting
#
QC:          /cm/shared/apps/spack/cpu/opt/spack/linux-centos8-zen2/gcc-10.2.0/qchem-5.4-akfmr7b3t57bfs6qan3padb2wnb2i7cl
QCAUX:       /cm/shared/apps/spack/cpu/opt/spack/linux-centos8-zen2/gcc-10.2.0/qchem-5.4-akfmr7b3t57bfs6qan3padb2wnb2i7cl/qcaux
QCPROG:      /cm/shared/apps/spack/cpu/opt/spack/linux-centos8-zen2/gcc-10.2.0/qchem-5.4-akfmr7b3t57bfs6qan3padb2wnb2i7cl/exe/qcprog.exe
QCPROG_S:    /cm/shared/apps/spack/cpu/opt/spack/linux-centos8-zen2/gcc-10.2.0/qchem-5.4-akfmr7b3t57bfs6qan3padb2wnb2i7cl/exe/qcprog.exe_s
PARALLEL:    -DPARALLEL
QCMPI:       mpich
#
# qchem directory setting
#
qcrun:       qchem3818109
QCSCRATCH:   .
QCLOCALSCR:  
QCTMPDIR:    .
QCFILEPREF:  ./qchem3818109
QCSAVEDIR:   
workdirs:    ./qchem3818109
workdir0:    ./qchem3818109
partmpdirs =  
#
# parallel setting
#
QCRSH:           ssh
QCMPI:           mpich
QCMPIRUN:        /cm/shared/apps/spack/cpu/opt/spack/linux-centos8-zen2/gcc-10.2.0/qchem-5.4-akfmr7b3t57bfs6qan3padb2wnb2i7cl/bin/mpi/mpirun_qchem
QCMACHINEFILE:   ./qchem3818109/hostfile
exp-4-23

#
# env setting
#
exported envs:   QC QCAUX QCSCRATCH QCRUNNAME QCFILEPREF QCPROG QCPROG_S GUIFILE

Running Job 1 of 1 Dimethyl_Naphthalene_Dicarboximide_Phi_60_Theta_80_Thiophene_Hydrogenated_Improper.qcin
qchem Dimethyl_Naphthalene_Dicarboximide_Phi_60_Theta_80_Thiophene_Hydrogenated_Improper.qcin_3818109.0 ./qchem3818109/ 1
/cm/shared/apps/spack/cpu/opt/spack/linux-centos8-zen2/gcc-10.2.0/qchem-5.4-akfmr7b3t57bfs6qan3padb2wnb2i7cl/bin/mpi/mpirun_qchem -machinefile ./qchem3818109/hostfile -np 1 /cm/shared/apps/spack/cpu/opt/spack/linux-centos8-zen2/gcc-10.2.0/qchem-5.4-akfmr7b3t57bfs6qan3padb2wnb2i7cl/exe/qcprog.exe Dimethyl_Naphthalene_Dicarboximide_Phi_60_Theta_80_Thiophene_Hydrogenated_Improper.qcin_3818109.0 ./qchem3818109/

Process 0 of 1 is on exp-4-23 - thread support 0
initial socket setup ...start
initial socket setup ...done 
now start server 0 ... 
                  Welcome to Q-Chem
     A Quantum Leap Into The Future Of Chemistry


 Q-Chem 5.4, Q-Chem, Inc., Pleasanton, CA (2021)

 License issued to: University of California, San Diego (site)

 E. Epifanovsky,  A. T. B. Gilbert,  Xintian Feng,  Joonho Lee,  Yuezhi Mao,  
 N. Mardirossian,  P. Pokhilko,  A. White,  M. Wormit,  M. P. Coons,  
 A. L. Dempwolff,  Zhengting Gan,  D. Hait,  P. R. Horn,  L. D. Jacobson,  
 I. Kaliman,  J. Kussmann,  A. W. Lange,  Ka Un Lao,  D. S. Levine,  Jie Liu,  
 S. C. McKenzie,  A. F. Morrison,  K. Nanda,  F. Plasser,  D. R. Rehn,  
 M. L. Vidal,  Zhi-Qiang You,  Ying Zhu,  B. Alam,  B. Albrecht,  
 A. Aldossary,  E. Alguire,  J. H. Andersen,  D. Barton,  K. Begam,  A. Behn,  
 Y. A. Bernard,  E. J. Berquist,  H. Burton,  A. Carreras,  K. Carter-Fenk,  
 R. Chakraborty,  A. D. Chien,  K. D. Closser,  V. Cofer-Shabica,  
 S. Dasgupta,  Jia Deng,  M. de Wergifosse,  M. Diedenhofen,  Hainam Do,  
 S. Ehlert,  Po-Tung Fang,  S. Fatehi,  Qingguo Feng,  J. Gayvert,  
 Qinghui Ge,  G. Gidofalvi,  M. Goldey,  J. Gomes,  C. Gonzalez-Espinoza,  
 S. Gulania,  A. Gunina,  M. W. D. Hanson-Heine,  P. H. P. Harbach,  
 A. W. Hauser,  M. F. Herbst,  M. Hernandez Vera,  M. Hodecker,  
 Z. C. Holden,  S. Houck,  Xunkun Huang,  Kerwin Hui,  B. C. Huynh,  
 M. Ivanov,  Hyunjun Ji,  Hanjie Jiang,  B. Kaduk,  S. Kaehler,  
 K. Khistyaev,  Jaehoon Kim,  P. Klunzinger,  Z. Koczor-Benda,  
 Joong Hoon Koh,  D. Kosenkov,  L. Koulias,  T. Kowalczyk,  C. M. Krauter,  
 K. Kue,  A. Kunitsa,  T. Kus,  A. Landau,  K. V. Lawler,  D. Lefrancois,  
 S. Lehtola,  Rain Li,  Yi-Pei Li,  Jiashu Liang,  M. Liebenthal,  
 Hung-Hsuan Lin,  You-Sheng Lin,  Fenglai Liu,  Kuan-Yu Liu,  
 M. Loipersberger,  A. Luenser,  A. Manjanath,  P. Manohar,  E. Mansoor,  
 S. F. Manzer,  Shan-Ping Mao,  A. V. Marenich,  T. Markovich,  S. Mason,  
 S. A. Maurer,  P. F. McLaughlin,  M. F. S. J. Menger,  J.-M. Mewes,  
 S. A. Mewes,  P. Morgante,  J. W. Mullinax,  T. S. Nguyen-Beck,  
 K. J. Oosterbaan,  G. Paran,  Alexander C. Paul,  Suranjan K. Paul,  
 F. Pavosevic,  Zheng Pei,  S. Prager,  E. I. Proynov,  E. Ramos,  B. Rana,  
 A. E. Rask,  A. Rettig,  R. M. Richard,  F. Rob,  E. Rossomme,  T. Scheele,  
 M. Scheurer,  M. Schneider,  N. Sergueev,  S. M. Sharada,  W. Skomorowski,  
 D. W. Small,  C. J. Stein,  Yu-Chuan Su,  E. J. Sundstrom,  Zhen Tao,  
 J. Thirman,  T. Tsuchimochi,  N. M. Tubman,  S. P. Veccham,  O. Vydrov,  
 J. Wenzel,  J. Witte,  A. Yamada,  Kun Yao,  S. Yeganeh,  S. R. Yost,  
 A. Zech,  Igor Ying Zhang,  Xing Zhang,  Yu Zhang,  D. Zuev,  
 A. Aspuru-Guzik,  A. T. Bell,  N. A. Besley,  K. B. Bravaya,  B. R. Brooks,  
 D. Casanova,  Jeng-Da Chai,  S. Coriani,  C. J. Cramer,  
 A. E. DePrince, III,  R. A. DiStasio Jr.,  A. Dreuw,  B. D. Dunietz,  
 T. R. Furlani,  W. A. Goddard III,  S. Grimme,  S. Hammes-Schiffer,  
 T. Head-Gordon,  W. J. Hehre,  Chao-Ping Hsu,  T.-C. Jagau,  Yousung Jung,  
 A. Klamt,  Jing Kong,  D. S. Lambrecht,  WanZhen Liang,  N. J. Mayhall,  
 C. W. McCurdy,  J. B. Neaton,  C. Ochsenfeld,  J. A. Parkhill,  R. Peverati,  
 V. A. Rassolov,  Yihan Shao,  L. V. Slipchenko,  T. Stauch,  R. P. Steele,  
 J. E. Subotnik,  A. J. W. Thom,  A. Tkatchenko,  D. G. Truhlar,  
 T. Van Voorhis,  T. A. Wesolowski,  K. B. Whaley,  H. L. Woodcock III,  
 P. M. Zimmerman,  S. Faraji,  P. M. W. Gill,  M. Head-Gordon,  
 J. M. Herbert,  A. I. Krylov

 Contributors to earlier versions of Q-Chem not listed above: 
 R. D. Adamson,  B. Austin,  R. Baer,  J. Baker,  G. J. O. Beran,  
 K. Brandhorst,  S. T. Brown,  E. F. C. Byrd,  A. K. Chakraborty,  
 G. K. L. Chan,  Chun-Min Chang,  Yunqing Chen,  C.-L. Cheng,  
 Siu Hung Chien,  D. M. Chipman,  D. L. Crittenden,  H. Dachsel,  
 R. J. Doerksen,  A. D. Dutoi,  R. G. Edgar,  J. Fosso-Tande,  
 L. Fusti-Molnar,  D. Ghosh,  A. Ghysels,  A. Golubeva-Zadorozhnaya,  
 J. Gonthier,  M. S. Gordon,  S. R. Gwaltney,  G. Hawkins,  J. E. Herr,  
 A. Heyden,  S. Hirata,  E. G. Hohenstein,  G. Kedziora,  F. J. Keil,  
 C. Kelley,  Jihan Kim,  R. A. King,  R. Z. Khaliullin,  P. P. Korambath,  
 W. Kurlancheek,  A. Laurent,  A. M. Lee,  M. S. Lee,  S. V. Levchenko,  
 Ching Yeh Lin,  D. Liotard,  E. Livshits,  R. C. Lochan,  I. Lotan,  
 L. A. Martinez-Martinez,  P. E. Maslen,  N. Nair,  D. P. O'Neill,  
 D. Neuhauser,  E. Neuscamman,  C. M. Oana,  R. Olivares-Amaya,  R. Olson,  
 T. M. Perrine,  B. Peters,  P. A. Pieniazek,  A. Prociuk,  Y. M. Rhee,  
 J. Ritchie,  M. A. Rohrdanz,  E. Rosta,  N. J. Russ,  H. F. Schaefer III,  
 M. W. Schmidt,  N. E. Schultz,  S. Sharma,  N. Shenvi,  C. D. Sherrill,  
 A. C. Simmonett,  A. Sodt,  T. Stein,  D. Stuck,  K. S. Thanthiriwatte,  
 V. Vanovschi,  L. Vogt,  Tao Wang,  A. Warshel,  M. A. Watson,  
 C. F. Williams,  Q. Wu,  X. Xu,  Jun Yang,  W. Zhang,  Yan Zhao

 Please cite Q-Chem as follows:
 Y. Shao et al., Mol. Phys. 113, 184-215 (2015)
 DOI: 10.1080/00268976.2014.952696

 Q-Chem 5.4.0 for Intel X86 EM64T Linux

 Parts of Q-Chem use Armadillo 9.800.1 (Horizon Scraper).
 http://arma.sourceforge.net/

 Q-Chem begins on Sun Sep 24 15:08:53 2023  

 Host: 
0

     Scratch files written to ./qchem3818109//
 May1621 |scratch|qcdevops|jenkins|workspace|build_RNUM    
 Parallel job on  1  processors
 Processing $rem in /cm/shared/apps/spack/cpu/opt/spack/linux-centos8-zen2/gcc-10.2.0/qchem-5.4-akfmr7b3t57bfs6qan3padb2wnb2i7cl/config/preferences:
 Processing $rem in /home/rramji/.qchemrc:
 Symmetry turned off for PCM/SM12/SMD calculation
 Core orbitals will be frozen

 Checking the input file for inconsistencies... 	...done.

 Q-Chem warning in module forms1/BasisType.C, line 2236:

 You are not using the predefined 5D/6D in this basis set.


--------------------------------------------------------------
User input:
--------------------------------------------------------------
$molecule
0 1
C	-0.449048	-0.140188	-0.220089
S	0.237752	0.256612	1.360411
C	1.656052	1.075412	0.684811
C	0.415152	0.358912	-1.205489
C	1.558452	1.019112	-0.713589
H	0.211052	0.241112	-2.279989
H	2.321352	1.459712	-1.372689
C	-0.449048	-1.618388	-0.220089
H	-0.262048	-1.618988	0.843611
H	-1.420648	-2.057688	-0.048789
H	0.351552	-2.329388	-0.361389
H	2.418652	1.515912	1.335911
$end

$rem
JOBTYPE		SP
EXCHANGE	HF
CORRELATION	pRIMP2
BASIS		cc-pvtz
METHOD		rimp2
AUX_BASIS	rimp2-cc-pvtz
SOLVENT_METHOD	PCM
PURECART	11111
SYMMETRY	false
MEM_TOTAL	110000
SCF_CONVERGENCE = 6
THRESH=10
GUI = 2
$end



$solvent
dielectric 4.90
$end
--------------------------------------------------------------
 ----------------------------------------------------------------
             Standard Nuclear Orientation (Angstroms)
    I     Atom           X                Y                Z
 ----------------------------------------------------------------
    1      C      -0.4490480000    -0.1401880000    -0.2200890000
    2      S       0.2377520000     0.2566120000     1.3604110000
    3      C       1.6560520000     1.0754120000     0.6848110000
    4      C       0.4151520000     0.3589120000    -1.2054890000
    5      C       1.5584520000     1.0191120000    -0.7135890000
    6      H       0.2110520000     0.2411120000    -2.2799890000
    7      H       2.3213520000     1.4597120000    -1.3726890000
    8      C      -0.4490480000    -1.6183880000    -0.2200890000
    9      H      -0.2620480000    -1.6189880000     0.8436110000
   10      H      -1.4206480000    -2.0576880000    -0.0487890000
   11      H       0.3515520000    -2.3293880000    -0.3613890000
   12      H       2.4186520000     1.5159120000     1.3359110000
 ----------------------------------------------------------------
 Nuclear Repulsion Energy =         276.79636136 hartrees
 There are       26 alpha and       26 beta electrons
 Requested basis set is cc-pVTZ
 There are 98 shells and 268 basis functions

 Total QAlloc Memory Limit 110000 MB
 Mega-Array Size       188 MB
 MEM_STATIC part       192 MB
 Discretize the solute cavity surface with Lebedev spheres
	Using 110 Lebedev grid points for each H atom
	Using 194 Lebedev grid points for other atoms
	Atomic van der Waals radii will be scaled by 1.20
 Remove points where switching function is < 1.0e-08
 Keep 857 surface tesserae and discard 967 interior tesserae
 Molecular Surface Area = 134.786 Angst**2

                       Distance Matrix (Angstroms)
             C (  1)   S (  2)   C (  3)   C (  4)   C (  5)   H (  6)
   S (  2)  1.768368
   C (  3)  2.593834  1.771565
   C (  4)  1.402482  2.574059  2.372012
   C (  5)  2.370142  2.574321  1.402932  1.408888
   H (  6)  2.196431  3.640531  3.402076  1.100038  2.207800
   H (  7)  3.400483  3.641246  2.196273  2.207559  1.100253  2.600297
   C (  8)  1.478200  2.546625  3.536502  2.372250  3.351120  2.852483
   H (  9)  1.831195  2.008671  3.311211  2.927371  3.563518  3.666152
   H ( 10)  2.156422  3.176810  4.452030  3.247780  4.334016  3.595161
   H ( 11)  2.335278  3.108849  3.793273  2.818423  3.576745  3.210644
   H ( 12)  3.658894  2.518484  1.095231  3.436768  2.277544  4.424177
             H (  7)   C (  8)   H (  9)   H ( 10)   H ( 11)
   C (  8)  4.298640
   H (  9)  4.589590  1.080013
   H ( 10)  5.303525  1.079970  1.526823
   H ( 11)  4.388635  1.080022  1.527481  1.819954
   H ( 12)  2.710930  4.524232  4.154047  5.424780  4.684022
 
 Requested basis set is rimp2-cc-pVTZ
 There are 207 shells and 707 basis functions
 A cutoff of  1.0D-10 yielded   4498 shell pairs
 There are     33906 function pairs (     43862 Cartesian)
 Smallest overlap matrix eigenvalue = 1.77E-04

 Scale SEOQF with 1.000000e-01/1.000000e-01/1.000000e-01

 Standard Electronic Orientation quadrupole field applied
 Nucleus-field energy     =    -0.0000000007 hartrees
 Guess from superposition of atomic densities
 Warning:  Energy on first SCF cycle will be non-variational
 SAD guess density has 52.000000 electrons

 -----------------------------------------------------------------------
  General SCF calculation program by
  Eric Jon Sundstrom, Paul Horn, Yuezhi Mao, Dmitri Zuev, Alec White,
  David Stuck, Shaama M.S., Shane Yost, Joonho Lee, David Small,
  Daniel Levine, Susi Lehtola, Hugh Burton, Evgeny Epifanovsky,
  Bang C. Huynh
 -----------------------------------------------------------------------
 Hartree-Fock
 using 64 threads for integral computing
 -------------------------------------------------------
 OpenMP Integral computing Module                
 Release: version 1.0, May 2013, Q-Chem Inc. Pittsburgh 
 -------------------------------------------------------
 A restricted SCF calculation will be
 performed using DIIS
 SCF converges when DIIS error is below 1.0e-06
 ---------------------------------------
  Cycle       Energy         DIIS error
 ---------------------------------------
    1    -592.7279801978      3.29e-02  
    2    -590.2139132270      2.20e-03  
    3    -590.2763842149      8.30e-04  
    4    -590.2840851958      4.11e-04  
    5    -590.2863105519      8.39e-05  
    6    -590.2865087951      4.60e-05  
    7    -590.2865829447      1.95e-05  
    8    -590.2866095165      1.03e-05  
    9    -590.2866144736      3.36e-06  
   10    -590.2866150419      1.27e-06  
   11    -590.2866151121      4.48e-07  Convergence criterion met
 ---------------------------------------
 SCF time:   CPU 545.32s  wall 10.00s 

************** Final PCM Free Energy Summary **************
 G_electrostatic  =      -0.00601264 hartree =      -3.77299054 kcal/mol
 G_cavitation     =       0.00000000 hartree =       0.00000000 kcal/mol
 G_dispersion     =       0.00000000 hartree =       0.00000000 kcal/mol
 G_repulsion      =       0.00000000 hartree =       0.00000000 kcal/mol
 --------------------------------------------------
 Non-electrostatic Free Energy =       0.00000000 hartree =       0.00000000 kcal/mol
 Total                         =      -0.00601264 hartree =      -3.77299054 kcal/mol
 --------------------------------------------------
 SCF Energy (H0 + V/2)                       =    -590.28661511 
 Solute Internal Energy (H0)                 =    -590.28060247 
 Total Free Energy (H0 + V/2 + non-elec)     =    -590.28661511 hartree
                                             = -370410.44158735 kcal/mol
***********************************************************

 SCF   energy in the final basis set =     -590.2866151121
 Total energy in the final basis set =     -590.2866151121


 --------------------------------------------------------------
  Generalized many-body perturbation theory program
  by Joonho Lee, Fazle Rob, Xintian Feng, Evgeny Epifanovsky

 No regularization used 
 (reg. param. = 0.0000e+00)
  (P|Q)^-1/2 Time:  CPU 6.23 s  wall 0.10 s

 In RI-MP2 calculation: 
 # of frozen core orbitals: 10

 Components of the RIMP2 correlation energy:
        aaaa    correlation energy =        -0.1276923536 a.u.
        abab    correlation energy =        -0.7593510389 a.u.
        bbbb    correlation energy =        -0.1276923536 a.u.
        non-Brillouin singles      =        -0.0000000000 a.u.
        total same-spin energy     =        -0.2553847071 a.u.
        total opposite-spin energy =        -0.7593510389 a.u.

 Total  RIMP2   correlation energy =        -1.0147357460 a.u.
        RIMP2         total energy =      -591.3013508581 a.u.

 RI-MP2 Energy Time:  CPU 27.81 s  wall 0.47 s
 
 --------------------------------------------------------------
 
                    Orbital Energies (a.u.)
 --------------------------------------------------------------
 
 Alpha MOs
 -- Occupied --
-91.9736 -11.2955 -11.2611 -11.2471 -11.2432 -11.2083  -8.9753  -6.6560
 -6.6549  -6.6548  -1.1719  -1.0388  -0.9821  -0.9034  -0.7700  -0.7275
 -0.6726  -0.5885  -0.5775  -0.5636  -0.5417  -0.4728  -0.4631  -0.4376
 -0.3338  -0.3115
 -- Virtual --
  0.0594   0.1562   0.1589   0.1769   0.1906   0.1968   0.2064   0.2203
  0.2307   0.2585   0.2843   0.3176   0.3491   0.3655   0.3952   0.3980
  0.4386   0.4454   0.4514   0.4614   0.4872   0.5038   0.5145   0.5215
  0.5346   0.5384   0.5607   0.5811   0.5982   0.6106   0.6117   0.6239
  0.6252   0.6443   0.6456   0.6769   0.6920   0.7079   0.7368   0.7676
  0.7769   0.7808   0.8196   0.8414   0.8650   0.8749   0.9007   0.9304
  0.9791   1.0008   1.0340   1.0551   1.0871   1.1028   1.1210   1.1368
  1.1548   1.1631   1.1776   1.2003   1.2191   1.2276   1.2588   1.2830
  1.2845   1.3372   1.3515   1.3768   1.3845   1.4047   1.4236   1.4437
  1.4520   1.4768   1.4838   1.4956   1.5302   1.5416   1.5658   1.5977
  1.6098   1.6411   1.6468   1.6761   1.6885   1.7124   1.7643   1.8240
  1.8464   1.8543   1.9046   1.9198   1.9485   1.9765   2.0267   2.1102
  2.1426   2.1652   2.1806   2.2103   2.2446   2.2681   2.3428   2.3899
  2.4268   2.4722   2.4871   2.5107   2.5771   2.6186   2.6394   2.6577
  2.6728   2.7116   2.7159   2.7660   2.7837   2.7871   2.8192   2.8710
  2.8829   2.9239   2.9327   2.9751   2.9976   3.0114   3.0504   3.0575
  3.0812   3.1162   3.1423   3.1491   3.1515   3.1903   3.2124   3.2288
  3.2527   3.2651   3.2869   3.3095   3.3166   3.3285   3.3487   3.3672
  3.3768   3.4216   3.4345   3.4568   3.4711   3.4885   3.5009   3.5091
  3.5309   3.5478   3.5750   3.5855   3.6044   3.6545   3.6591   3.6774
  3.6977   3.7177   3.7278   3.7786   3.7867   3.8123   3.8548   3.8841
  3.8902   3.9059   3.9469   3.9520   3.9691   3.9790   4.0025   4.0159
  4.0254   4.0797   4.1089   4.1222   4.1509   4.1565   4.1835   4.2018
  4.2237   4.2658   4.2688   4.3037   4.3156   4.3807   4.3958   4.4430
  4.4516   4.4753   4.4903   4.5273   4.5693   4.5802   4.6142   4.6485
  4.6572   4.7153   4.7217   4.7482   4.8124   4.8195   4.8604   4.8635
  4.8938   5.0033   5.0352   5.0414   5.0835   5.1155   5.1815   5.1938
  5.2430   5.2839   5.3580   5.4231   5.4775   5.4812   5.5404   5.5773
  5.6440   5.6729   5.7709   5.8064   5.8713   5.9504   5.9745   6.0224
  6.0607   6.3308   6.3914   6.4635   6.5729   9.6908  11.7367  12.6247
 13.8138  14.0868
 --------------------------------------------------------------
 
          Ground-State Mulliken Net Atomic Charges

     Atom                 Charge (a.u.)
  ----------------------------------------
      1 C                    -0.130053
      2 S                     0.004980
      3 C                    -0.149438
      4 C                    -0.072463
      5 C                    -0.247407
      6 H                     0.189002
      7 H                     0.186240
      8 C                    -0.363800
      9 H                     0.125494
     10 H                     0.105070
     11 H                     0.142986
     12 H                     0.209390
  ----------------------------------------
  Sum of atomic charges =     0.000000

 -----------------------------------------------------------------
                    Cartesian Multipole Moments
 -----------------------------------------------------------------
    Charge (ESU x 10^10)
                 0.0000
    Dipole Moment (Debye)
         X       2.6074      Y       0.1185      Z      -0.5211
       Tot       2.6616
    Quadrupole Moments (Debye-Ang)
        XX     -41.2295     XY       3.8229     YY     -44.1181
        XZ       0.4046     YZ      -0.7885     ZZ     -41.2810
    Octopole Moments (Debye-Ang^2)
       XXX     -47.0994    XXY       3.9822    XYY     -13.2461
       YYY     -18.0758    XXZ      -2.0268    XYZ       3.8718
       YYZ      -3.9754    XZZ     -12.9248    YZZ      -0.3092
       ZZZ     -30.8452
    Hexadecapole Moments (Debye-Ang^3)
      XXXX    -272.2893   XXXY     -64.0164   XXYY     -84.7124
      XYYY     -93.3628   YYYY    -298.0606   XXXZ       1.1899
      XXYZ       0.5714   XYYZ      -0.8273   YYYZ     -13.9109
      XXZZ     -88.2964   XYZZ     -18.9344   YYZZ    -101.7430
      XZZZ      -3.0339   YZZZ     -13.5992   ZZZZ    -297.6483
 -----------------------------------------------------------------
 Total job time:  12.04s(wall), 605.89s(cpu) 
 Sun Sep 24 15:09:05 2023

        *************************************************************
        *                                                           *
        *  Thank you very much for using Q-Chem.  Have a nice day.  *
        *                                                           *
        *************************************************************


0 sent ACK to 0 
now end server 0 ... 
cleanup process ... done
remove work dirs ./qchem3818109.0 -- ./qchem3818109.0
rm -rf ./qchem3818109.0
rm -rf ./qchem3818109
