You are running Q-Chem version: 5.4.0

#
# job setting
#
local host:  exp-3-02
current dir: /expanse/lustre/projects/csd626/rramji/aromodel/PNDIT/Hydrogenated_Impropers_Test
input file:  Dimethyl_Naphthalene_Dicarboximide_Phi_5_Theta_150_Thiophene_Hydrogenated_Improper.qcin
output file: 
nprocs     : 1
nthreads   : 64
#
# qchem installation setting
#
QC:          /cm/shared/apps/spack/cpu/opt/spack/linux-centos8-zen2/gcc-10.2.0/qchem-5.4-akfmr7b3t57bfs6qan3padb2wnb2i7cl
QCAUX:       /cm/shared/apps/spack/cpu/opt/spack/linux-centos8-zen2/gcc-10.2.0/qchem-5.4-akfmr7b3t57bfs6qan3padb2wnb2i7cl/qcaux
QCPROG:      /cm/shared/apps/spack/cpu/opt/spack/linux-centos8-zen2/gcc-10.2.0/qchem-5.4-akfmr7b3t57bfs6qan3padb2wnb2i7cl/exe/qcprog.exe
QCPROG_S:    /cm/shared/apps/spack/cpu/opt/spack/linux-centos8-zen2/gcc-10.2.0/qchem-5.4-akfmr7b3t57bfs6qan3padb2wnb2i7cl/exe/qcprog.exe_s
PARALLEL:    -DPARALLEL
QCMPI:       mpich
#
# qchem directory setting
#
qcrun:       qchem1049803
QCSCRATCH:   .
QCLOCALSCR:  
QCTMPDIR:    .
QCFILEPREF:  ./qchem1049803
QCSAVEDIR:   
workdirs:    ./qchem1049803
workdir0:    ./qchem1049803
partmpdirs =  
#
# parallel setting
#
QCRSH:           ssh
QCMPI:           mpich
QCMPIRUN:        /cm/shared/apps/spack/cpu/opt/spack/linux-centos8-zen2/gcc-10.2.0/qchem-5.4-akfmr7b3t57bfs6qan3padb2wnb2i7cl/bin/mpi/mpirun_qchem
QCMACHINEFILE:   ./qchem1049803/hostfile
exp-3-02

#
# env setting
#
exported envs:   QC QCAUX QCSCRATCH QCRUNNAME QCFILEPREF QCPROG QCPROG_S GUIFILE

Running Job 1 of 1 Dimethyl_Naphthalene_Dicarboximide_Phi_5_Theta_150_Thiophene_Hydrogenated_Improper.qcin
qchem Dimethyl_Naphthalene_Dicarboximide_Phi_5_Theta_150_Thiophene_Hydrogenated_Improper.qcin_1049803.0 ./qchem1049803/ 1
/cm/shared/apps/spack/cpu/opt/spack/linux-centos8-zen2/gcc-10.2.0/qchem-5.4-akfmr7b3t57bfs6qan3padb2wnb2i7cl/bin/mpi/mpirun_qchem -machinefile ./qchem1049803/hostfile -np 1 /cm/shared/apps/spack/cpu/opt/spack/linux-centos8-zen2/gcc-10.2.0/qchem-5.4-akfmr7b3t57bfs6qan3padb2wnb2i7cl/exe/qcprog.exe Dimethyl_Naphthalene_Dicarboximide_Phi_5_Theta_150_Thiophene_Hydrogenated_Improper.qcin_1049803.0 ./qchem1049803/

Process 0 of 1 is on exp-3-02 - thread support 0
initial socket setup ...start
initial socket setup ...done 
now start server 0 ... 
                  Welcome to Q-Chem
     A Quantum Leap Into The Future Of Chemistry


 Q-Chem 5.4, Q-Chem, Inc., Pleasanton, CA (2021)

 License issued to: University of California, San Diego (site)

 E. Epifanovsky,  A. T. B. Gilbert,  Xintian Feng,  Joonho Lee,  Yuezhi Mao,  
 N. Mardirossian,  P. Pokhilko,  A. White,  M. Wormit,  M. P. Coons,  
 A. L. Dempwolff,  Zhengting Gan,  D. Hait,  P. R. Horn,  L. D. Jacobson,  
 I. Kaliman,  J. Kussmann,  A. W. Lange,  Ka Un Lao,  D. S. Levine,  Jie Liu,  
 S. C. McKenzie,  A. F. Morrison,  K. Nanda,  F. Plasser,  D. R. Rehn,  
 M. L. Vidal,  Zhi-Qiang You,  Ying Zhu,  B. Alam,  B. Albrecht,  
 A. Aldossary,  E. Alguire,  J. H. Andersen,  D. Barton,  K. Begam,  A. Behn,  
 Y. A. Bernard,  E. J. Berquist,  H. Burton,  A. Carreras,  K. Carter-Fenk,  
 R. Chakraborty,  A. D. Chien,  K. D. Closser,  V. Cofer-Shabica,  
 S. Dasgupta,  Jia Deng,  M. de Wergifosse,  M. Diedenhofen,  Hainam Do,  
 S. Ehlert,  Po-Tung Fang,  S. Fatehi,  Qingguo Feng,  J. Gayvert,  
 Qinghui Ge,  G. Gidofalvi,  M. Goldey,  J. Gomes,  C. Gonzalez-Espinoza,  
 S. Gulania,  A. Gunina,  M. W. D. Hanson-Heine,  P. H. P. Harbach,  
 A. W. Hauser,  M. F. Herbst,  M. Hernandez Vera,  M. Hodecker,  
 Z. C. Holden,  S. Houck,  Xunkun Huang,  Kerwin Hui,  B. C. Huynh,  
 M. Ivanov,  Hyunjun Ji,  Hanjie Jiang,  B. Kaduk,  S. Kaehler,  
 K. Khistyaev,  Jaehoon Kim,  P. Klunzinger,  Z. Koczor-Benda,  
 Joong Hoon Koh,  D. Kosenkov,  L. Koulias,  T. Kowalczyk,  C. M. Krauter,  
 K. Kue,  A. Kunitsa,  T. Kus,  A. Landau,  K. V. Lawler,  D. Lefrancois,  
 S. Lehtola,  Rain Li,  Yi-Pei Li,  Jiashu Liang,  M. Liebenthal,  
 Hung-Hsuan Lin,  You-Sheng Lin,  Fenglai Liu,  Kuan-Yu Liu,  
 M. Loipersberger,  A. Luenser,  A. Manjanath,  P. Manohar,  E. Mansoor,  
 S. F. Manzer,  Shan-Ping Mao,  A. V. Marenich,  T. Markovich,  S. Mason,  
 S. A. Maurer,  P. F. McLaughlin,  M. F. S. J. Menger,  J.-M. Mewes,  
 S. A. Mewes,  P. Morgante,  J. W. Mullinax,  T. S. Nguyen-Beck,  
 K. J. Oosterbaan,  G. Paran,  Alexander C. Paul,  Suranjan K. Paul,  
 F. Pavosevic,  Zheng Pei,  S. Prager,  E. I. Proynov,  E. Ramos,  B. Rana,  
 A. E. Rask,  A. Rettig,  R. M. Richard,  F. Rob,  E. Rossomme,  T. Scheele,  
 M. Scheurer,  M. Schneider,  N. Sergueev,  S. M. Sharada,  W. Skomorowski,  
 D. W. Small,  C. J. Stein,  Yu-Chuan Su,  E. J. Sundstrom,  Zhen Tao,  
 J. Thirman,  T. Tsuchimochi,  N. M. Tubman,  S. P. Veccham,  O. Vydrov,  
 J. Wenzel,  J. Witte,  A. Yamada,  Kun Yao,  S. Yeganeh,  S. R. Yost,  
 A. Zech,  Igor Ying Zhang,  Xing Zhang,  Yu Zhang,  D. Zuev,  
 A. Aspuru-Guzik,  A. T. Bell,  N. A. Besley,  K. B. Bravaya,  B. R. Brooks,  
 D. Casanova,  Jeng-Da Chai,  S. Coriani,  C. J. Cramer,  
 A. E. DePrince, III,  R. A. DiStasio Jr.,  A. Dreuw,  B. D. Dunietz,  
 T. R. Furlani,  W. A. Goddard III,  S. Grimme,  S. Hammes-Schiffer,  
 T. Head-Gordon,  W. J. Hehre,  Chao-Ping Hsu,  T.-C. Jagau,  Yousung Jung,  
 A. Klamt,  Jing Kong,  D. S. Lambrecht,  WanZhen Liang,  N. J. Mayhall,  
 C. W. McCurdy,  J. B. Neaton,  C. Ochsenfeld,  J. A. Parkhill,  R. Peverati,  
 V. A. Rassolov,  Yihan Shao,  L. V. Slipchenko,  T. Stauch,  R. P. Steele,  
 J. E. Subotnik,  A. J. W. Thom,  A. Tkatchenko,  D. G. Truhlar,  
 T. Van Voorhis,  T. A. Wesolowski,  K. B. Whaley,  H. L. Woodcock III,  
 P. M. Zimmerman,  S. Faraji,  P. M. W. Gill,  M. Head-Gordon,  
 J. M. Herbert,  A. I. Krylov

 Contributors to earlier versions of Q-Chem not listed above: 
 R. D. Adamson,  B. Austin,  R. Baer,  J. Baker,  G. J. O. Beran,  
 K. Brandhorst,  S. T. Brown,  E. F. C. Byrd,  A. K. Chakraborty,  
 G. K. L. Chan,  Chun-Min Chang,  Yunqing Chen,  C.-L. Cheng,  
 Siu Hung Chien,  D. M. Chipman,  D. L. Crittenden,  H. Dachsel,  
 R. J. Doerksen,  A. D. Dutoi,  R. G. Edgar,  J. Fosso-Tande,  
 L. Fusti-Molnar,  D. Ghosh,  A. Ghysels,  A. Golubeva-Zadorozhnaya,  
 J. Gonthier,  M. S. Gordon,  S. R. Gwaltney,  G. Hawkins,  J. E. Herr,  
 A. Heyden,  S. Hirata,  E. G. Hohenstein,  G. Kedziora,  F. J. Keil,  
 C. Kelley,  Jihan Kim,  R. A. King,  R. Z. Khaliullin,  P. P. Korambath,  
 W. Kurlancheek,  A. Laurent,  A. M. Lee,  M. S. Lee,  S. V. Levchenko,  
 Ching Yeh Lin,  D. Liotard,  E. Livshits,  R. C. Lochan,  I. Lotan,  
 L. A. Martinez-Martinez,  P. E. Maslen,  N. Nair,  D. P. O'Neill,  
 D. Neuhauser,  E. Neuscamman,  C. M. Oana,  R. Olivares-Amaya,  R. Olson,  
 T. M. Perrine,  B. Peters,  P. A. Pieniazek,  A. Prociuk,  Y. M. Rhee,  
 J. Ritchie,  M. A. Rohrdanz,  E. Rosta,  N. J. Russ,  H. F. Schaefer III,  
 M. W. Schmidt,  N. E. Schultz,  S. Sharma,  N. Shenvi,  C. D. Sherrill,  
 A. C. Simmonett,  A. Sodt,  T. Stein,  D. Stuck,  K. S. Thanthiriwatte,  
 V. Vanovschi,  L. Vogt,  Tao Wang,  A. Warshel,  M. A. Watson,  
 C. F. Williams,  Q. Wu,  X. Xu,  Jun Yang,  W. Zhang,  Yan Zhao

 Please cite Q-Chem as follows:
 Y. Shao et al., Mol. Phys. 113, 184-215 (2015)
 DOI: 10.1080/00268976.2014.952696

 Q-Chem 5.4.0 for Intel X86 EM64T Linux

 Parts of Q-Chem use Armadillo 9.800.1 (Horizon Scraper).
 http://arma.sourceforge.net/

 Q-Chem begins on Sun Sep 24 15:59:40 2023  

 Host: 
0

     Scratch files written to ./qchem1049803//
 May1621 |scratch|qcdevops|jenkins|workspace|build_RNUM    
 Parallel job on  1  processors
 Processing $rem in /cm/shared/apps/spack/cpu/opt/spack/linux-centos8-zen2/gcc-10.2.0/qchem-5.4-akfmr7b3t57bfs6qan3padb2wnb2i7cl/config/preferences:
 Processing $rem in /home/rramji/.qchemrc:
 Symmetry turned off for PCM/SM12/SMD calculation
 Core orbitals will be frozen

 Checking the input file for inconsistencies... 	...done.

 Q-Chem warning in module forms1/BasisType.C, line 2236:

 You are not using the predefined 5D/6D in this basis set.


--------------------------------------------------------------
User input:
--------------------------------------------------------------
$molecule
0 1
C	-0.039855	-0.397395	-0.216471
S	0.029045	0.392805	1.364029
C	0.171745	2.024305	0.688429
C	0.046945	0.596805	-1.201871
C	0.161945	1.912005	-0.709971
H	0.026445	0.362105	-2.276371
H	0.238645	2.789605	-1.369071
C	-0.039855	-1.875595	-0.216471
H	-0.975455	-1.876195	0.323029
H	-0.533155	-2.314895	-1.070971
H	0.366745	-2.586595	0.487529
H	0.248445	2.901605	1.339529
$end

$rem
JOBTYPE		SP
EXCHANGE	HF
CORRELATION	pRIMP2
BASIS		cc-pvtz
METHOD		rimp2
AUX_BASIS	rimp2-cc-pvtz
SOLVENT_METHOD	PCM
PURECART	11111
SYMMETRY	false
MEM_TOTAL	110000
SCF_CONVERGENCE = 6
THRESH=10
GUI = 2
$end



$solvent
dielectric 4.90
$end
--------------------------------------------------------------
 ----------------------------------------------------------------
             Standard Nuclear Orientation (Angstroms)
    I     Atom           X                Y                Z
 ----------------------------------------------------------------
    1      C      -0.0398550000    -0.3973950000    -0.2164710000
    2      S       0.0290450000     0.3928050000     1.3640290000
    3      C       0.1717450000     2.0243050000     0.6884290000
    4      C       0.0469450000     0.5968050000    -1.2018710000
    5      C       0.1619450000     1.9120050000    -0.7099710000
    6      H       0.0264450000     0.3621050000    -2.2763710000
    7      H       0.2386450000     2.7896050000    -1.3690710000
    8      C      -0.0398550000    -1.8755950000    -0.2164710000
    9      H      -0.9754550000    -1.8761950000     0.3230290000
   10      H      -0.5331550000    -2.3148950000    -1.0709710000
   11      H       0.3667450000    -2.5865950000     0.4875290000
   12      H       0.2484450000     2.9016050000     1.3395290000
 ----------------------------------------------------------------
 Nuclear Repulsion Energy =         270.34795777 hartrees
 There are       26 alpha and       26 beta electrons
 Requested basis set is cc-pVTZ
 There are 98 shells and 268 basis functions

 Total QAlloc Memory Limit 110000 MB
 Mega-Array Size       188 MB
 MEM_STATIC part       192 MB
 Discretize the solute cavity surface with Lebedev spheres
	Using 110 Lebedev grid points for each H atom
	Using 194 Lebedev grid points for other atoms
	Atomic van der Waals radii will be scaled by 1.20
 Remove points where switching function is < 1.0e-08
 Keep 900 surface tesserae and discard 924 interior tesserae
 Molecular Surface Area = 138.281 Angst**2

                       Distance Matrix (Angstroms)
             C (  1)   S (  2)   C (  3)   C (  4)   C (  5)   H (  6)
   S (  2)  1.768373
   C (  3)  2.593887  1.771607
   C (  4)  1.402491  2.574059  2.372038
   C (  5)  2.370146  2.574317  1.402936  1.408880
   H (  6)  2.196457  3.640530  3.402067  1.100025  2.207750
   H (  7)  3.400444  3.641211  2.196239  2.207505  1.100217  2.600188
   C (  8)  1.478200  2.765568  4.009094  2.662951  3.824942  3.042184
   H (  9)  1.831190  2.690922  4.082093  3.079992  4.087937  3.573608
   H ( 10)  2.156460  3.684689  4.735085  2.971809  4.298857  2.988724
   H ( 11)  2.335281  3.123959  4.619392  3.618063  4.659759  4.055833
   H ( 12)  3.658914  2.518494  1.095203  3.436775  2.277551  4.424147
             H (  7)   C (  8)   H (  9)   H ( 10)   H ( 11)
   C (  8)  4.813537
   H (  9)  5.109494  1.080004
   H ( 10)  5.171118  1.080046  1.526867
   H ( 11)  5.689191  1.080028  1.527491  1.820045
   H ( 12)  2.710932  5.032484  5.035730  5.799421  5.555199
 
 Requested basis set is rimp2-cc-pVTZ
 There are 207 shells and 707 basis functions
 A cutoff of  1.0D-10 yielded   4356 shell pairs
 There are     32658 function pairs (     42218 Cartesian)
 Smallest overlap matrix eigenvalue = 1.07E-04

 Scale SEOQF with 1.000000e+00/1.000000e-01/1.000000e-01

 Standard Electronic Orientation quadrupole field applied
 Nucleus-field energy     =     0.0000000023 hartrees
 Guess from superposition of atomic densities
 Warning:  Energy on first SCF cycle will be non-variational
 SAD guess density has 52.000000 electrons

 -----------------------------------------------------------------------
  General SCF calculation program by
  Eric Jon Sundstrom, Paul Horn, Yuezhi Mao, Dmitri Zuev, Alec White,
  David Stuck, Shaama M.S., Shane Yost, Joonho Lee, David Small,
  Daniel Levine, Susi Lehtola, Hugh Burton, Evgeny Epifanovsky,
  Bang C. Huynh
 -----------------------------------------------------------------------
 Hartree-Fock
 using 64 threads for integral computing
 -------------------------------------------------------
 OpenMP Integral computing Module                
 Release: version 1.0, May 2013, Q-Chem Inc. Pittsburgh 
 -------------------------------------------------------
 A restricted SCF calculation will be
 performed using DIIS
 SCF converges when DIIS error is below 1.0e-06
 ---------------------------------------
  Cycle       Energy         DIIS error
 ---------------------------------------
    1    -592.5731872843      3.22e-02  
    2    -590.3020585768      2.19e-03  
    3    -590.3629638929      8.40e-04  
    4    -590.3702522586      4.00e-04  
    5    -590.3722951028      7.10e-05  
    6    -590.3724227966      3.18e-05  
    7    -590.3724537848      1.44e-05  
    8    -590.3724633275      5.65e-06  
    9    -590.3724647562      1.87e-06  
   10    -590.3724648806      6.02e-07  Convergence criterion met
 ---------------------------------------
 SCF time:   CPU 493.11s  wall 9.00s 

************** Final PCM Free Energy Summary **************
 G_electrostatic  =      -0.00588236 hartree =      -3.69123776 kcal/mol
 G_cavitation     =       0.00000000 hartree =       0.00000000 kcal/mol
 G_dispersion     =       0.00000000 hartree =       0.00000000 kcal/mol
 G_repulsion      =       0.00000000 hartree =       0.00000000 kcal/mol
 --------------------------------------------------
 Non-electrostatic Free Energy =       0.00000000 hartree =       0.00000000 kcal/mol
 Total                         =      -0.00588236 hartree =      -3.69123776 kcal/mol
 --------------------------------------------------
 SCF Energy (H0 + V/2)                       =    -590.37246488 
 Solute Internal Energy (H0)                 =    -590.36658252 
 Total Free Energy (H0 + V/2 + non-elec)     =    -590.37246488 hartree
                                             = -370464.31313020 kcal/mol
***********************************************************

 SCF   energy in the final basis set =     -590.3724648806
 Total energy in the final basis set =     -590.3724648806


 --------------------------------------------------------------
  Generalized many-body perturbation theory program
  by Joonho Lee, Fazle Rob, Xintian Feng, Evgeny Epifanovsky

 No regularization used 
 (reg. param. = 0.0000e+00)
  (P|Q)^-1/2 Time:  CPU 6.53 s  wall 0.11 s

 In RI-MP2 calculation: 
 # of frozen core orbitals: 10

 Components of the RIMP2 correlation energy:
        aaaa    correlation energy =        -0.1250494403 a.u.
        abab    correlation energy =        -0.7504184744 a.u.
        bbbb    correlation energy =        -0.1250494403 a.u.
        non-Brillouin singles      =        -0.0000000000 a.u.
        total same-spin energy     =        -0.2500988807 a.u.
        total opposite-spin energy =        -0.7504184744 a.u.

 Total  RIMP2   correlation energy =        -1.0005173551 a.u.
        RIMP2         total energy =      -591.3729822357 a.u.

 RI-MP2 Energy Time:  CPU 29.87 s  wall 0.51 s
 
 --------------------------------------------------------------
 
                    Orbital Energies (a.u.)
 --------------------------------------------------------------
 
 Alpha MOs
 -- Occupied --
-91.9775 -11.2892 -11.2653 -11.2428 -11.2341 -11.2266  -8.9776  -6.6585
 -6.6580  -6.6574  -1.1572  -1.0403  -0.9717  -0.9198  -0.7560  -0.7210
 -0.6709  -0.5985  -0.5669  -0.5591  -0.5426  -0.4924  -0.4739  -0.4542
 -0.3465  -0.3017
 -- Virtual --
  0.1078   0.1457   0.1599   0.1822   0.1883   0.2024   0.2158   0.2242
  0.2334   0.2385   0.3081   0.3374   0.3491   0.3700   0.3844   0.4085
  0.4277   0.4450   0.4613   0.4921   0.4961   0.5165   0.5230   0.5311
  0.5468   0.5549   0.5717   0.5901   0.5962   0.6109   0.6149   0.6210
  0.6276   0.6403   0.6497   0.6637   0.7052   0.7102   0.7410   0.7651
  0.7822   0.8048   0.8345   0.8642   0.8761   0.8780   0.8924   0.9412
  0.9659   0.9765   1.0076   1.0256   1.0620   1.0671   1.0944   1.1125
  1.1328   1.1716   1.1783   1.1895   1.2196   1.2285   1.2429   1.2613
  1.2873   1.3121   1.3371   1.3558   1.3850   1.4092   1.4282   1.4554
  1.4757   1.5025   1.5205   1.5250   1.5430   1.5536   1.5616   1.5880
  1.6041   1.6251   1.6459   1.6964   1.7066   1.7445   1.7697   1.7953
  1.8317   1.8850   1.9096   1.9262   1.9497   2.0004   2.0581   2.0790
  2.1556   2.1740   2.2167   2.2269   2.2552   2.2906   2.3432   2.4195
  2.4321   2.4530   2.4891   2.5296   2.5504   2.5961   2.6429   2.6570
  2.6992   2.7119   2.7159   2.7504   2.7551   2.7675   2.7994   2.8261
  2.8786   2.9042   2.9317   2.9682   2.9948   3.0137   3.0223   3.0370
  3.0528   3.0689   3.1134   3.1510   3.1799   3.2055   3.2304   3.2377
  3.2787   3.2825   3.2929   3.3028   3.3249   3.3448   3.3595   3.3882
  3.4128   3.4192   3.4264   3.4533   3.4568   3.4710   3.4883   3.4993
  3.5060   3.5186   3.5517   3.5790   3.5960   3.6016   3.6156   3.6560
  3.6746   3.7131   3.7199   3.7433   3.7758   3.7895   3.7916   3.8466
  3.8673   3.8965   3.8982   3.9148   3.9418   3.9451   3.9675   3.9922
  4.0095   4.0314   4.0804   4.0994   4.1283   4.1518   4.1696   4.1885
  4.2136   4.2584   4.2704   4.2953   4.3241   4.3515   4.3733   4.3872
  4.4354   4.4432   4.4725   4.5203   4.5350   4.5581   4.5642   4.6402
  4.6706   4.7025   4.7092   4.7386   4.7934   4.8169   4.8376   4.9004
  4.9860   5.0138   5.0189   5.0556   5.0753   5.1401   5.1905   5.1950
  5.2167   5.3036   5.3704   5.4053   5.4176   5.4979   5.5280   5.5878
  5.6167   5.7142   5.7859   5.8501   5.8793   6.0070   6.0425   6.0590
  6.1147   6.3230   6.4472   6.4688   6.6874   9.4153  11.2642  12.8813
 13.9750  14.2487
 --------------------------------------------------------------
 
          Ground-State Mulliken Net Atomic Charges

     Atom                 Charge (a.u.)
  ----------------------------------------
      1 C                     0.011559
      2 S                    -0.011335
      3 C                    -0.236601
      4 C                    -0.221188
      5 C                    -0.193482
      6 H                     0.184858
      7 H                     0.185056
      8 C                    -0.353049
      9 H                     0.131551
     10 H                     0.132494
     11 H                     0.165470
     12 H                     0.204666
  ----------------------------------------
  Sum of atomic charges =     0.000000

 -----------------------------------------------------------------
                    Cartesian Multipole Moments
 -----------------------------------------------------------------
    Charge (ESU x 10^10)
                -0.0000
    Dipole Moment (Debye)
         X      -0.5179      Y      -0.6346      Z      -0.7446
       Tot       1.1070
    Quadrupole Moments (Debye-Ang)
        XX     -47.9961     XY       1.9420     YY     -35.9279
        XZ       0.5112     YZ      -0.0564     ZZ     -42.0136
    Octopole Moments (Debye-Ang^2)
       XXX      -6.3850    XXY     -21.4623    XYY      -1.3355
       YYY     -42.4549    XXZ      -7.3291    XYZ      -0.9881
       YYZ      -1.5407    XZZ      -1.4230    YZZ     -10.6723
       ZZZ     -28.7017
    Hexadecapole Moments (Debye-Ang^3)
      XXXX     -68.6146   XXXY     -20.7937   XXYY    -115.6148
      XYYY      -8.2463   YYYY    -497.4963   XXXZ      -1.8070
      XXYZ      -5.9521   XYYZ       3.7478   YYYZ     -15.3093
      XXZZ     -69.6473   XYZZ      -3.0386   YYZZ    -124.4729
      XZZZ      -0.5070   YZZZ     -13.8678   ZZZZ    -306.8433
 -----------------------------------------------------------------
 Total job time:  10.92s(wall), 563.38s(cpu) 
 Sun Sep 24 15:59:51 2023

        *************************************************************
        *                                                           *
        *  Thank you very much for using Q-Chem.  Have a nice day.  *
        *                                                           *
        *************************************************************


0 sent ACK to 0 
now end server 0 ... 
cleanup process ... done
remove work dirs ./qchem1049803.0 -- ./qchem1049803.0
rm -rf ./qchem1049803.0
rm -rf ./qchem1049803
