You are running Q-Chem version: 5.4.0

#
# job setting
#
local host:  exp-3-06
current dir: /expanse/lustre/projects/csd626/rramji/aromodel/PNDIT/Hydrogenated_Impropers_Test
input file:  Dimethyl_Naphthalene_Dicarboximide_Phi_10_Theta_0_Thiophene_Hydrogenated_Improper.qcin
output file: 
nprocs     : 1
nthreads   : 64
#
# qchem installation setting
#
QC:          /cm/shared/apps/spack/cpu/opt/spack/linux-centos8-zen2/gcc-10.2.0/qchem-5.4-akfmr7b3t57bfs6qan3padb2wnb2i7cl
QCAUX:       /cm/shared/apps/spack/cpu/opt/spack/linux-centos8-zen2/gcc-10.2.0/qchem-5.4-akfmr7b3t57bfs6qan3padb2wnb2i7cl/qcaux
QCPROG:      /cm/shared/apps/spack/cpu/opt/spack/linux-centos8-zen2/gcc-10.2.0/qchem-5.4-akfmr7b3t57bfs6qan3padb2wnb2i7cl/exe/qcprog.exe
QCPROG_S:    /cm/shared/apps/spack/cpu/opt/spack/linux-centos8-zen2/gcc-10.2.0/qchem-5.4-akfmr7b3t57bfs6qan3padb2wnb2i7cl/exe/qcprog.exe_s
PARALLEL:    -DPARALLEL
QCMPI:       mpich
#
# qchem directory setting
#
qcrun:       qchem1487207
QCSCRATCH:   .
QCLOCALSCR:  
QCTMPDIR:    .
QCFILEPREF:  ./qchem1487207
QCSAVEDIR:   
workdirs:    ./qchem1487207
workdir0:    ./qchem1487207
partmpdirs =  
#
# parallel setting
#
QCRSH:           ssh
QCMPI:           mpich
QCMPIRUN:        /cm/shared/apps/spack/cpu/opt/spack/linux-centos8-zen2/gcc-10.2.0/qchem-5.4-akfmr7b3t57bfs6qan3padb2wnb2i7cl/bin/mpi/mpirun_qchem
QCMACHINEFILE:   ./qchem1487207/hostfile
exp-3-06

#
# env setting
#
exported envs:   QC QCAUX QCSCRATCH QCRUNNAME QCFILEPREF QCPROG QCPROG_S GUIFILE

Running Job 1 of 1 Dimethyl_Naphthalene_Dicarboximide_Phi_10_Theta_0_Thiophene_Hydrogenated_Improper.qcin
qchem Dimethyl_Naphthalene_Dicarboximide_Phi_10_Theta_0_Thiophene_Hydrogenated_Improper.qcin_1487207.0 ./qchem1487207/ 1
/cm/shared/apps/spack/cpu/opt/spack/linux-centos8-zen2/gcc-10.2.0/qchem-5.4-akfmr7b3t57bfs6qan3padb2wnb2i7cl/bin/mpi/mpirun_qchem -machinefile ./qchem1487207/hostfile -np 1 /cm/shared/apps/spack/cpu/opt/spack/linux-centos8-zen2/gcc-10.2.0/qchem-5.4-akfmr7b3t57bfs6qan3padb2wnb2i7cl/exe/qcprog.exe Dimethyl_Naphthalene_Dicarboximide_Phi_10_Theta_0_Thiophene_Hydrogenated_Improper.qcin_1487207.0 ./qchem1487207/

Process 0 of 1 is on exp-3-06 - thread support 0
initial socket setup ...start
initial socket setup ...done 
now start server 0 ... 
                  Welcome to Q-Chem
     A Quantum Leap Into The Future Of Chemistry


 Q-Chem 5.4, Q-Chem, Inc., Pleasanton, CA (2021)

 License issued to: University of California, San Diego (site)

 E. Epifanovsky,  A. T. B. Gilbert,  Xintian Feng,  Joonho Lee,  Yuezhi Mao,  
 N. Mardirossian,  P. Pokhilko,  A. White,  M. Wormit,  M. P. Coons,  
 A. L. Dempwolff,  Zhengting Gan,  D. Hait,  P. R. Horn,  L. D. Jacobson,  
 I. Kaliman,  J. Kussmann,  A. W. Lange,  Ka Un Lao,  D. S. Levine,  Jie Liu,  
 S. C. McKenzie,  A. F. Morrison,  K. Nanda,  F. Plasser,  D. R. Rehn,  
 M. L. Vidal,  Zhi-Qiang You,  Ying Zhu,  B. Alam,  B. Albrecht,  
 A. Aldossary,  E. Alguire,  J. H. Andersen,  D. Barton,  K. Begam,  A. Behn,  
 Y. A. Bernard,  E. J. Berquist,  H. Burton,  A. Carreras,  K. Carter-Fenk,  
 R. Chakraborty,  A. D. Chien,  K. D. Closser,  V. Cofer-Shabica,  
 S. Dasgupta,  Jia Deng,  M. de Wergifosse,  M. Diedenhofen,  Hainam Do,  
 S. Ehlert,  Po-Tung Fang,  S. Fatehi,  Qingguo Feng,  J. Gayvert,  
 Qinghui Ge,  G. Gidofalvi,  M. Goldey,  J. Gomes,  C. Gonzalez-Espinoza,  
 S. Gulania,  A. Gunina,  M. W. D. Hanson-Heine,  P. H. P. Harbach,  
 A. W. Hauser,  M. F. Herbst,  M. Hernandez Vera,  M. Hodecker,  
 Z. C. Holden,  S. Houck,  Xunkun Huang,  Kerwin Hui,  B. C. Huynh,  
 M. Ivanov,  Hyunjun Ji,  Hanjie Jiang,  B. Kaduk,  S. Kaehler,  
 K. Khistyaev,  Jaehoon Kim,  P. Klunzinger,  Z. Koczor-Benda,  
 Joong Hoon Koh,  D. Kosenkov,  L. Koulias,  T. Kowalczyk,  C. M. Krauter,  
 K. Kue,  A. Kunitsa,  T. Kus,  A. Landau,  K. V. Lawler,  D. Lefrancois,  
 S. Lehtola,  Rain Li,  Yi-Pei Li,  Jiashu Liang,  M. Liebenthal,  
 Hung-Hsuan Lin,  You-Sheng Lin,  Fenglai Liu,  Kuan-Yu Liu,  
 M. Loipersberger,  A. Luenser,  A. Manjanath,  P. Manohar,  E. Mansoor,  
 S. F. Manzer,  Shan-Ping Mao,  A. V. Marenich,  T. Markovich,  S. Mason,  
 S. A. Maurer,  P. F. McLaughlin,  M. F. S. J. Menger,  J.-M. Mewes,  
 S. A. Mewes,  P. Morgante,  J. W. Mullinax,  T. S. Nguyen-Beck,  
 K. J. Oosterbaan,  G. Paran,  Alexander C. Paul,  Suranjan K. Paul,  
 F. Pavosevic,  Zheng Pei,  S. Prager,  E. I. Proynov,  E. Ramos,  B. Rana,  
 A. E. Rask,  A. Rettig,  R. M. Richard,  F. Rob,  E. Rossomme,  T. Scheele,  
 M. Scheurer,  M. Schneider,  N. Sergueev,  S. M. Sharada,  W. Skomorowski,  
 D. W. Small,  C. J. Stein,  Yu-Chuan Su,  E. J. Sundstrom,  Zhen Tao,  
 J. Thirman,  T. Tsuchimochi,  N. M. Tubman,  S. P. Veccham,  O. Vydrov,  
 J. Wenzel,  J. Witte,  A. Yamada,  Kun Yao,  S. Yeganeh,  S. R. Yost,  
 A. Zech,  Igor Ying Zhang,  Xing Zhang,  Yu Zhang,  D. Zuev,  
 A. Aspuru-Guzik,  A. T. Bell,  N. A. Besley,  K. B. Bravaya,  B. R. Brooks,  
 D. Casanova,  Jeng-Da Chai,  S. Coriani,  C. J. Cramer,  
 A. E. DePrince, III,  R. A. DiStasio Jr.,  A. Dreuw,  B. D. Dunietz,  
 T. R. Furlani,  W. A. Goddard III,  S. Grimme,  S. Hammes-Schiffer,  
 T. Head-Gordon,  W. J. Hehre,  Chao-Ping Hsu,  T.-C. Jagau,  Yousung Jung,  
 A. Klamt,  Jing Kong,  D. S. Lambrecht,  WanZhen Liang,  N. J. Mayhall,  
 C. W. McCurdy,  J. B. Neaton,  C. Ochsenfeld,  J. A. Parkhill,  R. Peverati,  
 V. A. Rassolov,  Yihan Shao,  L. V. Slipchenko,  T. Stauch,  R. P. Steele,  
 J. E. Subotnik,  A. J. W. Thom,  A. Tkatchenko,  D. G. Truhlar,  
 T. Van Voorhis,  T. A. Wesolowski,  K. B. Whaley,  H. L. Woodcock III,  
 P. M. Zimmerman,  S. Faraji,  P. M. W. Gill,  M. Head-Gordon,  
 J. M. Herbert,  A. I. Krylov

 Contributors to earlier versions of Q-Chem not listed above: 
 R. D. Adamson,  B. Austin,  R. Baer,  J. Baker,  G. J. O. Beran,  
 K. Brandhorst,  S. T. Brown,  E. F. C. Byrd,  A. K. Chakraborty,  
 G. K. L. Chan,  Chun-Min Chang,  Yunqing Chen,  C.-L. Cheng,  
 Siu Hung Chien,  D. M. Chipman,  D. L. Crittenden,  H. Dachsel,  
 R. J. Doerksen,  A. D. Dutoi,  R. G. Edgar,  J. Fosso-Tande,  
 L. Fusti-Molnar,  D. Ghosh,  A. Ghysels,  A. Golubeva-Zadorozhnaya,  
 J. Gonthier,  M. S. Gordon,  S. R. Gwaltney,  G. Hawkins,  J. E. Herr,  
 A. Heyden,  S. Hirata,  E. G. Hohenstein,  G. Kedziora,  F. J. Keil,  
 C. Kelley,  Jihan Kim,  R. A. King,  R. Z. Khaliullin,  P. P. Korambath,  
 W. Kurlancheek,  A. Laurent,  A. M. Lee,  M. S. Lee,  S. V. Levchenko,  
 Ching Yeh Lin,  D. Liotard,  E. Livshits,  R. C. Lochan,  I. Lotan,  
 L. A. Martinez-Martinez,  P. E. Maslen,  N. Nair,  D. P. O'Neill,  
 D. Neuhauser,  E. Neuscamman,  C. M. Oana,  R. Olivares-Amaya,  R. Olson,  
 T. M. Perrine,  B. Peters,  P. A. Pieniazek,  A. Prociuk,  Y. M. Rhee,  
 J. Ritchie,  M. A. Rohrdanz,  E. Rosta,  N. J. Russ,  H. F. Schaefer III,  
 M. W. Schmidt,  N. E. Schultz,  S. Sharma,  N. Shenvi,  C. D. Sherrill,  
 A. C. Simmonett,  A. Sodt,  T. Stein,  D. Stuck,  K. S. Thanthiriwatte,  
 V. Vanovschi,  L. Vogt,  Tao Wang,  A. Warshel,  M. A. Watson,  
 C. F. Williams,  Q. Wu,  X. Xu,  Jun Yang,  W. Zhang,  Yan Zhao

 Please cite Q-Chem as follows:
 Y. Shao et al., Mol. Phys. 113, 184-215 (2015)
 DOI: 10.1080/00268976.2014.952696

 Q-Chem 5.4.0 for Intel X86 EM64T Linux

 Parts of Q-Chem use Armadillo 9.800.1 (Horizon Scraper).
 http://arma.sourceforge.net/

 Q-Chem begins on Sun Sep 24 15:03:45 2023  

 Host: 
0

     Scratch files written to ./qchem1487207//
 May1621 |scratch|qcdevops|jenkins|workspace|build_RNUM    
 Parallel job on  1  processors
 Processing $rem in /cm/shared/apps/spack/cpu/opt/spack/linux-centos8-zen2/gcc-10.2.0/qchem-5.4-akfmr7b3t57bfs6qan3padb2wnb2i7cl/config/preferences:
 Processing $rem in /home/rramji/.qchemrc:
 Symmetry turned off for PCM/SM12/SMD calculation
 Core orbitals will be frozen

 Checking the input file for inconsistencies... 	...done.

 Q-Chem warning in module forms1/BasisType.C, line 2236:

 You are not using the predefined 5D/6D in this basis set.


--------------------------------------------------------------
User input:
--------------------------------------------------------------
$molecule
0 1
C	-0.026065	-0.402130	-0.215368
S	-0.026265	0.391070	1.365132
C	-0.026265	2.028770	0.689532
C	-0.026265	0.595870	-1.200768
C	-0.026365	1.916070	-0.708868
H	-0.026165	0.360170	-2.275268
H	-0.026365	2.797070	-1.367968
C	0.230635	-1.857930	-0.215368
H	1.294335	-1.670930	-0.214868
H	0.306835	-2.290530	0.771232
H	0.353935	-2.558030	-1.028368
H	-0.026365	2.909470	1.340632
$end

$rem
JOBTYPE		SP
EXCHANGE	HF
CORRELATION	pRIMP2
BASIS		cc-pvtz
METHOD		rimp2
AUX_BASIS	rimp2-cc-pvtz
SOLVENT_METHOD	PCM
PURECART	11111
SYMMETRY	false
MEM_TOTAL	110000
SCF_CONVERGENCE = 6
THRESH=10
GUI = 2
$end



$solvent
dielectric 4.90
$end
--------------------------------------------------------------
 ----------------------------------------------------------------
             Standard Nuclear Orientation (Angstroms)
    I     Atom           X                Y                Z
 ----------------------------------------------------------------
    1      C      -0.0260650000    -0.4021300000    -0.2153680000
    2      S      -0.0262650000     0.3910700000     1.3651320000
    3      C      -0.0262650000     2.0287700000     0.6895320000
    4      C      -0.0262650000     0.5958700000    -1.2007680000
    5      C      -0.0263650000     1.9160700000    -0.7088680000
    6      H      -0.0261650000     0.3601700000    -2.2752680000
    7      H      -0.0263650000     2.7970700000    -1.3679680000
    8      C       0.2306350000    -1.8579300000    -0.2153680000
    9      H       1.2943350000    -1.6709300000    -0.2148680000
   10      H       0.3068350000    -2.2905300000     0.7712320000
   11      H       0.3539350000    -2.5580300000    -1.0283680000
   12      H      -0.0263650000     2.9094700000     1.3406320000
 ----------------------------------------------------------------
 Nuclear Repulsion Energy =         270.60322611 hartrees
 There are       26 alpha and       26 beta electrons
 Requested basis set is cc-pVTZ
 There are 98 shells and 268 basis functions

 Total QAlloc Memory Limit 110000 MB
 Mega-Array Size       188 MB
 MEM_STATIC part       192 MB
 Discretize the solute cavity surface with Lebedev spheres
	Using 110 Lebedev grid points for each H atom
	Using 194 Lebedev grid points for other atoms
	Atomic van der Waals radii will be scaled by 1.20
 Remove points where switching function is < 1.0e-08
 Keep 881 surface tesserae and discard 943 interior tesserae
 Molecular Surface Area = 138.338 Angst**2

                       Distance Matrix (Angstroms)
             C (  1)   S (  2)   C (  3)   C (  4)   C (  5)   H (  6)
   S (  2)  1.768374
   C (  3)  2.593862  1.771580
   C (  4)  1.402504  2.574060  2.372011
   C (  5)  2.370146  2.574316  1.402934  1.408863
   H (  6)  2.196426  3.640531  3.402097  1.100048  2.207812
   H (  7)  3.400495  3.641246  2.196268  2.207541  1.100261  2.600322
   C (  8)  1.478259  2.760793  3.998910  2.656717  3.814796  3.037944
   H (  9)  1.831204  2.914143  4.031092  2.802564  3.854199  3.180304
   H ( 10)  2.156445  2.766704  4.332895  3.511559  4.471823  4.051945
   H ( 11)  2.335225  3.817144  4.912684  3.181408  4.501586  3.196111
   H ( 12)  3.658938  2.518519  1.095246  3.436780  2.277563  4.424213
             H (  7)   C (  8)   H (  9)   H ( 10)   H ( 11)
   C (  8)  4.802454
   H (  9)  4.799678  1.080012
   H ( 10)  5.529093  1.079967  1.526910
   H ( 11)  5.379317  1.079959  1.527443  1.819982
   H ( 12)  2.710931  5.021483  5.014369  5.241683  5.970791
 
 Requested basis set is rimp2-cc-pVTZ
 There are 207 shells and 707 basis functions
 A cutoff of  1.0D-10 yielded   4371 shell pairs
 There are     32765 function pairs (     42371 Cartesian)
 Smallest overlap matrix eigenvalue = 1.14E-04

 Scale SEOQF with 1.000000e+00/1.000000e-01/1.000000e-01

 Standard Electronic Orientation quadrupole field applied
 Nucleus-field energy     =     0.0000000023 hartrees
 Guess from superposition of atomic densities
 Warning:  Energy on first SCF cycle will be non-variational
 SAD guess density has 52.000000 electrons

 -----------------------------------------------------------------------
  General SCF calculation program by
  Eric Jon Sundstrom, Paul Horn, Yuezhi Mao, Dmitri Zuev, Alec White,
  David Stuck, Shaama M.S., Shane Yost, Joonho Lee, David Small,
  Daniel Levine, Susi Lehtola, Hugh Burton, Evgeny Epifanovsky,
  Bang C. Huynh
 -----------------------------------------------------------------------
 Hartree-Fock
 using 64 threads for integral computing
 -------------------------------------------------------
 OpenMP Integral computing Module                
 Release: version 1.0, May 2013, Q-Chem Inc. Pittsburgh 
 -------------------------------------------------------
 A restricted SCF calculation will be
 performed using DIIS
 SCF converges when DIIS error is below 1.0e-06
 ---------------------------------------
  Cycle       Energy         DIIS error
 ---------------------------------------
    1    -592.5763630285      3.22e-02  
    2    -590.3024681814      2.22e-03  
    3    -590.3638266227      8.75e-04  
    4    -590.3715126415      4.09e-04  
    5    -590.3736469592      6.94e-05  
    6    -590.3737707308      3.23e-05  
    7    -590.3738003313      1.40e-05  
    8    -590.3738096193      5.66e-06  
    9    -590.3738110080      1.85e-06  
   10    -590.3738111369      6.56e-07  Convergence criterion met
 ---------------------------------------
 SCF time:   CPU 540.22s  wall 11.00s 

************** Final PCM Free Energy Summary **************
 G_electrostatic  =      -0.00602940 hartree =      -3.78350656 kcal/mol
 G_cavitation     =       0.00000000 hartree =       0.00000000 kcal/mol
 G_dispersion     =       0.00000000 hartree =       0.00000000 kcal/mol
 G_repulsion      =       0.00000000 hartree =       0.00000000 kcal/mol
 --------------------------------------------------
 Non-electrostatic Free Energy =       0.00000000 hartree =       0.00000000 kcal/mol
 Total                         =      -0.00602940 hartree =      -3.78350656 kcal/mol
 --------------------------------------------------
 SCF Energy (H0 + V/2)                       =    -590.37381114 
 Solute Internal Energy (H0)                 =    -590.36778174 
 Total Free Energy (H0 + V/2 + non-elec)     =    -590.37381114 hartree
                                             = -370465.15791880 kcal/mol
***********************************************************

 SCF   energy in the final basis set =     -590.3738111369
 Total energy in the final basis set =     -590.3738111369


 --------------------------------------------------------------
  Generalized many-body perturbation theory program
  by Joonho Lee, Fazle Rob, Xintian Feng, Evgeny Epifanovsky

 No regularization used 
 (reg. param. = 0.0000e+00)
  (P|Q)^-1/2 Time:  CPU 18.53 s  wall 0.30 s

 In RI-MP2 calculation: 
 # of frozen core orbitals: 10

 Components of the RIMP2 correlation energy:
        aaaa    correlation energy =        -0.1249252277 a.u.
        abab    correlation energy =        -0.7498532211 a.u.
        bbbb    correlation energy =        -0.1249252277 a.u.
        non-Brillouin singles      =        -0.0000000000 a.u.
        total same-spin energy     =        -0.2498504555 a.u.
        total opposite-spin energy =        -0.7498532211 a.u.

 Total  RIMP2   correlation energy =        -0.9997036765 a.u.
        RIMP2         total energy =      -591.3735148135 a.u.

 RI-MP2 Energy Time:  CPU 44.61 s  wall 0.77 s
 
 --------------------------------------------------------------
 
                    Orbital Energies (a.u.)
 --------------------------------------------------------------
 
 Alpha MOs
 -- Occupied --
-91.9794 -11.2924 -11.2620 -11.2429 -11.2296 -11.2293  -8.9792  -6.6601
 -6.6597  -6.6590  -1.1576  -1.0412  -0.9712  -0.9191  -0.7548  -0.7220
 -0.6714  -0.5974  -0.5659  -0.5567  -0.5416  -0.4967  -0.4783  -0.4568
 -0.3469  -0.2974
 -- Virtual --
  0.1116   0.1472   0.1603   0.1802   0.1886   0.1979   0.2134   0.2198
  0.2276   0.2539   0.3159   0.3361   0.3478   0.3646   0.3886   0.4166
  0.4278   0.4405   0.4549   0.4810   0.5033   0.5144   0.5265   0.5393
  0.5473   0.5657   0.5718   0.5822   0.5900   0.6110   0.6207   0.6274
  0.6295   0.6397   0.6441   0.6532   0.6992   0.7025   0.7415   0.7792
  0.7832   0.7946   0.8432   0.8598   0.8717   0.8840   0.8966   0.9331
  0.9528   0.9922   1.0004   1.0351   1.0643   1.0795   1.0846   1.1119
  1.1192   1.1587   1.1690   1.1786   1.2167   1.2421   1.2527   1.2639
  1.2835   1.2941   1.3399   1.3472   1.3984   1.4129   1.4339   1.4582
  1.4757   1.4860   1.4908   1.5137   1.5271   1.5554   1.5630   1.5684
  1.5936   1.6240   1.6509   1.7070   1.7123   1.7493   1.7864   1.7980
  1.8312   1.8862   1.9134   1.9183   1.9504   2.0136   2.0666   2.0768
  2.1517   2.1698   2.2231   2.2407   2.2630   2.2866   2.3115   2.4124
  2.4277   2.4372   2.4699   2.5328   2.5412   2.5856   2.6275   2.6594
  2.6904   2.7306   2.7367   2.7503   2.7684   2.7772   2.7953   2.8258
  2.8708   2.8914   2.9206   2.9701   3.0067   3.0214   3.0248   3.0527
  3.0770   3.0988   3.1056   3.1377   3.1693   3.2062   3.2121   3.2461
  3.2611   3.2721   3.2886   3.3097   3.3138   3.3404   3.3764   3.3856
  3.4080   3.4296   3.4320   3.4426   3.4592   3.4693   3.4777   3.5000
  3.5070   3.5183   3.5387   3.5593   3.5966   3.6147   3.6237   3.6511
  3.6877   3.6938   3.7206   3.7477   3.7709   3.7915   3.8225   3.8334
  3.8501   3.8870   3.9022   3.9157   3.9586   3.9602   3.9834   3.9886
  4.0175   4.0385   4.0631   4.1072   4.1234   4.1566   4.1662   4.1834
  4.2482   4.2629   4.2812   4.2932   4.3204   4.3549   4.3652   4.3920
  4.4179   4.4681   4.4922   4.5071   4.5418   4.5733   4.5821   4.6236
  4.6658   4.6939   4.7452   4.7710   4.7817   4.8230   4.8272   4.8665
  4.9668   4.9949   5.0205   5.0377   5.0687   5.1315   5.1851   5.1931
  5.2283   5.3017   5.3549   5.4188   5.4725   5.5013   5.5387   5.5780
  5.6278   5.6830   5.7890   5.8217   5.8731   5.9899   6.0148   6.0869
  6.1477   6.3465   6.4178   6.4781   6.7376   9.3753  11.3154  12.8319
 13.9041  14.3343
 --------------------------------------------------------------
 
          Ground-State Mulliken Net Atomic Charges

     Atom                 Charge (a.u.)
  ----------------------------------------
      1 C                     0.025997
      2 S                    -0.000442
      3 C                    -0.252174
      4 C                    -0.246313
      5 C                    -0.183797
      6 H                     0.179913
      7 H                     0.185566
      8 C                    -0.362767
      9 H                     0.145914
     10 H                     0.136168
     11 H                     0.167653
     12 H                     0.204282
  ----------------------------------------
  Sum of atomic charges =     0.000000

 -----------------------------------------------------------------
                    Cartesian Multipole Moments
 -----------------------------------------------------------------
    Charge (ESU x 10^10)
                 0.0000
    Dipole Moment (Debye)
         X       1.0607      Y      -0.7212      Z      -1.0453
       Tot       1.6546
    Quadrupole Moments (Debye-Ang)
        XX     -47.8443     XY      -1.9922     YY     -36.4758
        XZ      -0.2906     YZ       1.0543     ZZ     -41.7544
    Octopole Moments (Debye-Ang^2)
       XXX      -3.2893    XXY     -22.4607    XYY       2.6420
       YYY     -42.2704    XXZ      -7.4382    XYZ       0.6046
       YYZ      -5.2324    XZZ      -0.9594    YZZ     -12.1762
       ZZZ     -28.0108
    Hexadecapole Moments (Debye-Ang^3)
      XXXX     -68.8622   XXXY      16.3878   XXYY    -115.8082
      XYYY       6.1191   YYYY    -498.1253   XXXZ       1.8908
      XXYZ      -6.2042   XYYZ      -1.0244   YYYZ      -5.7342
      XXZZ     -70.7270   XYZZ       3.8715   YYZZ    -120.7091
      XZZZ       2.0653   YZZZ     -14.0356   ZZZZ    -307.0089
 -----------------------------------------------------------------
 Total job time:  14.08s(wall), 649.81s(cpu) 
 Sun Sep 24 15:03:59 2023

        *************************************************************
        *                                                           *
        *  Thank you very much for using Q-Chem.  Have a nice day.  *
        *                                                           *
        *************************************************************


0 sent ACK to 0 
now end server 0 ... 
cleanup process ... done
remove work dirs ./qchem1487207.0 -- ./qchem1487207.0
rm -rf ./qchem1487207.0
rm -rf ./qchem1487207
