You are running Q-Chem version: 5.4.0

#
# job setting
#
local host:  exp-2-38
current dir: /expanse/lustre/projects/csd626/rramji/aromodel/PNDIT/Hydrogenated_Impropers_Test
input file:  Dimethyl_Naphthalene_Dicarboximide_Phi_15_Theta_60_Thiophene_Hydrogenated_Improper.qcin
output file: 
nprocs     : 1
nthreads   : 64
#
# qchem installation setting
#
QC:          /cm/shared/apps/spack/cpu/opt/spack/linux-centos8-zen2/gcc-10.2.0/qchem-5.4-akfmr7b3t57bfs6qan3padb2wnb2i7cl
QCAUX:       /cm/shared/apps/spack/cpu/opt/spack/linux-centos8-zen2/gcc-10.2.0/qchem-5.4-akfmr7b3t57bfs6qan3padb2wnb2i7cl/qcaux
QCPROG:      /cm/shared/apps/spack/cpu/opt/spack/linux-centos8-zen2/gcc-10.2.0/qchem-5.4-akfmr7b3t57bfs6qan3padb2wnb2i7cl/exe/qcprog.exe
QCPROG_S:    /cm/shared/apps/spack/cpu/opt/spack/linux-centos8-zen2/gcc-10.2.0/qchem-5.4-akfmr7b3t57bfs6qan3padb2wnb2i7cl/exe/qcprog.exe_s
PARALLEL:    -DPARALLEL
QCMPI:       mpich
#
# qchem directory setting
#
qcrun:       qchem3739432
QCSCRATCH:   .
QCLOCALSCR:  
QCTMPDIR:    .
QCFILEPREF:  ./qchem3739432
QCSAVEDIR:   
workdirs:    ./qchem3739432
workdir0:    ./qchem3739432
partmpdirs =  
#
# parallel setting
#
QCRSH:           ssh
QCMPI:           mpich
QCMPIRUN:        /cm/shared/apps/spack/cpu/opt/spack/linux-centos8-zen2/gcc-10.2.0/qchem-5.4-akfmr7b3t57bfs6qan3padb2wnb2i7cl/bin/mpi/mpirun_qchem
QCMACHINEFILE:   ./qchem3739432/hostfile
exp-2-38

#
# env setting
#
exported envs:   QC QCAUX QCSCRATCH QCRUNNAME QCFILEPREF QCPROG QCPROG_S GUIFILE

Running Job 1 of 1 Dimethyl_Naphthalene_Dicarboximide_Phi_15_Theta_60_Thiophene_Hydrogenated_Improper.qcin
qchem Dimethyl_Naphthalene_Dicarboximide_Phi_15_Theta_60_Thiophene_Hydrogenated_Improper.qcin_3739432.0 ./qchem3739432/ 1
/cm/shared/apps/spack/cpu/opt/spack/linux-centos8-zen2/gcc-10.2.0/qchem-5.4-akfmr7b3t57bfs6qan3padb2wnb2i7cl/bin/mpi/mpirun_qchem -machinefile ./qchem3739432/hostfile -np 1 /cm/shared/apps/spack/cpu/opt/spack/linux-centos8-zen2/gcc-10.2.0/qchem-5.4-akfmr7b3t57bfs6qan3padb2wnb2i7cl/exe/qcprog.exe Dimethyl_Naphthalene_Dicarboximide_Phi_15_Theta_60_Thiophene_Hydrogenated_Improper.qcin_3739432.0 ./qchem3739432/

Process 0 of 1 is on exp-2-38 - thread support 0
initial socket setup ...start
initial socket setup ...done 
now start server 0 ... 
                  Welcome to Q-Chem
     A Quantum Leap Into The Future Of Chemistry


 Q-Chem 5.4, Q-Chem, Inc., Pleasanton, CA (2021)

 License issued to: University of California, San Diego (site)

 E. Epifanovsky,  A. T. B. Gilbert,  Xintian Feng,  Joonho Lee,  Yuezhi Mao,  
 N. Mardirossian,  P. Pokhilko,  A. White,  M. Wormit,  M. P. Coons,  
 A. L. Dempwolff,  Zhengting Gan,  D. Hait,  P. R. Horn,  L. D. Jacobson,  
 I. Kaliman,  J. Kussmann,  A. W. Lange,  Ka Un Lao,  D. S. Levine,  Jie Liu,  
 S. C. McKenzie,  A. F. Morrison,  K. Nanda,  F. Plasser,  D. R. Rehn,  
 M. L. Vidal,  Zhi-Qiang You,  Ying Zhu,  B. Alam,  B. Albrecht,  
 A. Aldossary,  E. Alguire,  J. H. Andersen,  D. Barton,  K. Begam,  A. Behn,  
 Y. A. Bernard,  E. J. Berquist,  H. Burton,  A. Carreras,  K. Carter-Fenk,  
 R. Chakraborty,  A. D. Chien,  K. D. Closser,  V. Cofer-Shabica,  
 S. Dasgupta,  Jia Deng,  M. de Wergifosse,  M. Diedenhofen,  Hainam Do,  
 S. Ehlert,  Po-Tung Fang,  S. Fatehi,  Qingguo Feng,  J. Gayvert,  
 Qinghui Ge,  G. Gidofalvi,  M. Goldey,  J. Gomes,  C. Gonzalez-Espinoza,  
 S. Gulania,  A. Gunina,  M. W. D. Hanson-Heine,  P. H. P. Harbach,  
 A. W. Hauser,  M. F. Herbst,  M. Hernandez Vera,  M. Hodecker,  
 Z. C. Holden,  S. Houck,  Xunkun Huang,  Kerwin Hui,  B. C. Huynh,  
 M. Ivanov,  Hyunjun Ji,  Hanjie Jiang,  B. Kaduk,  S. Kaehler,  
 K. Khistyaev,  Jaehoon Kim,  P. Klunzinger,  Z. Koczor-Benda,  
 Joong Hoon Koh,  D. Kosenkov,  L. Koulias,  T. Kowalczyk,  C. M. Krauter,  
 K. Kue,  A. Kunitsa,  T. Kus,  A. Landau,  K. V. Lawler,  D. Lefrancois,  
 S. Lehtola,  Rain Li,  Yi-Pei Li,  Jiashu Liang,  M. Liebenthal,  
 Hung-Hsuan Lin,  You-Sheng Lin,  Fenglai Liu,  Kuan-Yu Liu,  
 M. Loipersberger,  A. Luenser,  A. Manjanath,  P. Manohar,  E. Mansoor,  
 S. F. Manzer,  Shan-Ping Mao,  A. V. Marenich,  T. Markovich,  S. Mason,  
 S. A. Maurer,  P. F. McLaughlin,  M. F. S. J. Menger,  J.-M. Mewes,  
 S. A. Mewes,  P. Morgante,  J. W. Mullinax,  T. S. Nguyen-Beck,  
 K. J. Oosterbaan,  G. Paran,  Alexander C. Paul,  Suranjan K. Paul,  
 F. Pavosevic,  Zheng Pei,  S. Prager,  E. I. Proynov,  E. Ramos,  B. Rana,  
 A. E. Rask,  A. Rettig,  R. M. Richard,  F. Rob,  E. Rossomme,  T. Scheele,  
 M. Scheurer,  M. Schneider,  N. Sergueev,  S. M. Sharada,  W. Skomorowski,  
 D. W. Small,  C. J. Stein,  Yu-Chuan Su,  E. J. Sundstrom,  Zhen Tao,  
 J. Thirman,  T. Tsuchimochi,  N. M. Tubman,  S. P. Veccham,  O. Vydrov,  
 J. Wenzel,  J. Witte,  A. Yamada,  Kun Yao,  S. Yeganeh,  S. R. Yost,  
 A. Zech,  Igor Ying Zhang,  Xing Zhang,  Yu Zhang,  D. Zuev,  
 A. Aspuru-Guzik,  A. T. Bell,  N. A. Besley,  K. B. Bravaya,  B. R. Brooks,  
 D. Casanova,  Jeng-Da Chai,  S. Coriani,  C. J. Cramer,  
 A. E. DePrince, III,  R. A. DiStasio Jr.,  A. Dreuw,  B. D. Dunietz,  
 T. R. Furlani,  W. A. Goddard III,  S. Grimme,  S. Hammes-Schiffer,  
 T. Head-Gordon,  W. J. Hehre,  Chao-Ping Hsu,  T.-C. Jagau,  Yousung Jung,  
 A. Klamt,  Jing Kong,  D. S. Lambrecht,  WanZhen Liang,  N. J. Mayhall,  
 C. W. McCurdy,  J. B. Neaton,  C. Ochsenfeld,  J. A. Parkhill,  R. Peverati,  
 V. A. Rassolov,  Yihan Shao,  L. V. Slipchenko,  T. Stauch,  R. P. Steele,  
 J. E. Subotnik,  A. J. W. Thom,  A. Tkatchenko,  D. G. Truhlar,  
 T. Van Voorhis,  T. A. Wesolowski,  K. B. Whaley,  H. L. Woodcock III,  
 P. M. Zimmerman,  S. Faraji,  P. M. W. Gill,  M. Head-Gordon,  
 J. M. Herbert,  A. I. Krylov

 Contributors to earlier versions of Q-Chem not listed above: 
 R. D. Adamson,  B. Austin,  R. Baer,  J. Baker,  G. J. O. Beran,  
 K. Brandhorst,  S. T. Brown,  E. F. C. Byrd,  A. K. Chakraborty,  
 G. K. L. Chan,  Chun-Min Chang,  Yunqing Chen,  C.-L. Cheng,  
 Siu Hung Chien,  D. M. Chipman,  D. L. Crittenden,  H. Dachsel,  
 R. J. Doerksen,  A. D. Dutoi,  R. G. Edgar,  J. Fosso-Tande,  
 L. Fusti-Molnar,  D. Ghosh,  A. Ghysels,  A. Golubeva-Zadorozhnaya,  
 J. Gonthier,  M. S. Gordon,  S. R. Gwaltney,  G. Hawkins,  J. E. Herr,  
 A. Heyden,  S. Hirata,  E. G. Hohenstein,  G. Kedziora,  F. J. Keil,  
 C. Kelley,  Jihan Kim,  R. A. King,  R. Z. Khaliullin,  P. P. Korambath,  
 W. Kurlancheek,  A. Laurent,  A. M. Lee,  M. S. Lee,  S. V. Levchenko,  
 Ching Yeh Lin,  D. Liotard,  E. Livshits,  R. C. Lochan,  I. Lotan,  
 L. A. Martinez-Martinez,  P. E. Maslen,  N. Nair,  D. P. O'Neill,  
 D. Neuhauser,  E. Neuscamman,  C. M. Oana,  R. Olivares-Amaya,  R. Olson,  
 T. M. Perrine,  B. Peters,  P. A. Pieniazek,  A. Prociuk,  Y. M. Rhee,  
 J. Ritchie,  M. A. Rohrdanz,  E. Rosta,  N. J. Russ,  H. F. Schaefer III,  
 M. W. Schmidt,  N. E. Schultz,  S. Sharma,  N. Shenvi,  C. D. Sherrill,  
 A. C. Simmonett,  A. Sodt,  T. Stein,  D. Stuck,  K. S. Thanthiriwatte,  
 V. Vanovschi,  L. Vogt,  Tao Wang,  A. Warshel,  M. A. Watson,  
 C. F. Williams,  Q. Wu,  X. Xu,  Jun Yang,  W. Zhang,  Yan Zhao

 Please cite Q-Chem as follows:
 Y. Shao et al., Mol. Phys. 113, 184-215 (2015)
 DOI: 10.1080/00268976.2014.952696

 Q-Chem 5.4.0 for Intel X86 EM64T Linux

 Parts of Q-Chem use Armadillo 9.800.1 (Horizon Scraper).
 http://arma.sourceforge.net/

 Q-Chem begins on Sun Sep 24 15:58:23 2023  

 Host: 
0

     Scratch files written to ./qchem3739432//
 May1621 |scratch|qcdevops|jenkins|workspace|build_RNUM    
 Parallel job on  1  processors
 Processing $rem in /cm/shared/apps/spack/cpu/opt/spack/linux-centos8-zen2/gcc-10.2.0/qchem-5.4-akfmr7b3t57bfs6qan3padb2wnb2i7cl/config/preferences:
 Processing $rem in /home/rramji/.qchemrc:
 Symmetry turned off for PCM/SM12/SMD calculation
 Core orbitals will be frozen

 Checking the input file for inconsistencies... 	...done.

 Q-Chem warning in module forms1/BasisType.C, line 2236:

 You are not using the predefined 5D/6D in this basis set.


--------------------------------------------------------------
User input:
--------------------------------------------------------------
$molecule
0 1
C	-0.136106	-0.381707	-0.219723
S	0.068994	0.384493	1.360777
C	0.492794	1.966393	0.685177
C	0.121994	0.582293	-1.205123
C	0.463594	1.857593	-0.713223
H	0.061094	0.354693	-2.279623
H	0.691594	2.708493	-1.372323
C	-0.136106	-1.859907	-0.219723
H	0.403394	-1.860507	0.715877
H	-0.990606	-2.299207	0.273577
H	0.567894	-2.570907	-0.626323
H	0.720694	2.817093	1.336277
$end

$rem
JOBTYPE		SP
EXCHANGE	HF
CORRELATION	pRIMP2
BASIS		cc-pvtz
METHOD		rimp2
AUX_BASIS	rimp2-cc-pvtz
SOLVENT_METHOD	PCM
PURECART	11111
SYMMETRY	false
MEM_TOTAL	110000
SCF_CONVERGENCE = 6
THRESH=10
GUI = 2
$end



$solvent
dielectric 4.90
$end
--------------------------------------------------------------
 ----------------------------------------------------------------
             Standard Nuclear Orientation (Angstroms)
    I     Atom           X                Y                Z
 ----------------------------------------------------------------
    1      C      -0.1361060000    -0.3817070000    -0.2197230000
    2      S       0.0689940000     0.3844930000     1.3607770000
    3      C       0.4927940000     1.9663930000     0.6851770000
    4      C       0.1219940000     0.5822930000    -1.2051230000
    5      C       0.4635940000     1.8575930000    -0.7132230000
    6      H       0.0610940000     0.3546930000    -2.2796230000
    7      H       0.6915940000     2.7084930000    -1.3723230000
    8      C      -0.1361060000    -1.8599070000    -0.2197230000
    9      H       0.4033940000    -1.8605070000     0.7158770000
   10      H      -0.9906060000    -2.2992070000     0.2735770000
   11      H       0.5678940000    -2.5709070000    -0.6263230000
   12      H       0.7206940000     2.8170930000     1.3362770000
 ----------------------------------------------------------------
 Nuclear Repulsion Energy =         271.11895960 hartrees
 There are       26 alpha and       26 beta electrons
 Requested basis set is cc-pVTZ
 There are 98 shells and 268 basis functions

 Total QAlloc Memory Limit 110000 MB
 Mega-Array Size       188 MB
 MEM_STATIC part       192 MB
 Discretize the solute cavity surface with Lebedev spheres
	Using 110 Lebedev grid points for each H atom
	Using 194 Lebedev grid points for other atoms
	Atomic van der Waals radii will be scaled by 1.20
 Remove points where switching function is < 1.0e-08
 Keep 876 surface tesserae and discard 948 interior tesserae
 Molecular Surface Area = 137.678 Angst**2

                       Distance Matrix (Angstroms)
             C (  1)   S (  2)   C (  3)   C (  4)   C (  5)   H (  6)
   S (  2)  1.768363
   C (  3)  2.593826  1.771567
   C (  4)  1.402471  2.574058  2.372016
   C (  5)  2.370158  2.574337  1.402930  1.408917
   H (  6)  2.196443  3.640531  3.402055  1.100028  2.207787
   H (  7)  3.400428  3.641214  2.196256  2.207516  1.100194  2.600211
   C (  8)  1.478200  2.752704  3.981825  2.646124  3.797761  3.030929
   H (  9)  1.831190  2.359607  3.828067  3.120368  3.983744  3.741297
   H ( 10)  2.156460  3.083343  4.534891  3.424540  4.513032  3.829894
   H ( 11)  2.335281  3.596089  4.723639  3.236743  4.430580  3.398438
   H ( 12)  3.658902  2.518503  1.095244  3.436784  2.277541  4.424163
             H (  7)   C (  8)   H (  9)   H ( 10)   H ( 11)
   C (  8)  4.783707
   H (  9)  5.031839  1.080004
   H ( 10)  5.533158  1.080046  1.526867
   H ( 11)  5.333281  1.080028  1.527491  1.820045
   H ( 12)  2.710932  5.002956  4.729220  5.498582  5.736348
 
 Requested basis set is rimp2-cc-pVTZ
 There are 207 shells and 707 basis functions
 A cutoff of  1.0D-10 yielded   4380 shell pairs
 There are     32874 function pairs (     42523 Cartesian)
 Smallest overlap matrix eigenvalue = 1.24E-04

 Scale SEOQF with 1.000000e+00/1.000000e-01/1.000000e-01

 Standard Electronic Orientation quadrupole field applied
 Nucleus-field energy     =     0.0000000033 hartrees
 Guess from superposition of atomic densities
 Warning:  Energy on first SCF cycle will be non-variational
 SAD guess density has 52.000000 electrons

 -----------------------------------------------------------------------
  General SCF calculation program by
  Eric Jon Sundstrom, Paul Horn, Yuezhi Mao, Dmitri Zuev, Alec White,
  David Stuck, Shaama M.S., Shane Yost, Joonho Lee, David Small,
  Daniel Levine, Susi Lehtola, Hugh Burton, Evgeny Epifanovsky,
  Bang C. Huynh
 -----------------------------------------------------------------------
 Hartree-Fock
 using 64 threads for integral computing
 -------------------------------------------------------
 OpenMP Integral computing Module                
 Release: version 1.0, May 2013, Q-Chem Inc. Pittsburgh 
 -------------------------------------------------------
 A restricted SCF calculation will be
 performed using DIIS
 SCF converges when DIIS error is below 1.0e-06
 ---------------------------------------
  Cycle       Energy         DIIS error
 ---------------------------------------
    1    -592.5955000215      3.23e-02  
    2    -590.2955750637      2.19e-03  
    3    -590.3567776366      8.26e-04  
    4    -590.3639664446      3.90e-04  
    5    -590.3659269221      7.18e-05  
    6    -590.3660567623      3.16e-05  
    7    -590.3660895453      1.47e-05  
    8    -590.3660994828      5.90e-06  
    9    -590.3661010250      2.03e-06  
   10    -590.3661011789      6.00e-07  Convergence criterion met
 ---------------------------------------
 SCF time:   CPU 475.42s  wall 9.00s 

************** Final PCM Free Energy Summary **************
 G_electrostatic  =      -0.00536672 hartree =      -3.36766510 kcal/mol
 G_cavitation     =       0.00000000 hartree =       0.00000000 kcal/mol
 G_dispersion     =       0.00000000 hartree =       0.00000000 kcal/mol
 G_repulsion      =       0.00000000 hartree =       0.00000000 kcal/mol
 --------------------------------------------------
 Non-electrostatic Free Energy =       0.00000000 hartree =       0.00000000 kcal/mol
 Total                         =      -0.00536672 hartree =      -3.36766510 kcal/mol
 --------------------------------------------------
 SCF Energy (H0 + V/2)                       =    -590.36610118 
 Solute Internal Energy (H0)                 =    -590.36073446 
 Total Free Energy (H0 + V/2 + non-elec)     =    -590.36610118 hartree
                                             = -370460.31984713 kcal/mol
***********************************************************

 SCF   energy in the final basis set =     -590.3661011789
 Total energy in the final basis set =     -590.3661011789


 --------------------------------------------------------------
  Generalized many-body perturbation theory program
  by Joonho Lee, Fazle Rob, Xintian Feng, Evgeny Epifanovsky

 No regularization used 
 (reg. param. = 0.0000e+00)
  (P|Q)^-1/2 Time:  CPU 5.29 s  wall 0.09 s

 In RI-MP2 calculation: 
 # of frozen core orbitals: 10

 Components of the RIMP2 correlation energy:
        aaaa    correlation energy =        -0.1253125642 a.u.
        abab    correlation energy =        -0.7514389397 a.u.
        bbbb    correlation energy =        -0.1253125642 a.u.
        non-Brillouin singles      =        -0.0000000000 a.u.
        total same-spin energy     =        -0.2506251284 a.u.
        total opposite-spin energy =        -0.7514389397 a.u.

 Total  RIMP2   correlation energy =        -1.0020640680 a.u.
        RIMP2         total energy =      -591.3681652470 a.u.

 RI-MP2 Energy Time:  CPU 23.37 s  wall 0.41 s
 
 --------------------------------------------------------------
 
                    Orbital Energies (a.u.)
 --------------------------------------------------------------
 
 Alpha MOs
 -- Occupied --
-91.9788 -11.2835 -11.2695 -11.2428 -11.2363 -11.2231  -8.9789  -6.6598
 -6.6593  -6.6587  -1.1587  -1.0399  -0.9730  -0.9175  -0.7584  -0.7207
 -0.6718  -0.5959  -0.5687  -0.5632  -0.5337  -0.5007  -0.4642  -0.4525
 -0.3462  -0.3074
 -- Virtual --
  0.1008   0.1479   0.1611   0.1754   0.1911   0.1982   0.2116   0.2238
  0.2411   0.2563   0.3055   0.3204   0.3616   0.3709   0.3943   0.4132
  0.4256   0.4505   0.4608   0.4705   0.4923   0.5015   0.5250   0.5346
  0.5457   0.5615   0.5657   0.5721   0.5990   0.6090   0.6164   0.6204
  0.6309   0.6425   0.6511   0.6613   0.6993   0.7210   0.7304   0.7576
  0.7835   0.8034   0.8302   0.8467   0.8707   0.8819   0.8991   0.9237
  0.9602   0.9821   0.9894   1.0266   1.0538   1.0767   1.1078   1.1192
  1.1462   1.1630   1.1743   1.1963   1.2259   1.2343   1.2504   1.2553
  1.2934   1.3054   1.3436   1.3568   1.3995   1.4028   1.4234   1.4289
  1.4763   1.4818   1.4998   1.5288   1.5373   1.5531   1.5620   1.5763
  1.6036   1.6431   1.6464   1.6626   1.7070   1.7359   1.7557   1.8170
  1.8288   1.8984   1.9141   1.9244   1.9616   1.9924   2.0588   2.1027
  2.1427   2.1755   2.1967   2.2140   2.2558   2.2756   2.3485   2.4054
  2.4305   2.4558   2.4830   2.5106   2.5542   2.5955   2.6133   2.6580
  2.7083   2.7128   2.7169   2.7342   2.7463   2.7792   2.7983   2.8357
  2.8895   2.9038   2.9129   2.9903   3.0001   3.0144   3.0292   3.0366
  3.0513   3.1111   3.1321   3.1404   3.1576   3.2037   3.2116   3.2442
  3.2637   3.2786   3.2996   3.3143   3.3375   3.3513   3.3567   3.3755
  3.3967   3.4189   3.4403   3.4482   3.4548   3.4784   3.4890   3.5009
  3.5062   3.5221   3.5485   3.5733   3.5974   3.6162   3.6554   3.6675
  3.6794   3.7032   3.7201   3.7317   3.7757   3.7931   3.8156   3.8385
  3.8467   3.8875   3.9042   3.9270   3.9314   3.9491   3.9568   3.9858
  4.0069   4.0222   4.0627   4.1060   4.1261   4.1496   4.1661   4.1970
  4.2165   4.2275   4.2567   4.2942   4.3075   4.3370   4.3858   4.3952
  4.4412   4.4604   4.4754   4.5005   4.5371   4.5570   4.6037   4.6390
  4.6719   4.6796   4.7048   4.7584   4.8009   4.8054   4.8366   4.8855
  4.9161   5.0070   5.0291   5.0430   5.0674   5.1598   5.1920   5.2037
  5.2222   5.3037   5.3608   5.4273   5.4612   5.4976   5.5452   5.5976
  5.6321   5.6785   5.8006   5.8274   5.8617   5.9082   6.0014   6.0746
  6.1353   6.3230   6.4323   6.4441   6.7076   9.3567  11.2968  12.7716
 13.9169  14.2755
 --------------------------------------------------------------
 
          Ground-State Mulliken Net Atomic Charges

     Atom                 Charge (a.u.)
  ----------------------------------------
      1 C                     0.020590
      2 S                    -0.004475
      3 C                    -0.232090
      4 C                    -0.230217
      5 C                    -0.186167
      6 H                     0.184889
      7 H                     0.186022
      8 C                    -0.354983
      9 H                     0.120868
     10 H                     0.130481
     11 H                     0.159414
     12 H                     0.205667
  ----------------------------------------
  Sum of atomic charges =     0.000000

 -----------------------------------------------------------------
                    Cartesian Multipole Moments
 -----------------------------------------------------------------
    Charge (ESU x 10^10)
                -0.0000
    Dipole Moment (Debye)
         X       0.6861      Y      -0.3021      Z      -0.4994
       Tot       0.9008
    Quadrupole Moments (Debye-Ang)
        XX     -47.1688     XY       1.3757     YY     -36.7171
        XZ      -0.2763     YZ      -0.1962     ZZ     -42.2526
    Octopole Moments (Debye-Ang^2)
       XXX     -20.7926    XXY     -19.6329    XYY       2.6420
       YYY     -40.2675    XXZ      -7.0010    XYZ       2.4545
       YYZ      -2.1662    XZZ      -3.9913    YZZ      -8.4383
       ZZZ     -28.9791
    Hexadecapole Moments (Debye-Ang^3)
      XXXX     -88.7330   XXXY     -48.6032   XXYY    -105.7837
      XYYY     -31.4139   YYYY    -488.7499   XXXZ      -2.1650
      XXYZ      -5.2636   XYYZ      -1.9917   YYYZ      -9.0312
      XXZZ     -70.7356   XYZZ      -8.6328   YYZZ    -125.9733
      XZZZ       0.0775   YZZZ     -13.2115   ZZZZ    -303.9224
 -----------------------------------------------------------------
 Total job time:  10.06s(wall), 532.71s(cpu) 
 Sun Sep 24 15:58:33 2023

        *************************************************************
        *                                                           *
        *  Thank you very much for using Q-Chem.  Have a nice day.  *
        *                                                           *
        *************************************************************


0 sent ACK to 0 
now end server 0 ... 
cleanup process ... done
remove work dirs ./qchem3739432.0 -- ./qchem3739432.0
rm -rf ./qchem3739432.0
rm -rf ./qchem3739432
