You are running Q-Chem version: 5.4.0

#
# job setting
#
local host:  exp-3-09
current dir: /expanse/lustre/projects/csd626/rramji/aromodel/PNDIT/Hydrogenated_Impropers_Test
input file:  Dimethyl_Naphthalene_Dicarboximide_Phi_25_Theta_260_Thiophene_Hydrogenated_Improper.qcin
output file: 
nprocs     : 1
nthreads   : 64
#
# qchem installation setting
#
QC:          /cm/shared/apps/spack/cpu/opt/spack/linux-centos8-zen2/gcc-10.2.0/qchem-5.4-akfmr7b3t57bfs6qan3padb2wnb2i7cl
QCAUX:       /cm/shared/apps/spack/cpu/opt/spack/linux-centos8-zen2/gcc-10.2.0/qchem-5.4-akfmr7b3t57bfs6qan3padb2wnb2i7cl/qcaux
QCPROG:      /cm/shared/apps/spack/cpu/opt/spack/linux-centos8-zen2/gcc-10.2.0/qchem-5.4-akfmr7b3t57bfs6qan3padb2wnb2i7cl/exe/qcprog.exe
QCPROG_S:    /cm/shared/apps/spack/cpu/opt/spack/linux-centos8-zen2/gcc-10.2.0/qchem-5.4-akfmr7b3t57bfs6qan3padb2wnb2i7cl/exe/qcprog.exe_s
PARALLEL:    -DPARALLEL
QCMPI:       mpich
#
# qchem directory setting
#
qcrun:       qchem3336582
QCSCRATCH:   .
QCLOCALSCR:  
QCTMPDIR:    .
QCFILEPREF:  ./qchem3336582
QCSAVEDIR:   
workdirs:    ./qchem3336582
workdir0:    ./qchem3336582
partmpdirs =  
#
# parallel setting
#
QCRSH:           ssh
QCMPI:           mpich
QCMPIRUN:        /cm/shared/apps/spack/cpu/opt/spack/linux-centos8-zen2/gcc-10.2.0/qchem-5.4-akfmr7b3t57bfs6qan3padb2wnb2i7cl/bin/mpi/mpirun_qchem
QCMACHINEFILE:   ./qchem3336582/hostfile
exp-3-09

#
# env setting
#
exported envs:   QC QCAUX QCSCRATCH QCRUNNAME QCFILEPREF QCPROG QCPROG_S GUIFILE

Running Job 1 of 1 Dimethyl_Naphthalene_Dicarboximide_Phi_25_Theta_260_Thiophene_Hydrogenated_Improper.qcin
qchem Dimethyl_Naphthalene_Dicarboximide_Phi_25_Theta_260_Thiophene_Hydrogenated_Improper.qcin_3336582.0 ./qchem3336582/ 1
/cm/shared/apps/spack/cpu/opt/spack/linux-centos8-zen2/gcc-10.2.0/qchem-5.4-akfmr7b3t57bfs6qan3padb2wnb2i7cl/bin/mpi/mpirun_qchem -machinefile ./qchem3336582/hostfile -np 1 /cm/shared/apps/spack/cpu/opt/spack/linux-centos8-zen2/gcc-10.2.0/qchem-5.4-akfmr7b3t57bfs6qan3padb2wnb2i7cl/exe/qcprog.exe Dimethyl_Naphthalene_Dicarboximide_Phi_25_Theta_260_Thiophene_Hydrogenated_Improper.qcin_3336582.0 ./qchem3336582/

Process 0 of 1 is on exp-3-09 - thread support 0
initial socket setup ...start
initial socket setup ...done 
now start server 0 ... 
                  Welcome to Q-Chem
     A Quantum Leap Into The Future Of Chemistry


 Q-Chem 5.4, Q-Chem, Inc., Pleasanton, CA (2021)

 License issued to: University of California, San Diego (site)

 E. Epifanovsky,  A. T. B. Gilbert,  Xintian Feng,  Joonho Lee,  Yuezhi Mao,  
 N. Mardirossian,  P. Pokhilko,  A. White,  M. Wormit,  M. P. Coons,  
 A. L. Dempwolff,  Zhengting Gan,  D. Hait,  P. R. Horn,  L. D. Jacobson,  
 I. Kaliman,  J. Kussmann,  A. W. Lange,  Ka Un Lao,  D. S. Levine,  Jie Liu,  
 S. C. McKenzie,  A. F. Morrison,  K. Nanda,  F. Plasser,  D. R. Rehn,  
 M. L. Vidal,  Zhi-Qiang You,  Ying Zhu,  B. Alam,  B. Albrecht,  
 A. Aldossary,  E. Alguire,  J. H. Andersen,  D. Barton,  K. Begam,  A. Behn,  
 Y. A. Bernard,  E. J. Berquist,  H. Burton,  A. Carreras,  K. Carter-Fenk,  
 R. Chakraborty,  A. D. Chien,  K. D. Closser,  V. Cofer-Shabica,  
 S. Dasgupta,  Jia Deng,  M. de Wergifosse,  M. Diedenhofen,  Hainam Do,  
 S. Ehlert,  Po-Tung Fang,  S. Fatehi,  Qingguo Feng,  J. Gayvert,  
 Qinghui Ge,  G. Gidofalvi,  M. Goldey,  J. Gomes,  C. Gonzalez-Espinoza,  
 S. Gulania,  A. Gunina,  M. W. D. Hanson-Heine,  P. H. P. Harbach,  
 A. W. Hauser,  M. F. Herbst,  M. Hernandez Vera,  M. Hodecker,  
 Z. C. Holden,  S. Houck,  Xunkun Huang,  Kerwin Hui,  B. C. Huynh,  
 M. Ivanov,  Hyunjun Ji,  Hanjie Jiang,  B. Kaduk,  S. Kaehler,  
 K. Khistyaev,  Jaehoon Kim,  P. Klunzinger,  Z. Koczor-Benda,  
 Joong Hoon Koh,  D. Kosenkov,  L. Koulias,  T. Kowalczyk,  C. M. Krauter,  
 K. Kue,  A. Kunitsa,  T. Kus,  A. Landau,  K. V. Lawler,  D. Lefrancois,  
 S. Lehtola,  Rain Li,  Yi-Pei Li,  Jiashu Liang,  M. Liebenthal,  
 Hung-Hsuan Lin,  You-Sheng Lin,  Fenglai Liu,  Kuan-Yu Liu,  
 M. Loipersberger,  A. Luenser,  A. Manjanath,  P. Manohar,  E. Mansoor,  
 S. F. Manzer,  Shan-Ping Mao,  A. V. Marenich,  T. Markovich,  S. Mason,  
 S. A. Maurer,  P. F. McLaughlin,  M. F. S. J. Menger,  J.-M. Mewes,  
 S. A. Mewes,  P. Morgante,  J. W. Mullinax,  T. S. Nguyen-Beck,  
 K. J. Oosterbaan,  G. Paran,  Alexander C. Paul,  Suranjan K. Paul,  
 F. Pavosevic,  Zheng Pei,  S. Prager,  E. I. Proynov,  E. Ramos,  B. Rana,  
 A. E. Rask,  A. Rettig,  R. M. Richard,  F. Rob,  E. Rossomme,  T. Scheele,  
 M. Scheurer,  M. Schneider,  N. Sergueev,  S. M. Sharada,  W. Skomorowski,  
 D. W. Small,  C. J. Stein,  Yu-Chuan Su,  E. J. Sundstrom,  Zhen Tao,  
 J. Thirman,  T. Tsuchimochi,  N. M. Tubman,  S. P. Veccham,  O. Vydrov,  
 J. Wenzel,  J. Witte,  A. Yamada,  Kun Yao,  S. Yeganeh,  S. R. Yost,  
 A. Zech,  Igor Ying Zhang,  Xing Zhang,  Yu Zhang,  D. Zuev,  
 A. Aspuru-Guzik,  A. T. Bell,  N. A. Besley,  K. B. Bravaya,  B. R. Brooks,  
 D. Casanova,  Jeng-Da Chai,  S. Coriani,  C. J. Cramer,  
 A. E. DePrince, III,  R. A. DiStasio Jr.,  A. Dreuw,  B. D. Dunietz,  
 T. R. Furlani,  W. A. Goddard III,  S. Grimme,  S. Hammes-Schiffer,  
 T. Head-Gordon,  W. J. Hehre,  Chao-Ping Hsu,  T.-C. Jagau,  Yousung Jung,  
 A. Klamt,  Jing Kong,  D. S. Lambrecht,  WanZhen Liang,  N. J. Mayhall,  
 C. W. McCurdy,  J. B. Neaton,  C. Ochsenfeld,  J. A. Parkhill,  R. Peverati,  
 V. A. Rassolov,  Yihan Shao,  L. V. Slipchenko,  T. Stauch,  R. P. Steele,  
 J. E. Subotnik,  A. J. W. Thom,  A. Tkatchenko,  D. G. Truhlar,  
 T. Van Voorhis,  T. A. Wesolowski,  K. B. Whaley,  H. L. Woodcock III,  
 P. M. Zimmerman,  S. Faraji,  P. M. W. Gill,  M. Head-Gordon,  
 J. M. Herbert,  A. I. Krylov

 Contributors to earlier versions of Q-Chem not listed above: 
 R. D. Adamson,  B. Austin,  R. Baer,  J. Baker,  G. J. O. Beran,  
 K. Brandhorst,  S. T. Brown,  E. F. C. Byrd,  A. K. Chakraborty,  
 G. K. L. Chan,  Chun-Min Chang,  Yunqing Chen,  C.-L. Cheng,  
 Siu Hung Chien,  D. M. Chipman,  D. L. Crittenden,  H. Dachsel,  
 R. J. Doerksen,  A. D. Dutoi,  R. G. Edgar,  J. Fosso-Tande,  
 L. Fusti-Molnar,  D. Ghosh,  A. Ghysels,  A. Golubeva-Zadorozhnaya,  
 J. Gonthier,  M. S. Gordon,  S. R. Gwaltney,  G. Hawkins,  J. E. Herr,  
 A. Heyden,  S. Hirata,  E. G. Hohenstein,  G. Kedziora,  F. J. Keil,  
 C. Kelley,  Jihan Kim,  R. A. King,  R. Z. Khaliullin,  P. P. Korambath,  
 W. Kurlancheek,  A. Laurent,  A. M. Lee,  M. S. Lee,  S. V. Levchenko,  
 Ching Yeh Lin,  D. Liotard,  E. Livshits,  R. C. Lochan,  I. Lotan,  
 L. A. Martinez-Martinez,  P. E. Maslen,  N. Nair,  D. P. O'Neill,  
 D. Neuhauser,  E. Neuscamman,  C. M. Oana,  R. Olivares-Amaya,  R. Olson,  
 T. M. Perrine,  B. Peters,  P. A. Pieniazek,  A. Prociuk,  Y. M. Rhee,  
 J. Ritchie,  M. A. Rohrdanz,  E. Rosta,  N. J. Russ,  H. F. Schaefer III,  
 M. W. Schmidt,  N. E. Schultz,  S. Sharma,  N. Shenvi,  C. D. Sherrill,  
 A. C. Simmonett,  A. Sodt,  T. Stein,  D. Stuck,  K. S. Thanthiriwatte,  
 V. Vanovschi,  L. Vogt,  Tao Wang,  A. Warshel,  M. A. Watson,  
 C. F. Williams,  Q. Wu,  X. Xu,  Jun Yang,  W. Zhang,  Yan Zhao

 Please cite Q-Chem as follows:
 Y. Shao et al., Mol. Phys. 113, 184-215 (2015)
 DOI: 10.1080/00268976.2014.952696

 Q-Chem 5.4.0 for Intel X86 EM64T Linux

 Parts of Q-Chem use Armadillo 9.800.1 (Horizon Scraper).
 http://arma.sourceforge.net/

 Q-Chem begins on Sun Sep 24 16:04:02 2023  

 Host: 
0

     Scratch files written to ./qchem3336582//
 May1621 |scratch|qcdevops|jenkins|workspace|build_RNUM    
 Parallel job on  1  processors
 Processing $rem in /cm/shared/apps/spack/cpu/opt/spack/linux-centos8-zen2/gcc-10.2.0/qchem-5.4-akfmr7b3t57bfs6qan3padb2wnb2i7cl/config/preferences:
 Processing $rem in /home/rramji/.qchemrc:
 Symmetry turned off for PCM/SM12/SMD calculation
 Core orbitals will be frozen

 Checking the input file for inconsistencies... 	...done.

 Q-Chem warning in module forms1/BasisType.C, line 2236:

 You are not using the predefined 5D/6D in this basis set.


--------------------------------------------------------------
User input:
--------------------------------------------------------------
$molecule
0 1
C	-0.218955	-0.350804	-0.208858
S	0.116045	0.368096	1.371642
C	0.808145	1.852396	0.696042
C	0.202645	0.553796	-1.194258
C	0.760545	1.750296	-0.702358
H	0.103045	0.340196	-2.268758
H	1.132745	2.548796	-1.361458
C	-0.218955	-1.829004	-0.208858
H	-0.405955	-1.829604	-1.272558
H	0.752645	-2.268304	-0.380158
H	-1.019555	-2.540004	-0.067558
H	1.180245	2.650596	1.347142
$end

$rem
JOBTYPE		SP
EXCHANGE	HF
CORRELATION	pRIMP2
BASIS		cc-pvtz
METHOD		rimp2
AUX_BASIS	rimp2-cc-pvtz
SOLVENT_METHOD	PCM
PURECART	11111
SYMMETRY	false
MEM_TOTAL	110000
SCF_CONVERGENCE = 6
THRESH=10
GUI = 2
$end



$solvent
dielectric 4.90
$end
--------------------------------------------------------------
 ----------------------------------------------------------------
             Standard Nuclear Orientation (Angstroms)
    I     Atom           X                Y                Z
 ----------------------------------------------------------------
    1      C      -0.2189550000    -0.3508040000    -0.2088580000
    2      S       0.1160450000     0.3680960000     1.3716420000
    3      C       0.8081450000     1.8523960000     0.6960420000
    4      C       0.2026450000     0.5537960000    -1.1942580000
    5      C       0.7605450000     1.7502960000    -0.7023580000
    6      H       0.1030450000     0.3401960000    -2.2687580000
    7      H       1.1327450000     2.5487960000    -1.3614580000
    8      C      -0.2189550000    -1.8290040000    -0.2088580000
    9      H      -0.4059550000    -1.8296040000    -1.2725580000
   10      H       0.7526450000    -2.2683040000    -0.3801580000
   11      H      -1.0195550000    -2.5400040000    -0.0675580000
   12      H       1.1802450000     2.6505960000     1.3471420000
 ----------------------------------------------------------------
 Nuclear Repulsion Energy =         270.80837909 hartrees
 There are       26 alpha and       26 beta electrons
 Requested basis set is cc-pVTZ
 There are 98 shells and 268 basis functions

 Total QAlloc Memory Limit 110000 MB
 Mega-Array Size       188 MB
 MEM_STATIC part       192 MB
 Discretize the solute cavity surface with Lebedev spheres
	Using 110 Lebedev grid points for each H atom
	Using 194 Lebedev grid points for other atoms
	Atomic van der Waals radii will be scaled by 1.20
 Remove points where switching function is < 1.0e-08
 Keep 886 surface tesserae and discard 938 interior tesserae
 Molecular Surface Area = 137.831 Angst**2

                       Distance Matrix (Angstroms)
             C (  1)   S (  2)   C (  3)   C (  4)   C (  5)   H (  6)
   S (  2)  1.768339
   C (  3)  2.593814  1.771605
   C (  4)  1.402519  2.574068  2.371967
   C (  5)  2.370144  2.574361  1.402930  1.408840
   H (  6)  2.196441  3.640530  3.402051  1.100043  2.207781
   H (  7)  3.400479  3.641286  2.196280  2.207502  1.100249  2.600267
   C (  8)  1.478200  2.727170  3.927656  2.612756  3.743575  3.008704
   H (  9)  1.831195  3.477666  4.348166  2.461122  3.808088  2.441214
   H ( 10)  2.156422  3.228725  4.259279  2.988228  4.031504  3.285280
   H ( 11)  2.335278  3.437722  4.818376  3.512097  4.688113  3.794873
   H ( 12)  3.658866  2.518517  1.095223  3.436712  2.277529  4.424143
             H (  7)   C (  8)   H (  9)   H ( 10)   H ( 11)
   C (  8)  4.724480
   H (  9)  4.641755  1.080013
   H ( 10)  4.930708  1.079970  1.526823
   H ( 11)  5.674721  1.080022  1.527481  1.819954
   H ( 12)  2.710929  4.944261  5.426882  5.230868  5.812299
 
 Requested basis set is rimp2-cc-pVTZ
 There are 207 shells and 707 basis functions
 A cutoff of  1.0D-10 yielded   4382 shell pairs
 There are     32928 function pairs (     42597 Cartesian)
 Smallest overlap matrix eigenvalue = 1.42E-04

 Scale SEOQF with 1.000000e+00/1.000000e-01/1.000000e-01

 Standard Electronic Orientation quadrupole field applied
 Nucleus-field energy     =     0.0000000052 hartrees
 Guess from superposition of atomic densities
 Warning:  Energy on first SCF cycle will be non-variational
 SAD guess density has 52.000000 electrons

 -----------------------------------------------------------------------
  General SCF calculation program by
  Eric Jon Sundstrom, Paul Horn, Yuezhi Mao, Dmitri Zuev, Alec White,
  David Stuck, Shaama M.S., Shane Yost, Joonho Lee, David Small,
  Daniel Levine, Susi Lehtola, Hugh Burton, Evgeny Epifanovsky,
  Bang C. Huynh
 -----------------------------------------------------------------------
 Hartree-Fock
 using 64 threads for integral computing
 -------------------------------------------------------
 OpenMP Integral computing Module                
 Release: version 1.0, May 2013, Q-Chem Inc. Pittsburgh 
 -------------------------------------------------------
 A restricted SCF calculation will be
 performed using DIIS
 SCF converges when DIIS error is below 1.0e-06
 ---------------------------------------
  Cycle       Energy         DIIS error
 ---------------------------------------
    1    -592.5842659486      3.22e-02  
    2    -590.2950939598      2.14e-03  
    3    -590.3549269227      7.52e-04  
    4    -590.3613596872      3.64e-04  
    5    -590.3630292493      7.00e-05  
    6    -590.3631512862      2.92e-05  
    7    -590.3631823887      1.51e-05  
    8    -590.3631924186      5.76e-06  
    9    -590.3631941582      2.25e-06  
   10    -590.3631943248      6.57e-07  Convergence criterion met
 ---------------------------------------
 SCF time:   CPU 514.98s  wall 10.00s 

************** Final PCM Free Energy Summary **************
 G_electrostatic  =      -0.00561774 hartree =      -3.52518804 kcal/mol
 G_cavitation     =       0.00000000 hartree =       0.00000000 kcal/mol
 G_dispersion     =       0.00000000 hartree =       0.00000000 kcal/mol
 G_repulsion      =       0.00000000 hartree =       0.00000000 kcal/mol
 --------------------------------------------------
 Non-electrostatic Free Energy =       0.00000000 hartree =       0.00000000 kcal/mol
 Total                         =      -0.00561774 hartree =      -3.52518804 kcal/mol
 --------------------------------------------------
 SCF Energy (H0 + V/2)                       =    -590.36319432 
 Solute Internal Energy (H0)                 =    -590.35757658 
 Total Free Energy (H0 + V/2 + non-elec)     =    -590.36319432 hartree
                                             = -370458.49576860 kcal/mol
***********************************************************

 SCF   energy in the final basis set =     -590.3631943248
 Total energy in the final basis set =     -590.3631943248


 --------------------------------------------------------------
  Generalized many-body perturbation theory program
  by Joonho Lee, Fazle Rob, Xintian Feng, Evgeny Epifanovsky

 No regularization used 
 (reg. param. = 0.0000e+00)
  (P|Q)^-1/2 Time:  CPU 9.34 s  wall 0.15 s

 In RI-MP2 calculation: 
 # of frozen core orbitals: 10

 Components of the RIMP2 correlation energy:
        aaaa    correlation energy =        -0.1258633069 a.u.
        abab    correlation energy =        -0.7528729713 a.u.
        bbbb    correlation energy =        -0.1258633069 a.u.
        non-Brillouin singles      =        -0.0000000000 a.u.
        total same-spin energy     =        -0.2517266138 a.u.
        total opposite-spin energy =        -0.7528729713 a.u.

 Total  RIMP2   correlation energy =        -1.0045995851 a.u.
        RIMP2         total energy =      -591.3677939099 a.u.

 RI-MP2 Energy Time:  CPU 42.00 s  wall 0.73 s
 
 --------------------------------------------------------------
 
                    Orbital Energies (a.u.)
 --------------------------------------------------------------
 
 Alpha MOs
 -- Occupied --
-91.9739 -11.2807 -11.2720 -11.2441 -11.2429 -11.2221  -8.9742  -6.6551
 -6.6545  -6.6540  -1.1586  -1.0374  -0.9735  -0.9172  -0.7554  -0.7248
 -0.6720  -0.5968  -0.5715  -0.5595  -0.5389  -0.4987  -0.4667  -0.4343
 -0.3446  -0.3123
 -- Virtual --
  0.0941   0.1508   0.1608   0.1763   0.1897   0.1962   0.2094   0.2291
  0.2396   0.2542   0.3075   0.3388   0.3627   0.3688   0.3915   0.4031
  0.4157   0.4523   0.4572   0.4640   0.4804   0.5136   0.5190   0.5331
  0.5384   0.5489   0.5624   0.5855   0.5957   0.6065   0.6169   0.6194
  0.6335   0.6500   0.6633   0.6659   0.6768   0.7201   0.7383   0.7459
  0.7885   0.7964   0.8260   0.8599   0.8663   0.8890   0.8929   0.9337
  0.9402   0.9829   0.9973   1.0228   1.0662   1.0798   1.0995   1.1276
  1.1495   1.1632   1.1684   1.1971   1.2151   1.2339   1.2531   1.2723
  1.2839   1.3169   1.3220   1.3370   1.3453   1.3921   1.4254   1.4439
  1.4638   1.4926   1.5177   1.5345   1.5373   1.5505   1.5608   1.5785
  1.5953   1.6284   1.6572   1.6906   1.7000   1.7378   1.7526   1.7840
  1.8222   1.8835   1.9068   1.9134   1.9504   1.9976   2.0359   2.0943
  2.1309   2.1614   2.1761   2.2125   2.2497   2.2696   2.3342   2.3961
  2.4310   2.4582   2.4911   2.5117   2.5687   2.5951   2.6395   2.6492
  2.6942   2.7215   2.7334   2.7428   2.7512   2.7767   2.8267   2.8550
  2.8873   2.8970   2.9319   2.9372   2.9943   3.0016   3.0245   3.0414
  3.0934   3.1077   3.1298   3.1363   3.1613   3.1877   3.2209   3.2414
  3.2585   3.2713   3.2967   3.3064   3.3313   3.3432   3.3480   3.3549
  3.3966   3.4232   3.4416   3.4523   3.4611   3.4810   3.4948   3.5046
  3.5106   3.5371   3.5567   3.5794   3.5886   3.6180   3.6257   3.6614
  3.6732   3.7002   3.7221   3.7398   3.7517   3.7787   3.8050   3.8297
  3.8343   3.8829   3.9004   3.9162   3.9324   3.9483   3.9708   3.9758
  4.0163   4.0363   4.0431   4.0996   4.1311   4.1433   4.1623   4.1967
  4.2273   4.2412   4.2561   4.2901   4.2990   4.3623   4.3954   4.4186
  4.4524   4.4569   4.4618   4.4979   4.5665   4.5804   4.6292   4.6390
  4.6830   4.6963   4.7104   4.7572   4.7885   4.8065   4.8352   4.8811
  4.9437   4.9954   5.0217   5.0499   5.0899   5.1345   5.1755   5.1894
  5.1987   5.2898   5.3624   5.4204   5.4264   5.4848   5.5333   5.5909
  5.6326   5.7023   5.7947   5.8078   5.9023   5.9415   6.0034   6.0425
  6.0856   6.2943   6.4010   6.4629   6.6508   9.4161  11.3304  12.7002
 13.9055  14.2136
 --------------------------------------------------------------
 
          Ground-State Mulliken Net Atomic Charges

     Atom                 Charge (a.u.)
  ----------------------------------------
      1 C                     0.012969
      2 S                    -0.005650
      3 C                    -0.218743
      4 C                    -0.216032
      5 C                    -0.199193
      6 H                     0.182390
      7 H                     0.187336
      8 C                    -0.357132
      9 H                     0.114802
     10 H                     0.135803
     11 H                     0.159263
     12 H                     0.204185
  ----------------------------------------
  Sum of atomic charges =     0.000000

 -----------------------------------------------------------------
                    Cartesian Multipole Moments
 -----------------------------------------------------------------
    Charge (ESU x 10^10)
                -0.0000
    Dipole Moment (Debye)
         X       0.5494      Y      -0.2462      Z      -1.7809
       Tot       1.8799
    Quadrupole Moments (Debye-Ang)
        XX     -45.8818     XY       3.9608     YY     -37.7583
        XZ       0.2721     YZ       1.9587     ZZ     -42.0312
    Octopole Moments (Debye-Ang^2)
       XXX     -31.7917    XXY     -15.8899    XYY      -2.5134
       YYY     -39.1107    XXZ      -6.3121    XYZ       1.7995
       YYZ      -6.0677    XZZ      -6.6767    YZZ      -7.9425
       ZZZ     -27.8053
    Hexadecapole Moments (Debye-Ang^3)
      XXXX    -125.8228   XXXY     -72.2462   XXYY     -92.7224
      XYYY     -39.6252   YYYY    -464.6980   XXXZ      -4.3036
      XXYZ      -5.3042   XYYZ       1.5712   YYYZ      -9.0450
      XXZZ     -74.7016   XYZZ     -13.6730   YYZZ    -122.8732
      XZZZ      -2.3010   YZZZ     -19.9279   ZZZZ    -308.5079
 -----------------------------------------------------------------
 Total job time:  11.46s(wall), 602.11s(cpu) 
 Sun Sep 24 16:04:14 2023

        *************************************************************
        *                                                           *
        *  Thank you very much for using Q-Chem.  Have a nice day.  *
        *                                                           *
        *************************************************************


0 sent ACK to 0 
now end server 0 ... 
cleanup process ... done
remove work dirs ./qchem3336582.0 -- ./qchem3336582.0
rm -rf ./qchem3336582.0
rm -rf ./qchem3336582
