You are running Q-Chem version: 5.4.0

#
# job setting
#
local host:  exp-9-20
current dir: /expanse/lustre/projects/csd626/rramji/aromodel/P3HT/Hydrogenated_Impropers_Test
input file:  Methylthiophene_Phi_30_Theta_0_Methylthiophene_Hydrogenated_Improper.qcin
output file: 
nprocs     : 1
nthreads   : 64
#
# qchem installation setting
#
QC:          /cm/shared/apps/spack/cpu/opt/spack/linux-centos8-zen2/gcc-10.2.0/qchem-5.4-akfmr7b3t57bfs6qan3padb2wnb2i7cl
QCAUX:       /cm/shared/apps/spack/cpu/opt/spack/linux-centos8-zen2/gcc-10.2.0/qchem-5.4-akfmr7b3t57bfs6qan3padb2wnb2i7cl/qcaux
QCPROG:      /cm/shared/apps/spack/cpu/opt/spack/linux-centos8-zen2/gcc-10.2.0/qchem-5.4-akfmr7b3t57bfs6qan3padb2wnb2i7cl/exe/qcprog.exe
QCPROG_S:    /cm/shared/apps/spack/cpu/opt/spack/linux-centos8-zen2/gcc-10.2.0/qchem-5.4-akfmr7b3t57bfs6qan3padb2wnb2i7cl/exe/qcprog.exe_s
PARALLEL:    -DPARALLEL
QCMPI:       mpich
#
# qchem directory setting
#
qcrun:       qchem48015
QCSCRATCH:   .
QCLOCALSCR:  
QCTMPDIR:    .
QCFILEPREF:  ./qchem48015
QCSAVEDIR:   
workdirs:    ./qchem48015
workdir0:    ./qchem48015
partmpdirs =  
#
# parallel setting
#
QCRSH:           ssh
QCMPI:           mpich
QCMPIRUN:        /cm/shared/apps/spack/cpu/opt/spack/linux-centos8-zen2/gcc-10.2.0/qchem-5.4-akfmr7b3t57bfs6qan3padb2wnb2i7cl/bin/mpi/mpirun_qchem
QCMACHINEFILE:   ./qchem48015/hostfile
exp-9-20

#
# env setting
#
exported envs:   QC QCAUX QCSCRATCH QCRUNNAME QCFILEPREF QCPROG QCPROG_S GUIFILE

Running Job 1 of 1 Methylthiophene_Phi_30_Theta_0_Methylthiophene_Hydrogenated_Improper.qcin
qchem Methylthiophene_Phi_30_Theta_0_Methylthiophene_Hydrogenated_Improper.qcin_48015.0 ./qchem48015/ 1
/cm/shared/apps/spack/cpu/opt/spack/linux-centos8-zen2/gcc-10.2.0/qchem-5.4-akfmr7b3t57bfs6qan3padb2wnb2i7cl/bin/mpi/mpirun_qchem -machinefile ./qchem48015/hostfile -np 1 /cm/shared/apps/spack/cpu/opt/spack/linux-centos8-zen2/gcc-10.2.0/qchem-5.4-akfmr7b3t57bfs6qan3padb2wnb2i7cl/exe/qcprog.exe Methylthiophene_Phi_30_Theta_0_Methylthiophene_Hydrogenated_Improper.qcin_48015.0 ./qchem48015/

Process 0 of 1 is on exp-9-20 - thread support 0
initial socket setup ...start
initial socket setup ...done 
now start server 0 ... 
                  Welcome to Q-Chem
     A Quantum Leap Into The Future Of Chemistry


 Q-Chem 5.4, Q-Chem, Inc., Pleasanton, CA (2021)

 License issued to: University of California, San Diego (site)

 E. Epifanovsky,  A. T. B. Gilbert,  Xintian Feng,  Joonho Lee,  Yuezhi Mao,  
 N. Mardirossian,  P. Pokhilko,  A. White,  M. Wormit,  M. P. Coons,  
 A. L. Dempwolff,  Zhengting Gan,  D. Hait,  P. R. Horn,  L. D. Jacobson,  
 I. Kaliman,  J. Kussmann,  A. W. Lange,  Ka Un Lao,  D. S. Levine,  Jie Liu,  
 S. C. McKenzie,  A. F. Morrison,  K. Nanda,  F. Plasser,  D. R. Rehn,  
 M. L. Vidal,  Zhi-Qiang You,  Ying Zhu,  B. Alam,  B. Albrecht,  
 A. Aldossary,  E. Alguire,  J. H. Andersen,  D. Barton,  K. Begam,  A. Behn,  
 Y. A. Bernard,  E. J. Berquist,  H. Burton,  A. Carreras,  K. Carter-Fenk,  
 R. Chakraborty,  A. D. Chien,  K. D. Closser,  V. Cofer-Shabica,  
 S. Dasgupta,  Jia Deng,  M. de Wergifosse,  M. Diedenhofen,  Hainam Do,  
 S. Ehlert,  Po-Tung Fang,  S. Fatehi,  Qingguo Feng,  J. Gayvert,  
 Qinghui Ge,  G. Gidofalvi,  M. Goldey,  J. Gomes,  C. Gonzalez-Espinoza,  
 S. Gulania,  A. Gunina,  M. W. D. Hanson-Heine,  P. H. P. Harbach,  
 A. W. Hauser,  M. F. Herbst,  M. Hernandez Vera,  M. Hodecker,  
 Z. C. Holden,  S. Houck,  Xunkun Huang,  Kerwin Hui,  B. C. Huynh,  
 M. Ivanov,  Hyunjun Ji,  Hanjie Jiang,  B. Kaduk,  S. Kaehler,  
 K. Khistyaev,  Jaehoon Kim,  P. Klunzinger,  Z. Koczor-Benda,  
 Joong Hoon Koh,  D. Kosenkov,  L. Koulias,  T. Kowalczyk,  C. M. Krauter,  
 K. Kue,  A. Kunitsa,  T. Kus,  A. Landau,  K. V. Lawler,  D. Lefrancois,  
 S. Lehtola,  Rain Li,  Yi-Pei Li,  Jiashu Liang,  M. Liebenthal,  
 Hung-Hsuan Lin,  You-Sheng Lin,  Fenglai Liu,  Kuan-Yu Liu,  
 M. Loipersberger,  A. Luenser,  A. Manjanath,  P. Manohar,  E. Mansoor,  
 S. F. Manzer,  Shan-Ping Mao,  A. V. Marenich,  T. Markovich,  S. Mason,  
 S. A. Maurer,  P. F. McLaughlin,  M. F. S. J. Menger,  J.-M. Mewes,  
 S. A. Mewes,  P. Morgante,  J. W. Mullinax,  T. S. Nguyen-Beck,  
 K. J. Oosterbaan,  G. Paran,  Alexander C. Paul,  Suranjan K. Paul,  
 F. Pavosevic,  Zheng Pei,  S. Prager,  E. I. Proynov,  E. Ramos,  B. Rana,  
 A. E. Rask,  A. Rettig,  R. M. Richard,  F. Rob,  E. Rossomme,  T. Scheele,  
 M. Scheurer,  M. Schneider,  N. Sergueev,  S. M. Sharada,  W. Skomorowski,  
 D. W. Small,  C. J. Stein,  Yu-Chuan Su,  E. J. Sundstrom,  Zhen Tao,  
 J. Thirman,  T. Tsuchimochi,  N. M. Tubman,  S. P. Veccham,  O. Vydrov,  
 J. Wenzel,  J. Witte,  A. Yamada,  Kun Yao,  S. Yeganeh,  S. R. Yost,  
 A. Zech,  Igor Ying Zhang,  Xing Zhang,  Yu Zhang,  D. Zuev,  
 A. Aspuru-Guzik,  A. T. Bell,  N. A. Besley,  K. B. Bravaya,  B. R. Brooks,  
 D. Casanova,  Jeng-Da Chai,  S. Coriani,  C. J. Cramer,  
 A. E. DePrince, III,  R. A. DiStasio Jr.,  A. Dreuw,  B. D. Dunietz,  
 T. R. Furlani,  W. A. Goddard III,  S. Grimme,  S. Hammes-Schiffer,  
 T. Head-Gordon,  W. J. Hehre,  Chao-Ping Hsu,  T.-C. Jagau,  Yousung Jung,  
 A. Klamt,  Jing Kong,  D. S. Lambrecht,  WanZhen Liang,  N. J. Mayhall,  
 C. W. McCurdy,  J. B. Neaton,  C. Ochsenfeld,  J. A. Parkhill,  R. Peverati,  
 V. A. Rassolov,  Yihan Shao,  L. V. Slipchenko,  T. Stauch,  R. P. Steele,  
 J. E. Subotnik,  A. J. W. Thom,  A. Tkatchenko,  D. G. Truhlar,  
 T. Van Voorhis,  T. A. Wesolowski,  K. B. Whaley,  H. L. Woodcock III,  
 P. M. Zimmerman,  S. Faraji,  P. M. W. Gill,  M. Head-Gordon,  
 J. M. Herbert,  A. I. Krylov

 Contributors to earlier versions of Q-Chem not listed above: 
 R. D. Adamson,  B. Austin,  R. Baer,  J. Baker,  G. J. O. Beran,  
 K. Brandhorst,  S. T. Brown,  E. F. C. Byrd,  A. K. Chakraborty,  
 G. K. L. Chan,  Chun-Min Chang,  Yunqing Chen,  C.-L. Cheng,  
 Siu Hung Chien,  D. M. Chipman,  D. L. Crittenden,  H. Dachsel,  
 R. J. Doerksen,  A. D. Dutoi,  R. G. Edgar,  J. Fosso-Tande,  
 L. Fusti-Molnar,  D. Ghosh,  A. Ghysels,  A. Golubeva-Zadorozhnaya,  
 J. Gonthier,  M. S. Gordon,  S. R. Gwaltney,  G. Hawkins,  J. E. Herr,  
 A. Heyden,  S. Hirata,  E. G. Hohenstein,  G. Kedziora,  F. J. Keil,  
 C. Kelley,  Jihan Kim,  R. A. King,  R. Z. Khaliullin,  P. P. Korambath,  
 W. Kurlancheek,  A. Laurent,  A. M. Lee,  M. S. Lee,  S. V. Levchenko,  
 Ching Yeh Lin,  D. Liotard,  E. Livshits,  R. C. Lochan,  I. Lotan,  
 L. A. Martinez-Martinez,  P. E. Maslen,  N. Nair,  D. P. O'Neill,  
 D. Neuhauser,  E. Neuscamman,  C. M. Oana,  R. Olivares-Amaya,  R. Olson,  
 T. M. Perrine,  B. Peters,  P. A. Pieniazek,  A. Prociuk,  Y. M. Rhee,  
 J. Ritchie,  M. A. Rohrdanz,  E. Rosta,  N. J. Russ,  H. F. Schaefer III,  
 M. W. Schmidt,  N. E. Schultz,  S. Sharma,  N. Shenvi,  C. D. Sherrill,  
 A. C. Simmonett,  A. Sodt,  T. Stein,  D. Stuck,  K. S. Thanthiriwatte,  
 V. Vanovschi,  L. Vogt,  Tao Wang,  A. Warshel,  M. A. Watson,  
 C. F. Williams,  Q. Wu,  X. Xu,  Jun Yang,  W. Zhang,  Yan Zhao

 Please cite Q-Chem as follows:
 Y. Shao et al., Mol. Phys. 113, 184-215 (2015)
 DOI: 10.1080/00268976.2014.952696

 Q-Chem 5.4.0 for Intel X86 EM64T Linux

 Parts of Q-Chem use Armadillo 9.800.1 (Horizon Scraper).
 http://arma.sourceforge.net/

 Q-Chem begins on Fri Oct 20 15:14:39 2023  

 Host: 
0

     Scratch files written to ./qchem48015//
 May1621 |scratch|qcdevops|jenkins|workspace|build_RNUM    
 Parallel job on  1  processors
 Processing $rem in /cm/shared/apps/spack/cpu/opt/spack/linux-centos8-zen2/gcc-10.2.0/qchem-5.4-akfmr7b3t57bfs6qan3padb2wnb2i7cl/config/preferences:
 Processing $rem in /home/rramji/.qchemrc:
 Symmetry turned off for PCM/SM12/SMD calculation
 Core orbitals will be frozen

 Checking the input file for inconsistencies... 	...done.

 Q-Chem warning in module forms1/BasisType.C, line 2236:

 You are not using the predefined 5D/6D in this basis set.


--------------------------------------------------------------
User input:
--------------------------------------------------------------
$molecule
0 1
C	-0.300424	-0.513556	0.014457
C	0.064576	0.269144	1.113857
C	0.649476	1.523344	0.791157
H	-0.091324	-0.065156	2.150557
C	0.742776	1.723344	-0.598043
S	0.097876	0.340544	-1.472343
C	1.109176	2.509144	1.829057
H	0.929276	2.123444	2.851157
H	0.576876	3.479344	1.740657
H	2.194476	2.725044	1.740657
C	-0.174824	-1.948756	0.014457
H	0.901076	-1.854856	0.014557
H	-0.113424	-2.649856	-0.804743
H	-0.129624	-2.465756	0.961557
H	1.143876	2.583644	-1.147143
$end

$rem
JOBTYPE		SP
EXCHANGE	HF
CORRELATION	pRIMP2
BASIS		cc-pvtz
METHOD		rimp2
AUX_BASIS	rimp2-cc-pvtz
SOLVENT_METHOD	PCM
PURECART	11111
SYMMETRY	false
MEM_TOTAL	110000
SCF_CONVERGENCE = 6
THRESH=10
GUI = 2
$end



$solvent
dielectric 4.90
$end
--------------------------------------------------------------
 ----------------------------------------------------------------
             Standard Nuclear Orientation (Angstroms)
    I     Atom           X                Y                Z
 ----------------------------------------------------------------
    1      C      -0.3004240000    -0.5135560000     0.0144570000
    2      C       0.0645760000     0.2691440000     1.1138570000
    3      C       0.6494760000     1.5233440000     0.7911570000
    4      H      -0.0913240000    -0.0651560000     2.1505570000
    5      C       0.7427760000     1.7233440000    -0.5980430000
    6      S       0.0978760000     0.3405440000    -1.4723430000
    7      C       1.1091760000     2.5091440000     1.8290570000
    8      H       0.9292760000     2.1234440000     2.8511570000
    9      H       0.5768760000     3.4793440000     1.7406570000
   10      H       2.1944760000     2.7250440000     1.7406570000
   11      C      -0.1748240000    -1.9487560000     0.0144570000
   12      H       0.9010760000    -1.8548560000     0.0145570000
   13      H      -0.1134240000    -2.6498560000    -0.8047430000
   14      H      -0.1296240000    -2.4657560000     0.9615570000
   15      H       1.1438760000     2.5836440000    -1.1471430000
 ----------------------------------------------------------------
 Nuclear Repulsion Energy =         346.45642111 hartrees
 There are       30 alpha and       30 beta electrons
 Requested basis set is cc-pVTZ
 There are 120 shells and 326 basis functions

 Total QAlloc Memory Limit 110000 MB
 Mega-Array Size       188 MB
 MEM_STATIC part       192 MB
 Discretize the solute cavity surface with Lebedev spheres
	Using 110 Lebedev grid points for each H atom
	Using 194 Lebedev grid points for other atoms
	Atomic van der Waals radii will be scaled by 1.20
 Remove points where switching function is < 1.0e-08
 Keep 1059 surface tesserae and discard 1179 interior tesserae
 Molecular Surface Area = 158.143 Angst**2

                       Distance Matrix (Angstroms)
             C (  1)   C (  2)   C (  3)   H (  4)   C (  5)   S (  6)
   C (  2)  1.398043
   C (  3)  2.377927  1.421007
   H (  4)  2.192649  1.100367  2.218127
   C (  5)  2.543058  2.346328  1.406621  3.383675
   S (  6)  1.760314  2.587400  2.612797  3.650451  1.758531
   C (  7)  3.796901  2.572994  1.503450  2.858598  2.577314  4.077352
   H (  8)  4.063594  2.684091  2.163795  2.514445  3.477333  4.750012
   H (  9)  4.437643  3.310697  2.175490  3.630150  2.929262  4.517176
   H ( 10)  4.437660  3.310709  2.175467  3.630167  2.929224  4.517183
   C ( 11)  1.440685  2.486981  3.652152  2.849183  3.834249  2.743325
   H ( 12)  1.800746  2.533687  3.475435  2.958104  3.633711  2.770520
   H ( 13)  2.295612  3.497609  4.532605  3.926189  4.461018  3.071291
   H ( 14)  2.176524  2.746013  4.068040  2.679192  4.554338  3.721686
   H ( 15)  3.609427  3.410853  2.263995  4.406437  1.096589  2.496271
             C (  7)   H (  8)   H (  9)   H ( 10)   C ( 11)   H ( 12)
   H (  8)  1.107166
   H (  9)  1.110156  1.787697
   H ( 10)  1.110092  1.787698  1.784824
   C ( 11)  4.981396  5.084163  5.745354  5.517042
   H ( 12)  4.730773  4.886099  5.615890  5.062390  1.079990
   H ( 13)  5.920045  6.102231  6.672531  6.379264  1.080000  1.527248
   H ( 14)  5.199693  5.074703  6.037413  5.740457  1.079968  1.527203
   H ( 15)  2.977335  4.030414  3.076224  3.076222  4.861166  4.594429
             H ( 13)   H ( 14)
   H ( 14)  1.775942
   H ( 15)  5.393289  5.618261
 
 Requested basis set is rimp2-cc-pVTZ
 There are 250 shells and 848 basis functions
 A cutoff of  1.0D-10 yielded   6247 shell pairs
 There are     45841 function pairs (     58955 Cartesian)
 Smallest overlap matrix eigenvalue = 1.20E-04

 Scale SEOQF with 1.000000e-01/1.000000e-01/1.000000e-01

 Standard Electronic Orientation quadrupole field applied
 Nucleus-field energy     =     0.0000000014 hartrees
 Guess from superposition of atomic densities
 Warning:  Energy on first SCF cycle will be non-variational
 SAD guess density has 60.000000 electrons

 -----------------------------------------------------------------------
  General SCF calculation program by
  Eric Jon Sundstrom, Paul Horn, Yuezhi Mao, Dmitri Zuev, Alec White,
  David Stuck, Shaama M.S., Shane Yost, Joonho Lee, David Small,
  Daniel Levine, Susi Lehtola, Hugh Burton, Evgeny Epifanovsky,
  Bang C. Huynh
 -----------------------------------------------------------------------
 Hartree-Fock
 using 64 threads for integral computing
 -------------------------------------------------------
 OpenMP Integral computing Module                
 Release: version 1.0, May 2013, Q-Chem Inc. Pittsburgh 
 -------------------------------------------------------
 A restricted SCF calculation will be
 performed using DIIS
 SCF converges when DIIS error is below 1.0e-06
 ---------------------------------------
  Cycle       Energy         DIIS error
 ---------------------------------------
    1    -632.1261564590      2.93e-02  
    2    -629.3289856278      1.94e-03  
    3    -629.3993601988      6.88e-04  
    4    -629.4068996684      3.55e-04  
    5    -629.4090877773      6.31e-05  
    6    -629.4092215459      2.63e-05  
    7    -629.4092546480      1.15e-05  
    8    -629.4092640823      5.29e-06  
    9    -629.4092657297      1.75e-06  
   10    -629.4092659441      6.55e-07  Convergence criterion met
 ---------------------------------------
 SCF time:   CPU 690.65s  wall 14.00s 

************** Final PCM Free Energy Summary **************
 G_electrostatic  =      -0.00550063 hartree =      -3.45169625 kcal/mol
 G_cavitation     =       0.00000000 hartree =       0.00000000 kcal/mol
 G_dispersion     =       0.00000000 hartree =       0.00000000 kcal/mol
 G_repulsion      =       0.00000000 hartree =       0.00000000 kcal/mol
 --------------------------------------------------
 Non-electrostatic Free Energy =       0.00000000 hartree =       0.00000000 kcal/mol
 Total                         =      -0.00550063 hartree =      -3.45169625 kcal/mol
 --------------------------------------------------
 SCF Energy (H0 + V/2)                       =    -629.40926594 
 Solute Internal Energy (H0)                 =    -629.40376532 
 Total Free Energy (H0 + V/2 + non-elec)     =    -629.40926594 hartree
                                             = -394960.27551507 kcal/mol
***********************************************************

 SCF   energy in the final basis set =     -629.4092659441
 Total energy in the final basis set =     -629.4092659441


 --------------------------------------------------------------
  Generalized many-body perturbation theory program
  by Joonho Lee, Fazle Rob, Xintian Feng, Evgeny Epifanovsky

 No regularization used 
 (reg. param. = 0.0000e+00)
  (P|Q)^-1/2 Time:  CPU 7.87 s  wall 0.13 s

 In RI-MP2 calculation: 
 # of frozen core orbitals: 11

 Components of the RIMP2 correlation energy:
        aaaa    correlation energy =        -0.1457634340 a.u.
        abab    correlation energy =        -0.8876052939 a.u.
        bbbb    correlation energy =        -0.1457634340 a.u.
        non-Brillouin singles      =        -0.0000000000 a.u.
        total same-spin energy     =        -0.2915268680 a.u.
        total opposite-spin energy =        -0.8876052939 a.u.

 Total  RIMP2   correlation energy =        -1.1791321619 a.u.
        RIMP2         total energy =      -630.5883981060 a.u.

 RI-MP2 Energy Time:  CPU 37.53 s  wall 0.67 s
 
 --------------------------------------------------------------
 
                    Orbital Energies (a.u.)
 --------------------------------------------------------------
 
 Alpha MOs
 -- Occupied --
-91.9767 -11.2819 -11.2536 -11.2481 -11.2271 -11.2263 -11.2213  -8.9769
 -6.6578  -6.6572  -6.6567  -1.1643  -1.0569  -0.9970  -0.9401  -0.8820
 -0.7451  -0.7208  -0.6464  -0.5884  -0.5804  -0.5682  -0.5523  -0.5459
 -0.5078  -0.4928  -0.4623  -0.4561  -0.3390  -0.2876
 -- Virtual --
  0.0977   0.1450   0.1540   0.1752   0.1856   0.1930   0.2125   0.2193
  0.2214   0.2437   0.2493   0.2586   0.2980   0.3283   0.3415   0.3503
  0.3802   0.3934   0.4018   0.4212   0.4403   0.4606   0.4619   0.4747
  0.4922   0.4955   0.5169   0.5323   0.5402   0.5590   0.5663   0.5867
  0.5918   0.6046   0.6094   0.6210   0.6314   0.6389   0.6420   0.6473
  0.6585   0.6718   0.6771   0.6956   0.7086   0.7506   0.7697   0.7846
  0.7989   0.8221   0.8399   0.8422   0.8610   0.8876   0.8962   0.9256
  0.9473   0.9714   1.0084   1.0286   1.0379   1.0539   1.0734   1.0762
  1.0826   1.1106   1.1194   1.1339   1.1534   1.1664   1.1802   1.2005
  1.2313   1.2487   1.2536   1.2599   1.2721   1.3051   1.3139   1.3312
  1.3580   1.3717   1.3899   1.4170   1.4306   1.4380   1.4684   1.4715
  1.4792   1.5021   1.5089   1.5244   1.5354   1.5502   1.5533   1.5800
  1.5916   1.6278   1.6437   1.6688   1.6875   1.6993   1.7254   1.7616
  1.7623   1.7947   1.8044   1.8220   1.8906   1.9242   1.9428   1.9770
  2.0140   2.0370   2.0979   2.1303   2.1776   2.1892   2.2231   2.2466
  2.2712   2.2882   2.3370   2.4086   2.4263   2.4790   2.4960   2.5454
  2.5652   2.5973   2.6069   2.6502   2.6753   2.6887   2.7137   2.7457
  2.7505   2.7674   2.7847   2.7898   2.8260   2.8467   2.8673   2.8942
  2.9011   2.9622   2.9675   2.9968   3.0200   3.0419   3.0473   3.0936
  3.1023   3.1136   3.1240   3.1305   3.1455   3.1542   3.1786   3.1817
  3.1892   3.2439   3.2524   3.2746   3.2871   3.2999   3.3100   3.3281
  3.3350   3.3634   3.3771   3.3920   3.4007   3.4069   3.4204   3.4430
  3.4548   3.4746   3.4937   3.5015   3.5091   3.5251   3.5493   3.5588
  3.5663   3.5863   3.6160   3.6194   3.6324   3.6338   3.6477   3.6843
  3.6989   3.7067   3.7220   3.7423   3.7522   3.7598   3.7937   3.8063
  3.8137   3.8441   3.8560   3.8843   3.8975   3.9218   3.9340   3.9550
  3.9918   4.0109   4.0315   4.0418   4.0454   4.0661   4.1041   4.1132
  4.1306   4.1568   4.1657   4.2006   4.2187   4.2324   4.2432   4.2774
  4.2969   4.2977   4.3207   4.3370   4.3520   4.3832   4.4000   4.4025
  4.4043   4.4492   4.4550   4.4600   4.4864   4.5106   4.5386   4.5712
  4.5892   4.6204   4.6511   4.6797   4.7145   4.7484   4.7528   4.7750
  4.8238   4.8324   4.8603   4.8749   4.8954   4.9285   5.0804   5.0976
  5.1108   5.1271   5.1546   5.1930   5.2135   5.2618   5.2862   5.3352
  5.3676   5.4029   5.4214   5.4356   5.4600   5.5175   5.5468   5.5656
  5.5941   5.6029   5.6234   5.6794   5.6983   5.8138   5.8286   5.8523
  5.9359   5.9670   6.0260   6.1731   6.2286   6.2445   6.2933   6.3736
  6.4252   6.4873   9.1843  11.4728  12.8702  13.7214  14.1800  14.4535
 --------------------------------------------------------------
 
          Ground-State Mulliken Net Atomic Charges

     Atom                 Charge (a.u.)
  ----------------------------------------
      1 C                     0.047207
      2 C                    -0.306517
      3 C                     0.056960
      4 H                     0.175534
      5 C                    -0.274119
      6 S                    -0.000662
      7 C                    -0.270148
      8 H                     0.101699
      9 H                     0.107723
     10 H                     0.106546
     11 C                    -0.373455
     12 H                     0.149298
     13 H                     0.155273
     14 H                     0.131919
     15 H                     0.192743
  ----------------------------------------
  Sum of atomic charges =     0.000000

 -----------------------------------------------------------------
                    Cartesian Multipole Moments
 -----------------------------------------------------------------
    Charge (ESU x 10^10)
                -0.0000
    Dipole Moment (Debye)
         X       1.3967      Y      -0.5001      Z       1.4768
       Tot       2.0932
    Quadrupole Moments (Debye-Ang)
        XX     -53.2223     XY       1.7996     YY     -43.8715
        XZ       0.1555     YZ       0.3410     ZZ     -48.5084
    Octopole Moments (Debye-Ang^2)
       XXX     -47.2239    XXY     -23.8336    XYY      -5.6647
       YYY     -74.3438    XXZ      -2.4260    XYZ      -1.0629
       YYZ      -4.5725    XZZ     -13.6579    YZZ     -23.2618
       ZZZ       1.1565
    Hexadecapole Moments (Debye-Ang^3)
      XXXX    -174.4239   XXXY    -112.7673   XXYY    -153.5701
      XYYY    -105.6094   YYYY    -716.6131   XXXZ     -38.7918
      XXYZ     -29.2637   XYYZ     -17.1474   YYYZ     -88.8560
      XXZZ    -114.9031   XYZZ     -30.5554   YYZZ    -194.5065
      XZZZ     -43.1341   YZZZ     -91.4956   ZZZZ    -483.7012
 -----------------------------------------------------------------
 Total job time:  18.66s(wall), 789.04s(cpu) 
 Fri Oct 20 15:14:58 2023

        *************************************************************
        *                                                           *
        *  Thank you very much for using Q-Chem.  Have a nice day.  *
        *                                                           *
        *************************************************************


0 sent ACK to 0 
now end server 0 ... 
cleanup process ... done
remove work dirs ./qchem48015.0 -- ./qchem48015.0
rm -rf ./qchem48015.0
rm -rf ./qchem48015
