You are running Q-Chem version: 5.4.0

#
# job setting
#
local host:  exp-7-21
current dir: /home/rramji/project-csd799/aromodel/p3ht-qchem/methylated-rotation-run
input file:  Methylthiophene_Phi_20_Theta_0_Methylthiophene_Hydrogenated_Improper.qcin
output file: 
nprocs     : 1
nthreads   : 64
#
# qchem installation setting
#
QC:          /cm/shared/apps/spack/cpu/opt/spack/linux-centos8-zen2/gcc-10.2.0/qchem-5.4-akfmr7b3t57bfs6qan3padb2wnb2i7cl
QCAUX:       /cm/shared/apps/spack/cpu/opt/spack/linux-centos8-zen2/gcc-10.2.0/qchem-5.4-akfmr7b3t57bfs6qan3padb2wnb2i7cl/qcaux
QCPROG:      /cm/shared/apps/spack/cpu/opt/spack/linux-centos8-zen2/gcc-10.2.0/qchem-5.4-akfmr7b3t57bfs6qan3padb2wnb2i7cl/exe/qcprog.exe
QCPROG_S:    /cm/shared/apps/spack/cpu/opt/spack/linux-centos8-zen2/gcc-10.2.0/qchem-5.4-akfmr7b3t57bfs6qan3padb2wnb2i7cl/exe/qcprog.exe_s
PARALLEL:    -DPARALLEL
QCMPI:       mpich
#
# qchem directory setting
#
qcrun:       qchem14262
QCSCRATCH:   .
QCLOCALSCR:  
QCTMPDIR:    .
QCFILEPREF:  ./qchem14262
QCSAVEDIR:   
workdirs:    ./qchem14262
workdir0:    ./qchem14262
partmpdirs =  
#
# parallel setting
#
QCRSH:           ssh
QCMPI:           mpich
QCMPIRUN:        /cm/shared/apps/spack/cpu/opt/spack/linux-centos8-zen2/gcc-10.2.0/qchem-5.4-akfmr7b3t57bfs6qan3padb2wnb2i7cl/bin/mpi/mpirun_qchem
QCMACHINEFILE:   ./qchem14262/hostfile
exp-7-21

#
# env setting
#
exported envs:   QC QCAUX QCSCRATCH QCRUNNAME QCFILEPREF QCPROG QCPROG_S GUIFILE

Running Job 1 of 1 Methylthiophene_Phi_20_Theta_0_Methylthiophene_Hydrogenated_Improper.qcin
qchem Methylthiophene_Phi_20_Theta_0_Methylthiophene_Hydrogenated_Improper.qcin_14262.0 ./qchem14262/ 1
/cm/shared/apps/spack/cpu/opt/spack/linux-centos8-zen2/gcc-10.2.0/qchem-5.4-akfmr7b3t57bfs6qan3padb2wnb2i7cl/bin/mpi/mpirun_qchem -machinefile ./qchem14262/hostfile -np 1 /cm/shared/apps/spack/cpu/opt/spack/linux-centos8-zen2/gcc-10.2.0/qchem-5.4-akfmr7b3t57bfs6qan3padb2wnb2i7cl/exe/qcprog.exe Methylthiophene_Phi_20_Theta_0_Methylthiophene_Hydrogenated_Improper.qcin_14262.0 ./qchem14262/

Process 0 of 1 is on exp-7-21 - thread support 0
initial socket setup ...start
initial socket setup ...done 
now start server 0 ... 
                  Welcome to Q-Chem
     A Quantum Leap Into The Future Of Chemistry


 Q-Chem 5.4, Q-Chem, Inc., Pleasanton, CA (2021)

 License issued to: University of California, San Diego (site)

 E. Epifanovsky,  A. T. B. Gilbert,  Xintian Feng,  Joonho Lee,  Yuezhi Mao,  
 N. Mardirossian,  P. Pokhilko,  A. White,  M. Wormit,  M. P. Coons,  
 A. L. Dempwolff,  Zhengting Gan,  D. Hait,  P. R. Horn,  L. D. Jacobson,  
 I. Kaliman,  J. Kussmann,  A. W. Lange,  Ka Un Lao,  D. S. Levine,  Jie Liu,  
 S. C. McKenzie,  A. F. Morrison,  K. Nanda,  F. Plasser,  D. R. Rehn,  
 M. L. Vidal,  Zhi-Qiang You,  Ying Zhu,  B. Alam,  B. Albrecht,  
 A. Aldossary,  E. Alguire,  J. H. Andersen,  D. Barton,  K. Begam,  A. Behn,  
 Y. A. Bernard,  E. J. Berquist,  H. Burton,  A. Carreras,  K. Carter-Fenk,  
 R. Chakraborty,  A. D. Chien,  K. D. Closser,  V. Cofer-Shabica,  
 S. Dasgupta,  Jia Deng,  M. de Wergifosse,  M. Diedenhofen,  Hainam Do,  
 S. Ehlert,  Po-Tung Fang,  S. Fatehi,  Qingguo Feng,  J. Gayvert,  
 Qinghui Ge,  G. Gidofalvi,  M. Goldey,  J. Gomes,  C. Gonzalez-Espinoza,  
 S. Gulania,  A. Gunina,  M. W. D. Hanson-Heine,  P. H. P. Harbach,  
 A. W. Hauser,  M. F. Herbst,  M. Hernandez Vera,  M. Hodecker,  
 Z. C. Holden,  S. Houck,  Xunkun Huang,  Kerwin Hui,  B. C. Huynh,  
 M. Ivanov,  Hyunjun Ji,  Hanjie Jiang,  B. Kaduk,  S. Kaehler,  
 K. Khistyaev,  Jaehoon Kim,  P. Klunzinger,  Z. Koczor-Benda,  
 Joong Hoon Koh,  D. Kosenkov,  L. Koulias,  T. Kowalczyk,  C. M. Krauter,  
 K. Kue,  A. Kunitsa,  T. Kus,  A. Landau,  K. V. Lawler,  D. Lefrancois,  
 S. Lehtola,  Rain Li,  Yi-Pei Li,  Jiashu Liang,  M. Liebenthal,  
 Hung-Hsuan Lin,  You-Sheng Lin,  Fenglai Liu,  Kuan-Yu Liu,  
 M. Loipersberger,  A. Luenser,  A. Manjanath,  P. Manohar,  E. Mansoor,  
 S. F. Manzer,  Shan-Ping Mao,  A. V. Marenich,  T. Markovich,  S. Mason,  
 S. A. Maurer,  P. F. McLaughlin,  M. F. S. J. Menger,  J.-M. Mewes,  
 S. A. Mewes,  P. Morgante,  J. W. Mullinax,  T. S. Nguyen-Beck,  
 K. J. Oosterbaan,  G. Paran,  Alexander C. Paul,  Suranjan K. Paul,  
 F. Pavosevic,  Zheng Pei,  S. Prager,  E. I. Proynov,  E. Ramos,  B. Rana,  
 A. E. Rask,  A. Rettig,  R. M. Richard,  F. Rob,  E. Rossomme,  T. Scheele,  
 M. Scheurer,  M. Schneider,  N. Sergueev,  S. M. Sharada,  W. Skomorowski,  
 D. W. Small,  C. J. Stein,  Yu-Chuan Su,  E. J. Sundstrom,  Zhen Tao,  
 J. Thirman,  T. Tsuchimochi,  N. M. Tubman,  S. P. Veccham,  O. Vydrov,  
 J. Wenzel,  J. Witte,  A. Yamada,  Kun Yao,  S. Yeganeh,  S. R. Yost,  
 A. Zech,  Igor Ying Zhang,  Xing Zhang,  Yu Zhang,  D. Zuev,  
 A. Aspuru-Guzik,  A. T. Bell,  N. A. Besley,  K. B. Bravaya,  B. R. Brooks,  
 D. Casanova,  Jeng-Da Chai,  S. Coriani,  C. J. Cramer,  
 A. E. DePrince, III,  R. A. DiStasio Jr.,  A. Dreuw,  B. D. Dunietz,  
 T. R. Furlani,  W. A. Goddard III,  S. Grimme,  S. Hammes-Schiffer,  
 T. Head-Gordon,  W. J. Hehre,  Chao-Ping Hsu,  T.-C. Jagau,  Yousung Jung,  
 A. Klamt,  Jing Kong,  D. S. Lambrecht,  WanZhen Liang,  N. J. Mayhall,  
 C. W. McCurdy,  J. B. Neaton,  C. Ochsenfeld,  J. A. Parkhill,  R. Peverati,  
 V. A. Rassolov,  Yihan Shao,  L. V. Slipchenko,  T. Stauch,  R. P. Steele,  
 J. E. Subotnik,  A. J. W. Thom,  A. Tkatchenko,  D. G. Truhlar,  
 T. Van Voorhis,  T. A. Wesolowski,  K. B. Whaley,  H. L. Woodcock III,  
 P. M. Zimmerman,  S. Faraji,  P. M. W. Gill,  M. Head-Gordon,  
 J. M. Herbert,  A. I. Krylov

 Contributors to earlier versions of Q-Chem not listed above: 
 R. D. Adamson,  B. Austin,  R. Baer,  J. Baker,  G. J. O. Beran,  
 K. Brandhorst,  S. T. Brown,  E. F. C. Byrd,  A. K. Chakraborty,  
 G. K. L. Chan,  Chun-Min Chang,  Yunqing Chen,  C.-L. Cheng,  
 Siu Hung Chien,  D. M. Chipman,  D. L. Crittenden,  H. Dachsel,  
 R. J. Doerksen,  A. D. Dutoi,  R. G. Edgar,  J. Fosso-Tande,  
 L. Fusti-Molnar,  D. Ghosh,  A. Ghysels,  A. Golubeva-Zadorozhnaya,  
 J. Gonthier,  M. S. Gordon,  S. R. Gwaltney,  G. Hawkins,  J. E. Herr,  
 A. Heyden,  S. Hirata,  E. G. Hohenstein,  G. Kedziora,  F. J. Keil,  
 C. Kelley,  Jihan Kim,  R. A. King,  R. Z. Khaliullin,  P. P. Korambath,  
 W. Kurlancheek,  A. Laurent,  A. M. Lee,  M. S. Lee,  S. V. Levchenko,  
 Ching Yeh Lin,  D. Liotard,  E. Livshits,  R. C. Lochan,  I. Lotan,  
 L. A. Martinez-Martinez,  P. E. Maslen,  N. Nair,  D. P. O'Neill,  
 D. Neuhauser,  E. Neuscamman,  C. M. Oana,  R. Olivares-Amaya,  R. Olson,  
 T. M. Perrine,  B. Peters,  P. A. Pieniazek,  A. Prociuk,  Y. M. Rhee,  
 J. Ritchie,  M. A. Rohrdanz,  E. Rosta,  N. J. Russ,  H. F. Schaefer III,  
 M. W. Schmidt,  N. E. Schultz,  S. Sharma,  N. Shenvi,  C. D. Sherrill,  
 A. C. Simmonett,  A. Sodt,  T. Stein,  D. Stuck,  K. S. Thanthiriwatte,  
 V. Vanovschi,  L. Vogt,  Tao Wang,  A. Warshel,  M. A. Watson,  
 C. F. Williams,  Q. Wu,  X. Xu,  Jun Yang,  W. Zhang,  Yan Zhao

 Please cite Q-Chem as follows:
 Y. Shao et al., Mol. Phys. 113, 184-215 (2015)
 DOI: 10.1080/00268976.2014.952696

 Q-Chem 5.4.0 for Intel X86 EM64T Linux

 Parts of Q-Chem use Armadillo 9.800.1 (Horizon Scraper).
 http://arma.sourceforge.net/

 Q-Chem begins on Fri Dec 15 13:54:08 2023  

 Host: 
0

     Scratch files written to ./qchem14262//
 May1621 |scratch|qcdevops|jenkins|workspace|build_RNUM    
 Parallel job on  1  processors
 Processing $rem in /cm/shared/apps/spack/cpu/opt/spack/linux-centos8-zen2/gcc-10.2.0/qchem-5.4-akfmr7b3t57bfs6qan3padb2wnb2i7cl/config/preferences:
 Processing $rem in /home/rramji/.qchemrc:
 Symmetry turned off for PCM/SM12/SMD calculation
 Core orbitals will be frozen

 Checking the input file for inconsistencies... 	...done.

 Q-Chem warning in module forms1/BasisType.C, line 2236:

 You are not using the predefined 5D/6D in this basis set.


--------------------------------------------------------------
User input:
--------------------------------------------------------------
$molecule
0 1
C	-0.187211	-0.554682	0.000759
C	0.028389	0.261918	1.113759
C	0.383889	1.606718	0.821359
H	-0.070711	-0.113282	2.143659
C	0.447489	1.846618	-0.562841
S	0.060389	0.383818	-1.463941
C	0.655989	2.636018	1.883159
H	0.541389	2.202918	2.895759
H	-0.039111	3.498318	1.808859
H	1.686489	3.042118	1.808959
C	-0.060811	-1.999282	0.000759
H	1.015089	-1.905682	0.000759
H	-0.014411	-2.532382	0.938859
H	-0.001211	-2.683882	-0.832441
H	0.692289	2.772818	-1.096341
$end

$rem
JOBTYPE		SP
EXCHANGE	HF
CORRELATION	pRIMP2
BASIS		cc-pvtz
METHOD		rimp2
AUX_BASIS	rimp2-cc-pvtz
SOLVENT_METHOD	PCM
PURECART	11111
SYMMETRY	false
MEM_TOTAL	110000
SCF_CONVERGENCE = 6
THRESH=10
GUI = 2
$end



$solvent
dielectric 4.90
$end
--------------------------------------------------------------
 ----------------------------------------------------------------
             Standard Nuclear Orientation (Angstroms)
    I     Atom           X                Y                Z
 ----------------------------------------------------------------
    1      C      -0.1872110000    -0.5546820000     0.0007590000
    2      C       0.0283890000     0.2619180000     1.1137590000
    3      C       0.3838890000     1.6067180000     0.8213590000
    4      H      -0.0707110000    -0.1132820000     2.1436590000
    5      C       0.4474890000     1.8466180000    -0.5628410000
    6      S       0.0603890000     0.3838180000    -1.4639410000
    7      C       0.6559890000     2.6360180000     1.8831590000
    8      H       0.5413890000     2.2029180000     2.8957590000
    9      H      -0.0391110000     3.4983180000     1.8088590000
   10      H       1.6864890000     3.0421180000     1.8089590000
   11      C      -0.0608110000    -1.9992820000     0.0007590000
   12      H       1.0150890000    -1.9056820000     0.0007590000
   13      H      -0.0144110000    -2.5323820000     0.9388590000
   14      H      -0.0012110000    -2.6838820000    -0.8324410000
   15      H       0.6922890000     2.7728180000    -1.0963410000
 ----------------------------------------------------------------
 Nuclear Repulsion Energy =         345.09647140 hartrees
 There are       30 alpha and       30 beta electrons
 Requested basis set is cc-pVTZ
 There are 120 shells and 326 basis functions

 Total QAlloc Memory Limit 110000 MB
 Mega-Array Size       188 MB
 MEM_STATIC part       192 MB
 Discretize the solute cavity surface with Lebedev spheres
	Using 110 Lebedev grid points for each H atom
	Using 194 Lebedev grid points for other atoms
	Atomic van der Waals radii will be scaled by 1.20
 Remove points where switching function is < 1.0e-08
 Keep 1058 surface tesserae and discard 1180 interior tesserae
 Molecular Surface Area = 158.597 Angst**2

                       Distance Matrix (Angstroms)
             C (  1)   C (  2)   C (  3)   H (  4)   C (  5)   S (  6)
   C (  2)  1.397171
   C (  3)  2.381426  1.421395
   H (  4)  2.190988  1.100586  2.216650
   C (  5)  2.546906  2.344761  1.406274  3.381550
   S (  6)  1.757110  2.580779  2.612036  3.644046  1.761139
   C (  7)  3.799340  2.573365  1.503634  2.855627  2.578670  4.078017
   H (  8)  4.064018  2.684432  2.164116  2.510996  3.478172  4.748418
   H (  9)  4.440492  3.310892  2.175370  3.627223  2.930845  4.518986
   H ( 10)  4.440418  3.310908  2.175430  3.627165  2.930832  4.519141
   C ( 11)  1.450119  2.521855  3.724833  2.854665  3.920072  2.799857
   H ( 12)  1.808515  2.628847  3.661796  2.997279  3.836609  2.880731
   H ( 13)  2.195721  2.800095  4.159880  2.703101  4.652322  3.779321
   H ( 14)  2.293973  3.530766  4.614391  3.933190  4.560641  3.132630
   H ( 15)  3.612396  3.410267  2.265496  4.405604  1.096538  2.498349
             C (  7)   H (  8)   H (  9)   H ( 10)   C ( 11)   H ( 12)
   H (  8)  1.107279
   H (  9)  1.110066  1.787846
   H ( 10)  1.110114  1.787916  1.784885
   C ( 11)  5.054032  5.138303  5.787340  5.633681
   H ( 12)  4.929444  5.048367  5.795151  5.310470  1.079964
   H ( 13)  5.296555  5.153779  6.093181  5.892808  1.079991  1.527303
   H ( 14)  6.008971  6.170470  6.722909  6.527817  1.080024  1.527312
   H ( 15)  2.982860  4.035396  3.082448  3.082487  4.954163  4.816242
             H ( 13)   H ( 14)
   H ( 14)  1.777816
   H ( 15)  5.725959  5.506919
 
 Requested basis set is rimp2-cc-pVTZ
 There are 250 shells and 848 basis functions
 A cutoff of  1.0D-10 yielded   6196 shell pairs
 There are     45416 function pairs (     58422 Cartesian)
 Smallest overlap matrix eigenvalue = 1.05E-04

 Scale SEOQF with 1.000000e-01/1.000000e-01/1.000000e-01

 Standard Electronic Orientation quadrupole field applied
 Nucleus-field energy     =     0.0000000018 hartrees
 Guess from superposition of atomic densities
 Warning:  Energy on first SCF cycle will be non-variational
 SAD guess density has 60.000000 electrons

 -----------------------------------------------------------------------
  General SCF calculation program by
  Eric Jon Sundstrom, Paul Horn, Yuezhi Mao, Dmitri Zuev, Alec White,
  David Stuck, Shaama M.S., Shane Yost, Joonho Lee, David Small,
  Daniel Levine, Susi Lehtola, Hugh Burton, Evgeny Epifanovsky,
  Bang C. Huynh
 -----------------------------------------------------------------------
 Hartree-Fock
 using 64 threads for integral computing
 -------------------------------------------------------
 OpenMP Integral computing Module                
 Release: version 1.0, May 2013, Q-Chem Inc. Pittsburgh 
 -------------------------------------------------------
 A restricted SCF calculation will be
 performed using DIIS
 SCF converges when DIIS error is below 1.0e-06
 ---------------------------------------
  Cycle       Energy         DIIS error
 ---------------------------------------
    1    -632.0923519433      2.91e-02  
    2    -629.3398018070      1.95e-03  
    3    -629.4103223582      7.09e-04  
    4    -629.4180933434      3.64e-04  
    5    -629.4203948620      6.20e-05  
    6    -629.4205263387      2.61e-05  
    7    -629.4205584131      1.12e-05  
    8    -629.4205674850      5.19e-06  
    9    -629.4205690044      1.71e-06  
   10    -629.4205692003      6.81e-07  Convergence criterion met
 ---------------------------------------
 SCF time:   CPU 681.78s  wall 14.00s 

************** Final PCM Free Energy Summary **************
 G_electrostatic  =      -0.00568583 hartree =      -3.56791076 kcal/mol
 G_cavitation     =       0.00000000 hartree =       0.00000000 kcal/mol
 G_dispersion     =       0.00000000 hartree =       0.00000000 kcal/mol
 G_repulsion      =       0.00000000 hartree =       0.00000000 kcal/mol
 --------------------------------------------------
 Non-electrostatic Free Energy =       0.00000000 hartree =       0.00000000 kcal/mol
 Total                         =      -0.00568583 hartree =      -3.56791076 kcal/mol
 --------------------------------------------------
 SCF Energy (H0 + V/2)                       =    -629.42056920 
 Solute Internal Energy (H0)                 =    -629.41488337 
 Total Free Energy (H0 + V/2 + non-elec)     =    -629.42056920 hartree
                                             = -394967.36841537 kcal/mol
***********************************************************

 SCF   energy in the final basis set =     -629.4205692003
 Total energy in the final basis set =     -629.4205692003


 --------------------------------------------------------------
  Generalized many-body perturbation theory program
  by Joonho Lee, Fazle Rob, Xintian Feng, Evgeny Epifanovsky

 No regularization used 
 (reg. param. = 0.0000e+00)
  (P|Q)^-1/2 Time:  CPU 6.96 s  wall 0.11 s

 In RI-MP2 calculation: 
 # of frozen core orbitals: 11

 Components of the RIMP2 correlation energy:
        aaaa    correlation energy =        -0.1452544389 a.u.
        abab    correlation energy =        -0.8858243512 a.u.
        bbbb    correlation energy =        -0.1452544389 a.u.
        non-Brillouin singles      =        -0.0000000000 a.u.
        total same-spin energy     =        -0.2905088779 a.u.
        total opposite-spin energy =        -0.8858243512 a.u.

 Total  RIMP2   correlation energy =        -1.1763332291 a.u.
        RIMP2         total energy =      -630.5969024294 a.u.

 RI-MP2 Energy Time:  CPU 34.93 s  wall 0.60 s
 
 --------------------------------------------------------------
 
                    Orbital Energies (a.u.)
 --------------------------------------------------------------
 
 Alpha MOs
 -- Occupied --
-91.9780 -11.2852 -11.2508 -11.2477 -11.2269 -11.2237 -11.2233  -8.9779
 -6.6589  -6.6583  -6.6577  -1.1618  -1.0551  -0.9971  -0.9404  -0.8834
 -0.7442  -0.7191  -0.6464  -0.5887  -0.5777  -0.5680  -0.5522  -0.5455
 -0.5069  -0.4947  -0.4658  -0.4563  -0.3386  -0.2890
 -- Virtual --
  0.1066   0.1453   0.1513   0.1753   0.1869   0.1936   0.2121   0.2197
  0.2216   0.2438   0.2477   0.2587   0.2972   0.3293   0.3436   0.3517
  0.3833   0.3907   0.4024   0.4200   0.4356   0.4602   0.4666   0.4820
  0.4990   0.5055   0.5195   0.5317   0.5352   0.5549   0.5680   0.5922
  0.5961   0.6053   0.6110   0.6249   0.6314   0.6418   0.6443   0.6472
  0.6530   0.6699   0.6844   0.6935   0.7195   0.7507   0.7673   0.7951
  0.7990   0.8266   0.8400   0.8482   0.8628   0.8860   0.8961   0.9417
  0.9450   0.9701   1.0012   1.0232   1.0334   1.0525   1.0708   1.0759
  1.0812   1.1056   1.1121   1.1166   1.1506   1.1599   1.1742   1.2037
  1.2364   1.2486   1.2519   1.2627   1.2722   1.3030   1.3074   1.3292
  1.3612   1.3840   1.3920   1.4168   1.4329   1.4395   1.4594   1.4745
  1.4820   1.5010   1.5104   1.5261   1.5391   1.5468   1.5533   1.5826
  1.5904   1.6293   1.6428   1.6697   1.6874   1.6999   1.7259   1.7551
  1.7684   1.7933   1.8036   1.8296   1.8924   1.9230   1.9452   1.9739
  2.0170   2.0444   2.1067   2.1224   2.1816   2.1892   2.2278   2.2562
  2.2750   2.2986   2.3324   2.4130   2.4350   2.4775   2.4898   2.5434
  2.5636   2.5809   2.6218   2.6505   2.6721   2.6897   2.7143   2.7427
  2.7595   2.7689   2.7797   2.7955   2.8211   2.8438   2.8633   2.8845
  2.8991   2.9455   2.9663   3.0029   3.0104   3.0372   3.0438   3.0848
  3.1003   3.1099   3.1152   3.1340   3.1527   3.1576   3.1701   3.1849
  3.1994   3.2428   3.2629   3.2817   3.2852   3.2950   3.3104   3.3251
  3.3320   3.3538   3.3846   3.3884   3.4060   3.4182   3.4272   3.4457
  3.4593   3.4732   3.4785   3.4913   3.5118   3.5201   3.5343   3.5576
  3.5747   3.5888   3.6043   3.6180   3.6304   3.6362   3.6442   3.6803
  3.6925   3.7027   3.7191   3.7402   3.7508   3.7664   3.7916   3.8041
  3.8162   3.8355   3.8670   3.8726   3.9057   3.9101   3.9389   3.9585
  3.9873   4.0017   4.0071   4.0366   4.0453   4.0735   4.0986   4.1058
  4.1199   4.1484   4.1636   4.2084   4.2163   4.2264   4.2462   4.2750
  4.2954   4.2979   4.3202   4.3391   4.3487   4.3795   4.4022   4.4062
  4.4109   4.4325   4.4481   4.4573   4.4806   4.5019   4.5381   4.5733
  4.5896   4.5970   4.6481   4.6830   4.7172   4.7460   4.7504   4.7552
  4.8118   4.8229   4.8652   4.8796   4.8949   4.9215   5.0914   5.1010
  5.1156   5.1307   5.1449   5.1924   5.2150   5.2630   5.2856   5.3364
  5.3686   5.4062   5.4176   5.4338   5.4594   5.5139   5.5469   5.5652
  5.5892   5.5976   5.6223   5.6687   5.6976   5.8116   5.8191   5.8605
  5.9410   5.9556   6.0611   6.1860   6.2282   6.2498   6.3085   6.3841
  6.4279   6.5216   9.1608  11.3898  12.9070  13.7502  14.1730  14.4944
 --------------------------------------------------------------
 
          Ground-State Mulliken Net Atomic Charges

     Atom                 Charge (a.u.)
  ----------------------------------------
      1 C                     0.054616
      2 C                    -0.313810
      3 C                     0.057632
      4 H                     0.174734
      5 C                    -0.280419
      6 S                     0.000490
      7 C                    -0.271343
      8 H                     0.101558
      9 H                     0.107572
     10 H                     0.107078
     11 C                    -0.376205
     12 H                     0.149119
     13 H                     0.139440
     14 H                     0.156505
     15 H                     0.193034
  ----------------------------------------
  Sum of atomic charges =     0.000000

 -----------------------------------------------------------------
                    Cartesian Multipole Moments
 -----------------------------------------------------------------
    Charge (ESU x 10^10)
                -0.0000
    Dipole Moment (Debye)
         X       1.1666      Y      -0.6245      Z       1.4441
       Tot       1.9586
    Quadrupole Moments (Debye-Ang)
        XX     -53.9587     XY       0.4307     YY     -42.6397
        XZ       0.1329     YZ       0.4751     ZZ     -48.5729
    Octopole Moments (Debye-Ang^2)
       XXX     -30.0233    XXY     -28.5693    XYY      -1.5051
       YYY     -78.9880    XXZ      -2.8445    XYZ      -0.5896
       YYZ      -5.2259    XZZ      -8.5740    YZZ     -25.3568
       ZZZ      -0.9940
    Hexadecapole Moments (Debye-Ang^3)
      XXXX    -111.9600   XXXY     -68.9210   XXYY    -158.6261
      XYYY     -64.8609   YYYY    -771.2845   XXXZ     -23.2935
      XXYZ     -30.5101   XYYZ     -10.9022   YYYZ     -98.6849
      XXZZ    -107.8270   XYZZ     -18.2169   YYZZ    -204.3150
      XZZZ     -26.2887   YZZZ     -99.5477   ZZZZ    -491.8021
 -----------------------------------------------------------------
 Total job time:  18.64s(wall), 763.74s(cpu) 
 Fri Dec 15 13:54:27 2023

        *************************************************************
        *                                                           *
        *  Thank you very much for using Q-Chem.  Have a nice day.  *
        *                                                           *
        *************************************************************


0 sent ACK to 0 
now end server 0 ... 
cleanup process ... done
remove work dirs ./qchem14262.0 -- ./qchem14262.0
rm -rf ./qchem14262.0
rm -rf ./qchem14262
