You are running Q-Chem version: 5.4.0

#
# job setting
#
local host:  exp-7-23
current dir: /home/rramji/project-csd799/aromodel/p3ht-qchem/methylated-rotation-run
input file:  Methylthiophene_Phi_25_Theta_140_Methylthiophene_Hydrogenated_Improper.qcin
output file: 
nprocs     : 1
nthreads   : 64
#
# qchem installation setting
#
QC:          /cm/shared/apps/spack/cpu/opt/spack/linux-centos8-zen2/gcc-10.2.0/qchem-5.4-akfmr7b3t57bfs6qan3padb2wnb2i7cl
QCAUX:       /cm/shared/apps/spack/cpu/opt/spack/linux-centos8-zen2/gcc-10.2.0/qchem-5.4-akfmr7b3t57bfs6qan3padb2wnb2i7cl/qcaux
QCPROG:      /cm/shared/apps/spack/cpu/opt/spack/linux-centos8-zen2/gcc-10.2.0/qchem-5.4-akfmr7b3t57bfs6qan3padb2wnb2i7cl/exe/qcprog.exe
QCPROG_S:    /cm/shared/apps/spack/cpu/opt/spack/linux-centos8-zen2/gcc-10.2.0/qchem-5.4-akfmr7b3t57bfs6qan3padb2wnb2i7cl/exe/qcprog.exe_s
PARALLEL:    -DPARALLEL
QCMPI:       mpich
#
# qchem directory setting
#
qcrun:       qchem642879
QCSCRATCH:   .
QCLOCALSCR:  
QCTMPDIR:    .
QCFILEPREF:  ./qchem642879
QCSAVEDIR:   
workdirs:    ./qchem642879
workdir0:    ./qchem642879
partmpdirs =  
#
# parallel setting
#
QCRSH:           ssh
QCMPI:           mpich
QCMPIRUN:        /cm/shared/apps/spack/cpu/opt/spack/linux-centos8-zen2/gcc-10.2.0/qchem-5.4-akfmr7b3t57bfs6qan3padb2wnb2i7cl/bin/mpi/mpirun_qchem
QCMACHINEFILE:   ./qchem642879/hostfile
exp-7-23

#
# env setting
#
exported envs:   QC QCAUX QCSCRATCH QCRUNNAME QCFILEPREF QCPROG QCPROG_S GUIFILE

Running Job 1 of 1 Methylthiophene_Phi_25_Theta_140_Methylthiophene_Hydrogenated_Improper.qcin
qchem Methylthiophene_Phi_25_Theta_140_Methylthiophene_Hydrogenated_Improper.qcin_642879.0 ./qchem642879/ 1
/cm/shared/apps/spack/cpu/opt/spack/linux-centos8-zen2/gcc-10.2.0/qchem-5.4-akfmr7b3t57bfs6qan3padb2wnb2i7cl/bin/mpi/mpirun_qchem -machinefile ./qchem642879/hostfile -np 1 /cm/shared/apps/spack/cpu/opt/spack/linux-centos8-zen2/gcc-10.2.0/qchem-5.4-akfmr7b3t57bfs6qan3padb2wnb2i7cl/exe/qcprog.exe Methylthiophene_Phi_25_Theta_140_Methylthiophene_Hydrogenated_Improper.qcin_642879.0 ./qchem642879/

Process 0 of 1 is on exp-7-23 - thread support 0
initial socket setup ...start
initial socket setup ...done 
now start server 0 ... 
                  Welcome to Q-Chem
     A Quantum Leap Into The Future Of Chemistry


 Q-Chem 5.4, Q-Chem, Inc., Pleasanton, CA (2021)

 License issued to: University of California, San Diego (site)

 E. Epifanovsky,  A. T. B. Gilbert,  Xintian Feng,  Joonho Lee,  Yuezhi Mao,  
 N. Mardirossian,  P. Pokhilko,  A. White,  M. Wormit,  M. P. Coons,  
 A. L. Dempwolff,  Zhengting Gan,  D. Hait,  P. R. Horn,  L. D. Jacobson,  
 I. Kaliman,  J. Kussmann,  A. W. Lange,  Ka Un Lao,  D. S. Levine,  Jie Liu,  
 S. C. McKenzie,  A. F. Morrison,  K. Nanda,  F. Plasser,  D. R. Rehn,  
 M. L. Vidal,  Zhi-Qiang You,  Ying Zhu,  B. Alam,  B. Albrecht,  
 A. Aldossary,  E. Alguire,  J. H. Andersen,  D. Barton,  K. Begam,  A. Behn,  
 Y. A. Bernard,  E. J. Berquist,  H. Burton,  A. Carreras,  K. Carter-Fenk,  
 R. Chakraborty,  A. D. Chien,  K. D. Closser,  V. Cofer-Shabica,  
 S. Dasgupta,  Jia Deng,  M. de Wergifosse,  M. Diedenhofen,  Hainam Do,  
 S. Ehlert,  Po-Tung Fang,  S. Fatehi,  Qingguo Feng,  J. Gayvert,  
 Qinghui Ge,  G. Gidofalvi,  M. Goldey,  J. Gomes,  C. Gonzalez-Espinoza,  
 S. Gulania,  A. Gunina,  M. W. D. Hanson-Heine,  P. H. P. Harbach,  
 A. W. Hauser,  M. F. Herbst,  M. Hernandez Vera,  M. Hodecker,  
 Z. C. Holden,  S. Houck,  Xunkun Huang,  Kerwin Hui,  B. C. Huynh,  
 M. Ivanov,  Hyunjun Ji,  Hanjie Jiang,  B. Kaduk,  S. Kaehler,  
 K. Khistyaev,  Jaehoon Kim,  P. Klunzinger,  Z. Koczor-Benda,  
 Joong Hoon Koh,  D. Kosenkov,  L. Koulias,  T. Kowalczyk,  C. M. Krauter,  
 K. Kue,  A. Kunitsa,  T. Kus,  A. Landau,  K. V. Lawler,  D. Lefrancois,  
 S. Lehtola,  Rain Li,  Yi-Pei Li,  Jiashu Liang,  M. Liebenthal,  
 Hung-Hsuan Lin,  You-Sheng Lin,  Fenglai Liu,  Kuan-Yu Liu,  
 M. Loipersberger,  A. Luenser,  A. Manjanath,  P. Manohar,  E. Mansoor,  
 S. F. Manzer,  Shan-Ping Mao,  A. V. Marenich,  T. Markovich,  S. Mason,  
 S. A. Maurer,  P. F. McLaughlin,  M. F. S. J. Menger,  J.-M. Mewes,  
 S. A. Mewes,  P. Morgante,  J. W. Mullinax,  T. S. Nguyen-Beck,  
 K. J. Oosterbaan,  G. Paran,  Alexander C. Paul,  Suranjan K. Paul,  
 F. Pavosevic,  Zheng Pei,  S. Prager,  E. I. Proynov,  E. Ramos,  B. Rana,  
 A. E. Rask,  A. Rettig,  R. M. Richard,  F. Rob,  E. Rossomme,  T. Scheele,  
 M. Scheurer,  M. Schneider,  N. Sergueev,  S. M. Sharada,  W. Skomorowski,  
 D. W. Small,  C. J. Stein,  Yu-Chuan Su,  E. J. Sundstrom,  Zhen Tao,  
 J. Thirman,  T. Tsuchimochi,  N. M. Tubman,  S. P. Veccham,  O. Vydrov,  
 J. Wenzel,  J. Witte,  A. Yamada,  Kun Yao,  S. Yeganeh,  S. R. Yost,  
 A. Zech,  Igor Ying Zhang,  Xing Zhang,  Yu Zhang,  D. Zuev,  
 A. Aspuru-Guzik,  A. T. Bell,  N. A. Besley,  K. B. Bravaya,  B. R. Brooks,  
 D. Casanova,  Jeng-Da Chai,  S. Coriani,  C. J. Cramer,  
 A. E. DePrince, III,  R. A. DiStasio Jr.,  A. Dreuw,  B. D. Dunietz,  
 T. R. Furlani,  W. A. Goddard III,  S. Grimme,  S. Hammes-Schiffer,  
 T. Head-Gordon,  W. J. Hehre,  Chao-Ping Hsu,  T.-C. Jagau,  Yousung Jung,  
 A. Klamt,  Jing Kong,  D. S. Lambrecht,  WanZhen Liang,  N. J. Mayhall,  
 C. W. McCurdy,  J. B. Neaton,  C. Ochsenfeld,  J. A. Parkhill,  R. Peverati,  
 V. A. Rassolov,  Yihan Shao,  L. V. Slipchenko,  T. Stauch,  R. P. Steele,  
 J. E. Subotnik,  A. J. W. Thom,  A. Tkatchenko,  D. G. Truhlar,  
 T. Van Voorhis,  T. A. Wesolowski,  K. B. Whaley,  H. L. Woodcock III,  
 P. M. Zimmerman,  S. Faraji,  P. M. W. Gill,  M. Head-Gordon,  
 J. M. Herbert,  A. I. Krylov

 Contributors to earlier versions of Q-Chem not listed above: 
 R. D. Adamson,  B. Austin,  R. Baer,  J. Baker,  G. J. O. Beran,  
 K. Brandhorst,  S. T. Brown,  E. F. C. Byrd,  A. K. Chakraborty,  
 G. K. L. Chan,  Chun-Min Chang,  Yunqing Chen,  C.-L. Cheng,  
 Siu Hung Chien,  D. M. Chipman,  D. L. Crittenden,  H. Dachsel,  
 R. J. Doerksen,  A. D. Dutoi,  R. G. Edgar,  J. Fosso-Tande,  
 L. Fusti-Molnar,  D. Ghosh,  A. Ghysels,  A. Golubeva-Zadorozhnaya,  
 J. Gonthier,  M. S. Gordon,  S. R. Gwaltney,  G. Hawkins,  J. E. Herr,  
 A. Heyden,  S. Hirata,  E. G. Hohenstein,  G. Kedziora,  F. J. Keil,  
 C. Kelley,  Jihan Kim,  R. A. King,  R. Z. Khaliullin,  P. P. Korambath,  
 W. Kurlancheek,  A. Laurent,  A. M. Lee,  M. S. Lee,  S. V. Levchenko,  
 Ching Yeh Lin,  D. Liotard,  E. Livshits,  R. C. Lochan,  I. Lotan,  
 L. A. Martinez-Martinez,  P. E. Maslen,  N. Nair,  D. P. O'Neill,  
 D. Neuhauser,  E. Neuscamman,  C. M. Oana,  R. Olivares-Amaya,  R. Olson,  
 T. M. Perrine,  B. Peters,  P. A. Pieniazek,  A. Prociuk,  Y. M. Rhee,  
 J. Ritchie,  M. A. Rohrdanz,  E. Rosta,  N. J. Russ,  H. F. Schaefer III,  
 M. W. Schmidt,  N. E. Schultz,  S. Sharma,  N. Shenvi,  C. D. Sherrill,  
 A. C. Simmonett,  A. Sodt,  T. Stein,  D. Stuck,  K. S. Thanthiriwatte,  
 V. Vanovschi,  L. Vogt,  Tao Wang,  A. Warshel,  M. A. Watson,  
 C. F. Williams,  Q. Wu,  X. Xu,  Jun Yang,  W. Zhang,  Yan Zhao

 Please cite Q-Chem as follows:
 Y. Shao et al., Mol. Phys. 113, 184-215 (2015)
 DOI: 10.1080/00268976.2014.952696

 Q-Chem 5.4.0 for Intel X86 EM64T Linux

 Parts of Q-Chem use Armadillo 9.800.1 (Horizon Scraper).
 http://arma.sourceforge.net/

 Q-Chem begins on Fri Dec 15 13:59:02 2023  

 Host: 
0

     Scratch files written to ./qchem642879//
 May1621 |scratch|qcdevops|jenkins|workspace|build_RNUM    
 Parallel job on  1  processors
 Processing $rem in /cm/shared/apps/spack/cpu/opt/spack/linux-centos8-zen2/gcc-10.2.0/qchem-5.4-akfmr7b3t57bfs6qan3padb2wnb2i7cl/config/preferences:
 Processing $rem in /home/rramji/.qchemrc:
 Symmetry turned off for PCM/SM12/SMD calculation
 Core orbitals will be frozen

 Checking the input file for inconsistencies... 	...done.

 Q-Chem warning in module forms1/BasisType.C, line 2236:

 You are not using the predefined 5D/6D in this basis set.


--------------------------------------------------------------
User input:
--------------------------------------------------------------
$molecule
0 1
C	-0.280799	-0.513776	-0.001525
C	0.073401	0.253024	1.111475
C	0.657001	1.515624	0.819075
H	-0.089499	-0.099276	2.141375
C	0.761201	1.740824	-0.565125
S	0.126101	0.367424	-1.466225
C	1.103601	2.482024	1.880875
H	0.915601	2.075424	2.893475
H	0.568801	3.451924	1.806575
H	2.189001	2.703024	1.806675
C	-0.280799	-1.963876	-0.001525
H	-1.108099	-1.964376	0.692675
H	-0.883699	-2.498976	-0.720325
H	0.255001	-2.651076	0.636575
H	1.163101	2.610424	-1.098625
$end

$rem
JOBTYPE		SP
EXCHANGE	HF
CORRELATION	pRIMP2
BASIS		cc-pvtz
METHOD		rimp2
AUX_BASIS	rimp2-cc-pvtz
SOLVENT_METHOD	PCM
PURECART	11111
SYMMETRY	false
MEM_TOTAL	110000
SCF_CONVERGENCE = 6
THRESH=10
GUI = 2
$end



$solvent
dielectric 4.90
$end
--------------------------------------------------------------
 ----------------------------------------------------------------
             Standard Nuclear Orientation (Angstroms)
    I     Atom           X                Y                Z
 ----------------------------------------------------------------
    1      C      -0.2807990000    -0.5137760000    -0.0015250000
    2      C       0.0734010000     0.2530240000     1.1114750000
    3      C       0.6570010000     1.5156240000     0.8190750000
    4      H      -0.0894990000    -0.0992760000     2.1413750000
    5      C       0.7612010000     1.7408240000    -0.5651250000
    6      S       0.1261010000     0.3674240000    -1.4662250000
    7      C       1.1036010000     2.4820240000     1.8808750000
    8      H       0.9156010000     2.0754240000     2.8934750000
    9      H       0.5688010000     3.4519240000     1.8065750000
   10      H       2.1890010000     2.7030240000     1.8066750000
   11      C      -0.2807990000    -1.9638760000    -0.0015250000
   12      H      -1.1080990000    -1.9643760000     0.6926750000
   13      H      -0.8836990000    -2.4989760000    -0.7203250000
   14      H       0.2550010000    -2.6510760000     0.6365750000
   15      H       1.1631010000     2.6104240000    -1.0986250000
 ----------------------------------------------------------------
 Nuclear Repulsion Energy =         344.82253810 hartrees
 There are       30 alpha and       30 beta electrons
 Requested basis set is cc-pVTZ
 There are 120 shells and 326 basis functions

 Total QAlloc Memory Limit 110000 MB
 Mega-Array Size       188 MB
 MEM_STATIC part       192 MB
 Discretize the solute cavity surface with Lebedev spheres
	Using 110 Lebedev grid points for each H atom
	Using 194 Lebedev grid points for other atoms
	Atomic van der Waals radii will be scaled by 1.20
 Remove points where switching function is < 1.0e-08
 Keep 1070 surface tesserae and discard 1168 interior tesserae
 Molecular Surface Area = 158.439 Angst**2

                       Distance Matrix (Angstroms)
             C (  1)   C (  2)   C (  3)   H (  4)   C (  5)   S (  6)
   C (  2)  1.397215
   C (  3)  2.381453  1.421353
   H (  4)  2.190988  1.100612  2.216674
   C (  5)  2.546886  2.344697  1.406265  3.381538
   S (  6)  1.757108  2.580775  2.612052  3.644046  1.761125
   C (  7)  3.799317  2.573272  1.503596  2.855601  2.578668  4.078004
   H (  8)  4.064032  2.684393  2.164113  2.511016  3.478176  4.748427
   H (  9)  4.440475  3.310823  2.175360  3.627185  2.930843  4.518998
   H ( 10)  4.440417  3.310826  2.175384  3.627185  2.930849  4.519121
   C ( 11)  1.450100  2.505768  3.695913  2.846990  3.889500  2.783141
   H ( 12)  1.808474  2.547194  3.904095  2.571940  4.336456  3.409016
   H ( 13)  2.195719  3.441662  4.567332  3.818199  4.550350  3.129267
   H ( 14)  2.293971  2.948272  4.190024  2.982413  4.581387  3.680995
   H ( 15)  3.612354  3.410179  2.265457  4.405574  1.096517  2.498309
             C (  7)   H (  8)   H (  9)   H ( 10)   C ( 11)   H ( 12)
   H (  8)  1.107261
   H (  9)  1.110062  1.787841
   H ( 10)  1.110153  1.787894  1.784909
   C ( 11)  5.022551  5.111589  5.772516  5.581170
   H ( 12)  5.106262  5.025820  5.778328  5.822069  1.079972
   H ( 13)  5.960366  6.100997  6.626326  6.548894  1.080043  1.527325
   H ( 14)  5.349497  5.279185  6.222056  5.811702  1.080045  1.527333
   H ( 15)  2.982859  4.035386  3.082451  3.082501  4.920640  5.412569
             H ( 13)   H ( 14)
   H ( 14)  1.777906
   H ( 15)  5.517107  5.614174
 
 Requested basis set is rimp2-cc-pVTZ
 There are 250 shells and 848 basis functions
 A cutoff of  1.0D-10 yielded   6191 shell pairs
 There are     45329 function pairs (     58275 Cartesian)
 Smallest overlap matrix eigenvalue = 1.06E-04

 Scale SEOQF with 1.000000e-01/1.000000e-01/1.000000e-01

 Standard Electronic Orientation quadrupole field applied
 Nucleus-field energy     =     0.0000000014 hartrees
 Guess from superposition of atomic densities
 Warning:  Energy on first SCF cycle will be non-variational
 SAD guess density has 60.000000 electrons

 -----------------------------------------------------------------------
  General SCF calculation program by
  Eric Jon Sundstrom, Paul Horn, Yuezhi Mao, Dmitri Zuev, Alec White,
  David Stuck, Shaama M.S., Shane Yost, Joonho Lee, David Small,
  Daniel Levine, Susi Lehtola, Hugh Burton, Evgeny Epifanovsky,
  Bang C. Huynh
 -----------------------------------------------------------------------
 Hartree-Fock
 using 64 threads for integral computing
 -------------------------------------------------------
 OpenMP Integral computing Module                
 Release: version 1.0, May 2013, Q-Chem Inc. Pittsburgh 
 -------------------------------------------------------
 A restricted SCF calculation will be
 performed using DIIS
 SCF converges when DIIS error is below 1.0e-06
 ---------------------------------------
  Cycle       Energy         DIIS error
 ---------------------------------------
    1    -632.0912380326      2.91e-02  
    2    -629.3327691706      1.91e-03  
    3    -629.4022868302      6.49e-04  
    4    -629.4093909963      3.31e-04  
    5    -629.4113060087      6.22e-05  
    6    -629.4114326825      2.47e-05  
    7    -629.4114631749      1.14e-05  
    8    -629.4114720065      4.93e-06  
    9    -629.4114735569      1.81e-06  
   10    -629.4114737558      5.38e-07  Convergence criterion met
 ---------------------------------------
 SCF time:   CPU 676.54s  wall 14.00s 

************** Final PCM Free Energy Summary **************
 G_electrostatic  =      -0.00549669 hartree =      -3.44922360 kcal/mol
 G_cavitation     =       0.00000000 hartree =       0.00000000 kcal/mol
 G_dispersion     =       0.00000000 hartree =       0.00000000 kcal/mol
 G_repulsion      =       0.00000000 hartree =       0.00000000 kcal/mol
 --------------------------------------------------
 Non-electrostatic Free Energy =       0.00000000 hartree =       0.00000000 kcal/mol
 Total                         =      -0.00549669 hartree =      -3.44922360 kcal/mol
 --------------------------------------------------
 SCF Energy (H0 + V/2)                       =    -629.41147376 
 Solute Internal Energy (H0)                 =    -629.40597707 
 Total Free Energy (H0 + V/2 + non-elec)     =    -629.41147376 hartree
                                             = -394961.66093786 kcal/mol
***********************************************************

 SCF   energy in the final basis set =     -629.4114737558
 Total energy in the final basis set =     -629.4114737558


 --------------------------------------------------------------
  Generalized many-body perturbation theory program
  by Joonho Lee, Fazle Rob, Xintian Feng, Evgeny Epifanovsky

 No regularization used 
 (reg. param. = 0.0000e+00)
  (P|Q)^-1/2 Time:  CPU 7.29 s  wall 0.12 s

 In RI-MP2 calculation: 
 # of frozen core orbitals: 11

 Components of the RIMP2 correlation energy:
        aaaa    correlation energy =        -0.1459940346 a.u.
        abab    correlation energy =        -0.8883520233 a.u.
        bbbb    correlation energy =        -0.1459940346 a.u.
        non-Brillouin singles      =        -0.0000000000 a.u.
        total same-spin energy     =        -0.2919880692 a.u.
        total opposite-spin energy =        -0.8883520233 a.u.

 Total  RIMP2   correlation energy =        -1.1803400925 a.u.
        RIMP2         total energy =      -630.5918138483 a.u.

 RI-MP2 Energy Time:  CPU 36.02 s  wall 0.63 s
 
 --------------------------------------------------------------
 
                    Orbital Energies (a.u.)
 --------------------------------------------------------------
 
 Alpha MOs
 -- Occupied --
-91.9757 -11.2748 -11.2579 -11.2478 -11.2324 -11.2274 -11.2167  -8.9758
 -6.6567  -6.6561  -6.6556  -1.1613  -1.0525  -0.9980  -0.9397  -0.8847
 -0.7433  -0.7221  -0.6471  -0.5863  -0.5761  -0.5646  -0.5590  -0.5425
 -0.5119  -0.4907  -0.4620  -0.4440  -0.3372  -0.2954
 -- Virtual --
  0.0973   0.1448   0.1500   0.1759   0.1786   0.1896   0.2120   0.2241
  0.2307   0.2419   0.2516   0.2616   0.2974   0.3129   0.3429   0.3497
  0.3828   0.3945   0.4105   0.4250   0.4325   0.4550   0.4732   0.4848
  0.4903   0.4964   0.5248   0.5301   0.5459   0.5464   0.5753   0.5783
  0.5970   0.6037   0.6136   0.6196   0.6309   0.6363   0.6464   0.6509
  0.6560   0.6618   0.6841   0.7045   0.7164   0.7502   0.7618   0.7821
  0.8057   0.8195   0.8435   0.8621   0.8701   0.8885   0.9096   0.9348
  0.9556   0.9829   0.9992   1.0101   1.0279   1.0437   1.0603   1.0742
  1.0826   1.0849   1.1087   1.1372   1.1445   1.1737   1.1888   1.2070
  1.2172   1.2444   1.2551   1.2668   1.2853   1.2980   1.3115   1.3276
  1.3456   1.3865   1.3974   1.4145   1.4270   1.4378   1.4515   1.4739
  1.4903   1.5003   1.5150   1.5340   1.5435   1.5562   1.5757   1.5773
  1.5898   1.6320   1.6434   1.6732   1.6927   1.6987   1.7136   1.7383
  1.7667   1.7866   1.8012   1.8247   1.8787   1.9172   1.9354   1.9704
  1.9909   2.0387   2.1046   2.1409   2.1788   2.1886   2.1984   2.2245
  2.2638   2.2787   2.3652   2.4181   2.4595   2.4814   2.5367   2.5479
  2.5720   2.5894   2.6329   2.6588   2.6739   2.6994   2.7054   2.7423
  2.7444   2.7646   2.7811   2.7857   2.8195   2.8447   2.8577   2.8727
  2.9075   2.9114   2.9673   2.9801   3.0053   3.0326   3.0387   3.0510
  3.0858   3.0911   3.1124   3.1486   3.1528   3.1601   3.1686   3.1946
  3.2001   3.2373   3.2681   3.2741   3.2890   3.3059   3.3179   3.3282
  3.3484   3.3646   3.3871   3.3957   3.4039   3.4143   3.4184   3.4330
  3.4435   3.4811   3.4884   3.5093   3.5188   3.5310   3.5376   3.5743
  3.5752   3.5856   3.6139   3.6256   3.6412   3.6541   3.6580   3.6766
  3.6947   3.7008   3.7134   3.7321   3.7483   3.7707   3.7884   3.7954
  3.8158   3.8489   3.8729   3.8768   3.8815   3.8962   3.9442   3.9540
  3.9727   3.9802   4.0200   4.0280   4.0394   4.0641   4.0999   4.1115
  4.1253   4.1461   4.1614   4.1759   4.2105   4.2248   4.2342   4.2651
  4.2805   4.2891   4.3254   4.3363   4.3394   4.3771   4.3889   4.4001
  4.4094   4.4289   4.4321   4.4601   4.4861   4.5149   4.5485   4.5706
  4.5988   4.6203   4.6503   4.6869   4.7099   4.7417   4.7483   4.7845
  4.7959   4.8225   4.8648   4.8897   4.9049   4.9308   5.0578   5.0839
  5.1103   5.1278   5.1756   5.1916   5.2001   5.2625   5.2882   5.3199
  5.3641   5.4030   5.4138   5.4324   5.4775   5.5084   5.5522   5.5613
  5.5716   5.6220   5.6320   5.6664   5.7110   5.8018   5.8343   5.8995
  5.9505   6.0033   6.0626   6.1214   6.2275   6.2460   6.2847   6.3636
  6.4478   6.5507   9.2199  11.4338  12.9091  13.6926  14.1722  14.5379
 --------------------------------------------------------------
 
          Ground-State Mulliken Net Atomic Charges

     Atom                 Charge (a.u.)
  ----------------------------------------
      1 C                     0.026043
      2 C                    -0.276638
      3 C                     0.040347
      4 H                     0.176553
      5 C                    -0.251818
      6 S                     0.000476
      7 C                    -0.272115
      8 H                     0.101434
      9 H                     0.107031
     10 H                     0.106943
     11 C                    -0.373751
     12 H                     0.130087
     13 H                     0.135973
     14 H                     0.156601
     15 H                     0.192834
  ----------------------------------------
  Sum of atomic charges =     0.000000

 -----------------------------------------------------------------
                    Cartesian Multipole Moments
 -----------------------------------------------------------------
    Charge (ESU x 10^10)
                -0.0000
    Dipole Moment (Debye)
         X       0.1021      Y      -0.2117      Z       1.9644
       Tot       1.9784
    Quadrupole Moments (Debye-Ang)
        XX     -52.3588     XY       4.5172     YY     -43.8064
        XZ       0.3371     YZ      -0.6629     ZZ     -48.6025
    Octopole Moments (Debye-Ang^2)
       XXX     -43.9906    XXY     -24.9495    XYY      -9.5487
       YYY     -73.3576    XXZ      -3.4339    XYZ      -2.0505
       YYZ      -2.6181    XZZ     -12.7329    YZZ     -22.4241
       ZZZ      -0.8103
    Hexadecapole Moments (Debye-Ang^3)
      XXXX    -180.6277   XXXY    -122.8076   XXYY    -149.5678
      XYYY    -104.6627   YYYY    -715.3707   XXXZ     -39.4652
      XXYZ     -28.8784   XYYZ     -14.3798   YYYZ     -98.9050
      XXZZ    -115.8613   XYZZ     -34.0363   YYZZ    -198.7578
      XZZZ     -43.0694   YZZZ     -90.8866   ZZZZ    -491.3975
 -----------------------------------------------------------------
 Total job time:  16.28s(wall), 748.53s(cpu) 
 Fri Dec 15 13:59:19 2023

        *************************************************************
        *                                                           *
        *  Thank you very much for using Q-Chem.  Have a nice day.  *
        *                                                           *
        *************************************************************


0 sent ACK to 0 
now end server 0 ... 
cleanup process ... done
remove work dirs ./qchem642879.0 -- ./qchem642879.0
rm -rf ./qchem642879.0
rm -rf ./qchem642879
