You are running Q-Chem version: 5.4.0

#
# job setting
#
local host:  exp-8-30
current dir: /home/rramji/project-csd799/aromodel/p3ht-qchem/methylated-rotation-run
input file:  Methylthiophene_Phi_60_Theta_330_Methylthiophene_Hydrogenated_Improper.qcin
output file: 
nprocs     : 1
nthreads   : 64
#
# qchem installation setting
#
QC:          /cm/shared/apps/spack/cpu/opt/spack/linux-centos8-zen2/gcc-10.2.0/qchem-5.4-akfmr7b3t57bfs6qan3padb2wnb2i7cl
QCAUX:       /cm/shared/apps/spack/cpu/opt/spack/linux-centos8-zen2/gcc-10.2.0/qchem-5.4-akfmr7b3t57bfs6qan3padb2wnb2i7cl/qcaux
QCPROG:      /cm/shared/apps/spack/cpu/opt/spack/linux-centos8-zen2/gcc-10.2.0/qchem-5.4-akfmr7b3t57bfs6qan3padb2wnb2i7cl/exe/qcprog.exe
QCPROG_S:    /cm/shared/apps/spack/cpu/opt/spack/linux-centos8-zen2/gcc-10.2.0/qchem-5.4-akfmr7b3t57bfs6qan3padb2wnb2i7cl/exe/qcprog.exe_s
PARALLEL:    -DPARALLEL
QCMPI:       mpich
#
# qchem directory setting
#
qcrun:       qchem2120615
QCSCRATCH:   .
QCLOCALSCR:  
QCTMPDIR:    .
QCFILEPREF:  ./qchem2120615
QCSAVEDIR:   
workdirs:    ./qchem2120615
workdir0:    ./qchem2120615
partmpdirs =  
#
# parallel setting
#
QCRSH:           ssh
QCMPI:           mpich
QCMPIRUN:        /cm/shared/apps/spack/cpu/opt/spack/linux-centos8-zen2/gcc-10.2.0/qchem-5.4-akfmr7b3t57bfs6qan3padb2wnb2i7cl/bin/mpi/mpirun_qchem
QCMACHINEFILE:   ./qchem2120615/hostfile
exp-8-30

#
# env setting
#
exported envs:   QC QCAUX QCSCRATCH QCRUNNAME QCFILEPREF QCPROG QCPROG_S GUIFILE

Running Job 1 of 1 Methylthiophene_Phi_60_Theta_330_Methylthiophene_Hydrogenated_Improper.qcin
qchem Methylthiophene_Phi_60_Theta_330_Methylthiophene_Hydrogenated_Improper.qcin_2120615.0 ./qchem2120615/ 1
/cm/shared/apps/spack/cpu/opt/spack/linux-centos8-zen2/gcc-10.2.0/qchem-5.4-akfmr7b3t57bfs6qan3padb2wnb2i7cl/bin/mpi/mpirun_qchem -machinefile ./qchem2120615/hostfile -np 1 /cm/shared/apps/spack/cpu/opt/spack/linux-centos8-zen2/gcc-10.2.0/qchem-5.4-akfmr7b3t57bfs6qan3padb2wnb2i7cl/exe/qcprog.exe Methylthiophene_Phi_60_Theta_330_Methylthiophene_Hydrogenated_Improper.qcin_2120615.0 ./qchem2120615/

Process 0 of 1 is on exp-8-30 - thread support 0
initial socket setup ...start
initial socket setup ...done 
now start server 0 ... 
                  Welcome to Q-Chem
     A Quantum Leap Into The Future Of Chemistry


 Q-Chem 5.4, Q-Chem, Inc., Pleasanton, CA (2021)

 License issued to: University of California, San Diego (site)

 E. Epifanovsky,  A. T. B. Gilbert,  Xintian Feng,  Joonho Lee,  Yuezhi Mao,  
 N. Mardirossian,  P. Pokhilko,  A. White,  M. Wormit,  M. P. Coons,  
 A. L. Dempwolff,  Zhengting Gan,  D. Hait,  P. R. Horn,  L. D. Jacobson,  
 I. Kaliman,  J. Kussmann,  A. W. Lange,  Ka Un Lao,  D. S. Levine,  Jie Liu,  
 S. C. McKenzie,  A. F. Morrison,  K. Nanda,  F. Plasser,  D. R. Rehn,  
 M. L. Vidal,  Zhi-Qiang You,  Ying Zhu,  B. Alam,  B. Albrecht,  
 A. Aldossary,  E. Alguire,  J. H. Andersen,  D. Barton,  K. Begam,  A. Behn,  
 Y. A. Bernard,  E. J. Berquist,  H. Burton,  A. Carreras,  K. Carter-Fenk,  
 R. Chakraborty,  A. D. Chien,  K. D. Closser,  V. Cofer-Shabica,  
 S. Dasgupta,  Jia Deng,  M. de Wergifosse,  M. Diedenhofen,  Hainam Do,  
 S. Ehlert,  Po-Tung Fang,  S. Fatehi,  Qingguo Feng,  J. Gayvert,  
 Qinghui Ge,  G. Gidofalvi,  M. Goldey,  J. Gomes,  C. Gonzalez-Espinoza,  
 S. Gulania,  A. Gunina,  M. W. D. Hanson-Heine,  P. H. P. Harbach,  
 A. W. Hauser,  M. F. Herbst,  M. Hernandez Vera,  M. Hodecker,  
 Z. C. Holden,  S. Houck,  Xunkun Huang,  Kerwin Hui,  B. C. Huynh,  
 M. Ivanov,  Hyunjun Ji,  Hanjie Jiang,  B. Kaduk,  S. Kaehler,  
 K. Khistyaev,  Jaehoon Kim,  P. Klunzinger,  Z. Koczor-Benda,  
 Joong Hoon Koh,  D. Kosenkov,  L. Koulias,  T. Kowalczyk,  C. M. Krauter,  
 K. Kue,  A. Kunitsa,  T. Kus,  A. Landau,  K. V. Lawler,  D. Lefrancois,  
 S. Lehtola,  Rain Li,  Yi-Pei Li,  Jiashu Liang,  M. Liebenthal,  
 Hung-Hsuan Lin,  You-Sheng Lin,  Fenglai Liu,  Kuan-Yu Liu,  
 M. Loipersberger,  A. Luenser,  A. Manjanath,  P. Manohar,  E. Mansoor,  
 S. F. Manzer,  Shan-Ping Mao,  A. V. Marenich,  T. Markovich,  S. Mason,  
 S. A. Maurer,  P. F. McLaughlin,  M. F. S. J. Menger,  J.-M. Mewes,  
 S. A. Mewes,  P. Morgante,  J. W. Mullinax,  T. S. Nguyen-Beck,  
 K. J. Oosterbaan,  G. Paran,  Alexander C. Paul,  Suranjan K. Paul,  
 F. Pavosevic,  Zheng Pei,  S. Prager,  E. I. Proynov,  E. Ramos,  B. Rana,  
 A. E. Rask,  A. Rettig,  R. M. Richard,  F. Rob,  E. Rossomme,  T. Scheele,  
 M. Scheurer,  M. Schneider,  N. Sergueev,  S. M. Sharada,  W. Skomorowski,  
 D. W. Small,  C. J. Stein,  Yu-Chuan Su,  E. J. Sundstrom,  Zhen Tao,  
 J. Thirman,  T. Tsuchimochi,  N. M. Tubman,  S. P. Veccham,  O. Vydrov,  
 J. Wenzel,  J. Witte,  A. Yamada,  Kun Yao,  S. Yeganeh,  S. R. Yost,  
 A. Zech,  Igor Ying Zhang,  Xing Zhang,  Yu Zhang,  D. Zuev,  
 A. Aspuru-Guzik,  A. T. Bell,  N. A. Besley,  K. B. Bravaya,  B. R. Brooks,  
 D. Casanova,  Jeng-Da Chai,  S. Coriani,  C. J. Cramer,  
 A. E. DePrince, III,  R. A. DiStasio Jr.,  A. Dreuw,  B. D. Dunietz,  
 T. R. Furlani,  W. A. Goddard III,  S. Grimme,  S. Hammes-Schiffer,  
 T. Head-Gordon,  W. J. Hehre,  Chao-Ping Hsu,  T.-C. Jagau,  Yousung Jung,  
 A. Klamt,  Jing Kong,  D. S. Lambrecht,  WanZhen Liang,  N. J. Mayhall,  
 C. W. McCurdy,  J. B. Neaton,  C. Ochsenfeld,  J. A. Parkhill,  R. Peverati,  
 V. A. Rassolov,  Yihan Shao,  L. V. Slipchenko,  T. Stauch,  R. P. Steele,  
 J. E. Subotnik,  A. J. W. Thom,  A. Tkatchenko,  D. G. Truhlar,  
 T. Van Voorhis,  T. A. Wesolowski,  K. B. Whaley,  H. L. Woodcock III,  
 P. M. Zimmerman,  S. Faraji,  P. M. W. Gill,  M. Head-Gordon,  
 J. M. Herbert,  A. I. Krylov

 Contributors to earlier versions of Q-Chem not listed above: 
 R. D. Adamson,  B. Austin,  R. Baer,  J. Baker,  G. J. O. Beran,  
 K. Brandhorst,  S. T. Brown,  E. F. C. Byrd,  A. K. Chakraborty,  
 G. K. L. Chan,  Chun-Min Chang,  Yunqing Chen,  C.-L. Cheng,  
 Siu Hung Chien,  D. M. Chipman,  D. L. Crittenden,  H. Dachsel,  
 R. J. Doerksen,  A. D. Dutoi,  R. G. Edgar,  J. Fosso-Tande,  
 L. Fusti-Molnar,  D. Ghosh,  A. Ghysels,  A. Golubeva-Zadorozhnaya,  
 J. Gonthier,  M. S. Gordon,  S. R. Gwaltney,  G. Hawkins,  J. E. Herr,  
 A. Heyden,  S. Hirata,  E. G. Hohenstein,  G. Kedziora,  F. J. Keil,  
 C. Kelley,  Jihan Kim,  R. A. King,  R. Z. Khaliullin,  P. P. Korambath,  
 W. Kurlancheek,  A. Laurent,  A. M. Lee,  M. S. Lee,  S. V. Levchenko,  
 Ching Yeh Lin,  D. Liotard,  E. Livshits,  R. C. Lochan,  I. Lotan,  
 L. A. Martinez-Martinez,  P. E. Maslen,  N. Nair,  D. P. O'Neill,  
 D. Neuhauser,  E. Neuscamman,  C. M. Oana,  R. Olivares-Amaya,  R. Olson,  
 T. M. Perrine,  B. Peters,  P. A. Pieniazek,  A. Prociuk,  Y. M. Rhee,  
 J. Ritchie,  M. A. Rohrdanz,  E. Rosta,  N. J. Russ,  H. F. Schaefer III,  
 M. W. Schmidt,  N. E. Schultz,  S. Sharma,  N. Shenvi,  C. D. Sherrill,  
 A. C. Simmonett,  A. Sodt,  T. Stein,  D. Stuck,  K. S. Thanthiriwatte,  
 V. Vanovschi,  L. Vogt,  Tao Wang,  A. Warshel,  M. A. Watson,  
 C. F. Williams,  Q. Wu,  X. Xu,  Jun Yang,  W. Zhang,  Yan Zhao

 Please cite Q-Chem as follows:
 Y. Shao et al., Mol. Phys. 113, 184-215 (2015)
 DOI: 10.1080/00268976.2014.952696

 Q-Chem 5.4.0 for Intel X86 EM64T Linux

 Parts of Q-Chem use Armadillo 9.800.1 (Horizon Scraper).
 http://arma.sourceforge.net/

 Q-Chem begins on Fri Dec 15 14:06:05 2023  

 Host: 
0

     Scratch files written to ./qchem2120615//
 May1621 |scratch|qcdevops|jenkins|workspace|build_RNUM    
 Parallel job on  1  processors
 Processing $rem in /cm/shared/apps/spack/cpu/opt/spack/linux-centos8-zen2/gcc-10.2.0/qchem-5.4-akfmr7b3t57bfs6qan3padb2wnb2i7cl/config/preferences:
 Processing $rem in /home/rramji/.qchemrc:
 Symmetry turned off for PCM/SM12/SMD calculation
 Core orbitals will be frozen

 Checking the input file for inconsistencies... 	...done.

 Q-Chem warning in module forms1/BasisType.C, line 2236:

 You are not using the predefined 5D/6D in this basis set.


--------------------------------------------------------------
User input:
--------------------------------------------------------------
$molecule
0 1
C	-0.591311	-0.238938	0.003247
C	0.138589	0.186062	1.116247
C	1.340889	0.885562	0.823847
H	-0.196811	-0.009138	2.146147
C	1.555489	1.010262	-0.560353
S	0.247389	0.249562	-1.461453
C	2.261089	1.420962	1.885647
H	1.873789	1.195762	2.898247
H	2.379289	2.522262	1.811347
H	3.276889	0.979462	1.811447
C	-0.591311	-1.689038	0.003247
H	0.343989	-1.689538	-0.536753
H	-0.122411	-2.224138	0.815847
H	-1.008211	-2.376238	-0.718153
H	2.383489	1.492062	-1.093853
$end

$rem
JOBTYPE		SP
EXCHANGE	HF
CORRELATION	pRIMP2
BASIS		cc-pvtz
METHOD		rimp2
AUX_BASIS	rimp2-cc-pvtz
SOLVENT_METHOD	PCM
PURECART	11111
SYMMETRY	false
MEM_TOTAL	110000
SCF_CONVERGENCE = 6
THRESH=10
GUI = 2
$end



$solvent
dielectric 4.90
$end
--------------------------------------------------------------
 ----------------------------------------------------------------
             Standard Nuclear Orientation (Angstroms)
    I     Atom           X                Y                Z
 ----------------------------------------------------------------
    1      C      -0.5913110000    -0.2389380000     0.0032470000
    2      C       0.1385890000     0.1860620000     1.1162470000
    3      C       1.3408890000     0.8855620000     0.8238470000
    4      H      -0.1968110000    -0.0091380000     2.1461470000
    5      C       1.5554890000     1.0102620000    -0.5603530000
    6      S       0.2473890000     0.2495620000    -1.4614530000
    7      C       2.2610890000     1.4209620000     1.8856470000
    8      H       1.8737890000     1.1957620000     2.8982470000
    9      H       2.3792890000     2.5222620000     1.8113470000
   10      H       3.2768890000     0.9794620000     1.8114470000
   11      C      -0.5913110000    -1.6890380000     0.0032470000
   12      H       0.3439890000    -1.6895380000    -0.5367530000
   13      H      -0.1224110000    -2.2241380000     0.8158470000
   14      H      -1.0082110000    -2.3762380000    -0.7181530000
   15      H       2.3834890000     1.4920620000    -1.0938530000
 ----------------------------------------------------------------
 Nuclear Repulsion Energy =         352.08674087 hartrees
 There are       30 alpha and       30 beta electrons
 Requested basis set is cc-pVTZ
 There are 120 shells and 326 basis functions

 Total QAlloc Memory Limit 110000 MB
 Mega-Array Size       188 MB
 MEM_STATIC part       192 MB
 Discretize the solute cavity surface with Lebedev spheres
	Using 110 Lebedev grid points for each H atom
	Using 194 Lebedev grid points for other atoms
	Atomic van der Waals radii will be scaled by 1.20
 Remove points where switching function is < 1.0e-08
 Keep 1030 surface tesserae and discard 1208 interior tesserae
 Molecular Surface Area = 155.454 Angst**2

                       Distance Matrix (Angstroms)
             C (  1)   C (  2)   C (  3)   H (  4)   C (  5)   S (  6)
   C (  2)  1.397193
   C (  3)  2.381445  1.421381
   H (  4)  2.190995  1.100586  2.216639
   C (  5)  2.546939  2.344760  1.406276  3.381549
   S (  6)  1.757099  2.580776  2.612056  3.644039  1.761185
   C (  7)  3.799327  2.573317  1.503609  2.855577  2.578655  4.078020
   H (  8)  4.064001  2.684388  2.164103  2.510941  3.478166  4.748416
   H (  9)  4.440486  3.310850  2.175366  3.627171  2.930828  4.519002
   H ( 10)  4.440389  3.310848  2.175377  3.627113  2.930802  4.519126
   C ( 11)  1.450100  2.299461  3.321949  2.751311  3.494655  2.570396
   H ( 12)  1.808487  2.508480  3.078341  3.211567  2.959258  2.150467
   H ( 13)  2.195724  2.442831  3.436793  2.584852  3.894948  3.382608
   H ( 14)  2.293965  3.353439  4.305273  3.803386  4.250393  3.003973
   H ( 15)  3.612399  3.410243  2.265487  4.405582  1.096512  2.498371
             C (  7)   H (  8)   H (  9)   H ( 10)   C ( 11)   H ( 12)
   H (  8)  1.107283
   H (  9)  1.110114  1.787871
   H ( 10)  1.110080  1.787906  1.784914
   C ( 11)  4.620792  4.772820  5.461569  5.035221
   H ( 12)  4.383891  4.739670  5.234050  4.608634  1.079994
   H ( 13)  4.484674  4.474027  5.456907  4.775931  1.080055  1.527368
   H ( 14)  5.646842  5.843240  6.470613  6.001806  1.080031  1.527386
   H ( 15)  2.982861  4.035400  3.082453  3.082481  4.491376  3.820013
             H ( 13)   H ( 14)
   H ( 14)  1.777901
   H ( 15)  4.872025  5.158345
 
 Requested basis set is rimp2-cc-pVTZ
 There are 250 shells and 848 basis functions
 A cutoff of  1.0D-10 yielded   6421 shell pairs
 There are     47191 function pairs (     60639 Cartesian)
 Smallest overlap matrix eigenvalue = 1.29E-04

 Scale SEOQF with 1.000000e-01/1.000000e-01/1.000000e-01

 Standard Electronic Orientation quadrupole field applied
 Nucleus-field energy     =    -0.0000000019 hartrees
 Guess from superposition of atomic densities
 Warning:  Energy on first SCF cycle will be non-variational
 SAD guess density has 60.000000 electrons

 -----------------------------------------------------------------------
  General SCF calculation program by
  Eric Jon Sundstrom, Paul Horn, Yuezhi Mao, Dmitri Zuev, Alec White,
  David Stuck, Shaama M.S., Shane Yost, Joonho Lee, David Small,
  Daniel Levine, Susi Lehtola, Hugh Burton, Evgeny Epifanovsky,
  Bang C. Huynh
 -----------------------------------------------------------------------
 Hartree-Fock
 using 64 threads for integral computing
 -------------------------------------------------------
 OpenMP Integral computing Module                
 Release: version 1.0, May 2013, Q-Chem Inc. Pittsburgh 
 -------------------------------------------------------
 A restricted SCF calculation will be
 performed using DIIS
 SCF converges when DIIS error is below 1.0e-06
 ---------------------------------------
  Cycle       Energy         DIIS error
 ---------------------------------------
    1    -632.2398176148      2.97e-02  
    2    -629.2654838428      1.93e-03  
    3    -629.3370964960      6.71e-04  
    4    -629.3448424598      3.42e-04  
    5    -629.3469817080      6.60e-05  
    6    -629.3471499086      3.16e-05  
    7    -629.3472011241      1.38e-05  
    8    -629.3472176019      6.82e-06  
    9    -629.3472206342      2.35e-06  
   10    -629.3472210366      8.01e-07  Convergence criterion met
 ---------------------------------------
 SCF time:   CPU 695.77s  wall 15.00s 

************** Final PCM Free Energy Summary **************
 G_electrostatic  =      -0.00616687 hartree =      -3.86977065 kcal/mol
 G_cavitation     =       0.00000000 hartree =       0.00000000 kcal/mol
 G_dispersion     =       0.00000000 hartree =       0.00000000 kcal/mol
 G_repulsion      =       0.00000000 hartree =       0.00000000 kcal/mol
 --------------------------------------------------
 Non-electrostatic Free Energy =       0.00000000 hartree =       0.00000000 kcal/mol
 Total                         =      -0.00616687 hartree =      -3.86977065 kcal/mol
 --------------------------------------------------
 SCF Energy (H0 + V/2)                       =    -629.34722104 
 Solute Internal Energy (H0)                 =    -629.34105416 
 Total Free Energy (H0 + V/2 + non-elec)     =    -629.34722104 hartree
                                             = -394921.34174800 kcal/mol
***********************************************************

 SCF   energy in the final basis set =     -629.3472210366
 Total energy in the final basis set =     -629.3472210366


 --------------------------------------------------------------
  Generalized many-body perturbation theory program
  by Joonho Lee, Fazle Rob, Xintian Feng, Evgeny Epifanovsky

 No regularization used 
 (reg. param. = 0.0000e+00)
  (P|Q)^-1/2 Time:  CPU 6.85 s  wall 0.11 s

 In RI-MP2 calculation: 
 # of frozen core orbitals: 11

 Components of the RIMP2 correlation energy:
        aaaa    correlation energy =        -0.1477938648 a.u.
        abab    correlation energy =        -0.8952563702 a.u.
        bbbb    correlation energy =        -0.1477938648 a.u.
        non-Brillouin singles      =        -0.0000000000 a.u.
        total same-spin energy     =        -0.2955877295 a.u.
        total opposite-spin energy =        -0.8952563702 a.u.

 Total  RIMP2   correlation energy =        -1.1908440997 a.u.
        RIMP2         total energy =      -630.5380651363 a.u.

 RI-MP2 Energy Time:  CPU 36.03 s  wall 0.62 s
 
 --------------------------------------------------------------
 
                    Orbital Energies (a.u.)
 --------------------------------------------------------------
 
 Alpha MOs
 -- Occupied --
-91.9698 -11.2805 -11.2552 -11.2509 -11.2495 -11.2297 -11.2115  -8.9717
 -6.6525  -6.6517  -6.6514  -1.1781  -1.0590  -0.9966  -0.9401  -0.8796
 -0.7547  -0.7295  -0.6436  -0.5897  -0.5867  -0.5657  -0.5533  -0.5454
 -0.5123  -0.4927  -0.4608  -0.4296  -0.3388  -0.2912
 -- Virtual --
  0.0657   0.1411   0.1600   0.1781   0.1821   0.1911   0.2068   0.2124
  0.2250   0.2449   0.2495   0.2592   0.2902   0.3091   0.3440   0.3450
  0.3625   0.3878   0.4024   0.4188   0.4302   0.4393   0.4626   0.4679
  0.4839   0.4900   0.5166   0.5331   0.5464   0.5491   0.5717   0.5819
  0.5939   0.6015   0.6091   0.6176   0.6311   0.6330   0.6406   0.6467
  0.6526   0.6756   0.6848   0.6967   0.7239   0.7426   0.7471   0.7704
  0.7995   0.8122   0.8244   0.8599   0.8710   0.8877   0.8921   0.9461
  0.9507   0.9746   1.0085   1.0398   1.0524   1.0563   1.0773   1.0826
  1.0923   1.1096   1.1352   1.1545   1.1677   1.1886   1.1975   1.2178
  1.2249   1.2434   1.2445   1.2735   1.2874   1.2893   1.3156   1.3226
  1.3556   1.3826   1.3912   1.4051   1.4153   1.4275   1.4523   1.4769
  1.4846   1.5118   1.5131   1.5245   1.5358   1.5565   1.5696   1.5800
  1.5969   1.6288   1.6490   1.6716   1.6891   1.7066   1.7178   1.7267
  1.7465   1.7872   1.7998   1.8244   1.8636   1.9188   1.9580   1.9641
  1.9813   2.0528   2.0802   2.1494   2.1636   2.1831   2.2017   2.2127
  2.2671   2.2811   2.3569   2.4085   2.4273   2.4804   2.5222   2.5463
  2.5612   2.5943   2.6353   2.6454   2.6695   2.6903   2.7156   2.7306
  2.7526   2.7597   2.7872   2.8235   2.8354   2.8538   2.8674   2.9093
  2.9384   2.9601   2.9789   2.9980   3.0083   3.0336   3.0616   3.0638
  3.0803   3.1101   3.1152   3.1360   3.1594   3.1639   3.1699   3.1928
  3.2040   3.2431   3.2542   3.2591   3.2731   3.2843   3.2965   3.3318
  3.3355   3.3530   3.3672   3.3824   3.3958   3.4098   3.4254   3.4443
  3.4594   3.4861   3.4898   3.5112   3.5274   3.5335   3.5548   3.5648
  3.5760   3.5916   3.5985   3.6294   3.6473   3.6698   3.6863   3.7014
  3.7109   3.7174   3.7394   3.7622   3.7814   3.7915   3.7980   3.8096
  3.8283   3.8599   3.8738   3.9075   3.9135   3.9312   3.9630   3.9782
  3.9986   4.0226   4.0336   4.0403   4.0559   4.0745   4.1073   4.1256
  4.1413   4.1671   4.1933   4.2107   4.2172   4.2312   4.2531   4.2627
  4.2930   4.2991   4.3154   4.3319   4.3683   4.3724   4.4011   4.4173
  4.4379   4.4520   4.4609   4.4784   4.5366   4.5514   4.5682   4.5853
  4.5921   4.6507   4.6603   4.6906   4.7026   4.7271   4.7618   4.7790
  4.8255   4.8621   4.8686   4.9089   4.9161   4.9457   4.9677   5.0990
  5.1091   5.1317   5.1611   5.1862   5.2216   5.2601   5.2902   5.3268
  5.3643   5.4000   5.4181   5.4485   5.4899   5.5065   5.5488   5.5511
  5.5840   5.6102   5.6262   5.6840   5.6953   5.7997   5.8660   5.8755
  5.9130   5.9879   6.0510   6.0895   6.2077   6.2291   6.2532   6.3359
  6.4306   6.4979   9.3175  11.7146  12.7985  13.6737  14.1651  14.4078
 --------------------------------------------------------------
 
          Ground-State Mulliken Net Atomic Charges

     Atom                 Charge (a.u.)
  ----------------------------------------
      1 C                    -0.069805
      2 C                    -0.158199
      3 C                    -0.008124
      4 H                     0.185736
      5 C                    -0.196691
      6 S                    -0.003648
      7 C                    -0.267544
      8 H                     0.102483
      9 H                     0.107890
     10 H                     0.105787
     11 C                    -0.367361
     12 H                     0.121602
     13 H                     0.124799
     14 H                     0.125179
     15 H                     0.197896
  ----------------------------------------
  Sum of atomic charges =     0.000000

 -----------------------------------------------------------------
                    Cartesian Multipole Moments
 -----------------------------------------------------------------
    Charge (ESU x 10^10)
                -0.0000
    Dipole Moment (Debye)
         X       2.7732      Y      -0.1072      Z       1.5920
       Tot       3.1995
    Quadrupole Moments (Debye-Ang)
        XX     -48.6782     XY       3.6236     YY     -49.9981
        XZ       0.1748     YZ       0.8624     ZZ     -47.8868
    Octopole Moments (Debye-Ang^2)
       XXX     -77.4395    XXY      -1.7662    XYY     -23.8620
       YYY     -35.6570    XXZ      -5.8636    XYZ      -3.0108
       YYZ      -4.3437    XZZ     -26.6059    YZZ     -10.2216
       ZZZ       2.2518
    Hexadecapole Moments (Debye-Ang^3)
      XXXX    -473.3094   XXXY    -134.3157   XXYY    -140.7056
      XYYY    -147.2716   YYYY    -381.4393   XXXZ     -91.3536
      XXYZ     -21.3232   XYYZ     -27.8393   YYYZ     -47.5229
      XXZZ    -157.0145   XYZZ     -41.0001   YYZZ    -146.6747
      XZZZ     -89.5849   YZZZ     -50.6591   ZZZZ    -487.9007
 -----------------------------------------------------------------
 Total job time:  16.35s(wall), 767.59s(cpu) 
 Fri Dec 15 14:06:21 2023

        *************************************************************
        *                                                           *
        *  Thank you very much for using Q-Chem.  Have a nice day.  *
        *                                                           *
        *************************************************************


0 sent ACK to 0 
now end server 0 ... 
cleanup process ... done
remove work dirs ./qchem2120615.0 -- ./qchem2120615.0
rm -rf ./qchem2120615.0
rm -rf ./qchem2120615
