You are running Q-Chem version: 5.4.0

#
# job setting
#
local host:  exp-8-30
current dir: /home/rramji/project-csd799/aromodel/p3ht-qchem/methylated-rotation-run
input file:  Methylthiophene_Phi_5_Theta_90_Methylthiophene_Hydrogenated_Improper.qcin
output file: 
nprocs     : 1
nthreads   : 64
#
# qchem installation setting
#
QC:          /cm/shared/apps/spack/cpu/opt/spack/linux-centos8-zen2/gcc-10.2.0/qchem-5.4-akfmr7b3t57bfs6qan3padb2wnb2i7cl
QCAUX:       /cm/shared/apps/spack/cpu/opt/spack/linux-centos8-zen2/gcc-10.2.0/qchem-5.4-akfmr7b3t57bfs6qan3padb2wnb2i7cl/qcaux
QCPROG:      /cm/shared/apps/spack/cpu/opt/spack/linux-centos8-zen2/gcc-10.2.0/qchem-5.4-akfmr7b3t57bfs6qan3padb2wnb2i7cl/exe/qcprog.exe
QCPROG_S:    /cm/shared/apps/spack/cpu/opt/spack/linux-centos8-zen2/gcc-10.2.0/qchem-5.4-akfmr7b3t57bfs6qan3padb2wnb2i7cl/exe/qcprog.exe_s
PARALLEL:    -DPARALLEL
QCMPI:       mpich
#
# qchem directory setting
#
qcrun:       qchem2111801
QCSCRATCH:   .
QCLOCALSCR:  
QCTMPDIR:    .
QCFILEPREF:  ./qchem2111801
QCSAVEDIR:   
workdirs:    ./qchem2111801
workdir0:    ./qchem2111801
partmpdirs =  
#
# parallel setting
#
QCRSH:           ssh
QCMPI:           mpich
QCMPIRUN:        /cm/shared/apps/spack/cpu/opt/spack/linux-centos8-zen2/gcc-10.2.0/qchem-5.4-akfmr7b3t57bfs6qan3padb2wnb2i7cl/bin/mpi/mpirun_qchem
QCMACHINEFILE:   ./qchem2111801/hostfile
exp-8-30

#
# env setting
#
exported envs:   QC QCAUX QCSCRATCH QCRUNNAME QCFILEPREF QCPROG QCPROG_S GUIFILE

Running Job 1 of 1 Methylthiophene_Phi_5_Theta_90_Methylthiophene_Hydrogenated_Improper.qcin
qchem Methylthiophene_Phi_5_Theta_90_Methylthiophene_Hydrogenated_Improper.qcin_2111801.0 ./qchem2111801/ 1
/cm/shared/apps/spack/cpu/opt/spack/linux-centos8-zen2/gcc-10.2.0/qchem-5.4-akfmr7b3t57bfs6qan3padb2wnb2i7cl/bin/mpi/mpirun_qchem -machinefile ./qchem2111801/hostfile -np 1 /cm/shared/apps/spack/cpu/opt/spack/linux-centos8-zen2/gcc-10.2.0/qchem-5.4-akfmr7b3t57bfs6qan3padb2wnb2i7cl/exe/qcprog.exe Methylthiophene_Phi_5_Theta_90_Methylthiophene_Hydrogenated_Improper.qcin_2111801.0 ./qchem2111801/

Process 0 of 1 is on exp-8-30 - thread support 0
initial socket setup ...start
initial socket setup ...done 
now start server 0 ... 
                  Welcome to Q-Chem
     A Quantum Leap Into The Future Of Chemistry


 Q-Chem 5.4, Q-Chem, Inc., Pleasanton, CA (2021)

 License issued to: University of California, San Diego (site)

 E. Epifanovsky,  A. T. B. Gilbert,  Xintian Feng,  Joonho Lee,  Yuezhi Mao,  
 N. Mardirossian,  P. Pokhilko,  A. White,  M. Wormit,  M. P. Coons,  
 A. L. Dempwolff,  Zhengting Gan,  D. Hait,  P. R. Horn,  L. D. Jacobson,  
 I. Kaliman,  J. Kussmann,  A. W. Lange,  Ka Un Lao,  D. S. Levine,  Jie Liu,  
 S. C. McKenzie,  A. F. Morrison,  K. Nanda,  F. Plasser,  D. R. Rehn,  
 M. L. Vidal,  Zhi-Qiang You,  Ying Zhu,  B. Alam,  B. Albrecht,  
 A. Aldossary,  E. Alguire,  J. H. Andersen,  D. Barton,  K. Begam,  A. Behn,  
 Y. A. Bernard,  E. J. Berquist,  H. Burton,  A. Carreras,  K. Carter-Fenk,  
 R. Chakraborty,  A. D. Chien,  K. D. Closser,  V. Cofer-Shabica,  
 S. Dasgupta,  Jia Deng,  M. de Wergifosse,  M. Diedenhofen,  Hainam Do,  
 S. Ehlert,  Po-Tung Fang,  S. Fatehi,  Qingguo Feng,  J. Gayvert,  
 Qinghui Ge,  G. Gidofalvi,  M. Goldey,  J. Gomes,  C. Gonzalez-Espinoza,  
 S. Gulania,  A. Gunina,  M. W. D. Hanson-Heine,  P. H. P. Harbach,  
 A. W. Hauser,  M. F. Herbst,  M. Hernandez Vera,  M. Hodecker,  
 Z. C. Holden,  S. Houck,  Xunkun Huang,  Kerwin Hui,  B. C. Huynh,  
 M. Ivanov,  Hyunjun Ji,  Hanjie Jiang,  B. Kaduk,  S. Kaehler,  
 K. Khistyaev,  Jaehoon Kim,  P. Klunzinger,  Z. Koczor-Benda,  
 Joong Hoon Koh,  D. Kosenkov,  L. Koulias,  T. Kowalczyk,  C. M. Krauter,  
 K. Kue,  A. Kunitsa,  T. Kus,  A. Landau,  K. V. Lawler,  D. Lefrancois,  
 S. Lehtola,  Rain Li,  Yi-Pei Li,  Jiashu Liang,  M. Liebenthal,  
 Hung-Hsuan Lin,  You-Sheng Lin,  Fenglai Liu,  Kuan-Yu Liu,  
 M. Loipersberger,  A. Luenser,  A. Manjanath,  P. Manohar,  E. Mansoor,  
 S. F. Manzer,  Shan-Ping Mao,  A. V. Marenich,  T. Markovich,  S. Mason,  
 S. A. Maurer,  P. F. McLaughlin,  M. F. S. J. Menger,  J.-M. Mewes,  
 S. A. Mewes,  P. Morgante,  J. W. Mullinax,  T. S. Nguyen-Beck,  
 K. J. Oosterbaan,  G. Paran,  Alexander C. Paul,  Suranjan K. Paul,  
 F. Pavosevic,  Zheng Pei,  S. Prager,  E. I. Proynov,  E. Ramos,  B. Rana,  
 A. E. Rask,  A. Rettig,  R. M. Richard,  F. Rob,  E. Rossomme,  T. Scheele,  
 M. Scheurer,  M. Schneider,  N. Sergueev,  S. M. Sharada,  W. Skomorowski,  
 D. W. Small,  C. J. Stein,  Yu-Chuan Su,  E. J. Sundstrom,  Zhen Tao,  
 J. Thirman,  T. Tsuchimochi,  N. M. Tubman,  S. P. Veccham,  O. Vydrov,  
 J. Wenzel,  J. Witte,  A. Yamada,  Kun Yao,  S. Yeganeh,  S. R. Yost,  
 A. Zech,  Igor Ying Zhang,  Xing Zhang,  Yu Zhang,  D. Zuev,  
 A. Aspuru-Guzik,  A. T. Bell,  N. A. Besley,  K. B. Bravaya,  B. R. Brooks,  
 D. Casanova,  Jeng-Da Chai,  S. Coriani,  C. J. Cramer,  
 A. E. DePrince, III,  R. A. DiStasio Jr.,  A. Dreuw,  B. D. Dunietz,  
 T. R. Furlani,  W. A. Goddard III,  S. Grimme,  S. Hammes-Schiffer,  
 T. Head-Gordon,  W. J. Hehre,  Chao-Ping Hsu,  T.-C. Jagau,  Yousung Jung,  
 A. Klamt,  Jing Kong,  D. S. Lambrecht,  WanZhen Liang,  N. J. Mayhall,  
 C. W. McCurdy,  J. B. Neaton,  C. Ochsenfeld,  J. A. Parkhill,  R. Peverati,  
 V. A. Rassolov,  Yihan Shao,  L. V. Slipchenko,  T. Stauch,  R. P. Steele,  
 J. E. Subotnik,  A. J. W. Thom,  A. Tkatchenko,  D. G. Truhlar,  
 T. Van Voorhis,  T. A. Wesolowski,  K. B. Whaley,  H. L. Woodcock III,  
 P. M. Zimmerman,  S. Faraji,  P. M. W. Gill,  M. Head-Gordon,  
 J. M. Herbert,  A. I. Krylov

 Contributors to earlier versions of Q-Chem not listed above: 
 R. D. Adamson,  B. Austin,  R. Baer,  J. Baker,  G. J. O. Beran,  
 K. Brandhorst,  S. T. Brown,  E. F. C. Byrd,  A. K. Chakraborty,  
 G. K. L. Chan,  Chun-Min Chang,  Yunqing Chen,  C.-L. Cheng,  
 Siu Hung Chien,  D. M. Chipman,  D. L. Crittenden,  H. Dachsel,  
 R. J. Doerksen,  A. D. Dutoi,  R. G. Edgar,  J. Fosso-Tande,  
 L. Fusti-Molnar,  D. Ghosh,  A. Ghysels,  A. Golubeva-Zadorozhnaya,  
 J. Gonthier,  M. S. Gordon,  S. R. Gwaltney,  G. Hawkins,  J. E. Herr,  
 A. Heyden,  S. Hirata,  E. G. Hohenstein,  G. Kedziora,  F. J. Keil,  
 C. Kelley,  Jihan Kim,  R. A. King,  R. Z. Khaliullin,  P. P. Korambath,  
 W. Kurlancheek,  A. Laurent,  A. M. Lee,  M. S. Lee,  S. V. Levchenko,  
 Ching Yeh Lin,  D. Liotard,  E. Livshits,  R. C. Lochan,  I. Lotan,  
 L. A. Martinez-Martinez,  P. E. Maslen,  N. Nair,  D. P. O'Neill,  
 D. Neuhauser,  E. Neuscamman,  C. M. Oana,  R. Olivares-Amaya,  R. Olson,  
 T. M. Perrine,  B. Peters,  P. A. Pieniazek,  A. Prociuk,  Y. M. Rhee,  
 J. Ritchie,  M. A. Rohrdanz,  E. Rosta,  N. J. Russ,  H. F. Schaefer III,  
 M. W. Schmidt,  N. E. Schultz,  S. Sharma,  N. Shenvi,  C. D. Sherrill,  
 A. C. Simmonett,  A. Sodt,  T. Stein,  D. Stuck,  K. S. Thanthiriwatte,  
 V. Vanovschi,  L. Vogt,  Tao Wang,  A. Warshel,  M. A. Watson,  
 C. F. Williams,  Q. Wu,  X. Xu,  Jun Yang,  W. Zhang,  Yan Zhao

 Please cite Q-Chem as follows:
 Y. Shao et al., Mol. Phys. 113, 184-215 (2015)
 DOI: 10.1080/00268976.2014.952696

 Q-Chem 5.4.0 for Intel X86 EM64T Linux

 Parts of Q-Chem use Armadillo 9.800.1 (Horizon Scraper).
 http://arma.sourceforge.net/

 Q-Chem begins on Fri Dec 15 13:57:08 2023  

 Host: 
0

     Scratch files written to ./qchem2111801//
 May1621 |scratch|qcdevops|jenkins|workspace|build_RNUM    
 Parallel job on  1  processors
 Processing $rem in /cm/shared/apps/spack/cpu/opt/spack/linux-centos8-zen2/gcc-10.2.0/qchem-5.4-akfmr7b3t57bfs6qan3padb2wnb2i7cl/config/preferences:
 Processing $rem in /home/rramji/.qchemrc:
 Symmetry turned off for PCM/SM12/SMD calculation
 Core orbitals will be frozen

 Checking the input file for inconsistencies... 	...done.

 Q-Chem warning in module forms1/BasisType.C, line 2236:

 You are not using the predefined 5D/6D in this basis set.


--------------------------------------------------------------
User input:
--------------------------------------------------------------
$molecule
0 1
C	-0.056322	-0.574004	-0.003619
C	0.014178	0.267696	1.109381
C	0.130778	1.653696	0.816981
H	-0.018222	-0.119104	2.139281
C	0.151778	1.900996	-0.567219
S	0.024578	0.393196	-1.468319
C	0.219978	2.714596	1.878781
H	0.182378	2.268196	2.891381
H	-0.614322	3.443096	1.804481
H	1.164278	3.293496	1.804581
C	-0.056322	-2.024104	-0.003619
H	-0.056322	-2.024604	1.076381
H	-0.994422	-2.559204	-0.003819
H	0.776878	-2.711304	-0.003919
H	0.231978	2.855696	-1.100719
$end

$rem
JOBTYPE		SP
EXCHANGE	HF
CORRELATION	pRIMP2
BASIS		cc-pvtz
METHOD		rimp2
AUX_BASIS	rimp2-cc-pvtz
SOLVENT_METHOD	PCM
PURECART	11111
SYMMETRY	false
MEM_TOTAL	110000
SCF_CONVERGENCE = 6
THRESH=10
GUI = 2
$end



$solvent
dielectric 4.90
$end
--------------------------------------------------------------
 ----------------------------------------------------------------
             Standard Nuclear Orientation (Angstroms)
    I     Atom           X                Y                Z
 ----------------------------------------------------------------
    1      C      -0.0563220000    -0.5740040000    -0.0036190000
    2      C       0.0141780000     0.2676960000     1.1093810000
    3      C       0.1307780000     1.6536960000     0.8169810000
    4      H      -0.0182220000    -0.1191040000     2.1392810000
    5      C       0.1517780000     1.9009960000    -0.5672190000
    6      S       0.0245780000     0.3931960000    -1.4683190000
    7      C       0.2199780000     2.7145960000     1.8787810000
    8      H       0.1823780000     2.2681960000     2.8913810000
    9      H      -0.6143220000     3.4430960000     1.8044810000
   10      H       1.1642780000     3.2934960000     1.8045810000
   11      C      -0.0563220000    -2.0241040000    -0.0036190000
   12      H      -0.0563220000    -2.0246040000     1.0763810000
   13      H      -0.9944220000    -2.5592040000    -0.0038190000
   14      H       0.7768780000    -2.7113040000    -0.0039190000
   15      H       0.2319780000     2.8556960000    -1.1007190000
 ----------------------------------------------------------------
 Nuclear Repulsion Energy =         344.03224880 hartrees
 There are       30 alpha and       30 beta electrons
 Requested basis set is cc-pVTZ
 There are 120 shells and 326 basis functions

 Total QAlloc Memory Limit 110000 MB
 Mega-Array Size       188 MB
 MEM_STATIC part       192 MB
 Discretize the solute cavity surface with Lebedev spheres
	Using 110 Lebedev grid points for each H atom
	Using 194 Lebedev grid points for other atoms
	Atomic van der Waals radii will be scaled by 1.20
 Remove points where switching function is < 1.0e-08
 Keep 1053 surface tesserae and discard 1185 interior tesserae
 Molecular Surface Area = 159.172 Angst**2

                       Distance Matrix (Angstroms)
             C (  1)   C (  2)   C (  3)   H (  4)   C (  5)   S (  6)
   C (  2)  1.397211
   C (  3)  2.381394  1.421298
   H (  4)  2.190983  1.100617  2.216641
   C (  5)  2.546876  2.344694  1.406274  3.381545
   S (  6)  1.757090  2.580774  2.612037  3.644045  1.761142
   C (  7)  3.799297  2.573257  1.503624  2.855601  2.578665  4.078009
   H (  8)  4.064001  2.684365  2.164118  2.510995  3.478173  4.748422
   H (  9)  4.440460  3.310792  2.175381  3.627216  2.930860  4.518994
   H ( 10)  4.440384  3.310815  2.175413  3.627143  2.930810  4.519129
   C ( 11)  1.450100  2.548742  3.772877  2.867490  3.970814  2.827584
   H ( 12)  1.808491  2.293621  3.692179  2.182232  4.260876  3.511097
   H ( 13)  2.195689  3.201227  4.437152  3.391155  4.639459  3.449607
   H ( 14)  2.293965  3.270411  4.488268  3.456153  4.688429  3.514021
   H ( 15)  3.612421  3.410238  2.265528  4.405637  1.096589  2.498410
             C (  7)   H (  8)   H (  9)   H ( 10)   C ( 11)   H ( 12)
   H (  8)  1.107269
   H (  9)  1.110085  1.787868
   H ( 10)  1.110105  1.787876  1.784880
   C ( 11)  5.106373  5.182841  5.785401  5.747723
   H ( 12)  4.814582  4.666833  5.544117  5.504755  1.080000
   H ( 13)  5.729914  5.750724  6.280289  6.494951  1.079983  1.527305
   H ( 14)  5.770190  5.790649  6.563717  6.283182  1.080031  1.527360
   H ( 15)  2.982863  4.035403  3.082442  3.082470  5.009910  5.351655
             H ( 13)   H ( 14)
   H ( 14)  1.777818
   H ( 15)  5.659363  5.700121
 
 Requested basis set is rimp2-cc-pVTZ
 There are 250 shells and 848 basis functions
 A cutoff of  1.0D-10 yielded   6202 shell pairs
 There are     45434 function pairs (     58428 Cartesian)
 Smallest overlap matrix eigenvalue = 1.02E-04

 Scale SEOQF with 1.000000e+00/1.000000e-01/1.000000e-01

 Standard Electronic Orientation quadrupole field applied
 Nucleus-field energy     =     0.0000000035 hartrees
 Guess from superposition of atomic densities
 Warning:  Energy on first SCF cycle will be non-variational
 SAD guess density has 60.000000 electrons

 -----------------------------------------------------------------------
  General SCF calculation program by
  Eric Jon Sundstrom, Paul Horn, Yuezhi Mao, Dmitri Zuev, Alec White,
  David Stuck, Shaama M.S., Shane Yost, Joonho Lee, David Small,
  Daniel Levine, Susi Lehtola, Hugh Burton, Evgeny Epifanovsky,
  Bang C. Huynh
 -----------------------------------------------------------------------
 Hartree-Fock
 using 64 threads for integral computing
 -------------------------------------------------------
 OpenMP Integral computing Module                
 Release: version 1.0, May 2013, Q-Chem Inc. Pittsburgh 
 -------------------------------------------------------
 A restricted SCF calculation will be
 performed using DIIS
 SCF converges when DIIS error is below 1.0e-06
 ---------------------------------------
  Cycle       Energy         DIIS error
 ---------------------------------------
    1    -632.0927782560      2.91e-02  
    2    -629.3473578682      1.91e-03  
    3    -629.4168396422      6.36e-04  
    4    -629.4238011553      3.25e-04  
    5    -629.4256325682      6.15e-05  
    6    -629.4257589564      2.44e-05  
    7    -629.4257899084      1.13e-05  
    8    -629.4257989295      4.74e-06  
    9    -629.4258003350      1.68e-06  
   10    -629.4258004851      4.84e-07  Convergence criterion met
 ---------------------------------------
 SCF time:   CPU 673.31s  wall 14.00s 

************** Final PCM Free Energy Summary **************
 G_electrostatic  =      -0.00548407 hartree =      -3.44130356 kcal/mol
 G_cavitation     =       0.00000000 hartree =       0.00000000 kcal/mol
 G_dispersion     =       0.00000000 hartree =       0.00000000 kcal/mol
 G_repulsion      =       0.00000000 hartree =       0.00000000 kcal/mol
 --------------------------------------------------
 Non-electrostatic Free Energy =       0.00000000 hartree =       0.00000000 kcal/mol
 Total                         =      -0.00548407 hartree =      -3.44130356 kcal/mol
 --------------------------------------------------
 SCF Energy (H0 + V/2)                       =    -629.42580049 
 Solute Internal Energy (H0)                 =    -629.42031642 
 Total Free Energy (H0 + V/2 + non-elec)     =    -629.42580049 hartree
                                             = -394970.65109614 kcal/mol
***********************************************************

 SCF   energy in the final basis set =     -629.4258004851
 Total energy in the final basis set =     -629.4258004851


 --------------------------------------------------------------
  Generalized many-body perturbation theory program
  by Joonho Lee, Fazle Rob, Xintian Feng, Evgeny Epifanovsky

 No regularization used 
 (reg. param. = 0.0000e+00)
  (P|Q)^-1/2 Time:  CPU 7.89 s  wall 0.13 s

 In RI-MP2 calculation: 
 # of frozen core orbitals: 11

 Components of the RIMP2 correlation energy:
        aaaa    correlation energy =        -0.1455647299 a.u.
        abab    correlation energy =        -0.8865209388 a.u.
        bbbb    correlation energy =        -0.1455647299 a.u.
        non-Brillouin singles      =        -0.0000000000 a.u.
        total same-spin energy     =        -0.2911294599 a.u.
        total opposite-spin energy =        -0.8865209388 a.u.

 Total  RIMP2   correlation energy =        -1.1776503986 a.u.
        RIMP2         total energy =      -630.6034508837 a.u.

 RI-MP2 Energy Time:  CPU 37.04 s  wall 0.66 s
 
 --------------------------------------------------------------
 
                    Orbital Energies (a.u.)
 --------------------------------------------------------------
 
 Alpha MOs
 -- Occupied --
-91.9754 -11.2776 -11.2582 -11.2472 -11.2341 -11.2276 -11.2172  -8.9755
 -6.6564  -6.6559  -6.6553  -1.1610  -1.0524  -0.9997  -0.9389  -0.8855
 -0.7424  -0.7239  -0.6478  -0.5909  -0.5780  -0.5667  -0.5590  -0.5410
 -0.5103  -0.4854  -0.4679  -0.4384  -0.3378  -0.3053
 -- Virtual --
  0.1044   0.1445   0.1505   0.1772   0.1878   0.1927   0.1978   0.2306
  0.2322   0.2448   0.2472   0.2704   0.3086   0.3146   0.3446   0.3588
  0.3729   0.3957   0.4112   0.4117   0.4415   0.4656   0.4701   0.4845
  0.4922   0.5020   0.5215   0.5255   0.5385   0.5438   0.5746   0.5889
  0.6036   0.6039   0.6213   0.6335   0.6407   0.6443   0.6468   0.6485
  0.6669   0.6730   0.6845   0.6904   0.7338   0.7491   0.7628   0.7722
  0.8019   0.8110   0.8435   0.8679   0.8720   0.8802   0.9034   0.9398
  0.9533   0.9684   0.9983   1.0149   1.0391   1.0484   1.0629   1.0767
  1.0830   1.0893   1.1099   1.1355   1.1624   1.1660   1.1927   1.2046
  1.2110   1.2342   1.2545   1.2584   1.2691   1.2811   1.3080   1.3344
  1.3456   1.3529   1.3911   1.4158   1.4366   1.4534   1.4649   1.4839
  1.4946   1.5041   1.5313   1.5360   1.5558   1.5628   1.5732   1.5819
  1.5999   1.6334   1.6469   1.6671   1.6849   1.7014   1.7159   1.7545
  1.7826   1.7919   1.8029   1.8234   1.9007   1.9053   1.9200   1.9579
  1.9947   2.0434   2.1003   2.1383   2.1856   2.1916   2.2165   2.2239
  2.2577   2.3050   2.3511   2.4153   2.4594   2.5099   2.5217   2.5706
  2.5760   2.6091   2.6314   2.6471   2.6582   2.6945   2.7124   2.7216
  2.7346   2.7552   2.7701   2.8049   2.8310   2.8418   2.8579   2.8763
  2.9069   2.9123   2.9356   2.9583   2.9952   3.0062   3.0392   3.0668
  3.0822   3.1127   3.1164   3.1389   3.1530   3.1558   3.1958   3.2125
  3.2187   3.2463   3.2655   3.2678   3.2767   3.3196   3.3272   3.3289
  3.3404   3.3457   3.3699   3.3827   3.3842   3.4157   3.4268   3.4325
  3.4346   3.4733   3.4765   3.4825   3.4954   3.5164   3.5353   3.5579
  3.5861   3.6041   3.6068   3.6113   3.6261   3.6613   3.6691   3.6822
  3.7041   3.7185   3.7202   3.7361   3.7603   3.7819   3.7866   3.7944
  3.8105   3.8427   3.8737   3.8903   3.8958   3.9059   3.9395   3.9488
  3.9666   3.9767   3.9915   4.0305   4.0368   4.0644   4.0863   4.1002
  4.1232   4.1469   4.1477   4.1610   4.1914   4.2078   4.2226   4.2263
  4.2680   4.2792   4.3064   4.3372   4.3418   4.3841   4.3971   4.4051
  4.4229   4.4290   4.4412   4.4597   4.4843   4.5203   4.5590   4.5777
  4.6040   4.6331   4.6551   4.6847   4.7183   4.7546   4.7773   4.8011
  4.8100   4.8192   4.8644   4.8970   4.9178   4.9315   5.0847   5.0955
  5.1034   5.1280   5.1929   5.2192   5.2546   5.2652   5.2992   5.3043
  5.3603   5.3968   5.4103   5.4479   5.4699   5.4925   5.5485   5.5743
  5.5981   5.6229   5.6349   5.6971   5.7228   5.8296   5.8474   5.8549
  5.9083   5.9761   6.0466   6.1466   6.2264   6.2494   6.2961   6.3485
  6.4269   6.4759   9.2079  11.4167  12.9400  13.8760  14.1906  14.4262
 --------------------------------------------------------------
 
          Ground-State Mulliken Net Atomic Charges

     Atom                 Charge (a.u.)
  ----------------------------------------
      1 C                     0.059565
      2 C                    -0.267064
      3 C                     0.030095
      4 H                     0.176453
      5 C                    -0.249365
      6 S                    -0.007743
      7 C                    -0.273570
      8 H                     0.101263
      9 H                     0.107212
     10 H                     0.107323
     11 C                    -0.368006
     12 H                     0.119643
     13 H                     0.128830
     14 H                     0.141445
     15 H                     0.193918
  ----------------------------------------
  Sum of atomic charges =     0.000000

 -----------------------------------------------------------------
                    Cartesian Multipole Moments
 -----------------------------------------------------------------
    Charge (ESU x 10^10)
                -0.0000
    Dipole Moment (Debye)
         X       0.1128      Y      -0.0537      Z       2.1647
       Tot       2.1683
    Quadrupole Moments (Debye-Ang)
        XX     -53.6284     XY       0.6484     YY     -42.1816
        XZ      -0.0071     YZ      -1.0243     ZZ     -48.9968
    Octopole Moments (Debye-Ang^2)
       XXX      -9.3066    XXY     -32.5654    XYY      -0.5407
       YYY     -77.7174    XXZ      -2.8787    XYZ      -0.1988
       YYZ      -2.5729    XZZ      -2.4971    YZZ     -23.6138
       ZZZ      -1.0472
    Hexadecapole Moments (Debye-Ang^3)
      XXXX     -82.3614   XXXY     -26.6555   XXYY    -155.4670
      XYYY     -25.0071   YYYY    -804.4894   XXXZ      -7.6014
      XXYZ     -29.9131   XYYZ      -3.7390   YYYZ    -109.8218
      XXZZ    -103.5975   XYZZ      -7.4058   YYZZ    -217.8843
      XZZZ      -8.5108   YZZZ     -98.2872   ZZZZ    -490.1852
 -----------------------------------------------------------------
 Total job time:  16.00s(wall), 748.05s(cpu) 
 Fri Dec 15 13:57:24 2023

        *************************************************************
        *                                                           *
        *  Thank you very much for using Q-Chem.  Have a nice day.  *
        *                                                           *
        *************************************************************


0 sent ACK to 0 
now end server 0 ... 
cleanup process ... done
remove work dirs ./qchem2111801.0 -- ./qchem2111801.0
rm -rf ./qchem2111801.0
rm -rf ./qchem2111801
