You are running Q-Chem version: 5.4.0

#
# job setting
#
local host:  exp-7-21
current dir: /home/rramji/project-csd799/aromodel/p3ht-qchem/methylated-rotation-run
input file:  Methylthiophene_Phi_20_Theta_200_Methylthiophene_Hydrogenated_Improper.qcin
output file: 
nprocs     : 1
nthreads   : 64
#
# qchem installation setting
#
QC:          /cm/shared/apps/spack/cpu/opt/spack/linux-centos8-zen2/gcc-10.2.0/qchem-5.4-akfmr7b3t57bfs6qan3padb2wnb2i7cl
QCAUX:       /cm/shared/apps/spack/cpu/opt/spack/linux-centos8-zen2/gcc-10.2.0/qchem-5.4-akfmr7b3t57bfs6qan3padb2wnb2i7cl/qcaux
QCPROG:      /cm/shared/apps/spack/cpu/opt/spack/linux-centos8-zen2/gcc-10.2.0/qchem-5.4-akfmr7b3t57bfs6qan3padb2wnb2i7cl/exe/qcprog.exe
QCPROG_S:    /cm/shared/apps/spack/cpu/opt/spack/linux-centos8-zen2/gcc-10.2.0/qchem-5.4-akfmr7b3t57bfs6qan3padb2wnb2i7cl/exe/qcprog.exe_s
PARALLEL:    -DPARALLEL
QCMPI:       mpich
#
# qchem directory setting
#
qcrun:       qchem21427
QCSCRATCH:   .
QCLOCALSCR:  
QCTMPDIR:    .
QCFILEPREF:  ./qchem21427
QCSAVEDIR:   
workdirs:    ./qchem21427
workdir0:    ./qchem21427
partmpdirs =  
#
# parallel setting
#
QCRSH:           ssh
QCMPI:           mpich
QCMPIRUN:        /cm/shared/apps/spack/cpu/opt/spack/linux-centos8-zen2/gcc-10.2.0/qchem-5.4-akfmr7b3t57bfs6qan3padb2wnb2i7cl/bin/mpi/mpirun_qchem
QCMACHINEFILE:   ./qchem21427/hostfile
exp-7-21

#
# env setting
#
exported envs:   QC QCAUX QCSCRATCH QCRUNNAME QCFILEPREF QCPROG QCPROG_S GUIFILE

Running Job 1 of 1 Methylthiophene_Phi_20_Theta_200_Methylthiophene_Hydrogenated_Improper.qcin
qchem Methylthiophene_Phi_20_Theta_200_Methylthiophene_Hydrogenated_Improper.qcin_21427.0 ./qchem21427/ 1
/cm/shared/apps/spack/cpu/opt/spack/linux-centos8-zen2/gcc-10.2.0/qchem-5.4-akfmr7b3t57bfs6qan3padb2wnb2i7cl/bin/mpi/mpirun_qchem -machinefile ./qchem21427/hostfile -np 1 /cm/shared/apps/spack/cpu/opt/spack/linux-centos8-zen2/gcc-10.2.0/qchem-5.4-akfmr7b3t57bfs6qan3padb2wnb2i7cl/exe/qcprog.exe Methylthiophene_Phi_20_Theta_200_Methylthiophene_Hydrogenated_Improper.qcin_21427.0 ./qchem21427/

Process 0 of 1 is on exp-7-21 - thread support 0
initial socket setup ...start
initial socket setup ...done 
now start server 0 ... 
                  Welcome to Q-Chem
     A Quantum Leap Into The Future Of Chemistry


 Q-Chem 5.4, Q-Chem, Inc., Pleasanton, CA (2021)

 License issued to: University of California, San Diego (site)

 E. Epifanovsky,  A. T. B. Gilbert,  Xintian Feng,  Joonho Lee,  Yuezhi Mao,  
 N. Mardirossian,  P. Pokhilko,  A. White,  M. Wormit,  M. P. Coons,  
 A. L. Dempwolff,  Zhengting Gan,  D. Hait,  P. R. Horn,  L. D. Jacobson,  
 I. Kaliman,  J. Kussmann,  A. W. Lange,  Ka Un Lao,  D. S. Levine,  Jie Liu,  
 S. C. McKenzie,  A. F. Morrison,  K. Nanda,  F. Plasser,  D. R. Rehn,  
 M. L. Vidal,  Zhi-Qiang You,  Ying Zhu,  B. Alam,  B. Albrecht,  
 A. Aldossary,  E. Alguire,  J. H. Andersen,  D. Barton,  K. Begam,  A. Behn,  
 Y. A. Bernard,  E. J. Berquist,  H. Burton,  A. Carreras,  K. Carter-Fenk,  
 R. Chakraborty,  A. D. Chien,  K. D. Closser,  V. Cofer-Shabica,  
 S. Dasgupta,  Jia Deng,  M. de Wergifosse,  M. Diedenhofen,  Hainam Do,  
 S. Ehlert,  Po-Tung Fang,  S. Fatehi,  Qingguo Feng,  J. Gayvert,  
 Qinghui Ge,  G. Gidofalvi,  M. Goldey,  J. Gomes,  C. Gonzalez-Espinoza,  
 S. Gulania,  A. Gunina,  M. W. D. Hanson-Heine,  P. H. P. Harbach,  
 A. W. Hauser,  M. F. Herbst,  M. Hernandez Vera,  M. Hodecker,  
 Z. C. Holden,  S. Houck,  Xunkun Huang,  Kerwin Hui,  B. C. Huynh,  
 M. Ivanov,  Hyunjun Ji,  Hanjie Jiang,  B. Kaduk,  S. Kaehler,  
 K. Khistyaev,  Jaehoon Kim,  P. Klunzinger,  Z. Koczor-Benda,  
 Joong Hoon Koh,  D. Kosenkov,  L. Koulias,  T. Kowalczyk,  C. M. Krauter,  
 K. Kue,  A. Kunitsa,  T. Kus,  A. Landau,  K. V. Lawler,  D. Lefrancois,  
 S. Lehtola,  Rain Li,  Yi-Pei Li,  Jiashu Liang,  M. Liebenthal,  
 Hung-Hsuan Lin,  You-Sheng Lin,  Fenglai Liu,  Kuan-Yu Liu,  
 M. Loipersberger,  A. Luenser,  A. Manjanath,  P. Manohar,  E. Mansoor,  
 S. F. Manzer,  Shan-Ping Mao,  A. V. Marenich,  T. Markovich,  S. Mason,  
 S. A. Maurer,  P. F. McLaughlin,  M. F. S. J. Menger,  J.-M. Mewes,  
 S. A. Mewes,  P. Morgante,  J. W. Mullinax,  T. S. Nguyen-Beck,  
 K. J. Oosterbaan,  G. Paran,  Alexander C. Paul,  Suranjan K. Paul,  
 F. Pavosevic,  Zheng Pei,  S. Prager,  E. I. Proynov,  E. Ramos,  B. Rana,  
 A. E. Rask,  A. Rettig,  R. M. Richard,  F. Rob,  E. Rossomme,  T. Scheele,  
 M. Scheurer,  M. Schneider,  N. Sergueev,  S. M. Sharada,  W. Skomorowski,  
 D. W. Small,  C. J. Stein,  Yu-Chuan Su,  E. J. Sundstrom,  Zhen Tao,  
 J. Thirman,  T. Tsuchimochi,  N. M. Tubman,  S. P. Veccham,  O. Vydrov,  
 J. Wenzel,  J. Witte,  A. Yamada,  Kun Yao,  S. Yeganeh,  S. R. Yost,  
 A. Zech,  Igor Ying Zhang,  Xing Zhang,  Yu Zhang,  D. Zuev,  
 A. Aspuru-Guzik,  A. T. Bell,  N. A. Besley,  K. B. Bravaya,  B. R. Brooks,  
 D. Casanova,  Jeng-Da Chai,  S. Coriani,  C. J. Cramer,  
 A. E. DePrince, III,  R. A. DiStasio Jr.,  A. Dreuw,  B. D. Dunietz,  
 T. R. Furlani,  W. A. Goddard III,  S. Grimme,  S. Hammes-Schiffer,  
 T. Head-Gordon,  W. J. Hehre,  Chao-Ping Hsu,  T.-C. Jagau,  Yousung Jung,  
 A. Klamt,  Jing Kong,  D. S. Lambrecht,  WanZhen Liang,  N. J. Mayhall,  
 C. W. McCurdy,  J. B. Neaton,  C. Ochsenfeld,  J. A. Parkhill,  R. Peverati,  
 V. A. Rassolov,  Yihan Shao,  L. V. Slipchenko,  T. Stauch,  R. P. Steele,  
 J. E. Subotnik,  A. J. W. Thom,  A. Tkatchenko,  D. G. Truhlar,  
 T. Van Voorhis,  T. A. Wesolowski,  K. B. Whaley,  H. L. Woodcock III,  
 P. M. Zimmerman,  S. Faraji,  P. M. W. Gill,  M. Head-Gordon,  
 J. M. Herbert,  A. I. Krylov

 Contributors to earlier versions of Q-Chem not listed above: 
 R. D. Adamson,  B. Austin,  R. Baer,  J. Baker,  G. J. O. Beran,  
 K. Brandhorst,  S. T. Brown,  E. F. C. Byrd,  A. K. Chakraborty,  
 G. K. L. Chan,  Chun-Min Chang,  Yunqing Chen,  C.-L. Cheng,  
 Siu Hung Chien,  D. M. Chipman,  D. L. Crittenden,  H. Dachsel,  
 R. J. Doerksen,  A. D. Dutoi,  R. G. Edgar,  J. Fosso-Tande,  
 L. Fusti-Molnar,  D. Ghosh,  A. Ghysels,  A. Golubeva-Zadorozhnaya,  
 J. Gonthier,  M. S. Gordon,  S. R. Gwaltney,  G. Hawkins,  J. E. Herr,  
 A. Heyden,  S. Hirata,  E. G. Hohenstein,  G. Kedziora,  F. J. Keil,  
 C. Kelley,  Jihan Kim,  R. A. King,  R. Z. Khaliullin,  P. P. Korambath,  
 W. Kurlancheek,  A. Laurent,  A. M. Lee,  M. S. Lee,  S. V. Levchenko,  
 Ching Yeh Lin,  D. Liotard,  E. Livshits,  R. C. Lochan,  I. Lotan,  
 L. A. Martinez-Martinez,  P. E. Maslen,  N. Nair,  D. P. O'Neill,  
 D. Neuhauser,  E. Neuscamman,  C. M. Oana,  R. Olivares-Amaya,  R. Olson,  
 T. M. Perrine,  B. Peters,  P. A. Pieniazek,  A. Prociuk,  Y. M. Rhee,  
 J. Ritchie,  M. A. Rohrdanz,  E. Rosta,  N. J. Russ,  H. F. Schaefer III,  
 M. W. Schmidt,  N. E. Schultz,  S. Sharma,  N. Shenvi,  C. D. Sherrill,  
 A. C. Simmonett,  A. Sodt,  T. Stein,  D. Stuck,  K. S. Thanthiriwatte,  
 V. Vanovschi,  L. Vogt,  Tao Wang,  A. Warshel,  M. A. Watson,  
 C. F. Williams,  Q. Wu,  X. Xu,  Jun Yang,  W. Zhang,  Yan Zhao

 Please cite Q-Chem as follows:
 Y. Shao et al., Mol. Phys. 113, 184-215 (2015)
 DOI: 10.1080/00268976.2014.952696

 Q-Chem 5.4.0 for Intel X86 EM64T Linux

 Parts of Q-Chem use Armadillo 9.800.1 (Horizon Scraper).
 http://arma.sourceforge.net/

 Q-Chem begins on Fri Dec 15 14:01:21 2023  

 Host: 
0

     Scratch files written to ./qchem21427//
 May1621 |scratch|qcdevops|jenkins|workspace|build_RNUM    
 Parallel job on  1  processors
 Processing $rem in /cm/shared/apps/spack/cpu/opt/spack/linux-centos8-zen2/gcc-10.2.0/qchem-5.4-akfmr7b3t57bfs6qan3padb2wnb2i7cl/config/preferences:
 Processing $rem in /home/rramji/.qchemrc:
 Symmetry turned off for PCM/SM12/SMD calculation
 Core orbitals will be frozen

 Checking the input file for inconsistencies... 	...done.

 Q-Chem warning in module forms1/BasisType.C, line 2236:

 You are not using the predefined 5D/6D in this basis set.


--------------------------------------------------------------
User input:
--------------------------------------------------------------
$molecule
0 1
C	-0.225607	-0.536244	0.003333
C	0.060393	0.258456	1.116333
C	0.531693	1.567156	0.823933
H	-0.071107	-0.106644	2.146233
C	0.615993	1.800556	-0.560267
S	0.102893	0.377056	-1.461367
C	0.892493	2.568756	1.885733
H	0.740593	2.147356	2.898333
H	0.275193	3.488456	1.811433
H	1.954393	2.883556	1.811533
C	-0.225607	-1.986344	0.003333
H	-1.240507	-1.986844	-0.366067
H	0.095493	-2.521444	-0.878167
H	-0.510307	-2.673544	0.786333
H	0.940493	2.701956	-1.093767
$end

$rem
JOBTYPE		SP
EXCHANGE	HF
CORRELATION	pRIMP2
BASIS		cc-pvtz
METHOD		rimp2
AUX_BASIS	rimp2-cc-pvtz
SOLVENT_METHOD	PCM
PURECART	11111
SYMMETRY	false
MEM_TOTAL	110000
SCF_CONVERGENCE = 6
THRESH=10
GUI = 2
$end



$solvent
dielectric 4.90
$end
--------------------------------------------------------------
 ----------------------------------------------------------------
             Standard Nuclear Orientation (Angstroms)
    I     Atom           X                Y                Z
 ----------------------------------------------------------------
    1      C      -0.2256070000    -0.5362440000     0.0033330000
    2      C       0.0603930000     0.2584560000     1.1163330000
    3      C       0.5316930000     1.5671560000     0.8239330000
    4      H      -0.0711070000    -0.1066440000     2.1462330000
    5      C       0.6159930000     1.8005560000    -0.5602670000
    6      S       0.1028930000     0.3770560000    -1.4613670000
    7      C       0.8924930000     2.5687560000     1.8857330000
    8      H       0.7405930000     2.1473560000     2.8983330000
    9      H       0.2751930000     3.4884560000     1.8114330000
   10      H       1.9543930000     2.8835560000     1.8115330000
   11      C      -0.2256070000    -1.9863440000     0.0033330000
   12      H      -1.2405070000    -1.9868440000    -0.3660670000
   13      H       0.0954930000    -2.5214440000    -0.8781670000
   14      H      -0.5103070000    -2.6735440000     0.7863330000
   15      H       0.9404930000     2.7019560000    -1.0937670000
 ----------------------------------------------------------------
 Nuclear Repulsion Energy =         344.64779501 hartrees
 There are       30 alpha and       30 beta electrons
 Requested basis set is cc-pVTZ
 There are 120 shells and 326 basis functions

 Total QAlloc Memory Limit 110000 MB
 Mega-Array Size       188 MB
 MEM_STATIC part       192 MB
 Discretize the solute cavity surface with Lebedev spheres
	Using 110 Lebedev grid points for each H atom
	Using 194 Lebedev grid points for other atoms
	Atomic van der Waals radii will be scaled by 1.20
 Remove points where switching function is < 1.0e-08
 Keep 1075 surface tesserae and discard 1163 interior tesserae
 Molecular Surface Area = 158.346 Angst**2

                       Distance Matrix (Angstroms)
             C (  1)   C (  2)   C (  3)   H (  4)   C (  5)   S (  6)
   C (  2)  1.397180
   C (  3)  2.381424  1.421379
   H (  4)  2.190992  1.100584  2.216631
   C (  5)  2.546875  2.344728  1.406269  3.381517
   S (  6)  1.757093  2.580777  2.612050  3.644039  1.761137
   C (  7)  3.799290  2.573296  1.503595  2.855547  2.578662  4.078001
   H (  8)  4.064022  2.684425  2.164118  2.510981  3.478176  4.748432
   H (  9)  4.440522  3.310922  2.175395  3.627225  2.930889  4.519039
   H ( 10)  4.440385  3.310844  2.175394  3.627116  2.930809  4.519123
   C ( 11)  1.450100  2.521843  3.724815  2.854674  3.920019  2.799807
   H ( 12)  1.808513  2.988515  4.145806  3.348776  4.222405  2.931285
   H ( 13)  2.195715  3.421565  4.450176  3.873759  4.364821  2.956599
   H ( 14)  2.293947  3.005199  4.367003  2.937890  4.806189  3.838532
   H ( 15)  3.612389  3.410251  2.265494  4.405584  1.096560  2.498372
             C (  7)   H (  8)   H (  9)   H ( 10)   C ( 11)   H ( 12)
   H (  8)  1.107254
   H (  9)  1.110148  1.787875
   H ( 10)  1.110061  1.787858  1.784830
   C ( 11)  5.053960  5.138292  5.787354  5.633641
   H ( 12)  5.511242  5.627848  6.084222  6.218531  1.080036
   H ( 13)  5.846750  6.039520  6.586740  6.316963  1.080037  1.527396
   H ( 14)  5.536988  5.409840  6.295878  6.164993  1.079994  1.527342
   H ( 15)  2.982862  4.035394  3.082433  3.082489  4.954147  5.222179
             H ( 13)   H ( 14)
   H ( 14)  1.777832
   H ( 15)  5.295698  5.876699
 
 Requested basis set is rimp2-cc-pVTZ
 There are 250 shells and 848 basis functions
 A cutoff of  1.0D-10 yielded   6167 shell pairs
 There are     45199 function pairs (     58123 Cartesian)
 Smallest overlap matrix eigenvalue = 1.05E-04

 Scale SEOQF with 1.000000e-01/1.000000e-01/1.000000e-01

 Standard Electronic Orientation quadrupole field applied
 Nucleus-field energy     =     0.0000000017 hartrees
 Guess from superposition of atomic densities
 Warning:  Energy on first SCF cycle will be non-variational
 SAD guess density has 60.000000 electrons

 -----------------------------------------------------------------------
  General SCF calculation program by
  Eric Jon Sundstrom, Paul Horn, Yuezhi Mao, Dmitri Zuev, Alec White,
  David Stuck, Shaama M.S., Shane Yost, Joonho Lee, David Small,
  Daniel Levine, Susi Lehtola, Hugh Burton, Evgeny Epifanovsky,
  Bang C. Huynh
 -----------------------------------------------------------------------
 Hartree-Fock
 using 64 threads for integral computing
 -------------------------------------------------------
 OpenMP Integral computing Module                
 Release: version 1.0, May 2013, Q-Chem Inc. Pittsburgh 
 -------------------------------------------------------
 A restricted SCF calculation will be
 performed using DIIS
 SCF converges when DIIS error is below 1.0e-06
 ---------------------------------------
  Cycle       Energy         DIIS error
 ---------------------------------------
    1    -632.0848010823      2.91e-02  
    2    -629.3324386052      1.95e-03  
    3    -629.4030765860      7.12e-04  
    4    -629.4109513177      3.59e-04  
    5    -629.4132359592      6.41e-05  
    6    -629.4133724959      2.65e-05  
    7    -629.4134061434      1.15e-05  
    8    -629.4134153698      5.17e-06  
    9    -629.4134168931      1.72e-06  
   10    -629.4134170841      6.00e-07  Convergence criterion met
 ---------------------------------------
 SCF time:   CPU 666.26s  wall 14.00s 

************** Final PCM Free Energy Summary **************
 G_electrostatic  =      -0.00559009 hartree =      -3.50783277 kcal/mol
 G_cavitation     =       0.00000000 hartree =       0.00000000 kcal/mol
 G_dispersion     =       0.00000000 hartree =       0.00000000 kcal/mol
 G_repulsion      =       0.00000000 hartree =       0.00000000 kcal/mol
 --------------------------------------------------
 Non-electrostatic Free Energy =       0.00000000 hartree =       0.00000000 kcal/mol
 Total                         =      -0.00559009 hartree =      -3.50783277 kcal/mol
 --------------------------------------------------
 SCF Energy (H0 + V/2)                       =    -629.41341708 
 Solute Internal Energy (H0)                 =    -629.40782700 
 Total Free Energy (H0 + V/2 + non-elec)     =    -629.41341708 hartree
                                             = -394962.88039472 kcal/mol
***********************************************************

 SCF   energy in the final basis set =     -629.4134170841
 Total energy in the final basis set =     -629.4134170841


 --------------------------------------------------------------
  Generalized many-body perturbation theory program
  by Joonho Lee, Fazle Rob, Xintian Feng, Evgeny Epifanovsky

 No regularization used 
 (reg. param. = 0.0000e+00)
  (P|Q)^-1/2 Time:  CPU 7.11 s  wall 0.12 s

 In RI-MP2 calculation: 
 # of frozen core orbitals: 11

 Components of the RIMP2 correlation energy:
        aaaa    correlation energy =        -0.1454515388 a.u.
        abab    correlation energy =        -0.8869209897 a.u.
        bbbb    correlation energy =        -0.1454515388 a.u.
        non-Brillouin singles      =        -0.0000000000 a.u.
        total same-spin energy     =        -0.2909030777 a.u.
        total opposite-spin energy =        -0.8869209897 a.u.

 Total  RIMP2   correlation energy =        -1.1778240674 a.u.
        RIMP2         total energy =      -630.5912411514 a.u.

 RI-MP2 Energy Time:  CPU 35.24 s  wall 0.62 s
 
 --------------------------------------------------------------
 
                    Orbital Energies (a.u.)
 --------------------------------------------------------------
 
 Alpha MOs
 -- Occupied --
-91.9790 -11.2797 -11.2537 -11.2471 -11.2266 -11.2255 -11.2190  -8.9788
 -6.6598  -6.6593  -6.6587  -1.1605  -1.0537  -0.9960  -0.9430  -0.8833
 -0.7450  -0.7186  -0.6467  -0.5871  -0.5734  -0.5678  -0.5527  -0.5454
 -0.5095  -0.4931  -0.4605  -0.4553  -0.3381  -0.2902
 -- Virtual --
  0.1054   0.1443   0.1488   0.1756   0.1885   0.1974   0.2068   0.2165
  0.2246   0.2380   0.2485   0.2547   0.2949   0.3237   0.3400   0.3560
  0.3822   0.3902   0.4018   0.4195   0.4405   0.4619   0.4700   0.4864
  0.4977   0.5102   0.5224   0.5267   0.5327   0.5631   0.5772   0.5920
  0.6007   0.6084   0.6113   0.6257   0.6312   0.6371   0.6400   0.6490
  0.6594   0.6683   0.6826   0.6968   0.7242   0.7433   0.7622   0.7887
  0.8059   0.8362   0.8419   0.8512   0.8645   0.8914   0.9033   0.9199
  0.9479   0.9744   1.0099   1.0111   1.0331   1.0622   1.0645   1.0738
  1.0896   1.0977   1.1045   1.1124   1.1400   1.1700   1.1774   1.2074
  1.2365   1.2428   1.2602   1.2642   1.2686   1.2894   1.3152   1.3388
  1.3609   1.3801   1.3939   1.4125   1.4254   1.4388   1.4511   1.4812
  1.4937   1.5029   1.5149   1.5347   1.5436   1.5638   1.5696   1.5775
  1.6107   1.6279   1.6462   1.6723   1.6906   1.6989   1.7201   1.7494
  1.7686   1.7820   1.8045   1.8340   1.8675   1.9186   1.9330   1.9547
  2.0212   2.0574   2.1075   2.1165   2.1770   2.1958   2.2245   2.2582
  2.2719   2.2835   2.3297   2.4147   2.4462   2.4605   2.5218   2.5367
  2.5617   2.6133   2.6255   2.6502   2.6735   2.7043   2.7215   2.7313
  2.7570   2.7652   2.7811   2.7939   2.8150   2.8389   2.8555   2.8751
  2.9088   2.9284   2.9683   2.9842   3.0183   3.0366   3.0438   3.0752
  3.0882   3.1113   3.1178   3.1379   3.1534   3.1635   3.1765   3.1859
  3.1996   3.2363   3.2666   3.2742   3.2880   3.3059   3.3172   3.3273
  3.3364   3.3534   3.3818   3.3883   3.3918   3.4086   3.4296   3.4342
  3.4480   3.4502   3.4854   3.4905   3.5004   3.5231   3.5326   3.5435
  3.5661   3.5986   3.6130   3.6236   3.6333   3.6559   3.6577   3.6876
  3.6943   3.7063   3.7164   3.7471   3.7599   3.7735   3.7926   3.8053
  3.8264   3.8379   3.8623   3.8693   3.9009   3.9357   3.9510   3.9548
  3.9708   3.9905   4.0120   4.0295   4.0571   4.0688   4.0875   4.1111
  4.1271   4.1484   4.1832   4.1972   4.2154   4.2275   4.2542   4.2563
  4.2842   4.2927   4.3084   4.3352   4.3446   4.3679   4.3939   4.4006
  4.4087   4.4253   4.4352   4.4539   4.4640   4.4896   4.5445   4.5707
  4.6001   4.6251   4.6339   4.6675   4.7205   4.7232   4.7503   4.7789
  4.8176   4.8351   4.8449   4.8896   4.9181   4.9484   5.0662   5.0948
  5.1122   5.1439   5.1618   5.1824   5.2073   5.2651   5.2913   5.3250
  5.3665   5.4038   5.4222   5.4455   5.4703   5.5185   5.5492   5.5644
  5.5795   5.6231   5.6282   5.6776   5.7012   5.8161   5.8225   5.8537
  5.9429   6.0123   6.0874   6.1506   6.2279   6.2468   6.2962   6.3796
  6.4508   6.5084   9.1712  11.3574  12.9208  13.8363  14.1585  14.3199
 --------------------------------------------------------------
 
          Ground-State Mulliken Net Atomic Charges

     Atom                 Charge (a.u.)
  ----------------------------------------
      1 C                     0.022391
      2 C                    -0.266980
      3 C                     0.039631
      4 H                     0.178972
      5 C                    -0.266169
      6 S                    -0.001774
      7 C                    -0.272325
      8 H                     0.101499
      9 H                     0.107071
     10 H                     0.106811
     11 C                    -0.377587
     12 H                     0.131449
     13 H                     0.141781
     14 H                     0.160333
     15 H                     0.194898
  ----------------------------------------
  Sum of atomic charges =     0.000000

 -----------------------------------------------------------------
                    Cartesian Multipole Moments
 -----------------------------------------------------------------
    Charge (ESU x 10^10)
                -0.0000
    Dipole Moment (Debye)
         X      -0.2210      Y      -0.4658      Z       1.2152
       Tot       1.3200
    Quadrupole Moments (Debye-Ang)
        XX     -53.1371     XY       4.2937     YY     -42.9383
        XZ      -0.1027     YZ       0.6794     ZZ     -48.5006
    Octopole Moments (Debye-Ang^2)
       XXX     -35.9646    XXY     -27.0324    XYY      -8.8432
       YYY     -77.4513    XXZ      -2.6961    XYZ      -0.0351
       YYZ      -5.1633    XZZ     -10.1366    YZZ     -24.1564
       ZZZ      -0.5461
    Hexadecapole Moments (Debye-Ang^3)
      XXXX    -145.8152   XXXY    -105.1628   XXYY    -154.6540
      XYYY     -82.6779   YYYY    -744.8587   XXXZ     -31.4825
      XXYZ     -31.5700   XYYZ     -17.2423   YYYZ    -100.9403
      XXZZ    -112.0020   XYZZ     -28.5395   YYZZ    -201.4988
      XZZZ     -35.6694   YZZZ     -98.1942   ZZZZ    -491.4086
 -----------------------------------------------------------------
 Total job time:  19.28s(wall), 737.04s(cpu) 
 Fri Dec 15 14:01:40 2023

        *************************************************************
        *                                                           *
        *  Thank you very much for using Q-Chem.  Have a nice day.  *
        *                                                           *
        *************************************************************


0 sent ACK to 0 
now end server 0 ... 
cleanup process ... done
remove work dirs ./qchem21427.0 -- ./qchem21427.0
rm -rf ./qchem21427.0
rm -rf ./qchem21427
