You are running Q-Chem version: 5.4.0

#
# job setting
#
local host:  exp-7-21
current dir: /home/rramji/project-csd799/aromodel/p3ht-qchem/methylated-rotation-run
input file:  Methylthiophene_Phi_20_Theta_210_Methylthiophene_Hydrogenated_Improper.qcin
output file: 
nprocs     : 1
nthreads   : 64
#
# qchem installation setting
#
QC:          /cm/shared/apps/spack/cpu/opt/spack/linux-centos8-zen2/gcc-10.2.0/qchem-5.4-akfmr7b3t57bfs6qan3padb2wnb2i7cl
QCAUX:       /cm/shared/apps/spack/cpu/opt/spack/linux-centos8-zen2/gcc-10.2.0/qchem-5.4-akfmr7b3t57bfs6qan3padb2wnb2i7cl/qcaux
QCPROG:      /cm/shared/apps/spack/cpu/opt/spack/linux-centos8-zen2/gcc-10.2.0/qchem-5.4-akfmr7b3t57bfs6qan3padb2wnb2i7cl/exe/qcprog.exe
QCPROG_S:    /cm/shared/apps/spack/cpu/opt/spack/linux-centos8-zen2/gcc-10.2.0/qchem-5.4-akfmr7b3t57bfs6qan3padb2wnb2i7cl/exe/qcprog.exe_s
PARALLEL:    -DPARALLEL
QCMPI:       mpich
#
# qchem directory setting
#
qcrun:       qchem21674
QCSCRATCH:   .
QCLOCALSCR:  
QCTMPDIR:    .
QCFILEPREF:  ./qchem21674
QCSAVEDIR:   
workdirs:    ./qchem21674
workdir0:    ./qchem21674
partmpdirs =  
#
# parallel setting
#
QCRSH:           ssh
QCMPI:           mpich
QCMPIRUN:        /cm/shared/apps/spack/cpu/opt/spack/linux-centos8-zen2/gcc-10.2.0/qchem-5.4-akfmr7b3t57bfs6qan3padb2wnb2i7cl/bin/mpi/mpirun_qchem
QCMACHINEFILE:   ./qchem21674/hostfile
exp-7-21

#
# env setting
#
exported envs:   QC QCAUX QCSCRATCH QCRUNNAME QCFILEPREF QCPROG QCPROG_S GUIFILE

Running Job 1 of 1 Methylthiophene_Phi_20_Theta_210_Methylthiophene_Hydrogenated_Improper.qcin
qchem Methylthiophene_Phi_20_Theta_210_Methylthiophene_Hydrogenated_Improper.qcin_21674.0 ./qchem21674/ 1
/cm/shared/apps/spack/cpu/opt/spack/linux-centos8-zen2/gcc-10.2.0/qchem-5.4-akfmr7b3t57bfs6qan3padb2wnb2i7cl/bin/mpi/mpirun_qchem -machinefile ./qchem21674/hostfile -np 1 /cm/shared/apps/spack/cpu/opt/spack/linux-centos8-zen2/gcc-10.2.0/qchem-5.4-akfmr7b3t57bfs6qan3padb2wnb2i7cl/exe/qcprog.exe Methylthiophene_Phi_20_Theta_210_Methylthiophene_Hydrogenated_Improper.qcin_21674.0 ./qchem21674/

Process 0 of 1 is on exp-7-21 - thread support 0
initial socket setup ...start
initial socket setup ...done 
now start server 0 ... 
                  Welcome to Q-Chem
     A Quantum Leap Into The Future Of Chemistry


 Q-Chem 5.4, Q-Chem, Inc., Pleasanton, CA (2021)

 License issued to: University of California, San Diego (site)

 E. Epifanovsky,  A. T. B. Gilbert,  Xintian Feng,  Joonho Lee,  Yuezhi Mao,  
 N. Mardirossian,  P. Pokhilko,  A. White,  M. Wormit,  M. P. Coons,  
 A. L. Dempwolff,  Zhengting Gan,  D. Hait,  P. R. Horn,  L. D. Jacobson,  
 I. Kaliman,  J. Kussmann,  A. W. Lange,  Ka Un Lao,  D. S. Levine,  Jie Liu,  
 S. C. McKenzie,  A. F. Morrison,  K. Nanda,  F. Plasser,  D. R. Rehn,  
 M. L. Vidal,  Zhi-Qiang You,  Ying Zhu,  B. Alam,  B. Albrecht,  
 A. Aldossary,  E. Alguire,  J. H. Andersen,  D. Barton,  K. Begam,  A. Behn,  
 Y. A. Bernard,  E. J. Berquist,  H. Burton,  A. Carreras,  K. Carter-Fenk,  
 R. Chakraborty,  A. D. Chien,  K. D. Closser,  V. Cofer-Shabica,  
 S. Dasgupta,  Jia Deng,  M. de Wergifosse,  M. Diedenhofen,  Hainam Do,  
 S. Ehlert,  Po-Tung Fang,  S. Fatehi,  Qingguo Feng,  J. Gayvert,  
 Qinghui Ge,  G. Gidofalvi,  M. Goldey,  J. Gomes,  C. Gonzalez-Espinoza,  
 S. Gulania,  A. Gunina,  M. W. D. Hanson-Heine,  P. H. P. Harbach,  
 A. W. Hauser,  M. F. Herbst,  M. Hernandez Vera,  M. Hodecker,  
 Z. C. Holden,  S. Houck,  Xunkun Huang,  Kerwin Hui,  B. C. Huynh,  
 M. Ivanov,  Hyunjun Ji,  Hanjie Jiang,  B. Kaduk,  S. Kaehler,  
 K. Khistyaev,  Jaehoon Kim,  P. Klunzinger,  Z. Koczor-Benda,  
 Joong Hoon Koh,  D. Kosenkov,  L. Koulias,  T. Kowalczyk,  C. M. Krauter,  
 K. Kue,  A. Kunitsa,  T. Kus,  A. Landau,  K. V. Lawler,  D. Lefrancois,  
 S. Lehtola,  Rain Li,  Yi-Pei Li,  Jiashu Liang,  M. Liebenthal,  
 Hung-Hsuan Lin,  You-Sheng Lin,  Fenglai Liu,  Kuan-Yu Liu,  
 M. Loipersberger,  A. Luenser,  A. Manjanath,  P. Manohar,  E. Mansoor,  
 S. F. Manzer,  Shan-Ping Mao,  A. V. Marenich,  T. Markovich,  S. Mason,  
 S. A. Maurer,  P. F. McLaughlin,  M. F. S. J. Menger,  J.-M. Mewes,  
 S. A. Mewes,  P. Morgante,  J. W. Mullinax,  T. S. Nguyen-Beck,  
 K. J. Oosterbaan,  G. Paran,  Alexander C. Paul,  Suranjan K. Paul,  
 F. Pavosevic,  Zheng Pei,  S. Prager,  E. I. Proynov,  E. Ramos,  B. Rana,  
 A. E. Rask,  A. Rettig,  R. M. Richard,  F. Rob,  E. Rossomme,  T. Scheele,  
 M. Scheurer,  M. Schneider,  N. Sergueev,  S. M. Sharada,  W. Skomorowski,  
 D. W. Small,  C. J. Stein,  Yu-Chuan Su,  E. J. Sundstrom,  Zhen Tao,  
 J. Thirman,  T. Tsuchimochi,  N. M. Tubman,  S. P. Veccham,  O. Vydrov,  
 J. Wenzel,  J. Witte,  A. Yamada,  Kun Yao,  S. Yeganeh,  S. R. Yost,  
 A. Zech,  Igor Ying Zhang,  Xing Zhang,  Yu Zhang,  D. Zuev,  
 A. Aspuru-Guzik,  A. T. Bell,  N. A. Besley,  K. B. Bravaya,  B. R. Brooks,  
 D. Casanova,  Jeng-Da Chai,  S. Coriani,  C. J. Cramer,  
 A. E. DePrince, III,  R. A. DiStasio Jr.,  A. Dreuw,  B. D. Dunietz,  
 T. R. Furlani,  W. A. Goddard III,  S. Grimme,  S. Hammes-Schiffer,  
 T. Head-Gordon,  W. J. Hehre,  Chao-Ping Hsu,  T.-C. Jagau,  Yousung Jung,  
 A. Klamt,  Jing Kong,  D. S. Lambrecht,  WanZhen Liang,  N. J. Mayhall,  
 C. W. McCurdy,  J. B. Neaton,  C. Ochsenfeld,  J. A. Parkhill,  R. Peverati,  
 V. A. Rassolov,  Yihan Shao,  L. V. Slipchenko,  T. Stauch,  R. P. Steele,  
 J. E. Subotnik,  A. J. W. Thom,  A. Tkatchenko,  D. G. Truhlar,  
 T. Van Voorhis,  T. A. Wesolowski,  K. B. Whaley,  H. L. Woodcock III,  
 P. M. Zimmerman,  S. Faraji,  P. M. W. Gill,  M. Head-Gordon,  
 J. M. Herbert,  A. I. Krylov

 Contributors to earlier versions of Q-Chem not listed above: 
 R. D. Adamson,  B. Austin,  R. Baer,  J. Baker,  G. J. O. Beran,  
 K. Brandhorst,  S. T. Brown,  E. F. C. Byrd,  A. K. Chakraborty,  
 G. K. L. Chan,  Chun-Min Chang,  Yunqing Chen,  C.-L. Cheng,  
 Siu Hung Chien,  D. M. Chipman,  D. L. Crittenden,  H. Dachsel,  
 R. J. Doerksen,  A. D. Dutoi,  R. G. Edgar,  J. Fosso-Tande,  
 L. Fusti-Molnar,  D. Ghosh,  A. Ghysels,  A. Golubeva-Zadorozhnaya,  
 J. Gonthier,  M. S. Gordon,  S. R. Gwaltney,  G. Hawkins,  J. E. Herr,  
 A. Heyden,  S. Hirata,  E. G. Hohenstein,  G. Kedziora,  F. J. Keil,  
 C. Kelley,  Jihan Kim,  R. A. King,  R. Z. Khaliullin,  P. P. Korambath,  
 W. Kurlancheek,  A. Laurent,  A. M. Lee,  M. S. Lee,  S. V. Levchenko,  
 Ching Yeh Lin,  D. Liotard,  E. Livshits,  R. C. Lochan,  I. Lotan,  
 L. A. Martinez-Martinez,  P. E. Maslen,  N. Nair,  D. P. O'Neill,  
 D. Neuhauser,  E. Neuscamman,  C. M. Oana,  R. Olivares-Amaya,  R. Olson,  
 T. M. Perrine,  B. Peters,  P. A. Pieniazek,  A. Prociuk,  Y. M. Rhee,  
 J. Ritchie,  M. A. Rohrdanz,  E. Rosta,  N. J. Russ,  H. F. Schaefer III,  
 M. W. Schmidt,  N. E. Schultz,  S. Sharma,  N. Shenvi,  C. D. Sherrill,  
 A. C. Simmonett,  A. Sodt,  T. Stein,  D. Stuck,  K. S. Thanthiriwatte,  
 V. Vanovschi,  L. Vogt,  Tao Wang,  A. Warshel,  M. A. Watson,  
 C. F. Williams,  Q. Wu,  X. Xu,  Jun Yang,  W. Zhang,  Yan Zhao

 Please cite Q-Chem as follows:
 Y. Shao et al., Mol. Phys. 113, 184-215 (2015)
 DOI: 10.1080/00268976.2014.952696

 Q-Chem 5.4.0 for Intel X86 EM64T Linux

 Parts of Q-Chem use Armadillo 9.800.1 (Horizon Scraper).
 http://arma.sourceforge.net/

 Q-Chem begins on Fri Dec 15 14:01:43 2023  

 Host: 
0

     Scratch files written to ./qchem21674//
 May1621 |scratch|qcdevops|jenkins|workspace|build_RNUM    
 Parallel job on  1  processors
 Processing $rem in /cm/shared/apps/spack/cpu/opt/spack/linux-centos8-zen2/gcc-10.2.0/qchem-5.4-akfmr7b3t57bfs6qan3padb2wnb2i7cl/config/preferences:
 Processing $rem in /home/rramji/.qchemrc:
 Symmetry turned off for PCM/SM12/SMD calculation
 Core orbitals will be frozen

 Checking the input file for inconsistencies... 	...done.

 Q-Chem warning in module forms1/BasisType.C, line 2236:

 You are not using the predefined 5D/6D in this basis set.


--------------------------------------------------------------
User input:
--------------------------------------------------------------
$molecule
0 1
C	-0.226039	-0.536244	0.004064
C	0.059961	0.258456	1.117064
C	0.531261	1.567156	0.824664
H	-0.071539	-0.106644	2.146964
C	0.615561	1.800556	-0.559536
S	0.102461	0.377056	-1.460636
C	0.892061	2.568756	1.886464
H	0.740161	2.147356	2.899064
H	0.274761	3.488456	1.812164
H	1.953961	2.883556	1.812264
C	-0.226039	-1.986344	0.004064
H	-1.161339	-1.986844	-0.535936
H	0.243261	-2.521444	-0.808236
H	-0.642339	-2.673544	0.725764
H	0.940061	2.701956	-1.093036
$end

$rem
JOBTYPE		SP
EXCHANGE	HF
CORRELATION	pRIMP2
BASIS		cc-pvtz
METHOD		rimp2
AUX_BASIS	rimp2-cc-pvtz
SOLVENT_METHOD	PCM
PURECART	11111
SYMMETRY	false
MEM_TOTAL	110000
SCF_CONVERGENCE = 6
THRESH=10
GUI = 2
$end



$solvent
dielectric 4.90
$end
--------------------------------------------------------------
 ----------------------------------------------------------------
             Standard Nuclear Orientation (Angstroms)
    I     Atom           X                Y                Z
 ----------------------------------------------------------------
    1      C      -0.2260390000    -0.5362440000     0.0040640000
    2      C       0.0599610000     0.2584560000     1.1170640000
    3      C       0.5312610000     1.5671560000     0.8246640000
    4      H      -0.0715390000    -0.1066440000     2.1469640000
    5      C       0.6155610000     1.8005560000    -0.5595360000
    6      S       0.1024610000     0.3770560000    -1.4606360000
    7      C       0.8920610000     2.5687560000     1.8864640000
    8      H       0.7401610000     2.1473560000     2.8990640000
    9      H       0.2747610000     3.4884560000     1.8121640000
   10      H       1.9539610000     2.8835560000     1.8122640000
   11      C      -0.2260390000    -1.9863440000     0.0040640000
   12      H      -1.1613390000    -1.9868440000    -0.5359360000
   13      H       0.2432610000    -2.5214440000    -0.8082360000
   14      H      -0.6423390000    -2.6735440000     0.7257640000
   15      H       0.9400610000     2.7019560000    -1.0930360000
 ----------------------------------------------------------------
 Nuclear Repulsion Energy =         344.70694904 hartrees
 There are       30 alpha and       30 beta electrons
 Requested basis set is cc-pVTZ
 There are 120 shells and 326 basis functions

 Total QAlloc Memory Limit 110000 MB
 Mega-Array Size       188 MB
 MEM_STATIC part       192 MB
 Discretize the solute cavity surface with Lebedev spheres
	Using 110 Lebedev grid points for each H atom
	Using 194 Lebedev grid points for other atoms
	Atomic van der Waals radii will be scaled by 1.20
 Remove points where switching function is < 1.0e-08
 Keep 1075 surface tesserae and discard 1163 interior tesserae
 Molecular Surface Area = 158.243 Angst**2

                       Distance Matrix (Angstroms)
             C (  1)   C (  2)   C (  3)   H (  4)   C (  5)   S (  6)
   C (  2)  1.397180
   C (  3)  2.381424  1.421379
   H (  4)  2.190992  1.100584  2.216631
   C (  5)  2.546875  2.344728  1.406269  3.381517
   S (  6)  1.757093  2.580777  2.612050  3.644039  1.761137
   C (  7)  3.799290  2.573296  1.503595  2.855547  2.578662  4.078001
   H (  8)  4.064022  2.684425  2.164118  2.510981  3.478176  4.748432
   H (  9)  4.440522  3.310922  2.175395  3.627225  2.930889  4.519039
   H ( 10)  4.440385  3.310844  2.175394  3.627116  2.930809  4.519123
   C ( 11)  1.450100  2.521843  3.724815  2.854674  3.920019  2.799807
   H ( 12)  1.808487  3.043905  4.164978  3.452647  4.183579  2.835539
   H ( 13)  2.195699  3.386476  4.412024  3.829303  4.345129  2.974349
   H ( 14)  2.293950  3.040224  4.401211  2.989080  4.822020  3.826386
   H ( 15)  3.612389  3.410251  2.265494  4.405584  1.096560  2.498372
             C (  7)   H (  8)   H (  9)   H ( 10)   C ( 11)   H ( 12)
   H (  8)  1.107254
   H (  9)  1.110148  1.787875
   H ( 10)  1.110061  1.787858  1.784830
   C ( 11)  5.053960  5.138292  5.787354  5.633641
   H ( 12)  5.553194  5.701450  6.128203  6.240187  1.079994
   H ( 13)  5.795902  5.982364  6.556400  6.245602  1.080003  1.527366
   H ( 14)  5.584202  5.465859  6.323890  6.229175  1.080000  1.527352
   H ( 15)  2.982862  4.035394  3.082433  3.082489  4.954147  5.168277
             H ( 13)   H ( 14)
   H ( 14)  1.777801
   H ( 15)  5.277362  5.891352
 
 Requested basis set is rimp2-cc-pVTZ
 There are 250 shells and 848 basis functions
 A cutoff of  1.0D-10 yielded   6167 shell pairs
 There are     45163 function pairs (     58080 Cartesian)
 Smallest overlap matrix eigenvalue = 1.02E-04

 Scale SEOQF with 1.000000e-01/1.000000e-01/1.000000e-01

 Standard Electronic Orientation quadrupole field applied
 Nucleus-field energy     =     0.0000000017 hartrees
 Guess from superposition of atomic densities
 Warning:  Energy on first SCF cycle will be non-variational
 SAD guess density has 60.000000 electrons

 -----------------------------------------------------------------------
  General SCF calculation program by
  Eric Jon Sundstrom, Paul Horn, Yuezhi Mao, Dmitri Zuev, Alec White,
  David Stuck, Shaama M.S., Shane Yost, Joonho Lee, David Small,
  Daniel Levine, Susi Lehtola, Hugh Burton, Evgeny Epifanovsky,
  Bang C. Huynh
 -----------------------------------------------------------------------
 Hartree-Fock
 using 64 threads for integral computing
 -------------------------------------------------------
 OpenMP Integral computing Module                
 Release: version 1.0, May 2013, Q-Chem Inc. Pittsburgh 
 -------------------------------------------------------
 A restricted SCF calculation will be
 performed using DIIS
 SCF converges when DIIS error is below 1.0e-06
 ---------------------------------------
  Cycle       Energy         DIIS error
 ---------------------------------------
    1    -632.0859823523      2.91e-02  
    2    -629.3327311659      1.95e-03  
    3    -629.4033695255      7.08e-04  
    4    -629.4112087737      3.56e-04  
    5    -629.4134643368      6.44e-05  
    6    -629.4136017611      2.66e-05  
    7    -629.4136360348      1.17e-05  
    8    -629.4136454675      5.17e-06  
    9    -629.4136469989      1.73e-06  
   10    -629.4136471875      5.77e-07  Convergence criterion met
 ---------------------------------------
 SCF time:   CPU 670.35s  wall 13.00s 

************** Final PCM Free Energy Summary **************
 G_electrostatic  =      -0.00545700 hartree =      -3.42431962 kcal/mol
 G_cavitation     =       0.00000000 hartree =       0.00000000 kcal/mol
 G_dispersion     =       0.00000000 hartree =       0.00000000 kcal/mol
 G_repulsion      =       0.00000000 hartree =       0.00000000 kcal/mol
 --------------------------------------------------
 Non-electrostatic Free Energy =       0.00000000 hartree =       0.00000000 kcal/mol
 Total                         =      -0.00545700 hartree =      -3.42431962 kcal/mol
 --------------------------------------------------
 SCF Energy (H0 + V/2)                       =    -629.41364719 
 Solute Internal Energy (H0)                 =    -629.40819019 
 Total Free Energy (H0 + V/2 + non-elec)     =    -629.41364719 hartree
                                             = -394963.02478679 kcal/mol
***********************************************************

 SCF   energy in the final basis set =     -629.4136471875
 Total energy in the final basis set =     -629.4136471875


 --------------------------------------------------------------
  Generalized many-body perturbation theory program
  by Joonho Lee, Fazle Rob, Xintian Feng, Evgeny Epifanovsky

 No regularization used 
 (reg. param. = 0.0000e+00)
  (P|Q)^-1/2 Time:  CPU 8.79 s  wall 0.15 s

 In RI-MP2 calculation: 
 # of frozen core orbitals: 11

 Components of the RIMP2 correlation energy:
        aaaa    correlation energy =        -0.1454635927 a.u.
        abab    correlation energy =        -0.8870097442 a.u.
        bbbb    correlation energy =        -0.1454635927 a.u.
        non-Brillouin singles      =        -0.0000000000 a.u.
        total same-spin energy     =        -0.2909271853 a.u.
        total opposite-spin energy =        -0.8870097442 a.u.

 Total  RIMP2   correlation energy =        -1.1779369295 a.u.
        RIMP2         total energy =      -630.5915841170 a.u.

 RI-MP2 Energy Time:  CPU 37.45 s  wall 0.66 s
 
 --------------------------------------------------------------
 
                    Orbital Energies (a.u.)
 --------------------------------------------------------------
 
 Alpha MOs
 -- Occupied --
-91.9793 -11.2784 -11.2551 -11.2471 -11.2267 -11.2263 -11.2183  -8.9792
 -6.6602  -6.6596  -6.6590  -1.1606  -1.0535  -0.9958  -0.9436  -0.8832
 -0.7456  -0.7186  -0.6465  -0.5881  -0.5738  -0.5675  -0.5526  -0.5455
 -0.5096  -0.4909  -0.4617  -0.4536  -0.3382  -0.2922
 -- Virtual --
  0.1038   0.1436   0.1491   0.1759   0.1882   0.1963   0.2056   0.2218
  0.2258   0.2375   0.2498   0.2540   0.2945   0.3236   0.3382   0.3544
  0.3821   0.3915   0.3994   0.4190   0.4416   0.4621   0.4706   0.4859
  0.4975   0.5066   0.5167   0.5275   0.5373   0.5661   0.5756   0.5912
  0.5996   0.6082   0.6097   0.6245   0.6282   0.6384   0.6420   0.6494
  0.6568   0.6682   0.6837   0.7000   0.7291   0.7430   0.7551   0.7854
  0.8076   0.8394   0.8429   0.8532   0.8639   0.8884   0.9053   0.9136
  0.9515   0.9753   1.0060   1.0132   1.0323   1.0597   1.0662   1.0744
  1.0917   1.0969   1.1013   1.1190   1.1535   1.1696   1.1890   1.2106
  1.2371   1.2420   1.2550   1.2635   1.2649   1.2892   1.3105   1.3347
  1.3589   1.3759   1.3961   1.4122   1.4201   1.4373   1.4594   1.4827
  1.5002   1.5061   1.5180   1.5336   1.5474   1.5588   1.5703   1.5738
  1.6098   1.6286   1.6538   1.6718   1.6925   1.6965   1.7150   1.7499
  1.7688   1.7736   1.8082   1.8330   1.8690   1.9131   1.9298   1.9580
  2.0203   2.0521   2.1069   2.1214   2.1781   2.1949   2.2207   2.2585
  2.2622   2.2836   2.3412   2.4182   2.4490   2.4630   2.5307   2.5378
  2.5606   2.6103   2.6297   2.6518   2.6734   2.7058   2.7134   2.7339
  2.7534   2.7621   2.7850   2.7913   2.8160   2.8410   2.8556   2.8760
  2.9114   2.9327   2.9703   2.9903   3.0203   3.0265   3.0453   3.0711
  3.0760   3.1049   3.1154   3.1409   3.1522   3.1690   3.1845   3.1882
  3.2000   3.2429   3.2659   3.2769   3.2905   3.3007   3.3141   3.3316
  3.3349   3.3528   3.3842   3.3874   3.3938   3.4169   3.4262   3.4367
  3.4456   3.4525   3.4843   3.4947   3.5089   3.5222   3.5362   3.5594
  3.5685   3.5973   3.6081   3.6210   3.6328   3.6488   3.6594   3.6865
  3.6969   3.7049   3.7156   3.7474   3.7590   3.7707   3.7933   3.8066
  3.8275   3.8343   3.8564   3.8757   3.8957   3.9375   3.9469   3.9512
  3.9728   3.9937   4.0114   4.0261   4.0532   4.0689   4.0792   4.1122
  4.1233   4.1515   4.1858   4.1918   4.2087   4.2224   4.2517   4.2554
  4.2829   4.2949   4.3057   4.3349   4.3431   4.3710   4.3913   4.4009
  4.4167   4.4265   4.4338   4.4584   4.4660   4.4795   4.5362   4.5619
  4.6057   4.6227   4.6281   4.6653   4.7162   4.7376   4.7438   4.7770
  4.8203   4.8307   4.8359   4.8902   4.9165   4.9438   5.0613   5.0942
  5.1108   5.1674   5.1711   5.1749   5.2105   5.2644   5.2914   5.3250
  5.3652   5.4032   5.4216   5.4450   5.4631   5.5135   5.5493   5.5651
  5.5870   5.6179   5.6238   5.6880   5.7078   5.8178   5.8222   5.8640
  5.9332   6.0197   6.0918   6.1425   6.2278   6.2465   6.3026   6.3702
  6.4564   6.4832   9.1637  11.3885  12.9372  13.8762  14.1699  14.2917
 --------------------------------------------------------------
 
          Ground-State Mulliken Net Atomic Charges

     Atom                 Charge (a.u.)
  ----------------------------------------
      1 C                     0.014980
      2 C                    -0.255771
      3 C                     0.034926
      4 H                     0.179623
      5 C                    -0.258912
      6 S                    -0.004210
      7 C                    -0.272674
      8 H                     0.101535
      9 H                     0.107048
     10 H                     0.106774
     11 C                    -0.375418
     12 H                     0.127661
     13 H                     0.140110
     14 H                     0.159142
     15 H                     0.195187
  ----------------------------------------
  Sum of atomic charges =     0.000000

 -----------------------------------------------------------------
                    Cartesian Multipole Moments
 -----------------------------------------------------------------
    Charge (ESU x 10^10)
                -0.0000
    Dipole Moment (Debye)
         X      -0.1294      Y      -0.3617      Z       1.1306
       Tot       1.1941
    Quadrupole Moments (Debye-Ang)
        XX     -53.0616     XY       4.1886     YY     -42.9724
        XZ      -0.1664     YZ       0.8601     ZZ     -48.5560
    Octopole Moments (Debye-Ang^2)
       XXX     -35.9983    XXY     -27.2416    XYY      -8.6765
       YYY     -76.8228    XXZ      -2.6440    XYZ       0.1687
       YYZ      -5.6768    XZZ     -10.1079    YZZ     -23.6908
       ZZZ      -0.2557
    Hexadecapole Moments (Debye-Ang^3)
      XXXX    -145.9330   XXXY    -104.5769   XXYY    -153.5935
      XYYY     -82.4058   YYYY    -745.1486   XXXZ     -31.5893
      XXYZ     -31.8895   XYYZ     -18.0892   YYYZ    -100.6909
      XXZZ    -111.6681   XYZZ     -28.6416   YYZZ    -202.6995
      XZZZ     -35.6217   YZZZ     -98.8523   ZZZZ    -491.3811
 -----------------------------------------------------------------
 Total job time:  22.19s(wall), 748.67s(cpu) 
 Fri Dec 15 14:02:05 2023

        *************************************************************
        *                                                           *
        *  Thank you very much for using Q-Chem.  Have a nice day.  *
        *                                                           *
        *************************************************************


0 sent ACK to 0 
now end server 0 ... 
cleanup process ... done
remove work dirs ./qchem21674.0 -- ./qchem21674.0
rm -rf ./qchem21674.0
rm -rf ./qchem21674
