You are running Q-Chem version: 5.4.0

#
# job setting
#
local host:  exp-7-24
current dir: /home/rramji/project-csd799/aromodel/p3ht-qchem/methylated-rotation-run
input file:  Methylthiophene_Phi_40_Theta_230_Methylthiophene_Hydrogenated_Improper.qcin
output file: 
nprocs     : 1
nthreads   : 64
#
# qchem installation setting
#
QC:          /cm/shared/apps/spack/cpu/opt/spack/linux-centos8-zen2/gcc-10.2.0/qchem-5.4-akfmr7b3t57bfs6qan3padb2wnb2i7cl
QCAUX:       /cm/shared/apps/spack/cpu/opt/spack/linux-centos8-zen2/gcc-10.2.0/qchem-5.4-akfmr7b3t57bfs6qan3padb2wnb2i7cl/qcaux
QCPROG:      /cm/shared/apps/spack/cpu/opt/spack/linux-centos8-zen2/gcc-10.2.0/qchem-5.4-akfmr7b3t57bfs6qan3padb2wnb2i7cl/exe/qcprog.exe
QCPROG_S:    /cm/shared/apps/spack/cpu/opt/spack/linux-centos8-zen2/gcc-10.2.0/qchem-5.4-akfmr7b3t57bfs6qan3padb2wnb2i7cl/exe/qcprog.exe_s
PARALLEL:    -DPARALLEL
QCMPI:       mpich
#
# qchem directory setting
#
qcrun:       qchem50132
QCSCRATCH:   .
QCLOCALSCR:  
QCTMPDIR:    .
QCFILEPREF:  ./qchem50132
QCSAVEDIR:   
workdirs:    ./qchem50132
workdir0:    ./qchem50132
partmpdirs =  
#
# parallel setting
#
QCRSH:           ssh
QCMPI:           mpich
QCMPIRUN:        /cm/shared/apps/spack/cpu/opt/spack/linux-centos8-zen2/gcc-10.2.0/qchem-5.4-akfmr7b3t57bfs6qan3padb2wnb2i7cl/bin/mpi/mpirun_qchem
QCMACHINEFILE:   ./qchem50132/hostfile
exp-7-24

#
# env setting
#
exported envs:   QC QCAUX QCSCRATCH QCRUNNAME QCFILEPREF QCPROG QCPROG_S GUIFILE

Running Job 1 of 1 Methylthiophene_Phi_40_Theta_230_Methylthiophene_Hydrogenated_Improper.qcin
qchem Methylthiophene_Phi_40_Theta_230_Methylthiophene_Hydrogenated_Improper.qcin_50132.0 ./qchem50132/ 1
/cm/shared/apps/spack/cpu/opt/spack/linux-centos8-zen2/gcc-10.2.0/qchem-5.4-akfmr7b3t57bfs6qan3padb2wnb2i7cl/bin/mpi/mpirun_qchem -machinefile ./qchem50132/hostfile -np 1 /cm/shared/apps/spack/cpu/opt/spack/linux-centos8-zen2/gcc-10.2.0/qchem-5.4-akfmr7b3t57bfs6qan3padb2wnb2i7cl/exe/qcprog.exe Methylthiophene_Phi_40_Theta_230_Methylthiophene_Hydrogenated_Improper.qcin_50132.0 ./qchem50132/

Process 0 of 1 is on exp-7-24 - thread support 0
initial socket setup ...start
initial socket setup ...done 
now start server 0 ... 
                  Welcome to Q-Chem
     A Quantum Leap Into The Future Of Chemistry


 Q-Chem 5.4, Q-Chem, Inc., Pleasanton, CA (2021)

 License issued to: University of California, San Diego (site)

 E. Epifanovsky,  A. T. B. Gilbert,  Xintian Feng,  Joonho Lee,  Yuezhi Mao,  
 N. Mardirossian,  P. Pokhilko,  A. White,  M. Wormit,  M. P. Coons,  
 A. L. Dempwolff,  Zhengting Gan,  D. Hait,  P. R. Horn,  L. D. Jacobson,  
 I. Kaliman,  J. Kussmann,  A. W. Lange,  Ka Un Lao,  D. S. Levine,  Jie Liu,  
 S. C. McKenzie,  A. F. Morrison,  K. Nanda,  F. Plasser,  D. R. Rehn,  
 M. L. Vidal,  Zhi-Qiang You,  Ying Zhu,  B. Alam,  B. Albrecht,  
 A. Aldossary,  E. Alguire,  J. H. Andersen,  D. Barton,  K. Begam,  A. Behn,  
 Y. A. Bernard,  E. J. Berquist,  H. Burton,  A. Carreras,  K. Carter-Fenk,  
 R. Chakraborty,  A. D. Chien,  K. D. Closser,  V. Cofer-Shabica,  
 S. Dasgupta,  Jia Deng,  M. de Wergifosse,  M. Diedenhofen,  Hainam Do,  
 S. Ehlert,  Po-Tung Fang,  S. Fatehi,  Qingguo Feng,  J. Gayvert,  
 Qinghui Ge,  G. Gidofalvi,  M. Goldey,  J. Gomes,  C. Gonzalez-Espinoza,  
 S. Gulania,  A. Gunina,  M. W. D. Hanson-Heine,  P. H. P. Harbach,  
 A. W. Hauser,  M. F. Herbst,  M. Hernandez Vera,  M. Hodecker,  
 Z. C. Holden,  S. Houck,  Xunkun Huang,  Kerwin Hui,  B. C. Huynh,  
 M. Ivanov,  Hyunjun Ji,  Hanjie Jiang,  B. Kaduk,  S. Kaehler,  
 K. Khistyaev,  Jaehoon Kim,  P. Klunzinger,  Z. Koczor-Benda,  
 Joong Hoon Koh,  D. Kosenkov,  L. Koulias,  T. Kowalczyk,  C. M. Krauter,  
 K. Kue,  A. Kunitsa,  T. Kus,  A. Landau,  K. V. Lawler,  D. Lefrancois,  
 S. Lehtola,  Rain Li,  Yi-Pei Li,  Jiashu Liang,  M. Liebenthal,  
 Hung-Hsuan Lin,  You-Sheng Lin,  Fenglai Liu,  Kuan-Yu Liu,  
 M. Loipersberger,  A. Luenser,  A. Manjanath,  P. Manohar,  E. Mansoor,  
 S. F. Manzer,  Shan-Ping Mao,  A. V. Marenich,  T. Markovich,  S. Mason,  
 S. A. Maurer,  P. F. McLaughlin,  M. F. S. J. Menger,  J.-M. Mewes,  
 S. A. Mewes,  P. Morgante,  J. W. Mullinax,  T. S. Nguyen-Beck,  
 K. J. Oosterbaan,  G. Paran,  Alexander C. Paul,  Suranjan K. Paul,  
 F. Pavosevic,  Zheng Pei,  S. Prager,  E. I. Proynov,  E. Ramos,  B. Rana,  
 A. E. Rask,  A. Rettig,  R. M. Richard,  F. Rob,  E. Rossomme,  T. Scheele,  
 M. Scheurer,  M. Schneider,  N. Sergueev,  S. M. Sharada,  W. Skomorowski,  
 D. W. Small,  C. J. Stein,  Yu-Chuan Su,  E. J. Sundstrom,  Zhen Tao,  
 J. Thirman,  T. Tsuchimochi,  N. M. Tubman,  S. P. Veccham,  O. Vydrov,  
 J. Wenzel,  J. Witte,  A. Yamada,  Kun Yao,  S. Yeganeh,  S. R. Yost,  
 A. Zech,  Igor Ying Zhang,  Xing Zhang,  Yu Zhang,  D. Zuev,  
 A. Aspuru-Guzik,  A. T. Bell,  N. A. Besley,  K. B. Bravaya,  B. R. Brooks,  
 D. Casanova,  Jeng-Da Chai,  S. Coriani,  C. J. Cramer,  
 A. E. DePrince, III,  R. A. DiStasio Jr.,  A. Dreuw,  B. D. Dunietz,  
 T. R. Furlani,  W. A. Goddard III,  S. Grimme,  S. Hammes-Schiffer,  
 T. Head-Gordon,  W. J. Hehre,  Chao-Ping Hsu,  T.-C. Jagau,  Yousung Jung,  
 A. Klamt,  Jing Kong,  D. S. Lambrecht,  WanZhen Liang,  N. J. Mayhall,  
 C. W. McCurdy,  J. B. Neaton,  C. Ochsenfeld,  J. A. Parkhill,  R. Peverati,  
 V. A. Rassolov,  Yihan Shao,  L. V. Slipchenko,  T. Stauch,  R. P. Steele,  
 J. E. Subotnik,  A. J. W. Thom,  A. Tkatchenko,  D. G. Truhlar,  
 T. Van Voorhis,  T. A. Wesolowski,  K. B. Whaley,  H. L. Woodcock III,  
 P. M. Zimmerman,  S. Faraji,  P. M. W. Gill,  M. Head-Gordon,  
 J. M. Herbert,  A. I. Krylov

 Contributors to earlier versions of Q-Chem not listed above: 
 R. D. Adamson,  B. Austin,  R. Baer,  J. Baker,  G. J. O. Beran,  
 K. Brandhorst,  S. T. Brown,  E. F. C. Byrd,  A. K. Chakraborty,  
 G. K. L. Chan,  Chun-Min Chang,  Yunqing Chen,  C.-L. Cheng,  
 Siu Hung Chien,  D. M. Chipman,  D. L. Crittenden,  H. Dachsel,  
 R. J. Doerksen,  A. D. Dutoi,  R. G. Edgar,  J. Fosso-Tande,  
 L. Fusti-Molnar,  D. Ghosh,  A. Ghysels,  A. Golubeva-Zadorozhnaya,  
 J. Gonthier,  M. S. Gordon,  S. R. Gwaltney,  G. Hawkins,  J. E. Herr,  
 A. Heyden,  S. Hirata,  E. G. Hohenstein,  G. Kedziora,  F. J. Keil,  
 C. Kelley,  Jihan Kim,  R. A. King,  R. Z. Khaliullin,  P. P. Korambath,  
 W. Kurlancheek,  A. Laurent,  A. M. Lee,  M. S. Lee,  S. V. Levchenko,  
 Ching Yeh Lin,  D. Liotard,  E. Livshits,  R. C. Lochan,  I. Lotan,  
 L. A. Martinez-Martinez,  P. E. Maslen,  N. Nair,  D. P. O'Neill,  
 D. Neuhauser,  E. Neuscamman,  C. M. Oana,  R. Olivares-Amaya,  R. Olson,  
 T. M. Perrine,  B. Peters,  P. A. Pieniazek,  A. Prociuk,  Y. M. Rhee,  
 J. Ritchie,  M. A. Rohrdanz,  E. Rosta,  N. J. Russ,  H. F. Schaefer III,  
 M. W. Schmidt,  N. E. Schultz,  S. Sharma,  N. Shenvi,  C. D. Sherrill,  
 A. C. Simmonett,  A. Sodt,  T. Stein,  D. Stuck,  K. S. Thanthiriwatte,  
 V. Vanovschi,  L. Vogt,  Tao Wang,  A. Warshel,  M. A. Watson,  
 C. F. Williams,  Q. Wu,  X. Xu,  Jun Yang,  W. Zhang,  Yan Zhao

 Please cite Q-Chem as follows:
 Y. Shao et al., Mol. Phys. 113, 184-215 (2015)
 DOI: 10.1080/00268976.2014.952696

 Q-Chem 5.4.0 for Intel X86 EM64T Linux

 Parts of Q-Chem use Armadillo 9.800.1 (Horizon Scraper).
 http://arma.sourceforge.net/

 Q-Chem begins on Fri Dec 15 14:03:20 2023  

 Host: 
0

     Scratch files written to ./qchem50132//
 May1621 |scratch|qcdevops|jenkins|workspace|build_RNUM    
 Parallel job on  1  processors
 Processing $rem in /cm/shared/apps/spack/cpu/opt/spack/linux-centos8-zen2/gcc-10.2.0/qchem-5.4-akfmr7b3t57bfs6qan3padb2wnb2i7cl/config/preferences:
 Processing $rem in /home/rramji/.qchemrc:
 Symmetry turned off for PCM/SM12/SMD calculation
 Core orbitals will be frozen

 Checking the input file for inconsistencies... 	...done.

 Q-Chem warning in module forms1/BasisType.C, line 2236:

 You are not using the predefined 5D/6D in this basis set.


--------------------------------------------------------------
User input:
--------------------------------------------------------------
$molecule
0 1
C	-0.431894	-0.419059	0.005249
C	0.108606	0.229941	1.118249
C	0.999106	1.298441	0.825849
H	-0.139794	-0.068259	2.148149
C	1.158206	1.489041	-0.558351
S	0.189206	0.326841	-1.459451
C	1.680706	2.116341	1.887649
H	1.393906	1.772241	2.900249
H	1.415206	3.191641	1.813349
H	2.786306	2.048841	1.813449
C	-0.431894	-1.869159	0.005249
H	-1.126094	-1.869659	-0.822051
H	0.286906	-2.404259	-0.597651
H	-1.069994	-2.556359	0.541049
H	1.771406	2.225041	-1.091851
$end

$rem
JOBTYPE		SP
EXCHANGE	HF
CORRELATION	pRIMP2
BASIS		cc-pvtz
METHOD		rimp2
AUX_BASIS	rimp2-cc-pvtz
SOLVENT_METHOD	PCM
PURECART	11111
SYMMETRY	false
MEM_TOTAL	110000
SCF_CONVERGENCE = 6
THRESH=10
GUI = 2
$end



$solvent
dielectric 4.90
$end
--------------------------------------------------------------
 ----------------------------------------------------------------
             Standard Nuclear Orientation (Angstroms)
    I     Atom           X                Y                Z
 ----------------------------------------------------------------
    1      C      -0.4318940000    -0.4190590000     0.0052490000
    2      C       0.1086060000     0.2299410000     1.1182490000
    3      C       0.9991060000     1.2984410000     0.8258490000
    4      H      -0.1397940000    -0.0682590000     2.1481490000
    5      C       1.1582060000     1.4890410000    -0.5583510000
    6      S       0.1892060000     0.3268410000    -1.4594510000
    7      C       1.6807060000     2.1163410000     1.8876490000
    8      H       1.3939060000     1.7722410000     2.9002490000
    9      H       1.4152060000     3.1916410000     1.8133490000
   10      H       2.7863060000     2.0488410000     1.8134490000
   11      C      -0.4318940000    -1.8691590000     0.0052490000
   12      H      -1.1260940000    -1.8696590000    -0.8220510000
   13      H       0.2869060000    -2.4042590000    -0.5976510000
   14      H      -1.0699940000    -2.5563590000     0.5410490000
   15      H       1.7714060000     2.2250410000    -1.0918510000
 ----------------------------------------------------------------
 Nuclear Repulsion Energy =         346.87135284 hartrees
 There are       30 alpha and       30 beta electrons
 Requested basis set is cc-pVTZ
 There are 120 shells and 326 basis functions

 Total QAlloc Memory Limit 110000 MB
 Mega-Array Size       188 MB
 MEM_STATIC part       192 MB
 Discretize the solute cavity surface with Lebedev spheres
	Using 110 Lebedev grid points for each H atom
	Using 194 Lebedev grid points for other atoms
	Atomic van der Waals radii will be scaled by 1.20
 Remove points where switching function is < 1.0e-08
 Keep 1052 surface tesserae and discard 1186 interior tesserae
 Molecular Surface Area = 157.768 Angst**2

                       Distance Matrix (Angstroms)
             C (  1)   C (  2)   C (  3)   H (  4)   C (  5)   S (  6)
   C (  2)  1.397179
   C (  3)  2.381376  1.421330
   H (  4)  2.190982  1.100600  2.216628
   C (  5)  2.546941  2.344777  1.406290  3.381587
   S (  6)  1.757122  2.580780  2.611999  3.644053  1.761150
   C (  7)  3.799311  2.573321  1.503648  2.855619  2.578648  4.077985
   H (  8)  4.064033  2.684438  2.164137  2.511042  3.478171  4.748417
   H (  9)  4.440513  3.310896  2.175431  3.627267  2.930846  4.519002
   H ( 10)  4.440375  3.310858  2.175440  3.627147  2.930788  4.519080
   C ( 11)  1.450100  2.436623  3.571391  2.814353  3.758134  2.711739
   H ( 12)  1.808474  3.114092  4.155587  3.611083  4.070434  2.638353
   H ( 13)  2.195719  3.148827  4.030331  3.630205  3.989799  2.865511
   H ( 14)  2.293971  3.079890  4.384264  3.104623  4.747506  3.728328
   H ( 15)  3.612399  3.410260  2.265526  4.405623  1.096509  2.498329
             C (  7)   H (  8)   H (  9)   H ( 10)   C ( 11)   H ( 12)
   H (  8)  1.107257
   H (  9)  1.110081  1.787876
   H ( 10)  1.110141  1.787853  1.784911
   C ( 11)  4.887813  4.997436  5.682667  5.383040
   H ( 12)  5.577526  5.785270  6.246623  6.132485  1.079972
   H ( 13)  5.343708  5.559128  6.196780  5.647168  1.080043  1.527325
   H ( 14)  5.586932  5.511207  6.390185  6.139863  1.080045  1.527333
   H ( 15)  2.982861  4.035393  3.082431  3.082505  4.777095  5.023432
             H ( 13)   H ( 14)
   H ( 14)  1.777906
   H ( 15)  4.886552  5.796698
 
 Requested basis set is rimp2-cc-pVTZ
 There are 250 shells and 848 basis functions
 A cutoff of  1.0D-10 yielded   6219 shell pairs
 There are     45645 function pairs (     58719 Cartesian)
 Smallest overlap matrix eigenvalue = 1.19E-04

 Scale SEOQF with 1.000000e-01/1.000000e-01/1.000000e-01

 Standard Electronic Orientation quadrupole field applied
 Nucleus-field energy     =     0.0000000001 hartrees
 Guess from superposition of atomic densities
 Warning:  Energy on first SCF cycle will be non-variational
 SAD guess density has 60.000000 electrons

 -----------------------------------------------------------------------
  General SCF calculation program by
  Eric Jon Sundstrom, Paul Horn, Yuezhi Mao, Dmitri Zuev, Alec White,
  David Stuck, Shaama M.S., Shane Yost, Joonho Lee, David Small,
  Daniel Levine, Susi Lehtola, Hugh Burton, Evgeny Epifanovsky,
  Bang C. Huynh
 -----------------------------------------------------------------------
 Hartree-Fock
 using 64 threads for integral computing
 -------------------------------------------------------
 OpenMP Integral computing Module                
 Release: version 1.0, May 2013, Q-Chem Inc. Pittsburgh 
 -------------------------------------------------------
 A restricted SCF calculation will be
 performed using DIIS
 SCF converges when DIIS error is below 1.0e-06
 ---------------------------------------
  Cycle       Energy         DIIS error
 ---------------------------------------
    1    -632.1186429149      2.92e-02  
    2    -629.3082739289      1.93e-03  
    3    -629.3787720290      6.76e-04  
    4    -629.3863903920      3.32e-04  
    5    -629.3884376117      6.39e-05  
    6    -629.3885841054      2.63e-05  
    7    -629.3886238058      1.24e-05  
    8    -629.3886357695      4.31e-06  
    9    -629.3886373597      1.93e-06  
   10    -629.3886375254      6.11e-07  Convergence criterion met
 ---------------------------------------
 SCF time:   CPU 681.80s  wall 14.00s 

************** Final PCM Free Energy Summary **************
 G_electrostatic  =      -0.00498234 hartree =      -3.12646606 kcal/mol
 G_cavitation     =       0.00000000 hartree =       0.00000000 kcal/mol
 G_dispersion     =       0.00000000 hartree =       0.00000000 kcal/mol
 G_repulsion      =       0.00000000 hartree =       0.00000000 kcal/mol
 --------------------------------------------------
 Non-electrostatic Free Energy =       0.00000000 hartree =       0.00000000 kcal/mol
 Total                         =      -0.00498234 hartree =      -3.12646606 kcal/mol
 --------------------------------------------------
 SCF Energy (H0 + V/2)                       =    -629.38863753 
 Solute Internal Energy (H0)                 =    -629.38365518 
 Total Free Energy (H0 + V/2 + non-elec)     =    -629.38863753 hartree
                                             = -394947.33098695 kcal/mol
***********************************************************

 SCF   energy in the final basis set =     -629.3886375254
 Total energy in the final basis set =     -629.3886375254


 --------------------------------------------------------------
  Generalized many-body perturbation theory program
  by Joonho Lee, Fazle Rob, Xintian Feng, Evgeny Epifanovsky

 No regularization used 
 (reg. param. = 0.0000e+00)
  (P|Q)^-1/2 Time:  CPU 7.07 s  wall 0.12 s

 In RI-MP2 calculation: 
 # of frozen core orbitals: 11

 Components of the RIMP2 correlation energy:
        aaaa    correlation energy =        -0.1465051838 a.u.
        abab    correlation energy =        -0.8910784990 a.u.
        bbbb    correlation energy =        -0.1465051838 a.u.
        non-Brillouin singles      =        -0.0000000000 a.u.
        total same-spin energy     =        -0.2930103675 a.u.
        total opposite-spin energy =        -0.8910784990 a.u.

 Total  RIMP2   correlation energy =        -1.1840888665 a.u.
        RIMP2         total energy =      -630.5727263919 a.u.

 RI-MP2 Energy Time:  CPU 35.22 s  wall 0.62 s
 
 --------------------------------------------------------------
 
                    Orbital Energies (a.u.)
 --------------------------------------------------------------
 
 Alpha MOs
 -- Occupied --
-91.9787 -11.2674 -11.2626 -11.2478 -11.2359 -11.2275 -11.2123  -8.9788
 -6.6597  -6.6591  -6.6586  -1.1646  -1.0530  -0.9947  -0.9438  -0.8822
 -0.7489  -0.7218  -0.6434  -0.5899  -0.5752  -0.5681  -0.5521  -0.5449
 -0.5137  -0.4798  -0.4589  -0.4448  -0.3370  -0.2975
 -- Virtual --
  0.0827   0.1430   0.1517   0.1767   0.1852   0.1913   0.2031   0.2244
  0.2294   0.2444   0.2484   0.2597   0.2948   0.3100   0.3381   0.3516
  0.3752   0.3904   0.4059   0.4196   0.4373   0.4600   0.4660   0.4735
  0.4872   0.5014   0.5109   0.5312   0.5394   0.5588   0.5791   0.5825
  0.5874   0.6046   0.6087   0.6214   0.6297   0.6362   0.6421   0.6464
  0.6538   0.6668   0.6894   0.7212   0.7332   0.7410   0.7517   0.7722
  0.8039   0.8226   0.8395   0.8431   0.8668   0.8740   0.8923   0.9228
  0.9573   0.9679   0.9922   1.0188   1.0292   1.0522   1.0734   1.0845
  1.0906   1.1092   1.1204   1.1410   1.1625   1.1765   1.2034   1.2180
  1.2217   1.2506   1.2533   1.2568   1.2815   1.2954   1.3200   1.3269
  1.3466   1.3608   1.3858   1.4054   1.4168   1.4235   1.4571   1.4718
  1.4878   1.5050   1.5258   1.5332   1.5487   1.5644   1.5674   1.6035
  1.6108   1.6170   1.6480   1.6585   1.6775   1.6906   1.7053   1.7466
  1.7618   1.7952   1.8065   1.8250   1.8545   1.9086   1.9420   1.9611
  1.9778   2.0364   2.0812   2.1392   2.1503   2.1865   2.2169   2.2243
  2.2550   2.2696   2.3293   2.4038   2.4425   2.4685   2.5372   2.5592
  2.5705   2.6000   2.6459   2.6647   2.6726   2.7057   2.7183   2.7303
  2.7465   2.7690   2.7824   2.8062   2.8259   2.8372   2.8533   2.8760
  2.8846   2.9238   2.9674   3.0004   3.0081   3.0290   3.0396   3.0578
  3.0908   3.1126   3.1132   3.1476   3.1545   3.1758   3.1886   3.2002
  3.2218   3.2470   3.2570   3.2622   3.2752   3.2926   3.3055   3.3254
  3.3318   3.3664   3.3714   3.3812   3.3843   3.4100   3.4241   3.4306
  3.4354   3.4630   3.4910   3.5087   3.5205   3.5303   3.5394   3.5514
  3.5775   3.6023   3.6175   3.6286   3.6303   3.6597   3.6680   3.6986
  3.7081   3.7170   3.7333   3.7567   3.7657   3.7775   3.7878   3.8082
  3.8125   3.8458   3.8605   3.8837   3.8989   3.9287   3.9528   3.9610
  3.9818   3.9970   4.0125   4.0286   4.0452   4.0631   4.1046   4.1118
  4.1288   4.1386   4.1697   4.1860   4.2099   4.2208   4.2396   4.2509
  4.2811   4.2930   4.3210   4.3418   4.3517   4.3604   4.3817   4.4001
  4.4132   4.4341   4.4435   4.4450   4.4877   4.5217   4.5306   4.5732
  4.6041   4.6239   4.6576   4.6755   4.7198   4.7308   4.7466   4.7733
  4.8155   4.8188   4.8344   4.8829   4.9167   4.9317   5.0658   5.0897
  5.1080   5.1355   5.1665   5.1917   5.2327   5.2607   5.2908   5.3124
  5.3666   5.4044   5.4110   5.4255   5.4564   5.5014   5.5420   5.5597
  5.5869   5.6152   5.6247   5.6871   5.7330   5.8108   5.8217   5.8755
  5.9110   5.9870   6.0200   6.1061   6.2275   6.2300   6.2833   6.3794
  6.3822   6.4391   9.1611  11.5940  12.8578  13.8505  14.1374  14.2095
 --------------------------------------------------------------
 
          Ground-State Mulliken Net Atomic Charges

     Atom                 Charge (a.u.)
  ----------------------------------------
      1 C                    -0.042353
      2 C                    -0.196701
      3 C                     0.020045
      4 H                     0.179284
      5 C                    -0.227102
      6 S                     0.003154
      7 C                    -0.270302
      8 H                     0.101814
      9 H                     0.106946
     10 H                     0.105449
     11 C                    -0.372799
     12 H                     0.113386
     13 H                     0.136939
     14 H                     0.146184
     15 H                     0.196057
  ----------------------------------------
  Sum of atomic charges =     0.000000

 -----------------------------------------------------------------
                    Cartesian Multipole Moments
 -----------------------------------------------------------------
    Charge (ESU x 10^10)
                -0.0000
    Dipole Moment (Debye)
         X       0.9137      Y       0.1399      Z       1.1703
       Tot       1.4913
    Quadrupole Moments (Debye-Ang)
        XX     -50.3568     XY       5.4310     YY     -46.2431
        XZ      -0.2082     YZ       0.8092     ZZ     -48.4174
    Octopole Moments (Debye-Ang^2)
       XXX     -63.4592    XXY     -16.2229    XYY     -16.5330
       YYY     -60.8976    XXZ      -3.5425    XYZ      -0.8515
       YYZ      -5.6244    XZZ     -19.2790    YZZ     -17.1302
       ZZZ       1.0732
    Hexadecapole Moments (Debye-Ang^3)
      XXXX    -308.3519   XXXY    -153.3408   XXYY    -139.3523
      XYYY    -142.5119   YYYY    -585.4932   XXXZ     -64.2609
      XXYZ     -30.7875   XYYZ     -29.2125   YYYZ     -80.5006
      XXZZ    -133.6612   XYZZ     -45.3506   YYZZ    -180.0166
      XZZZ     -66.9949   YZZZ     -81.9636   ZZZZ    -489.3755
 -----------------------------------------------------------------
 Total job time:  15.90s(wall), 765.37s(cpu) 
 Fri Dec 15 14:03:36 2023

        *************************************************************
        *                                                           *
        *  Thank you very much for using Q-Chem.  Have a nice day.  *
        *                                                           *
        *************************************************************


0 sent ACK to 0 
now end server 0 ... 
cleanup process ... done
remove work dirs ./qchem50132.0 -- ./qchem50132.0
rm -rf ./qchem50132.0
rm -rf ./qchem50132
