You are running Q-Chem version: 5.4.0

#
# job setting
#
local host:  exp-7-21
current dir: /home/rramji/project-csd799/aromodel/p3ht-qchem/methylated-rotation-run
input file:  Methylthiophene_Phi_20_Theta_340_Methylthiophene_Hydrogenated_Improper.qcin
output file: 
nprocs     : 1
nthreads   : 64
#
# qchem installation setting
#
QC:          /cm/shared/apps/spack/cpu/opt/spack/linux-centos8-zen2/gcc-10.2.0/qchem-5.4-akfmr7b3t57bfs6qan3padb2wnb2i7cl
QCAUX:       /cm/shared/apps/spack/cpu/opt/spack/linux-centos8-zen2/gcc-10.2.0/qchem-5.4-akfmr7b3t57bfs6qan3padb2wnb2i7cl/qcaux
QCPROG:      /cm/shared/apps/spack/cpu/opt/spack/linux-centos8-zen2/gcc-10.2.0/qchem-5.4-akfmr7b3t57bfs6qan3padb2wnb2i7cl/exe/qcprog.exe
QCPROG_S:    /cm/shared/apps/spack/cpu/opt/spack/linux-centos8-zen2/gcc-10.2.0/qchem-5.4-akfmr7b3t57bfs6qan3padb2wnb2i7cl/exe/qcprog.exe_s
PARALLEL:    -DPARALLEL
QCMPI:       mpich
#
# qchem directory setting
#
qcrun:       qchem26423
QCSCRATCH:   .
QCLOCALSCR:  
QCTMPDIR:    .
QCFILEPREF:  ./qchem26423
QCSAVEDIR:   
workdirs:    ./qchem26423
workdir0:    ./qchem26423
partmpdirs =  
#
# parallel setting
#
QCRSH:           ssh
QCMPI:           mpich
QCMPIRUN:        /cm/shared/apps/spack/cpu/opt/spack/linux-centos8-zen2/gcc-10.2.0/qchem-5.4-akfmr7b3t57bfs6qan3padb2wnb2i7cl/bin/mpi/mpirun_qchem
QCMACHINEFILE:   ./qchem26423/hostfile
exp-7-21

#
# env setting
#
exported envs:   QC QCAUX QCSCRATCH QCRUNNAME QCFILEPREF QCPROG QCPROG_S GUIFILE

Running Job 1 of 1 Methylthiophene_Phi_20_Theta_340_Methylthiophene_Hydrogenated_Improper.qcin
qchem Methylthiophene_Phi_20_Theta_340_Methylthiophene_Hydrogenated_Improper.qcin_26423.0 ./qchem26423/ 1
/cm/shared/apps/spack/cpu/opt/spack/linux-centos8-zen2/gcc-10.2.0/qchem-5.4-akfmr7b3t57bfs6qan3padb2wnb2i7cl/bin/mpi/mpirun_qchem -machinefile ./qchem26423/hostfile -np 1 /cm/shared/apps/spack/cpu/opt/spack/linux-centos8-zen2/gcc-10.2.0/qchem-5.4-akfmr7b3t57bfs6qan3padb2wnb2i7cl/exe/qcprog.exe Methylthiophene_Phi_20_Theta_340_Methylthiophene_Hydrogenated_Improper.qcin_26423.0 ./qchem26423/

Process 0 of 1 is on exp-7-21 - thread support 0
initial socket setup ...start
initial socket setup ...done 
now start server 0 ... 
                  Welcome to Q-Chem
     A Quantum Leap Into The Future Of Chemistry


 Q-Chem 5.4, Q-Chem, Inc., Pleasanton, CA (2021)

 License issued to: University of California, San Diego (site)

 E. Epifanovsky,  A. T. B. Gilbert,  Xintian Feng,  Joonho Lee,  Yuezhi Mao,  
 N. Mardirossian,  P. Pokhilko,  A. White,  M. Wormit,  M. P. Coons,  
 A. L. Dempwolff,  Zhengting Gan,  D. Hait,  P. R. Horn,  L. D. Jacobson,  
 I. Kaliman,  J. Kussmann,  A. W. Lange,  Ka Un Lao,  D. S. Levine,  Jie Liu,  
 S. C. McKenzie,  A. F. Morrison,  K. Nanda,  F. Plasser,  D. R. Rehn,  
 M. L. Vidal,  Zhi-Qiang You,  Ying Zhu,  B. Alam,  B. Albrecht,  
 A. Aldossary,  E. Alguire,  J. H. Andersen,  D. Barton,  K. Begam,  A. Behn,  
 Y. A. Bernard,  E. J. Berquist,  H. Burton,  A. Carreras,  K. Carter-Fenk,  
 R. Chakraborty,  A. D. Chien,  K. D. Closser,  V. Cofer-Shabica,  
 S. Dasgupta,  Jia Deng,  M. de Wergifosse,  M. Diedenhofen,  Hainam Do,  
 S. Ehlert,  Po-Tung Fang,  S. Fatehi,  Qingguo Feng,  J. Gayvert,  
 Qinghui Ge,  G. Gidofalvi,  M. Goldey,  J. Gomes,  C. Gonzalez-Espinoza,  
 S. Gulania,  A. Gunina,  M. W. D. Hanson-Heine,  P. H. P. Harbach,  
 A. W. Hauser,  M. F. Herbst,  M. Hernandez Vera,  M. Hodecker,  
 Z. C. Holden,  S. Houck,  Xunkun Huang,  Kerwin Hui,  B. C. Huynh,  
 M. Ivanov,  Hyunjun Ji,  Hanjie Jiang,  B. Kaduk,  S. Kaehler,  
 K. Khistyaev,  Jaehoon Kim,  P. Klunzinger,  Z. Koczor-Benda,  
 Joong Hoon Koh,  D. Kosenkov,  L. Koulias,  T. Kowalczyk,  C. M. Krauter,  
 K. Kue,  A. Kunitsa,  T. Kus,  A. Landau,  K. V. Lawler,  D. Lefrancois,  
 S. Lehtola,  Rain Li,  Yi-Pei Li,  Jiashu Liang,  M. Liebenthal,  
 Hung-Hsuan Lin,  You-Sheng Lin,  Fenglai Liu,  Kuan-Yu Liu,  
 M. Loipersberger,  A. Luenser,  A. Manjanath,  P. Manohar,  E. Mansoor,  
 S. F. Manzer,  Shan-Ping Mao,  A. V. Marenich,  T. Markovich,  S. Mason,  
 S. A. Maurer,  P. F. McLaughlin,  M. F. S. J. Menger,  J.-M. Mewes,  
 S. A. Mewes,  P. Morgante,  J. W. Mullinax,  T. S. Nguyen-Beck,  
 K. J. Oosterbaan,  G. Paran,  Alexander C. Paul,  Suranjan K. Paul,  
 F. Pavosevic,  Zheng Pei,  S. Prager,  E. I. Proynov,  E. Ramos,  B. Rana,  
 A. E. Rask,  A. Rettig,  R. M. Richard,  F. Rob,  E. Rossomme,  T. Scheele,  
 M. Scheurer,  M. Schneider,  N. Sergueev,  S. M. Sharada,  W. Skomorowski,  
 D. W. Small,  C. J. Stein,  Yu-Chuan Su,  E. J. Sundstrom,  Zhen Tao,  
 J. Thirman,  T. Tsuchimochi,  N. M. Tubman,  S. P. Veccham,  O. Vydrov,  
 J. Wenzel,  J. Witte,  A. Yamada,  Kun Yao,  S. Yeganeh,  S. R. Yost,  
 A. Zech,  Igor Ying Zhang,  Xing Zhang,  Yu Zhang,  D. Zuev,  
 A. Aspuru-Guzik,  A. T. Bell,  N. A. Besley,  K. B. Bravaya,  B. R. Brooks,  
 D. Casanova,  Jeng-Da Chai,  S. Coriani,  C. J. Cramer,  
 A. E. DePrince, III,  R. A. DiStasio Jr.,  A. Dreuw,  B. D. Dunietz,  
 T. R. Furlani,  W. A. Goddard III,  S. Grimme,  S. Hammes-Schiffer,  
 T. Head-Gordon,  W. J. Hehre,  Chao-Ping Hsu,  T.-C. Jagau,  Yousung Jung,  
 A. Klamt,  Jing Kong,  D. S. Lambrecht,  WanZhen Liang,  N. J. Mayhall,  
 C. W. McCurdy,  J. B. Neaton,  C. Ochsenfeld,  J. A. Parkhill,  R. Peverati,  
 V. A. Rassolov,  Yihan Shao,  L. V. Slipchenko,  T. Stauch,  R. P. Steele,  
 J. E. Subotnik,  A. J. W. Thom,  A. Tkatchenko,  D. G. Truhlar,  
 T. Van Voorhis,  T. A. Wesolowski,  K. B. Whaley,  H. L. Woodcock III,  
 P. M. Zimmerman,  S. Faraji,  P. M. W. Gill,  M. Head-Gordon,  
 J. M. Herbert,  A. I. Krylov

 Contributors to earlier versions of Q-Chem not listed above: 
 R. D. Adamson,  B. Austin,  R. Baer,  J. Baker,  G. J. O. Beran,  
 K. Brandhorst,  S. T. Brown,  E. F. C. Byrd,  A. K. Chakraborty,  
 G. K. L. Chan,  Chun-Min Chang,  Yunqing Chen,  C.-L. Cheng,  
 Siu Hung Chien,  D. M. Chipman,  D. L. Crittenden,  H. Dachsel,  
 R. J. Doerksen,  A. D. Dutoi,  R. G. Edgar,  J. Fosso-Tande,  
 L. Fusti-Molnar,  D. Ghosh,  A. Ghysels,  A. Golubeva-Zadorozhnaya,  
 J. Gonthier,  M. S. Gordon,  S. R. Gwaltney,  G. Hawkins,  J. E. Herr,  
 A. Heyden,  S. Hirata,  E. G. Hohenstein,  G. Kedziora,  F. J. Keil,  
 C. Kelley,  Jihan Kim,  R. A. King,  R. Z. Khaliullin,  P. P. Korambath,  
 W. Kurlancheek,  A. Laurent,  A. M. Lee,  M. S. Lee,  S. V. Levchenko,  
 Ching Yeh Lin,  D. Liotard,  E. Livshits,  R. C. Lochan,  I. Lotan,  
 L. A. Martinez-Martinez,  P. E. Maslen,  N. Nair,  D. P. O'Neill,  
 D. Neuhauser,  E. Neuscamman,  C. M. Oana,  R. Olivares-Amaya,  R. Olson,  
 T. M. Perrine,  B. Peters,  P. A. Pieniazek,  A. Prociuk,  Y. M. Rhee,  
 J. Ritchie,  M. A. Rohrdanz,  E. Rosta,  N. J. Russ,  H. F. Schaefer III,  
 M. W. Schmidt,  N. E. Schultz,  S. Sharma,  N. Shenvi,  C. D. Sherrill,  
 A. C. Simmonett,  A. Sodt,  T. Stein,  D. Stuck,  K. S. Thanthiriwatte,  
 V. Vanovschi,  L. Vogt,  Tao Wang,  A. Warshel,  M. A. Watson,  
 C. F. Williams,  Q. Wu,  X. Xu,  Jun Yang,  W. Zhang,  Yan Zhao

 Please cite Q-Chem as follows:
 Y. Shao et al., Mol. Phys. 113, 184-215 (2015)
 DOI: 10.1080/00268976.2014.952696

 Q-Chem 5.4.0 for Intel X86 EM64T Linux

 Parts of Q-Chem use Armadillo 9.800.1 (Horizon Scraper).
 http://arma.sourceforge.net/

 Q-Chem begins on Fri Dec 15 14:06:25 2023  

 Host: 
0

     Scratch files written to ./qchem26423//
 May1621 |scratch|qcdevops|jenkins|workspace|build_RNUM    
 Parallel job on  1  processors
 Processing $rem in /cm/shared/apps/spack/cpu/opt/spack/linux-centos8-zen2/gcc-10.2.0/qchem-5.4-akfmr7b3t57bfs6qan3padb2wnb2i7cl/config/preferences:
 Processing $rem in /home/rramji/.qchemrc:
 Symmetry turned off for PCM/SM12/SMD calculation
 Core orbitals will be frozen

 Checking the input file for inconsistencies... 	...done.

 Q-Chem warning in module forms1/BasisType.C, line 2236:

 You are not using the predefined 5D/6D in this basis set.


--------------------------------------------------------------
User input:
--------------------------------------------------------------
$molecule
0 1
C	-0.234721	-0.536244	0.002446
C	0.051279	0.258456	1.115446
C	0.522579	1.567156	0.823046
H	-0.080221	-0.106644	2.145346
C	0.606879	1.800556	-0.561154
S	0.093779	0.377056	-1.462254
C	0.883379	2.568756	1.884846
H	0.731479	2.147356	2.897446
H	0.266079	3.488456	1.810546
H	1.945279	2.883556	1.810646
C	-0.234721	-1.986344	0.002446
H	0.780179	-1.986844	-0.366954
H	0.085979	-2.521444	0.884046
H	-0.520021	-2.673544	-0.780354
H	0.931379	2.701956	-1.094654
$end

$rem
JOBTYPE		SP
EXCHANGE	HF
CORRELATION	pRIMP2
BASIS		cc-pvtz
METHOD		rimp2
AUX_BASIS	rimp2-cc-pvtz
SOLVENT_METHOD	PCM
PURECART	11111
SYMMETRY	false
MEM_TOTAL	110000
SCF_CONVERGENCE = 6
THRESH=10
GUI = 2
$end



$solvent
dielectric 4.90
$end
--------------------------------------------------------------
 ----------------------------------------------------------------
             Standard Nuclear Orientation (Angstroms)
    I     Atom           X                Y                Z
 ----------------------------------------------------------------
    1      C      -0.2347210000    -0.5362440000     0.0024460000
    2      C       0.0512790000     0.2584560000     1.1154460000
    3      C       0.5225790000     1.5671560000     0.8230460000
    4      H      -0.0802210000    -0.1066440000     2.1453460000
    5      C       0.6068790000     1.8005560000    -0.5611540000
    6      S       0.0937790000     0.3770560000    -1.4622540000
    7      C       0.8833790000     2.5687560000     1.8848460000
    8      H       0.7314790000     2.1473560000     2.8974460000
    9      H       0.2660790000     3.4884560000     1.8105460000
   10      H       1.9452790000     2.8835560000     1.8106460000
   11      C      -0.2347210000    -1.9863440000     0.0024460000
   12      H       0.7801790000    -1.9868440000    -0.3669540000
   13      H       0.0859790000    -2.5214440000     0.8840460000
   14      H      -0.5200210000    -2.6735440000    -0.7803540000
   15      H       0.9313790000     2.7019560000    -1.0946540000
 ----------------------------------------------------------------
 Nuclear Repulsion Energy =         345.17273875 hartrees
 There are       30 alpha and       30 beta electrons
 Requested basis set is cc-pVTZ
 There are 120 shells and 326 basis functions

 Total QAlloc Memory Limit 110000 MB
 Mega-Array Size       188 MB
 MEM_STATIC part       192 MB
 Discretize the solute cavity surface with Lebedev spheres
	Using 110 Lebedev grid points for each H atom
	Using 194 Lebedev grid points for other atoms
	Atomic van der Waals radii will be scaled by 1.20
 Remove points where switching function is < 1.0e-08
 Keep 1071 surface tesserae and discard 1167 interior tesserae
 Molecular Surface Area = 158.341 Angst**2

                       Distance Matrix (Angstroms)
             C (  1)   C (  2)   C (  3)   H (  4)   C (  5)   S (  6)
   C (  2)  1.397180
   C (  3)  2.381424  1.421379
   H (  4)  2.190992  1.100584  2.216631
   C (  5)  2.546875  2.344728  1.406269  3.381517
   S (  6)  1.757093  2.580777  2.612050  3.644039  1.761137
   C (  7)  3.799290  2.573296  1.503595  2.855547  2.578662  4.078001
   H (  8)  4.064022  2.684425  2.164118  2.510981  3.478176  4.748432
   H (  9)  4.440522  3.310922  2.175395  3.627225  2.930889  4.519039
   H ( 10)  4.440385  3.310844  2.175394  3.627116  2.930809  4.519123
   C ( 11)  1.450100  2.521843  3.724815  2.854674  3.920019  2.799807
   H ( 12)  1.808513  2.787504  3.756777  3.253781  3.796333  2.694225
   H ( 13)  2.195697  2.789730  4.112297  2.729425  4.586897  3.729140
   H ( 14)  2.293954  3.537946  4.652036  3.916902  4.619039  3.185577
   H ( 15)  3.612389  3.410251  2.265494  4.405584  1.096560  2.498372
             C (  7)   H (  8)   H (  9)   H ( 10)   C ( 11)   H ( 12)
   H (  8)  1.107254
   H (  9)  1.110148  1.787875
   H ( 10)  1.110061  1.787858  1.784830
   C ( 11)  5.053960  5.138292  5.787354  5.633641
   H ( 12)  5.082789  5.267854  5.914788  5.460787  1.080036
   H ( 13)  5.248579  5.125246  6.083563  5.790476  1.080000  1.527322
   H ( 14)  6.046034  6.191409  6.730599  6.608506  1.080007  1.527408
   H ( 15)  2.982862  4.035394  3.082433  3.082489  4.954147  4.747342
             H ( 13)   H ( 14)
   H ( 14)  1.777807
   H ( 15)  5.649236  5.576858
 
 Requested basis set is rimp2-cc-pVTZ
 There are 250 shells and 848 basis functions
 A cutoff of  1.0D-10 yielded   6192 shell pairs
 There are     45384 function pairs (     58378 Cartesian)
 Smallest overlap matrix eigenvalue = 1.03E-04

 Scale SEOQF with 1.000000e-01/1.000000e-01/1.000000e-01

 Standard Electronic Orientation quadrupole field applied
 Nucleus-field energy     =     0.0000000016 hartrees
 Guess from superposition of atomic densities
 Warning:  Energy on first SCF cycle will be non-variational
 SAD guess density has 60.000000 electrons

 -----------------------------------------------------------------------
  General SCF calculation program by
  Eric Jon Sundstrom, Paul Horn, Yuezhi Mao, Dmitri Zuev, Alec White,
  David Stuck, Shaama M.S., Shane Yost, Joonho Lee, David Small,
  Daniel Levine, Susi Lehtola, Hugh Burton, Evgeny Epifanovsky,
  Bang C. Huynh
 -----------------------------------------------------------------------
 Hartree-Fock
 using 64 threads for integral computing
 -------------------------------------------------------
 OpenMP Integral computing Module                
 Release: version 1.0, May 2013, Q-Chem Inc. Pittsburgh 
 -------------------------------------------------------
 A restricted SCF calculation will be
 performed using DIIS
 SCF converges when DIIS error is below 1.0e-06
 ---------------------------------------
  Cycle       Energy         DIIS error
 ---------------------------------------
    1    -632.0942238957      2.91e-02  
    2    -629.3398674370      1.95e-03  
    3    -629.4103180405      7.04e-04  
    4    -629.4180279889      3.61e-04  
    5    -629.4203032604      6.25e-05  
    6    -629.4204377212      2.62e-05  
    7    -629.4204710637      1.14e-05  
    8    -629.4204804791      5.16e-06  
    9    -629.4204819953      1.71e-06  
   10    -629.4204821850      6.80e-07  Convergence criterion met
 ---------------------------------------
 SCF time:   CPU 682.70s  wall 14.00s 

************** Final PCM Free Energy Summary **************
 G_electrostatic  =      -0.00556216 hartree =      -3.49030805 kcal/mol
 G_cavitation     =       0.00000000 hartree =       0.00000000 kcal/mol
 G_dispersion     =       0.00000000 hartree =       0.00000000 kcal/mol
 G_repulsion      =       0.00000000 hartree =       0.00000000 kcal/mol
 --------------------------------------------------
 Non-electrostatic Free Energy =       0.00000000 hartree =       0.00000000 kcal/mol
 Total                         =      -0.00556216 hartree =      -3.49030805 kcal/mol
 --------------------------------------------------
 SCF Energy (H0 + V/2)                       =    -629.42048219 
 Solute Internal Energy (H0)                 =    -629.41492003 
 Total Free Energy (H0 + V/2 + non-elec)     =    -629.42048219 hartree
                                             = -394967.31381248 kcal/mol
***********************************************************

 SCF   energy in the final basis set =     -629.4204821850
 Total energy in the final basis set =     -629.4204821850


 --------------------------------------------------------------
  Generalized many-body perturbation theory program
  by Joonho Lee, Fazle Rob, Xintian Feng, Evgeny Epifanovsky

 No regularization used 
 (reg. param. = 0.0000e+00)
  (P|Q)^-1/2 Time:  CPU 6.98 s  wall 0.11 s

 In RI-MP2 calculation: 
 # of frozen core orbitals: 11

 Components of the RIMP2 correlation energy:
        aaaa    correlation energy =        -0.1451993068 a.u.
        abab    correlation energy =        -0.8858849181 a.u.
        bbbb    correlation energy =        -0.1451993068 a.u.
        non-Brillouin singles      =        -0.0000000000 a.u.
        total same-spin energy     =        -0.2903986136 a.u.
        total opposite-spin energy =        -0.8858849181 a.u.

 Total  RIMP2   correlation energy =        -1.1762835317 a.u.
        RIMP2         total energy =      -630.5967657167 a.u.

 RI-MP2 Energy Time:  CPU 34.63 s  wall 0.58 s
 
 --------------------------------------------------------------
 
                    Orbital Energies (a.u.)
 --------------------------------------------------------------
 
 Alpha MOs
 -- Occupied --
-91.9769 -11.2834 -11.2528 -11.2474 -11.2269 -11.2257 -11.2224  -8.9770
 -6.6580  -6.6575  -6.6568  -1.1620  -1.0550  -0.9963  -0.9419  -0.8829
 -0.7454  -0.7190  -0.6463  -0.5892  -0.5783  -0.5667  -0.5505  -0.5465
 -0.5069  -0.4955  -0.4649  -0.4545  -0.3393  -0.2910
 -- Virtual --
  0.1048   0.1450   0.1510   0.1759   0.1877   0.1976   0.2096   0.2165
  0.2221   0.2462   0.2491   0.2575   0.2957   0.3300   0.3446   0.3485
  0.3825   0.3947   0.4038   0.4232   0.4336   0.4621   0.4677   0.4823
  0.4943   0.4976   0.5249   0.5318   0.5411   0.5546   0.5614   0.5903
  0.5951   0.6059   0.6104   0.6228   0.6314   0.6381   0.6458   0.6493
  0.6530   0.6717   0.6863   0.6910   0.7269   0.7532   0.7656   0.8013
  0.8035   0.8228   0.8427   0.8519   0.8620   0.8773   0.8982   0.9246
  0.9540   0.9675   0.9995   1.0185   1.0302   1.0530   1.0643   1.0746
  1.0791   1.0976   1.1138   1.1270   1.1554   1.1796   1.1887   1.2052
  1.2341   1.2391   1.2505   1.2638   1.2763   1.2991   1.3015   1.3331
  1.3615   1.3908   1.3978   1.4114   1.4311   1.4340   1.4460   1.4736
  1.4812   1.5003   1.5160   1.5288   1.5416   1.5528   1.5564   1.5807
  1.5901   1.6256   1.6406   1.6714   1.6870   1.6994   1.7176   1.7540
  1.7557   1.7837   1.8012   1.8298   1.9073   1.9262   1.9360   1.9732
  2.0085   2.0335   2.1029   2.1260   2.1796   2.1845   2.2276   2.2536
  2.2774   2.2854   2.3583   2.4200   2.4395   2.4779   2.4870   2.5468
  2.5640   2.5841   2.6247   2.6490   2.6708   2.6907   2.7075   2.7401
  2.7480   2.7709   2.7748   2.7990   2.8354   2.8481   2.8641   2.8789
  2.9042   2.9307   2.9636   2.9779   3.0027   3.0373   3.0508   3.0751
  3.0920   3.1095   3.1155   3.1256   3.1542   3.1614   3.1681   3.1901
  3.1998   3.2453   3.2530   3.2820   3.2908   3.2917   3.3071   3.3245
  3.3384   3.3472   3.3831   3.3889   3.4083   3.4213   3.4295   3.4414
  3.4502   3.4733   3.4847   3.4971   3.5194   3.5251   3.5328   3.5588
  3.5792   3.5938   3.6090   3.6204   3.6325   3.6418   3.6583   3.6769
  3.6849   3.7130   3.7189   3.7346   3.7469   3.7655   3.7903   3.7941
  3.8234   3.8306   3.8554   3.8786   3.8932   3.8994   3.9315   3.9566
  3.9838   3.9985   4.0075   4.0314   4.0469   4.0609   4.0989   4.1034
  4.1187   4.1496   4.1701   4.1990   4.2228   4.2313   4.2462   4.2732
  4.2954   4.2983   4.3181   4.3367   4.3414   4.3834   4.3895   4.4031
  4.4091   4.4236   4.4483   4.4664   4.4859   4.5186   4.5472   4.5731
  4.5947   4.6059   4.6422   4.6787   4.7100   4.7289   4.7639   4.7650
  4.7955   4.8116   4.8710   4.8895   4.9021   4.9253   5.0882   5.0981
  5.1020   5.1234   5.1525   5.1932   5.2153   5.2613   5.2886   5.3361
  5.3695   5.4014   5.4178   5.4418   5.4644   5.5029   5.5496   5.5670
  5.5913   5.6073   5.6186   5.6542   5.6970   5.8061   5.8192   5.8531
  5.9427   5.9566   6.0705   6.1806   6.2282   6.2522   6.3021   6.3814
  6.4326   6.5432   9.1870  11.3452  12.8995  13.6822  14.1777  14.5118
 --------------------------------------------------------------
 
          Ground-State Mulliken Net Atomic Charges

     Atom                 Charge (a.u.)
  ----------------------------------------
      1 C                     0.058071
      2 C                    -0.321766
      3 C                     0.060967
      4 H                     0.177331
      5 C                    -0.273636
      6 S                    -0.003877
      7 C                    -0.271171
      8 H                     0.101596
      9 H                     0.107588
     10 H                     0.107203
     11 C                    -0.371918
     12 H                     0.142559
     13 H                     0.140875
     14 H                     0.153051
     15 H                     0.193127
  ----------------------------------------
  Sum of atomic charges =     0.000000

 -----------------------------------------------------------------
                    Cartesian Multipole Moments
 -----------------------------------------------------------------
    Charge (ESU x 10^10)
                -0.0000
    Dipole Moment (Debye)
         X       1.0877      Y      -0.6034      Z       1.2470
       Tot       1.7613
    Quadrupole Moments (Debye-Ang)
        XX     -53.6944     XY       1.5308     YY     -42.8331
        XZ       0.3684     YZ       0.9443     ZZ     -48.6137
    Octopole Moments (Debye-Ang^2)
       XXX     -37.2085    XXY     -26.2226    XYY      -3.7989
       YYY     -77.6416    XXZ      -3.0043    XYZ      -1.7294
       YYZ      -6.1403    XZZ     -10.6443    YZZ     -24.1950
       ZZZ      -0.4193
    Hexadecapole Moments (Debye-Ang^3)
      XXXX    -141.7645   XXXY     -99.1221   XXYY    -156.3470
      XYYY     -88.6321   YYYY    -744.7647   XXXZ     -32.1345
      XXYZ     -30.4639   XYYZ     -11.6863   YYYZ     -95.1724
      XXZZ    -111.4166   XYZZ     -26.4882   YYZZ    -201.3197
      XZZZ     -35.0198   YZZZ     -97.7483   ZZZZ    -492.0012
 -----------------------------------------------------------------
 Total job time:  15.98s(wall), 751.49s(cpu) 
 Fri Dec 15 14:06:41 2023

        *************************************************************
        *                                                           *
        *  Thank you very much for using Q-Chem.  Have a nice day.  *
        *                                                           *
        *************************************************************


0 sent ACK to 0 
now end server 0 ... 
cleanup process ... done
remove work dirs ./qchem26423.0 -- ./qchem26423.0
rm -rf ./qchem26423.0
rm -rf ./qchem26423
