You are running Q-Chem version: 5.4.0

#
# job setting
#
local host:  exp-7-20
current dir: /home/rramji/project-csd799/aromodel/p3ht-qchem/methylated-rotation-run
input file:  Methylthiophene_Phi_0_Theta_270_Methylthiophene_Hydrogenated_Improper.qcin
output file: 
nprocs     : 1
nthreads   : 64
#
# qchem installation setting
#
QC:          /cm/shared/apps/spack/cpu/opt/spack/linux-centos8-zen2/gcc-10.2.0/qchem-5.4-akfmr7b3t57bfs6qan3padb2wnb2i7cl
QCAUX:       /cm/shared/apps/spack/cpu/opt/spack/linux-centos8-zen2/gcc-10.2.0/qchem-5.4-akfmr7b3t57bfs6qan3padb2wnb2i7cl/qcaux
QCPROG:      /cm/shared/apps/spack/cpu/opt/spack/linux-centos8-zen2/gcc-10.2.0/qchem-5.4-akfmr7b3t57bfs6qan3padb2wnb2i7cl/exe/qcprog.exe
QCPROG_S:    /cm/shared/apps/spack/cpu/opt/spack/linux-centos8-zen2/gcc-10.2.0/qchem-5.4-akfmr7b3t57bfs6qan3padb2wnb2i7cl/exe/qcprog.exe_s
PARALLEL:    -DPARALLEL
QCMPI:       mpich
#
# qchem directory setting
#
qcrun:       qchem3262146
QCSCRATCH:   .
QCLOCALSCR:  
QCTMPDIR:    .
QCFILEPREF:  ./qchem3262146
QCSAVEDIR:   
workdirs:    ./qchem3262146
workdir0:    ./qchem3262146
partmpdirs =  
#
# parallel setting
#
QCRSH:           ssh
QCMPI:           mpich
QCMPIRUN:        /cm/shared/apps/spack/cpu/opt/spack/linux-centos8-zen2/gcc-10.2.0/qchem-5.4-akfmr7b3t57bfs6qan3padb2wnb2i7cl/bin/mpi/mpirun_qchem
QCMACHINEFILE:   ./qchem3262146/hostfile
exp-7-20

#
# env setting
#
exported envs:   QC QCAUX QCSCRATCH QCRUNNAME QCFILEPREF QCPROG QCPROG_S GUIFILE

Running Job 1 of 1 Methylthiophene_Phi_0_Theta_270_Methylthiophene_Hydrogenated_Improper.qcin
qchem Methylthiophene_Phi_0_Theta_270_Methylthiophene_Hydrogenated_Improper.qcin_3262146.0 ./qchem3262146/ 1
/cm/shared/apps/spack/cpu/opt/spack/linux-centos8-zen2/gcc-10.2.0/qchem-5.4-akfmr7b3t57bfs6qan3padb2wnb2i7cl/bin/mpi/mpirun_qchem -machinefile ./qchem3262146/hostfile -np 1 /cm/shared/apps/spack/cpu/opt/spack/linux-centos8-zen2/gcc-10.2.0/qchem-5.4-akfmr7b3t57bfs6qan3padb2wnb2i7cl/exe/qcprog.exe Methylthiophene_Phi_0_Theta_270_Methylthiophene_Hydrogenated_Improper.qcin_3262146.0 ./qchem3262146/

Process 0 of 1 is on exp-7-20 - thread support 0
initial socket setup ...start
initial socket setup ...done 
now start server 0 ... 
                  Welcome to Q-Chem
     A Quantum Leap Into The Future Of Chemistry


 Q-Chem 5.4, Q-Chem, Inc., Pleasanton, CA (2021)

 License issued to: University of California, San Diego (site)

 E. Epifanovsky,  A. T. B. Gilbert,  Xintian Feng,  Joonho Lee,  Yuezhi Mao,  
 N. Mardirossian,  P. Pokhilko,  A. White,  M. Wormit,  M. P. Coons,  
 A. L. Dempwolff,  Zhengting Gan,  D. Hait,  P. R. Horn,  L. D. Jacobson,  
 I. Kaliman,  J. Kussmann,  A. W. Lange,  Ka Un Lao,  D. S. Levine,  Jie Liu,  
 S. C. McKenzie,  A. F. Morrison,  K. Nanda,  F. Plasser,  D. R. Rehn,  
 M. L. Vidal,  Zhi-Qiang You,  Ying Zhu,  B. Alam,  B. Albrecht,  
 A. Aldossary,  E. Alguire,  J. H. Andersen,  D. Barton,  K. Begam,  A. Behn,  
 Y. A. Bernard,  E. J. Berquist,  H. Burton,  A. Carreras,  K. Carter-Fenk,  
 R. Chakraborty,  A. D. Chien,  K. D. Closser,  V. Cofer-Shabica,  
 S. Dasgupta,  Jia Deng,  M. de Wergifosse,  M. Diedenhofen,  Hainam Do,  
 S. Ehlert,  Po-Tung Fang,  S. Fatehi,  Qingguo Feng,  J. Gayvert,  
 Qinghui Ge,  G. Gidofalvi,  M. Goldey,  J. Gomes,  C. Gonzalez-Espinoza,  
 S. Gulania,  A. Gunina,  M. W. D. Hanson-Heine,  P. H. P. Harbach,  
 A. W. Hauser,  M. F. Herbst,  M. Hernandez Vera,  M. Hodecker,  
 Z. C. Holden,  S. Houck,  Xunkun Huang,  Kerwin Hui,  B. C. Huynh,  
 M. Ivanov,  Hyunjun Ji,  Hanjie Jiang,  B. Kaduk,  S. Kaehler,  
 K. Khistyaev,  Jaehoon Kim,  P. Klunzinger,  Z. Koczor-Benda,  
 Joong Hoon Koh,  D. Kosenkov,  L. Koulias,  T. Kowalczyk,  C. M. Krauter,  
 K. Kue,  A. Kunitsa,  T. Kus,  A. Landau,  K. V. Lawler,  D. Lefrancois,  
 S. Lehtola,  Rain Li,  Yi-Pei Li,  Jiashu Liang,  M. Liebenthal,  
 Hung-Hsuan Lin,  You-Sheng Lin,  Fenglai Liu,  Kuan-Yu Liu,  
 M. Loipersberger,  A. Luenser,  A. Manjanath,  P. Manohar,  E. Mansoor,  
 S. F. Manzer,  Shan-Ping Mao,  A. V. Marenich,  T. Markovich,  S. Mason,  
 S. A. Maurer,  P. F. McLaughlin,  M. F. S. J. Menger,  J.-M. Mewes,  
 S. A. Mewes,  P. Morgante,  J. W. Mullinax,  T. S. Nguyen-Beck,  
 K. J. Oosterbaan,  G. Paran,  Alexander C. Paul,  Suranjan K. Paul,  
 F. Pavosevic,  Zheng Pei,  S. Prager,  E. I. Proynov,  E. Ramos,  B. Rana,  
 A. E. Rask,  A. Rettig,  R. M. Richard,  F. Rob,  E. Rossomme,  T. Scheele,  
 M. Scheurer,  M. Schneider,  N. Sergueev,  S. M. Sharada,  W. Skomorowski,  
 D. W. Small,  C. J. Stein,  Yu-Chuan Su,  E. J. Sundstrom,  Zhen Tao,  
 J. Thirman,  T. Tsuchimochi,  N. M. Tubman,  S. P. Veccham,  O. Vydrov,  
 J. Wenzel,  J. Witte,  A. Yamada,  Kun Yao,  S. Yeganeh,  S. R. Yost,  
 A. Zech,  Igor Ying Zhang,  Xing Zhang,  Yu Zhang,  D. Zuev,  
 A. Aspuru-Guzik,  A. T. Bell,  N. A. Besley,  K. B. Bravaya,  B. R. Brooks,  
 D. Casanova,  Jeng-Da Chai,  S. Coriani,  C. J. Cramer,  
 A. E. DePrince, III,  R. A. DiStasio Jr.,  A. Dreuw,  B. D. Dunietz,  
 T. R. Furlani,  W. A. Goddard III,  S. Grimme,  S. Hammes-Schiffer,  
 T. Head-Gordon,  W. J. Hehre,  Chao-Ping Hsu,  T.-C. Jagau,  Yousung Jung,  
 A. Klamt,  Jing Kong,  D. S. Lambrecht,  WanZhen Liang,  N. J. Mayhall,  
 C. W. McCurdy,  J. B. Neaton,  C. Ochsenfeld,  J. A. Parkhill,  R. Peverati,  
 V. A. Rassolov,  Yihan Shao,  L. V. Slipchenko,  T. Stauch,  R. P. Steele,  
 J. E. Subotnik,  A. J. W. Thom,  A. Tkatchenko,  D. G. Truhlar,  
 T. Van Voorhis,  T. A. Wesolowski,  K. B. Whaley,  H. L. Woodcock III,  
 P. M. Zimmerman,  S. Faraji,  P. M. W. Gill,  M. Head-Gordon,  
 J. M. Herbert,  A. I. Krylov

 Contributors to earlier versions of Q-Chem not listed above: 
 R. D. Adamson,  B. Austin,  R. Baer,  J. Baker,  G. J. O. Beran,  
 K. Brandhorst,  S. T. Brown,  E. F. C. Byrd,  A. K. Chakraborty,  
 G. K. L. Chan,  Chun-Min Chang,  Yunqing Chen,  C.-L. Cheng,  
 Siu Hung Chien,  D. M. Chipman,  D. L. Crittenden,  H. Dachsel,  
 R. J. Doerksen,  A. D. Dutoi,  R. G. Edgar,  J. Fosso-Tande,  
 L. Fusti-Molnar,  D. Ghosh,  A. Ghysels,  A. Golubeva-Zadorozhnaya,  
 J. Gonthier,  M. S. Gordon,  S. R. Gwaltney,  G. Hawkins,  J. E. Herr,  
 A. Heyden,  S. Hirata,  E. G. Hohenstein,  G. Kedziora,  F. J. Keil,  
 C. Kelley,  Jihan Kim,  R. A. King,  R. Z. Khaliullin,  P. P. Korambath,  
 W. Kurlancheek,  A. Laurent,  A. M. Lee,  M. S. Lee,  S. V. Levchenko,  
 Ching Yeh Lin,  D. Liotard,  E. Livshits,  R. C. Lochan,  I. Lotan,  
 L. A. Martinez-Martinez,  P. E. Maslen,  N. Nair,  D. P. O'Neill,  
 D. Neuhauser,  E. Neuscamman,  C. M. Oana,  R. Olivares-Amaya,  R. Olson,  
 T. M. Perrine,  B. Peters,  P. A. Pieniazek,  A. Prociuk,  Y. M. Rhee,  
 J. Ritchie,  M. A. Rohrdanz,  E. Rosta,  N. J. Russ,  H. F. Schaefer III,  
 M. W. Schmidt,  N. E. Schultz,  S. Sharma,  N. Shenvi,  C. D. Sherrill,  
 A. C. Simmonett,  A. Sodt,  T. Stein,  D. Stuck,  K. S. Thanthiriwatte,  
 V. Vanovschi,  L. Vogt,  Tao Wang,  A. Warshel,  M. A. Watson,  
 C. F. Williams,  Q. Wu,  X. Xu,  Jun Yang,  W. Zhang,  Yan Zhao

 Please cite Q-Chem as follows:
 Y. Shao et al., Mol. Phys. 113, 184-215 (2015)
 DOI: 10.1080/00268976.2014.952696

 Q-Chem 5.4.0 for Intel X86 EM64T Linux

 Parts of Q-Chem use Armadillo 9.800.1 (Horizon Scraper).
 http://arma.sourceforge.net/

 Q-Chem begins on Fri Dec 15 14:03:31 2023  

 Host: 
0

     Scratch files written to ./qchem3262146//
 May1621 |scratch|qcdevops|jenkins|workspace|build_RNUM    
 Parallel job on  1  processors
 Processing $rem in /cm/shared/apps/spack/cpu/opt/spack/linux-centos8-zen2/gcc-10.2.0/qchem-5.4-akfmr7b3t57bfs6qan3padb2wnb2i7cl/config/preferences:
 Processing $rem in /home/rramji/.qchemrc:
 Symmetry turned off for PCM/SM12/SMD calculation
 Core orbitals will be frozen

 Checking the input file for inconsistencies... 	...done.

 Q-Chem warning in module forms1/BasisType.C, line 2236:

 You are not using the predefined 5D/6D in this basis set.


--------------------------------------------------------------
User input:
--------------------------------------------------------------
$molecule
0 1
C	0.001927	-0.576386	0.006080
C	-0.001173	0.268214	1.119080
C	-0.005873	1.659214	0.826680
H	0.000227	-0.119886	2.148980
C	-0.006473	1.907314	-0.557520
S	-0.001773	0.394214	-1.458620
C	-0.009473	2.723814	1.888480
H	-0.007973	2.275814	2.901080
H	-0.903973	3.376814	1.814180
H	0.880827	3.382714	1.814280
C	0.001927	-2.026486	0.006080
H	0.001927	-2.026986	-1.073920
H	0.940027	-2.561586	0.006280
H	-0.831273	-2.713686	0.006380
H	-0.009773	2.865414	-1.091020
$end

$rem
JOBTYPE		SP
EXCHANGE	HF
CORRELATION	pRIMP2
BASIS		cc-pvtz
METHOD		rimp2
AUX_BASIS	rimp2-cc-pvtz
SOLVENT_METHOD	PCM
PURECART	11111
SYMMETRY	false
MEM_TOTAL	110000
SCF_CONVERGENCE = 6
THRESH=10
GUI = 2
$end



$solvent
dielectric 4.90
$end
--------------------------------------------------------------
 ----------------------------------------------------------------
             Standard Nuclear Orientation (Angstroms)
    I     Atom           X                Y                Z
 ----------------------------------------------------------------
    1      C       0.0019270000    -0.5763860000     0.0060800000
    2      C      -0.0011730000     0.2682140000     1.1190800000
    3      C      -0.0058730000     1.6592140000     0.8266800000
    4      H       0.0002270000    -0.1198860000     2.1489800000
    5      C      -0.0064730000     1.9073140000    -0.5575200000
    6      S      -0.0017730000     0.3942140000    -1.4586200000
    7      C      -0.0094730000     2.7238140000     1.8884800000
    8      H      -0.0079730000     2.2758140000     2.9010800000
    9      H      -0.9039730000     3.3768140000     1.8141800000
   10      H       0.8808270000     3.3827140000     1.8142800000
   11      C       0.0019270000    -2.0264860000     0.0060800000
   12      H       0.0019270000    -2.0269860000    -1.0739200000
   13      H       0.9400270000    -2.5615860000     0.0062800000
   14      H      -0.8312730000    -2.7136860000     0.0063800000
   15      H      -0.0097730000     2.8654140000    -1.0910200000
 ----------------------------------------------------------------
 Nuclear Repulsion Energy =         344.39362848 hartrees
 There are       30 alpha and       30 beta electrons
 Requested basis set is cc-pVTZ
 There are 120 shells and 326 basis functions

 Total QAlloc Memory Limit 110000 MB
 Mega-Array Size       188 MB
 MEM_STATIC part       192 MB
 Discretize the solute cavity surface with Lebedev spheres
	Using 110 Lebedev grid points for each H atom
	Using 194 Lebedev grid points for other atoms
	Atomic van der Waals radii will be scaled by 1.20
 Remove points where switching function is < 1.0e-08
 Keep 1060 surface tesserae and discard 1178 interior tesserae
 Molecular Surface Area = 159.113 Angst**2

                       Distance Matrix (Angstroms)
             C (  1)   C (  2)   C (  3)   H (  4)   C (  5)   S (  6)
   C (  2)  1.397186
   C (  3)  2.381460  1.421408
   H (  4)  2.190985  1.100599  2.216689
   C (  5)  2.546857  2.344710  1.406259  3.381527
   S (  6)  1.757107  2.580778  2.612056  3.644047  1.761100
   C (  7)  3.799326  2.573328  1.503597  2.855623  2.578681  4.078011
   H (  8)  4.064009  2.684405  2.164102  2.510996  3.478176  4.748415
   H (  9)  4.440458  3.310832  2.175291  3.627200  2.930853  4.518970
   H ( 10)  4.440329  3.310791  2.175326  3.627077  2.930792  4.519070
   C ( 11)  1.450100  2.550378  3.775954  2.868300  3.973978  2.829337
   H ( 12)  1.808491  3.174461  4.147338  3.744879  3.968054  2.451574
   H ( 13)  2.195689  3.183072  4.402606  3.381758  4.602695  3.430696
   H ( 14)  2.293965  3.289209  4.525089  3.465534  4.727782  3.534592
   H ( 15)  3.612444  3.410288  2.265504  4.405646  1.096626  2.498404
             C (  7)   H (  8)   H (  9)   H ( 10)   C ( 11)   H ( 12)
   H (  8)  1.107278
   H (  9)  1.109982  1.787839
   H ( 10)  1.110085  1.787828  1.784810
   C ( 11)  5.109688  5.185644  5.769361  5.770745
   H ( 12)  5.598754  5.857885  6.193774  6.195080  1.080000
   H ( 13)  5.690315  5.716556  6.475603  6.213459  1.079983  1.527305
   H ( 14)  5.812406  5.826853  6.353551  6.585278  1.080031  1.527360
   H ( 15)  2.982863  4.035405  3.082420  3.082456  5.013427  4.892444
             H ( 13)   H ( 14)
   H ( 14)  1.777818
   H ( 15)  5.617697  5.745042
 
 Requested basis set is rimp2-cc-pVTZ
 There are 250 shells and 848 basis functions
 A cutoff of  1.0D-10 yielded   6170 shell pairs
 There are     45150 function pairs (     58060 Cartesian)
 Smallest overlap matrix eigenvalue = 1.02E-04

 Scale SEOQF with 1.000000e+00/1.000000e-01/1.000000e-01

 Standard Electronic Orientation quadrupole field applied
 Nucleus-field energy     =     0.0000000033 hartrees
 Guess from superposition of atomic densities
 Warning:  Energy on first SCF cycle will be non-variational
 SAD guess density has 60.000000 electrons

 -----------------------------------------------------------------------
  General SCF calculation program by
  Eric Jon Sundstrom, Paul Horn, Yuezhi Mao, Dmitri Zuev, Alec White,
  David Stuck, Shaama M.S., Shane Yost, Joonho Lee, David Small,
  Daniel Levine, Susi Lehtola, Hugh Burton, Evgeny Epifanovsky,
  Bang C. Huynh
 -----------------------------------------------------------------------
 Hartree-Fock
 using 64 threads for integral computing
 -------------------------------------------------------
 OpenMP Integral computing Module                
 Release: version 1.0, May 2013, Q-Chem Inc. Pittsburgh 
 -------------------------------------------------------
 A restricted SCF calculation will be
 performed using DIIS
 SCF converges when DIIS error is below 1.0e-06
 ---------------------------------------
  Cycle       Energy         DIIS error
 ---------------------------------------
    1    -632.0911815932      2.91e-02  
    2    -629.3413876460      1.94e-03  
    3    -629.4119694598      6.87e-04  
    4    -629.4195931470      3.42e-04  
    5    -629.4216980935      6.38e-05  
    6    -629.4218322645      2.62e-05  
    7    -629.4218660721      1.16e-05  
    8    -629.4218754417      4.92e-06  
    9    -629.4218768424      1.76e-06  
   10    -629.4218770162      5.36e-07  Convergence criterion met
 ---------------------------------------
 SCF time:   CPU 669.70s  wall 14.00s 

************** Final PCM Free Energy Summary **************
 G_electrostatic  =      -0.00508127 hartree =      -3.18854534 kcal/mol
 G_cavitation     =       0.00000000 hartree =       0.00000000 kcal/mol
 G_dispersion     =       0.00000000 hartree =       0.00000000 kcal/mol
 G_repulsion      =       0.00000000 hartree =       0.00000000 kcal/mol
 --------------------------------------------------
 Non-electrostatic Free Energy =       0.00000000 hartree =       0.00000000 kcal/mol
 Total                         =      -0.00508127 hartree =      -3.18854534 kcal/mol
 --------------------------------------------------
 SCF Energy (H0 + V/2)                       =    -629.42187702 
 Solute Internal Energy (H0)                 =    -629.41679575 
 Total Free Energy (H0 + V/2 + non-elec)     =    -629.42187702 hartree
                                             = -394968.18908226 kcal/mol
***********************************************************

 SCF   energy in the final basis set =     -629.4218770162
 Total energy in the final basis set =     -629.4218770162


 --------------------------------------------------------------
  Generalized many-body perturbation theory program
  by Joonho Lee, Fazle Rob, Xintian Feng, Evgeny Epifanovsky

 No regularization used 
 (reg. param. = 0.0000e+00)
  (P|Q)^-1/2 Time:  CPU 9.07 s  wall 0.16 s

 In RI-MP2 calculation: 
 # of frozen core orbitals: 11

 Components of the RIMP2 correlation energy:
        aaaa    correlation energy =        -0.1454887290 a.u.
        abab    correlation energy =        -0.8865552029 a.u.
        bbbb    correlation energy =        -0.1454887290 a.u.
        non-Brillouin singles      =        -0.0000000000 a.u.
        total same-spin energy     =        -0.2909774580 a.u.
        total opposite-spin energy =        -0.8865552029 a.u.

 Total  RIMP2   correlation energy =        -1.1775326610 a.u.
        RIMP2         total energy =      -630.5994096772 a.u.

 RI-MP2 Energy Time:  CPU 37.88 s  wall 0.68 s
 
 --------------------------------------------------------------
 
                    Orbital Energies (a.u.)
 --------------------------------------------------------------
 
 Alpha MOs
 -- Occupied --
-91.9812 -11.2751 -11.2584 -11.2472 -11.2287 -11.2270 -11.2168  -8.9810
 -6.6619  -6.6614  -6.6608  -1.1606  -1.0534  -0.9952  -0.9457  -0.8828
 -0.7477  -0.7182  -0.6473  -0.5908  -0.5753  -0.5660  -0.5535  -0.5463
 -0.5086  -0.4866  -0.4650  -0.4444  -0.3380  -0.3050
 -- Virtual --
  0.1046   0.1415   0.1500   0.1738   0.1887   0.1924   0.1939   0.2329
  0.2390   0.2436   0.2452   0.2833   0.2877   0.3152   0.3435   0.3504
  0.3724   0.3975   0.4043   0.4099   0.4470   0.4702   0.4735   0.4804
  0.4926   0.5074   0.5240   0.5266   0.5349   0.5745   0.5758   0.5959
  0.6028   0.6081   0.6133   0.6295   0.6300   0.6416   0.6447   0.6541
  0.6577   0.6622   0.6884   0.6932   0.7348   0.7551   0.7628   0.7746
  0.8013   0.8053   0.8421   0.8528   0.8690   0.8953   0.9016   0.9342
  0.9609   0.9648   0.9785   1.0119   1.0403   1.0477   1.0647   1.0725
  1.0810   1.0841   1.1213   1.1247   1.1586   1.1689   1.1904   1.2087
  1.2215   1.2502   1.2545   1.2609   1.2669   1.3041   1.3066   1.3142
  1.3619   1.3828   1.3963   1.4104   1.4390   1.4445   1.4576   1.4800
  1.4840   1.5015   1.5192   1.5408   1.5480   1.5605   1.5691   1.5838
  1.6211   1.6296   1.6328   1.6631   1.6865   1.6933   1.7080   1.7539
  1.7747   1.7801   1.8071   1.8482   1.8882   1.8940   1.9366   1.9512
  1.9906   2.0495   2.1032   2.1215   2.1836   2.1985   2.2220   2.2381
  2.2574   2.2973   2.3602   2.4184   2.4539   2.5174   2.5208   2.5627
  2.5728   2.6054   2.6187   2.6541   2.6703   2.6765   2.7163   2.7339
  2.7465   2.7573   2.7918   2.8079   2.8173   2.8361   2.8508   2.8812
  2.9059   2.9092   2.9311   2.9601   2.9943   3.0074   3.0488   3.0777
  3.0868   3.1135   3.1346   3.1524   3.1606   3.1767   3.1840   3.2006
  3.2215   3.2321   3.2515   3.2696   3.2896   3.2987   3.3079   3.3274
  3.3396   3.3443   3.3736   3.3813   3.3918   3.4139   3.4217   3.4350
  3.4378   3.4553   3.4851   3.5029   3.5056   3.5116   3.5276   3.5659
  3.5942   3.6041   3.6105   3.6161   3.6329   3.6368   3.6558   3.6781
  3.7027   3.7180   3.7349   3.7538   3.7669   3.7786   3.7895   3.7993
  3.8155   3.8281   3.8843   3.8975   3.9055   3.9245   3.9324   3.9520
  3.9630   3.9794   3.9989   4.0272   4.0341   4.0457   4.0988   4.1056
  4.1182   4.1436   4.1592   4.1723   4.1822   4.2070   4.2229   4.2453
  4.2856   4.2871   4.2982   4.3376   4.3417   4.3487   4.3953   4.4036
  4.4083   4.4289   4.4368   4.4448   4.4586   4.4932   4.5455   4.5568
  4.5898   4.6306   4.6444   4.6830   4.6996   4.7454   4.7493   4.7839
  4.7924   4.8150   4.8505   4.9045   4.9278   5.0003   5.0796   5.0890
  5.1112   5.1454   5.1560   5.1949   5.2500   5.2841   5.2986   5.3042
  5.3622   5.4002   5.4189   5.4408   5.4617   5.4941   5.5496   5.5639
  5.5923   5.6220   5.6328   5.7005   5.7434   5.8227   5.8396   5.8732
  5.9022   5.9565   6.0162   6.1379   6.2268   6.2515   6.3107   6.3492
  6.4258   6.5025   9.1554  11.4029  12.9165  13.9176  14.1800  14.4666
 --------------------------------------------------------------
 
          Ground-State Mulliken Net Atomic Charges

     Atom                 Charge (a.u.)
  ----------------------------------------
      1 C                     0.052103
      2 C                    -0.259080
      3 C                     0.038448
      4 H                     0.179380
      5 C                    -0.259740
      6 S                    -0.002169
      7 C                    -0.273309
      8 H                     0.102102
      9 H                     0.106891
     10 H                     0.106851
     11 C                    -0.368220
     12 H                     0.111830
     13 H                     0.127349
     14 H                     0.141538
     15 H                     0.196025
  ----------------------------------------
  Sum of atomic charges =     0.000000

 -----------------------------------------------------------------
                    Cartesian Multipole Moments
 -----------------------------------------------------------------
    Charge (ESU x 10^10)
                -0.0000
    Dipole Moment (Debye)
         X       0.0086      Y       0.0345      Z       0.8613
       Tot       0.8620
    Quadrupole Moments (Debye-Ang)
        XX     -53.6848     XY       0.0550     YY     -42.1153
        XZ       0.0102     YZ       1.5871     ZZ     -48.8640
    Octopole Moments (Debye-Ang^2)
       XXX       0.4367    XXY     -32.8751    XYY      -0.6058
       YYY     -77.8032    XXZ      -2.3364    XYZ      -0.0228
       YYZ      -8.1701    XZZ       0.0438    YZZ     -23.3016
       ZZZ       0.4217
    Hexadecapole Moments (Debye-Ang^3)
      XXXX     -78.3075   XXXY       1.0845   XXYY    -155.8832
      XYYY       3.8077   YYYY    -807.9708   XXXZ       0.3251
      XXYZ     -32.1293   XYYZ       0.2644   YYYZ    -104.4367
      XXZZ    -103.0422   XYZZ       0.4373   YYZZ    -218.6927
      XZZZ       0.3941   YZZZ    -107.1261   ZZZZ    -489.0549
 -----------------------------------------------------------------
 Total job time:  16.71s(wall), 756.32s(cpu) 
 Fri Dec 15 14:03:48 2023

        *************************************************************
        *                                                           *
        *  Thank you very much for using Q-Chem.  Have a nice day.  *
        *                                                           *
        *************************************************************


0 sent ACK to 0 
now end server 0 ... 
cleanup process ... done
remove work dirs ./qchem3262146.0 -- ./qchem3262146.0
rm -rf ./qchem3262146.0
rm -rf ./qchem3262146
