You are running Q-Chem version: 5.4.0

#
# job setting
#
local host:  exp-7-23
current dir: /home/rramji/project-csd799/aromodel/p3ht-qchem/methylated-rotation-run
input file:  Methylthiophene_Phi_25_Theta_350_Methylthiophene_Hydrogenated_Improper.qcin
output file: 
nprocs     : 1
nthreads   : 64
#
# qchem installation setting
#
QC:          /cm/shared/apps/spack/cpu/opt/spack/linux-centos8-zen2/gcc-10.2.0/qchem-5.4-akfmr7b3t57bfs6qan3padb2wnb2i7cl
QCAUX:       /cm/shared/apps/spack/cpu/opt/spack/linux-centos8-zen2/gcc-10.2.0/qchem-5.4-akfmr7b3t57bfs6qan3padb2wnb2i7cl/qcaux
QCPROG:      /cm/shared/apps/spack/cpu/opt/spack/linux-centos8-zen2/gcc-10.2.0/qchem-5.4-akfmr7b3t57bfs6qan3padb2wnb2i7cl/exe/qcprog.exe
QCPROG_S:    /cm/shared/apps/spack/cpu/opt/spack/linux-centos8-zen2/gcc-10.2.0/qchem-5.4-akfmr7b3t57bfs6qan3padb2wnb2i7cl/exe/qcprog.exe_s
PARALLEL:    -DPARALLEL
QCMPI:       mpich
#
# qchem directory setting
#
qcrun:       qchem650225
QCSCRATCH:   .
QCLOCALSCR:  
QCTMPDIR:    .
QCFILEPREF:  ./qchem650225
QCSAVEDIR:   
workdirs:    ./qchem650225
workdir0:    ./qchem650225
partmpdirs =  
#
# parallel setting
#
QCRSH:           ssh
QCMPI:           mpich
QCMPIRUN:        /cm/shared/apps/spack/cpu/opt/spack/linux-centos8-zen2/gcc-10.2.0/qchem-5.4-akfmr7b3t57bfs6qan3padb2wnb2i7cl/bin/mpi/mpirun_qchem
QCMACHINEFILE:   ./qchem650225/hostfile
exp-7-23

#
# env setting
#
exported envs:   QC QCAUX QCSCRATCH QCRUNNAME QCFILEPREF QCPROG QCPROG_S GUIFILE

Running Job 1 of 1 Methylthiophene_Phi_25_Theta_350_Methylthiophene_Hydrogenated_Improper.qcin
qchem Methylthiophene_Phi_25_Theta_350_Methylthiophene_Hydrogenated_Improper.qcin_650225.0 ./qchem650225/ 1
/cm/shared/apps/spack/cpu/opt/spack/linux-centos8-zen2/gcc-10.2.0/qchem-5.4-akfmr7b3t57bfs6qan3padb2wnb2i7cl/bin/mpi/mpirun_qchem -machinefile ./qchem650225/hostfile -np 1 /cm/shared/apps/spack/cpu/opt/spack/linux-centos8-zen2/gcc-10.2.0/qchem-5.4-akfmr7b3t57bfs6qan3padb2wnb2i7cl/exe/qcprog.exe Methylthiophene_Phi_25_Theta_350_Methylthiophene_Hydrogenated_Improper.qcin_650225.0 ./qchem650225/

Process 0 of 1 is on exp-7-23 - thread support 0
initial socket setup ...start
initial socket setup ...done 
now start server 0 ... 
                  Welcome to Q-Chem
     A Quantum Leap Into The Future Of Chemistry


 Q-Chem 5.4, Q-Chem, Inc., Pleasanton, CA (2021)

 License issued to: University of California, San Diego (site)

 E. Epifanovsky,  A. T. B. Gilbert,  Xintian Feng,  Joonho Lee,  Yuezhi Mao,  
 N. Mardirossian,  P. Pokhilko,  A. White,  M. Wormit,  M. P. Coons,  
 A. L. Dempwolff,  Zhengting Gan,  D. Hait,  P. R. Horn,  L. D. Jacobson,  
 I. Kaliman,  J. Kussmann,  A. W. Lange,  Ka Un Lao,  D. S. Levine,  Jie Liu,  
 S. C. McKenzie,  A. F. Morrison,  K. Nanda,  F. Plasser,  D. R. Rehn,  
 M. L. Vidal,  Zhi-Qiang You,  Ying Zhu,  B. Alam,  B. Albrecht,  
 A. Aldossary,  E. Alguire,  J. H. Andersen,  D. Barton,  K. Begam,  A. Behn,  
 Y. A. Bernard,  E. J. Berquist,  H. Burton,  A. Carreras,  K. Carter-Fenk,  
 R. Chakraborty,  A. D. Chien,  K. D. Closser,  V. Cofer-Shabica,  
 S. Dasgupta,  Jia Deng,  M. de Wergifosse,  M. Diedenhofen,  Hainam Do,  
 S. Ehlert,  Po-Tung Fang,  S. Fatehi,  Qingguo Feng,  J. Gayvert,  
 Qinghui Ge,  G. Gidofalvi,  M. Goldey,  J. Gomes,  C. Gonzalez-Espinoza,  
 S. Gulania,  A. Gunina,  M. W. D. Hanson-Heine,  P. H. P. Harbach,  
 A. W. Hauser,  M. F. Herbst,  M. Hernandez Vera,  M. Hodecker,  
 Z. C. Holden,  S. Houck,  Xunkun Huang,  Kerwin Hui,  B. C. Huynh,  
 M. Ivanov,  Hyunjun Ji,  Hanjie Jiang,  B. Kaduk,  S. Kaehler,  
 K. Khistyaev,  Jaehoon Kim,  P. Klunzinger,  Z. Koczor-Benda,  
 Joong Hoon Koh,  D. Kosenkov,  L. Koulias,  T. Kowalczyk,  C. M. Krauter,  
 K. Kue,  A. Kunitsa,  T. Kus,  A. Landau,  K. V. Lawler,  D. Lefrancois,  
 S. Lehtola,  Rain Li,  Yi-Pei Li,  Jiashu Liang,  M. Liebenthal,  
 Hung-Hsuan Lin,  You-Sheng Lin,  Fenglai Liu,  Kuan-Yu Liu,  
 M. Loipersberger,  A. Luenser,  A. Manjanath,  P. Manohar,  E. Mansoor,  
 S. F. Manzer,  Shan-Ping Mao,  A. V. Marenich,  T. Markovich,  S. Mason,  
 S. A. Maurer,  P. F. McLaughlin,  M. F. S. J. Menger,  J.-M. Mewes,  
 S. A. Mewes,  P. Morgante,  J. W. Mullinax,  T. S. Nguyen-Beck,  
 K. J. Oosterbaan,  G. Paran,  Alexander C. Paul,  Suranjan K. Paul,  
 F. Pavosevic,  Zheng Pei,  S. Prager,  E. I. Proynov,  E. Ramos,  B. Rana,  
 A. E. Rask,  A. Rettig,  R. M. Richard,  F. Rob,  E. Rossomme,  T. Scheele,  
 M. Scheurer,  M. Schneider,  N. Sergueev,  S. M. Sharada,  W. Skomorowski,  
 D. W. Small,  C. J. Stein,  Yu-Chuan Su,  E. J. Sundstrom,  Zhen Tao,  
 J. Thirman,  T. Tsuchimochi,  N. M. Tubman,  S. P. Veccham,  O. Vydrov,  
 J. Wenzel,  J. Witte,  A. Yamada,  Kun Yao,  S. Yeganeh,  S. R. Yost,  
 A. Zech,  Igor Ying Zhang,  Xing Zhang,  Yu Zhang,  D. Zuev,  
 A. Aspuru-Guzik,  A. T. Bell,  N. A. Besley,  K. B. Bravaya,  B. R. Brooks,  
 D. Casanova,  Jeng-Da Chai,  S. Coriani,  C. J. Cramer,  
 A. E. DePrince, III,  R. A. DiStasio Jr.,  A. Dreuw,  B. D. Dunietz,  
 T. R. Furlani,  W. A. Goddard III,  S. Grimme,  S. Hammes-Schiffer,  
 T. Head-Gordon,  W. J. Hehre,  Chao-Ping Hsu,  T.-C. Jagau,  Yousung Jung,  
 A. Klamt,  Jing Kong,  D. S. Lambrecht,  WanZhen Liang,  N. J. Mayhall,  
 C. W. McCurdy,  J. B. Neaton,  C. Ochsenfeld,  J. A. Parkhill,  R. Peverati,  
 V. A. Rassolov,  Yihan Shao,  L. V. Slipchenko,  T. Stauch,  R. P. Steele,  
 J. E. Subotnik,  A. J. W. Thom,  A. Tkatchenko,  D. G. Truhlar,  
 T. Van Voorhis,  T. A. Wesolowski,  K. B. Whaley,  H. L. Woodcock III,  
 P. M. Zimmerman,  S. Faraji,  P. M. W. Gill,  M. Head-Gordon,  
 J. M. Herbert,  A. I. Krylov

 Contributors to earlier versions of Q-Chem not listed above: 
 R. D. Adamson,  B. Austin,  R. Baer,  J. Baker,  G. J. O. Beran,  
 K. Brandhorst,  S. T. Brown,  E. F. C. Byrd,  A. K. Chakraborty,  
 G. K. L. Chan,  Chun-Min Chang,  Yunqing Chen,  C.-L. Cheng,  
 Siu Hung Chien,  D. M. Chipman,  D. L. Crittenden,  H. Dachsel,  
 R. J. Doerksen,  A. D. Dutoi,  R. G. Edgar,  J. Fosso-Tande,  
 L. Fusti-Molnar,  D. Ghosh,  A. Ghysels,  A. Golubeva-Zadorozhnaya,  
 J. Gonthier,  M. S. Gordon,  S. R. Gwaltney,  G. Hawkins,  J. E. Herr,  
 A. Heyden,  S. Hirata,  E. G. Hohenstein,  G. Kedziora,  F. J. Keil,  
 C. Kelley,  Jihan Kim,  R. A. King,  R. Z. Khaliullin,  P. P. Korambath,  
 W. Kurlancheek,  A. Laurent,  A. M. Lee,  M. S. Lee,  S. V. Levchenko,  
 Ching Yeh Lin,  D. Liotard,  E. Livshits,  R. C. Lochan,  I. Lotan,  
 L. A. Martinez-Martinez,  P. E. Maslen,  N. Nair,  D. P. O'Neill,  
 D. Neuhauser,  E. Neuscamman,  C. M. Oana,  R. Olivares-Amaya,  R. Olson,  
 T. M. Perrine,  B. Peters,  P. A. Pieniazek,  A. Prociuk,  Y. M. Rhee,  
 J. Ritchie,  M. A. Rohrdanz,  E. Rosta,  N. J. Russ,  H. F. Schaefer III,  
 M. W. Schmidt,  N. E. Schultz,  S. Sharma,  N. Shenvi,  C. D. Sherrill,  
 A. C. Simmonett,  A. Sodt,  T. Stein,  D. Stuck,  K. S. Thanthiriwatte,  
 V. Vanovschi,  L. Vogt,  Tao Wang,  A. Warshel,  M. A. Watson,  
 C. F. Williams,  Q. Wu,  X. Xu,  Jun Yang,  W. Zhang,  Yan Zhao

 Please cite Q-Chem as follows:
 Y. Shao et al., Mol. Phys. 113, 184-215 (2015)
 DOI: 10.1080/00268976.2014.952696

 Q-Chem 5.4.0 for Intel X86 EM64T Linux

 Parts of Q-Chem use Armadillo 9.800.1 (Horizon Scraper).
 http://arma.sourceforge.net/

 Q-Chem begins on Fri Dec 15 14:06:25 2023  

 Host: 
0

     Scratch files written to ./qchem650225//
 May1621 |scratch|qcdevops|jenkins|workspace|build_RNUM    
 Parallel job on  1  processors
 Processing $rem in /cm/shared/apps/spack/cpu/opt/spack/linux-centos8-zen2/gcc-10.2.0/qchem-5.4-akfmr7b3t57bfs6qan3padb2wnb2i7cl/config/preferences:
 Processing $rem in /home/rramji/.qchemrc:
 Symmetry turned off for PCM/SM12/SMD calculation
 Core orbitals will be frozen

 Checking the input file for inconsistencies... 	...done.

 Q-Chem warning in module forms1/BasisType.C, line 2236:

 You are not using the predefined 5D/6D in this basis set.


--------------------------------------------------------------
User input:
--------------------------------------------------------------
$molecule
0 1
C	-0.289674	-0.513776	0.001609
C	0.064526	0.253024	1.114609
C	0.648126	1.515624	0.822209
H	-0.098374	-0.099276	2.144509
C	0.752326	1.740824	-0.561991
S	0.117226	0.367424	-1.463091
C	1.094726	2.482024	1.884009
H	0.906726	2.075424	2.896609
H	0.559926	3.451924	1.809709
H	2.180126	2.703024	1.809809
C	-0.289674	-1.963876	0.001609
H	0.773926	-1.964376	-0.185991
H	-0.126974	-2.498976	0.925509
H	-0.434674	-2.651076	-0.818891
H	1.154226	2.610424	-1.095491
$end

$rem
JOBTYPE		SP
EXCHANGE	HF
CORRELATION	pRIMP2
BASIS		cc-pvtz
METHOD		rimp2
AUX_BASIS	rimp2-cc-pvtz
SOLVENT_METHOD	PCM
PURECART	11111
SYMMETRY	false
MEM_TOTAL	110000
SCF_CONVERGENCE = 6
THRESH=10
GUI = 2
$end



$solvent
dielectric 4.90
$end
--------------------------------------------------------------
 ----------------------------------------------------------------
             Standard Nuclear Orientation (Angstroms)
    I     Atom           X                Y                Z
 ----------------------------------------------------------------
    1      C      -0.2896740000    -0.5137760000     0.0016090000
    2      C       0.0645260000     0.2530240000     1.1146090000
    3      C       0.6481260000     1.5156240000     0.8222090000
    4      H      -0.0983740000    -0.0992760000     2.1445090000
    5      C       0.7523260000     1.7408240000    -0.5619910000
    6      S       0.1172260000     0.3674240000    -1.4630910000
    7      C       1.0947260000     2.4820240000     1.8840090000
    8      H       0.9067260000     2.0754240000     2.8966090000
    9      H       0.5599260000     3.4519240000     1.8097090000
   10      H       2.1801260000     2.7030240000     1.8098090000
   11      C      -0.2896740000    -1.9638760000     0.0016090000
   12      H       0.7739260000    -1.9643760000    -0.1859910000
   13      H      -0.1269740000    -2.4989760000     0.9255090000
   14      H      -0.4346740000    -2.6510760000    -0.8188910000
   15      H       1.1542260000     2.6104240000    -1.0954910000
 ----------------------------------------------------------------
 Nuclear Repulsion Energy =         345.62268260 hartrees
 There are       30 alpha and       30 beta electrons
 Requested basis set is cc-pVTZ
 There are 120 shells and 326 basis functions

 Total QAlloc Memory Limit 110000 MB
 Mega-Array Size       188 MB
 MEM_STATIC part       192 MB
 Discretize the solute cavity surface with Lebedev spheres
	Using 110 Lebedev grid points for each H atom
	Using 194 Lebedev grid points for other atoms
	Atomic van der Waals radii will be scaled by 1.20
 Remove points where switching function is < 1.0e-08
 Keep 1062 surface tesserae and discard 1176 interior tesserae
 Molecular Surface Area = 158.242 Angst**2

                       Distance Matrix (Angstroms)
             C (  1)   C (  2)   C (  3)   H (  4)   C (  5)   S (  6)
   C (  2)  1.397215
   C (  3)  2.381453  1.421353
   H (  4)  2.190988  1.100612  2.216674
   C (  5)  2.546886  2.344697  1.406265  3.381538
   S (  6)  1.757108  2.580775  2.612052  3.644046  1.761125
   C (  7)  3.799317  2.573272  1.503596  2.855601  2.578668  4.078004
   H (  8)  4.064032  2.684393  2.164113  2.511016  3.478176  4.748427
   H (  9)  4.440475  3.310823  2.175360  3.627185  2.930843  4.518998
   H ( 10)  4.440417  3.310826  2.175384  3.627185  2.930849  4.519121
   C ( 11)  1.450100  2.505768  3.695913  2.846990  3.889500  2.783141
   H ( 12)  1.808502  2.666772  3.625285  3.109781  3.724292  2.738527
   H ( 13)  2.195696  2.765128  4.090045  2.691717  4.578398  3.739157
   H ( 14)  2.293970  3.524403  4.607283  3.925114  4.556726  3.135431
   H ( 15)  3.612354  3.410179  2.265457  4.405574  1.096517  2.498309
             C (  7)   H (  8)   H (  9)   H ( 10)   C ( 11)   H ( 12)
   H (  8)  1.107261
   H (  9)  1.110062  1.787841
   H ( 10)  1.110153  1.787894  1.784909
   C ( 11)  5.022551  5.111589  5.772516  5.581170
   H ( 12)  4.915108  5.083310  5.776238  5.267375  1.080018
   H ( 13)  5.217436  5.087131  6.055316  5.758950  1.079997  1.527367
   H ( 14)  5.999454  6.159878  6.719031  6.512575  1.080041  1.527362
   H ( 15)  2.982859  4.035386  3.082451  3.082501  4.920640  4.679809
             H ( 13)   H ( 14)
   H ( 14)  1.777848
   H ( 15)  5.641975  5.503135
 
 Requested basis set is rimp2-cc-pVTZ
 There are 250 shells and 848 basis functions
 A cutoff of  1.0D-10 yielded   6216 shell pairs
 There are     45542 function pairs (     58570 Cartesian)
 Smallest overlap matrix eigenvalue = 1.12E-04

 Scale SEOQF with 1.000000e-01/1.000000e-01/1.000000e-01

 Standard Electronic Orientation quadrupole field applied
 Nucleus-field energy     =     0.0000000013 hartrees
 Guess from superposition of atomic densities
 Warning:  Energy on first SCF cycle will be non-variational
 SAD guess density has 60.000000 electrons

 -----------------------------------------------------------------------
  General SCF calculation program by
  Eric Jon Sundstrom, Paul Horn, Yuezhi Mao, Dmitri Zuev, Alec White,
  David Stuck, Shaama M.S., Shane Yost, Joonho Lee, David Small,
  Daniel Levine, Susi Lehtola, Hugh Burton, Evgeny Epifanovsky,
  Bang C. Huynh
 -----------------------------------------------------------------------
 Hartree-Fock
 using 64 threads for integral computing
 -------------------------------------------------------
 OpenMP Integral computing Module                
 Release: version 1.0, May 2013, Q-Chem Inc. Pittsburgh 
 -------------------------------------------------------
 A restricted SCF calculation will be
 performed using DIIS
 SCF converges when DIIS error is below 1.0e-06
 ---------------------------------------
  Cycle       Energy         DIIS error
 ---------------------------------------
    1    -632.1002243909      2.92e-02  
    2    -629.3361040408      1.95e-03  
    3    -629.4065575639      7.01e-04  
    4    -629.4142391126      3.60e-04  
    5    -629.4164997481      6.25e-05  
    6    -629.4166330966      2.62e-05  
    7    -629.4166660592      1.14e-05  
    8    -629.4166754393      5.21e-06  
    9    -629.4166770062      1.72e-06  
   10    -629.4166772083      6.74e-07  Convergence criterion met
 ---------------------------------------
 SCF time:   CPU 684.58s  wall 15.00s 

************** Final PCM Free Energy Summary **************
 G_electrostatic  =      -0.00555156 hartree =      -3.48365474 kcal/mol
 G_cavitation     =       0.00000000 hartree =       0.00000000 kcal/mol
 G_dispersion     =       0.00000000 hartree =       0.00000000 kcal/mol
 G_repulsion      =       0.00000000 hartree =       0.00000000 kcal/mol
 --------------------------------------------------
 Non-electrostatic Free Energy =       0.00000000 hartree =       0.00000000 kcal/mol
 Total                         =      -0.00555156 hartree =      -3.48365474 kcal/mol
 --------------------------------------------------
 SCF Energy (H0 + V/2)                       =    -629.41667721 
 Solute Internal Energy (H0)                 =    -629.41112565 
 Total Free Energy (H0 + V/2 + non-elec)     =    -629.41667721 hartree
                                             = -394964.92615357 kcal/mol
***********************************************************

 SCF   energy in the final basis set =     -629.4166772083
 Total energy in the final basis set =     -629.4166772083


 --------------------------------------------------------------
  Generalized many-body perturbation theory program
  by Joonho Lee, Fazle Rob, Xintian Feng, Evgeny Epifanovsky

 No regularization used 
 (reg. param. = 0.0000e+00)
  (P|Q)^-1/2 Time:  CPU 7.35 s  wall 0.12 s

 In RI-MP2 calculation: 
 # of frozen core orbitals: 11

 Components of the RIMP2 correlation energy:
        aaaa    correlation energy =        -0.1453778329 a.u.
        abab    correlation energy =        -0.8864871731 a.u.
        bbbb    correlation energy =        -0.1453778329 a.u.
        non-Brillouin singles      =        -0.0000000000 a.u.
        total same-spin energy     =        -0.2907556658 a.u.
        total opposite-spin energy =        -0.8864871731 a.u.

 Total  RIMP2   correlation energy =        -1.1772428389 a.u.
        RIMP2         total energy =      -630.5939200472 a.u.

 RI-MP2 Energy Time:  CPU 35.42 s  wall 0.62 s
 
 --------------------------------------------------------------
 
                    Orbital Energies (a.u.)
 --------------------------------------------------------------
 
 Alpha MOs
 -- Occupied --
-91.9769 -11.2832 -11.2531 -11.2478 -11.2271 -11.2256 -11.2227  -8.9770
 -6.6580  -6.6574  -6.6568  -1.1628  -1.0552  -0.9965  -0.9408  -0.8830
 -0.7451  -0.7196  -0.6460  -0.5885  -0.5792  -0.5670  -0.5511  -0.5460
 -0.5068  -0.4959  -0.4640  -0.4554  -0.3391  -0.2896
 -- Virtual --
  0.1021   0.1451   0.1523   0.1757   0.1870   0.1957   0.2113   0.2167
  0.2210   0.2455   0.2492   0.2583   0.2967   0.3292   0.3437   0.3491
  0.3807   0.3941   0.4023   0.4229   0.4354   0.4615   0.4662   0.4789
  0.4939   0.4960   0.5219   0.5304   0.5390   0.5567   0.5645   0.5893
  0.5928   0.6057   0.6090   0.6228   0.6313   0.6406   0.6441   0.6480
  0.6550   0.6730   0.6793   0.6911   0.7220   0.7508   0.7651   0.7914
  0.8037   0.8211   0.8420   0.8435   0.8609   0.8813   0.8949   0.9273
  0.9511   0.9693   1.0056   1.0220   1.0325   1.0542   1.0696   1.0764
  1.0796   1.1068   1.1114   1.1336   1.1546   1.1680   1.1798   1.2034
  1.2355   1.2463   1.2496   1.2613   1.2703   1.3041   1.3095   1.3315
  1.3598   1.3868   1.3914   1.4137   1.4320   1.4365   1.4517   1.4679
  1.4815   1.5023   1.5116   1.5221   1.5376   1.5503   1.5546   1.5805
  1.5872   1.6256   1.6426   1.6697   1.6899   1.6998   1.7228   1.7583
  1.7607   1.7831   1.8030   1.8258   1.9012   1.9261   1.9415   1.9751
  2.0126   2.0353   2.1123   2.1172   2.1772   2.1854   2.2275   2.2514
  2.2752   2.2916   2.3436   2.4114   2.4328   2.4804   2.4882   2.5461
  2.5633   2.5856   2.6122   2.6492   2.6739   2.6909   2.7065   2.7455
  2.7516   2.7714   2.7789   2.7955   2.8293   2.8483   2.8698   2.8926
  2.8982   2.9422   2.9656   2.9993   3.0066   3.0392   3.0455   3.0917
  3.0978   3.1106   3.1152   3.1277   3.1492   3.1560   3.1710   3.1859
  3.1909   3.2448   3.2558   3.2800   3.2846   3.2907   3.3094   3.3236
  3.3359   3.3527   3.3816   3.3895   3.4091   3.4154   3.4225   3.4420
  3.4512   3.4798   3.4880   3.4981   3.5181   3.5222   3.5397   3.5572
  3.5732   3.5896   3.6140   3.6191   3.6282   3.6337   3.6551   3.6816
  3.6894   3.7056   3.7202   3.7426   3.7470   3.7624   3.7919   3.8013
  3.8167   3.8390   3.8653   3.8804   3.8888   3.9055   3.9278   3.9559
  3.9918   4.0043   4.0152   4.0360   4.0451   4.0768   4.0966   4.1104
  4.1153   4.1531   4.1679   4.2004   4.2232   4.2260   4.2434   4.2736
  4.2935   4.3002   4.3192   4.3347   4.3449   4.3858   4.4027   4.4037
  4.4081   4.4254   4.4538   4.4605   4.4884   4.5100   4.5428   4.5712
  4.5920   4.6068   4.6464   4.6847   4.7162   4.7410   4.7533   4.7631
  4.8034   4.8186   4.8652   4.8790   4.8940   4.9210   5.0892   5.0997
  5.1048   5.1322   5.1426   5.1922   5.2142   5.2603   5.2872   5.3375
  5.3676   5.4031   5.4181   5.4404   5.4611   5.5104   5.5469   5.5659
  5.5919   5.5977   5.6211   5.6631   5.6962   5.8086   5.8220   5.8510
  5.9438   5.9545   6.0485   6.1805   6.2285   6.2500   6.2985   6.3746
  6.4298   6.5125   9.1716  11.3893  12.8873  13.6878  14.1758  14.4683
 --------------------------------------------------------------
 
          Ground-State Mulliken Net Atomic Charges

     Atom                 Charge (a.u.)
  ----------------------------------------
      1 C                     0.053370
      2 C                    -0.318321
      3 C                     0.060765
      4 H                     0.175787
      5 C                    -0.275011
      6 S                    -0.002304
      7 C                    -0.270518
      8 H                     0.101696
      9 H                     0.107729
     10 H                     0.106944
     11 C                    -0.371363
     12 H                     0.146510
     13 H                     0.138638
     14 H                     0.153001
     15 H                     0.193078
  ----------------------------------------
  Sum of atomic charges =     0.000000

 -----------------------------------------------------------------
                    Cartesian Multipole Moments
 -----------------------------------------------------------------
    Charge (ESU x 10^10)
                -0.0000
    Dipole Moment (Debye)
         X       1.2192      Y      -0.6349      Z       1.3685
       Tot       1.9397
    Quadrupole Moments (Debye-Ang)
        XX     -53.3426     XY       2.0741     YY     -43.4323
        XZ       0.2994     YZ       0.6648     ZZ     -48.5660
    Octopole Moments (Debye-Ang^2)
       XXX     -45.2903    XXY     -23.5335    XYY      -5.7295
       YYY     -75.4402    XXZ      -3.1642    XYZ      -1.4722
       YYZ      -5.4806    XZZ     -13.1881    YZZ     -23.3599
       ZZZ      -0.5689
    Hexadecapole Moments (Debye-Ang^3)
      XXXX    -175.5175   XXXY    -118.4366   XXYY    -154.0537
      XYYY    -107.5482   YYYY    -712.1487   XXXZ     -39.6147
      XXYZ     -30.0146   XYYZ     -15.9088   YYYZ     -91.4361
      XXZZ    -116.1309   XYZZ     -31.8461   YYZZ    -195.4802
      XZZZ     -43.2478   YZZZ     -93.8282   ZZZZ    -491.7709
 -----------------------------------------------------------------
 Total job time:  16.50s(wall), 765.73s(cpu) 
 Fri Dec 15 14:06:42 2023

        *************************************************************
        *                                                           *
        *  Thank you very much for using Q-Chem.  Have a nice day.  *
        *                                                           *
        *************************************************************


0 sent ACK to 0 
now end server 0 ... 
cleanup process ... done
remove work dirs ./qchem650225.0 -- ./qchem650225.0
rm -rf ./qchem650225.0
rm -rf ./qchem650225
