You are running Q-Chem version: 5.4.0

#
# job setting
#
local host:  exp-7-20
current dir: /home/rramji/project-csd799/aromodel/p3ht-qchem/methylated-rotation-run
input file:  Methylthiophene_Phi_10_Theta_40_Methylthiophene_Hydrogenated_Improper.qcin
output file: 
nprocs     : 1
nthreads   : 64
#
# qchem installation setting
#
QC:          /cm/shared/apps/spack/cpu/opt/spack/linux-centos8-zen2/gcc-10.2.0/qchem-5.4-akfmr7b3t57bfs6qan3padb2wnb2i7cl
QCAUX:       /cm/shared/apps/spack/cpu/opt/spack/linux-centos8-zen2/gcc-10.2.0/qchem-5.4-akfmr7b3t57bfs6qan3padb2wnb2i7cl/qcaux
QCPROG:      /cm/shared/apps/spack/cpu/opt/spack/linux-centos8-zen2/gcc-10.2.0/qchem-5.4-akfmr7b3t57bfs6qan3padb2wnb2i7cl/exe/qcprog.exe
QCPROG_S:    /cm/shared/apps/spack/cpu/opt/spack/linux-centos8-zen2/gcc-10.2.0/qchem-5.4-akfmr7b3t57bfs6qan3padb2wnb2i7cl/exe/qcprog.exe_s
PARALLEL:    -DPARALLEL
QCMPI:       mpich
#
# qchem directory setting
#
qcrun:       qchem3254305
QCSCRATCH:   .
QCLOCALSCR:  
QCTMPDIR:    .
QCFILEPREF:  ./qchem3254305
QCSAVEDIR:   
workdirs:    ./qchem3254305
workdir0:    ./qchem3254305
partmpdirs =  
#
# parallel setting
#
QCRSH:           ssh
QCMPI:           mpich
QCMPIRUN:        /cm/shared/apps/spack/cpu/opt/spack/linux-centos8-zen2/gcc-10.2.0/qchem-5.4-akfmr7b3t57bfs6qan3padb2wnb2i7cl/bin/mpi/mpirun_qchem
QCMACHINEFILE:   ./qchem3254305/hostfile
exp-7-20

#
# env setting
#
exported envs:   QC QCAUX QCSCRATCH QCRUNNAME QCFILEPREF QCPROG QCPROG_S GUIFILE

Running Job 1 of 1 Methylthiophene_Phi_10_Theta_40_Methylthiophene_Hydrogenated_Improper.qcin
qchem Methylthiophene_Phi_10_Theta_40_Methylthiophene_Hydrogenated_Improper.qcin_3254305.0 ./qchem3254305/ 1
/cm/shared/apps/spack/cpu/opt/spack/linux-centos8-zen2/gcc-10.2.0/qchem-5.4-akfmr7b3t57bfs6qan3padb2wnb2i7cl/bin/mpi/mpirun_qchem -machinefile ./qchem3254305/hostfile -np 1 /cm/shared/apps/spack/cpu/opt/spack/linux-centos8-zen2/gcc-10.2.0/qchem-5.4-akfmr7b3t57bfs6qan3padb2wnb2i7cl/exe/qcprog.exe Methylthiophene_Phi_10_Theta_40_Methylthiophene_Hydrogenated_Improper.qcin_3254305.0 ./qchem3254305/

Process 0 of 1 is on exp-7-20 - thread support 0
initial socket setup ...start
initial socket setup ...done 
now start server 0 ... 
                  Welcome to Q-Chem
     A Quantum Leap Into The Future Of Chemistry


 Q-Chem 5.4, Q-Chem, Inc., Pleasanton, CA (2021)

 License issued to: University of California, San Diego (site)

 E. Epifanovsky,  A. T. B. Gilbert,  Xintian Feng,  Joonho Lee,  Yuezhi Mao,  
 N. Mardirossian,  P. Pokhilko,  A. White,  M. Wormit,  M. P. Coons,  
 A. L. Dempwolff,  Zhengting Gan,  D. Hait,  P. R. Horn,  L. D. Jacobson,  
 I. Kaliman,  J. Kussmann,  A. W. Lange,  Ka Un Lao,  D. S. Levine,  Jie Liu,  
 S. C. McKenzie,  A. F. Morrison,  K. Nanda,  F. Plasser,  D. R. Rehn,  
 M. L. Vidal,  Zhi-Qiang You,  Ying Zhu,  B. Alam,  B. Albrecht,  
 A. Aldossary,  E. Alguire,  J. H. Andersen,  D. Barton,  K. Begam,  A. Behn,  
 Y. A. Bernard,  E. J. Berquist,  H. Burton,  A. Carreras,  K. Carter-Fenk,  
 R. Chakraborty,  A. D. Chien,  K. D. Closser,  V. Cofer-Shabica,  
 S. Dasgupta,  Jia Deng,  M. de Wergifosse,  M. Diedenhofen,  Hainam Do,  
 S. Ehlert,  Po-Tung Fang,  S. Fatehi,  Qingguo Feng,  J. Gayvert,  
 Qinghui Ge,  G. Gidofalvi,  M. Goldey,  J. Gomes,  C. Gonzalez-Espinoza,  
 S. Gulania,  A. Gunina,  M. W. D. Hanson-Heine,  P. H. P. Harbach,  
 A. W. Hauser,  M. F. Herbst,  M. Hernandez Vera,  M. Hodecker,  
 Z. C. Holden,  S. Houck,  Xunkun Huang,  Kerwin Hui,  B. C. Huynh,  
 M. Ivanov,  Hyunjun Ji,  Hanjie Jiang,  B. Kaduk,  S. Kaehler,  
 K. Khistyaev,  Jaehoon Kim,  P. Klunzinger,  Z. Koczor-Benda,  
 Joong Hoon Koh,  D. Kosenkov,  L. Koulias,  T. Kowalczyk,  C. M. Krauter,  
 K. Kue,  A. Kunitsa,  T. Kus,  A. Landau,  K. V. Lawler,  D. Lefrancois,  
 S. Lehtola,  Rain Li,  Yi-Pei Li,  Jiashu Liang,  M. Liebenthal,  
 Hung-Hsuan Lin,  You-Sheng Lin,  Fenglai Liu,  Kuan-Yu Liu,  
 M. Loipersberger,  A. Luenser,  A. Manjanath,  P. Manohar,  E. Mansoor,  
 S. F. Manzer,  Shan-Ping Mao,  A. V. Marenich,  T. Markovich,  S. Mason,  
 S. A. Maurer,  P. F. McLaughlin,  M. F. S. J. Menger,  J.-M. Mewes,  
 S. A. Mewes,  P. Morgante,  J. W. Mullinax,  T. S. Nguyen-Beck,  
 K. J. Oosterbaan,  G. Paran,  Alexander C. Paul,  Suranjan K. Paul,  
 F. Pavosevic,  Zheng Pei,  S. Prager,  E. I. Proynov,  E. Ramos,  B. Rana,  
 A. E. Rask,  A. Rettig,  R. M. Richard,  F. Rob,  E. Rossomme,  T. Scheele,  
 M. Scheurer,  M. Schneider,  N. Sergueev,  S. M. Sharada,  W. Skomorowski,  
 D. W. Small,  C. J. Stein,  Yu-Chuan Su,  E. J. Sundstrom,  Zhen Tao,  
 J. Thirman,  T. Tsuchimochi,  N. M. Tubman,  S. P. Veccham,  O. Vydrov,  
 J. Wenzel,  J. Witte,  A. Yamada,  Kun Yao,  S. Yeganeh,  S. R. Yost,  
 A. Zech,  Igor Ying Zhang,  Xing Zhang,  Yu Zhang,  D. Zuev,  
 A. Aspuru-Guzik,  A. T. Bell,  N. A. Besley,  K. B. Bravaya,  B. R. Brooks,  
 D. Casanova,  Jeng-Da Chai,  S. Coriani,  C. J. Cramer,  
 A. E. DePrince, III,  R. A. DiStasio Jr.,  A. Dreuw,  B. D. Dunietz,  
 T. R. Furlani,  W. A. Goddard III,  S. Grimme,  S. Hammes-Schiffer,  
 T. Head-Gordon,  W. J. Hehre,  Chao-Ping Hsu,  T.-C. Jagau,  Yousung Jung,  
 A. Klamt,  Jing Kong,  D. S. Lambrecht,  WanZhen Liang,  N. J. Mayhall,  
 C. W. McCurdy,  J. B. Neaton,  C. Ochsenfeld,  J. A. Parkhill,  R. Peverati,  
 V. A. Rassolov,  Yihan Shao,  L. V. Slipchenko,  T. Stauch,  R. P. Steele,  
 J. E. Subotnik,  A. J. W. Thom,  A. Tkatchenko,  D. G. Truhlar,  
 T. Van Voorhis,  T. A. Wesolowski,  K. B. Whaley,  H. L. Woodcock III,  
 P. M. Zimmerman,  S. Faraji,  P. M. W. Gill,  M. Head-Gordon,  
 J. M. Herbert,  A. I. Krylov

 Contributors to earlier versions of Q-Chem not listed above: 
 R. D. Adamson,  B. Austin,  R. Baer,  J. Baker,  G. J. O. Beran,  
 K. Brandhorst,  S. T. Brown,  E. F. C. Byrd,  A. K. Chakraborty,  
 G. K. L. Chan,  Chun-Min Chang,  Yunqing Chen,  C.-L. Cheng,  
 Siu Hung Chien,  D. M. Chipman,  D. L. Crittenden,  H. Dachsel,  
 R. J. Doerksen,  A. D. Dutoi,  R. G. Edgar,  J. Fosso-Tande,  
 L. Fusti-Molnar,  D. Ghosh,  A. Ghysels,  A. Golubeva-Zadorozhnaya,  
 J. Gonthier,  M. S. Gordon,  S. R. Gwaltney,  G. Hawkins,  J. E. Herr,  
 A. Heyden,  S. Hirata,  E. G. Hohenstein,  G. Kedziora,  F. J. Keil,  
 C. Kelley,  Jihan Kim,  R. A. King,  R. Z. Khaliullin,  P. P. Korambath,  
 W. Kurlancheek,  A. Laurent,  A. M. Lee,  M. S. Lee,  S. V. Levchenko,  
 Ching Yeh Lin,  D. Liotard,  E. Livshits,  R. C. Lochan,  I. Lotan,  
 L. A. Martinez-Martinez,  P. E. Maslen,  N. Nair,  D. P. O'Neill,  
 D. Neuhauser,  E. Neuscamman,  C. M. Oana,  R. Olivares-Amaya,  R. Olson,  
 T. M. Perrine,  B. Peters,  P. A. Pieniazek,  A. Prociuk,  Y. M. Rhee,  
 J. Ritchie,  M. A. Rohrdanz,  E. Rosta,  N. J. Russ,  H. F. Schaefer III,  
 M. W. Schmidt,  N. E. Schultz,  S. Sharma,  N. Shenvi,  C. D. Sherrill,  
 A. C. Simmonett,  A. Sodt,  T. Stein,  D. Stuck,  K. S. Thanthiriwatte,  
 V. Vanovschi,  L. Vogt,  Tao Wang,  A. Warshel,  M. A. Watson,  
 C. F. Williams,  Q. Wu,  X. Xu,  Jun Yang,  W. Zhang,  Yan Zhao

 Please cite Q-Chem as follows:
 Y. Shao et al., Mol. Phys. 113, 184-215 (2015)
 DOI: 10.1080/00268976.2014.952696

 Q-Chem 5.4.0 for Intel X86 EM64T Linux

 Parts of Q-Chem use Armadillo 9.800.1 (Horizon Scraper).
 http://arma.sourceforge.net/

 Q-Chem begins on Fri Dec 15 13:55:56 2023  

 Host: 
0

     Scratch files written to ./qchem3254305//
 May1621 |scratch|qcdevops|jenkins|workspace|build_RNUM    
 Parallel job on  1  processors
 Processing $rem in /cm/shared/apps/spack/cpu/opt/spack/linux-centos8-zen2/gcc-10.2.0/qchem-5.4-akfmr7b3t57bfs6qan3padb2wnb2i7cl/config/preferences:
 Processing $rem in /home/rramji/.qchemrc:
 Symmetry turned off for PCM/SM12/SMD calculation
 Core orbitals will be frozen

 Checking the input file for inconsistencies... 	...done.

 Q-Chem warning in module forms1/BasisType.C, line 2236:

 You are not using the predefined 5D/6D in this basis set.


--------------------------------------------------------------
User input:
--------------------------------------------------------------
$molecule
0 1
C	-0.118964	-0.566489	-0.002247
C	0.024636	0.265811	1.110753
C	0.261536	1.636511	0.818353
H	-0.041364	-0.116589	2.140653
C	0.304036	1.881011	-0.565847
S	0.045936	0.390011	-1.466947
C	0.442936	2.685511	1.880153
H	0.366536	2.244111	2.892753
H	-0.324664	3.484011	1.805853
H	1.434036	3.179911	1.805953
C	-0.118964	-2.016589	-0.002247
H	0.708336	-2.017089	0.691953
H	-0.722164	-2.551689	0.716253
H	0.416336	-2.703789	-0.640747
H	0.467136	2.825011	-1.099347
$end

$rem
JOBTYPE		SP
EXCHANGE	HF
CORRELATION	pRIMP2
BASIS		cc-pvtz
METHOD		rimp2
AUX_BASIS	rimp2-cc-pvtz
SOLVENT_METHOD	PCM
PURECART	11111
SYMMETRY	false
MEM_TOTAL	110000
SCF_CONVERGENCE = 6
THRESH=10
GUI = 2
$end



$solvent
dielectric 4.90
$end
--------------------------------------------------------------
 ----------------------------------------------------------------
             Standard Nuclear Orientation (Angstroms)
    I     Atom           X                Y                Z
 ----------------------------------------------------------------
    1      C      -0.1189640000    -0.5664890000    -0.0022470000
    2      C       0.0246360000     0.2658110000     1.1107530000
    3      C       0.2615360000     1.6365110000     0.8183530000
    4      H      -0.0413640000    -0.1165890000     2.1406530000
    5      C       0.3040360000     1.8810110000    -0.5658470000
    6      S       0.0459360000     0.3900110000    -1.4669470000
    7      C       0.4429360000     2.6855110000     1.8801530000
    8      H       0.3665360000     2.2441110000     2.8927530000
    9      H      -0.3246640000     3.4840110000     1.8058530000
   10      H       1.4340360000     3.1799110000     1.8059530000
   11      C      -0.1189640000    -2.0165890000    -0.0022470000
   12      H       0.7083360000    -2.0170890000     0.6919530000
   13      H      -0.7221640000    -2.5516890000     0.7162530000
   14      H       0.4163360000    -2.7037890000    -0.6407470000
   15      H       0.4671360000     2.8250110000    -1.0993470000
 ----------------------------------------------------------------
 Nuclear Repulsion Energy =         344.28252874 hartrees
 There are       30 alpha and       30 beta electrons
 Requested basis set is cc-pVTZ
 There are 120 shells and 326 basis functions

 Total QAlloc Memory Limit 110000 MB
 Mega-Array Size       188 MB
 MEM_STATIC part       192 MB
 Discretize the solute cavity surface with Lebedev spheres
	Using 110 Lebedev grid points for each H atom
	Using 194 Lebedev grid points for other atoms
	Atomic van der Waals radii will be scaled by 1.20
 Remove points where switching function is < 1.0e-08
 Keep 1068 surface tesserae and discard 1170 interior tesserae
 Molecular Surface Area = 158.887 Angst**2

                       Distance Matrix (Angstroms)
             C (  1)   C (  2)   C (  3)   H (  4)   C (  5)   S (  6)
   C (  2)  1.397180
   C (  3)  2.381465  1.421421
   H (  4)  2.190993  1.100582  2.216661
   C (  5)  2.546926  2.344765  1.406270  3.381545
   S (  6)  1.757109  2.580778  2.612057  3.644042  1.761158
   C (  7)  3.799298  2.573305  1.503571  2.855551  2.578649  4.077991
   H (  8)  4.064014  2.684416  2.164102  2.510964  3.478169  4.748416
   H (  9)  4.440505  3.310889  2.175326  3.627212  2.930842  4.519004
   H ( 10)  4.440373  3.310844  2.175361  3.627084  2.930781  4.519097
   C ( 11)  1.450100  2.543372  3.763417  2.864968  3.960790  2.822102
   H ( 12)  1.808474  2.419602  3.682988  2.504532  4.115909  3.300569
   H ( 13)  2.195703  2.941368  4.303383  2.902088  4.727123  3.742985
   H ( 14)  2.293966  3.469828  4.581609  3.826131  4.586787  3.223570
   H ( 15)  3.612397  3.410257  2.265475  4.405585  1.096522  2.498352
             C (  7)   H (  8)   H (  9)   H ( 10)   C ( 11)   H ( 12)
   H (  8)  1.107262
   H (  9)  1.110105  1.787865
   H ( 10)  1.110052  1.787851  1.784798
   C ( 11)  5.095970  5.174002  5.793802  5.717080
   H ( 12)  4.857644  4.808136  5.707010  5.364368  1.079972
   H ( 13)  5.490026  5.377929  6.146130  6.219958  1.080011  1.527324
   H ( 14)  5.949807  6.080281  6.695058  6.452905  1.080033  1.527387
   H ( 15)  2.982862  4.035397  3.082437  3.082469  4.998823  5.168449
             H ( 13)   H ( 14)
   H ( 14)  1.777854
   H ( 15)  5.798253  5.548020
 
 Requested basis set is rimp2-cc-pVTZ
 There are 250 shells and 848 basis functions
 A cutoff of  1.0D-10 yielded   6191 shell pairs
 There are     45335 function pairs (     58300 Cartesian)
 Smallest overlap matrix eigenvalue = 9.80E-05

 Scale SEOQF with 1.000000e+00/1.000000e-01/1.000000e-01

 Standard Electronic Orientation quadrupole field applied
 Nucleus-field energy     =     0.0000000040 hartrees
 Guess from superposition of atomic densities
 Warning:  Energy on first SCF cycle will be non-variational
 SAD guess density has 60.000000 electrons

 -----------------------------------------------------------------------
  General SCF calculation program by
  Eric Jon Sundstrom, Paul Horn, Yuezhi Mao, Dmitri Zuev, Alec White,
  David Stuck, Shaama M.S., Shane Yost, Joonho Lee, David Small,
  Daniel Levine, Susi Lehtola, Hugh Burton, Evgeny Epifanovsky,
  Bang C. Huynh
 -----------------------------------------------------------------------
 Hartree-Fock
 using 64 threads for integral computing
 -------------------------------------------------------
 OpenMP Integral computing Module                
 Release: version 1.0, May 2013, Q-Chem Inc. Pittsburgh 
 -------------------------------------------------------
 A restricted SCF calculation will be
 performed using DIIS
 SCF converges when DIIS error is below 1.0e-06
 ---------------------------------------
  Cycle       Energy         DIIS error
 ---------------------------------------
    1    -632.0871165865      2.91e-02  
    2    -629.3430110927      1.93e-03  
    3    -629.4130377247      6.79e-04  
    4    -629.4204222917      3.51e-04  
    5    -629.4225518926      6.18e-05  
    6    -629.4226782513      2.53e-05  
    7    -629.4227084421      1.10e-05  
    8    -629.4227170593      5.07e-06  
    9    -629.4227185401      1.67e-06  
   10    -629.4227187178      5.90e-07  Convergence criterion met
 ---------------------------------------
 SCF time:   CPU 671.75s  wall 13.00s 

************** Final PCM Free Energy Summary **************
 G_electrostatic  =      -0.00563924 hartree =      -3.53867736 kcal/mol
 G_cavitation     =       0.00000000 hartree =       0.00000000 kcal/mol
 G_dispersion     =       0.00000000 hartree =       0.00000000 kcal/mol
 G_repulsion      =       0.00000000 hartree =       0.00000000 kcal/mol
 --------------------------------------------------
 Non-electrostatic Free Energy =       0.00000000 hartree =       0.00000000 kcal/mol
 Total                         =      -0.00563924 hartree =      -3.53867736 kcal/mol
 --------------------------------------------------
 SCF Energy (H0 + V/2)                       =    -629.42271872 
 Solute Internal Energy (H0)                 =    -629.41707948 
 Total Free Energy (H0 + V/2 + non-elec)     =    -629.42271872 hartree
                                             = -394968.71725801 kcal/mol
***********************************************************

 SCF   energy in the final basis set =     -629.4227187178
 Total energy in the final basis set =     -629.4227187178


 --------------------------------------------------------------
  Generalized many-body perturbation theory program
  by Joonho Lee, Fazle Rob, Xintian Feng, Evgeny Epifanovsky

 No regularization used 
 (reg. param. = 0.0000e+00)
  (P|Q)^-1/2 Time:  CPU 13.77 s  wall 0.24 s

 In RI-MP2 calculation: 
 # of frozen core orbitals: 11

 Components of the RIMP2 correlation energy:
        aaaa    correlation energy =        -0.1454737277 a.u.
        abab    correlation energy =        -0.8861114886 a.u.
        bbbb    correlation energy =        -0.1454737277 a.u.
        non-Brillouin singles      =        -0.0000000000 a.u.
        total same-spin energy     =        -0.2909474554 a.u.
        total opposite-spin energy =        -0.8861114886 a.u.

 Total  RIMP2   correlation energy =        -1.1770589440 a.u.
        RIMP2         total energy =      -630.5997776618 a.u.

 RI-MP2 Energy Time:  CPU 43.41 s  wall 0.73 s
 
 --------------------------------------------------------------
 
                    Orbital Energies (a.u.)
 --------------------------------------------------------------
 
 Alpha MOs
 -- Occupied --
-91.9782 -11.2833 -11.2515 -11.2476 -11.2271 -11.2263 -11.2199  -8.9779
 -6.6588  -6.6583  -6.6578  -1.1606  -1.0537  -0.9987  -0.9389  -0.8845
 -0.7424  -0.7204  -0.6471  -0.5904  -0.5739  -0.5702  -0.5571  -0.5429
 -0.5089  -0.4876  -0.4674  -0.4509  -0.3368  -0.2939
 -- Virtual --
  0.1090   0.1450   0.1501   0.1760   0.1822   0.1895   0.2094   0.2198
  0.2353   0.2415   0.2561   0.2603   0.2964   0.3233   0.3427   0.3552
  0.3848   0.3887   0.4045   0.4141   0.4373   0.4465   0.4713   0.4915
  0.5005   0.5113   0.5161   0.5344   0.5433   0.5500   0.5695   0.5867
  0.5994   0.6080   0.6150   0.6209   0.6380   0.6440   0.6450   0.6520
  0.6583   0.6624   0.6798   0.7016   0.7255   0.7512   0.7584   0.7843
  0.8008   0.8319   0.8383   0.8592   0.8773   0.8935   0.9099   0.9219
  0.9437   0.9678   0.9944   1.0201   1.0313   1.0601   1.0648   1.0733
  1.0749   1.0927   1.1038   1.1444   1.1611   1.1766   1.1933   1.2155
  1.2206   1.2408   1.2556   1.2599   1.2670   1.2770   1.3244   1.3275
  1.3371   1.3862   1.3930   1.4075   1.4251   1.4349   1.4654   1.4858
  1.5045   1.5061   1.5253   1.5327   1.5486   1.5605   1.5687   1.5849
  1.6027   1.6253   1.6515   1.6778   1.6889   1.6988   1.7181   1.7511
  1.7559   1.7865   1.8156   1.8363   1.8804   1.9155   1.9199   1.9582
  1.9998   2.0379   2.0947   2.1414   2.1823   2.1960   2.2284   2.2544
  2.2729   2.2879   2.3476   2.4116   2.4531   2.5028   2.5269   2.5400
  2.5709   2.5991   2.6315   2.6589   2.6814   2.6931   2.7087   2.7438
  2.7536   2.7599   2.7698   2.7822   2.8091   2.8430   2.8637   2.8854
  2.9025   2.9183   2.9521   2.9667   2.9938   3.0203   3.0292   3.0435
  3.0920   3.1038   3.1146   3.1409   3.1439   3.1593   3.1606   3.1852
  3.2298   3.2465   3.2703   3.2777   3.2959   3.3052   3.3127   3.3238
  3.3299   3.3713   3.3841   3.3927   3.3993   3.4232   3.4371   3.4450
  3.4467   3.4578   3.4805   3.4883   3.4991   3.5252   3.5556   3.5614
  3.5790   3.5917   3.5981   3.6280   3.6312   3.6392   3.6541   3.6758
  3.6859   3.6969   3.7232   3.7447   3.7531   3.7839   3.7863   3.8057
  3.8148   3.8190   3.8567   3.8744   3.9024   3.9366   3.9574   3.9638
  3.9719   3.9809   3.9987   4.0203   4.0637   4.0710   4.0972   4.1069
  4.1169   4.1335   4.1517   4.2045   4.2181   4.2227   4.2333   4.2548
  4.2852   4.2950   4.3161   4.3396   4.3476   4.3722   4.3960   4.4030
  4.4119   4.4234   4.4344   4.4573   4.4713   4.5083   4.5457   4.5815
  4.6075   4.6279   4.6340   4.6715   4.7224   4.7462   4.7730   4.7766
  4.8016   4.8284   4.8546   4.8860   4.9032   4.9589   5.0788   5.0954
  5.1141   5.1292   5.1549   5.2005   5.2311   5.2642   5.2898   5.3285
  5.3674   5.4026   5.4111   5.4241   5.4583   5.5044   5.5507   5.5580
  5.5971   5.6238   5.6359   5.6837   5.6977   5.8201   5.8233   5.8629
  5.9343   5.9805   6.1028   6.1476   6.2275   6.2476   6.2940   6.4006
  6.4176   6.4938   9.1848  11.3831  12.9307  13.8903  14.1582  14.4026
 --------------------------------------------------------------
 
          Ground-State Mulliken Net Atomic Charges

     Atom                 Charge (a.u.)
  ----------------------------------------
      1 C                     0.056561
      2 C                    -0.276341
      3 C                     0.036391
      4 H                     0.175013
      5 C                    -0.270591
      6 S                    -0.001894
      7 C                    -0.273633
      8 H                     0.101286
      9 H                     0.107334
     10 H                     0.107128
     11 C                    -0.388960
     12 H                     0.140437
     13 H                     0.137818
     14 H                     0.156679
     15 H                     0.192770
  ----------------------------------------
  Sum of atomic charges =     0.000000

 -----------------------------------------------------------------
                    Cartesian Multipole Moments
 -----------------------------------------------------------------
    Charge (ESU x 10^10)
                -0.0000
    Dipole Moment (Debye)
         X       0.7413      Y      -0.5250      Z       1.8947
       Tot       2.1012
    Quadrupole Moments (Debye-Ang)
        XX     -53.9870     XY       0.2109     YY     -42.2722
        XZ      -0.2570     YZ      -0.4494     ZZ     -48.6909
    Octopole Moments (Debye-Ang^2)
       XXX     -19.2125    XXY     -30.6135    XYY      -0.1244
       YYY     -79.8749    XXZ      -2.7084    XYZ       0.8529
       YYZ      -3.4733    XZZ      -5.4977    YZZ     -24.8952
       ZZZ      -1.4700
    Hexadecapole Moments (Debye-Ang^3)
      XXXX     -94.6491   XXXY     -51.8778   XXYY    -158.9857
      XYYY     -49.7109   YYYY    -791.7120   XXXZ     -14.9734
      XXYZ     -30.3824   XYYZ     -11.1614   YYYZ    -103.4401
      XXZZ    -104.4194   XYZZ     -13.6378   YYZZ    -211.2930
      XZZZ     -17.0670   YZZZ     -99.1049   ZZZZ    -491.6702
 -----------------------------------------------------------------
 Total job time:  18.25s(wall), 761.80s(cpu) 
 Fri Dec 15 13:56:15 2023

        *************************************************************
        *                                                           *
        *  Thank you very much for using Q-Chem.  Have a nice day.  *
        *                                                           *
        *************************************************************


0 sent ACK to 0 
now end server 0 ... 
cleanup process ... done
remove work dirs ./qchem3254305.0 -- ./qchem3254305.0
rm -rf ./qchem3254305.0
rm -rf ./qchem3254305
