You are running Q-Chem version: 5.4.0

#
# job setting
#
local host:  exp-7-21
current dir: /home/rramji/project-csd799/aromodel/p3ht-qchem/methylated-rotation-run
input file:  Methylthiophene_Phi_15_Theta_290_Methylthiophene_Hydrogenated_Improper.qcin
output file: 
nprocs     : 1
nthreads   : 64
#
# qchem installation setting
#
QC:          /cm/shared/apps/spack/cpu/opt/spack/linux-centos8-zen2/gcc-10.2.0/qchem-5.4-akfmr7b3t57bfs6qan3padb2wnb2i7cl
QCAUX:       /cm/shared/apps/spack/cpu/opt/spack/linux-centos8-zen2/gcc-10.2.0/qchem-5.4-akfmr7b3t57bfs6qan3padb2wnb2i7cl/qcaux
QCPROG:      /cm/shared/apps/spack/cpu/opt/spack/linux-centos8-zen2/gcc-10.2.0/qchem-5.4-akfmr7b3t57bfs6qan3padb2wnb2i7cl/exe/qcprog.exe
QCPROG_S:    /cm/shared/apps/spack/cpu/opt/spack/linux-centos8-zen2/gcc-10.2.0/qchem-5.4-akfmr7b3t57bfs6qan3padb2wnb2i7cl/exe/qcprog.exe_s
PARALLEL:    -DPARALLEL
QCMPI:       mpich
#
# qchem directory setting
#
qcrun:       qchem24659
QCSCRATCH:   .
QCLOCALSCR:  
QCTMPDIR:    .
QCFILEPREF:  ./qchem24659
QCSAVEDIR:   
workdirs:    ./qchem24659
workdir0:    ./qchem24659
partmpdirs =  
#
# parallel setting
#
QCRSH:           ssh
QCMPI:           mpich
QCMPIRUN:        /cm/shared/apps/spack/cpu/opt/spack/linux-centos8-zen2/gcc-10.2.0/qchem-5.4-akfmr7b3t57bfs6qan3padb2wnb2i7cl/bin/mpi/mpirun_qchem
QCMACHINEFILE:   ./qchem24659/hostfile
exp-7-21

#
# env setting
#
exported envs:   QC QCAUX QCSCRATCH QCRUNNAME QCFILEPREF QCPROG QCPROG_S GUIFILE

Running Job 1 of 1 Methylthiophene_Phi_15_Theta_290_Methylthiophene_Hydrogenated_Improper.qcin
qchem Methylthiophene_Phi_15_Theta_290_Methylthiophene_Hydrogenated_Improper.qcin_24659.0 ./qchem24659/ 1
/cm/shared/apps/spack/cpu/opt/spack/linux-centos8-zen2/gcc-10.2.0/qchem-5.4-akfmr7b3t57bfs6qan3padb2wnb2i7cl/bin/mpi/mpirun_qchem -machinefile ./qchem24659/hostfile -np 1 /cm/shared/apps/spack/cpu/opt/spack/linux-centos8-zen2/gcc-10.2.0/qchem-5.4-akfmr7b3t57bfs6qan3padb2wnb2i7cl/exe/qcprog.exe Methylthiophene_Phi_15_Theta_290_Methylthiophene_Hydrogenated_Improper.qcin_24659.0 ./qchem24659/

Process 0 of 1 is on exp-7-21 - thread support 0
initial socket setup ...start
initial socket setup ...done 
now start server 0 ... 
                  Welcome to Q-Chem
     A Quantum Leap Into The Future Of Chemistry


 Q-Chem 5.4, Q-Chem, Inc., Pleasanton, CA (2021)

 License issued to: University of California, San Diego (site)

 E. Epifanovsky,  A. T. B. Gilbert,  Xintian Feng,  Joonho Lee,  Yuezhi Mao,  
 N. Mardirossian,  P. Pokhilko,  A. White,  M. Wormit,  M. P. Coons,  
 A. L. Dempwolff,  Zhengting Gan,  D. Hait,  P. R. Horn,  L. D. Jacobson,  
 I. Kaliman,  J. Kussmann,  A. W. Lange,  Ka Un Lao,  D. S. Levine,  Jie Liu,  
 S. C. McKenzie,  A. F. Morrison,  K. Nanda,  F. Plasser,  D. R. Rehn,  
 M. L. Vidal,  Zhi-Qiang You,  Ying Zhu,  B. Alam,  B. Albrecht,  
 A. Aldossary,  E. Alguire,  J. H. Andersen,  D. Barton,  K. Begam,  A. Behn,  
 Y. A. Bernard,  E. J. Berquist,  H. Burton,  A. Carreras,  K. Carter-Fenk,  
 R. Chakraborty,  A. D. Chien,  K. D. Closser,  V. Cofer-Shabica,  
 S. Dasgupta,  Jia Deng,  M. de Wergifosse,  M. Diedenhofen,  Hainam Do,  
 S. Ehlert,  Po-Tung Fang,  S. Fatehi,  Qingguo Feng,  J. Gayvert,  
 Qinghui Ge,  G. Gidofalvi,  M. Goldey,  J. Gomes,  C. Gonzalez-Espinoza,  
 S. Gulania,  A. Gunina,  M. W. D. Hanson-Heine,  P. H. P. Harbach,  
 A. W. Hauser,  M. F. Herbst,  M. Hernandez Vera,  M. Hodecker,  
 Z. C. Holden,  S. Houck,  Xunkun Huang,  Kerwin Hui,  B. C. Huynh,  
 M. Ivanov,  Hyunjun Ji,  Hanjie Jiang,  B. Kaduk,  S. Kaehler,  
 K. Khistyaev,  Jaehoon Kim,  P. Klunzinger,  Z. Koczor-Benda,  
 Joong Hoon Koh,  D. Kosenkov,  L. Koulias,  T. Kowalczyk,  C. M. Krauter,  
 K. Kue,  A. Kunitsa,  T. Kus,  A. Landau,  K. V. Lawler,  D. Lefrancois,  
 S. Lehtola,  Rain Li,  Yi-Pei Li,  Jiashu Liang,  M. Liebenthal,  
 Hung-Hsuan Lin,  You-Sheng Lin,  Fenglai Liu,  Kuan-Yu Liu,  
 M. Loipersberger,  A. Luenser,  A. Manjanath,  P. Manohar,  E. Mansoor,  
 S. F. Manzer,  Shan-Ping Mao,  A. V. Marenich,  T. Markovich,  S. Mason,  
 S. A. Maurer,  P. F. McLaughlin,  M. F. S. J. Menger,  J.-M. Mewes,  
 S. A. Mewes,  P. Morgante,  J. W. Mullinax,  T. S. Nguyen-Beck,  
 K. J. Oosterbaan,  G. Paran,  Alexander C. Paul,  Suranjan K. Paul,  
 F. Pavosevic,  Zheng Pei,  S. Prager,  E. I. Proynov,  E. Ramos,  B. Rana,  
 A. E. Rask,  A. Rettig,  R. M. Richard,  F. Rob,  E. Rossomme,  T. Scheele,  
 M. Scheurer,  M. Schneider,  N. Sergueev,  S. M. Sharada,  W. Skomorowski,  
 D. W. Small,  C. J. Stein,  Yu-Chuan Su,  E. J. Sundstrom,  Zhen Tao,  
 J. Thirman,  T. Tsuchimochi,  N. M. Tubman,  S. P. Veccham,  O. Vydrov,  
 J. Wenzel,  J. Witte,  A. Yamada,  Kun Yao,  S. Yeganeh,  S. R. Yost,  
 A. Zech,  Igor Ying Zhang,  Xing Zhang,  Yu Zhang,  D. Zuev,  
 A. Aspuru-Guzik,  A. T. Bell,  N. A. Besley,  K. B. Bravaya,  B. R. Brooks,  
 D. Casanova,  Jeng-Da Chai,  S. Coriani,  C. J. Cramer,  
 A. E. DePrince, III,  R. A. DiStasio Jr.,  A. Dreuw,  B. D. Dunietz,  
 T. R. Furlani,  W. A. Goddard III,  S. Grimme,  S. Hammes-Schiffer,  
 T. Head-Gordon,  W. J. Hehre,  Chao-Ping Hsu,  T.-C. Jagau,  Yousung Jung,  
 A. Klamt,  Jing Kong,  D. S. Lambrecht,  WanZhen Liang,  N. J. Mayhall,  
 C. W. McCurdy,  J. B. Neaton,  C. Ochsenfeld,  J. A. Parkhill,  R. Peverati,  
 V. A. Rassolov,  Yihan Shao,  L. V. Slipchenko,  T. Stauch,  R. P. Steele,  
 J. E. Subotnik,  A. J. W. Thom,  A. Tkatchenko,  D. G. Truhlar,  
 T. Van Voorhis,  T. A. Wesolowski,  K. B. Whaley,  H. L. Woodcock III,  
 P. M. Zimmerman,  S. Faraji,  P. M. W. Gill,  M. Head-Gordon,  
 J. M. Herbert,  A. I. Krylov

 Contributors to earlier versions of Q-Chem not listed above: 
 R. D. Adamson,  B. Austin,  R. Baer,  J. Baker,  G. J. O. Beran,  
 K. Brandhorst,  S. T. Brown,  E. F. C. Byrd,  A. K. Chakraborty,  
 G. K. L. Chan,  Chun-Min Chang,  Yunqing Chen,  C.-L. Cheng,  
 Siu Hung Chien,  D. M. Chipman,  D. L. Crittenden,  H. Dachsel,  
 R. J. Doerksen,  A. D. Dutoi,  R. G. Edgar,  J. Fosso-Tande,  
 L. Fusti-Molnar,  D. Ghosh,  A. Ghysels,  A. Golubeva-Zadorozhnaya,  
 J. Gonthier,  M. S. Gordon,  S. R. Gwaltney,  G. Hawkins,  J. E. Herr,  
 A. Heyden,  S. Hirata,  E. G. Hohenstein,  G. Kedziora,  F. J. Keil,  
 C. Kelley,  Jihan Kim,  R. A. King,  R. Z. Khaliullin,  P. P. Korambath,  
 W. Kurlancheek,  A. Laurent,  A. M. Lee,  M. S. Lee,  S. V. Levchenko,  
 Ching Yeh Lin,  D. Liotard,  E. Livshits,  R. C. Lochan,  I. Lotan,  
 L. A. Martinez-Martinez,  P. E. Maslen,  N. Nair,  D. P. O'Neill,  
 D. Neuhauser,  E. Neuscamman,  C. M. Oana,  R. Olivares-Amaya,  R. Olson,  
 T. M. Perrine,  B. Peters,  P. A. Pieniazek,  A. Prociuk,  Y. M. Rhee,  
 J. Ritchie,  M. A. Rohrdanz,  E. Rosta,  N. J. Russ,  H. F. Schaefer III,  
 M. W. Schmidt,  N. E. Schultz,  S. Sharma,  N. Shenvi,  C. D. Sherrill,  
 A. C. Simmonett,  A. Sodt,  T. Stein,  D. Stuck,  K. S. Thanthiriwatte,  
 V. Vanovschi,  L. Vogt,  Tao Wang,  A. Warshel,  M. A. Watson,  
 C. F. Williams,  Q. Wu,  X. Xu,  Jun Yang,  W. Zhang,  Yan Zhao

 Please cite Q-Chem as follows:
 Y. Shao et al., Mol. Phys. 113, 184-215 (2015)
 DOI: 10.1080/00268976.2014.952696

 Q-Chem 5.4.0 for Intel X86 EM64T Linux

 Parts of Q-Chem use Armadillo 9.800.1 (Horizon Scraper).
 http://arma.sourceforge.net/

 Q-Chem begins on Fri Dec 15 14:04:26 2023  

 Host: 
0

     Scratch files written to ./qchem24659//
 May1621 |scratch|qcdevops|jenkins|workspace|build_RNUM    
 Parallel job on  1  processors
 Processing $rem in /cm/shared/apps/spack/cpu/opt/spack/linux-centos8-zen2/gcc-10.2.0/qchem-5.4-akfmr7b3t57bfs6qan3padb2wnb2i7cl/config/preferences:
 Processing $rem in /home/rramji/.qchemrc:
 Symmetry turned off for PCM/SM12/SMD calculation
 Core orbitals will be frozen

 Checking the input file for inconsistencies... 	...done.

 Q-Chem warning in module forms1/BasisType.C, line 2236:

 You are not using the predefined 5D/6D in this basis set.


--------------------------------------------------------------
User input:
--------------------------------------------------------------
$molecule
0 1
C	-0.175533	-0.553870	0.005627
C	0.040067	0.262730	1.118627
C	0.395567	1.607530	0.826227
H	-0.059033	-0.112470	2.148527
C	0.459167	1.847430	-0.557973
S	0.072067	0.384630	-1.459073
C	0.667667	2.636830	1.888027
H	0.553067	2.203730	2.900627
H	-0.027433	3.499130	1.813727
H	1.698167	3.042930	1.813827
C	-0.175533	-2.003970	0.005627
H	0.193867	-2.004470	-1.009273
H	0.705967	-2.539070	0.326727
H	-0.958533	-2.691170	-0.279073
H	0.703967	2.773630	-1.091473
$end

$rem
JOBTYPE		SP
EXCHANGE	HF
CORRELATION	pRIMP2
BASIS		cc-pvtz
METHOD		rimp2
AUX_BASIS	rimp2-cc-pvtz
SOLVENT_METHOD	PCM
PURECART	11111
SYMMETRY	false
MEM_TOTAL	110000
SCF_CONVERGENCE = 6
THRESH=10
GUI = 2
$end



$solvent
dielectric 4.90
$end
--------------------------------------------------------------
 ----------------------------------------------------------------
             Standard Nuclear Orientation (Angstroms)
    I     Atom           X                Y                Z
 ----------------------------------------------------------------
    1      C      -0.1755330000    -0.5538700000     0.0056270000
    2      C       0.0400670000     0.2627300000     1.1186270000
    3      C       0.3955670000     1.6075300000     0.8262270000
    4      H      -0.0590330000    -0.1124700000     2.1485270000
    5      C       0.4591670000     1.8474300000    -0.5579730000
    6      S       0.0720670000     0.3846300000    -1.4590730000
    7      C       0.6676670000     2.6368300000     1.8880270000
    8      H       0.5530670000     2.2037300000     2.9006270000
    9      H      -0.0274330000     3.4991300000     1.8137270000
   10      H       1.6981670000     3.0429300000     1.8138270000
   11      C      -0.1755330000    -2.0039700000     0.0056270000
   12      H       0.1938670000    -2.0044700000    -1.0092730000
   13      H       0.7059670000    -2.5390700000     0.3267270000
   14      H      -0.9585330000    -2.6911700000    -0.2790730000
   15      H       0.7039670000     2.7736300000    -1.0914730000
 ----------------------------------------------------------------
 Nuclear Repulsion Energy =         344.86671568 hartrees
 There are       30 alpha and       30 beta electrons
 Requested basis set is cc-pVTZ
 There are 120 shells and 326 basis functions

 Total QAlloc Memory Limit 110000 MB
 Mega-Array Size       188 MB
 MEM_STATIC part       192 MB
 Discretize the solute cavity surface with Lebedev spheres
	Using 110 Lebedev grid points for each H atom
	Using 194 Lebedev grid points for other atoms
	Atomic van der Waals radii will be scaled by 1.20
 Remove points where switching function is < 1.0e-08
 Keep 1057 surface tesserae and discard 1181 interior tesserae
 Molecular Surface Area = 157.984 Angst**2

                       Distance Matrix (Angstroms)
             C (  1)   C (  2)   C (  3)   H (  4)   C (  5)   S (  6)
   C (  2)  1.397171
   C (  3)  2.381426  1.421395
   H (  4)  2.190988  1.100586  2.216650
   C (  5)  2.546906  2.344761  1.406274  3.381550
   S (  6)  1.757110  2.580779  2.612036  3.644046  1.761139
   C (  7)  3.799340  2.573365  1.503634  2.855627  2.578670  4.078017
   H (  8)  4.064018  2.684432  2.164116  2.510996  3.478172  4.748418
   H (  9)  4.440492  3.310892  2.175370  3.627223  2.930845  4.518986
   H ( 10)  4.440418  3.310908  2.175430  3.627165  2.930832  4.519141
   C ( 11)  1.450100  2.534400  3.747329  2.860658  3.943827  2.812839
   H ( 12)  1.808513  3.113167  4.056635  3.689895  3.887311  2.434123
   H ( 13)  2.195715  2.986739  4.188095  3.129308  4.481628  3.484097
   H ( 14)  2.293947  3.417059  4.640485  3.654044  4.763040  3.451823
   H ( 15)  3.612396  3.410267  2.265496  4.405604  1.096538  2.498349
             C (  7)   H (  8)   H (  9)   H ( 10)   C ( 11)   H ( 12)
   H (  8)  1.107279
   H (  9)  1.110066  1.787846
   H ( 10)  1.110114  1.787916  1.784885
   C ( 11)  5.078527  5.159130  5.794417  5.679044
   H ( 12)  5.491858  5.755457  6.189339  5.975706  1.080036
   H ( 13)  5.406391  5.398379  6.261701  5.861284  1.080037  1.527396
   H ( 14)  5.977327  6.029550  6.600498  6.657191  1.079994  1.527342
   H ( 15)  2.982860  4.035396  3.082448  3.082487  4.980222  4.805954
             H ( 13)   H ( 14)
   H ( 14)  1.777832
   H ( 15)  5.498734  5.769570
 
 Requested basis set is rimp2-cc-pVTZ
 There are 250 shells and 848 basis functions
 A cutoff of  1.0D-10 yielded   6176 shell pairs
 There are     45178 function pairs (     58082 Cartesian)
 Smallest overlap matrix eigenvalue = 1.08E-04

 Scale SEOQF with 1.000000e-01/1.000000e-01/1.000000e-01

 Standard Electronic Orientation quadrupole field applied
 Nucleus-field energy     =     0.0000000019 hartrees
 Guess from superposition of atomic densities
 Warning:  Energy on first SCF cycle will be non-variational
 SAD guess density has 60.000000 electrons

 -----------------------------------------------------------------------
  General SCF calculation program by
  Eric Jon Sundstrom, Paul Horn, Yuezhi Mao, Dmitri Zuev, Alec White,
  David Stuck, Shaama M.S., Shane Yost, Joonho Lee, David Small,
  Daniel Levine, Susi Lehtola, Hugh Burton, Evgeny Epifanovsky,
  Bang C. Huynh
 -----------------------------------------------------------------------
 Hartree-Fock
 using 64 threads for integral computing
 -------------------------------------------------------
 OpenMP Integral computing Module                
 Release: version 1.0, May 2013, Q-Chem Inc. Pittsburgh 
 -------------------------------------------------------
 A restricted SCF calculation will be
 performed using DIIS
 SCF converges when DIIS error is below 1.0e-06
 ---------------------------------------
  Cycle       Energy         DIIS error
 ---------------------------------------
    1    -632.0975649632      2.91e-02  
    2    -629.3380395116      1.94e-03  
    3    -629.4085325454      6.83e-04  
    4    -629.4160977811      3.43e-04  
    5    -629.4181964510      6.39e-05  
    6    -629.4183316312      2.62e-05  
    7    -629.4183659702      1.17e-05  
    8    -629.4183755735      4.97e-06  
    9    -629.4183770272      1.77e-06  
   10    -629.4183772090      5.52e-07  Convergence criterion met
 ---------------------------------------
 SCF time:   CPU 666.69s  wall 14.00s 

************** Final PCM Free Energy Summary **************
 G_electrostatic  =      -0.00507255 hartree =      -3.18307606 kcal/mol
 G_cavitation     =       0.00000000 hartree =       0.00000000 kcal/mol
 G_dispersion     =       0.00000000 hartree =       0.00000000 kcal/mol
 G_repulsion      =       0.00000000 hartree =       0.00000000 kcal/mol
 --------------------------------------------------
 Non-electrostatic Free Energy =       0.00000000 hartree =       0.00000000 kcal/mol
 Total                         =      -0.00507255 hartree =      -3.18307606 kcal/mol
 --------------------------------------------------
 SCF Energy (H0 + V/2)                       =    -629.41837721 
 Solute Internal Energy (H0)                 =    -629.41330465 
 Total Free Energy (H0 + V/2 + non-elec)     =    -629.41837721 hartree
                                             = -394965.99292007 kcal/mol
***********************************************************

 SCF   energy in the final basis set =     -629.4183772090
 Total energy in the final basis set =     -629.4183772090


 --------------------------------------------------------------
  Generalized many-body perturbation theory program
  by Joonho Lee, Fazle Rob, Xintian Feng, Evgeny Epifanovsky

 No regularization used 
 (reg. param. = 0.0000e+00)
  (P|Q)^-1/2 Time:  CPU 7.09 s  wall 0.12 s

 In RI-MP2 calculation: 
 # of frozen core orbitals: 11

 Components of the RIMP2 correlation energy:
        aaaa    correlation energy =        -0.1455575334 a.u.
        abab    correlation energy =        -0.8869393851 a.u.
        bbbb    correlation energy =        -0.1455575334 a.u.
        non-Brillouin singles      =        -0.0000000000 a.u.
        total same-spin energy     =        -0.2911150668 a.u.
        total opposite-spin energy =        -0.8869393851 a.u.

 Total  RIMP2   correlation energy =        -1.1780544518 a.u.
        RIMP2         total energy =      -630.5964316608 a.u.

 RI-MP2 Energy Time:  CPU 35.37 s  wall 0.63 s
 
 --------------------------------------------------------------
 
                    Orbital Energies (a.u.)
 --------------------------------------------------------------
 
 Alpha MOs
 -- Occupied --
-91.9795 -11.2751 -11.2585 -11.2472 -11.2297 -11.2271 -11.2167  -8.9795
 -6.6604  -6.6599  -6.6593  -1.1613  -1.0537  -0.9950  -0.9451  -0.8825
 -0.7478  -0.7186  -0.6466  -0.5908  -0.5760  -0.5657  -0.5527  -0.5465
 -0.5089  -0.4868  -0.4645  -0.4458  -0.3380  -0.3027
 -- Virtual --
  0.1009   0.1438   0.1511   0.1740   0.1886   0.1900   0.1973   0.2312
  0.2411   0.2425   0.2463   0.2725   0.2894   0.3191   0.3463   0.3487
  0.3762   0.4002   0.4055   0.4138   0.4445   0.4668   0.4730   0.4780
  0.4867   0.5062   0.5160   0.5275   0.5374   0.5651   0.5722   0.5908
  0.5972   0.6053   0.6126   0.6177   0.6334   0.6382   0.6431   0.6495
  0.6584   0.6606   0.6833   0.7065   0.7340   0.7462   0.7711   0.7755
  0.7978   0.8218   0.8413   0.8586   0.8612   0.8980   0.9126   0.9174
  0.9553   0.9795   0.9856   1.0070   1.0220   1.0477   1.0625   1.0735
  1.0875   1.0905   1.1204   1.1325   1.1587   1.1716   1.1897   1.2106
  1.2164   1.2410   1.2490   1.2639   1.2738   1.2969   1.3055   1.3225
  1.3492   1.3748   1.4065   1.4174   1.4303   1.4346   1.4463   1.4729
  1.4915   1.5023   1.5220   1.5336   1.5497   1.5564   1.5697   1.5904
  1.6141   1.6224   1.6363   1.6700   1.6851   1.6963   1.7143   1.7456
  1.7591   1.7759   1.8067   1.8267   1.8829   1.9124   1.9312   1.9679
  1.9869   2.0406   2.1046   2.1286   2.1838   2.1948   2.2157   2.2266
  2.2585   2.2905   2.3665   2.4214   2.4534   2.5095   2.5217   2.5544
  2.5746   2.5911   2.6339   2.6525   2.6700   2.6797   2.7182   2.7277
  2.7463   2.7556   2.7691   2.7827   2.8154   2.8467   2.8627   2.8951
  2.9123   2.9145   2.9269   2.9725   3.0104   3.0275   3.0503   3.0687
  3.1083   3.1166   3.1185   3.1346   3.1526   3.1691   3.1713   3.1923
  3.2264   3.2527   3.2611   3.2681   3.2925   3.3102   3.3186   3.3201
  3.3366   3.3651   3.3706   3.3907   3.3933   3.4162   3.4237   3.4375
  3.4461   3.4666   3.4715   3.4913   3.5207   3.5296   3.5403   3.5659
  3.5833   3.6034   3.6118   3.6222   3.6321   3.6429   3.6625   3.6708
  3.6999   3.7178   3.7448   3.7536   3.7557   3.7754   3.7873   3.7942
  3.8134   3.8169   3.8715   3.8753   3.9067   3.9158   3.9290   3.9488
  3.9534   3.9686   4.0073   4.0236   4.0328   4.0481   4.0992   4.1053
  4.1358   4.1472   4.1610   4.1734   4.1955   4.2157   4.2254   4.2474
  4.2716   4.2872   4.3133   4.3398   4.3421   4.3594   4.3884   4.4001
  4.4036   4.4263   4.4377   4.4585   4.4754   4.4830   4.5283   4.5775
  4.5967   4.6242   4.6404   4.6493   4.7111   4.7403   4.7427   4.7786
  4.7945   4.8043   4.8453   4.8985   4.9328   4.9839   5.0838   5.1001
  5.1083   5.1257   5.1723   5.1924   5.2445   5.2765   5.2811   5.3114
  5.3645   5.4064   5.4093   5.4413   5.4670   5.4879   5.5510   5.5640
  5.5851   5.6203   5.6245   5.6946   5.7092   5.8154   5.8375   5.8751
  5.9025   5.9587   6.0286   6.1310   6.2268   6.2455   6.2983   6.3576
  6.4139   6.4996   9.1820  11.3717  12.9034  13.8074  14.1733  14.4162
 --------------------------------------------------------------
 
          Ground-State Mulliken Net Atomic Charges

     Atom                 Charge (a.u.)
  ----------------------------------------
      1 C                     0.045010
      2 C                    -0.270772
      3 C                     0.045909
      4 H                     0.178914
      5 C                    -0.258591
      6 S                    -0.002887
      7 C                    -0.272263
      8 H                     0.101925
      9 H                     0.107157
     10 H                     0.106772
     11 C                    -0.369774
     12 H                     0.116879
     13 H                     0.133537
     14 H                     0.142615
     15 H                     0.195570
  ----------------------------------------
  Sum of atomic charges =     0.000000

 -----------------------------------------------------------------
                    Cartesian Multipole Moments
 -----------------------------------------------------------------
    Charge (ESU x 10^10)
                -0.0000
    Dipole Moment (Debye)
         X       0.6337      Y      -0.0314      Z       0.9099
       Tot       1.1093
    Quadrupole Moments (Debye-Ang)
        XX     -53.3234     XY       1.7714     YY     -42.7806
        XZ       0.3654     YZ       1.5688     ZZ     -48.7717
    Octopole Moments (Debye-Ang^2)
       XXX     -28.1451    XXY     -29.8079    XYY      -3.6524
       YYY     -76.0243    XXZ      -2.5987    XYZ      -1.8042
       YYZ      -8.0252    XZZ      -7.9197    YZZ     -22.7452
       ZZZ       0.3326
    Hexadecapole Moments (Debye-Ang^3)
      XXXX    -115.3091   XXXY     -77.5276   XXYY    -152.8290
      XYYY     -64.9600   YYYY    -774.9160   XXXZ     -23.8760
      XXYZ     -31.7337   XYYZ      -8.3763   YYYZ     -99.2450
      XXZZ    -107.5550   XYZZ     -21.0309   YYZZ    -211.9419
      XZZZ     -27.5488   YZZZ    -102.9064   ZZZZ    -489.4701
 -----------------------------------------------------------------
 Total job time:  31.57s(wall), 732.04s(cpu) 
 Fri Dec 15 14:04:57 2023

        *************************************************************
        *                                                           *
        *  Thank you very much for using Q-Chem.  Have a nice day.  *
        *                                                           *
        *************************************************************


0 sent ACK to 0 
now end server 0 ... 
cleanup process ... done
remove work dirs ./qchem24659.0 -- ./qchem24659.0
rm -rf ./qchem24659.0
rm -rf ./qchem24659
