You are running Q-Chem version: 5.4.0

#
# job setting
#
local host:  exp-8-30
current dir: /home/rramji/project-csd799/aromodel/p3ht-qchem/methylated-rotation-run
input file:  Methylthiophene_Phi_5_Theta_340_Methylthiophene_Hydrogenated_Improper.qcin
output file: 
nprocs     : 1
nthreads   : 64
#
# qchem installation setting
#
QC:          /cm/shared/apps/spack/cpu/opt/spack/linux-centos8-zen2/gcc-10.2.0/qchem-5.4-akfmr7b3t57bfs6qan3padb2wnb2i7cl
QCAUX:       /cm/shared/apps/spack/cpu/opt/spack/linux-centos8-zen2/gcc-10.2.0/qchem-5.4-akfmr7b3t57bfs6qan3padb2wnb2i7cl/qcaux
QCPROG:      /cm/shared/apps/spack/cpu/opt/spack/linux-centos8-zen2/gcc-10.2.0/qchem-5.4-akfmr7b3t57bfs6qan3padb2wnb2i7cl/exe/qcprog.exe
QCPROG_S:    /cm/shared/apps/spack/cpu/opt/spack/linux-centos8-zen2/gcc-10.2.0/qchem-5.4-akfmr7b3t57bfs6qan3padb2wnb2i7cl/exe/qcprog.exe_s
PARALLEL:    -DPARALLEL
QCMPI:       mpich
#
# qchem directory setting
#
qcrun:       qchem2120407
QCSCRATCH:   .
QCLOCALSCR:  
QCTMPDIR:    .
QCFILEPREF:  ./qchem2120407
QCSAVEDIR:   
workdirs:    ./qchem2120407
workdir0:    ./qchem2120407
partmpdirs =  
#
# parallel setting
#
QCRSH:           ssh
QCMPI:           mpich
QCMPIRUN:        /cm/shared/apps/spack/cpu/opt/spack/linux-centos8-zen2/gcc-10.2.0/qchem-5.4-akfmr7b3t57bfs6qan3padb2wnb2i7cl/bin/mpi/mpirun_qchem
QCMACHINEFILE:   ./qchem2120407/hostfile
exp-8-30

#
# env setting
#
exported envs:   QC QCAUX QCSCRATCH QCRUNNAME QCFILEPREF QCPROG QCPROG_S GUIFILE

Running Job 1 of 1 Methylthiophene_Phi_5_Theta_340_Methylthiophene_Hydrogenated_Improper.qcin
qchem Methylthiophene_Phi_5_Theta_340_Methylthiophene_Hydrogenated_Improper.qcin_2120407.0 ./qchem2120407/ 1
/cm/shared/apps/spack/cpu/opt/spack/linux-centos8-zen2/gcc-10.2.0/qchem-5.4-akfmr7b3t57bfs6qan3padb2wnb2i7cl/bin/mpi/mpirun_qchem -machinefile ./qchem2120407/hostfile -np 1 /cm/shared/apps/spack/cpu/opt/spack/linux-centos8-zen2/gcc-10.2.0/qchem-5.4-akfmr7b3t57bfs6qan3padb2wnb2i7cl/exe/qcprog.exe Methylthiophene_Phi_5_Theta_340_Methylthiophene_Hydrogenated_Improper.qcin_2120407.0 ./qchem2120407/

Process 0 of 1 is on exp-8-30 - thread support 0
initial socket setup ...start
initial socket setup ...done 
now start server 0 ... 
                  Welcome to Q-Chem
     A Quantum Leap Into The Future Of Chemistry


 Q-Chem 5.4, Q-Chem, Inc., Pleasanton, CA (2021)

 License issued to: University of California, San Diego (site)

 E. Epifanovsky,  A. T. B. Gilbert,  Xintian Feng,  Joonho Lee,  Yuezhi Mao,  
 N. Mardirossian,  P. Pokhilko,  A. White,  M. Wormit,  M. P. Coons,  
 A. L. Dempwolff,  Zhengting Gan,  D. Hait,  P. R. Horn,  L. D. Jacobson,  
 I. Kaliman,  J. Kussmann,  A. W. Lange,  Ka Un Lao,  D. S. Levine,  Jie Liu,  
 S. C. McKenzie,  A. F. Morrison,  K. Nanda,  F. Plasser,  D. R. Rehn,  
 M. L. Vidal,  Zhi-Qiang You,  Ying Zhu,  B. Alam,  B. Albrecht,  
 A. Aldossary,  E. Alguire,  J. H. Andersen,  D. Barton,  K. Begam,  A. Behn,  
 Y. A. Bernard,  E. J. Berquist,  H. Burton,  A. Carreras,  K. Carter-Fenk,  
 R. Chakraborty,  A. D. Chien,  K. D. Closser,  V. Cofer-Shabica,  
 S. Dasgupta,  Jia Deng,  M. de Wergifosse,  M. Diedenhofen,  Hainam Do,  
 S. Ehlert,  Po-Tung Fang,  S. Fatehi,  Qingguo Feng,  J. Gayvert,  
 Qinghui Ge,  G. Gidofalvi,  M. Goldey,  J. Gomes,  C. Gonzalez-Espinoza,  
 S. Gulania,  A. Gunina,  M. W. D. Hanson-Heine,  P. H. P. Harbach,  
 A. W. Hauser,  M. F. Herbst,  M. Hernandez Vera,  M. Hodecker,  
 Z. C. Holden,  S. Houck,  Xunkun Huang,  Kerwin Hui,  B. C. Huynh,  
 M. Ivanov,  Hyunjun Ji,  Hanjie Jiang,  B. Kaduk,  S. Kaehler,  
 K. Khistyaev,  Jaehoon Kim,  P. Klunzinger,  Z. Koczor-Benda,  
 Joong Hoon Koh,  D. Kosenkov,  L. Koulias,  T. Kowalczyk,  C. M. Krauter,  
 K. Kue,  A. Kunitsa,  T. Kus,  A. Landau,  K. V. Lawler,  D. Lefrancois,  
 S. Lehtola,  Rain Li,  Yi-Pei Li,  Jiashu Liang,  M. Liebenthal,  
 Hung-Hsuan Lin,  You-Sheng Lin,  Fenglai Liu,  Kuan-Yu Liu,  
 M. Loipersberger,  A. Luenser,  A. Manjanath,  P. Manohar,  E. Mansoor,  
 S. F. Manzer,  Shan-Ping Mao,  A. V. Marenich,  T. Markovich,  S. Mason,  
 S. A. Maurer,  P. F. McLaughlin,  M. F. S. J. Menger,  J.-M. Mewes,  
 S. A. Mewes,  P. Morgante,  J. W. Mullinax,  T. S. Nguyen-Beck,  
 K. J. Oosterbaan,  G. Paran,  Alexander C. Paul,  Suranjan K. Paul,  
 F. Pavosevic,  Zheng Pei,  S. Prager,  E. I. Proynov,  E. Ramos,  B. Rana,  
 A. E. Rask,  A. Rettig,  R. M. Richard,  F. Rob,  E. Rossomme,  T. Scheele,  
 M. Scheurer,  M. Schneider,  N. Sergueev,  S. M. Sharada,  W. Skomorowski,  
 D. W. Small,  C. J. Stein,  Yu-Chuan Su,  E. J. Sundstrom,  Zhen Tao,  
 J. Thirman,  T. Tsuchimochi,  N. M. Tubman,  S. P. Veccham,  O. Vydrov,  
 J. Wenzel,  J. Witte,  A. Yamada,  Kun Yao,  S. Yeganeh,  S. R. Yost,  
 A. Zech,  Igor Ying Zhang,  Xing Zhang,  Yu Zhang,  D. Zuev,  
 A. Aspuru-Guzik,  A. T. Bell,  N. A. Besley,  K. B. Bravaya,  B. R. Brooks,  
 D. Casanova,  Jeng-Da Chai,  S. Coriani,  C. J. Cramer,  
 A. E. DePrince, III,  R. A. DiStasio Jr.,  A. Dreuw,  B. D. Dunietz,  
 T. R. Furlani,  W. A. Goddard III,  S. Grimme,  S. Hammes-Schiffer,  
 T. Head-Gordon,  W. J. Hehre,  Chao-Ping Hsu,  T.-C. Jagau,  Yousung Jung,  
 A. Klamt,  Jing Kong,  D. S. Lambrecht,  WanZhen Liang,  N. J. Mayhall,  
 C. W. McCurdy,  J. B. Neaton,  C. Ochsenfeld,  J. A. Parkhill,  R. Peverati,  
 V. A. Rassolov,  Yihan Shao,  L. V. Slipchenko,  T. Stauch,  R. P. Steele,  
 J. E. Subotnik,  A. J. W. Thom,  A. Tkatchenko,  D. G. Truhlar,  
 T. Van Voorhis,  T. A. Wesolowski,  K. B. Whaley,  H. L. Woodcock III,  
 P. M. Zimmerman,  S. Faraji,  P. M. W. Gill,  M. Head-Gordon,  
 J. M. Herbert,  A. I. Krylov

 Contributors to earlier versions of Q-Chem not listed above: 
 R. D. Adamson,  B. Austin,  R. Baer,  J. Baker,  G. J. O. Beran,  
 K. Brandhorst,  S. T. Brown,  E. F. C. Byrd,  A. K. Chakraborty,  
 G. K. L. Chan,  Chun-Min Chang,  Yunqing Chen,  C.-L. Cheng,  
 Siu Hung Chien,  D. M. Chipman,  D. L. Crittenden,  H. Dachsel,  
 R. J. Doerksen,  A. D. Dutoi,  R. G. Edgar,  J. Fosso-Tande,  
 L. Fusti-Molnar,  D. Ghosh,  A. Ghysels,  A. Golubeva-Zadorozhnaya,  
 J. Gonthier,  M. S. Gordon,  S. R. Gwaltney,  G. Hawkins,  J. E. Herr,  
 A. Heyden,  S. Hirata,  E. G. Hohenstein,  G. Kedziora,  F. J. Keil,  
 C. Kelley,  Jihan Kim,  R. A. King,  R. Z. Khaliullin,  P. P. Korambath,  
 W. Kurlancheek,  A. Laurent,  A. M. Lee,  M. S. Lee,  S. V. Levchenko,  
 Ching Yeh Lin,  D. Liotard,  E. Livshits,  R. C. Lochan,  I. Lotan,  
 L. A. Martinez-Martinez,  P. E. Maslen,  N. Nair,  D. P. O'Neill,  
 D. Neuhauser,  E. Neuscamman,  C. M. Oana,  R. Olivares-Amaya,  R. Olson,  
 T. M. Perrine,  B. Peters,  P. A. Pieniazek,  A. Prociuk,  Y. M. Rhee,  
 J. Ritchie,  M. A. Rohrdanz,  E. Rosta,  N. J. Russ,  H. F. Schaefer III,  
 M. W. Schmidt,  N. E. Schultz,  S. Sharma,  N. Shenvi,  C. D. Sherrill,  
 A. C. Simmonett,  A. Sodt,  T. Stein,  D. Stuck,  K. S. Thanthiriwatte,  
 V. Vanovschi,  L. Vogt,  Tao Wang,  A. Warshel,  M. A. Watson,  
 C. F. Williams,  Q. Wu,  X. Xu,  Jun Yang,  W. Zhang,  Yan Zhao

 Please cite Q-Chem as follows:
 Y. Shao et al., Mol. Phys. 113, 184-215 (2015)
 DOI: 10.1080/00268976.2014.952696

 Q-Chem 5.4.0 for Intel X86 EM64T Linux

 Parts of Q-Chem use Armadillo 9.800.1 (Horizon Scraper).
 http://arma.sourceforge.net/

 Q-Chem begins on Fri Dec 15 14:05:56 2023  

 Host: 
0

     Scratch files written to ./qchem2120407//
 May1621 |scratch|qcdevops|jenkins|workspace|build_RNUM    
 Parallel job on  1  processors
 Processing $rem in /cm/shared/apps/spack/cpu/opt/spack/linux-centos8-zen2/gcc-10.2.0/qchem-5.4-akfmr7b3t57bfs6qan3padb2wnb2i7cl/config/preferences:
 Processing $rem in /home/rramji/.qchemrc:
 Symmetry turned off for PCM/SM12/SMD calculation
 Core orbitals will be frozen

 Checking the input file for inconsistencies... 	...done.

 Q-Chem warning in module forms1/BasisType.C, line 2236:

 You are not using the predefined 5D/6D in this basis set.


--------------------------------------------------------------
User input:
--------------------------------------------------------------
$molecule
0 1
C	-0.061512	-0.574004	0.002446
C	0.008988	0.267696	1.115446
C	0.125588	1.653696	0.823046
H	-0.023412	-0.119104	2.145346
C	0.146588	1.900996	-0.561154
S	0.019388	0.393196	-1.462254
C	0.214788	2.714596	1.884846
H	0.177188	2.268196	2.897446
H	-0.619512	3.443096	1.810546
H	1.159088	3.293496	1.810646
C	-0.061512	-2.024104	0.002446
H	0.953388	-2.024604	-0.366954
H	0.259188	-2.559204	0.884046
H	-0.346812	-2.711304	-0.780354
H	0.226788	2.855696	-1.094654
$end

$rem
JOBTYPE		SP
EXCHANGE	HF
CORRELATION	pRIMP2
BASIS		cc-pvtz
METHOD		rimp2
AUX_BASIS	rimp2-cc-pvtz
SOLVENT_METHOD	PCM
PURECART	11111
SYMMETRY	false
MEM_TOTAL	110000
SCF_CONVERGENCE = 6
THRESH=10
GUI = 2
$end



$solvent
dielectric 4.90
$end
--------------------------------------------------------------
 ----------------------------------------------------------------
             Standard Nuclear Orientation (Angstroms)
    I     Atom           X                Y                Z
 ----------------------------------------------------------------
    1      C      -0.0615120000    -0.5740040000     0.0024460000
    2      C       0.0089880000     0.2676960000     1.1154460000
    3      C       0.1255880000     1.6536960000     0.8230460000
    4      H      -0.0234120000    -0.1191040000     2.1453460000
    5      C       0.1465880000     1.9009960000    -0.5611540000
    6      S       0.0193880000     0.3931960000    -1.4622540000
    7      C       0.2147880000     2.7145960000     1.8848460000
    8      H       0.1771880000     2.2681960000     2.8974460000
    9      H      -0.6195120000     3.4430960000     1.8105460000
   10      H       1.1590880000     3.2934960000     1.8106460000
   11      C      -0.0615120000    -2.0241040000     0.0024460000
   12      H       0.9533880000    -2.0246040000    -0.3669540000
   13      H       0.2591880000    -2.5592040000     0.8840460000
   14      H      -0.3468120000    -2.7113040000    -0.7803540000
   15      H       0.2267880000     2.8556960000    -1.0946540000
 ----------------------------------------------------------------
 Nuclear Repulsion Energy =         344.28061286 hartrees
 There are       30 alpha and       30 beta electrons
 Requested basis set is cc-pVTZ
 There are 120 shells and 326 basis functions

 Total QAlloc Memory Limit 110000 MB
 Mega-Array Size       188 MB
 MEM_STATIC part       192 MB
 Discretize the solute cavity surface with Lebedev spheres
	Using 110 Lebedev grid points for each H atom
	Using 194 Lebedev grid points for other atoms
	Atomic van der Waals radii will be scaled by 1.20
 Remove points where switching function is < 1.0e-08
 Keep 1067 surface tesserae and discard 1171 interior tesserae
 Molecular Surface Area = 159.501 Angst**2

                       Distance Matrix (Angstroms)
             C (  1)   C (  2)   C (  3)   H (  4)   C (  5)   S (  6)
   C (  2)  1.397211
   C (  3)  2.381394  1.421298
   H (  4)  2.190983  1.100617  2.216641
   C (  5)  2.546876  2.344694  1.406274  3.381545
   S (  6)  1.757090  2.580774  2.612037  3.644045  1.761142
   C (  7)  3.799297  2.573257  1.503624  2.855601  2.578665  4.078009
   H (  8)  4.064001  2.684365  2.164118  2.510995  3.478173  4.748422
   H (  9)  4.440460  3.310792  2.175381  3.627216  2.930860  4.518994
   H ( 10)  4.440384  3.310815  2.175413  3.627143  2.930810  4.519129
   C ( 11)  1.450100  2.548742  3.772877  2.867490  3.970814  2.827584
   H ( 12)  1.808513  2.888605  3.953637  3.301018  4.012353  2.813858
   H ( 13)  2.195697  2.847369  4.215459  2.761309  4.689847  3.778795
   H ( 14)  2.293954  3.548957  4.674107  3.922220  4.643792  3.199533
   H ( 15)  3.612421  3.410238  2.265528  4.405637  1.096589  2.498410
             C (  7)   H (  8)   H (  9)   H ( 10)   C ( 11)   H ( 12)
   H (  8)  1.107269
   H (  9)  1.110085  1.787868
   H ( 10)  1.110105  1.787876  1.784880
   C ( 11)  5.106373  5.182841  5.785401  5.747723
   H ( 12)  5.298693  5.448571  6.091902  5.750343  1.080036
   H ( 13)  5.368104  5.231089  6.136621  5.993539  1.080000  1.527322
   H ( 14)  6.071168  6.212585  6.683096  6.711083  1.080007  1.527408
   H ( 15)  2.982863  4.035403  3.082442  3.082470  5.009910  4.987467
             H ( 13)   H ( 14)
   H ( 14)  1.777807
   H ( 15)  5.765193  5.605291
 
 Requested basis set is rimp2-cc-pVTZ
 There are 250 shells and 848 basis functions
 A cutoff of  1.0D-10 yielded   6161 shell pairs
 There are     45145 function pairs (     58059 Cartesian)
 Smallest overlap matrix eigenvalue = 8.41E-05

 Scale SEOQF with 1.000000e+00/1.000000e-01/1.000000e-01

 Standard Electronic Orientation quadrupole field applied
 Nucleus-field energy     =     0.0000000033 hartrees
 Guess from superposition of atomic densities
 Warning:  Energy on first SCF cycle will be non-variational
 SAD guess density has 60.000000 electrons

 -----------------------------------------------------------------------
  General SCF calculation program by
  Eric Jon Sundstrom, Paul Horn, Yuezhi Mao, Dmitri Zuev, Alec White,
  David Stuck, Shaama M.S., Shane Yost, Joonho Lee, David Small,
  Daniel Levine, Susi Lehtola, Hugh Burton, Evgeny Epifanovsky,
  Bang C. Huynh
 -----------------------------------------------------------------------
 Hartree-Fock
 using 64 threads for integral computing
 -------------------------------------------------------
 OpenMP Integral computing Module                
 Release: version 1.0, May 2013, Q-Chem Inc. Pittsburgh 
 -------------------------------------------------------
 A restricted SCF calculation will be
 performed using DIIS
 SCF converges when DIIS error is below 1.0e-06
 ---------------------------------------
  Cycle       Energy         DIIS error
 ---------------------------------------
    1    -632.0811969677      2.91e-02  
    2    -629.3453197382      1.95e-03  
    3    -629.4158783828      7.13e-04  
    4    -629.4237225882      3.64e-04  
    5    -629.4260446385      6.22e-05  
    6    -629.4261787728      2.60e-05  
    7    -629.4262116158      1.13e-05  
    8    -629.4262207034      5.08e-06  
    9    -629.4262221284      1.67e-06  
   10    -629.4262223032      6.73e-07  Convergence criterion met
 ---------------------------------------
 SCF time:   CPU 675.07s  wall 14.00s 

************** Final PCM Free Energy Summary **************
 G_electrostatic  =      -0.00576539 hartree =      -3.61783383 kcal/mol
 G_cavitation     =       0.00000000 hartree =       0.00000000 kcal/mol
 G_dispersion     =       0.00000000 hartree =       0.00000000 kcal/mol
 G_repulsion      =       0.00000000 hartree =       0.00000000 kcal/mol
 --------------------------------------------------
 Non-electrostatic Free Energy =       0.00000000 hartree =       0.00000000 kcal/mol
 Total                         =      -0.00576539 hartree =      -3.61783383 kcal/mol
 --------------------------------------------------
 SCF Energy (H0 + V/2)                       =    -629.42622230 
 Solute Internal Energy (H0)                 =    -629.42045692 
 Total Free Energy (H0 + V/2 + non-elec)     =    -629.42622230 hartree
                                             = -394970.91579102 kcal/mol
***********************************************************

 SCF   energy in the final basis set =     -629.4262223032
 Total energy in the final basis set =     -629.4262223032


 --------------------------------------------------------------
  Generalized many-body perturbation theory program
  by Joonho Lee, Fazle Rob, Xintian Feng, Evgeny Epifanovsky

 No regularization used 
 (reg. param. = 0.0000e+00)
  (P|Q)^-1/2 Time:  CPU 6.86 s  wall 0.11 s

 In RI-MP2 calculation: 
 # of frozen core orbitals: 11

 Components of the RIMP2 correlation energy:
        aaaa    correlation energy =        -0.1449769671 a.u.
        abab    correlation energy =        -0.8849296121 a.u.
        bbbb    correlation energy =        -0.1449769671 a.u.
        non-Brillouin singles      =        -0.0000000000 a.u.
        total same-spin energy     =        -0.2899539342 a.u.
        total opposite-spin energy =        -0.8849296121 a.u.

 Total  RIMP2   correlation energy =        -1.1748835463 a.u.
        RIMP2         total energy =      -630.6011058495 a.u.

 RI-MP2 Energy Time:  CPU 36.05 s  wall 0.63 s
 
 --------------------------------------------------------------
 
                    Orbital Energies (a.u.)
 --------------------------------------------------------------
 
 Alpha MOs
 -- Occupied --
-91.9781 -11.2851 -11.2507 -11.2470 -11.2266 -11.2240 -11.2228  -8.9780
 -6.6590  -6.6585  -6.6578  -1.1603  -1.0547  -0.9967  -0.9425  -0.8834
 -0.7448  -0.7181  -0.6469  -0.5896  -0.5761  -0.5680  -0.5505  -0.5465
 -0.5071  -0.4947  -0.4663  -0.4552  -0.3388  -0.2912
 -- Virtual --
  0.1120   0.1446   0.1484   0.1756   0.1884   0.2002   0.2100   0.2170
  0.2216   0.2420   0.2476   0.2572   0.2956   0.3296   0.3421   0.3521
  0.3869   0.3924   0.4034   0.4199   0.4318   0.4614   0.4710   0.4883
  0.4992   0.5085   0.5218   0.5307   0.5475   0.5583   0.5705   0.5943
  0.5974   0.6064   0.6154   0.6213   0.6331   0.6359   0.6463   0.6491
  0.6551   0.6729   0.6849   0.7061   0.7209   0.7509   0.7845   0.7939
  0.8141   0.8344   0.8386   0.8547   0.8795   0.8898   0.9048   0.9423
  0.9448   0.9609   0.9860   1.0264   1.0423   1.0499   1.0568   1.0717
  1.0793   1.0949   1.1031   1.1137   1.1611   1.1726   1.1815   1.2064
  1.2325   1.2448   1.2556   1.2694   1.2805   1.2903   1.2995   1.3352
  1.3664   1.3879   1.3938   1.4149   1.4311   1.4377   1.4448   1.4833
  1.5008   1.5042   1.5332   1.5396   1.5452   1.5575   1.5679   1.5852
  1.6033   1.6268   1.6420   1.6794   1.6882   1.7011   1.7256   1.7449
  1.7689   1.7919   1.8009   1.8364   1.8963   1.9127   1.9317   1.9609
  2.0145   2.0500   2.0875   2.1363   2.1828   2.1991   2.2281   2.2622
  2.2805   2.2992   2.3669   2.4239   2.4549   2.4659   2.4917   2.5392
  2.5628   2.5929   2.6492   2.6567   2.6764   2.7002   2.7194   2.7240
  2.7394   2.7494   2.7827   2.7947   2.8228   2.8491   2.8566   2.8625
  2.9101   2.9338   2.9624   2.9680   2.9983   3.0294   3.0489   3.0631
  3.0857   3.1121   3.1158   3.1265   3.1572   3.1607   3.1791   3.1931
  3.2250   3.2420   3.2555   3.2764   3.2952   3.3030   3.3065   3.3291
  3.3390   3.3528   3.3774   3.3910   3.3994   3.4254   3.4321   3.4361
  3.4490   3.4623   3.4892   3.4927   3.5103   3.5230   3.5354   3.5500
  3.5782   3.5948   3.6103   3.6225   3.6287   3.6487   3.6499   3.6772
  3.6804   3.6964   3.7213   3.7400   3.7525   3.7735   3.7934   3.7962
  3.8157   3.8413   3.8560   3.8819   3.9005   3.9177   3.9520   3.9616
  3.9830   3.9945   4.0087   4.0230   4.0420   4.0487   4.0970   4.1094
  4.1199   4.1406   4.1696   4.2112   4.2200   4.2339   4.2463   4.2655
  4.2917   4.3010   4.3181   4.3301   4.3500   4.3656   4.3813   4.4021
  4.4199   4.4286   4.4330   4.4627   4.4718   4.5291   4.5366   4.5616
  4.5927   4.6179   4.6343   4.6718   4.7012   4.7318   4.7605   4.7781
  4.8044   4.8224   4.8690   4.8974   4.9113   4.9440   5.0873   5.0957
  5.1143   5.1242   5.1590   5.2032   5.2154   5.2650   5.2885   5.3343
  5.3727   5.4027   5.4193   5.4362   5.4632   5.5029   5.5521   5.5672
  5.5981   5.6020   5.6189   5.6559   5.6993   5.8057   5.8214   5.8719
  5.9218   5.9744   6.1211   6.2027   6.2272   6.2519   6.3128   6.4110
  6.4408   6.5711   9.2269  11.3493  12.9467  13.7793  14.1752  14.5508
 --------------------------------------------------------------
 
          Ground-State Mulliken Net Atomic Charges

     Atom                 Charge (a.u.)
  ----------------------------------------
      1 C                     0.056822
      2 C                    -0.302025
      3 C                     0.048586
      4 H                     0.178809
      5 C                    -0.274267
      6 S                    -0.005361
      7 C                    -0.273501
      8 H                     0.101468
      9 H                     0.107345
     10 H                     0.107392
     11 C                    -0.376241
     12 H                     0.137979
     13 H                     0.142679
     14 H                     0.156588
     15 H                     0.193726
  ----------------------------------------
  Sum of atomic charges =     0.000000

 -----------------------------------------------------------------
                    Cartesian Multipole Moments
 -----------------------------------------------------------------
    Charge (ESU x 10^10)
                -0.0000
    Dipole Moment (Debye)
         X       0.7776      Y      -0.6557      Z       1.1955
       Tot       1.5697
    Quadrupole Moments (Debye-Ang)
        XX     -54.3709     XY      -0.6650     YY     -41.7072
        XZ       0.2604     YZ       1.0203     ZZ     -48.6335
    Octopole Moments (Debye-Ang^2)
       XXX      -9.8980    XXY     -30.9521    XYY       1.1272
       YYY     -81.8044    XXZ      -2.6625    XYZ      -1.0590
       YYZ      -6.4555    XZZ      -2.7954    YZZ     -25.9675
       ZZZ      -0.6647
    Hexadecapole Moments (Debye-Ang^3)
      XXXX     -81.6035   XXXY     -23.7612   XXYY    -162.3604
      XYYY     -24.4294   YYYY    -799.6825   XXXZ      -8.1924
      XXYZ     -31.1045   XYYZ      -1.0683   YYYZ    -101.6938
      XXZZ    -103.5909   XYZZ      -6.2309   YYZZ    -210.3625
      XZZZ      -8.4700   YZZZ    -103.6938   ZZZZ    -492.1580
 -----------------------------------------------------------------
 Total job time:  15.80s(wall), 742.64s(cpu) 
 Fri Dec 15 14:06:12 2023

        *************************************************************
        *                                                           *
        *  Thank you very much for using Q-Chem.  Have a nice day.  *
        *                                                           *
        *************************************************************


0 sent ACK to 0 
now end server 0 ... 
cleanup process ... done
remove work dirs ./qchem2120407.0 -- ./qchem2120407.0
rm -rf ./qchem2120407.0
rm -rf ./qchem2120407
