You are running Q-Chem version: 5.4.0

#
# job setting
#
local host:  exp-7-23
current dir: /home/rramji/project-csd799/aromodel/p3ht-qchem/methylated-rotation-run
input file:  Methylthiophene_Phi_25_Theta_320_Methylthiophene_Hydrogenated_Improper.qcin
output file: 
nprocs     : 1
nthreads   : 64
#
# qchem installation setting
#
QC:          /cm/shared/apps/spack/cpu/opt/spack/linux-centos8-zen2/gcc-10.2.0/qchem-5.4-akfmr7b3t57bfs6qan3padb2wnb2i7cl
QCAUX:       /cm/shared/apps/spack/cpu/opt/spack/linux-centos8-zen2/gcc-10.2.0/qchem-5.4-akfmr7b3t57bfs6qan3padb2wnb2i7cl/qcaux
QCPROG:      /cm/shared/apps/spack/cpu/opt/spack/linux-centos8-zen2/gcc-10.2.0/qchem-5.4-akfmr7b3t57bfs6qan3padb2wnb2i7cl/exe/qcprog.exe
QCPROG_S:    /cm/shared/apps/spack/cpu/opt/spack/linux-centos8-zen2/gcc-10.2.0/qchem-5.4-akfmr7b3t57bfs6qan3padb2wnb2i7cl/exe/qcprog.exe_s
PARALLEL:    -DPARALLEL
QCMPI:       mpich
#
# qchem directory setting
#
qcrun:       qchem649202
QCSCRATCH:   .
QCLOCALSCR:  
QCTMPDIR:    .
QCFILEPREF:  ./qchem649202
QCSAVEDIR:   
workdirs:    ./qchem649202
workdir0:    ./qchem649202
partmpdirs =  
#
# parallel setting
#
QCRSH:           ssh
QCMPI:           mpich
QCMPIRUN:        /cm/shared/apps/spack/cpu/opt/spack/linux-centos8-zen2/gcc-10.2.0/qchem-5.4-akfmr7b3t57bfs6qan3padb2wnb2i7cl/bin/mpi/mpirun_qchem
QCMACHINEFILE:   ./qchem649202/hostfile
exp-7-23

#
# env setting
#
exported envs:   QC QCAUX QCSCRATCH QCRUNNAME QCFILEPREF QCPROG QCPROG_S GUIFILE

Running Job 1 of 1 Methylthiophene_Phi_25_Theta_320_Methylthiophene_Hydrogenated_Improper.qcin
qchem Methylthiophene_Phi_25_Theta_320_Methylthiophene_Hydrogenated_Improper.qcin_649202.0 ./qchem649202/ 1
/cm/shared/apps/spack/cpu/opt/spack/linux-centos8-zen2/gcc-10.2.0/qchem-5.4-akfmr7b3t57bfs6qan3padb2wnb2i7cl/bin/mpi/mpirun_qchem -machinefile ./qchem649202/hostfile -np 1 /cm/shared/apps/spack/cpu/opt/spack/linux-centos8-zen2/gcc-10.2.0/qchem-5.4-akfmr7b3t57bfs6qan3padb2wnb2i7cl/exe/qcprog.exe Methylthiophene_Phi_25_Theta_320_Methylthiophene_Hydrogenated_Improper.qcin_649202.0 ./qchem649202/

Process 0 of 1 is on exp-7-23 - thread support 0
initial socket setup ...start
initial socket setup ...done 
now start server 0 ... 
                  Welcome to Q-Chem
     A Quantum Leap Into The Future Of Chemistry


 Q-Chem 5.4, Q-Chem, Inc., Pleasanton, CA (2021)

 License issued to: University of California, San Diego (site)

 E. Epifanovsky,  A. T. B. Gilbert,  Xintian Feng,  Joonho Lee,  Yuezhi Mao,  
 N. Mardirossian,  P. Pokhilko,  A. White,  M. Wormit,  M. P. Coons,  
 A. L. Dempwolff,  Zhengting Gan,  D. Hait,  P. R. Horn,  L. D. Jacobson,  
 I. Kaliman,  J. Kussmann,  A. W. Lange,  Ka Un Lao,  D. S. Levine,  Jie Liu,  
 S. C. McKenzie,  A. F. Morrison,  K. Nanda,  F. Plasser,  D. R. Rehn,  
 M. L. Vidal,  Zhi-Qiang You,  Ying Zhu,  B. Alam,  B. Albrecht,  
 A. Aldossary,  E. Alguire,  J. H. Andersen,  D. Barton,  K. Begam,  A. Behn,  
 Y. A. Bernard,  E. J. Berquist,  H. Burton,  A. Carreras,  K. Carter-Fenk,  
 R. Chakraborty,  A. D. Chien,  K. D. Closser,  V. Cofer-Shabica,  
 S. Dasgupta,  Jia Deng,  M. de Wergifosse,  M. Diedenhofen,  Hainam Do,  
 S. Ehlert,  Po-Tung Fang,  S. Fatehi,  Qingguo Feng,  J. Gayvert,  
 Qinghui Ge,  G. Gidofalvi,  M. Goldey,  J. Gomes,  C. Gonzalez-Espinoza,  
 S. Gulania,  A. Gunina,  M. W. D. Hanson-Heine,  P. H. P. Harbach,  
 A. W. Hauser,  M. F. Herbst,  M. Hernandez Vera,  M. Hodecker,  
 Z. C. Holden,  S. Houck,  Xunkun Huang,  Kerwin Hui,  B. C. Huynh,  
 M. Ivanov,  Hyunjun Ji,  Hanjie Jiang,  B. Kaduk,  S. Kaehler,  
 K. Khistyaev,  Jaehoon Kim,  P. Klunzinger,  Z. Koczor-Benda,  
 Joong Hoon Koh,  D. Kosenkov,  L. Koulias,  T. Kowalczyk,  C. M. Krauter,  
 K. Kue,  A. Kunitsa,  T. Kus,  A. Landau,  K. V. Lawler,  D. Lefrancois,  
 S. Lehtola,  Rain Li,  Yi-Pei Li,  Jiashu Liang,  M. Liebenthal,  
 Hung-Hsuan Lin,  You-Sheng Lin,  Fenglai Liu,  Kuan-Yu Liu,  
 M. Loipersberger,  A. Luenser,  A. Manjanath,  P. Manohar,  E. Mansoor,  
 S. F. Manzer,  Shan-Ping Mao,  A. V. Marenich,  T. Markovich,  S. Mason,  
 S. A. Maurer,  P. F. McLaughlin,  M. F. S. J. Menger,  J.-M. Mewes,  
 S. A. Mewes,  P. Morgante,  J. W. Mullinax,  T. S. Nguyen-Beck,  
 K. J. Oosterbaan,  G. Paran,  Alexander C. Paul,  Suranjan K. Paul,  
 F. Pavosevic,  Zheng Pei,  S. Prager,  E. I. Proynov,  E. Ramos,  B. Rana,  
 A. E. Rask,  A. Rettig,  R. M. Richard,  F. Rob,  E. Rossomme,  T. Scheele,  
 M. Scheurer,  M. Schneider,  N. Sergueev,  S. M. Sharada,  W. Skomorowski,  
 D. W. Small,  C. J. Stein,  Yu-Chuan Su,  E. J. Sundstrom,  Zhen Tao,  
 J. Thirman,  T. Tsuchimochi,  N. M. Tubman,  S. P. Veccham,  O. Vydrov,  
 J. Wenzel,  J. Witte,  A. Yamada,  Kun Yao,  S. Yeganeh,  S. R. Yost,  
 A. Zech,  Igor Ying Zhang,  Xing Zhang,  Yu Zhang,  D. Zuev,  
 A. Aspuru-Guzik,  A. T. Bell,  N. A. Besley,  K. B. Bravaya,  B. R. Brooks,  
 D. Casanova,  Jeng-Da Chai,  S. Coriani,  C. J. Cramer,  
 A. E. DePrince, III,  R. A. DiStasio Jr.,  A. Dreuw,  B. D. Dunietz,  
 T. R. Furlani,  W. A. Goddard III,  S. Grimme,  S. Hammes-Schiffer,  
 T. Head-Gordon,  W. J. Hehre,  Chao-Ping Hsu,  T.-C. Jagau,  Yousung Jung,  
 A. Klamt,  Jing Kong,  D. S. Lambrecht,  WanZhen Liang,  N. J. Mayhall,  
 C. W. McCurdy,  J. B. Neaton,  C. Ochsenfeld,  J. A. Parkhill,  R. Peverati,  
 V. A. Rassolov,  Yihan Shao,  L. V. Slipchenko,  T. Stauch,  R. P. Steele,  
 J. E. Subotnik,  A. J. W. Thom,  A. Tkatchenko,  D. G. Truhlar,  
 T. Van Voorhis,  T. A. Wesolowski,  K. B. Whaley,  H. L. Woodcock III,  
 P. M. Zimmerman,  S. Faraji,  P. M. W. Gill,  M. Head-Gordon,  
 J. M. Herbert,  A. I. Krylov

 Contributors to earlier versions of Q-Chem not listed above: 
 R. D. Adamson,  B. Austin,  R. Baer,  J. Baker,  G. J. O. Beran,  
 K. Brandhorst,  S. T. Brown,  E. F. C. Byrd,  A. K. Chakraborty,  
 G. K. L. Chan,  Chun-Min Chang,  Yunqing Chen,  C.-L. Cheng,  
 Siu Hung Chien,  D. M. Chipman,  D. L. Crittenden,  H. Dachsel,  
 R. J. Doerksen,  A. D. Dutoi,  R. G. Edgar,  J. Fosso-Tande,  
 L. Fusti-Molnar,  D. Ghosh,  A. Ghysels,  A. Golubeva-Zadorozhnaya,  
 J. Gonthier,  M. S. Gordon,  S. R. Gwaltney,  G. Hawkins,  J. E. Herr,  
 A. Heyden,  S. Hirata,  E. G. Hohenstein,  G. Kedziora,  F. J. Keil,  
 C. Kelley,  Jihan Kim,  R. A. King,  R. Z. Khaliullin,  P. P. Korambath,  
 W. Kurlancheek,  A. Laurent,  A. M. Lee,  M. S. Lee,  S. V. Levchenko,  
 Ching Yeh Lin,  D. Liotard,  E. Livshits,  R. C. Lochan,  I. Lotan,  
 L. A. Martinez-Martinez,  P. E. Maslen,  N. Nair,  D. P. O'Neill,  
 D. Neuhauser,  E. Neuscamman,  C. M. Oana,  R. Olivares-Amaya,  R. Olson,  
 T. M. Perrine,  B. Peters,  P. A. Pieniazek,  A. Prociuk,  Y. M. Rhee,  
 J. Ritchie,  M. A. Rohrdanz,  E. Rosta,  N. J. Russ,  H. F. Schaefer III,  
 M. W. Schmidt,  N. E. Schultz,  S. Sharma,  N. Shenvi,  C. D. Sherrill,  
 A. C. Simmonett,  A. Sodt,  T. Stein,  D. Stuck,  K. S. Thanthiriwatte,  
 V. Vanovschi,  L. Vogt,  Tao Wang,  A. Warshel,  M. A. Watson,  
 C. F. Williams,  Q. Wu,  X. Xu,  Jun Yang,  W. Zhang,  Yan Zhao

 Please cite Q-Chem as follows:
 Y. Shao et al., Mol. Phys. 113, 184-215 (2015)
 DOI: 10.1080/00268976.2014.952696

 Q-Chem 5.4.0 for Intel X86 EM64T Linux

 Parts of Q-Chem use Armadillo 9.800.1 (Horizon Scraper).
 http://arma.sourceforge.net/

 Q-Chem begins on Fri Dec 15 14:05:22 2023  

 Host: 
0

     Scratch files written to ./qchem649202//
 May1621 |scratch|qcdevops|jenkins|workspace|build_RNUM    
 Parallel job on  1  processors
 Processing $rem in /cm/shared/apps/spack/cpu/opt/spack/linux-centos8-zen2/gcc-10.2.0/qchem-5.4-akfmr7b3t57bfs6qan3padb2wnb2i7cl/config/preferences:
 Processing $rem in /home/rramji/.qchemrc:
 Symmetry turned off for PCM/SM12/SMD calculation
 Core orbitals will be frozen

 Checking the input file for inconsistencies... 	...done.

 Q-Chem warning in module forms1/BasisType.C, line 2236:

 You are not using the predefined 5D/6D in this basis set.


--------------------------------------------------------------
User input:
--------------------------------------------------------------
$molecule
0 1
C	-0.288834	-0.513776	0.003987
C	0.065366	0.253024	1.116987
C	0.648966	1.515624	0.824587
H	-0.097534	-0.099276	2.146887
C	0.753166	1.740824	-0.559613
S	0.118066	0.367424	-1.460713
C	1.095566	2.482024	1.886387
H	0.907566	2.075424	2.898987
H	0.560766	3.451924	1.812087
H	2.180966	2.703024	1.812187
C	-0.288834	-1.963876	0.003987
H	0.538466	-1.964376	-0.690213
H	0.314066	-2.498976	0.722787
H	-0.824634	-2.651076	-0.634113
H	1.155066	2.610424	-1.093113
$end

$rem
JOBTYPE		SP
EXCHANGE	HF
CORRELATION	pRIMP2
BASIS		cc-pvtz
METHOD		rimp2
AUX_BASIS	rimp2-cc-pvtz
SOLVENT_METHOD	PCM
PURECART	11111
SYMMETRY	false
MEM_TOTAL	110000
SCF_CONVERGENCE = 6
THRESH=10
GUI = 2
$end



$solvent
dielectric 4.90
$end
--------------------------------------------------------------
 ----------------------------------------------------------------
             Standard Nuclear Orientation (Angstroms)
    I     Atom           X                Y                Z
 ----------------------------------------------------------------
    1      C      -0.2888340000    -0.5137760000     0.0039870000
    2      C       0.0653660000     0.2530240000     1.1169870000
    3      C       0.6489660000     1.5156240000     0.8245870000
    4      H      -0.0975340000    -0.0992760000     2.1468870000
    5      C       0.7531660000     1.7408240000    -0.5596130000
    6      S       0.1180660000     0.3674240000    -1.4607130000
    7      C       1.0955660000     2.4820240000     1.8863870000
    8      H       0.9075660000     2.0754240000     2.8989870000
    9      H       0.5607660000     3.4519240000     1.8120870000
   10      H       2.1809660000     2.7030240000     1.8121870000
   11      C      -0.2888340000    -1.9638760000     0.0039870000
   12      H       0.5384660000    -1.9643760000    -0.6902130000
   13      H       0.3140660000    -2.4989760000     0.7227870000
   14      H      -0.8246340000    -2.6510760000    -0.6341130000
   15      H       1.1550660000     2.6104240000    -1.0931130000
 ----------------------------------------------------------------
 Nuclear Repulsion Energy =         345.70551985 hartrees
 There are       30 alpha and       30 beta electrons
 Requested basis set is cc-pVTZ
 There are 120 shells and 326 basis functions

 Total QAlloc Memory Limit 110000 MB
 Mega-Array Size       188 MB
 MEM_STATIC part       192 MB
 Discretize the solute cavity surface with Lebedev spheres
	Using 110 Lebedev grid points for each H atom
	Using 194 Lebedev grid points for other atoms
	Atomic van der Waals radii will be scaled by 1.20
 Remove points where switching function is < 1.0e-08
 Keep 1063 surface tesserae and discard 1175 interior tesserae
 Molecular Surface Area = 158.219 Angst**2

                       Distance Matrix (Angstroms)
             C (  1)   C (  2)   C (  3)   H (  4)   C (  5)   S (  6)
   C (  2)  1.397215
   C (  3)  2.381453  1.421353
   H (  4)  2.190988  1.100612  2.216674
   C (  5)  2.546886  2.344697  1.406265  3.381538
   S (  6)  1.757108  2.580775  2.612052  3.644046  1.761125
   C (  7)  3.799317  2.573272  1.503596  2.855601  2.578668  4.078004
   H (  8)  4.064032  2.684393  2.164113  2.511016  3.478176  4.748427
   H (  9)  4.440475  3.310823  2.175360  3.627185  2.930843  4.518998
   H ( 10)  4.440417  3.310826  2.175384  3.627185  2.930849  4.519121
   C ( 11)  1.450100  2.505768  3.695913  2.846990  3.889500  2.783141
   H ( 12)  1.808474  2.899424  3.797003  3.454306  3.713712  2.491525
   H ( 13)  2.195719  2.791191  4.029831  2.820645  4.451209  3.608648
   H ( 14)  2.293971  3.506030  4.654105  3.843738  4.667311  3.268531
   H ( 15)  3.612354  3.410179  2.265457  4.405574  1.096517  2.498309
             C (  7)   H (  8)   H (  9)   H ( 10)   C ( 11)   H ( 12)
   H (  8)  1.107261
   H (  9)  1.110062  1.787841
   H ( 10)  1.110153  1.787894  1.784909
   C ( 11)  5.022551  5.111589  5.772516  5.581170
   H ( 12)  5.169110  5.416510  5.966432  5.544766  1.079972
   H ( 13)  5.174463  5.100316  6.054804  5.633197  1.080043  1.527325
   H ( 14)  6.032313  6.150050  6.719363  6.609418  1.080045  1.527333
   H ( 15)  2.982859  4.035386  3.082451  3.082501  4.920640  4.633715
             H ( 13)   H ( 14)
   H ( 14)  1.777906
   H ( 15)  5.487326  5.640326
 
 Requested basis set is rimp2-cc-pVTZ
 There are 250 shells and 848 basis functions
 A cutoff of  1.0D-10 yielded   6198 shell pairs
 There are     45396 function pairs (     58392 Cartesian)
 Smallest overlap matrix eigenvalue = 1.09E-04

 Scale SEOQF with 1.000000e-01/1.000000e-01/1.000000e-01

 Standard Electronic Orientation quadrupole field applied
 Nucleus-field energy     =     0.0000000013 hartrees
 Guess from superposition of atomic densities
 Warning:  Energy on first SCF cycle will be non-variational
 SAD guess density has 60.000000 electrons

 -----------------------------------------------------------------------
  General SCF calculation program by
  Eric Jon Sundstrom, Paul Horn, Yuezhi Mao, Dmitri Zuev, Alec White,
  David Stuck, Shaama M.S., Shane Yost, Joonho Lee, David Small,
  Daniel Levine, Susi Lehtola, Hugh Burton, Evgeny Epifanovsky,
  Bang C. Huynh
 -----------------------------------------------------------------------
 Hartree-Fock
 using 64 threads for integral computing
 -------------------------------------------------------
 OpenMP Integral computing Module                
 Release: version 1.0, May 2013, Q-Chem Inc. Pittsburgh 
 -------------------------------------------------------
 A restricted SCF calculation will be
 performed using DIIS
 SCF converges when DIIS error is below 1.0e-06
 ---------------------------------------
  Cycle       Energy         DIIS error
 ---------------------------------------
    1    -632.1061879462      2.92e-02  
    2    -629.3333425645      1.94e-03  
    3    -629.4037116569      6.85e-04  
    4    -629.4112381553      3.49e-04  
    5    -629.4133861106      6.37e-05  
    6    -629.4135228689      2.64e-05  
    7    -629.4135577729      1.17e-05  
    8    -629.4135676931      5.13e-06  
    9    -629.4135692598      1.75e-06  
   10    -629.4135694549      6.33e-07  Convergence criterion met
 ---------------------------------------
 SCF time:   CPU 665.00s  wall 14.00s 

************** Final PCM Free Energy Summary **************
 G_electrostatic  =      -0.00525218 hartree =      -3.29579167 kcal/mol
 G_cavitation     =       0.00000000 hartree =       0.00000000 kcal/mol
 G_dispersion     =       0.00000000 hartree =       0.00000000 kcal/mol
 G_repulsion      =       0.00000000 hartree =       0.00000000 kcal/mol
 --------------------------------------------------
 Non-electrostatic Free Energy =       0.00000000 hartree =       0.00000000 kcal/mol
 Total                         =      -0.00525218 hartree =      -3.29579167 kcal/mol
 --------------------------------------------------
 SCF Energy (H0 + V/2)                       =    -629.41356945 
 Solute Internal Energy (H0)                 =    -629.40831728 
 Total Free Energy (H0 + V/2 + non-elec)     =    -629.41356945 hartree
                                             = -394962.97600889 kcal/mol
***********************************************************

 SCF   energy in the final basis set =     -629.4135694549
 Total energy in the final basis set =     -629.4135694549


 --------------------------------------------------------------
  Generalized many-body perturbation theory program
  by Joonho Lee, Fazle Rob, Xintian Feng, Evgeny Epifanovsky

 No regularization used 
 (reg. param. = 0.0000e+00)
  (P|Q)^-1/2 Time:  CPU 6.92 s  wall 0.11 s

 In RI-MP2 calculation: 
 # of frozen core orbitals: 11

 Components of the RIMP2 correlation energy:
        aaaa    correlation energy =        -0.1455138978 a.u.
        abab    correlation energy =        -0.8871623943 a.u.
        bbbb    correlation energy =        -0.1455138978 a.u.
        non-Brillouin singles      =        -0.0000000000 a.u.
        total same-spin energy     =        -0.2910277956 a.u.
        total opposite-spin energy =        -0.8871623943 a.u.

 Total  RIMP2   correlation energy =        -1.1781901899 a.u.
        RIMP2         total energy =      -630.5917596449 a.u.

 RI-MP2 Energy Time:  CPU 34.49 s  wall 0.61 s
 
 --------------------------------------------------------------
 
                    Orbital Energies (a.u.)
 --------------------------------------------------------------
 
 Alpha MOs
 -- Occupied --
-91.9760 -11.2782 -11.2570 -11.2473 -11.2297 -11.2272 -11.2187  -8.9764
 -6.6574  -6.6568  -6.6562  -1.1628  -1.0547  -0.9952  -0.9431  -0.8822
 -0.7470  -0.7195  -0.6457  -0.5896  -0.5782  -0.5656  -0.5509  -0.5467
 -0.5086  -0.4915  -0.4632  -0.4503  -0.3392  -0.2947
 -- Virtual --
  0.0980   0.1449   0.1525   0.1760   0.1877   0.1918   0.2065   0.2240
  0.2266   0.2461   0.2531   0.2548   0.2933   0.3260   0.3459   0.3483
  0.3783   0.4001   0.4081   0.4232   0.4363   0.4605   0.4671   0.4800
  0.4895   0.4924   0.5214   0.5362   0.5437   0.5494   0.5606   0.5881
  0.5960   0.6030   0.6073   0.6190   0.6289   0.6358   0.6444   0.6501
  0.6559   0.6631   0.6882   0.7008   0.7233   0.7456   0.7645   0.7942
  0.8037   0.8172   0.8396   0.8592   0.8666   0.8837   0.8978   0.9315
  0.9557   0.9622   0.9979   1.0139   1.0271   1.0492   1.0601   1.0692
  1.0814   1.0915   1.1159   1.1440   1.1611   1.1921   1.2042   1.2106
  1.2218   1.2333   1.2495   1.2638   1.2757   1.2953   1.3055   1.3285
  1.3527   1.3879   1.4025   1.4160   1.4240   1.4263   1.4472   1.4757
  1.4880   1.4995   1.5095   1.5297   1.5426   1.5597   1.5669   1.5760
  1.5843   1.6359   1.6428   1.6721   1.6812   1.6998   1.7077   1.7406
  1.7544   1.7860   1.7970   1.8320   1.8996   1.9255   1.9421   1.9672
  1.9848   2.0386   2.1056   2.1328   2.1747   2.1864   2.2145   2.2190
  2.2672   2.2807   2.3662   2.4222   2.4571   2.4724   2.5031   2.5449
  2.5683   2.5815   2.6371   2.6511   2.6695   2.6824   2.7091   2.7253
  2.7415   2.7575   2.7824   2.7951   2.8243   2.8416   2.8553   2.8892
  2.9216   2.9245   2.9657   2.9691   3.0148   3.0367   3.0537   3.0722
  3.0876   3.0966   3.1123   3.1291   3.1579   3.1625   3.1721   3.1903
  3.2104   3.2433   3.2584   3.2823   3.2889   3.3014   3.3112   3.3308
  3.3375   3.3515   3.3810   3.3883   3.4003   3.4186   3.4261   3.4358
  3.4485   3.4685   3.4825   3.4936   3.5161   3.5258   3.5342   3.5613
  3.5905   3.5975   3.6106   3.6163   3.6359   3.6522   3.6636   3.6838
  3.7019   3.7197   3.7287   3.7372   3.7627   3.7636   3.7765   3.7890
  3.8089   3.8250   3.8626   3.8693   3.8873   3.9103   3.9265   3.9513
  3.9734   3.9982   4.0143   4.0258   4.0373   4.0482   4.0984   4.1041
  4.1314   4.1524   4.1720   4.1872   4.2211   4.2371   4.2430   4.2736
  4.2843   4.2919   4.3179   4.3384   4.3493   4.3643   4.3875   4.4012
  4.4036   4.4226   4.4520   4.4741   4.4762   4.5230   4.5602   4.5720
  4.5971   4.6247   4.6388   4.6623   4.7098   4.7284   4.7556   4.7804
  4.7869   4.8091   4.8611   4.8821   4.9178   4.9427   5.0646   5.0955
  5.0997   5.1140   5.1704   5.1898   5.2159   5.2603   5.2896   5.3266
  5.3671   5.3974   5.4195   5.4449   5.4740   5.4877   5.5497   5.5644
  5.5873   5.6181   5.6200   5.6511   5.6979   5.8053   5.8332   5.8432
  5.9345   5.9518   6.0637   6.1438   6.2277   6.2467   6.2894   6.3651
  6.4408   6.5181   9.2272  11.3524  12.8778  13.6279  14.1803  14.4562
 --------------------------------------------------------------
 
          Ground-State Mulliken Net Atomic Charges

     Atom                 Charge (a.u.)
  ----------------------------------------
      1 C                     0.046617
      2 C                    -0.303369
      3 C                     0.055269
      4 H                     0.178948
      5 C                    -0.259950
      6 S                    -0.004998
      7 C                    -0.270585
      8 H                     0.101684
      9 H                     0.107702
     10 H                     0.106779
     11 C                    -0.373385
     12 H                     0.134957
     13 H                     0.140389
     14 H                     0.146292
     15 H                     0.193651
  ----------------------------------------
  Sum of atomic charges =     0.000000

 -----------------------------------------------------------------
                    Cartesian Multipole Moments
 -----------------------------------------------------------------
    Charge (ESU x 10^10)
                -0.0000
    Dipole Moment (Debye)
         X       1.1457      Y      -0.3270      Z       1.1132
       Tot       1.6306
    Quadrupole Moments (Debye-Ang)
        XX     -52.9802     XY       2.3588     YY     -43.7094
        XZ       0.4989     YZ       1.2829     ZZ     -48.6132
    Octopole Moments (Debye-Ang^2)
       XXX     -45.1887    XXY     -24.1804    XYY      -6.1117
       YYY     -73.5796    XXZ      -3.1664    XYZ      -2.5613
       YYZ      -6.9168    XZZ     -13.0179    YZZ     -22.3791
       ZZZ       0.1672
    Hexadecapole Moments (Debye-Ang^3)
      XXXX    -176.5783   XXXY    -118.2920   XXYY    -150.9840
      XYYY    -106.3776   YYYY    -715.1210   XXXZ     -40.2908
      XXYZ     -30.4379   XYYZ     -13.6933   YYYZ     -91.4012
      XXZZ    -115.3994   XYZZ     -32.3806   YYZZ    -198.5134
      XZZZ     -44.1482   YZZZ     -94.9944   ZZZZ    -491.2855
 -----------------------------------------------------------------
 Total job time:  18.79s(wall), 727.80s(cpu) 
 Fri Dec 15 14:05:41 2023

        *************************************************************
        *                                                           *
        *  Thank you very much for using Q-Chem.  Have a nice day.  *
        *                                                           *
        *************************************************************


0 sent ACK to 0 
now end server 0 ... 
cleanup process ... done
remove work dirs ./qchem649202.0 -- ./qchem649202.0
rm -rf ./qchem649202.0
rm -rf ./qchem649202
