You are running Q-Chem version: 5.4.0

#
# job setting
#
local host:  exp-8-30
current dir: /home/rramji/project-csd799/aromodel/p3ht-qchem/methylated-rotation-run
input file:  Methylthiophene_Phi_5_Theta_190_Methylthiophene_Hydrogenated_Improper.qcin
output file: 
nprocs     : 1
nthreads   : 64
#
# qchem installation setting
#
QC:          /cm/shared/apps/spack/cpu/opt/spack/linux-centos8-zen2/gcc-10.2.0/qchem-5.4-akfmr7b3t57bfs6qan3padb2wnb2i7cl
QCAUX:       /cm/shared/apps/spack/cpu/opt/spack/linux-centos8-zen2/gcc-10.2.0/qchem-5.4-akfmr7b3t57bfs6qan3padb2wnb2i7cl/qcaux
QCPROG:      /cm/shared/apps/spack/cpu/opt/spack/linux-centos8-zen2/gcc-10.2.0/qchem-5.4-akfmr7b3t57bfs6qan3padb2wnb2i7cl/exe/qcprog.exe
QCPROG_S:    /cm/shared/apps/spack/cpu/opt/spack/linux-centos8-zen2/gcc-10.2.0/qchem-5.4-akfmr7b3t57bfs6qan3padb2wnb2i7cl/exe/qcprog.exe_s
PARALLEL:    -DPARALLEL
QCMPI:       mpich
#
# qchem directory setting
#
qcrun:       qchem2115158
QCSCRATCH:   .
QCLOCALSCR:  
QCTMPDIR:    .
QCFILEPREF:  ./qchem2115158
QCSAVEDIR:   
workdirs:    ./qchem2115158
workdir0:    ./qchem2115158
partmpdirs =  
#
# parallel setting
#
QCRSH:           ssh
QCMPI:           mpich
QCMPIRUN:        /cm/shared/apps/spack/cpu/opt/spack/linux-centos8-zen2/gcc-10.2.0/qchem-5.4-akfmr7b3t57bfs6qan3padb2wnb2i7cl/bin/mpi/mpirun_qchem
QCMACHINEFILE:   ./qchem2115158/hostfile
exp-8-30

#
# env setting
#
exported envs:   QC QCAUX QCSCRATCH QCRUNNAME QCFILEPREF QCPROG QCPROG_S GUIFILE

Running Job 1 of 1 Methylthiophene_Phi_5_Theta_190_Methylthiophene_Hydrogenated_Improper.qcin
qchem Methylthiophene_Phi_5_Theta_190_Methylthiophene_Hydrogenated_Improper.qcin_2115158.0 ./qchem2115158/ 1
/cm/shared/apps/spack/cpu/opt/spack/linux-centos8-zen2/gcc-10.2.0/qchem-5.4-akfmr7b3t57bfs6qan3padb2wnb2i7cl/bin/mpi/mpirun_qchem -machinefile ./qchem2115158/hostfile -np 1 /cm/shared/apps/spack/cpu/opt/spack/linux-centos8-zen2/gcc-10.2.0/qchem-5.4-akfmr7b3t57bfs6qan3padb2wnb2i7cl/exe/qcprog.exe Methylthiophene_Phi_5_Theta_190_Methylthiophene_Hydrogenated_Improper.qcin_2115158.0 ./qchem2115158/

Process 0 of 1 is on exp-8-30 - thread support 0
initial socket setup ...start
initial socket setup ...done 
now start server 0 ... 
                  Welcome to Q-Chem
     A Quantum Leap Into The Future Of Chemistry


 Q-Chem 5.4, Q-Chem, Inc., Pleasanton, CA (2021)

 License issued to: University of California, San Diego (site)

 E. Epifanovsky,  A. T. B. Gilbert,  Xintian Feng,  Joonho Lee,  Yuezhi Mao,  
 N. Mardirossian,  P. Pokhilko,  A. White,  M. Wormit,  M. P. Coons,  
 A. L. Dempwolff,  Zhengting Gan,  D. Hait,  P. R. Horn,  L. D. Jacobson,  
 I. Kaliman,  J. Kussmann,  A. W. Lange,  Ka Un Lao,  D. S. Levine,  Jie Liu,  
 S. C. McKenzie,  A. F. Morrison,  K. Nanda,  F. Plasser,  D. R. Rehn,  
 M. L. Vidal,  Zhi-Qiang You,  Ying Zhu,  B. Alam,  B. Albrecht,  
 A. Aldossary,  E. Alguire,  J. H. Andersen,  D. Barton,  K. Begam,  A. Behn,  
 Y. A. Bernard,  E. J. Berquist,  H. Burton,  A. Carreras,  K. Carter-Fenk,  
 R. Chakraborty,  A. D. Chien,  K. D. Closser,  V. Cofer-Shabica,  
 S. Dasgupta,  Jia Deng,  M. de Wergifosse,  M. Diedenhofen,  Hainam Do,  
 S. Ehlert,  Po-Tung Fang,  S. Fatehi,  Qingguo Feng,  J. Gayvert,  
 Qinghui Ge,  G. Gidofalvi,  M. Goldey,  J. Gomes,  C. Gonzalez-Espinoza,  
 S. Gulania,  A. Gunina,  M. W. D. Hanson-Heine,  P. H. P. Harbach,  
 A. W. Hauser,  M. F. Herbst,  M. Hernandez Vera,  M. Hodecker,  
 Z. C. Holden,  S. Houck,  Xunkun Huang,  Kerwin Hui,  B. C. Huynh,  
 M. Ivanov,  Hyunjun Ji,  Hanjie Jiang,  B. Kaduk,  S. Kaehler,  
 K. Khistyaev,  Jaehoon Kim,  P. Klunzinger,  Z. Koczor-Benda,  
 Joong Hoon Koh,  D. Kosenkov,  L. Koulias,  T. Kowalczyk,  C. M. Krauter,  
 K. Kue,  A. Kunitsa,  T. Kus,  A. Landau,  K. V. Lawler,  D. Lefrancois,  
 S. Lehtola,  Rain Li,  Yi-Pei Li,  Jiashu Liang,  M. Liebenthal,  
 Hung-Hsuan Lin,  You-Sheng Lin,  Fenglai Liu,  Kuan-Yu Liu,  
 M. Loipersberger,  A. Luenser,  A. Manjanath,  P. Manohar,  E. Mansoor,  
 S. F. Manzer,  Shan-Ping Mao,  A. V. Marenich,  T. Markovich,  S. Mason,  
 S. A. Maurer,  P. F. McLaughlin,  M. F. S. J. Menger,  J.-M. Mewes,  
 S. A. Mewes,  P. Morgante,  J. W. Mullinax,  T. S. Nguyen-Beck,  
 K. J. Oosterbaan,  G. Paran,  Alexander C. Paul,  Suranjan K. Paul,  
 F. Pavosevic,  Zheng Pei,  S. Prager,  E. I. Proynov,  E. Ramos,  B. Rana,  
 A. E. Rask,  A. Rettig,  R. M. Richard,  F. Rob,  E. Rossomme,  T. Scheele,  
 M. Scheurer,  M. Schneider,  N. Sergueev,  S. M. Sharada,  W. Skomorowski,  
 D. W. Small,  C. J. Stein,  Yu-Chuan Su,  E. J. Sundstrom,  Zhen Tao,  
 J. Thirman,  T. Tsuchimochi,  N. M. Tubman,  S. P. Veccham,  O. Vydrov,  
 J. Wenzel,  J. Witte,  A. Yamada,  Kun Yao,  S. Yeganeh,  S. R. Yost,  
 A. Zech,  Igor Ying Zhang,  Xing Zhang,  Yu Zhang,  D. Zuev,  
 A. Aspuru-Guzik,  A. T. Bell,  N. A. Besley,  K. B. Bravaya,  B. R. Brooks,  
 D. Casanova,  Jeng-Da Chai,  S. Coriani,  C. J. Cramer,  
 A. E. DePrince, III,  R. A. DiStasio Jr.,  A. Dreuw,  B. D. Dunietz,  
 T. R. Furlani,  W. A. Goddard III,  S. Grimme,  S. Hammes-Schiffer,  
 T. Head-Gordon,  W. J. Hehre,  Chao-Ping Hsu,  T.-C. Jagau,  Yousung Jung,  
 A. Klamt,  Jing Kong,  D. S. Lambrecht,  WanZhen Liang,  N. J. Mayhall,  
 C. W. McCurdy,  J. B. Neaton,  C. Ochsenfeld,  J. A. Parkhill,  R. Peverati,  
 V. A. Rassolov,  Yihan Shao,  L. V. Slipchenko,  T. Stauch,  R. P. Steele,  
 J. E. Subotnik,  A. J. W. Thom,  A. Tkatchenko,  D. G. Truhlar,  
 T. Van Voorhis,  T. A. Wesolowski,  K. B. Whaley,  H. L. Woodcock III,  
 P. M. Zimmerman,  S. Faraji,  P. M. W. Gill,  M. Head-Gordon,  
 J. M. Herbert,  A. I. Krylov

 Contributors to earlier versions of Q-Chem not listed above: 
 R. D. Adamson,  B. Austin,  R. Baer,  J. Baker,  G. J. O. Beran,  
 K. Brandhorst,  S. T. Brown,  E. F. C. Byrd,  A. K. Chakraborty,  
 G. K. L. Chan,  Chun-Min Chang,  Yunqing Chen,  C.-L. Cheng,  
 Siu Hung Chien,  D. M. Chipman,  D. L. Crittenden,  H. Dachsel,  
 R. J. Doerksen,  A. D. Dutoi,  R. G. Edgar,  J. Fosso-Tande,  
 L. Fusti-Molnar,  D. Ghosh,  A. Ghysels,  A. Golubeva-Zadorozhnaya,  
 J. Gonthier,  M. S. Gordon,  S. R. Gwaltney,  G. Hawkins,  J. E. Herr,  
 A. Heyden,  S. Hirata,  E. G. Hohenstein,  G. Kedziora,  F. J. Keil,  
 C. Kelley,  Jihan Kim,  R. A. King,  R. Z. Khaliullin,  P. P. Korambath,  
 W. Kurlancheek,  A. Laurent,  A. M. Lee,  M. S. Lee,  S. V. Levchenko,  
 Ching Yeh Lin,  D. Liotard,  E. Livshits,  R. C. Lochan,  I. Lotan,  
 L. A. Martinez-Martinez,  P. E. Maslen,  N. Nair,  D. P. O'Neill,  
 D. Neuhauser,  E. Neuscamman,  C. M. Oana,  R. Olivares-Amaya,  R. Olson,  
 T. M. Perrine,  B. Peters,  P. A. Pieniazek,  A. Prociuk,  Y. M. Rhee,  
 J. Ritchie,  M. A. Rohrdanz,  E. Rosta,  N. J. Russ,  H. F. Schaefer III,  
 M. W. Schmidt,  N. E. Schultz,  S. Sharma,  N. Shenvi,  C. D. Sherrill,  
 A. C. Simmonett,  A. Sodt,  T. Stein,  D. Stuck,  K. S. Thanthiriwatte,  
 V. Vanovschi,  L. Vogt,  Tao Wang,  A. Warshel,  M. A. Watson,  
 C. F. Williams,  Q. Wu,  X. Xu,  Jun Yang,  W. Zhang,  Yan Zhao

 Please cite Q-Chem as follows:
 Y. Shao et al., Mol. Phys. 113, 184-215 (2015)
 DOI: 10.1080/00268976.2014.952696

 Q-Chem 5.4.0 for Intel X86 EM64T Linux

 Parts of Q-Chem use Armadillo 9.800.1 (Horizon Scraper).
 http://arma.sourceforge.net/

 Q-Chem begins on Fri Dec 15 14:00:28 2023  

 Host: 
0

     Scratch files written to ./qchem2115158//
 May1621 |scratch|qcdevops|jenkins|workspace|build_RNUM    
 Parallel job on  1  processors
 Processing $rem in /cm/shared/apps/spack/cpu/opt/spack/linux-centos8-zen2/gcc-10.2.0/qchem-5.4-akfmr7b3t57bfs6qan3padb2wnb2i7cl/config/preferences:
 Processing $rem in /home/rramji/.qchemrc:
 Symmetry turned off for PCM/SM12/SMD calculation
 Core orbitals will be frozen

 Checking the input file for inconsistencies... 	...done.

 Q-Chem warning in module forms1/BasisType.C, line 2236:

 You are not using the predefined 5D/6D in this basis set.


--------------------------------------------------------------
User input:
--------------------------------------------------------------
$molecule
0 1
C	-0.052099	-0.574004	0.002537
C	0.018401	0.267696	1.115537
C	0.135001	1.653696	0.823137
H	-0.013999	-0.119104	2.145437
C	0.156001	1.900996	-0.561063
S	0.028801	0.393196	-1.462163
C	0.224201	2.714596	1.884937
H	0.186601	2.268196	2.897537
H	-0.610099	3.443096	1.810637
H	1.168501	3.293496	1.810737
C	-0.052099	-2.024104	0.002537
H	-1.115699	-2.024604	-0.184963
H	0.111001	-2.559204	-0.921363
H	-0.196499	-2.711304	0.823137
H	0.236201	2.855696	-1.094563
$end

$rem
JOBTYPE		SP
EXCHANGE	HF
CORRELATION	pRIMP2
BASIS		cc-pvtz
METHOD		rimp2
AUX_BASIS	rimp2-cc-pvtz
SOLVENT_METHOD	PCM
PURECART	11111
SYMMETRY	false
MEM_TOTAL	110000
SCF_CONVERGENCE = 6
THRESH=10
GUI = 2
$end



$solvent
dielectric 4.90
$end
--------------------------------------------------------------
 ----------------------------------------------------------------
             Standard Nuclear Orientation (Angstroms)
    I     Atom           X                Y                Z
 ----------------------------------------------------------------
    1      C      -0.0520990000    -0.5740040000     0.0025370000
    2      C       0.0184010000     0.2676960000     1.1155370000
    3      C       0.1350010000     1.6536960000     0.8231370000
    4      H      -0.0139990000    -0.1191040000     2.1454370000
    5      C       0.1560010000     1.9009960000    -0.5610630000
    6      S       0.0288010000     0.3931960000    -1.4621630000
    7      C       0.2242010000     2.7145960000     1.8849370000
    8      H       0.1866010000     2.2681960000     2.8975370000
    9      H      -0.6100990000     3.4430960000     1.8106370000
   10      H       1.1685010000     3.2934960000     1.8107370000
   11      C      -0.0520990000    -2.0241040000     0.0025370000
   12      H      -1.1156990000    -2.0246040000    -0.1849630000
   13      H       0.1110010000    -2.5592040000    -0.9213630000
   14      H      -0.1964990000    -2.7113040000     0.8231370000
   15      H       0.2362010000     2.8556960000    -1.0945630000
 ----------------------------------------------------------------
 Nuclear Repulsion Energy =         344.14883603 hartrees
 There are       30 alpha and       30 beta electrons
 Requested basis set is cc-pVTZ
 There are 120 shells and 326 basis functions

 Total QAlloc Memory Limit 110000 MB
 Mega-Array Size       188 MB
 MEM_STATIC part       192 MB
 Discretize the solute cavity surface with Lebedev spheres
	Using 110 Lebedev grid points for each H atom
	Using 194 Lebedev grid points for other atoms
	Atomic van der Waals radii will be scaled by 1.20
 Remove points where switching function is < 1.0e-08
 Keep 1063 surface tesserae and discard 1175 interior tesserae
 Molecular Surface Area = 159.475 Angst**2

                       Distance Matrix (Angstroms)
             C (  1)   C (  2)   C (  3)   H (  4)   C (  5)   S (  6)
   C (  2)  1.397211
   C (  3)  2.381394  1.421298
   H (  4)  2.190983  1.100617  2.216641
   C (  5)  2.546876  2.344694  1.406274  3.381545
   S (  6)  1.757090  2.580774  2.612037  3.644045  1.761142
   C (  7)  3.799297  2.573257  1.503624  2.855601  2.578665  4.078009
   H (  8)  4.064001  2.684365  2.164118  2.510995  3.478173  4.748422
   H (  9)  4.440460  3.310792  2.175381  3.627216  2.930860  4.518994
   H ( 10)  4.440384  3.310815  2.175413  3.627143  2.930810  4.519129
   C ( 11)  1.450100  2.548742  3.772877  2.867490  3.970814  2.827584
   H ( 12)  1.808492  2.869168  4.013777  3.205532  4.143550  2.964267
   H ( 13)  2.195726  3.485527  4.559867  3.921094  4.474955  3.002647
   H ( 14)  2.293968  3.001020  4.377570  2.915696  4.828414  3.861512
   H ( 15)  3.612421  3.410238  2.265528  4.405637  1.096589  2.498410
             C (  7)   H (  8)   H (  9)   H ( 10)   C ( 11)   H ( 12)
   H (  8)  1.107269
   H (  9)  1.110085  1.787868
   H ( 10)  1.110105  1.787876  1.784880
   C ( 11)  5.106373  5.182841  5.785401  5.747723
   H ( 12)  5.342269  5.442970  5.842413  6.122302  1.080001
   H ( 13)  5.975040  6.155770  6.634110  6.544981  1.080058  1.527375
   H ( 14)  5.544799  5.407894  6.246828  6.236682  1.080037  1.527335
   H ( 15)  2.982863  4.035403  3.082442  3.082470  5.009910  5.145127
             H ( 13)   H ( 14)
   H ( 14)  1.777912
   H ( 15)  5.419116  5.903922
 
 Requested basis set is rimp2-cc-pVTZ
 There are 250 shells and 848 basis functions
 A cutoff of  1.0D-10 yielded   6164 shell pairs
 There are     45140 function pairs (     58038 Cartesian)
 Smallest overlap matrix eigenvalue = 8.46E-05

 Scale SEOQF with 1.000000e+00/1.000000e-01/1.000000e-01

 Standard Electronic Orientation quadrupole field applied
 Nucleus-field energy     =     0.0000000034 hartrees
 Guess from superposition of atomic densities
 Warning:  Energy on first SCF cycle will be non-variational
 SAD guess density has 60.000000 electrons

 -----------------------------------------------------------------------
  General SCF calculation program by
  Eric Jon Sundstrom, Paul Horn, Yuezhi Mao, Dmitri Zuev, Alec White,
  David Stuck, Shaama M.S., Shane Yost, Joonho Lee, David Small,
  Daniel Levine, Susi Lehtola, Hugh Burton, Evgeny Epifanovsky,
  Bang C. Huynh
 -----------------------------------------------------------------------
 Hartree-Fock
 using 64 threads for integral computing
 -------------------------------------------------------
 OpenMP Integral computing Module                
 Release: version 1.0, May 2013, Q-Chem Inc. Pittsburgh 
 -------------------------------------------------------
 A restricted SCF calculation will be
 performed using DIIS
 SCF converges when DIIS error is below 1.0e-06
 ---------------------------------------
  Cycle       Energy         DIIS error
 ---------------------------------------
    1    -632.0783444645      2.91e-02  
    2    -629.3427297590      1.96e-03  
    3    -629.4135221369      7.26e-04  
    4    -629.4215507967      3.67e-04  
    5    -629.4239176452      6.25e-05  
    6    -629.4240512747      2.61e-05  
    7    -629.4240837286      1.12e-05  
    8    -629.4240926378      5.13e-06  
    9    -629.4240940740      1.68e-06  
   10    -629.4240942561      6.81e-07  Convergence criterion met
 ---------------------------------------
 SCF time:   CPU 695.28s  wall 14.00s 

************** Final PCM Free Energy Summary **************
 G_electrostatic  =      -0.00587178 hartree =      -3.68459484 kcal/mol
 G_cavitation     =       0.00000000 hartree =       0.00000000 kcal/mol
 G_dispersion     =       0.00000000 hartree =       0.00000000 kcal/mol
 G_repulsion      =       0.00000000 hartree =       0.00000000 kcal/mol
 --------------------------------------------------
 Non-electrostatic Free Energy =       0.00000000 hartree =       0.00000000 kcal/mol
 Total                         =      -0.00587178 hartree =      -3.68459484 kcal/mol
 --------------------------------------------------
 SCF Energy (H0 + V/2)                       =    -629.42409426 
 Solute Internal Energy (H0)                 =    -629.41822248 
 Total Free Energy (H0 + V/2 + non-elec)     =    -629.42409426 hartree
                                             = -394969.58042131 kcal/mol
***********************************************************

 SCF   energy in the final basis set =     -629.4240942561
 Total energy in the final basis set =     -629.4240942561


 --------------------------------------------------------------
  Generalized many-body perturbation theory program
  by Joonho Lee, Fazle Rob, Xintian Feng, Evgeny Epifanovsky

 No regularization used 
 (reg. param. = 0.0000e+00)
  (P|Q)^-1/2 Time:  CPU 7.39 s  wall 0.12 s

 In RI-MP2 calculation: 
 # of frozen core orbitals: 11

 Components of the RIMP2 correlation energy:
        aaaa    correlation energy =        -0.1450090119 a.u.
        abab    correlation energy =        -0.8850377039 a.u.
        bbbb    correlation energy =        -0.1450090119 a.u.
        non-Brillouin singles      =        -0.0000000000 a.u.
        total same-spin energy     =        -0.2900180237 a.u.
        total opposite-spin energy =        -0.8850377039 a.u.

 Total  RIMP2   correlation energy =        -1.1750557276 a.u.
        RIMP2         total energy =      -630.5991499837 a.u.

 RI-MP2 Energy Time:  CPU 35.38 s  wall 0.59 s
 
 --------------------------------------------------------------
 
                    Orbital Energies (a.u.)
 --------------------------------------------------------------
 
 Alpha MOs
 -- Occupied --
-91.9794 -11.2850 -11.2498 -11.2469 -11.2264 -11.2225 -11.2223  -8.9791
 -6.6601  -6.6596  -6.6590  -1.1598  -1.0545  -0.9967  -0.9425  -0.8834
 -0.7441  -0.7179  -0.6482  -0.5870  -0.5741  -0.5669  -0.5531  -0.5461
 -0.5075  -0.4956  -0.4651  -0.4566  -0.3384  -0.2896
 -- Virtual --
  0.1142   0.1440   0.1477   0.1749   0.1889   0.1991   0.2063   0.2158
  0.2240   0.2407   0.2467   0.2563   0.2935   0.3283   0.3432   0.3546
  0.3856   0.3907   0.4008   0.4228   0.4312   0.4632   0.4702   0.4928
  0.4983   0.5131   0.5206   0.5315   0.5515   0.5595   0.5791   0.5939
  0.5996   0.6071   0.6166   0.6215   0.6347   0.6396   0.6430   0.6481
  0.6580   0.6688   0.6911   0.6968   0.7215   0.7408   0.7852   0.7919
  0.8162   0.8343   0.8422   0.8541   0.8824   0.8898   0.9019   0.9350
  0.9480   0.9772   0.9893   1.0273   1.0401   1.0551   1.0600   1.0773
  1.0834   1.0970   1.1007   1.1163   1.1317   1.1645   1.1726   1.2079
  1.2375   1.2506   1.2604   1.2645   1.2721   1.2897   1.3098   1.3325
  1.3756   1.3816   1.3904   1.4101   1.4383   1.4412   1.4473   1.4838
  1.5014   1.5083   1.5216   1.5347   1.5460   1.5626   1.5747   1.6015
  1.6077   1.6346   1.6412   1.6784   1.6938   1.7051   1.7293   1.7481
  1.7792   1.7829   1.8074   1.8468   1.8886   1.8951   1.9381   1.9515
  2.0232   2.0698   2.0873   2.1335   2.1787   2.2043   2.2327   2.2603
  2.2922   2.3029   2.3447   2.4141   2.4555   2.4708   2.4771   2.5265
  2.5609   2.6027   2.6442   2.6733   2.6774   2.7025   2.7269   2.7319
  2.7384   2.7649   2.7773   2.7971   2.8159   2.8407   2.8549   2.8722
  2.9117   2.9332   2.9447   2.9698   3.0177   3.0294   3.0500   3.0674
  3.0820   3.1138   3.1270   3.1294   3.1562   3.1574   3.1776   3.1810
  3.2246   3.2359   3.2503   3.2708   3.2954   3.3098   3.3145   3.3272
  3.3457   3.3533   3.3773   3.3926   3.3997   3.4049   3.4325   3.4372
  3.4479   3.4609   3.4726   3.4947   3.5023   3.5087   3.5240   3.5362
  3.5785   3.5988   3.6176   3.6213   3.6291   3.6520   3.6534   3.6843
  3.6870   3.7078   3.7177   3.7431   3.7493   3.7734   3.7921   3.8048
  3.8113   3.8337   3.8665   3.8954   3.9199   3.9328   3.9449   3.9617
  3.9773   3.9850   4.0256   4.0320   4.0434   4.0658   4.0737   4.1074
  4.1267   4.1375   4.1792   4.2068   4.2130   4.2388   4.2458   4.2706
  4.2828   4.3010   4.3194   4.3354   4.3493   4.3548   4.3957   4.4010
  4.4113   4.4247   4.4415   4.4472   4.4681   4.5125   4.5542   4.5671
  4.6014   4.6197   4.6386   4.6673   4.7056   4.7219   4.7598   4.7785
  4.8182   4.8373   4.8706   4.8799   4.9141   4.9482   5.0777   5.1013
  5.1114   5.1426   5.1642   5.2010   5.2116   5.2651   5.2878   5.3315
  5.3743   5.4089   5.4196   5.4450   5.4780   5.5229   5.5528   5.5661
  5.5772   5.6091   5.6222   5.6524   5.7001   5.8077   5.8306   5.8597
  5.9331   6.0133   6.1226   6.1657   6.2272   6.2540   6.3068   6.3926
  6.4571   6.6028   9.2219  11.4015  12.9509  13.8203  14.1675  14.5464
 --------------------------------------------------------------
 
          Ground-State Mulliken Net Atomic Charges

     Atom                 Charge (a.u.)
  ----------------------------------------
      1 C                     0.053462
      2 C                    -0.295808
      3 C                     0.045267
      4 H                     0.176845
      5 C                    -0.277760
      6 S                     0.000171
      7 C                    -0.273888
      8 H                     0.101512
      9 H                     0.107276
     10 H                     0.107229
     11 C                    -0.382268
     12 H                     0.138874
     13 H                     0.140626
     14 H                     0.164269
     15 H                     0.194193
  ----------------------------------------
  Sum of atomic charges =     0.000000

 -----------------------------------------------------------------
                    Cartesian Multipole Moments
 -----------------------------------------------------------------
    Charge (ESU x 10^10)
                -0.0000
    Dipole Moment (Debye)
         X      -0.6330      Y      -0.6989      Z       1.2707
       Tot       1.5823
    Quadrupole Moments (Debye-Ang)
        XX     -54.2817     XY       2.3018     YY     -41.7080
        XZ      -0.1027     YZ       0.5519     ZZ     -48.5683
    Octopole Moments (Debye-Ang^2)
       XXX      -8.7012    XXY     -31.0597    XYY      -4.2891
       YYY     -82.2623    XXZ      -2.5712    XYZ       0.2935
       YYZ      -4.6938    XZZ      -2.2808    YZZ     -26.2002
       ZZZ      -1.0380
    Hexadecapole Moments (Debye-Ang^3)
      XXXX     -82.3098   XXXY     -30.4141   XXYY    -162.5183
      XYYY     -17.7644   YYYY    -799.4320   XXXZ      -7.4934
      XXYZ     -31.2744   XYYZ      -5.2164   YYYZ    -107.9355
      XXZZ    -104.0014   XYZZ      -8.1633   YYZZ    -209.7284
      XZZZ      -8.9978   YZZZ    -103.4224   ZZZZ    -491.8617
 -----------------------------------------------------------------
 Total job time:  16.14s(wall), 772.92s(cpu) 
 Fri Dec 15 14:00:45 2023

        *************************************************************
        *                                                           *
        *  Thank you very much for using Q-Chem.  Have a nice day.  *
        *                                                           *
        *************************************************************


0 sent ACK to 0 
now end server 0 ... 
cleanup process ... done
remove work dirs ./qchem2115158.0 -- ./qchem2115158.0
rm -rf ./qchem2115158.0
rm -rf ./qchem2115158
