You are running Q-Chem version: 5.4.0

#
# job setting
#
local host:  exp-7-23
current dir: /home/rramji/project-csd799/aromodel/p3ht-qchem/methylated-rotation-run
input file:  Methylthiophene_Phi_25_Theta_70_Methylthiophene_Hydrogenated_Improper.qcin
output file: 
nprocs     : 1
nthreads   : 64
#
# qchem installation setting
#
QC:          /cm/shared/apps/spack/cpu/opt/spack/linux-centos8-zen2/gcc-10.2.0/qchem-5.4-akfmr7b3t57bfs6qan3padb2wnb2i7cl
QCAUX:       /cm/shared/apps/spack/cpu/opt/spack/linux-centos8-zen2/gcc-10.2.0/qchem-5.4-akfmr7b3t57bfs6qan3padb2wnb2i7cl/qcaux
QCPROG:      /cm/shared/apps/spack/cpu/opt/spack/linux-centos8-zen2/gcc-10.2.0/qchem-5.4-akfmr7b3t57bfs6qan3padb2wnb2i7cl/exe/qcprog.exe
QCPROG_S:    /cm/shared/apps/spack/cpu/opt/spack/linux-centos8-zen2/gcc-10.2.0/qchem-5.4-akfmr7b3t57bfs6qan3padb2wnb2i7cl/exe/qcprog.exe_s
PARALLEL:    -DPARALLEL
QCMPI:       mpich
#
# qchem directory setting
#
qcrun:       qchem640588
QCSCRATCH:   .
QCLOCALSCR:  
QCTMPDIR:    .
QCFILEPREF:  ./qchem640588
QCSAVEDIR:   
workdirs:    ./qchem640588
workdir0:    ./qchem640588
partmpdirs =  
#
# parallel setting
#
QCRSH:           ssh
QCMPI:           mpich
QCMPIRUN:        /cm/shared/apps/spack/cpu/opt/spack/linux-centos8-zen2/gcc-10.2.0/qchem-5.4-akfmr7b3t57bfs6qan3padb2wnb2i7cl/bin/mpi/mpirun_qchem
QCMACHINEFILE:   ./qchem640588/hostfile
exp-7-23

#
# env setting
#
exported envs:   QC QCAUX QCSCRATCH QCRUNNAME QCFILEPREF QCPROG QCPROG_S GUIFILE

Running Job 1 of 1 Methylthiophene_Phi_25_Theta_70_Methylthiophene_Hydrogenated_Improper.qcin
qchem Methylthiophene_Phi_25_Theta_70_Methylthiophene_Hydrogenated_Improper.qcin_640588.0 ./qchem640588/ 1
/cm/shared/apps/spack/cpu/opt/spack/linux-centos8-zen2/gcc-10.2.0/qchem-5.4-akfmr7b3t57bfs6qan3padb2wnb2i7cl/bin/mpi/mpirun_qchem -machinefile ./qchem640588/hostfile -np 1 /cm/shared/apps/spack/cpu/opt/spack/linux-centos8-zen2/gcc-10.2.0/qchem-5.4-akfmr7b3t57bfs6qan3padb2wnb2i7cl/exe/qcprog.exe Methylthiophene_Phi_25_Theta_70_Methylthiophene_Hydrogenated_Improper.qcin_640588.0 ./qchem640588/

Process 0 of 1 is on exp-7-23 - thread support 0
initial socket setup ...start
initial socket setup ...done 
now start server 0 ... 
                  Welcome to Q-Chem
     A Quantum Leap Into The Future Of Chemistry


 Q-Chem 5.4, Q-Chem, Inc., Pleasanton, CA (2021)

 License issued to: University of California, San Diego (site)

 E. Epifanovsky,  A. T. B. Gilbert,  Xintian Feng,  Joonho Lee,  Yuezhi Mao,  
 N. Mardirossian,  P. Pokhilko,  A. White,  M. Wormit,  M. P. Coons,  
 A. L. Dempwolff,  Zhengting Gan,  D. Hait,  P. R. Horn,  L. D. Jacobson,  
 I. Kaliman,  J. Kussmann,  A. W. Lange,  Ka Un Lao,  D. S. Levine,  Jie Liu,  
 S. C. McKenzie,  A. F. Morrison,  K. Nanda,  F. Plasser,  D. R. Rehn,  
 M. L. Vidal,  Zhi-Qiang You,  Ying Zhu,  B. Alam,  B. Albrecht,  
 A. Aldossary,  E. Alguire,  J. H. Andersen,  D. Barton,  K. Begam,  A. Behn,  
 Y. A. Bernard,  E. J. Berquist,  H. Burton,  A. Carreras,  K. Carter-Fenk,  
 R. Chakraborty,  A. D. Chien,  K. D. Closser,  V. Cofer-Shabica,  
 S. Dasgupta,  Jia Deng,  M. de Wergifosse,  M. Diedenhofen,  Hainam Do,  
 S. Ehlert,  Po-Tung Fang,  S. Fatehi,  Qingguo Feng,  J. Gayvert,  
 Qinghui Ge,  G. Gidofalvi,  M. Goldey,  J. Gomes,  C. Gonzalez-Espinoza,  
 S. Gulania,  A. Gunina,  M. W. D. Hanson-Heine,  P. H. P. Harbach,  
 A. W. Hauser,  M. F. Herbst,  M. Hernandez Vera,  M. Hodecker,  
 Z. C. Holden,  S. Houck,  Xunkun Huang,  Kerwin Hui,  B. C. Huynh,  
 M. Ivanov,  Hyunjun Ji,  Hanjie Jiang,  B. Kaduk,  S. Kaehler,  
 K. Khistyaev,  Jaehoon Kim,  P. Klunzinger,  Z. Koczor-Benda,  
 Joong Hoon Koh,  D. Kosenkov,  L. Koulias,  T. Kowalczyk,  C. M. Krauter,  
 K. Kue,  A. Kunitsa,  T. Kus,  A. Landau,  K. V. Lawler,  D. Lefrancois,  
 S. Lehtola,  Rain Li,  Yi-Pei Li,  Jiashu Liang,  M. Liebenthal,  
 Hung-Hsuan Lin,  You-Sheng Lin,  Fenglai Liu,  Kuan-Yu Liu,  
 M. Loipersberger,  A. Luenser,  A. Manjanath,  P. Manohar,  E. Mansoor,  
 S. F. Manzer,  Shan-Ping Mao,  A. V. Marenich,  T. Markovich,  S. Mason,  
 S. A. Maurer,  P. F. McLaughlin,  M. F. S. J. Menger,  J.-M. Mewes,  
 S. A. Mewes,  P. Morgante,  J. W. Mullinax,  T. S. Nguyen-Beck,  
 K. J. Oosterbaan,  G. Paran,  Alexander C. Paul,  Suranjan K. Paul,  
 F. Pavosevic,  Zheng Pei,  S. Prager,  E. I. Proynov,  E. Ramos,  B. Rana,  
 A. E. Rask,  A. Rettig,  R. M. Richard,  F. Rob,  E. Rossomme,  T. Scheele,  
 M. Scheurer,  M. Schneider,  N. Sergueev,  S. M. Sharada,  W. Skomorowski,  
 D. W. Small,  C. J. Stein,  Yu-Chuan Su,  E. J. Sundstrom,  Zhen Tao,  
 J. Thirman,  T. Tsuchimochi,  N. M. Tubman,  S. P. Veccham,  O. Vydrov,  
 J. Wenzel,  J. Witte,  A. Yamada,  Kun Yao,  S. Yeganeh,  S. R. Yost,  
 A. Zech,  Igor Ying Zhang,  Xing Zhang,  Yu Zhang,  D. Zuev,  
 A. Aspuru-Guzik,  A. T. Bell,  N. A. Besley,  K. B. Bravaya,  B. R. Brooks,  
 D. Casanova,  Jeng-Da Chai,  S. Coriani,  C. J. Cramer,  
 A. E. DePrince, III,  R. A. DiStasio Jr.,  A. Dreuw,  B. D. Dunietz,  
 T. R. Furlani,  W. A. Goddard III,  S. Grimme,  S. Hammes-Schiffer,  
 T. Head-Gordon,  W. J. Hehre,  Chao-Ping Hsu,  T.-C. Jagau,  Yousung Jung,  
 A. Klamt,  Jing Kong,  D. S. Lambrecht,  WanZhen Liang,  N. J. Mayhall,  
 C. W. McCurdy,  J. B. Neaton,  C. Ochsenfeld,  J. A. Parkhill,  R. Peverati,  
 V. A. Rassolov,  Yihan Shao,  L. V. Slipchenko,  T. Stauch,  R. P. Steele,  
 J. E. Subotnik,  A. J. W. Thom,  A. Tkatchenko,  D. G. Truhlar,  
 T. Van Voorhis,  T. A. Wesolowski,  K. B. Whaley,  H. L. Woodcock III,  
 P. M. Zimmerman,  S. Faraji,  P. M. W. Gill,  M. Head-Gordon,  
 J. M. Herbert,  A. I. Krylov

 Contributors to earlier versions of Q-Chem not listed above: 
 R. D. Adamson,  B. Austin,  R. Baer,  J. Baker,  G. J. O. Beran,  
 K. Brandhorst,  S. T. Brown,  E. F. C. Byrd,  A. K. Chakraborty,  
 G. K. L. Chan,  Chun-Min Chang,  Yunqing Chen,  C.-L. Cheng,  
 Siu Hung Chien,  D. M. Chipman,  D. L. Crittenden,  H. Dachsel,  
 R. J. Doerksen,  A. D. Dutoi,  R. G. Edgar,  J. Fosso-Tande,  
 L. Fusti-Molnar,  D. Ghosh,  A. Ghysels,  A. Golubeva-Zadorozhnaya,  
 J. Gonthier,  M. S. Gordon,  S. R. Gwaltney,  G. Hawkins,  J. E. Herr,  
 A. Heyden,  S. Hirata,  E. G. Hohenstein,  G. Kedziora,  F. J. Keil,  
 C. Kelley,  Jihan Kim,  R. A. King,  R. Z. Khaliullin,  P. P. Korambath,  
 W. Kurlancheek,  A. Laurent,  A. M. Lee,  M. S. Lee,  S. V. Levchenko,  
 Ching Yeh Lin,  D. Liotard,  E. Livshits,  R. C. Lochan,  I. Lotan,  
 L. A. Martinez-Martinez,  P. E. Maslen,  N. Nair,  D. P. O'Neill,  
 D. Neuhauser,  E. Neuscamman,  C. M. Oana,  R. Olivares-Amaya,  R. Olson,  
 T. M. Perrine,  B. Peters,  P. A. Pieniazek,  A. Prociuk,  Y. M. Rhee,  
 J. Ritchie,  M. A. Rohrdanz,  E. Rosta,  N. J. Russ,  H. F. Schaefer III,  
 M. W. Schmidt,  N. E. Schultz,  S. Sharma,  N. Shenvi,  C. D. Sherrill,  
 A. C. Simmonett,  A. Sodt,  T. Stein,  D. Stuck,  K. S. Thanthiriwatte,  
 V. Vanovschi,  L. Vogt,  Tao Wang,  A. Warshel,  M. A. Watson,  
 C. F. Williams,  Q. Wu,  X. Xu,  Jun Yang,  W. Zhang,  Yan Zhao

 Please cite Q-Chem as follows:
 Y. Shao et al., Mol. Phys. 113, 184-215 (2015)
 DOI: 10.1080/00268976.2014.952696

 Q-Chem 5.4.0 for Intel X86 EM64T Linux

 Parts of Q-Chem use Armadillo 9.800.1 (Horizon Scraper).
 http://arma.sourceforge.net/

 Q-Chem begins on Fri Dec 15 13:56:40 2023  

 Host: 
0

     Scratch files written to ./qchem640588//
 May1621 |scratch|qcdevops|jenkins|workspace|build_RNUM    
 Parallel job on  1  processors
 Processing $rem in /cm/shared/apps/spack/cpu/opt/spack/linux-centos8-zen2/gcc-10.2.0/qchem-5.4-akfmr7b3t57bfs6qan3padb2wnb2i7cl/config/preferences:
 Processing $rem in /home/rramji/.qchemrc:
 Symmetry turned off for PCM/SM12/SMD calculation
 Core orbitals will be frozen

 Checking the input file for inconsistencies... 	...done.

 Q-Chem warning in module forms1/BasisType.C, line 2236:

 You are not using the predefined 5D/6D in this basis set.


--------------------------------------------------------------
User input:
--------------------------------------------------------------
$molecule
0 1
C	-0.286032	-0.513776	-0.003488
C	0.068168	0.253024	1.109512
C	0.651768	1.515624	0.817112
H	-0.094732	-0.099276	2.139412
C	0.755968	1.740824	-0.567088
S	0.120868	0.367424	-1.468188
C	1.098368	2.482024	1.878912
H	0.910368	2.075424	2.891512
H	0.563568	3.451924	1.804612
H	2.183768	2.703024	1.804712
C	-0.286032	-1.963876	-0.003488
H	0.083368	-1.964376	1.011412
H	-1.167632	-2.498976	0.317212
H	0.496768	-2.651076	-0.288788
H	1.157868	2.610424	-1.100588
$end

$rem
JOBTYPE		SP
EXCHANGE	HF
CORRELATION	pRIMP2
BASIS		cc-pvtz
METHOD		rimp2
AUX_BASIS	rimp2-cc-pvtz
SOLVENT_METHOD	PCM
PURECART	11111
SYMMETRY	false
MEM_TOTAL	110000
SCF_CONVERGENCE = 6
THRESH=10
GUI = 2
$end



$solvent
dielectric 4.90
$end
--------------------------------------------------------------
 ----------------------------------------------------------------
             Standard Nuclear Orientation (Angstroms)
    I     Atom           X                Y                Z
 ----------------------------------------------------------------
    1      C      -0.2860320000    -0.5137760000    -0.0034880000
    2      C       0.0681680000     0.2530240000     1.1095120000
    3      C       0.6517680000     1.5156240000     0.8171120000
    4      H      -0.0947320000    -0.0992760000     2.1394120000
    5      C       0.7559680000     1.7408240000    -0.5670880000
    6      S       0.1208680000     0.3674240000    -1.4681880000
    7      C       1.0983680000     2.4820240000     1.8789120000
    8      H       0.9103680000     2.0754240000     2.8915120000
    9      H       0.5635680000     3.4519240000     1.8046120000
   10      H       2.1837680000     2.7030240000     1.8047120000
   11      C      -0.2860320000    -1.9638760000    -0.0034880000
   12      H       0.0833680000    -1.9643760000     1.0114120000
   13      H      -1.1676320000    -2.4989760000     0.3172120000
   14      H       0.4967680000    -2.6510760000    -0.2887880000
   15      H       1.1578680000     2.6104240000    -1.1005880000
 ----------------------------------------------------------------
 Nuclear Repulsion Energy =         345.19216894 hartrees
 There are       30 alpha and       30 beta electrons
 Requested basis set is cc-pVTZ
 There are 120 shells and 326 basis functions

 Total QAlloc Memory Limit 110000 MB
 Mega-Array Size       188 MB
 MEM_STATIC part       192 MB
 Discretize the solute cavity surface with Lebedev spheres
	Using 110 Lebedev grid points for each H atom
	Using 194 Lebedev grid points for other atoms
	Atomic van der Waals radii will be scaled by 1.20
 Remove points where switching function is < 1.0e-08
 Keep 1062 surface tesserae and discard 1176 interior tesserae
 Molecular Surface Area = 158.045 Angst**2

                       Distance Matrix (Angstroms)
             C (  1)   C (  2)   C (  3)   H (  4)   C (  5)   S (  6)
   C (  2)  1.397215
   C (  3)  2.381453  1.421353
   H (  4)  2.190988  1.100612  2.216674
   C (  5)  2.546886  2.344697  1.406265  3.381538
   S (  6)  1.757108  2.580775  2.612052  3.644046  1.761125
   C (  7)  3.799317  2.573272  1.503596  2.855601  2.578668  4.078004
   H (  8)  4.064032  2.684393  2.164113  2.511016  3.478176  4.748427
   H (  9)  4.440475  3.310823  2.175360  3.627185  2.930843  4.518998
   H ( 10)  4.440417  3.310826  2.175384  3.627185  2.930849  4.519121
   C ( 11)  1.450100  2.505768  3.695913  2.846990  3.889500  2.783141
   H ( 12)  1.808513  2.219621  3.531463  2.186939  4.083205  3.403985
   H ( 13)  2.195697  3.119046  4.435891  3.198451  4.739001  3.614434
   H ( 14)  2.293954  3.251575  4.313749  3.571794  4.408335  3.262457
   H ( 15)  3.612354  3.410179  2.265457  4.405574  1.096517  2.498309
             C (  7)   H (  8)   H (  9)   H ( 10)   C ( 11)   H ( 12)
   H (  8)  1.107261
   H (  9)  1.110062  1.787841
   H ( 10)  1.110153  1.787894  1.784909
   C ( 11)  5.022551  5.111589  5.772516  5.581170
   H ( 12)  4.642548  4.531963  5.495095  5.179346  1.080036
   H ( 13)  5.690696  5.645373  6.373588  6.364381  1.080000  1.527322
   H ( 14)  5.604423  5.711845  6.452395  5.991252  1.080007  1.527408
   H ( 15)  2.982859  4.035386  3.082451  3.082501  4.920640  5.152076
             H ( 13)   H ( 14)
   H ( 14)  1.777807
   H ( 15)  5.789998  5.364649
 
 Requested basis set is rimp2-cc-pVTZ
 There are 250 shells and 848 basis functions
 A cutoff of  1.0D-10 yielded   6231 shell pairs
 There are     45663 function pairs (     58715 Cartesian)
 Smallest overlap matrix eigenvalue = 1.24E-04

 Scale SEOQF with 1.000000e-01/1.000000e-01/1.000000e-01

 Standard Electronic Orientation quadrupole field applied
 Nucleus-field energy     =     0.0000000014 hartrees
 Guess from superposition of atomic densities
 Warning:  Energy on first SCF cycle will be non-variational
 SAD guess density has 60.000000 electrons

 -----------------------------------------------------------------------
  General SCF calculation program by
  Eric Jon Sundstrom, Paul Horn, Yuezhi Mao, Dmitri Zuev, Alec White,
  David Stuck, Shaama M.S., Shane Yost, Joonho Lee, David Small,
  Daniel Levine, Susi Lehtola, Hugh Burton, Evgeny Epifanovsky,
  Bang C. Huynh
 -----------------------------------------------------------------------
 Hartree-Fock
 using 64 threads for integral computing
 -------------------------------------------------------
 OpenMP Integral computing Module                
 Release: version 1.0, May 2013, Q-Chem Inc. Pittsburgh 
 -------------------------------------------------------
 A restricted SCF calculation will be
 performed using DIIS
 SCF converges when DIIS error is below 1.0e-06
 ---------------------------------------
  Cycle       Energy         DIIS error
 ---------------------------------------
    1    -632.1097372177      2.92e-02  
    2    -629.3318950281      1.91e-03  
    3    -629.4016204343      6.35e-04  
    4    -629.4086415613      3.19e-04  
    5    -629.4104313368      6.27e-05  
    6    -629.4105607483      2.49e-05  
    7    -629.4105936197      1.17e-05  
    8    -629.4106033646      4.90e-06  
    9    -629.4106049585      1.87e-06  
   10    -629.4106051475      5.00e-07  Convergence criterion met
 ---------------------------------------
 SCF time:   CPU 678.36s  wall 14.00s 

************** Final PCM Free Energy Summary **************
 G_electrostatic  =      -0.00537724 hartree =      -3.37426704 kcal/mol
 G_cavitation     =       0.00000000 hartree =       0.00000000 kcal/mol
 G_dispersion     =       0.00000000 hartree =       0.00000000 kcal/mol
 G_repulsion      =       0.00000000 hartree =       0.00000000 kcal/mol
 --------------------------------------------------
 Non-electrostatic Free Energy =       0.00000000 hartree =       0.00000000 kcal/mol
 Total                         =      -0.00537724 hartree =      -3.37426704 kcal/mol
 --------------------------------------------------
 SCF Energy (H0 + V/2)                       =    -629.41060515 
 Solute Internal Energy (H0)                 =    -629.40522791 
 Total Free Energy (H0 + V/2 + non-elec)     =    -629.41060515 hartree
                                             = -394961.11587787 kcal/mol
***********************************************************

 SCF   energy in the final basis set =     -629.4106051475
 Total energy in the final basis set =     -629.4106051475


 --------------------------------------------------------------
  Generalized many-body perturbation theory program
  by Joonho Lee, Fazle Rob, Xintian Feng, Evgeny Epifanovsky

 No regularization used 
 (reg. param. = 0.0000e+00)
  (P|Q)^-1/2 Time:  CPU 6.89 s  wall 0.11 s

 In RI-MP2 calculation: 
 # of frozen core orbitals: 11

 Components of the RIMP2 correlation energy:
        aaaa    correlation energy =        -0.1460934228 a.u.
        abab    correlation energy =        -0.8885258159 a.u.
        bbbb    correlation energy =        -0.1460934228 a.u.
        non-Brillouin singles      =        -0.0000000000 a.u.
        total same-spin energy     =        -0.2921868456 a.u.
        total opposite-spin energy =        -0.8885258159 a.u.

 Total  RIMP2   correlation energy =        -1.1807126615 a.u.
        RIMP2         total energy =      -630.5913178089 a.u.

 RI-MP2 Energy Time:  CPU 40.19 s  wall 0.72 s
 
 --------------------------------------------------------------
 
                    Orbital Energies (a.u.)
 --------------------------------------------------------------
 
 Alpha MOs
 -- Occupied --
-91.9762 -11.2740 -11.2598 -11.2475 -11.2346 -11.2278 -11.2147  -8.9762
 -6.6571  -6.6566  -6.6561  -1.1627  -1.0526  -0.9994  -0.9374  -0.8849
 -0.7428  -0.7247  -0.6462  -0.5895  -0.5780  -0.5698  -0.5566  -0.5413
 -0.5124  -0.4776  -0.4684  -0.4413  -0.3358  -0.3021
 -- Virtual --
  0.0951   0.1444   0.1540   0.1776   0.1867   0.1896   0.2006   0.2236
  0.2336   0.2457   0.2489   0.2698   0.2989   0.3083   0.3425   0.3631
  0.3777   0.3930   0.4092   0.4155   0.4343   0.4546   0.4708   0.4803
  0.4960   0.5011   0.5150   0.5312   0.5399   0.5476   0.5739   0.5818
  0.6006   0.6094   0.6133   0.6293   0.6382   0.6421   0.6453   0.6514
  0.6569   0.6633   0.6795   0.6928   0.7397   0.7431   0.7554   0.7645
  0.8065   0.8268   0.8300   0.8414   0.8673   0.8811   0.9009   0.9251
  0.9437   0.9669   1.0072   1.0195   1.0248   1.0485   1.0668   1.0725
  1.0801   1.1056   1.1116   1.1609   1.1724   1.1796   1.1976   1.2065
  1.2130   1.2262   1.2497   1.2586   1.2695   1.2979   1.3176   1.3289
  1.3419   1.3766   1.3885   1.4029   1.4237   1.4304   1.4558   1.4784
  1.4923   1.4989   1.5158   1.5317   1.5547   1.5606   1.5745   1.5846
  1.6066   1.6263   1.6396   1.6710   1.6796   1.7065   1.7132   1.7422
  1.7677   1.7827   1.8120   1.8224   1.8856   1.9077   1.9361   1.9654
  1.9916   2.0349   2.1010   2.1321   2.1701   2.1916   2.2189   2.2417
  2.2552   2.2753   2.3442   2.4104   2.4550   2.4967   2.5365   2.5651
  2.5756   2.5917   2.6381   2.6500   2.6758   2.6798   2.6971   2.7374
  2.7526   2.7620   2.7899   2.7996   2.8090   2.8287   2.8457   2.8740
  2.9002   2.9358   2.9512   2.9675   2.9787   3.0068   3.0421   3.0678
  3.0995   3.1102   3.1154   3.1432   3.1574   3.1612   3.1819   3.1939
  3.2123   3.2474   3.2593   3.2740   3.2959   3.3022   3.3205   3.3240
  3.3418   3.3587   3.3749   3.3785   3.4036   3.4135   3.4264   3.4421
  3.4492   3.4765   3.4863   3.5007   3.5033   3.5290   3.5430   3.5603
  3.5891   3.5907   3.6145   3.6246   3.6409   3.6520   3.6700   3.6828
  3.6926   3.7027   3.7219   3.7364   3.7501   3.7625   3.7807   3.7932
  3.7991   3.8492   3.8772   3.8827   3.9044   3.9254   3.9447   3.9659
  3.9767   3.9902   3.9969   4.0236   4.0537   4.0792   4.0894   4.1016
  4.1364   4.1416   4.1583   4.1707   4.2097   4.2217   4.2309   4.2324
  4.2743   4.2917   4.3018   4.3304   4.3662   4.3776   4.3955   4.4017
  4.4072   4.4267   4.4426   4.4678   4.4861   4.5099   4.5603   4.5712
  4.6164   4.6412   4.6652   4.6883   4.7070   4.7586   4.7722   4.8002
  4.8080   4.8270   4.8558   4.8968   4.9037   4.9220   5.0799   5.0937
  5.0953   5.1258   5.1835   5.2042   5.2336   5.2598   5.2850   5.3066
  5.3662   5.3988   5.4102   5.4310   5.4698   5.4934   5.5453   5.5626
  5.5841   5.6255   5.6280   5.6894   5.7218   5.8136   5.8314   5.8524
  5.9153   5.9677   6.0293   6.1156   6.2270   6.2399   6.2736   6.3517
  6.4319   6.4462   9.1919  11.4859  12.9000  13.8278  14.1908  14.2668
 --------------------------------------------------------------
 
          Ground-State Mulliken Net Atomic Charges

     Atom                 Charge (a.u.)
  ----------------------------------------
      1 C                     0.026290
      2 C                    -0.255496
      3 C                     0.031310
      4 H                     0.174933
      5 C                    -0.247695
      6 S                    -0.001561
      7 C                    -0.271230
      8 H                     0.101371
      9 H                     0.107195
     10 H                     0.106672
     11 C                    -0.372904
     12 H                     0.129310
     13 H                     0.125312
     14 H                     0.153305
     15 H                     0.193188
  ----------------------------------------
  Sum of atomic charges =     0.000000

 -----------------------------------------------------------------
                    Cartesian Multipole Moments
 -----------------------------------------------------------------
    Charge (ESU x 10^10)
                -0.0000
    Dipole Moment (Debye)
         X       0.8965      Y      -0.0460      Z       2.1523
       Tot       2.3320
    Quadrupole Moments (Debye-Ang)
        XX     -52.4856     XY       2.7314     YY     -44.0294
        XZ      -0.2577     YZ      -0.9331     ZZ     -48.7651
    Octopole Moments (Debye-Ang^2)
       XXX     -44.9121    XXY     -25.1010    XYY      -5.9102
       YYY     -71.8203    XXZ      -3.1736    XYZ      -0.1376
       YYZ      -2.7405    XZZ     -12.9390    YZZ     -21.2395
       ZZZ      -0.9794
    Hexadecapole Moments (Debye-Ang^3)
      XXXX    -177.7010   XXXY    -118.9587   XXYY    -147.9653
      XYYY    -110.1616   YYYY    -717.4867   XXXZ     -39.2755
      XXYZ     -29.9515   XYYZ     -20.3872   YYYZ     -96.6960
      XXZZ    -115.7890   XYZZ     -33.2966   YYZZ    -202.4168
      XZZZ     -41.9835   YZZZ     -89.5134   ZZZZ    -489.6810
 -----------------------------------------------------------------
 Total job time:  15.92s(wall), 762.00s(cpu) 
 Fri Dec 15 13:56:56 2023

        *************************************************************
        *                                                           *
        *  Thank you very much for using Q-Chem.  Have a nice day.  *
        *                                                           *
        *************************************************************


0 sent ACK to 0 
now end server 0 ... 
cleanup process ... done
remove work dirs ./qchem640588.0 -- ./qchem640588.0
rm -rf ./qchem640588.0
rm -rf ./qchem640588
