You are running Q-Chem version: 5.4.0

#
# job setting
#
local host:  exp-7-24
current dir: /home/rramji/project-csd799/aromodel/p3ht-qchem/methylated-rotation-run
input file:  Methylthiophene_Phi_50_Theta_340_Methylthiophene_Hydrogenated_Improper.qcin
output file: 
nprocs     : 1
nthreads   : 64
#
# qchem installation setting
#
QC:          /cm/shared/apps/spack/cpu/opt/spack/linux-centos8-zen2/gcc-10.2.0/qchem-5.4-akfmr7b3t57bfs6qan3padb2wnb2i7cl
QCAUX:       /cm/shared/apps/spack/cpu/opt/spack/linux-centos8-zen2/gcc-10.2.0/qchem-5.4-akfmr7b3t57bfs6qan3padb2wnb2i7cl/qcaux
QCPROG:      /cm/shared/apps/spack/cpu/opt/spack/linux-centos8-zen2/gcc-10.2.0/qchem-5.4-akfmr7b3t57bfs6qan3padb2wnb2i7cl/exe/qcprog.exe
QCPROG_S:    /cm/shared/apps/spack/cpu/opt/spack/linux-centos8-zen2/gcc-10.2.0/qchem-5.4-akfmr7b3t57bfs6qan3padb2wnb2i7cl/exe/qcprog.exe_s
PARALLEL:    -DPARALLEL
QCMPI:       mpich
#
# qchem directory setting
#
qcrun:       qchem53919
QCSCRATCH:   .
QCLOCALSCR:  
QCTMPDIR:    .
QCFILEPREF:  ./qchem53919
QCSAVEDIR:   
workdirs:    ./qchem53919
workdir0:    ./qchem53919
partmpdirs =  
#
# parallel setting
#
QCRSH:           ssh
QCMPI:           mpich
QCMPIRUN:        /cm/shared/apps/spack/cpu/opt/spack/linux-centos8-zen2/gcc-10.2.0/qchem-5.4-akfmr7b3t57bfs6qan3padb2wnb2i7cl/bin/mpi/mpirun_qchem
QCMACHINEFILE:   ./qchem53919/hostfile
exp-7-24

#
# env setting
#
exported envs:   QC QCAUX QCSCRATCH QCRUNNAME QCFILEPREF QCPROG QCPROG_S GUIFILE

Running Job 1 of 1 Methylthiophene_Phi_50_Theta_340_Methylthiophene_Hydrogenated_Improper.qcin
qchem Methylthiophene_Phi_50_Theta_340_Methylthiophene_Hydrogenated_Improper.qcin_53919.0 ./qchem53919/ 1
/cm/shared/apps/spack/cpu/opt/spack/linux-centos8-zen2/gcc-10.2.0/qchem-5.4-akfmr7b3t57bfs6qan3padb2wnb2i7cl/bin/mpi/mpirun_qchem -machinefile ./qchem53919/hostfile -np 1 /cm/shared/apps/spack/cpu/opt/spack/linux-centos8-zen2/gcc-10.2.0/qchem-5.4-akfmr7b3t57bfs6qan3padb2wnb2i7cl/exe/qcprog.exe Methylthiophene_Phi_50_Theta_340_Methylthiophene_Hydrogenated_Improper.qcin_53919.0 ./qchem53919/

Process 0 of 1 is on exp-7-24 - thread support 0
initial socket setup ...start
initial socket setup ...done 
now start server 0 ... 
                  Welcome to Q-Chem
     A Quantum Leap Into The Future Of Chemistry


 Q-Chem 5.4, Q-Chem, Inc., Pleasanton, CA (2021)

 License issued to: University of California, San Diego (site)

 E. Epifanovsky,  A. T. B. Gilbert,  Xintian Feng,  Joonho Lee,  Yuezhi Mao,  
 N. Mardirossian,  P. Pokhilko,  A. White,  M. Wormit,  M. P. Coons,  
 A. L. Dempwolff,  Zhengting Gan,  D. Hait,  P. R. Horn,  L. D. Jacobson,  
 I. Kaliman,  J. Kussmann,  A. W. Lange,  Ka Un Lao,  D. S. Levine,  Jie Liu,  
 S. C. McKenzie,  A. F. Morrison,  K. Nanda,  F. Plasser,  D. R. Rehn,  
 M. L. Vidal,  Zhi-Qiang You,  Ying Zhu,  B. Alam,  B. Albrecht,  
 A. Aldossary,  E. Alguire,  J. H. Andersen,  D. Barton,  K. Begam,  A. Behn,  
 Y. A. Bernard,  E. J. Berquist,  H. Burton,  A. Carreras,  K. Carter-Fenk,  
 R. Chakraborty,  A. D. Chien,  K. D. Closser,  V. Cofer-Shabica,  
 S. Dasgupta,  Jia Deng,  M. de Wergifosse,  M. Diedenhofen,  Hainam Do,  
 S. Ehlert,  Po-Tung Fang,  S. Fatehi,  Qingguo Feng,  J. Gayvert,  
 Qinghui Ge,  G. Gidofalvi,  M. Goldey,  J. Gomes,  C. Gonzalez-Espinoza,  
 S. Gulania,  A. Gunina,  M. W. D. Hanson-Heine,  P. H. P. Harbach,  
 A. W. Hauser,  M. F. Herbst,  M. Hernandez Vera,  M. Hodecker,  
 Z. C. Holden,  S. Houck,  Xunkun Huang,  Kerwin Hui,  B. C. Huynh,  
 M. Ivanov,  Hyunjun Ji,  Hanjie Jiang,  B. Kaduk,  S. Kaehler,  
 K. Khistyaev,  Jaehoon Kim,  P. Klunzinger,  Z. Koczor-Benda,  
 Joong Hoon Koh,  D. Kosenkov,  L. Koulias,  T. Kowalczyk,  C. M. Krauter,  
 K. Kue,  A. Kunitsa,  T. Kus,  A. Landau,  K. V. Lawler,  D. Lefrancois,  
 S. Lehtola,  Rain Li,  Yi-Pei Li,  Jiashu Liang,  M. Liebenthal,  
 Hung-Hsuan Lin,  You-Sheng Lin,  Fenglai Liu,  Kuan-Yu Liu,  
 M. Loipersberger,  A. Luenser,  A. Manjanath,  P. Manohar,  E. Mansoor,  
 S. F. Manzer,  Shan-Ping Mao,  A. V. Marenich,  T. Markovich,  S. Mason,  
 S. A. Maurer,  P. F. McLaughlin,  M. F. S. J. Menger,  J.-M. Mewes,  
 S. A. Mewes,  P. Morgante,  J. W. Mullinax,  T. S. Nguyen-Beck,  
 K. J. Oosterbaan,  G. Paran,  Alexander C. Paul,  Suranjan K. Paul,  
 F. Pavosevic,  Zheng Pei,  S. Prager,  E. I. Proynov,  E. Ramos,  B. Rana,  
 A. E. Rask,  A. Rettig,  R. M. Richard,  F. Rob,  E. Rossomme,  T. Scheele,  
 M. Scheurer,  M. Schneider,  N. Sergueev,  S. M. Sharada,  W. Skomorowski,  
 D. W. Small,  C. J. Stein,  Yu-Chuan Su,  E. J. Sundstrom,  Zhen Tao,  
 J. Thirman,  T. Tsuchimochi,  N. M. Tubman,  S. P. Veccham,  O. Vydrov,  
 J. Wenzel,  J. Witte,  A. Yamada,  Kun Yao,  S. Yeganeh,  S. R. Yost,  
 A. Zech,  Igor Ying Zhang,  Xing Zhang,  Yu Zhang,  D. Zuev,  
 A. Aspuru-Guzik,  A. T. Bell,  N. A. Besley,  K. B. Bravaya,  B. R. Brooks,  
 D. Casanova,  Jeng-Da Chai,  S. Coriani,  C. J. Cramer,  
 A. E. DePrince, III,  R. A. DiStasio Jr.,  A. Dreuw,  B. D. Dunietz,  
 T. R. Furlani,  W. A. Goddard III,  S. Grimme,  S. Hammes-Schiffer,  
 T. Head-Gordon,  W. J. Hehre,  Chao-Ping Hsu,  T.-C. Jagau,  Yousung Jung,  
 A. Klamt,  Jing Kong,  D. S. Lambrecht,  WanZhen Liang,  N. J. Mayhall,  
 C. W. McCurdy,  J. B. Neaton,  C. Ochsenfeld,  J. A. Parkhill,  R. Peverati,  
 V. A. Rassolov,  Yihan Shao,  L. V. Slipchenko,  T. Stauch,  R. P. Steele,  
 J. E. Subotnik,  A. J. W. Thom,  A. Tkatchenko,  D. G. Truhlar,  
 T. Van Voorhis,  T. A. Wesolowski,  K. B. Whaley,  H. L. Woodcock III,  
 P. M. Zimmerman,  S. Faraji,  P. M. W. Gill,  M. Head-Gordon,  
 J. M. Herbert,  A. I. Krylov

 Contributors to earlier versions of Q-Chem not listed above: 
 R. D. Adamson,  B. Austin,  R. Baer,  J. Baker,  G. J. O. Beran,  
 K. Brandhorst,  S. T. Brown,  E. F. C. Byrd,  A. K. Chakraborty,  
 G. K. L. Chan,  Chun-Min Chang,  Yunqing Chen,  C.-L. Cheng,  
 Siu Hung Chien,  D. M. Chipman,  D. L. Crittenden,  H. Dachsel,  
 R. J. Doerksen,  A. D. Dutoi,  R. G. Edgar,  J. Fosso-Tande,  
 L. Fusti-Molnar,  D. Ghosh,  A. Ghysels,  A. Golubeva-Zadorozhnaya,  
 J. Gonthier,  M. S. Gordon,  S. R. Gwaltney,  G. Hawkins,  J. E. Herr,  
 A. Heyden,  S. Hirata,  E. G. Hohenstein,  G. Kedziora,  F. J. Keil,  
 C. Kelley,  Jihan Kim,  R. A. King,  R. Z. Khaliullin,  P. P. Korambath,  
 W. Kurlancheek,  A. Laurent,  A. M. Lee,  M. S. Lee,  S. V. Levchenko,  
 Ching Yeh Lin,  D. Liotard,  E. Livshits,  R. C. Lochan,  I. Lotan,  
 L. A. Martinez-Martinez,  P. E. Maslen,  N. Nair,  D. P. O'Neill,  
 D. Neuhauser,  E. Neuscamman,  C. M. Oana,  R. Olivares-Amaya,  R. Olson,  
 T. M. Perrine,  B. Peters,  P. A. Pieniazek,  A. Prociuk,  Y. M. Rhee,  
 J. Ritchie,  M. A. Rohrdanz,  E. Rosta,  N. J. Russ,  H. F. Schaefer III,  
 M. W. Schmidt,  N. E. Schultz,  S. Sharma,  N. Shenvi,  C. D. Sherrill,  
 A. C. Simmonett,  A. Sodt,  T. Stein,  D. Stuck,  K. S. Thanthiriwatte,  
 V. Vanovschi,  L. Vogt,  Tao Wang,  A. Warshel,  M. A. Watson,  
 C. F. Williams,  Q. Wu,  X. Xu,  Jun Yang,  W. Zhang,  Yan Zhao

 Please cite Q-Chem as follows:
 Y. Shao et al., Mol. Phys. 113, 184-215 (2015)
 DOI: 10.1080/00268976.2014.952696

 Q-Chem 5.4.0 for Intel X86 EM64T Linux

 Parts of Q-Chem use Armadillo 9.800.1 (Horizon Scraper).
 http://arma.sourceforge.net/

 Q-Chem begins on Fri Dec 15 14:07:23 2023  

 Host: 
0

     Scratch files written to ./qchem53919//
 May1621 |scratch|qcdevops|jenkins|workspace|build_RNUM    
 Parallel job on  1  processors
 Processing $rem in /cm/shared/apps/spack/cpu/opt/spack/linux-centos8-zen2/gcc-10.2.0/qchem-5.4-akfmr7b3t57bfs6qan3padb2wnb2i7cl/config/preferences:
 Processing $rem in /home/rramji/.qchemrc:
 Symmetry turned off for PCM/SM12/SMD calculation
 Core orbitals will be frozen

 Checking the input file for inconsistencies... 	...done.

 Q-Chem warning in module forms1/BasisType.C, line 2236:

 You are not using the predefined 5D/6D in this basis set.


--------------------------------------------------------------
User input:
--------------------------------------------------------------
$molecule
0 1
C	-0.523366	-0.335659	0.002446
C	0.121634	0.209641	1.115446
C	1.184234	1.107341	0.823046
H	-0.174766	-0.040859	2.145346
C	1.373834	1.267341	-0.561154
S	0.217834	0.291041	-1.462254
C	1.997434	1.794341	1.884846
H	1.655234	1.505341	2.897446
H	1.922634	2.899441	1.810546
H	3.074434	1.535941	1.810646
C	-0.523366	-1.785759	0.002446
H	0.491534	-1.786259	-0.366954
H	-0.202666	-2.320859	0.884046
H	-0.808666	-2.472959	-0.780354
H	2.105634	1.885641	-1.094654
$end

$rem
JOBTYPE		SP
EXCHANGE	HF
CORRELATION	pRIMP2
BASIS		cc-pvtz
METHOD		rimp2
AUX_BASIS	rimp2-cc-pvtz
SOLVENT_METHOD	PCM
PURECART	11111
SYMMETRY	false
MEM_TOTAL	110000
SCF_CONVERGENCE = 6
THRESH=10
GUI = 2
$end



$solvent
dielectric 4.90
$end
--------------------------------------------------------------
 ----------------------------------------------------------------
             Standard Nuclear Orientation (Angstroms)
    I     Atom           X                Y                Z
 ----------------------------------------------------------------
    1      C      -0.5233660000    -0.3356590000     0.0024460000
    2      C       0.1216340000     0.2096410000     1.1154460000
    3      C       1.1842340000     1.1073410000     0.8230460000
    4      H      -0.1747660000    -0.0408590000     2.1453460000
    5      C       1.3738340000     1.2673410000    -0.5611540000
    6      S       0.2178340000     0.2910410000    -1.4622540000
    7      C       1.9974340000     1.7943410000     1.8848460000
    8      H       1.6552340000     1.5053410000     2.8974460000
    9      H       1.9226340000     2.8994410000     1.8105460000
   10      H       3.0744340000     1.5359410000     1.8106460000
   11      C      -0.5233660000    -1.7857590000     0.0024460000
   12      H       0.4915340000    -1.7862590000    -0.3669540000
   13      H      -0.2026660000    -2.3208590000     0.8840460000
   14      H      -0.8086660000    -2.4729590000    -0.7803540000
   15      H       2.1056340000     1.8856410000    -1.0946540000
 ----------------------------------------------------------------
 Nuclear Repulsion Energy =         349.64776755 hartrees
 There are       30 alpha and       30 beta electrons
 Requested basis set is cc-pVTZ
 There are 120 shells and 326 basis functions

 Total QAlloc Memory Limit 110000 MB
 Mega-Array Size       188 MB
 MEM_STATIC part       192 MB
 Discretize the solute cavity surface with Lebedev spheres
	Using 110 Lebedev grid points for each H atom
	Using 194 Lebedev grid points for other atoms
	Atomic van der Waals radii will be scaled by 1.20
 Remove points where switching function is < 1.0e-08
 Keep 1040 surface tesserae and discard 1198 interior tesserae
 Molecular Surface Area = 156.258 Angst**2

                       Distance Matrix (Angstroms)
             C (  1)   C (  2)   C (  3)   H (  4)   C (  5)   S (  6)
   C (  2)  1.397192
   C (  3)  2.381498  1.421437
   H (  4)  2.190993  1.100589  2.216692
   C (  5)  2.546885  2.344722  1.406257  3.381522
   S (  6)  1.757122  2.580779  2.612063  3.644046  1.761102
   C (  7)  3.799311  2.573301  1.503557  2.855569  2.578667  4.077985
   H (  8)  4.064062  2.684454  2.164112  2.511033  3.478181  4.748434
   H (  9)  4.440497  3.310859  2.175319  3.627195  2.930852  4.518995
   H ( 10)  4.440342  3.310801  2.175295  3.627068  2.930806  4.519050
   C ( 11)  1.450100  2.374114  3.458223  2.785358  3.638466  2.647229
   H ( 12)  1.808513  2.513554  3.204505  3.130819  3.184437  2.364269
   H ( 13)  2.195697  2.561669  3.698617  2.605774  4.177216  3.536095
   H ( 14)  2.293954  3.414068  4.400124  3.857027  4.336035  3.026283
   H ( 15)  3.612401  3.410245  2.265458  4.405590  1.096562  2.498333
             C (  7)   H (  8)   H (  9)   H ( 10)   C ( 11)   H ( 12)
   H (  8)  1.107240
   H (  9)  1.110118  1.787839
   H ( 10)  1.110047  1.787792  1.784874
   C ( 11)  4.766023  4.894759  5.585986  5.219908
   H ( 12)  4.489881  4.779659  5.361468  4.738178  1.080036
   H ( 13)  4.772516  4.705888  5.711990  5.145180  1.080000  1.527322
   H ( 14)  5.760845  5.951797  6.560141  6.153294  1.080007  1.527408
   H ( 15)  2.982862  4.035387  3.082445  3.082472  4.646983  4.076483
             H ( 13)   H ( 14)
   H ( 14)  1.777807
   H ( 15)  5.190197  5.252554
 
 Requested basis set is rimp2-cc-pVTZ
 There are 250 shells and 848 basis functions
 A cutoff of  1.0D-10 yielded   6358 shell pairs
 There are     46702 function pairs (     60059 Cartesian)
 Smallest overlap matrix eigenvalue = 1.32E-04

 Scale SEOQF with 1.000000e-01/1.000000e-01/1.000000e-01

 Standard Electronic Orientation quadrupole field applied
 Nucleus-field energy     =    -0.0000000009 hartrees
 Guess from superposition of atomic densities
 Warning:  Energy on first SCF cycle will be non-variational
 SAD guess density has 60.000000 electrons

 -----------------------------------------------------------------------
  General SCF calculation program by
  Eric Jon Sundstrom, Paul Horn, Yuezhi Mao, Dmitri Zuev, Alec White,
  David Stuck, Shaama M.S., Shane Yost, Joonho Lee, David Small,
  Daniel Levine, Susi Lehtola, Hugh Burton, Evgeny Epifanovsky,
  Bang C. Huynh
 -----------------------------------------------------------------------
 Hartree-Fock
 using 64 threads for integral computing
 -------------------------------------------------------
 OpenMP Integral computing Module                
 Release: version 1.0, May 2013, Q-Chem Inc. Pittsburgh 
 -------------------------------------------------------
 A restricted SCF calculation will be
 performed using DIIS
 SCF converges when DIIS error is below 1.0e-06
 ---------------------------------------
  Cycle       Energy         DIIS error
 ---------------------------------------
    1    -632.1760805678      2.94e-02  
    2    -629.2960324375      1.92e-03  
    3    -629.3667306939      6.53e-04  
    4    -629.3741172446      3.25e-04  
    5    -629.3760334124      6.29e-05  
    6    -629.3761766601      2.57e-05  
    7    -629.3762150703      1.22e-05  
    8    -629.3762263998      4.32e-06  
    9    -629.3762280158      1.84e-06  
   10    -629.3762281878      6.12e-07  Convergence criterion met
 ---------------------------------------
 SCF time:   CPU 671.05s  wall 14.00s 

************** Final PCM Free Energy Summary **************
 G_electrostatic  =      -0.00552157 hartree =      -3.46483493 kcal/mol
 G_cavitation     =       0.00000000 hartree =       0.00000000 kcal/mol
 G_dispersion     =       0.00000000 hartree =       0.00000000 kcal/mol
 G_repulsion      =       0.00000000 hartree =       0.00000000 kcal/mol
 --------------------------------------------------
 Non-electrostatic Free Energy =       0.00000000 hartree =       0.00000000 kcal/mol
 Total                         =      -0.00552157 hartree =      -3.46483493 kcal/mol
 --------------------------------------------------
 SCF Energy (H0 + V/2)                       =    -629.37622819 
 Solute Internal Energy (H0)                 =    -629.37070662 
 Total Free Energy (H0 + V/2 + non-elec)     =    -629.37622819 hartree
                                             = -394939.54401012 kcal/mol
***********************************************************

 SCF   energy in the final basis set =     -629.3762281878
 Total energy in the final basis set =     -629.3762281878


 --------------------------------------------------------------
  Generalized many-body perturbation theory program
  by Joonho Lee, Fazle Rob, Xintian Feng, Evgeny Epifanovsky

 No regularization used 
 (reg. param. = 0.0000e+00)
  (P|Q)^-1/2 Time:  CPU 6.85 s  wall 0.11 s

 In RI-MP2 calculation: 
 # of frozen core orbitals: 11

 Components of the RIMP2 correlation energy:
        aaaa    correlation energy =        -0.1469277548 a.u.
        abab    correlation energy =        -0.8924338008 a.u.
        bbbb    correlation energy =        -0.1469277548 a.u.
        non-Brillouin singles      =        -0.0000000000 a.u.
        total same-spin energy     =        -0.2938555097 a.u.
        total opposite-spin energy =        -0.8924338008 a.u.

 Total  RIMP2   correlation energy =        -1.1862893104 a.u.
        RIMP2         total energy =      -630.5625174983 a.u.

 RI-MP2 Energy Time:  CPU 46.07 s  wall 0.79 s
 
 --------------------------------------------------------------
 
                    Orbital Energies (a.u.)
 --------------------------------------------------------------
 
 Alpha MOs
 -- Occupied --
-91.9724 -11.2694 -11.2672 -11.2498 -11.2390 -11.2287 -11.2165  -8.9736
 -6.6545  -6.6538  -6.6533  -1.1716  -1.0570  -0.9960  -0.9397  -0.8813
 -0.7501  -0.7254  -0.6438  -0.5873  -0.5854  -0.5659  -0.5518  -0.5456
 -0.5096  -0.4954  -0.4601  -0.4415  -0.3399  -0.2903
 -- Virtual --
  0.0766   0.1429   0.1579   0.1770   0.1837   0.1924   0.2095   0.2130
  0.2240   0.2452   0.2514   0.2585   0.2935   0.3171   0.3400   0.3456
  0.3680   0.3942   0.4012   0.4190   0.4379   0.4478   0.4639   0.4680
  0.4859   0.4908   0.5196   0.5287   0.5484   0.5514   0.5687   0.5809
  0.5865   0.6024   0.6088   0.6183   0.6330   0.6337   0.6434   0.6479
  0.6535   0.6729   0.6851   0.6986   0.7123   0.7448   0.7468   0.7760
  0.7991   0.8130   0.8289   0.8599   0.8749   0.8782   0.8838   0.9328
  0.9575   0.9621   1.0112   1.0391   1.0496   1.0563   1.0776   1.0789
  1.0850   1.0994   1.1373   1.1523   1.1653   1.1798   1.1930   1.2152
  1.2262   1.2421   1.2451   1.2635   1.2790   1.3021   1.3191   1.3298
  1.3458   1.3781   1.3902   1.4017   1.4195   1.4274   1.4480   1.4731
  1.4785   1.5028   1.5099   1.5243   1.5385   1.5614   1.5642   1.5736
  1.5935   1.6246   1.6440   1.6674   1.6916   1.7018   1.7153   1.7318
  1.7553   1.7903   1.8024   1.8214   1.8806   1.9287   1.9458   1.9732
  1.9878   2.0524   2.0786   2.1485   2.1555   2.1831   2.2110   2.2147
  2.2747   2.2783   2.3509   2.4119   2.4158   2.4864   2.5022   2.5368
  2.5600   2.5852   2.6356   2.6495   2.6799   2.6865   2.7108   2.7309
  2.7416   2.7634   2.7881   2.8122   2.8322   2.8443   2.8632   2.9064
  2.9322   2.9602   2.9782   2.9912   3.0070   3.0371   3.0470   3.0741
  3.0935   3.1110   3.1123   3.1292   3.1508   3.1603   3.1710   3.1902
  3.2069   3.2403   3.2478   3.2547   3.2829   3.2907   3.3018   3.3349
  3.3376   3.3513   3.3627   3.3835   3.3928   3.4019   3.4171   3.4428
  3.4506   3.4755   3.4889   3.5003   3.5198   3.5274   3.5514   3.5610
  3.5697   3.5889   3.6002   3.6260   3.6326   3.6552   3.6830   3.6966
  3.7054   3.7164   3.7346   3.7519   3.7628   3.7746   3.7954   3.8036
  3.8138   3.8525   3.8611   3.9003   3.9191   3.9264   3.9451   3.9618
  3.9979   4.0284   4.0300   4.0458   4.0559   4.0644   4.1010   4.1130
  4.1373   4.1645   4.1796   4.2069   4.2177   4.2302   4.2535   4.2658
  4.2938   4.2958   4.3227   4.3246   4.3652   4.3792   4.4011   4.4025
  4.4280   4.4376   4.4611   4.4766   4.5115   4.5271   4.5567   4.5851
  4.5876   4.6443   4.6526   4.6906   4.7146   4.7193   4.7609   4.7802
  4.8198   4.8494   4.8674   4.8765   4.9027   4.9316   5.0026   5.0867
  5.1138   5.1222   5.1673   5.1904   5.2198   5.2546   5.2930   5.3308
  5.3664   5.3966   5.4205   5.4525   5.4804   5.5109   5.5472   5.5527
  5.5891   5.6037   5.6256   5.6693   5.6939   5.8024   5.8502   5.8814
  5.9000   5.9865   6.0452   6.1237   6.2184   6.2290   6.2598   6.3418
  6.4303   6.4761   9.2686  11.6623  12.8148  13.6419  14.1694  14.3846
 --------------------------------------------------------------
 
          Ground-State Mulliken Net Atomic Charges

     Atom                 Charge (a.u.)
  ----------------------------------------
      1 C                    -0.015869
      2 C                    -0.228503
      3 C                     0.022007
      4 H                     0.180309
      5 C                    -0.228434
      6 S                    -0.003651
      7 C                    -0.268469
      8 H                     0.102162
      9 H                     0.107906
     10 H                     0.106057
     11 C                    -0.366011
     12 H                     0.130607
     13 H                     0.129854
     14 H                     0.136622
     15 H                     0.195414
  ----------------------------------------
  Sum of atomic charges =     0.000000

 -----------------------------------------------------------------
                    Cartesian Multipole Moments
 -----------------------------------------------------------------
    Charge (ESU x 10^10)
                -0.0000
    Dipole Moment (Debye)
         X       2.1409      Y      -0.2301      Z       1.5199
       Tot       2.6356
    Quadrupole Moments (Debye-Ang)
        XX     -50.1575     XY       3.7902     YY     -47.9090
        XZ       0.2750     YZ       0.6326     ZZ     -48.2002
    Octopole Moments (Debye-Ang^2)
       XXX     -73.1409    XXY      -7.5751    XYY     -18.5298
       YYY     -50.8004    XXZ      -4.7657    XYZ      -2.6500
       YYZ      -4.7323    XZZ     -23.6357    YZZ     -14.8386
       ZZZ       1.0840
    Hexadecapole Moments (Debye-Ang^3)
      XXXX    -392.0419   XXXY    -150.2848   XXYY    -141.9159
      XYYY    -155.3876   YYYY    -482.2871   XXXZ     -77.6447
      XXYZ     -25.3338   XYYZ     -26.1405   YYYZ     -62.6532
      XXZZ    -145.5396   XYZZ     -43.9638   YYZZ    -160.8258
      XZZZ     -78.9768   YZZZ     -66.0474   ZZZZ    -489.7259
 -----------------------------------------------------------------
 Total job time:  15.78s(wall), 764.22s(cpu) 
 Fri Dec 15 14:07:39 2023

        *************************************************************
        *                                                           *
        *  Thank you very much for using Q-Chem.  Have a nice day.  *
        *                                                           *
        *************************************************************


0 sent ACK to 0 
now end server 0 ... 
cleanup process ... done
remove work dirs ./qchem53919.0 -- ./qchem53919.0
rm -rf ./qchem53919.0
rm -rf ./qchem53919
