You are running Q-Chem version: 5.4.0

#
# job setting
#
local host:  exp-7-23
current dir: /home/rramji/project-csd799/aromodel/p3ht-qchem/methylated-rotation-run
input file:  Methylthiophene_Phi_25_Theta_210_Methylthiophene_Hydrogenated_Improper.qcin
output file: 
nprocs     : 1
nthreads   : 64
#
# qchem installation setting
#
QC:          /cm/shared/apps/spack/cpu/opt/spack/linux-centos8-zen2/gcc-10.2.0/qchem-5.4-akfmr7b3t57bfs6qan3padb2wnb2i7cl
QCAUX:       /cm/shared/apps/spack/cpu/opt/spack/linux-centos8-zen2/gcc-10.2.0/qchem-5.4-akfmr7b3t57bfs6qan3padb2wnb2i7cl/qcaux
QCPROG:      /cm/shared/apps/spack/cpu/opt/spack/linux-centos8-zen2/gcc-10.2.0/qchem-5.4-akfmr7b3t57bfs6qan3padb2wnb2i7cl/exe/qcprog.exe
QCPROG_S:    /cm/shared/apps/spack/cpu/opt/spack/linux-centos8-zen2/gcc-10.2.0/qchem-5.4-akfmr7b3t57bfs6qan3padb2wnb2i7cl/exe/qcprog.exe_s
PARALLEL:    -DPARALLEL
QCMPI:       mpich
#
# qchem directory setting
#
qcrun:       qchem645310
QCSCRATCH:   .
QCLOCALSCR:  
QCTMPDIR:    .
QCFILEPREF:  ./qchem645310
QCSAVEDIR:   
workdirs:    ./qchem645310
workdir0:    ./qchem645310
partmpdirs =  
#
# parallel setting
#
QCRSH:           ssh
QCMPI:           mpich
QCMPIRUN:        /cm/shared/apps/spack/cpu/opt/spack/linux-centos8-zen2/gcc-10.2.0/qchem-5.4-akfmr7b3t57bfs6qan3padb2wnb2i7cl/bin/mpi/mpirun_qchem
QCMACHINEFILE:   ./qchem645310/hostfile
exp-7-23

#
# env setting
#
exported envs:   QC QCAUX QCSCRATCH QCRUNNAME QCFILEPREF QCPROG QCPROG_S GUIFILE

Running Job 1 of 1 Methylthiophene_Phi_25_Theta_210_Methylthiophene_Hydrogenated_Improper.qcin
qchem Methylthiophene_Phi_25_Theta_210_Methylthiophene_Hydrogenated_Improper.qcin_645310.0 ./qchem645310/ 1
/cm/shared/apps/spack/cpu/opt/spack/linux-centos8-zen2/gcc-10.2.0/qchem-5.4-akfmr7b3t57bfs6qan3padb2wnb2i7cl/bin/mpi/mpirun_qchem -machinefile ./qchem645310/hostfile -np 1 /cm/shared/apps/spack/cpu/opt/spack/linux-centos8-zen2/gcc-10.2.0/qchem-5.4-akfmr7b3t57bfs6qan3padb2wnb2i7cl/exe/qcprog.exe Methylthiophene_Phi_25_Theta_210_Methylthiophene_Hydrogenated_Improper.qcin_645310.0 ./qchem645310/

Process 0 of 1 is on exp-7-23 - thread support 0
initial socket setup ...start
initial socket setup ...done 
now start server 0 ... 
                  Welcome to Q-Chem
     A Quantum Leap Into The Future Of Chemistry


 Q-Chem 5.4, Q-Chem, Inc., Pleasanton, CA (2021)

 License issued to: University of California, San Diego (site)

 E. Epifanovsky,  A. T. B. Gilbert,  Xintian Feng,  Joonho Lee,  Yuezhi Mao,  
 N. Mardirossian,  P. Pokhilko,  A. White,  M. Wormit,  M. P. Coons,  
 A. L. Dempwolff,  Zhengting Gan,  D. Hait,  P. R. Horn,  L. D. Jacobson,  
 I. Kaliman,  J. Kussmann,  A. W. Lange,  Ka Un Lao,  D. S. Levine,  Jie Liu,  
 S. C. McKenzie,  A. F. Morrison,  K. Nanda,  F. Plasser,  D. R. Rehn,  
 M. L. Vidal,  Zhi-Qiang You,  Ying Zhu,  B. Alam,  B. Albrecht,  
 A. Aldossary,  E. Alguire,  J. H. Andersen,  D. Barton,  K. Begam,  A. Behn,  
 Y. A. Bernard,  E. J. Berquist,  H. Burton,  A. Carreras,  K. Carter-Fenk,  
 R. Chakraborty,  A. D. Chien,  K. D. Closser,  V. Cofer-Shabica,  
 S. Dasgupta,  Jia Deng,  M. de Wergifosse,  M. Diedenhofen,  Hainam Do,  
 S. Ehlert,  Po-Tung Fang,  S. Fatehi,  Qingguo Feng,  J. Gayvert,  
 Qinghui Ge,  G. Gidofalvi,  M. Goldey,  J. Gomes,  C. Gonzalez-Espinoza,  
 S. Gulania,  A. Gunina,  M. W. D. Hanson-Heine,  P. H. P. Harbach,  
 A. W. Hauser,  M. F. Herbst,  M. Hernandez Vera,  M. Hodecker,  
 Z. C. Holden,  S. Houck,  Xunkun Huang,  Kerwin Hui,  B. C. Huynh,  
 M. Ivanov,  Hyunjun Ji,  Hanjie Jiang,  B. Kaduk,  S. Kaehler,  
 K. Khistyaev,  Jaehoon Kim,  P. Klunzinger,  Z. Koczor-Benda,  
 Joong Hoon Koh,  D. Kosenkov,  L. Koulias,  T. Kowalczyk,  C. M. Krauter,  
 K. Kue,  A. Kunitsa,  T. Kus,  A. Landau,  K. V. Lawler,  D. Lefrancois,  
 S. Lehtola,  Rain Li,  Yi-Pei Li,  Jiashu Liang,  M. Liebenthal,  
 Hung-Hsuan Lin,  You-Sheng Lin,  Fenglai Liu,  Kuan-Yu Liu,  
 M. Loipersberger,  A. Luenser,  A. Manjanath,  P. Manohar,  E. Mansoor,  
 S. F. Manzer,  Shan-Ping Mao,  A. V. Marenich,  T. Markovich,  S. Mason,  
 S. A. Maurer,  P. F. McLaughlin,  M. F. S. J. Menger,  J.-M. Mewes,  
 S. A. Mewes,  P. Morgante,  J. W. Mullinax,  T. S. Nguyen-Beck,  
 K. J. Oosterbaan,  G. Paran,  Alexander C. Paul,  Suranjan K. Paul,  
 F. Pavosevic,  Zheng Pei,  S. Prager,  E. I. Proynov,  E. Ramos,  B. Rana,  
 A. E. Rask,  A. Rettig,  R. M. Richard,  F. Rob,  E. Rossomme,  T. Scheele,  
 M. Scheurer,  M. Schneider,  N. Sergueev,  S. M. Sharada,  W. Skomorowski,  
 D. W. Small,  C. J. Stein,  Yu-Chuan Su,  E. J. Sundstrom,  Zhen Tao,  
 J. Thirman,  T. Tsuchimochi,  N. M. Tubman,  S. P. Veccham,  O. Vydrov,  
 J. Wenzel,  J. Witte,  A. Yamada,  Kun Yao,  S. Yeganeh,  S. R. Yost,  
 A. Zech,  Igor Ying Zhang,  Xing Zhang,  Yu Zhang,  D. Zuev,  
 A. Aspuru-Guzik,  A. T. Bell,  N. A. Besley,  K. B. Bravaya,  B. R. Brooks,  
 D. Casanova,  Jeng-Da Chai,  S. Coriani,  C. J. Cramer,  
 A. E. DePrince, III,  R. A. DiStasio Jr.,  A. Dreuw,  B. D. Dunietz,  
 T. R. Furlani,  W. A. Goddard III,  S. Grimme,  S. Hammes-Schiffer,  
 T. Head-Gordon,  W. J. Hehre,  Chao-Ping Hsu,  T.-C. Jagau,  Yousung Jung,  
 A. Klamt,  Jing Kong,  D. S. Lambrecht,  WanZhen Liang,  N. J. Mayhall,  
 C. W. McCurdy,  J. B. Neaton,  C. Ochsenfeld,  J. A. Parkhill,  R. Peverati,  
 V. A. Rassolov,  Yihan Shao,  L. V. Slipchenko,  T. Stauch,  R. P. Steele,  
 J. E. Subotnik,  A. J. W. Thom,  A. Tkatchenko,  D. G. Truhlar,  
 T. Van Voorhis,  T. A. Wesolowski,  K. B. Whaley,  H. L. Woodcock III,  
 P. M. Zimmerman,  S. Faraji,  P. M. W. Gill,  M. Head-Gordon,  
 J. M. Herbert,  A. I. Krylov

 Contributors to earlier versions of Q-Chem not listed above: 
 R. D. Adamson,  B. Austin,  R. Baer,  J. Baker,  G. J. O. Beran,  
 K. Brandhorst,  S. T. Brown,  E. F. C. Byrd,  A. K. Chakraborty,  
 G. K. L. Chan,  Chun-Min Chang,  Yunqing Chen,  C.-L. Cheng,  
 Siu Hung Chien,  D. M. Chipman,  D. L. Crittenden,  H. Dachsel,  
 R. J. Doerksen,  A. D. Dutoi,  R. G. Edgar,  J. Fosso-Tande,  
 L. Fusti-Molnar,  D. Ghosh,  A. Ghysels,  A. Golubeva-Zadorozhnaya,  
 J. Gonthier,  M. S. Gordon,  S. R. Gwaltney,  G. Hawkins,  J. E. Herr,  
 A. Heyden,  S. Hirata,  E. G. Hohenstein,  G. Kedziora,  F. J. Keil,  
 C. Kelley,  Jihan Kim,  R. A. King,  R. Z. Khaliullin,  P. P. Korambath,  
 W. Kurlancheek,  A. Laurent,  A. M. Lee,  M. S. Lee,  S. V. Levchenko,  
 Ching Yeh Lin,  D. Liotard,  E. Livshits,  R. C. Lochan,  I. Lotan,  
 L. A. Martinez-Martinez,  P. E. Maslen,  N. Nair,  D. P. O'Neill,  
 D. Neuhauser,  E. Neuscamman,  C. M. Oana,  R. Olivares-Amaya,  R. Olson,  
 T. M. Perrine,  B. Peters,  P. A. Pieniazek,  A. Prociuk,  Y. M. Rhee,  
 J. Ritchie,  M. A. Rohrdanz,  E. Rosta,  N. J. Russ,  H. F. Schaefer III,  
 M. W. Schmidt,  N. E. Schultz,  S. Sharma,  N. Shenvi,  C. D. Sherrill,  
 A. C. Simmonett,  A. Sodt,  T. Stein,  D. Stuck,  K. S. Thanthiriwatte,  
 V. Vanovschi,  L. Vogt,  Tao Wang,  A. Warshel,  M. A. Watson,  
 C. F. Williams,  Q. Wu,  X. Xu,  Jun Yang,  W. Zhang,  Yan Zhao

 Please cite Q-Chem as follows:
 Y. Shao et al., Mol. Phys. 113, 184-215 (2015)
 DOI: 10.1080/00268976.2014.952696

 Q-Chem 5.4.0 for Intel X86 EM64T Linux

 Parts of Q-Chem use Armadillo 9.800.1 (Horizon Scraper).
 http://arma.sourceforge.net/

 Q-Chem begins on Fri Dec 15 14:01:21 2023  

 Host: 
0

     Scratch files written to ./qchem645310//
 May1621 |scratch|qcdevops|jenkins|workspace|build_RNUM    
 Parallel job on  1  processors
 Processing $rem in /cm/shared/apps/spack/cpu/opt/spack/linux-centos8-zen2/gcc-10.2.0/qchem-5.4-akfmr7b3t57bfs6qan3padb2wnb2i7cl/config/preferences:
 Processing $rem in /home/rramji/.qchemrc:
 Symmetry turned off for PCM/SM12/SMD calculation
 Core orbitals will be frozen

 Checking the input file for inconsistencies... 	...done.

 Q-Chem warning in module forms1/BasisType.C, line 2236:

 You are not using the predefined 5D/6D in this basis set.


--------------------------------------------------------------
User input:
--------------------------------------------------------------
$molecule
0 1
C	-0.280853	-0.513776	0.004064
C	0.073347	0.253024	1.117064
C	0.656947	1.515624	0.824664
H	-0.089553	-0.099276	2.146964
C	0.761147	1.740824	-0.559536
S	0.126047	0.367424	-1.460636
C	1.103547	2.482024	1.886464
H	0.915547	2.075424	2.899064
H	0.568747	3.451924	1.812164
H	2.188947	2.703024	1.812264
C	-0.280853	-1.963876	0.004064
H	-1.216153	-1.964376	-0.535936
H	0.188447	-2.498976	-0.808236
H	-0.697153	-2.651076	0.725764
H	1.163047	2.610424	-1.093036
$end

$rem
JOBTYPE		SP
EXCHANGE	HF
CORRELATION	pRIMP2
BASIS		cc-pvtz
METHOD		rimp2
AUX_BASIS	rimp2-cc-pvtz
SOLVENT_METHOD	PCM
PURECART	11111
SYMMETRY	false
MEM_TOTAL	110000
SCF_CONVERGENCE = 6
THRESH=10
GUI = 2
$end



$solvent
dielectric 4.90
$end
--------------------------------------------------------------
 ----------------------------------------------------------------
             Standard Nuclear Orientation (Angstroms)
    I     Atom           X                Y                Z
 ----------------------------------------------------------------
    1      C      -0.2808530000    -0.5137760000     0.0040640000
    2      C       0.0733470000     0.2530240000     1.1170640000
    3      C       0.6569470000     1.5156240000     0.8246640000
    4      H      -0.0895530000    -0.0992760000     2.1469640000
    5      C       0.7611470000     1.7408240000    -0.5595360000
    6      S       0.1260470000     0.3674240000    -1.4606360000
    7      C       1.1035470000     2.4820240000     1.8864640000
    8      H       0.9155470000     2.0754240000     2.8990640000
    9      H       0.5687470000     3.4519240000     1.8121640000
   10      H       2.1889470000     2.7030240000     1.8122640000
   11      C      -0.2808530000    -1.9638760000     0.0040640000
   12      H      -1.2161530000    -1.9643760000    -0.5359360000
   13      H       0.1884470000    -2.4989760000    -0.8082360000
   14      H      -0.6971530000    -2.6510760000     0.7257640000
   15      H       1.1630470000     2.6104240000    -1.0930360000
 ----------------------------------------------------------------
 Nuclear Repulsion Energy =         345.04957194 hartrees
 There are       30 alpha and       30 beta electrons
 Requested basis set is cc-pVTZ
 There are 120 shells and 326 basis functions

 Total QAlloc Memory Limit 110000 MB
 Mega-Array Size       188 MB
 MEM_STATIC part       192 MB
 Discretize the solute cavity surface with Lebedev spheres
	Using 110 Lebedev grid points for each H atom
	Using 194 Lebedev grid points for other atoms
	Atomic van der Waals radii will be scaled by 1.20
 Remove points where switching function is < 1.0e-08
 Keep 1069 surface tesserae and discard 1169 interior tesserae
 Molecular Surface Area = 158.303 Angst**2

                       Distance Matrix (Angstroms)
             C (  1)   C (  2)   C (  3)   H (  4)   C (  5)   S (  6)
   C (  2)  1.397215
   C (  3)  2.381453  1.421353
   H (  4)  2.190988  1.100612  2.216674
   C (  5)  2.546886  2.344697  1.406265  3.381538
   S (  6)  1.757108  2.580775  2.612052  3.644046  1.761125
   C (  7)  3.799317  2.573272  1.503596  2.855601  2.578668  4.078004
   H (  8)  4.064032  2.684393  2.164113  2.511016  3.478176  4.748427
   H (  9)  4.440475  3.310823  2.175360  3.627185  2.930843  4.518998
   H ( 10)  4.440417  3.310826  2.175384  3.627185  2.930849  4.519121
   C ( 11)  1.450100  2.505768  3.695913  2.846990  3.889500  2.783141
   H ( 12)  1.808487  3.051570  4.179729  3.456266  4.199855  2.844971
   H ( 13)  2.195699  3.360585  4.359228  3.816943  4.285527  2.940369
   H ( 14)  2.293950  3.029948  4.382323  2.983399  4.802855  3.816981
   H ( 15)  3.612354  3.410179  2.265457  4.405574  1.096517  2.498309
             C (  7)   H (  8)   H (  9)   H ( 10)   C ( 11)   H ( 12)
   H (  8)  1.107261
   H (  9)  1.110062  1.787841
   H ( 10)  1.110153  1.787894  1.784909
   C ( 11)  5.022551  5.111589  5.772516  5.581170
   H ( 12)  5.569515  5.715186  6.167313  6.236455  1.079994
   H ( 13)  5.736652  5.932780  6.513397  6.158719  1.080003  1.527366
   H ( 14)  5.562235  5.446452  6.326877  6.178709  1.080000  1.527352
   H ( 15)  2.982859  4.035386  3.082451  3.082501  4.920640  5.186497
             H ( 13)   H ( 14)
   H ( 14)  1.777801
   H ( 15)  5.209311  5.869562
 
 Requested basis set is rimp2-cc-pVTZ
 There are 250 shells and 848 basis functions
 A cutoff of  1.0D-10 yielded   6176 shell pairs
 There are     45212 function pairs (     58138 Cartesian)
 Smallest overlap matrix eigenvalue = 1.07E-04

 Scale SEOQF with 1.000000e-01/1.000000e-01/1.000000e-01

 Standard Electronic Orientation quadrupole field applied
 Nucleus-field energy     =     0.0000000013 hartrees
 Guess from superposition of atomic densities
 Warning:  Energy on first SCF cycle will be non-variational
 SAD guess density has 60.000000 electrons

 -----------------------------------------------------------------------
  General SCF calculation program by
  Eric Jon Sundstrom, Paul Horn, Yuezhi Mao, Dmitri Zuev, Alec White,
  David Stuck, Shaama M.S., Shane Yost, Joonho Lee, David Small,
  Daniel Levine, Susi Lehtola, Hugh Burton, Evgeny Epifanovsky,
  Bang C. Huynh
 -----------------------------------------------------------------------
 Hartree-Fock
 using 64 threads for integral computing
 -------------------------------------------------------
 OpenMP Integral computing Module                
 Release: version 1.0, May 2013, Q-Chem Inc. Pittsburgh 
 -------------------------------------------------------
 A restricted SCF calculation will be
 performed using DIIS
 SCF converges when DIIS error is below 1.0e-06
 ---------------------------------------
  Cycle       Energy         DIIS error
 ---------------------------------------
    1    -632.0904872409      2.91e-02  
    2    -629.3274092004      1.94e-03  
    3    -629.3979886611      7.02e-04  
    4    -629.4057691549      3.52e-04  
    5    -629.4079852720      6.48e-05  
    6    -629.4081236494      2.66e-05  
    7    -629.4081584481      1.19e-05  
    8    -629.4081681030      5.18e-06  
    9    -629.4081696931      1.79e-06  
   10    -629.4081698896      5.47e-07  Convergence criterion met
 ---------------------------------------
 SCF time:   CPU 672.70s  wall 14.00s 

************** Final PCM Free Energy Summary **************
 G_electrostatic  =      -0.00535687 hartree =      -3.36148776 kcal/mol
 G_cavitation     =       0.00000000 hartree =       0.00000000 kcal/mol
 G_dispersion     =       0.00000000 hartree =       0.00000000 kcal/mol
 G_repulsion      =       0.00000000 hartree =       0.00000000 kcal/mol
 --------------------------------------------------
 Non-electrostatic Free Energy =       0.00000000 hartree =       0.00000000 kcal/mol
 Total                         =      -0.00535687 hartree =      -3.36148776 kcal/mol
 --------------------------------------------------
 SCF Energy (H0 + V/2)                       =    -629.40816989 
 Solute Internal Energy (H0)                 =    -629.40281302 
 Total Free Energy (H0 + V/2 + non-elec)     =    -629.40816989 hartree
                                             = -394959.58773049 kcal/mol
***********************************************************

 SCF   energy in the final basis set =     -629.4081698896
 Total energy in the final basis set =     -629.4081698896


 --------------------------------------------------------------
  Generalized many-body perturbation theory program
  by Joonho Lee, Fazle Rob, Xintian Feng, Evgeny Epifanovsky

 No regularization used 
 (reg. param. = 0.0000e+00)
  (P|Q)^-1/2 Time:  CPU 6.99 s  wall 0.12 s

 In RI-MP2 calculation: 
 # of frozen core orbitals: 11

 Components of the RIMP2 correlation energy:
        aaaa    correlation energy =        -0.1456827902 a.u.
        abab    correlation energy =        -0.8879100404 a.u.
        bbbb    correlation energy =        -0.1456827902 a.u.
        non-Brillouin singles      =        -0.0000000000 a.u.
        total same-spin energy     =        -0.2913655804 a.u.
        total opposite-spin energy =        -0.8879100404 a.u.

 Total  RIMP2   correlation energy =        -1.1792756208 a.u.
        RIMP2         total energy =      -630.5874455104 a.u.

 RI-MP2 Energy Time:  CPU 34.49 s  wall 0.61 s
 
 --------------------------------------------------------------
 
                    Orbital Energies (a.u.)
 --------------------------------------------------------------
 
 Alpha MOs
 -- Occupied --
-91.9790 -11.2760 -11.2568 -11.2472 -11.2277 -11.2268 -11.2170  -8.9789
 -6.6599  -6.6594  -6.6588  -1.1611  -1.0533  -0.9956  -0.9434  -0.8831
 -0.7459  -0.7191  -0.6458  -0.5879  -0.5736  -0.5679  -0.5525  -0.5452
 -0.5104  -0.4901  -0.4601  -0.4528  -0.3380  -0.2919
 -- Virtual --
  0.0998   0.1439   0.1495   0.1760   0.1878   0.1949   0.2061   0.2220
  0.2258   0.2372   0.2496   0.2538   0.2951   0.3209   0.3382   0.3546
  0.3809   0.3921   0.4000   0.4199   0.4431   0.4607   0.4708   0.4825
  0.4955   0.5077   0.5158   0.5271   0.5348   0.5682   0.5741   0.5898
  0.5986   0.6075   0.6100   0.6248   0.6277   0.6378   0.6406   0.6487
  0.6578   0.6675   0.6818   0.6984   0.7290   0.7442   0.7549   0.7813
  0.8083   0.8389   0.8447   0.8496   0.8587   0.8867   0.9051   0.9160
  0.9515   0.9734   1.0014   1.0145   1.0330   1.0591   1.0686   1.0756
  1.0893   1.1006   1.1068   1.1152   1.1551   1.1705   1.1902   1.2101
  1.2369   1.2437   1.2565   1.2601   1.2669   1.2892   1.3125   1.3364
  1.3560   1.3751   1.3973   1.4078   1.4169   1.4387   1.4600   1.4799
  1.4949   1.5016   1.5185   1.5346   1.5460   1.5548   1.5684   1.5756
  1.6102   1.6270   1.6537   1.6700   1.6885   1.6956   1.7135   1.7500
  1.7717   1.7748   1.8077   1.8282   1.8718   1.9090   1.9351   1.9591
  2.0175   2.0448   2.1112   2.1194   2.1766   2.1907   2.2181   2.2550
  2.2610   2.2785   2.3317   2.4144   2.4461   2.4599   2.5379   2.5423
  2.5606   2.6054   2.6356   2.6510   2.6735   2.7048   2.7131   2.7366
  2.7532   2.7575   2.7871   2.7891   2.8195   2.8356   2.8611   2.8726
  2.9059   2.9352   2.9714   2.9968   3.0238   3.0267   3.0456   3.0657
  3.0795   3.1109   3.1175   3.1444   3.1531   3.1729   3.1818   3.1886
  3.1969   3.2441   3.2666   3.2757   3.2887   3.3004   3.3132   3.3291
  3.3343   3.3518   3.3810   3.3852   3.3952   3.4135   3.4258   3.4349
  3.4428   3.4499   3.4855   3.4918   3.5071   3.5213   3.5392   3.5586
  3.5739   3.5983   3.6084   3.6163   3.6334   3.6541   3.6689   3.6880
  3.6994   3.7087   3.7169   3.7466   3.7616   3.7733   3.7931   3.8067
  3.8262   3.8358   3.8586   3.8765   3.8894   3.9389   3.9440   3.9556
  3.9762   3.9986   4.0109   4.0250   4.0513   4.0728   4.0841   4.1153
  4.1246   4.1528   4.1851   4.1931   4.2075   4.2191   4.2528   4.2572
  4.2829   4.2994   4.3051   4.3315   4.3438   4.3701   4.3859   4.4014
  4.4192   4.4277   4.4352   4.4579   4.4623   4.4832   4.5315   4.5614
  4.6062   4.6273   4.6316   4.6651   4.7154   4.7367   4.7411   4.7793
  4.8173   4.8331   4.8346   4.8910   4.9135   4.9393   5.0617   5.0937
  5.1102   5.1666   5.1704   5.1775   5.2090   5.2637   5.2919   5.3230
  5.3647   5.4034   5.4190   5.4460   5.4572   5.5137   5.5473   5.5648
  5.5828   5.6231   5.6245   5.6893   5.7139   5.8147   5.8212   5.8650
  5.9362   6.0154   6.0658   6.1404   6.2279   6.2426   6.2983   6.3707
  6.4479   6.4597   9.1598  11.4034  12.9202  13.8602  14.1673  14.2509
 --------------------------------------------------------------
 
          Ground-State Mulliken Net Atomic Charges

     Atom                 Charge (a.u.)
  ----------------------------------------
      1 C                     0.003587
      2 C                    -0.248171
      3 C                     0.035460
      4 H                     0.179644
      5 C                    -0.255533
      6 S                    -0.002913
      7 C                    -0.272077
      8 H                     0.101562
      9 H                     0.107091
     10 H                     0.106447
     11 C                    -0.376102
     12 H                     0.126959
     13 H                     0.141460
     14 H                     0.157318
     15 H                     0.195268
  ----------------------------------------
  Sum of atomic charges =     0.000000

 -----------------------------------------------------------------
                    Cartesian Multipole Moments
 -----------------------------------------------------------------
    Charge (ESU x 10^10)
                -0.0000
    Dipole Moment (Debye)
         X       0.0288      Y      -0.2908      Z       1.1610
       Tot       1.1972
    Quadrupole Moments (Debye-Ang)
        XX     -52.5089     XY       4.7177     YY     -43.6438
        XZ      -0.1564     YZ       0.7971     ZZ     -48.5045
    Octopole Moments (Debye-Ang^2)
       XXX     -44.0288    XXY     -24.8277    XYY     -10.4844
       YYY     -74.1740    XXZ      -2.7780    XYZ      -0.0726
       YYZ      -5.5428    XZZ     -12.5886    YZZ     -22.6475
       ZZZ      -0.1180
    Hexadecapole Moments (Debye-Ang^3)
      XXXX    -180.7750   XXXY    -123.5505   XXYY    -150.3471
      XYYY    -101.4687   YYYY    -713.1311   XXXZ     -39.6670
      XXYZ     -31.7980   XYYZ     -21.3031   YYYZ     -96.8372
      XXZZ    -116.3211   XYZZ     -34.2073   YYZZ    -197.5219
      XZZZ     -44.0897   YZZZ     -95.3824   ZZZZ    -491.1267
 -----------------------------------------------------------------
 Total job time:  18.73s(wall), 763.54s(cpu) 
 Fri Dec 15 14:01:40 2023

        *************************************************************
        *                                                           *
        *  Thank you very much for using Q-Chem.  Have a nice day.  *
        *                                                           *
        *************************************************************


0 sent ACK to 0 
now end server 0 ... 
cleanup process ... done
remove work dirs ./qchem645310.0 -- ./qchem645310.0
rm -rf ./qchem645310.0
rm -rf ./qchem645310
