You are running Q-Chem version: 5.4.0

#
# job setting
#
local host:  exp-7-21
current dir: /home/rramji/project-csd799/aromodel/p3ht-qchem/methylated-rotation-run
input file:  Methylthiophene_Phi_15_Theta_140_Methylthiophene_Hydrogenated_Improper.qcin
output file: 
nprocs     : 1
nthreads   : 64
#
# qchem installation setting
#
QC:          /cm/shared/apps/spack/cpu/opt/spack/linux-centos8-zen2/gcc-10.2.0/qchem-5.4-akfmr7b3t57bfs6qan3padb2wnb2i7cl
QCAUX:       /cm/shared/apps/spack/cpu/opt/spack/linux-centos8-zen2/gcc-10.2.0/qchem-5.4-akfmr7b3t57bfs6qan3padb2wnb2i7cl/qcaux
QCPROG:      /cm/shared/apps/spack/cpu/opt/spack/linux-centos8-zen2/gcc-10.2.0/qchem-5.4-akfmr7b3t57bfs6qan3padb2wnb2i7cl/exe/qcprog.exe
QCPROG_S:    /cm/shared/apps/spack/cpu/opt/spack/linux-centos8-zen2/gcc-10.2.0/qchem-5.4-akfmr7b3t57bfs6qan3padb2wnb2i7cl/exe/qcprog.exe_s
PARALLEL:    -DPARALLEL
QCMPI:       mpich
#
# qchem directory setting
#
qcrun:       qchem19193
QCSCRATCH:   .
QCLOCALSCR:  
QCTMPDIR:    .
QCFILEPREF:  ./qchem19193
QCSAVEDIR:   
workdirs:    ./qchem19193
workdir0:    ./qchem19193
partmpdirs =  
#
# parallel setting
#
QCRSH:           ssh
QCMPI:           mpich
QCMPIRUN:        /cm/shared/apps/spack/cpu/opt/spack/linux-centos8-zen2/gcc-10.2.0/qchem-5.4-akfmr7b3t57bfs6qan3padb2wnb2i7cl/bin/mpi/mpirun_qchem
QCMACHINEFILE:   ./qchem19193/hostfile
exp-7-21

#
# env setting
#
exported envs:   QC QCAUX QCSCRATCH QCRUNNAME QCFILEPREF QCPROG QCPROG_S GUIFILE

Running Job 1 of 1 Methylthiophene_Phi_15_Theta_140_Methylthiophene_Hydrogenated_Improper.qcin
qchem Methylthiophene_Phi_15_Theta_140_Methylthiophene_Hydrogenated_Improper.qcin_19193.0 ./qchem19193/ 1
/cm/shared/apps/spack/cpu/opt/spack/linux-centos8-zen2/gcc-10.2.0/qchem-5.4-akfmr7b3t57bfs6qan3padb2wnb2i7cl/bin/mpi/mpirun_qchem -machinefile ./qchem19193/hostfile -np 1 /cm/shared/apps/spack/cpu/opt/spack/linux-centos8-zen2/gcc-10.2.0/qchem-5.4-akfmr7b3t57bfs6qan3padb2wnb2i7cl/exe/qcprog.exe Methylthiophene_Phi_15_Theta_140_Methylthiophene_Hydrogenated_Improper.qcin_19193.0 ./qchem19193/

Process 0 of 1 is on exp-7-21 - thread support 0
initial socket setup ...start
initial socket setup ...done 
now start server 0 ... 
                  Welcome to Q-Chem
     A Quantum Leap Into The Future Of Chemistry


 Q-Chem 5.4, Q-Chem, Inc., Pleasanton, CA (2021)

 License issued to: University of California, San Diego (site)

 E. Epifanovsky,  A. T. B. Gilbert,  Xintian Feng,  Joonho Lee,  Yuezhi Mao,  
 N. Mardirossian,  P. Pokhilko,  A. White,  M. Wormit,  M. P. Coons,  
 A. L. Dempwolff,  Zhengting Gan,  D. Hait,  P. R. Horn,  L. D. Jacobson,  
 I. Kaliman,  J. Kussmann,  A. W. Lange,  Ka Un Lao,  D. S. Levine,  Jie Liu,  
 S. C. McKenzie,  A. F. Morrison,  K. Nanda,  F. Plasser,  D. R. Rehn,  
 M. L. Vidal,  Zhi-Qiang You,  Ying Zhu,  B. Alam,  B. Albrecht,  
 A. Aldossary,  E. Alguire,  J. H. Andersen,  D. Barton,  K. Begam,  A. Behn,  
 Y. A. Bernard,  E. J. Berquist,  H. Burton,  A. Carreras,  K. Carter-Fenk,  
 R. Chakraborty,  A. D. Chien,  K. D. Closser,  V. Cofer-Shabica,  
 S. Dasgupta,  Jia Deng,  M. de Wergifosse,  M. Diedenhofen,  Hainam Do,  
 S. Ehlert,  Po-Tung Fang,  S. Fatehi,  Qingguo Feng,  J. Gayvert,  
 Qinghui Ge,  G. Gidofalvi,  M. Goldey,  J. Gomes,  C. Gonzalez-Espinoza,  
 S. Gulania,  A. Gunina,  M. W. D. Hanson-Heine,  P. H. P. Harbach,  
 A. W. Hauser,  M. F. Herbst,  M. Hernandez Vera,  M. Hodecker,  
 Z. C. Holden,  S. Houck,  Xunkun Huang,  Kerwin Hui,  B. C. Huynh,  
 M. Ivanov,  Hyunjun Ji,  Hanjie Jiang,  B. Kaduk,  S. Kaehler,  
 K. Khistyaev,  Jaehoon Kim,  P. Klunzinger,  Z. Koczor-Benda,  
 Joong Hoon Koh,  D. Kosenkov,  L. Koulias,  T. Kowalczyk,  C. M. Krauter,  
 K. Kue,  A. Kunitsa,  T. Kus,  A. Landau,  K. V. Lawler,  D. Lefrancois,  
 S. Lehtola,  Rain Li,  Yi-Pei Li,  Jiashu Liang,  M. Liebenthal,  
 Hung-Hsuan Lin,  You-Sheng Lin,  Fenglai Liu,  Kuan-Yu Liu,  
 M. Loipersberger,  A. Luenser,  A. Manjanath,  P. Manohar,  E. Mansoor,  
 S. F. Manzer,  Shan-Ping Mao,  A. V. Marenich,  T. Markovich,  S. Mason,  
 S. A. Maurer,  P. F. McLaughlin,  M. F. S. J. Menger,  J.-M. Mewes,  
 S. A. Mewes,  P. Morgante,  J. W. Mullinax,  T. S. Nguyen-Beck,  
 K. J. Oosterbaan,  G. Paran,  Alexander C. Paul,  Suranjan K. Paul,  
 F. Pavosevic,  Zheng Pei,  S. Prager,  E. I. Proynov,  E. Ramos,  B. Rana,  
 A. E. Rask,  A. Rettig,  R. M. Richard,  F. Rob,  E. Rossomme,  T. Scheele,  
 M. Scheurer,  M. Schneider,  N. Sergueev,  S. M. Sharada,  W. Skomorowski,  
 D. W. Small,  C. J. Stein,  Yu-Chuan Su,  E. J. Sundstrom,  Zhen Tao,  
 J. Thirman,  T. Tsuchimochi,  N. M. Tubman,  S. P. Veccham,  O. Vydrov,  
 J. Wenzel,  J. Witte,  A. Yamada,  Kun Yao,  S. Yeganeh,  S. R. Yost,  
 A. Zech,  Igor Ying Zhang,  Xing Zhang,  Yu Zhang,  D. Zuev,  
 A. Aspuru-Guzik,  A. T. Bell,  N. A. Besley,  K. B. Bravaya,  B. R. Brooks,  
 D. Casanova,  Jeng-Da Chai,  S. Coriani,  C. J. Cramer,  
 A. E. DePrince, III,  R. A. DiStasio Jr.,  A. Dreuw,  B. D. Dunietz,  
 T. R. Furlani,  W. A. Goddard III,  S. Grimme,  S. Hammes-Schiffer,  
 T. Head-Gordon,  W. J. Hehre,  Chao-Ping Hsu,  T.-C. Jagau,  Yousung Jung,  
 A. Klamt,  Jing Kong,  D. S. Lambrecht,  WanZhen Liang,  N. J. Mayhall,  
 C. W. McCurdy,  J. B. Neaton,  C. Ochsenfeld,  J. A. Parkhill,  R. Peverati,  
 V. A. Rassolov,  Yihan Shao,  L. V. Slipchenko,  T. Stauch,  R. P. Steele,  
 J. E. Subotnik,  A. J. W. Thom,  A. Tkatchenko,  D. G. Truhlar,  
 T. Van Voorhis,  T. A. Wesolowski,  K. B. Whaley,  H. L. Woodcock III,  
 P. M. Zimmerman,  S. Faraji,  P. M. W. Gill,  M. Head-Gordon,  
 J. M. Herbert,  A. I. Krylov

 Contributors to earlier versions of Q-Chem not listed above: 
 R. D. Adamson,  B. Austin,  R. Baer,  J. Baker,  G. J. O. Beran,  
 K. Brandhorst,  S. T. Brown,  E. F. C. Byrd,  A. K. Chakraborty,  
 G. K. L. Chan,  Chun-Min Chang,  Yunqing Chen,  C.-L. Cheng,  
 Siu Hung Chien,  D. M. Chipman,  D. L. Crittenden,  H. Dachsel,  
 R. J. Doerksen,  A. D. Dutoi,  R. G. Edgar,  J. Fosso-Tande,  
 L. Fusti-Molnar,  D. Ghosh,  A. Ghysels,  A. Golubeva-Zadorozhnaya,  
 J. Gonthier,  M. S. Gordon,  S. R. Gwaltney,  G. Hawkins,  J. E. Herr,  
 A. Heyden,  S. Hirata,  E. G. Hohenstein,  G. Kedziora,  F. J. Keil,  
 C. Kelley,  Jihan Kim,  R. A. King,  R. Z. Khaliullin,  P. P. Korambath,  
 W. Kurlancheek,  A. Laurent,  A. M. Lee,  M. S. Lee,  S. V. Levchenko,  
 Ching Yeh Lin,  D. Liotard,  E. Livshits,  R. C. Lochan,  I. Lotan,  
 L. A. Martinez-Martinez,  P. E. Maslen,  N. Nair,  D. P. O'Neill,  
 D. Neuhauser,  E. Neuscamman,  C. M. Oana,  R. Olivares-Amaya,  R. Olson,  
 T. M. Perrine,  B. Peters,  P. A. Pieniazek,  A. Prociuk,  Y. M. Rhee,  
 J. Ritchie,  M. A. Rohrdanz,  E. Rosta,  N. J. Russ,  H. F. Schaefer III,  
 M. W. Schmidt,  N. E. Schultz,  S. Sharma,  N. Shenvi,  C. D. Sherrill,  
 A. C. Simmonett,  A. Sodt,  T. Stein,  D. Stuck,  K. S. Thanthiriwatte,  
 V. Vanovschi,  L. Vogt,  Tao Wang,  A. Warshel,  M. A. Watson,  
 C. F. Williams,  Q. Wu,  X. Xu,  Jun Yang,  W. Zhang,  Yan Zhao

 Please cite Q-Chem as follows:
 Y. Shao et al., Mol. Phys. 113, 184-215 (2015)
 DOI: 10.1080/00268976.2014.952696

 Q-Chem 5.4.0 for Intel X86 EM64T Linux

 Parts of Q-Chem use Armadillo 9.800.1 (Horizon Scraper).
 http://arma.sourceforge.net/

 Q-Chem begins on Fri Dec 15 13:59:06 2023  

 Host: 
0

     Scratch files written to ./qchem19193//
 May1621 |scratch|qcdevops|jenkins|workspace|build_RNUM    
 Parallel job on  1  processors
 Processing $rem in /cm/shared/apps/spack/cpu/opt/spack/linux-centos8-zen2/gcc-10.2.0/qchem-5.4-akfmr7b3t57bfs6qan3padb2wnb2i7cl/config/preferences:
 Processing $rem in /home/rramji/.qchemrc:
 Symmetry turned off for PCM/SM12/SMD calculation
 Core orbitals will be frozen

 Checking the input file for inconsistencies... 	...done.

 Q-Chem warning in module forms1/BasisType.C, line 2236:

 You are not using the predefined 5D/6D in this basis set.


--------------------------------------------------------------
User input:
--------------------------------------------------------------
$molecule
0 1
C	-0.169413	-0.553870	-0.001525
C	0.046187	0.262730	1.111475
C	0.401687	1.607530	0.819075
H	-0.052913	-0.112470	2.141375
C	0.465287	1.847430	-0.565125
S	0.078187	0.384630	-1.466225
C	0.673787	2.636830	1.880875
H	0.559187	2.203730	2.893475
H	-0.021313	3.499130	1.806575
H	1.704287	3.042930	1.806675
C	-0.169413	-2.003970	-0.001525
H	-0.996713	-2.004470	0.692675
H	-0.772313	-2.539070	-0.720325
H	0.366387	-2.691170	0.636575
H	0.710087	2.773630	-1.098625
$end

$rem
JOBTYPE		SP
EXCHANGE	HF
CORRELATION	pRIMP2
BASIS		cc-pvtz
METHOD		rimp2
AUX_BASIS	rimp2-cc-pvtz
SOLVENT_METHOD	PCM
PURECART	11111
SYMMETRY	false
MEM_TOTAL	110000
SCF_CONVERGENCE = 6
THRESH=10
GUI = 2
$end



$solvent
dielectric 4.90
$end
--------------------------------------------------------------
 ----------------------------------------------------------------
             Standard Nuclear Orientation (Angstroms)
    I     Atom           X                Y                Z
 ----------------------------------------------------------------
    1      C      -0.1694130000    -0.5538700000    -0.0015250000
    2      C       0.0461870000     0.2627300000     1.1114750000
    3      C       0.4016870000     1.6075300000     0.8190750000
    4      H      -0.0529130000    -0.1124700000     2.1413750000
    5      C       0.4652870000     1.8474300000    -0.5651250000
    6      S       0.0781870000     0.3846300000    -1.4662250000
    7      C       0.6737870000     2.6368300000     1.8808750000
    8      H       0.5591870000     2.2037300000     2.8934750000
    9      H      -0.0213130000     3.4991300000     1.8065750000
   10      H       1.7042870000     3.0429300000     1.8066750000
   11      C      -0.1694130000    -2.0039700000    -0.0015250000
   12      H      -0.9967130000    -2.0044700000     0.6926750000
   13      H      -0.7723130000    -2.5390700000    -0.7203250000
   14      H       0.3663870000    -2.6911700000     0.6365750000
   15      H       0.7100870000     2.7736300000    -1.0986250000
 ----------------------------------------------------------------
 Nuclear Repulsion Energy =         344.24071961 hartrees
 There are       30 alpha and       30 beta electrons
 Requested basis set is cc-pVTZ
 There are 120 shells and 326 basis functions

 Total QAlloc Memory Limit 110000 MB
 Mega-Array Size       188 MB
 MEM_STATIC part       192 MB
 Discretize the solute cavity surface with Lebedev spheres
	Using 110 Lebedev grid points for each H atom
	Using 194 Lebedev grid points for other atoms
	Atomic van der Waals radii will be scaled by 1.20
 Remove points where switching function is < 1.0e-08
 Keep 1065 surface tesserae and discard 1173 interior tesserae
 Molecular Surface Area = 158.539 Angst**2

                       Distance Matrix (Angstroms)
             C (  1)   C (  2)   C (  3)   H (  4)   C (  5)   S (  6)
   C (  2)  1.397171
   C (  3)  2.381426  1.421395
   H (  4)  2.190988  1.100586  2.216650
   C (  5)  2.546906  2.344761  1.406274  3.381550
   S (  6)  1.757110  2.580779  2.612036  3.644046  1.761139
   C (  7)  3.799340  2.573365  1.503634  2.855627  2.578670  4.078017
   H (  8)  4.064018  2.684432  2.164116  2.510996  3.478172  4.748418
   H (  9)  4.440492  3.310892  2.175370  3.627223  2.930845  4.518986
   H ( 10)  4.440418  3.310908  2.175430  3.627165  2.930832  4.519141
   C ( 11)  1.450100  2.534400  3.747329  2.860658  3.943827  2.812839
   H ( 12)  1.808474  2.530460  3.875312  2.563036  4.307742  3.394710
   H ( 13)  2.195719  3.446087  4.576278  3.820373  4.560386  3.134922
   H ( 14)  2.293971  3.008917  4.302717  3.014951  4.696036  3.737027
   H ( 15)  3.612396  3.410267  2.265496  4.405604  1.096538  2.498349
             C (  7)   H (  8)   H (  9)   H ( 10)   C ( 11)   H ( 12)
   H (  8)  1.107279
   H (  9)  1.110066  1.787846
   H ( 10)  1.110114  1.787916  1.784885
   C ( 11)  5.078527  5.159130  5.794417  5.679044
   H ( 12)  5.073860  4.997329  5.699280  5.832036  1.079972
   H ( 13)  5.970543  6.109549  6.588557  6.608933  1.080043  1.527325
   H ( 14)  5.479996  5.393590  6.311816  6.003250  1.080045  1.527333
   H ( 15)  2.982860  4.035396  3.082448  3.082487  4.980222  5.380721
             H ( 13)   H ( 14)
   H ( 14)  1.777906
   H ( 15)  5.528599  5.743961
 
 Requested basis set is rimp2-cc-pVTZ
 There are 250 shells and 848 basis functions
 A cutoff of  1.0D-10 yielded   6180 shell pairs
 There are     45246 function pairs (     58167 Cartesian)
 Smallest overlap matrix eigenvalue = 9.27E-05

 Scale SEOQF with 1.000000e-01/1.000000e-01/1.000000e-01

 Standard Electronic Orientation quadrupole field applied
 Nucleus-field energy     =     0.0000000019 hartrees
 Guess from superposition of atomic densities
 Warning:  Energy on first SCF cycle will be non-variational
 SAD guess density has 60.000000 electrons

 -----------------------------------------------------------------------
  General SCF calculation program by
  Eric Jon Sundstrom, Paul Horn, Yuezhi Mao, Dmitri Zuev, Alec White,
  David Stuck, Shaama M.S., Shane Yost, Joonho Lee, David Small,
  Daniel Levine, Susi Lehtola, Hugh Burton, Evgeny Epifanovsky,
  Bang C. Huynh
 -----------------------------------------------------------------------
 Hartree-Fock
 using 64 threads for integral computing
 -------------------------------------------------------
 OpenMP Integral computing Module                
 Release: version 1.0, May 2013, Q-Chem Inc. Pittsburgh 
 -------------------------------------------------------
 A restricted SCF calculation will be
 performed using DIIS
 SCF converges when DIIS error is below 1.0e-06
 ---------------------------------------
  Cycle       Energy         DIIS error
 ---------------------------------------
    1    -632.0840087595      2.91e-02  
    2    -629.3408938501      1.92e-03  
    3    -629.4106296501      6.66e-04  
    4    -629.4178679274      3.43e-04  
    5    -629.4199073464      6.18e-05  
    6    -629.4200331110      2.49e-05  
    7    -629.4200629385      1.11e-05  
    8    -629.4200714631      4.96e-06  
    9    -629.4200729336      1.70e-06  
   10    -629.4200731186      5.58e-07  Convergence criterion met
 ---------------------------------------
 SCF time:   CPU 672.67s  wall 14.00s 

************** Final PCM Free Energy Summary **************
 G_electrostatic  =      -0.00560696 hartree =      -3.51842009 kcal/mol
 G_cavitation     =       0.00000000 hartree =       0.00000000 kcal/mol
 G_dispersion     =       0.00000000 hartree =       0.00000000 kcal/mol
 G_repulsion      =       0.00000000 hartree =       0.00000000 kcal/mol
 --------------------------------------------------
 Non-electrostatic Free Energy =       0.00000000 hartree =       0.00000000 kcal/mol
 Total                         =      -0.00560696 hartree =      -3.51842009 kcal/mol
 --------------------------------------------------
 SCF Energy (H0 + V/2)                       =    -629.42007312 
 Solute Internal Energy (H0)                 =    -629.41446616 
 Total Free Energy (H0 + V/2 + non-elec)     =    -629.42007312 hartree
                                             = -394967.05711943 kcal/mol
***********************************************************

 SCF   energy in the final basis set =     -629.4200731186
 Total energy in the final basis set =     -629.4200731186


 --------------------------------------------------------------
  Generalized many-body perturbation theory program
  by Joonho Lee, Fazle Rob, Xintian Feng, Evgeny Epifanovsky

 No regularization used 
 (reg. param. = 0.0000e+00)
  (P|Q)^-1/2 Time:  CPU 6.86 s  wall 0.11 s

 In RI-MP2 calculation: 
 # of frozen core orbitals: 11

 Components of the RIMP2 correlation energy:
        aaaa    correlation energy =        -0.1456242610 a.u.
        abab    correlation energy =        -0.8868522750 a.u.
        bbbb    correlation energy =        -0.1456242610 a.u.
        non-Brillouin singles      =        -0.0000000000 a.u.
        total same-spin energy     =        -0.2912485221 a.u.
        total opposite-spin energy =        -0.8868522750 a.u.

 Total  RIMP2   correlation energy =        -1.1781007971 a.u.
        RIMP2         total energy =      -630.5981739157 a.u.

 RI-MP2 Energy Time:  CPU 35.65 s  wall 0.63 s
 
 --------------------------------------------------------------
 
                    Orbital Energies (a.u.)
 --------------------------------------------------------------
 
 Alpha MOs
 -- Occupied --
-91.9770 -11.2793 -11.2545 -11.2476 -11.2292 -11.2272 -11.2186  -8.9769
 -6.6578  -6.6572  -6.6567  -1.1603  -1.0529  -0.9983  -0.9400  -0.8847
 -0.7428  -0.7210  -0.6480  -0.5874  -0.5749  -0.5648  -0.5596  -0.5428
 -0.5101  -0.4915  -0.4638  -0.4476  -0.3372  -0.2953
 -- Virtual --
  0.1050   0.1450   0.1486   0.1759   0.1794   0.1898   0.2112   0.2239
  0.2325   0.2418   0.2523   0.2617   0.2967   0.3167   0.3442   0.3502
  0.3864   0.3915   0.4083   0.4203   0.4343   0.4543   0.4730   0.4914
  0.4946   0.5018   0.5227   0.5333   0.5433   0.5500   0.5706   0.5840
  0.5982   0.6051   0.6136   0.6199   0.6336   0.6367   0.6471   0.6514
  0.6560   0.6621   0.6830   0.7051   0.7295   0.7520   0.7647   0.7802
  0.8126   0.8358   0.8467   0.8521   0.8658   0.8927   0.9165   0.9327
  0.9570   0.9761   0.9834   1.0151   1.0311   1.0471   1.0624   1.0747
  1.0801   1.0854   1.1023   1.1397   1.1516   1.1777   1.1871   1.2113
  1.2173   1.2426   1.2541   1.2699   1.2823   1.2848   1.3147   1.3341
  1.3527   1.3786   1.3963   1.4144   1.4239   1.4414   1.4481   1.4772
  1.4958   1.5154   1.5168   1.5407   1.5463   1.5571   1.5730   1.5783
  1.5964   1.6305   1.6460   1.6814   1.6978   1.7043   1.7103   1.7387
  1.7564   1.7931   1.7999   1.8273   1.8815   1.9092   1.9351   1.9628
  1.9962   2.0402   2.0987   2.1487   2.1797   2.1989   2.2104   2.2270
  2.2646   2.2884   2.3708   2.4181   2.4685   2.4883   2.5329   2.5461
  2.5745   2.5914   2.6355   2.6620   2.6741   2.7103   2.7124   2.7400
  2.7456   2.7635   2.7770   2.7886   2.8051   2.8515   2.8617   2.8681
  2.9081   2.9151   2.9573   2.9753   2.9928   3.0136   3.0388   3.0520
  3.0741   3.0931   3.1130   3.1424   3.1550   3.1571   3.1741   3.1936
  3.2070   3.2332   3.2625   3.2840   3.2903   3.3087   3.3234   3.3277
  3.3427   3.3683   3.3870   3.4017   3.4117   3.4247   3.4281   3.4332
  3.4464   3.4780   3.4883   3.4977   3.5117   3.5325   3.5399   3.5534
  3.5830   3.5884   3.6140   3.6189   3.6330   3.6400   3.6585   3.6781
  3.6890   3.6971   3.7149   3.7270   3.7592   3.7775   3.7940   3.7949
  3.8259   3.8345   3.8516   3.8746   3.8902   3.9076   3.9295   3.9524
  3.9788   3.9856   4.0198   4.0329   4.0387   4.0684   4.1006   4.1032
  4.1203   4.1347   4.1605   4.1767   4.2094   4.2216   4.2323   4.2631
  4.2836   4.2908   4.3193   4.3329   4.3359   4.3776   4.3838   4.4006
  4.4109   4.4290   4.4358   4.4561   4.4755   4.5169   4.5461   4.5779
  4.6022   4.6189   4.6426   4.6824   4.7129   4.7395   4.7469   4.7872
  4.8023   4.8250   4.8790   4.8839   4.9128   4.9420   5.0691   5.0851
  5.1107   5.1328   5.1724   5.1964   5.2067   5.2647   5.2879   5.3234
  5.3667   5.4048   5.4150   5.4382   5.4818   5.4988   5.5578   5.5587
  5.5721   5.6227   5.6354   5.6581   5.7052   5.8087   5.8370   5.8975
  5.9397   6.0148   6.0795   6.1283   6.2270   6.2521   6.2980   6.3732
  6.4587   6.5762   9.1960  11.4138  12.9440  13.7629  14.1683  14.5650
 --------------------------------------------------------------
 
          Ground-State Mulliken Net Atomic Charges

     Atom                 Charge (a.u.)
  ----------------------------------------
      1 C                     0.048770
      2 C                    -0.289434
      3 C                     0.043589
      4 H                     0.176088
      5 C                    -0.262096
      6 S                    -0.000889
      7 C                    -0.273940
      8 H                     0.101331
      9 H                     0.107090
     10 H                     0.107271
     11 C                    -0.374372
     12 H                     0.132146
     13 H                     0.138190
     14 H                     0.153366
     15 H                     0.192890
  ----------------------------------------
  Sum of atomic charges =     0.000000

 -----------------------------------------------------------------
                    Cartesian Multipole Moments
 -----------------------------------------------------------------
    Charge (ESU x 10^10)
                -0.0000
    Dipole Moment (Debye)
         X      -0.2024      Y      -0.3488      Z       1.9196
       Tot       1.9615
    Quadrupole Moments (Debye-Ang)
        XX     -53.3774     XY       3.3534     YY     -42.6413
        XZ       0.3408     YZ      -0.6384     ZZ     -48.6667
    Octopole Moments (Debye-Ang^2)
       XXX     -27.3340    XXY     -29.3738    XYY      -6.0486
       YYY     -78.0066    XXZ      -3.0445    XYZ      -1.6963
       YYZ      -2.6254    XZZ      -7.6874    YZZ     -24.3005
       ZZZ      -1.1051
    Hexadecapole Moments (Debye-Ang^3)
      XXXX    -117.4236   XXXY     -81.6641   XXYY    -155.7014
      XYYY     -65.0283   YYYY    -773.2640   XXXZ     -23.8159
      XXYZ     -29.5572   XYYZ      -7.5311   YYYZ    -106.2720
      XXZZ    -107.4399   XYZZ     -22.1095   YYZZ    -208.1514
      XZZZ     -26.3896   YZZZ     -97.2051   ZZZZ    -491.7106
 -----------------------------------------------------------------
 Total job time:  15.92s(wall), 752.12s(cpu) 
 Fri Dec 15 13:59:22 2023

        *************************************************************
        *                                                           *
        *  Thank you very much for using Q-Chem.  Have a nice day.  *
        *                                                           *
        *************************************************************


0 sent ACK to 0 
now end server 0 ... 
cleanup process ... done
remove work dirs ./qchem19193.0 -- ./qchem19193.0
rm -rf ./qchem19193.0
rm -rf ./qchem19193
