You are running Q-Chem version: 5.4.0

#
# job setting
#
local host:  exp-7-20
current dir: /home/rramji/project-csd799/aromodel/p3ht-qchem/methylated-rotation-run
input file:  Methylthiophene_Phi_10_Theta_120_Methylthiophene_Hydrogenated_Improper.qcin
output file: 
nprocs     : 1
nthreads   : 64
#
# qchem installation setting
#
QC:          /cm/shared/apps/spack/cpu/opt/spack/linux-centos8-zen2/gcc-10.2.0/qchem-5.4-akfmr7b3t57bfs6qan3padb2wnb2i7cl
QCAUX:       /cm/shared/apps/spack/cpu/opt/spack/linux-centos8-zen2/gcc-10.2.0/qchem-5.4-akfmr7b3t57bfs6qan3padb2wnb2i7cl/qcaux
QCPROG:      /cm/shared/apps/spack/cpu/opt/spack/linux-centos8-zen2/gcc-10.2.0/qchem-5.4-akfmr7b3t57bfs6qan3padb2wnb2i7cl/exe/qcprog.exe
QCPROG_S:    /cm/shared/apps/spack/cpu/opt/spack/linux-centos8-zen2/gcc-10.2.0/qchem-5.4-akfmr7b3t57bfs6qan3padb2wnb2i7cl/exe/qcprog.exe_s
PARALLEL:    -DPARALLEL
QCMPI:       mpich
#
# qchem directory setting
#
qcrun:       qchem3257053
QCSCRATCH:   .
QCLOCALSCR:  
QCTMPDIR:    .
QCFILEPREF:  ./qchem3257053
QCSAVEDIR:   
workdirs:    ./qchem3257053
workdir0:    ./qchem3257053
partmpdirs =  
#
# parallel setting
#
QCRSH:           ssh
QCMPI:           mpich
QCMPIRUN:        /cm/shared/apps/spack/cpu/opt/spack/linux-centos8-zen2/gcc-10.2.0/qchem-5.4-akfmr7b3t57bfs6qan3padb2wnb2i7cl/bin/mpi/mpirun_qchem
QCMACHINEFILE:   ./qchem3257053/hostfile
exp-7-20

#
# env setting
#
exported envs:   QC QCAUX QCSCRATCH QCRUNNAME QCFILEPREF QCPROG QCPROG_S GUIFILE

Running Job 1 of 1 Methylthiophene_Phi_10_Theta_120_Methylthiophene_Hydrogenated_Improper.qcin
qchem Methylthiophene_Phi_10_Theta_120_Methylthiophene_Hydrogenated_Improper.qcin_3257053.0 ./qchem3257053/ 1
/cm/shared/apps/spack/cpu/opt/spack/linux-centos8-zen2/gcc-10.2.0/qchem-5.4-akfmr7b3t57bfs6qan3padb2wnb2i7cl/bin/mpi/mpirun_qchem -machinefile ./qchem3257053/hostfile -np 1 /cm/shared/apps/spack/cpu/opt/spack/linux-centos8-zen2/gcc-10.2.0/qchem-5.4-akfmr7b3t57bfs6qan3padb2wnb2i7cl/exe/qcprog.exe Methylthiophene_Phi_10_Theta_120_Methylthiophene_Hydrogenated_Improper.qcin_3257053.0 ./qchem3257053/

Process 0 of 1 is on exp-7-20 - thread support 0
initial socket setup ...start
initial socket setup ...done 
now start server 0 ... 
                  Welcome to Q-Chem
     A Quantum Leap Into The Future Of Chemistry


 Q-Chem 5.4, Q-Chem, Inc., Pleasanton, CA (2021)

 License issued to: University of California, San Diego (site)

 E. Epifanovsky,  A. T. B. Gilbert,  Xintian Feng,  Joonho Lee,  Yuezhi Mao,  
 N. Mardirossian,  P. Pokhilko,  A. White,  M. Wormit,  M. P. Coons,  
 A. L. Dempwolff,  Zhengting Gan,  D. Hait,  P. R. Horn,  L. D. Jacobson,  
 I. Kaliman,  J. Kussmann,  A. W. Lange,  Ka Un Lao,  D. S. Levine,  Jie Liu,  
 S. C. McKenzie,  A. F. Morrison,  K. Nanda,  F. Plasser,  D. R. Rehn,  
 M. L. Vidal,  Zhi-Qiang You,  Ying Zhu,  B. Alam,  B. Albrecht,  
 A. Aldossary,  E. Alguire,  J. H. Andersen,  D. Barton,  K. Begam,  A. Behn,  
 Y. A. Bernard,  E. J. Berquist,  H. Burton,  A. Carreras,  K. Carter-Fenk,  
 R. Chakraborty,  A. D. Chien,  K. D. Closser,  V. Cofer-Shabica,  
 S. Dasgupta,  Jia Deng,  M. de Wergifosse,  M. Diedenhofen,  Hainam Do,  
 S. Ehlert,  Po-Tung Fang,  S. Fatehi,  Qingguo Feng,  J. Gayvert,  
 Qinghui Ge,  G. Gidofalvi,  M. Goldey,  J. Gomes,  C. Gonzalez-Espinoza,  
 S. Gulania,  A. Gunina,  M. W. D. Hanson-Heine,  P. H. P. Harbach,  
 A. W. Hauser,  M. F. Herbst,  M. Hernandez Vera,  M. Hodecker,  
 Z. C. Holden,  S. Houck,  Xunkun Huang,  Kerwin Hui,  B. C. Huynh,  
 M. Ivanov,  Hyunjun Ji,  Hanjie Jiang,  B. Kaduk,  S. Kaehler,  
 K. Khistyaev,  Jaehoon Kim,  P. Klunzinger,  Z. Koczor-Benda,  
 Joong Hoon Koh,  D. Kosenkov,  L. Koulias,  T. Kowalczyk,  C. M. Krauter,  
 K. Kue,  A. Kunitsa,  T. Kus,  A. Landau,  K. V. Lawler,  D. Lefrancois,  
 S. Lehtola,  Rain Li,  Yi-Pei Li,  Jiashu Liang,  M. Liebenthal,  
 Hung-Hsuan Lin,  You-Sheng Lin,  Fenglai Liu,  Kuan-Yu Liu,  
 M. Loipersberger,  A. Luenser,  A. Manjanath,  P. Manohar,  E. Mansoor,  
 S. F. Manzer,  Shan-Ping Mao,  A. V. Marenich,  T. Markovich,  S. Mason,  
 S. A. Maurer,  P. F. McLaughlin,  M. F. S. J. Menger,  J.-M. Mewes,  
 S. A. Mewes,  P. Morgante,  J. W. Mullinax,  T. S. Nguyen-Beck,  
 K. J. Oosterbaan,  G. Paran,  Alexander C. Paul,  Suranjan K. Paul,  
 F. Pavosevic,  Zheng Pei,  S. Prager,  E. I. Proynov,  E. Ramos,  B. Rana,  
 A. E. Rask,  A. Rettig,  R. M. Richard,  F. Rob,  E. Rossomme,  T. Scheele,  
 M. Scheurer,  M. Schneider,  N. Sergueev,  S. M. Sharada,  W. Skomorowski,  
 D. W. Small,  C. J. Stein,  Yu-Chuan Su,  E. J. Sundstrom,  Zhen Tao,  
 J. Thirman,  T. Tsuchimochi,  N. M. Tubman,  S. P. Veccham,  O. Vydrov,  
 J. Wenzel,  J. Witte,  A. Yamada,  Kun Yao,  S. Yeganeh,  S. R. Yost,  
 A. Zech,  Igor Ying Zhang,  Xing Zhang,  Yu Zhang,  D. Zuev,  
 A. Aspuru-Guzik,  A. T. Bell,  N. A. Besley,  K. B. Bravaya,  B. R. Brooks,  
 D. Casanova,  Jeng-Da Chai,  S. Coriani,  C. J. Cramer,  
 A. E. DePrince, III,  R. A. DiStasio Jr.,  A. Dreuw,  B. D. Dunietz,  
 T. R. Furlani,  W. A. Goddard III,  S. Grimme,  S. Hammes-Schiffer,  
 T. Head-Gordon,  W. J. Hehre,  Chao-Ping Hsu,  T.-C. Jagau,  Yousung Jung,  
 A. Klamt,  Jing Kong,  D. S. Lambrecht,  WanZhen Liang,  N. J. Mayhall,  
 C. W. McCurdy,  J. B. Neaton,  C. Ochsenfeld,  J. A. Parkhill,  R. Peverati,  
 V. A. Rassolov,  Yihan Shao,  L. V. Slipchenko,  T. Stauch,  R. P. Steele,  
 J. E. Subotnik,  A. J. W. Thom,  A. Tkatchenko,  D. G. Truhlar,  
 T. Van Voorhis,  T. A. Wesolowski,  K. B. Whaley,  H. L. Woodcock III,  
 P. M. Zimmerman,  S. Faraji,  P. M. W. Gill,  M. Head-Gordon,  
 J. M. Herbert,  A. I. Krylov

 Contributors to earlier versions of Q-Chem not listed above: 
 R. D. Adamson,  B. Austin,  R. Baer,  J. Baker,  G. J. O. Beran,  
 K. Brandhorst,  S. T. Brown,  E. F. C. Byrd,  A. K. Chakraborty,  
 G. K. L. Chan,  Chun-Min Chang,  Yunqing Chen,  C.-L. Cheng,  
 Siu Hung Chien,  D. M. Chipman,  D. L. Crittenden,  H. Dachsel,  
 R. J. Doerksen,  A. D. Dutoi,  R. G. Edgar,  J. Fosso-Tande,  
 L. Fusti-Molnar,  D. Ghosh,  A. Ghysels,  A. Golubeva-Zadorozhnaya,  
 J. Gonthier,  M. S. Gordon,  S. R. Gwaltney,  G. Hawkins,  J. E. Herr,  
 A. Heyden,  S. Hirata,  E. G. Hohenstein,  G. Kedziora,  F. J. Keil,  
 C. Kelley,  Jihan Kim,  R. A. King,  R. Z. Khaliullin,  P. P. Korambath,  
 W. Kurlancheek,  A. Laurent,  A. M. Lee,  M. S. Lee,  S. V. Levchenko,  
 Ching Yeh Lin,  D. Liotard,  E. Livshits,  R. C. Lochan,  I. Lotan,  
 L. A. Martinez-Martinez,  P. E. Maslen,  N. Nair,  D. P. O'Neill,  
 D. Neuhauser,  E. Neuscamman,  C. M. Oana,  R. Olivares-Amaya,  R. Olson,  
 T. M. Perrine,  B. Peters,  P. A. Pieniazek,  A. Prociuk,  Y. M. Rhee,  
 J. Ritchie,  M. A. Rohrdanz,  E. Rosta,  N. J. Russ,  H. F. Schaefer III,  
 M. W. Schmidt,  N. E. Schultz,  S. Sharma,  N. Shenvi,  C. D. Sherrill,  
 A. C. Simmonett,  A. Sodt,  T. Stein,  D. Stuck,  K. S. Thanthiriwatte,  
 V. Vanovschi,  L. Vogt,  Tao Wang,  A. Warshel,  M. A. Watson,  
 C. F. Williams,  Q. Wu,  X. Xu,  Jun Yang,  W. Zhang,  Yan Zhao

 Please cite Q-Chem as follows:
 Y. Shao et al., Mol. Phys. 113, 184-215 (2015)
 DOI: 10.1080/00268976.2014.952696

 Q-Chem 5.4.0 for Intel X86 EM64T Linux

 Parts of Q-Chem use Armadillo 9.800.1 (Horizon Scraper).
 http://arma.sourceforge.net/

 Q-Chem begins on Fri Dec 15 13:58:43 2023  

 Host: 
0

     Scratch files written to ./qchem3257053//
 May1621 |scratch|qcdevops|jenkins|workspace|build_RNUM    
 Parallel job on  1  processors
 Processing $rem in /cm/shared/apps/spack/cpu/opt/spack/linux-centos8-zen2/gcc-10.2.0/qchem-5.4-akfmr7b3t57bfs6qan3padb2wnb2i7cl/config/preferences:
 Processing $rem in /home/rramji/.qchemrc:
 Symmetry turned off for PCM/SM12/SMD calculation
 Core orbitals will be frozen

 Checking the input file for inconsistencies... 	...done.

 Q-Chem warning in module forms1/BasisType.C, line 2236:

 You are not using the predefined 5D/6D in this basis set.


--------------------------------------------------------------
User input:
--------------------------------------------------------------
$molecule
0 1
C	-0.112720	-0.566489	-0.002733
C	0.030880	0.265811	1.110267
C	0.267780	1.636511	0.817867
H	-0.035120	-0.116589	2.140167
C	0.310280	1.881011	-0.566333
S	0.052180	0.390011	-1.467433
C	0.449180	2.685511	1.879667
H	0.372780	2.244111	2.892267
H	-0.318420	3.484011	1.805367
H	1.440280	3.179911	1.805467
C	-0.112720	-2.016589	-0.002733
H	-0.652720	-2.017089	0.932567
H	-0.925020	-2.551689	-0.472033
H	0.608980	-2.703789	0.413567
H	0.473380	2.825011	-1.099833
$end

$rem
JOBTYPE		SP
EXCHANGE	HF
CORRELATION	pRIMP2
BASIS		cc-pvtz
METHOD		rimp2
AUX_BASIS	rimp2-cc-pvtz
SOLVENT_METHOD	PCM
PURECART	11111
SYMMETRY	false
MEM_TOTAL	110000
SCF_CONVERGENCE = 6
THRESH=10
GUI = 2
$end



$solvent
dielectric 4.90
$end
--------------------------------------------------------------
 ----------------------------------------------------------------
             Standard Nuclear Orientation (Angstroms)
    I     Atom           X                Y                Z
 ----------------------------------------------------------------
    1      C      -0.1127200000    -0.5664890000    -0.0027330000
    2      C       0.0308800000     0.2658110000     1.1102670000
    3      C       0.2677800000     1.6365110000     0.8178670000
    4      H      -0.0351200000    -0.1165890000     2.1401670000
    5      C       0.3102800000     1.8810110000    -0.5663330000
    6      S       0.0521800000     0.3900110000    -1.4674330000
    7      C       0.4491800000     2.6855110000     1.8796670000
    8      H       0.3727800000     2.2441110000     2.8922670000
    9      H      -0.3184200000     3.4840110000     1.8053670000
   10      H       1.4402800000     3.1799110000     1.8054670000
   11      C      -0.1127200000    -2.0165890000    -0.0027330000
   12      H      -0.6527200000    -2.0170890000     0.9325670000
   13      H      -0.9250200000    -2.5516890000    -0.4720330000
   14      H       0.6089800000    -2.7037890000     0.4135670000
   15      H       0.4733800000     2.8250110000    -1.0998330000
 ----------------------------------------------------------------
 Nuclear Repulsion Energy =         344.09351871 hartrees
 There are       30 alpha and       30 beta electrons
 Requested basis set is cc-pVTZ
 There are 120 shells and 326 basis functions

 Total QAlloc Memory Limit 110000 MB
 Mega-Array Size       188 MB
 MEM_STATIC part       192 MB
 Discretize the solute cavity surface with Lebedev spheres
	Using 110 Lebedev grid points for each H atom
	Using 194 Lebedev grid points for other atoms
	Atomic van der Waals radii will be scaled by 1.20
 Remove points where switching function is < 1.0e-08
 Keep 1066 surface tesserae and discard 1172 interior tesserae
 Molecular Surface Area = 158.690 Angst**2

                       Distance Matrix (Angstroms)
             C (  1)   C (  2)   C (  3)   H (  4)   C (  5)   S (  6)
   C (  2)  1.397180
   C (  3)  2.381465  1.421421
   H (  4)  2.190993  1.100582  2.216661
   C (  5)  2.546926  2.344765  1.406270  3.381545
   S (  6)  1.757109  2.580778  2.612057  3.644042  1.761158
   C (  7)  3.799298  2.573305  1.503571  2.855551  2.578649  4.077991
   H (  8)  4.064014  2.684416  2.164102  2.510964  3.478169  4.748416
   H (  9)  4.440505  3.310889  2.175326  3.627212  2.930842  4.519004
   H ( 10)  4.440373  3.310844  2.175361  3.627084  2.930781  4.519097
   C ( 11)  1.450100  2.543372  3.763417  2.864968  3.960790  2.822102
   H ( 12)  1.808487  2.389669  3.769518  2.334872  4.285937  3.471457
   H ( 13)  2.195699  3.369826  4.541765  3.680384  4.602574  3.255663
   H ( 14)  2.293950  3.104531  4.372423  3.176416  4.697852  3.663303
   H ( 15)  3.612397  3.410257  2.265475  4.405585  1.096522  2.498352
             C (  7)   H (  8)   H (  9)   H ( 10)   C ( 11)   H ( 12)
   H (  8)  1.107262
   H (  9)  1.110105  1.787865
   H ( 10)  1.110052  1.787851  1.784798
   C ( 11)  5.095970  5.174002  5.793802  5.717080
   H ( 12)  4.921954  4.801031  5.579932  5.670222  1.079994
   H ( 13)  5.903150  6.000208  6.479521  6.605520  1.080003  1.527366
   H ( 14)  5.587445  5.539085  6.409840  6.102981  1.080000  1.527352
   H ( 15)  2.982862  4.035397  3.082437  3.082469  4.998823  5.370725
             H ( 13)   H ( 14)
   H ( 14)  1.777801
   H ( 15)  5.590935  5.733794
 
 Requested basis set is rimp2-cc-pVTZ
 There are 250 shells and 848 basis functions
 A cutoff of  1.0D-10 yielded   6190 shell pairs
 There are     45312 function pairs (     58272 Cartesian)
 Smallest overlap matrix eigenvalue = 9.73E-05

 Scale SEOQF with 1.000000e+00/1.000000e-01/1.000000e-01

 Standard Electronic Orientation quadrupole field applied
 Nucleus-field energy     =     0.0000000043 hartrees
 Guess from superposition of atomic densities
 Warning:  Energy on first SCF cycle will be non-variational
 SAD guess density has 60.000000 electrons

 -----------------------------------------------------------------------
  General SCF calculation program by
  Eric Jon Sundstrom, Paul Horn, Yuezhi Mao, Dmitri Zuev, Alec White,
  David Stuck, Shaama M.S., Shane Yost, Joonho Lee, David Small,
  Daniel Levine, Susi Lehtola, Hugh Burton, Evgeny Epifanovsky,
  Bang C. Huynh
 -----------------------------------------------------------------------
 Hartree-Fock
 using 64 threads for integral computing
 -------------------------------------------------------
 OpenMP Integral computing Module                
 Release: version 1.0, May 2013, Q-Chem Inc. Pittsburgh 
 -------------------------------------------------------
 A restricted SCF calculation will be
 performed using DIIS
 SCF converges when DIIS error is below 1.0e-06
 ---------------------------------------
  Cycle       Energy         DIIS error
 ---------------------------------------
    1    -632.0876086229      2.91e-02  
    2    -629.3452012374      1.91e-03  
    3    -629.4147380169      6.47e-04  
    4    -629.4217907679      3.32e-04  
    5    -629.4237038270      6.15e-05  
    6    -629.4238294810      2.46e-05  
    7    -629.4238597874      1.12e-05  
    8    -629.4238685866      4.84e-06  
    9    -629.4238700289      1.69e-06  
   10    -629.4238701952      5.12e-07  Convergence criterion met
 ---------------------------------------
 SCF time:   CPU 666.83s  wall 13.00s 

************** Final PCM Free Energy Summary **************
 G_electrostatic  =      -0.00551374 hartree =      -3.45992410 kcal/mol
 G_cavitation     =       0.00000000 hartree =       0.00000000 kcal/mol
 G_dispersion     =       0.00000000 hartree =       0.00000000 kcal/mol
 G_repulsion      =       0.00000000 hartree =       0.00000000 kcal/mol
 --------------------------------------------------
 Non-electrostatic Free Energy =       0.00000000 hartree =       0.00000000 kcal/mol
 Total                         =      -0.00551374 hartree =      -3.45992410 kcal/mol
 --------------------------------------------------
 SCF Energy (H0 + V/2)                       =    -629.42387020 
 Solute Internal Energy (H0)                 =    -629.41835646 
 Total Free Energy (H0 + V/2 + non-elec)     =    -629.42387020 hartree
                                             = -394969.43982098 kcal/mol
***********************************************************

 SCF   energy in the final basis set =     -629.4238701952
 Total energy in the final basis set =     -629.4238701952


 --------------------------------------------------------------
  Generalized many-body perturbation theory program
  by Joonho Lee, Fazle Rob, Xintian Feng, Evgeny Epifanovsky

 No regularization used 
 (reg. param. = 0.0000e+00)
  (P|Q)^-1/2 Time:  CPU 6.95 s  wall 0.11 s

 In RI-MP2 calculation: 
 # of frozen core orbitals: 11

 Components of the RIMP2 correlation energy:
        aaaa    correlation energy =        -0.1455918890 a.u.
        abab    correlation energy =        -0.8866532823 a.u.
        bbbb    correlation energy =        -0.1455918890 a.u.
        non-Brillouin singles      =        -0.0000000000 a.u.
        total same-spin energy     =        -0.2911837781 a.u.
        total opposite-spin energy =        -0.8866532823 a.u.

 Total  RIMP2   correlation energy =        -1.1778370604 a.u.
        RIMP2         total energy =      -630.6017072556 a.u.

 RI-MP2 Energy Time:  CPU 36.21 s  wall 0.61 s
 
 --------------------------------------------------------------
 
                    Orbital Energies (a.u.)
 --------------------------------------------------------------
 
 Alpha MOs
 -- Occupied --
-91.9761 -11.2781 -11.2567 -11.2474 -11.2320 -11.2274 -11.2178  -8.9761
 -6.6570  -6.6565  -6.6559  -1.1606  -1.0525  -0.9991  -0.9394  -0.8852
 -0.7425  -0.7226  -0.6481  -0.5892  -0.5765  -0.5656  -0.5596  -0.5418
 -0.5102  -0.4880  -0.4663  -0.4425  -0.3374  -0.3010
 -- Virtual --
  0.1043   0.1449   0.1497   0.1767   0.1806   0.1901   0.2088   0.2244
  0.2343   0.2425   0.2506   0.2692   0.3030   0.3151   0.3446   0.3528
  0.3830   0.3922   0.4108   0.4169   0.4329   0.4536   0.4718   0.4878
  0.4945   0.5023   0.5216   0.5251   0.5385   0.5520   0.5653   0.5921
  0.6020   0.6055   0.6196   0.6221   0.6382   0.6393   0.6452   0.6530
  0.6592   0.6618   0.6809   0.7003   0.7408   0.7514   0.7635   0.7765
  0.8073   0.8281   0.8448   0.8609   0.8679   0.8923   0.9161   0.9355
  0.9478   0.9674   0.9853   1.0126   1.0324   1.0467   1.0616   1.0764
  1.0792   1.0830   1.1092   1.1516   1.1593   1.1768   1.1931   1.2006
  1.2229   1.2328   1.2531   1.2616   1.2657   1.2818   1.3124   1.3363
  1.3518   1.3655   1.3868   1.4012   1.4257   1.4433   1.4577   1.4824
  1.4916   1.5221   1.5291   1.5406   1.5445   1.5630   1.5696   1.5907
  1.6098   1.6261   1.6666   1.6815   1.6880   1.6991   1.7180   1.7407
  1.7524   1.7884   1.7973   1.8194   1.8893   1.9045   1.9265   1.9548
  1.9931   2.0445   2.0974   2.1370   2.1840   2.1971   2.2076   2.2247
  2.2612   2.2941   2.3660   2.4211   2.4657   2.4965   2.5265   2.5584
  2.5819   2.5983   2.6432   2.6539   2.6729   2.6794   2.7199   2.7253
  2.7558   2.7607   2.7650   2.7862   2.8218   2.8471   2.8694   2.8748
  2.9006   2.9282   2.9562   2.9619   2.9769   2.9964   3.0357   3.0458
  3.0854   3.1128   3.1215   3.1371   3.1514   3.1566   3.1784   3.1960
  3.2129   3.2234   3.2582   3.2822   3.2956   3.3099   3.3226   3.3388
  3.3431   3.3584   3.3826   3.3858   3.4093   3.4127   3.4271   3.4340
  3.4470   3.4680   3.4836   3.4881   3.5031   3.5274   3.5348   3.5608
  3.5832   3.5952   3.6108   3.6171   3.6274   3.6500   3.6684   3.6747
  3.6889   3.7034   3.7318   3.7424   3.7703   3.7794   3.7855   3.8000
  3.8059   3.8346   3.8609   3.8684   3.8802   3.9076   3.9217   3.9618
  3.9631   3.9903   4.0134   4.0314   4.0438   4.0694   4.0892   4.1021
  4.1197   4.1331   4.1493   4.1613   4.2077   4.2182   4.2271   4.2503
  4.2840   4.2863   4.3175   4.3285   4.3393   4.3663   4.3943   4.4038
  4.4106   4.4339   4.4395   4.4542   4.4709   4.5274   4.5609   4.5825
  4.5991   4.6211   4.6269   4.6804   4.7204   4.7345   4.7725   4.7969
  4.8108   4.8255   4.8753   4.8846   4.9138   4.9340   5.0782   5.0949
  5.1086   5.1363   5.1884   5.2005   5.2405   5.2605   5.2861   5.3198
  5.3619   5.4042   5.4133   5.4444   5.4807   5.4850   5.5567   5.5665
  5.5826   5.6237   5.6334   5.6785   5.7008   5.8213   5.8430   5.8708
  5.9247   6.0219   6.0568   6.1305   6.2268   6.2513   6.2964   6.3564
  6.4582   6.5374   9.1827  11.3769  12.9327  13.8491  14.1736  14.4440
 --------------------------------------------------------------
 
          Ground-State Mulliken Net Atomic Charges

     Atom                 Charge (a.u.)
  ----------------------------------------
      1 C                     0.050812
      2 C                    -0.270568
      3 C                     0.035007
      4 H                     0.177173
      5 C                    -0.256279
      6 S                    -0.005652
      7 C                    -0.273683
      8 H                     0.101319
      9 H                     0.107069
     10 H                     0.107369
     11 C                    -0.369925
     12 H                     0.123618
     13 H                     0.137390
     14 H                     0.142685
     15 H                     0.193665
  ----------------------------------------
  Sum of atomic charges =     0.000000

 -----------------------------------------------------------------
                    Cartesian Multipole Moments
 -----------------------------------------------------------------
    Charge (ESU x 10^10)
                -0.0000
    Dipole Moment (Debye)
         X      -0.0995      Y      -0.1674      Z       2.0759
       Tot       2.0850
    Quadrupole Moments (Debye-Ang)
        XX     -53.5410     XY       2.2082     YY     -42.3599
        XZ       0.2817     YZ      -0.9121     ZZ     -48.8489
    Octopole Moments (Debye-Ang^2)
       XXX     -18.3676    XXY     -31.2946    XYY      -3.5202
       YYY     -77.8735    XXZ      -3.0019    XYZ      -1.3884
       YYZ      -2.4217    XZZ      -5.0574    YZZ     -23.9432
       ZZZ      -1.0419
    Hexadecapole Moments (Debye-Ang^3)
      XXXX     -95.9715   XXXY     -55.2676   XXYY    -155.7198
      XYYY     -44.8315   YYYY    -792.8713   XXXZ     -15.3314
      XXYZ     -29.6088   XYYZ      -4.3568   YYYZ    -109.1001
      XXZZ    -104.7291   XYZZ     -15.1855   YYZZ    -213.9823
      XZZZ     -18.0039   YZZZ     -98.0665   ZZZZ    -491.0773
 -----------------------------------------------------------------
 Total job time:  15.74s(wall), 748.64s(cpu) 
 Fri Dec 15 13:58:59 2023

        *************************************************************
        *                                                           *
        *  Thank you very much for using Q-Chem.  Have a nice day.  *
        *                                                           *
        *************************************************************


0 sent ACK to 0 
now end server 0 ... 
cleanup process ... done
remove work dirs ./qchem3257053.0 -- ./qchem3257053.0
rm -rf ./qchem3257053.0
rm -rf ./qchem3257053
