You are running Q-Chem version: 5.4.0

#
# job setting
#
local host:  exp-7-20
current dir: /home/rramji/project-csd799/aromodel/p3ht-qchem/methylated-rotation-run
input file:  Methylthiophene_Phi_0_Theta_50_Methylthiophene_Hydrogenated_Improper.qcin
output file: 
nprocs     : 1
nthreads   : 64
#
# qchem installation setting
#
QC:          /cm/shared/apps/spack/cpu/opt/spack/linux-centos8-zen2/gcc-10.2.0/qchem-5.4-akfmr7b3t57bfs6qan3padb2wnb2i7cl
QCAUX:       /cm/shared/apps/spack/cpu/opt/spack/linux-centos8-zen2/gcc-10.2.0/qchem-5.4-akfmr7b3t57bfs6qan3padb2wnb2i7cl/qcaux
QCPROG:      /cm/shared/apps/spack/cpu/opt/spack/linux-centos8-zen2/gcc-10.2.0/qchem-5.4-akfmr7b3t57bfs6qan3padb2wnb2i7cl/exe/qcprog.exe
QCPROG_S:    /cm/shared/apps/spack/cpu/opt/spack/linux-centos8-zen2/gcc-10.2.0/qchem-5.4-akfmr7b3t57bfs6qan3padb2wnb2i7cl/exe/qcprog.exe_s
PARALLEL:    -DPARALLEL
QCMPI:       mpich
#
# qchem directory setting
#
qcrun:       qchem3254515
QCSCRATCH:   .
QCLOCALSCR:  
QCTMPDIR:    .
QCFILEPREF:  ./qchem3254515
QCSAVEDIR:   
workdirs:    ./qchem3254515
workdir0:    ./qchem3254515
partmpdirs =  
#
# parallel setting
#
QCRSH:           ssh
QCMPI:           mpich
QCMPIRUN:        /cm/shared/apps/spack/cpu/opt/spack/linux-centos8-zen2/gcc-10.2.0/qchem-5.4-akfmr7b3t57bfs6qan3padb2wnb2i7cl/bin/mpi/mpirun_qchem
QCMACHINEFILE:   ./qchem3254515/hostfile
exp-7-20

#
# env setting
#
exported envs:   QC QCAUX QCSCRATCH QCRUNNAME QCFILEPREF QCPROG QCPROG_S GUIFILE

Running Job 1 of 1 Methylthiophene_Phi_0_Theta_50_Methylthiophene_Hydrogenated_Improper.qcin
qchem Methylthiophene_Phi_0_Theta_50_Methylthiophene_Hydrogenated_Improper.qcin_3254515.0 ./qchem3254515/ 1
/cm/shared/apps/spack/cpu/opt/spack/linux-centos8-zen2/gcc-10.2.0/qchem-5.4-akfmr7b3t57bfs6qan3padb2wnb2i7cl/bin/mpi/mpirun_qchem -machinefile ./qchem3254515/hostfile -np 1 /cm/shared/apps/spack/cpu/opt/spack/linux-centos8-zen2/gcc-10.2.0/qchem-5.4-akfmr7b3t57bfs6qan3padb2wnb2i7cl/exe/qcprog.exe Methylthiophene_Phi_0_Theta_50_Methylthiophene_Hydrogenated_Improper.qcin_3254515.0 ./qchem3254515/

Process 0 of 1 is on exp-7-20 - thread support 0
initial socket setup ...start
initial socket setup ...done 
now start server 0 ... 
                  Welcome to Q-Chem
     A Quantum Leap Into The Future Of Chemistry


 Q-Chem 5.4, Q-Chem, Inc., Pleasanton, CA (2021)

 License issued to: University of California, San Diego (site)

 E. Epifanovsky,  A. T. B. Gilbert,  Xintian Feng,  Joonho Lee,  Yuezhi Mao,  
 N. Mardirossian,  P. Pokhilko,  A. White,  M. Wormit,  M. P. Coons,  
 A. L. Dempwolff,  Zhengting Gan,  D. Hait,  P. R. Horn,  L. D. Jacobson,  
 I. Kaliman,  J. Kussmann,  A. W. Lange,  Ka Un Lao,  D. S. Levine,  Jie Liu,  
 S. C. McKenzie,  A. F. Morrison,  K. Nanda,  F. Plasser,  D. R. Rehn,  
 M. L. Vidal,  Zhi-Qiang You,  Ying Zhu,  B. Alam,  B. Albrecht,  
 A. Aldossary,  E. Alguire,  J. H. Andersen,  D. Barton,  K. Begam,  A. Behn,  
 Y. A. Bernard,  E. J. Berquist,  H. Burton,  A. Carreras,  K. Carter-Fenk,  
 R. Chakraborty,  A. D. Chien,  K. D. Closser,  V. Cofer-Shabica,  
 S. Dasgupta,  Jia Deng,  M. de Wergifosse,  M. Diedenhofen,  Hainam Do,  
 S. Ehlert,  Po-Tung Fang,  S. Fatehi,  Qingguo Feng,  J. Gayvert,  
 Qinghui Ge,  G. Gidofalvi,  M. Goldey,  J. Gomes,  C. Gonzalez-Espinoza,  
 S. Gulania,  A. Gunina,  M. W. D. Hanson-Heine,  P. H. P. Harbach,  
 A. W. Hauser,  M. F. Herbst,  M. Hernandez Vera,  M. Hodecker,  
 Z. C. Holden,  S. Houck,  Xunkun Huang,  Kerwin Hui,  B. C. Huynh,  
 M. Ivanov,  Hyunjun Ji,  Hanjie Jiang,  B. Kaduk,  S. Kaehler,  
 K. Khistyaev,  Jaehoon Kim,  P. Klunzinger,  Z. Koczor-Benda,  
 Joong Hoon Koh,  D. Kosenkov,  L. Koulias,  T. Kowalczyk,  C. M. Krauter,  
 K. Kue,  A. Kunitsa,  T. Kus,  A. Landau,  K. V. Lawler,  D. Lefrancois,  
 S. Lehtola,  Rain Li,  Yi-Pei Li,  Jiashu Liang,  M. Liebenthal,  
 Hung-Hsuan Lin,  You-Sheng Lin,  Fenglai Liu,  Kuan-Yu Liu,  
 M. Loipersberger,  A. Luenser,  A. Manjanath,  P. Manohar,  E. Mansoor,  
 S. F. Manzer,  Shan-Ping Mao,  A. V. Marenich,  T. Markovich,  S. Mason,  
 S. A. Maurer,  P. F. McLaughlin,  M. F. S. J. Menger,  J.-M. Mewes,  
 S. A. Mewes,  P. Morgante,  J. W. Mullinax,  T. S. Nguyen-Beck,  
 K. J. Oosterbaan,  G. Paran,  Alexander C. Paul,  Suranjan K. Paul,  
 F. Pavosevic,  Zheng Pei,  S. Prager,  E. I. Proynov,  E. Ramos,  B. Rana,  
 A. E. Rask,  A. Rettig,  R. M. Richard,  F. Rob,  E. Rossomme,  T. Scheele,  
 M. Scheurer,  M. Schneider,  N. Sergueev,  S. M. Sharada,  W. Skomorowski,  
 D. W. Small,  C. J. Stein,  Yu-Chuan Su,  E. J. Sundstrom,  Zhen Tao,  
 J. Thirman,  T. Tsuchimochi,  N. M. Tubman,  S. P. Veccham,  O. Vydrov,  
 J. Wenzel,  J. Witte,  A. Yamada,  Kun Yao,  S. Yeganeh,  S. R. Yost,  
 A. Zech,  Igor Ying Zhang,  Xing Zhang,  Yu Zhang,  D. Zuev,  
 A. Aspuru-Guzik,  A. T. Bell,  N. A. Besley,  K. B. Bravaya,  B. R. Brooks,  
 D. Casanova,  Jeng-Da Chai,  S. Coriani,  C. J. Cramer,  
 A. E. DePrince, III,  R. A. DiStasio Jr.,  A. Dreuw,  B. D. Dunietz,  
 T. R. Furlani,  W. A. Goddard III,  S. Grimme,  S. Hammes-Schiffer,  
 T. Head-Gordon,  W. J. Hehre,  Chao-Ping Hsu,  T.-C. Jagau,  Yousung Jung,  
 A. Klamt,  Jing Kong,  D. S. Lambrecht,  WanZhen Liang,  N. J. Mayhall,  
 C. W. McCurdy,  J. B. Neaton,  C. Ochsenfeld,  J. A. Parkhill,  R. Peverati,  
 V. A. Rassolov,  Yihan Shao,  L. V. Slipchenko,  T. Stauch,  R. P. Steele,  
 J. E. Subotnik,  A. J. W. Thom,  A. Tkatchenko,  D. G. Truhlar,  
 T. Van Voorhis,  T. A. Wesolowski,  K. B. Whaley,  H. L. Woodcock III,  
 P. M. Zimmerman,  S. Faraji,  P. M. W. Gill,  M. Head-Gordon,  
 J. M. Herbert,  A. I. Krylov

 Contributors to earlier versions of Q-Chem not listed above: 
 R. D. Adamson,  B. Austin,  R. Baer,  J. Baker,  G. J. O. Beran,  
 K. Brandhorst,  S. T. Brown,  E. F. C. Byrd,  A. K. Chakraborty,  
 G. K. L. Chan,  Chun-Min Chang,  Yunqing Chen,  C.-L. Cheng,  
 Siu Hung Chien,  D. M. Chipman,  D. L. Crittenden,  H. Dachsel,  
 R. J. Doerksen,  A. D. Dutoi,  R. G. Edgar,  J. Fosso-Tande,  
 L. Fusti-Molnar,  D. Ghosh,  A. Ghysels,  A. Golubeva-Zadorozhnaya,  
 J. Gonthier,  M. S. Gordon,  S. R. Gwaltney,  G. Hawkins,  J. E. Herr,  
 A. Heyden,  S. Hirata,  E. G. Hohenstein,  G. Kedziora,  F. J. Keil,  
 C. Kelley,  Jihan Kim,  R. A. King,  R. Z. Khaliullin,  P. P. Korambath,  
 W. Kurlancheek,  A. Laurent,  A. M. Lee,  M. S. Lee,  S. V. Levchenko,  
 Ching Yeh Lin,  D. Liotard,  E. Livshits,  R. C. Lochan,  I. Lotan,  
 L. A. Martinez-Martinez,  P. E. Maslen,  N. Nair,  D. P. O'Neill,  
 D. Neuhauser,  E. Neuscamman,  C. M. Oana,  R. Olivares-Amaya,  R. Olson,  
 T. M. Perrine,  B. Peters,  P. A. Pieniazek,  A. Prociuk,  Y. M. Rhee,  
 J. Ritchie,  M. A. Rohrdanz,  E. Rosta,  N. J. Russ,  H. F. Schaefer III,  
 M. W. Schmidt,  N. E. Schultz,  S. Sharma,  N. Shenvi,  C. D. Sherrill,  
 A. C. Simmonett,  A. Sodt,  T. Stein,  D. Stuck,  K. S. Thanthiriwatte,  
 V. Vanovschi,  L. Vogt,  Tao Wang,  A. Warshel,  M. A. Watson,  
 C. F. Williams,  Q. Wu,  X. Xu,  Jun Yang,  W. Zhang,  Yan Zhao

 Please cite Q-Chem as follows:
 Y. Shao et al., Mol. Phys. 113, 184-215 (2015)
 DOI: 10.1080/00268976.2014.952696

 Q-Chem 5.4.0 for Intel X86 EM64T Linux

 Parts of Q-Chem use Armadillo 9.800.1 (Horizon Scraper).
 http://arma.sourceforge.net/

 Q-Chem begins on Fri Dec 15 13:56:07 2023  

 Host: 
0

     Scratch files written to ./qchem3254515//
 May1621 |scratch|qcdevops|jenkins|workspace|build_RNUM    
 Parallel job on  1  processors
 Processing $rem in /cm/shared/apps/spack/cpu/opt/spack/linux-centos8-zen2/gcc-10.2.0/qchem-5.4-akfmr7b3t57bfs6qan3padb2wnb2i7cl/config/preferences:
 Processing $rem in /home/rramji/.qchemrc:
 Symmetry turned off for PCM/SM12/SMD calculation
 Core orbitals will be frozen

 Checking the input file for inconsistencies... 	...done.

 Q-Chem warning in module forms1/BasisType.C, line 2236:

 You are not using the predefined 5D/6D in this basis set.


--------------------------------------------------------------
User input:
--------------------------------------------------------------
$molecule
0 1
C	-0.000358	-0.576386	-0.002787
C	-0.003458	0.268214	1.110213
C	-0.008158	1.659214	0.817813
H	-0.002058	-0.119886	2.140113
C	-0.008758	1.907314	-0.566387
S	-0.004058	0.394214	-1.467487
C	-0.011758	2.723814	1.879613
H	-0.010258	2.275814	2.892213
H	-0.906258	3.376814	1.805313
H	0.878542	3.382714	1.805413
C	-0.000358	-2.026486	-0.002787
H	0.693842	-2.026986	0.824513
H	-0.719158	-2.561586	0.600113
H	0.637742	-2.713686	-0.538587
H	-0.012058	2.865414	-1.099887
$end

$rem
JOBTYPE		SP
EXCHANGE	HF
CORRELATION	pRIMP2
BASIS		cc-pvtz
METHOD		rimp2
AUX_BASIS	rimp2-cc-pvtz
SOLVENT_METHOD	PCM
PURECART	11111
SYMMETRY	false
MEM_TOTAL	110000
SCF_CONVERGENCE = 6
THRESH=10
GUI = 2
$end



$solvent
dielectric 4.90
$end
--------------------------------------------------------------
 ----------------------------------------------------------------
             Standard Nuclear Orientation (Angstroms)
    I     Atom           X                Y                Z
 ----------------------------------------------------------------
    1      C      -0.0003580000    -0.5763860000    -0.0027870000
    2      C      -0.0034580000     0.2682140000     1.1102130000
    3      C      -0.0081580000     1.6592140000     0.8178130000
    4      H      -0.0020580000    -0.1198860000     2.1401130000
    5      C      -0.0087580000     1.9073140000    -0.5663870000
    6      S      -0.0040580000     0.3942140000    -1.4674870000
    7      C      -0.0117580000     2.7238140000     1.8796130000
    8      H      -0.0102580000     2.2758140000     2.8922130000
    9      H      -0.9062580000     3.3768140000     1.8053130000
   10      H       0.8785420000     3.3827140000     1.8054130000
   11      C      -0.0003580000    -2.0264860000    -0.0027870000
   12      H       0.6938420000    -2.0269860000     0.8245130000
   13      H      -0.7191580000    -2.5615860000     0.6001130000
   14      H       0.6377420000    -2.7136860000    -0.5385870000
   15      H      -0.0120580000     2.8654140000    -1.0998870000
 ----------------------------------------------------------------
 Nuclear Repulsion Energy =         343.99845450 hartrees
 There are       30 alpha and       30 beta electrons
 Requested basis set is cc-pVTZ
 There are 120 shells and 326 basis functions

 Total QAlloc Memory Limit 110000 MB
 Mega-Array Size       188 MB
 MEM_STATIC part       192 MB
 Discretize the solute cavity surface with Lebedev spheres
	Using 110 Lebedev grid points for each H atom
	Using 194 Lebedev grid points for other atoms
	Atomic van der Waals radii will be scaled by 1.20
 Remove points where switching function is < 1.0e-08
 Keep 1070 surface tesserae and discard 1168 interior tesserae
 Molecular Surface Area = 159.826 Angst**2

                       Distance Matrix (Angstroms)
             C (  1)   C (  2)   C (  3)   H (  4)   C (  5)   S (  6)
   C (  2)  1.397186
   C (  3)  2.381460  1.421408
   H (  4)  2.190985  1.100599  2.216689
   C (  5)  2.546857  2.344710  1.406259  3.381527
   S (  6)  1.757107  2.580778  2.612056  3.644047  1.761100
   C (  7)  3.799326  2.573328  1.503597  2.855623  2.578681  4.078011
   H (  8)  4.064009  2.684405  2.164102  2.510996  3.478176  4.748415
   H (  9)  4.440458  3.310832  2.175291  3.627200  2.930853  4.518970
   H ( 10)  4.440329  3.310791  2.175326  3.627077  2.930792  4.519070
   C ( 11)  1.450100  2.550378  3.775954  2.868300  3.973978  2.829337
   H ( 12)  1.808474  2.415739  3.752455  2.419114  4.231662  3.406250
   H ( 13)  2.195719  2.963140  4.285798  2.974514  4.672950  3.677376
   H ( 14)  2.293971  3.467190  4.623771  3.783197  4.666088  3.306630
   H ( 15)  3.612444  3.410288  2.265504  4.405646  1.096626  2.498404
             C (  7)   H (  8)   H (  9)   H ( 10)   C ( 11)   H ( 12)
   H (  8)  1.107278
   H (  9)  1.109982  1.787839
   H ( 10)  1.110085  1.787828  1.784810
   C ( 11)  5.109688  5.185644  5.769361  5.770745
   H ( 12)  4.917439  4.825477  5.720432  5.501012  1.079972
   H ( 13)  5.483884  5.399694  6.062352  6.272168  1.080043  1.527325
   H ( 14)  5.986313  6.089779  6.706116  6.535932  1.080045  1.527333
   H ( 15)  2.982863  4.035405  3.082420  3.082456  5.013427  5.304450
             H ( 13)   H ( 14)
   H ( 14)  1.777906
   H ( 15)  5.730822  5.644790
 
 Requested basis set is rimp2-cc-pVTZ
 There are 250 shells and 848 basis functions
 A cutoff of  1.0D-10 yielded   6183 shell pairs
 There are     45263 function pairs (     58214 Cartesian)
 Smallest overlap matrix eigenvalue = 9.28E-05

 Scale SEOQF with 1.000000e+00/1.000000e-01/1.000000e-01

 Standard Electronic Orientation quadrupole field applied
 Nucleus-field energy     =     0.0000000032 hartrees
 Guess from superposition of atomic densities
 Warning:  Energy on first SCF cycle will be non-variational
 SAD guess density has 60.000000 electrons

 -----------------------------------------------------------------------
  General SCF calculation program by
  Eric Jon Sundstrom, Paul Horn, Yuezhi Mao, Dmitri Zuev, Alec White,
  David Stuck, Shaama M.S., Shane Yost, Joonho Lee, David Small,
  Daniel Levine, Susi Lehtola, Hugh Burton, Evgeny Epifanovsky,
  Bang C. Huynh
 -----------------------------------------------------------------------
 Hartree-Fock
 using 64 threads for integral computing
 -------------------------------------------------------
 OpenMP Integral computing Module                
 Release: version 1.0, May 2013, Q-Chem Inc. Pittsburgh 
 -------------------------------------------------------
 A restricted SCF calculation will be
 performed using DIIS
 SCF converges when DIIS error is below 1.0e-06
 ---------------------------------------
  Cycle       Energy         DIIS error
 ---------------------------------------
    1    -632.0849457276      2.91e-02  
    2    -629.3460796334      1.92e-03  
    3    -629.4157989556      6.64e-04  
    4    -629.4229971071      3.44e-04  
    5    -629.4250322660      6.14e-05  
    6    -629.4251574178      2.49e-05  
    7    -629.4251871757      1.10e-05  
    8    -629.4251957097      4.94e-06  
    9    -629.4251971444      1.65e-06  
   10    -629.4251973103      5.53e-07  Convergence criterion met
 ---------------------------------------
 SCF time:   CPU 689.56s  wall 14.00s 

************** Final PCM Free Energy Summary **************
 G_electrostatic  =      -0.00562268 hartree =      -3.52828769 kcal/mol
 G_cavitation     =       0.00000000 hartree =       0.00000000 kcal/mol
 G_dispersion     =       0.00000000 hartree =       0.00000000 kcal/mol
 G_repulsion      =       0.00000000 hartree =       0.00000000 kcal/mol
 --------------------------------------------------
 Non-electrostatic Free Energy =       0.00000000 hartree =       0.00000000 kcal/mol
 Total                         =      -0.00562268 hartree =      -3.52828769 kcal/mol
 --------------------------------------------------
 SCF Energy (H0 + V/2)                       =    -629.42519731 
 Solute Internal Energy (H0)                 =    -629.41957463 
 Total Free Energy (H0 + V/2 + non-elec)     =    -629.42519731 hartree
                                             = -394970.27259824 kcal/mol
***********************************************************

 SCF   energy in the final basis set =     -629.4251973103
 Total energy in the final basis set =     -629.4251973103


 --------------------------------------------------------------
  Generalized many-body perturbation theory program
  by Joonho Lee, Fazle Rob, Xintian Feng, Evgeny Epifanovsky

 No regularization used 
 (reg. param. = 0.0000e+00)
  (P|Q)^-1/2 Time:  CPU 8.51 s  wall 0.14 s

 In RI-MP2 calculation: 
 # of frozen core orbitals: 11

 Components of the RIMP2 correlation energy:
        aaaa    correlation energy =        -0.1454783996 a.u.
        abab    correlation energy =        -0.8861041572 a.u.
        bbbb    correlation energy =        -0.1454783996 a.u.
        non-Brillouin singles      =        -0.0000000000 a.u.
        total same-spin energy     =        -0.2909567992 a.u.
        total opposite-spin energy =        -0.8861041572 a.u.

 Total  RIMP2   correlation energy =        -1.1770609565 a.u.
        RIMP2         total energy =      -630.6022582667 a.u.

 RI-MP2 Energy Time:  CPU 37.40 s  wall 0.62 s
 
 --------------------------------------------------------------
 
                    Orbital Energies (a.u.)
 --------------------------------------------------------------
 
 Alpha MOs
 -- Occupied --
-91.9770 -11.2818 -11.2532 -11.2475 -11.2288 -11.2272 -11.2192  -8.9769
 -6.6578  -6.6573  -6.6567  -1.1603  -1.0532  -0.9990  -0.9391  -0.8849
 -0.7422  -0.7211  -0.6474  -0.5909  -0.5752  -0.5680  -0.5584  -0.5423
 -0.5092  -0.4887  -0.4668  -0.4467  -0.3370  -0.2973
 -- Virtual --
  0.1091   0.1449   0.1492   0.1765   0.1814   0.1897   0.2084   0.2218
  0.2354   0.2422   0.2543   0.2660   0.2976   0.3215   0.3432   0.3537
  0.3835   0.3894   0.4083   0.4142   0.4333   0.4479   0.4722   0.4926
  0.4980   0.5064   0.5188   0.5350   0.5398   0.5491   0.5680   0.5922
  0.5992   0.6082   0.6139   0.6209   0.6393   0.6410   0.6467   0.6534
  0.6605   0.6652   0.6804   0.7030   0.7306   0.7527   0.7642   0.7811
  0.8048   0.8326   0.8475   0.8513   0.8692   0.8916   0.9192   0.9409
  0.9542   0.9596   0.9834   1.0180   1.0323   1.0591   1.0661   1.0681
  1.0752   1.0871   1.1006   1.1429   1.1620   1.1872   1.2010   1.2131
  1.2195   1.2266   1.2541   1.2612   1.2735   1.2783   1.3230   1.3289
  1.3414   1.3836   1.3935   1.4026   1.4230   1.4304   1.4627   1.4849
  1.4980   1.5174   1.5305   1.5389   1.5582   1.5652   1.5708   1.5894
  1.6047   1.6264   1.6565   1.6774   1.6931   1.6987   1.7201   1.7435
  1.7502   1.7915   1.8148   1.8289   1.8871   1.9035   1.9232   1.9408
  1.9953   2.0409   2.0960   2.1489   2.1834   2.2018   2.2234   2.2481
  2.2643   2.2978   2.3676   2.4115   2.4604   2.5034   2.5250   2.5489
  2.5775   2.5978   2.6470   2.6504   2.6816   2.6940   2.7087   2.7378
  2.7453   2.7611   2.7655   2.7883   2.8125   2.8484   2.8726   2.8857
  2.9011   2.9288   2.9479   2.9641   2.9773   3.0030   3.0228   3.0406
  3.0882   3.1062   3.1136   3.1336   3.1491   3.1578   3.1632   3.1900
  3.2321   3.2408   3.2568   3.2872   3.2995   3.3128   3.3169   3.3249
  3.3309   3.3646   3.3765   3.3926   3.4029   3.4241   3.4328   3.4408
  3.4444   3.4663   3.4840   3.4971   3.5145   3.5270   3.5454   3.5619
  3.5741   3.5977   3.6004   3.6074   3.6220   3.6334   3.6694   3.6839
  3.6857   3.6968   3.7226   3.7463   3.7600   3.7749   3.7831   3.8029
  3.8112   3.8272   3.8532   3.8714   3.9132   3.9225   3.9511   3.9613
  3.9763   3.9898   4.0016   4.0174   4.0508   4.0830   4.0866   4.1050
  4.1170   4.1274   4.1497   4.1933   4.2038   4.2211   4.2244   4.2452
  4.2820   4.2939   4.3117   4.3309   4.3451   4.3695   4.3967   4.3999
  4.4073   4.4320   4.4395   4.4595   4.4723   4.5141   4.5494   4.5941
  4.5978   4.6298   4.6344   4.6753   4.7245   4.7410   4.7562   4.7877
  4.8154   4.8322   4.8624   4.8855   4.9109   4.9563   5.0932   5.0948
  5.1224   5.1363   5.1448   5.2009   5.2438   5.2632   5.2845   5.3213
  5.3660   5.4010   5.4092   5.4379   5.4560   5.4965   5.5522   5.5567
  5.5881   5.6241   5.6510   5.6842   5.6985   5.8198   5.8391   5.8684
  5.9350   5.9770   6.1177   6.1407   6.2271   6.2495   6.2931   6.4029
  6.4189   6.5149   9.2335  11.3780  12.9467  13.8671  14.1638  14.4660
 --------------------------------------------------------------
 
          Ground-State Mulliken Net Atomic Charges

     Atom                 Charge (a.u.)
  ----------------------------------------
      1 C                     0.062377
      2 C                    -0.274296
      3 C                     0.033969
      4 H                     0.176116
      5 C                    -0.264448
      6 S                    -0.004997
      7 C                    -0.274610
      8 H                     0.101299
      9 H                     0.107418
     10 H                     0.107176
     11 C                    -0.384094
     12 H                     0.131825
     13 H                     0.133819
     14 H                     0.155574
     15 H                     0.192870
  ----------------------------------------
  Sum of atomic charges =     0.000000

 -----------------------------------------------------------------
                    Cartesian Multipole Moments
 -----------------------------------------------------------------
    Charge (ESU x 10^10)
                -0.0000
    Dipole Moment (Debye)
         X       0.4354      Y      -0.3945      Z       1.9969
       Tot       2.0815
    Quadrupole Moments (Debye-Ang)
        XX     -53.9646     XY      -1.1373     YY     -42.0100
        XZ      -0.3137     YZ      -0.6275     ZZ     -48.7968
    Octopole Moments (Debye-Ang^2)
       XXX      -0.0033    XXY     -32.3032    XYY       2.4755
       YYY     -80.0463    XXZ      -2.7355    XYZ       1.1903
       YYZ      -3.2213    XZZ      -0.0955    YZZ     -24.8697
       ZZZ      -1.3613
    Hexadecapole Moments (Debye-Ang^3)
      XXXX     -78.7800   XXXY       2.9720   XXYY    -158.8532
      XYYY      -4.3181   YYYY    -806.8665   XXXZ       0.4468
      XXYZ     -30.1062   XYYZ      -3.6385   YYYZ    -106.5296
      XXZZ    -102.3141   XYZZ       1.0190   YYZZ    -215.2253
      XZZZ       0.8580   YZZZ     -99.8539   ZZZZ    -491.5970
 -----------------------------------------------------------------
 Total job time:  16.76s(wall), 763.04s(cpu) 
 Fri Dec 15 13:56:24 2023

        *************************************************************
        *                                                           *
        *  Thank you very much for using Q-Chem.  Have a nice day.  *
        *                                                           *
        *************************************************************


0 sent ACK to 0 
now end server 0 ... 
cleanup process ... done
remove work dirs ./qchem3254515.0 -- ./qchem3254515.0
rm -rf ./qchem3254515.0
rm -rf ./qchem3254515
