You are running Q-Chem version: 5.4.0

#
# job setting
#
local host:  exp-7-21
current dir: /home/rramji/project-csd799/aromodel/p3ht-qchem/methylated-rotation-run
input file:  Methylthiophene_Phi_15_Theta_20_Methylthiophene_Hydrogenated_Improper.qcin
output file: 
nprocs     : 1
nthreads   : 64
#
# qchem installation setting
#
QC:          /cm/shared/apps/spack/cpu/opt/spack/linux-centos8-zen2/gcc-10.2.0/qchem-5.4-akfmr7b3t57bfs6qan3padb2wnb2i7cl
QCAUX:       /cm/shared/apps/spack/cpu/opt/spack/linux-centos8-zen2/gcc-10.2.0/qchem-5.4-akfmr7b3t57bfs6qan3padb2wnb2i7cl/qcaux
QCPROG:      /cm/shared/apps/spack/cpu/opt/spack/linux-centos8-zen2/gcc-10.2.0/qchem-5.4-akfmr7b3t57bfs6qan3padb2wnb2i7cl/exe/qcprog.exe
QCPROG_S:    /cm/shared/apps/spack/cpu/opt/spack/linux-centos8-zen2/gcc-10.2.0/qchem-5.4-akfmr7b3t57bfs6qan3padb2wnb2i7cl/exe/qcprog.exe_s
PARALLEL:    -DPARALLEL
QCMPI:       mpich
#
# qchem directory setting
#
qcrun:       qchem15186
QCSCRATCH:   .
QCLOCALSCR:  
QCTMPDIR:    .
QCFILEPREF:  ./qchem15186
QCSAVEDIR:   
workdirs:    ./qchem15186
workdir0:    ./qchem15186
partmpdirs =  
#
# parallel setting
#
QCRSH:           ssh
QCMPI:           mpich
QCMPIRUN:        /cm/shared/apps/spack/cpu/opt/spack/linux-centos8-zen2/gcc-10.2.0/qchem-5.4-akfmr7b3t57bfs6qan3padb2wnb2i7cl/bin/mpi/mpirun_qchem
QCMACHINEFILE:   ./qchem15186/hostfile
exp-7-21

#
# env setting
#
exported envs:   QC QCAUX QCSCRATCH QCRUNNAME QCFILEPREF QCPROG QCPROG_S GUIFILE

Running Job 1 of 1 Methylthiophene_Phi_15_Theta_20_Methylthiophene_Hydrogenated_Improper.qcin
qchem Methylthiophene_Phi_15_Theta_20_Methylthiophene_Hydrogenated_Improper.qcin_15186.0 ./qchem15186/ 1
/cm/shared/apps/spack/cpu/opt/spack/linux-centos8-zen2/gcc-10.2.0/qchem-5.4-akfmr7b3t57bfs6qan3padb2wnb2i7cl/bin/mpi/mpirun_qchem -machinefile ./qchem15186/hostfile -np 1 /cm/shared/apps/spack/cpu/opt/spack/linux-centos8-zen2/gcc-10.2.0/qchem-5.4-akfmr7b3t57bfs6qan3padb2wnb2i7cl/exe/qcprog.exe Methylthiophene_Phi_15_Theta_20_Methylthiophene_Hydrogenated_Improper.qcin_15186.0 ./qchem15186/

Process 0 of 1 is on exp-7-21 - thread support 0
initial socket setup ...start
initial socket setup ...done 
now start server 0 ... 
                  Welcome to Q-Chem
     A Quantum Leap Into The Future Of Chemistry


 Q-Chem 5.4, Q-Chem, Inc., Pleasanton, CA (2021)

 License issued to: University of California, San Diego (site)

 E. Epifanovsky,  A. T. B. Gilbert,  Xintian Feng,  Joonho Lee,  Yuezhi Mao,  
 N. Mardirossian,  P. Pokhilko,  A. White,  M. Wormit,  M. P. Coons,  
 A. L. Dempwolff,  Zhengting Gan,  D. Hait,  P. R. Horn,  L. D. Jacobson,  
 I. Kaliman,  J. Kussmann,  A. W. Lange,  Ka Un Lao,  D. S. Levine,  Jie Liu,  
 S. C. McKenzie,  A. F. Morrison,  K. Nanda,  F. Plasser,  D. R. Rehn,  
 M. L. Vidal,  Zhi-Qiang You,  Ying Zhu,  B. Alam,  B. Albrecht,  
 A. Aldossary,  E. Alguire,  J. H. Andersen,  D. Barton,  K. Begam,  A. Behn,  
 Y. A. Bernard,  E. J. Berquist,  H. Burton,  A. Carreras,  K. Carter-Fenk,  
 R. Chakraborty,  A. D. Chien,  K. D. Closser,  V. Cofer-Shabica,  
 S. Dasgupta,  Jia Deng,  M. de Wergifosse,  M. Diedenhofen,  Hainam Do,  
 S. Ehlert,  Po-Tung Fang,  S. Fatehi,  Qingguo Feng,  J. Gayvert,  
 Qinghui Ge,  G. Gidofalvi,  M. Goldey,  J. Gomes,  C. Gonzalez-Espinoza,  
 S. Gulania,  A. Gunina,  M. W. D. Hanson-Heine,  P. H. P. Harbach,  
 A. W. Hauser,  M. F. Herbst,  M. Hernandez Vera,  M. Hodecker,  
 Z. C. Holden,  S. Houck,  Xunkun Huang,  Kerwin Hui,  B. C. Huynh,  
 M. Ivanov,  Hyunjun Ji,  Hanjie Jiang,  B. Kaduk,  S. Kaehler,  
 K. Khistyaev,  Jaehoon Kim,  P. Klunzinger,  Z. Koczor-Benda,  
 Joong Hoon Koh,  D. Kosenkov,  L. Koulias,  T. Kowalczyk,  C. M. Krauter,  
 K. Kue,  A. Kunitsa,  T. Kus,  A. Landau,  K. V. Lawler,  D. Lefrancois,  
 S. Lehtola,  Rain Li,  Yi-Pei Li,  Jiashu Liang,  M. Liebenthal,  
 Hung-Hsuan Lin,  You-Sheng Lin,  Fenglai Liu,  Kuan-Yu Liu,  
 M. Loipersberger,  A. Luenser,  A. Manjanath,  P. Manohar,  E. Mansoor,  
 S. F. Manzer,  Shan-Ping Mao,  A. V. Marenich,  T. Markovich,  S. Mason,  
 S. A. Maurer,  P. F. McLaughlin,  M. F. S. J. Menger,  J.-M. Mewes,  
 S. A. Mewes,  P. Morgante,  J. W. Mullinax,  T. S. Nguyen-Beck,  
 K. J. Oosterbaan,  G. Paran,  Alexander C. Paul,  Suranjan K. Paul,  
 F. Pavosevic,  Zheng Pei,  S. Prager,  E. I. Proynov,  E. Ramos,  B. Rana,  
 A. E. Rask,  A. Rettig,  R. M. Richard,  F. Rob,  E. Rossomme,  T. Scheele,  
 M. Scheurer,  M. Schneider,  N. Sergueev,  S. M. Sharada,  W. Skomorowski,  
 D. W. Small,  C. J. Stein,  Yu-Chuan Su,  E. J. Sundstrom,  Zhen Tao,  
 J. Thirman,  T. Tsuchimochi,  N. M. Tubman,  S. P. Veccham,  O. Vydrov,  
 J. Wenzel,  J. Witte,  A. Yamada,  Kun Yao,  S. Yeganeh,  S. R. Yost,  
 A. Zech,  Igor Ying Zhang,  Xing Zhang,  Yu Zhang,  D. Zuev,  
 A. Aspuru-Guzik,  A. T. Bell,  N. A. Besley,  K. B. Bravaya,  B. R. Brooks,  
 D. Casanova,  Jeng-Da Chai,  S. Coriani,  C. J. Cramer,  
 A. E. DePrince, III,  R. A. DiStasio Jr.,  A. Dreuw,  B. D. Dunietz,  
 T. R. Furlani,  W. A. Goddard III,  S. Grimme,  S. Hammes-Schiffer,  
 T. Head-Gordon,  W. J. Hehre,  Chao-Ping Hsu,  T.-C. Jagau,  Yousung Jung,  
 A. Klamt,  Jing Kong,  D. S. Lambrecht,  WanZhen Liang,  N. J. Mayhall,  
 C. W. McCurdy,  J. B. Neaton,  C. Ochsenfeld,  J. A. Parkhill,  R. Peverati,  
 V. A. Rassolov,  Yihan Shao,  L. V. Slipchenko,  T. Stauch,  R. P. Steele,  
 J. E. Subotnik,  A. J. W. Thom,  A. Tkatchenko,  D. G. Truhlar,  
 T. Van Voorhis,  T. A. Wesolowski,  K. B. Whaley,  H. L. Woodcock III,  
 P. M. Zimmerman,  S. Faraji,  P. M. W. Gill,  M. Head-Gordon,  
 J. M. Herbert,  A. I. Krylov

 Contributors to earlier versions of Q-Chem not listed above: 
 R. D. Adamson,  B. Austin,  R. Baer,  J. Baker,  G. J. O. Beran,  
 K. Brandhorst,  S. T. Brown,  E. F. C. Byrd,  A. K. Chakraborty,  
 G. K. L. Chan,  Chun-Min Chang,  Yunqing Chen,  C.-L. Cheng,  
 Siu Hung Chien,  D. M. Chipman,  D. L. Crittenden,  H. Dachsel,  
 R. J. Doerksen,  A. D. Dutoi,  R. G. Edgar,  J. Fosso-Tande,  
 L. Fusti-Molnar,  D. Ghosh,  A. Ghysels,  A. Golubeva-Zadorozhnaya,  
 J. Gonthier,  M. S. Gordon,  S. R. Gwaltney,  G. Hawkins,  J. E. Herr,  
 A. Heyden,  S. Hirata,  E. G. Hohenstein,  G. Kedziora,  F. J. Keil,  
 C. Kelley,  Jihan Kim,  R. A. King,  R. Z. Khaliullin,  P. P. Korambath,  
 W. Kurlancheek,  A. Laurent,  A. M. Lee,  M. S. Lee,  S. V. Levchenko,  
 Ching Yeh Lin,  D. Liotard,  E. Livshits,  R. C. Lochan,  I. Lotan,  
 L. A. Martinez-Martinez,  P. E. Maslen,  N. Nair,  D. P. O'Neill,  
 D. Neuhauser,  E. Neuscamman,  C. M. Oana,  R. Olivares-Amaya,  R. Olson,  
 T. M. Perrine,  B. Peters,  P. A. Pieniazek,  A. Prociuk,  Y. M. Rhee,  
 J. Ritchie,  M. A. Rohrdanz,  E. Rosta,  N. J. Russ,  H. F. Schaefer III,  
 M. W. Schmidt,  N. E. Schultz,  S. Sharma,  N. Shenvi,  C. D. Sherrill,  
 A. C. Simmonett,  A. Sodt,  T. Stein,  D. Stuck,  K. S. Thanthiriwatte,  
 V. Vanovschi,  L. Vogt,  Tao Wang,  A. Warshel,  M. A. Watson,  
 C. F. Williams,  Q. Wu,  X. Xu,  Jun Yang,  W. Zhang,  Yan Zhao

 Please cite Q-Chem as follows:
 Y. Shao et al., Mol. Phys. 113, 184-215 (2015)
 DOI: 10.1080/00268976.2014.952696

 Q-Chem 5.4.0 for Intel X86 EM64T Linux

 Parts of Q-Chem use Armadillo 9.800.1 (Horizon Scraper).
 http://arma.sourceforge.net/

 Q-Chem begins on Fri Dec 15 13:55:04 2023  

 Host: 
0

     Scratch files written to ./qchem15186//
 May1621 |scratch|qcdevops|jenkins|workspace|build_RNUM    
 Parallel job on  1  processors
 Processing $rem in /cm/shared/apps/spack/cpu/opt/spack/linux-centos8-zen2/gcc-10.2.0/qchem-5.4-akfmr7b3t57bfs6qan3padb2wnb2i7cl/config/preferences:
 Processing $rem in /home/rramji/.qchemrc:
 Symmetry turned off for PCM/SM12/SMD calculation
 Core orbitals will be frozen

 Checking the input file for inconsistencies... 	...done.

 Q-Chem warning in module forms1/BasisType.C, line 2236:

 You are not using the predefined 5D/6D in this basis set.


--------------------------------------------------------------
User input:
--------------------------------------------------------------
$molecule
0 1
C	-0.177827	-0.553870	-0.000871
C	0.037773	0.262730	1.112129
C	0.393273	1.607530	0.819729
H	-0.061327	-0.112470	2.142029
C	0.456873	1.847430	-0.564471
S	0.069773	0.384630	-1.465571
C	0.665373	2.636830	1.881529
H	0.550773	2.203730	2.894129
H	-0.029727	3.499130	1.807229
H	1.695873	3.042930	1.807329
C	-0.177827	-2.003970	-0.000871
H	0.837073	-2.004470	0.368529
H	-0.498927	-2.539070	0.880629
H	0.106873	-2.691170	-0.783871
H	0.701673	2.773630	-1.097971
$end

$rem
JOBTYPE		SP
EXCHANGE	HF
CORRELATION	pRIMP2
BASIS		cc-pvtz
METHOD		rimp2
AUX_BASIS	rimp2-cc-pvtz
SOLVENT_METHOD	PCM
PURECART	11111
SYMMETRY	false
MEM_TOTAL	110000
SCF_CONVERGENCE = 6
THRESH=10
GUI = 2
$end



$solvent
dielectric 4.90
$end
--------------------------------------------------------------
 ----------------------------------------------------------------
             Standard Nuclear Orientation (Angstroms)
    I     Atom           X                Y                Z
 ----------------------------------------------------------------
    1      C      -0.1778270000    -0.5538700000    -0.0008710000
    2      C       0.0377730000     0.2627300000     1.1121290000
    3      C       0.3932730000     1.6075300000     0.8197290000
    4      H      -0.0613270000    -0.1124700000     2.1420290000
    5      C       0.4568730000     1.8474300000    -0.5644710000
    6      S       0.0697730000     0.3846300000    -1.4655710000
    7      C       0.6653730000     2.6368300000     1.8815290000
    8      H       0.5507730000     2.2037300000     2.8941290000
    9      H      -0.0297270000     3.4991300000     1.8072290000
   10      H       1.6958730000     3.0429300000     1.8073290000
   11      C      -0.1778270000    -2.0039700000    -0.0008710000
   12      H       0.8370730000    -2.0044700000     0.3685290000
   13      H      -0.4989270000    -2.5390700000     0.8806290000
   14      H       0.1068730000    -2.6911700000    -0.7838710000
   15      H       0.7016730000     2.7736300000    -1.0979710000
 ----------------------------------------------------------------
 Nuclear Repulsion Energy =         344.63178507 hartrees
 There are       30 alpha and       30 beta electrons
 Requested basis set is cc-pVTZ
 There are 120 shells and 326 basis functions

 Total QAlloc Memory Limit 110000 MB
 Mega-Array Size       188 MB
 MEM_STATIC part       192 MB
 Discretize the solute cavity surface with Lebedev spheres
	Using 110 Lebedev grid points for each H atom
	Using 194 Lebedev grid points for other atoms
	Atomic van der Waals radii will be scaled by 1.20
 Remove points where switching function is < 1.0e-08
 Keep 1064 surface tesserae and discard 1174 interior tesserae
 Molecular Surface Area = 158.457 Angst**2

                       Distance Matrix (Angstroms)
             C (  1)   C (  2)   C (  3)   H (  4)   C (  5)   S (  6)
   C (  2)  1.397171
   C (  3)  2.381426  1.421395
   H (  4)  2.190988  1.100586  2.216650
   C (  5)  2.546906  2.344761  1.406274  3.381550
   S (  6)  1.757110  2.580779  2.612036  3.644046  1.761139
   C (  7)  3.799340  2.573365  1.503634  2.855627  2.578670  4.078017
   H (  8)  4.064018  2.684432  2.164116  2.510996  3.478172  4.748418
   H (  9)  4.440492  3.310892  2.175370  3.627223  2.930845  4.518986
   H ( 10)  4.440418  3.310908  2.175430  3.627165  2.930832  4.519141
   C ( 11)  1.450100  2.534400  3.747329  2.860658  3.943827  2.812839
   H ( 12)  1.808513  2.516350  3.667027  2.744465  3.981479  3.108130
   H ( 13)  2.195715  2.862119  4.241936  2.769659  4.716275  3.791582
   H ( 14)  2.293947  3.510714  4.596997  3.903700  4.557360  3.150657
   H ( 15)  3.612396  3.410267  2.265496  4.405604  1.096538  2.498349
             C (  7)   H (  8)   H (  9)   H ( 10)   C ( 11)   H ( 12)
   H (  8)  1.107279
   H (  9)  1.110066  1.787846
   H ( 10)  1.110114  1.787916  1.784885
   C ( 11)  5.078527  5.159130  5.794417  5.679044
   H ( 12)  4.884702  4.916256  5.754200  5.318264  1.080036
   H ( 13)  5.398827  5.258346  6.126875  6.069155  1.080037  1.527396
   H ( 14)  5.983633  6.138793  6.712099  6.489926  1.079994  1.527342
   H ( 15)  2.982860  4.035396  3.082448  3.082487  4.980222  4.999920
             H ( 13)   H ( 14)
   H ( 14)  1.777832
   H ( 15)  5.794918  5.506041
 
 Requested basis set is rimp2-cc-pVTZ
 There are 250 shells and 848 basis functions
 A cutoff of  1.0D-10 yielded   6188 shell pairs
 There are     45346 function pairs (     58315 Cartesian)
 Smallest overlap matrix eigenvalue = 9.98E-05

 Scale SEOQF with 1.000000e-01/1.000000e-01/1.000000e-01

 Standard Electronic Orientation quadrupole field applied
 Nucleus-field energy     =     0.0000000019 hartrees
 Guess from superposition of atomic densities
 Warning:  Energy on first SCF cycle will be non-variational
 SAD guess density has 60.000000 electrons

 -----------------------------------------------------------------------
  General SCF calculation program by
  Eric Jon Sundstrom, Paul Horn, Yuezhi Mao, Dmitri Zuev, Alec White,
  David Stuck, Shaama M.S., Shane Yost, Joonho Lee, David Small,
  Daniel Levine, Susi Lehtola, Hugh Burton, Evgeny Epifanovsky,
  Bang C. Huynh
 -----------------------------------------------------------------------
 Hartree-Fock
 using 64 threads for integral computing
 -------------------------------------------------------
 OpenMP Integral computing Module                
 Release: version 1.0, May 2013, Q-Chem Inc. Pittsburgh 
 -------------------------------------------------------
 A restricted SCF calculation will be
 performed using DIIS
 SCF converges when DIIS error is below 1.0e-06
 ---------------------------------------
  Cycle       Energy         DIIS error
 ---------------------------------------
    1    -632.0878320948      2.91e-02  
    2    -629.3412801689      1.95e-03  
    3    -629.4116853968      7.03e-04  
    4    -629.4193672003      3.62e-04  
    5    -629.4216319280      6.18e-05  
    6    -629.4217603389      2.58e-05  
    7    -629.4217912223      1.11e-05  
    8    -629.4217999649      5.17e-06  
    9    -629.4218014686      1.70e-06  
   10    -629.4218016591      6.55e-07  Convergence criterion met
 ---------------------------------------
 SCF time:   CPU 684.12s  wall 14.00s 

************** Final PCM Free Energy Summary **************
 G_electrostatic  =      -0.00572874 hartree =      -3.59484030 kcal/mol
 G_cavitation     =       0.00000000 hartree =       0.00000000 kcal/mol
 G_dispersion     =       0.00000000 hartree =       0.00000000 kcal/mol
 G_repulsion      =       0.00000000 hartree =       0.00000000 kcal/mol
 --------------------------------------------------
 Non-electrostatic Free Energy =       0.00000000 hartree =       0.00000000 kcal/mol
 Total                         =      -0.00572874 hartree =      -3.59484030 kcal/mol
 --------------------------------------------------
 SCF Energy (H0 + V/2)                       =    -629.42180166 
 Solute Internal Energy (H0)                 =    -629.41607292 
 Total Free Energy (H0 + V/2 + non-elec)     =    -629.42180166 hartree
                                             = -394968.14179498 kcal/mol
***********************************************************

 SCF   energy in the final basis set =     -629.4218016591
 Total energy in the final basis set =     -629.4218016591


 --------------------------------------------------------------
  Generalized many-body perturbation theory program
  by Joonho Lee, Fazle Rob, Xintian Feng, Evgeny Epifanovsky

 No regularization used 
 (reg. param. = 0.0000e+00)
  (P|Q)^-1/2 Time:  CPU 6.87 s  wall 0.11 s

 In RI-MP2 calculation: 
 # of frozen core orbitals: 11

 Components of the RIMP2 correlation energy:
        aaaa    correlation energy =        -0.1453359844 a.u.
        abab    correlation energy =        -0.8857898288 a.u.
        bbbb    correlation energy =        -0.1453359844 a.u.
        non-Brillouin singles      =        -0.0000000000 a.u.
        total same-spin energy     =        -0.2906719689 a.u.
        total opposite-spin energy =        -0.8857898288 a.u.

 Total  RIMP2   correlation energy =        -1.1764617976 a.u.
        RIMP2         total energy =      -630.5982634567 a.u.

 RI-MP2 Energy Time:  CPU 34.24 s  wall 0.57 s
 
 --------------------------------------------------------------
 
                    Orbital Energies (a.u.)
 --------------------------------------------------------------
 
 Alpha MOs
 -- Occupied --
-91.9788 -11.2854 -11.2498 -11.2477 -11.2269 -11.2234 -11.2222  -8.9785
 -6.6595  -6.6590  -6.6584  -1.1610  -1.0545  -0.9980  -0.9394  -0.8840
 -0.7430  -0.7193  -0.6468  -0.5894  -0.5748  -0.5701  -0.5549  -0.5441
 -0.5080  -0.4906  -0.4670  -0.4555  -0.3375  -0.2898
 -- Virtual --
  0.1094   0.1453   0.1506   0.1751   0.1845   0.1902   0.2110   0.2189
  0.2339   0.2390   0.2504   0.2586   0.2973   0.3270   0.3430   0.3546
  0.3860   0.3872   0.4030   0.4151   0.4391   0.4511   0.4687   0.4866
  0.5036   0.5133   0.5233   0.5288   0.5345   0.5523   0.5676   0.5916
  0.5994   0.6057   0.6121   0.6266   0.6329   0.6415   0.6439   0.6487
  0.6549   0.6648   0.6822   0.6997   0.7193   0.7515   0.7628   0.7904
  0.7983   0.8272   0.8418   0.8601   0.8739   0.8905   0.8961   0.9309
  0.9467   0.9837   0.9968   1.0239   1.0356   1.0544   1.0640   1.0693
  1.0834   1.0962   1.1073   1.1295   1.1429   1.1692   1.1733   1.2038
  1.2278   1.2517   1.2587   1.2673   1.2730   1.2834   1.3105   1.3330
  1.3434   1.3813   1.3914   1.4112   1.4290   1.4417   1.4716   1.4867
  1.4911   1.5071   1.5114   1.5310   1.5391   1.5507   1.5606   1.5785
  1.6022   1.6277   1.6375   1.6734   1.6872   1.6992   1.7210   1.7534
  1.7720   1.7901   1.8124   1.8368   1.8832   1.9210   1.9386   1.9787
  2.0120   2.0450   2.0978   2.1267   2.1826   2.1921   2.2273   2.2581
  2.2726   2.3004   2.3124   2.4152   2.4461   2.4842   2.5026   2.5392
  2.5662   2.5873   2.6325   2.6513   2.6719   2.6980   2.7230   2.7363
  2.7597   2.7672   2.7737   2.7807   2.8188   2.8384   2.8581   2.8856
  2.9002   2.9424   2.9696   2.9774   3.0094   3.0298   3.0457   3.0538
  3.0999   3.1133   3.1159   3.1411   3.1441   3.1582   3.1633   3.1828
  3.2100   3.2447   3.2630   3.2807   3.2921   3.3032   3.3105   3.3266
  3.3287   3.3638   3.3869   3.3932   3.3990   3.4206   3.4334   3.4399
  3.4578   3.4654   3.4763   3.4893   3.5009   3.5194   3.5395   3.5625
  3.5749   3.5893   3.6048   3.6180   3.6290   3.6393   3.6524   3.6710
  3.6920   3.6979   3.7266   3.7347   3.7472   3.7700   3.7890   3.8050
  3.8159   3.8386   3.8521   3.8707   3.9030   3.9306   3.9456   3.9615
  3.9731   3.9936   4.0015   4.0363   4.0525   4.0682   4.1012   4.1088
  4.1257   4.1401   4.1560   4.2125   4.2182   4.2261   4.2441   4.2732
  4.2917   4.2981   4.3321   4.3378   4.3612   4.3762   4.3994   4.4045
  4.4142   4.4320   4.4412   4.4533   4.4702   4.4932   4.5383   4.5711
  4.6019   4.6067   4.6429   4.6706   4.7186   4.7357   4.7478   4.7765
  4.8132   4.8298   4.8644   4.8855   4.8969   4.9360   5.0752   5.0881
  5.1117   5.1317   5.1721   5.1881   5.2148   5.2654   5.2923   5.3330
  5.3690   5.4052   5.4172   5.4282   5.4589   5.5119   5.5493   5.5624
  5.6007   5.6074   5.6235   5.6745   5.6993   5.8133   5.8197   5.8641
  5.9349   5.9686   6.0813   6.1725   6.2276   6.2470   6.3046   6.4000
  6.4169   6.5066   9.1654  11.3860  12.9195  13.8463  14.1626  14.4569
 --------------------------------------------------------------
 
          Ground-State Mulliken Net Atomic Charges

     Atom                 Charge (a.u.)
  ----------------------------------------
      1 C                     0.052968
      2 C                    -0.293679
      3 C                     0.046510
      4 H                     0.173956
      5 C                    -0.279760
      6 S                     0.002355
      7 C                    -0.272433
      8 H                     0.101401
      9 H                     0.107415
     10 H                     0.107062
     11 C                    -0.386090
     12 H                     0.148879
     13 H                     0.139767
     14 H                     0.158790
     15 H                     0.192861
  ----------------------------------------
  Sum of atomic charges =     0.000000

 -----------------------------------------------------------------
                    Cartesian Multipole Moments
 -----------------------------------------------------------------
    Charge (ESU x 10^10)
                -0.0000
    Dipole Moment (Debye)
         X       0.9632      Y      -0.7110      Z       1.6638
       Tot       2.0498
    Quadrupole Moments (Debye-Ang)
        XX     -54.0187     XY       0.7307     YY     -42.4470
        XZ      -0.0744     YZ      -0.0132     ZZ     -48.5869
    Octopole Moments (Debye-Ang^2)
       XXX     -28.4348    XXY     -28.4661    XYY      -1.6450
       YYY     -79.9032    XXZ      -2.7811    XYZ       0.2634
       YYZ      -4.2072    XZZ      -8.2037    YZZ     -25.0742
       ZZZ      -1.4421
    Hexadecapole Moments (Debye-Ang^3)
      XXXX    -114.2159   XXXY     -76.9109   XXYY    -159.3012
      XYYY     -70.6031   YYYY    -771.2301   XXXZ     -22.6611
      XXYZ     -30.4571   XYYZ     -13.2678   YYYZ     -99.3736
      XXZZ    -107.6515   XYZZ     -20.2014   YYZZ    -205.6554
      XZZZ     -26.2359   YZZZ     -98.4894   ZZZZ    -491.7585
 -----------------------------------------------------------------
 Total job time:  16.34s(wall), 764.71s(cpu) 
 Fri Dec 15 13:55:21 2023

        *************************************************************
        *                                                           *
        *  Thank you very much for using Q-Chem.  Have a nice day.  *
        *                                                           *
        *************************************************************


0 sent ACK to 0 
now end server 0 ... 
cleanup process ... done
remove work dirs ./qchem15186.0 -- ./qchem15186.0
rm -rf ./qchem15186.0
rm -rf ./qchem15186
