You are running Q-Chem version: 5.4.0

#
# job setting
#
local host:  exp-7-24
current dir: /home/rramji/project-csd799/aromodel/p3ht-qchem/methylated-rotation-run
input file:  Methylthiophene_Phi_40_Theta_280_Methylthiophene_Hydrogenated_Improper.qcin
output file: 
nprocs     : 1
nthreads   : 64
#
# qchem installation setting
#
QC:          /cm/shared/apps/spack/cpu/opt/spack/linux-centos8-zen2/gcc-10.2.0/qchem-5.4-akfmr7b3t57bfs6qan3padb2wnb2i7cl
QCAUX:       /cm/shared/apps/spack/cpu/opt/spack/linux-centos8-zen2/gcc-10.2.0/qchem-5.4-akfmr7b3t57bfs6qan3padb2wnb2i7cl/qcaux
QCPROG:      /cm/shared/apps/spack/cpu/opt/spack/linux-centos8-zen2/gcc-10.2.0/qchem-5.4-akfmr7b3t57bfs6qan3padb2wnb2i7cl/exe/qcprog.exe
QCPROG_S:    /cm/shared/apps/spack/cpu/opt/spack/linux-centos8-zen2/gcc-10.2.0/qchem-5.4-akfmr7b3t57bfs6qan3padb2wnb2i7cl/exe/qcprog.exe_s
PARALLEL:    -DPARALLEL
QCMPI:       mpich
#
# qchem directory setting
#
qcrun:       qchem51668
QCSCRATCH:   .
QCLOCALSCR:  
QCTMPDIR:    .
QCFILEPREF:  ./qchem51668
QCSAVEDIR:   
workdirs:    ./qchem51668
workdir0:    ./qchem51668
partmpdirs =  
#
# parallel setting
#
QCRSH:           ssh
QCMPI:           mpich
QCMPIRUN:        /cm/shared/apps/spack/cpu/opt/spack/linux-centos8-zen2/gcc-10.2.0/qchem-5.4-akfmr7b3t57bfs6qan3padb2wnb2i7cl/bin/mpi/mpirun_qchem
QCMACHINEFILE:   ./qchem51668/hostfile
exp-7-24

#
# env setting
#
exported envs:   QC QCAUX QCSCRATCH QCRUNNAME QCFILEPREF QCPROG QCPROG_S GUIFILE

Running Job 1 of 1 Methylthiophene_Phi_40_Theta_280_Methylthiophene_Hydrogenated_Improper.qcin
qchem Methylthiophene_Phi_40_Theta_280_Methylthiophene_Hydrogenated_Improper.qcin_51668.0 ./qchem51668/ 1
/cm/shared/apps/spack/cpu/opt/spack/linux-centos8-zen2/gcc-10.2.0/qchem-5.4-akfmr7b3t57bfs6qan3padb2wnb2i7cl/bin/mpi/mpirun_qchem -machinefile ./qchem51668/hostfile -np 1 /cm/shared/apps/spack/cpu/opt/spack/linux-centos8-zen2/gcc-10.2.0/qchem-5.4-akfmr7b3t57bfs6qan3padb2wnb2i7cl/exe/qcprog.exe Methylthiophene_Phi_40_Theta_280_Methylthiophene_Hydrogenated_Improper.qcin_51668.0 ./qchem51668/

Process 0 of 1 is on exp-7-24 - thread support 0
initial socket setup ...start
initial socket setup ...done 
now start server 0 ... 
                  Welcome to Q-Chem
     A Quantum Leap Into The Future Of Chemistry


 Q-Chem 5.4, Q-Chem, Inc., Pleasanton, CA (2021)

 License issued to: University of California, San Diego (site)

 E. Epifanovsky,  A. T. B. Gilbert,  Xintian Feng,  Joonho Lee,  Yuezhi Mao,  
 N. Mardirossian,  P. Pokhilko,  A. White,  M. Wormit,  M. P. Coons,  
 A. L. Dempwolff,  Zhengting Gan,  D. Hait,  P. R. Horn,  L. D. Jacobson,  
 I. Kaliman,  J. Kussmann,  A. W. Lange,  Ka Un Lao,  D. S. Levine,  Jie Liu,  
 S. C. McKenzie,  A. F. Morrison,  K. Nanda,  F. Plasser,  D. R. Rehn,  
 M. L. Vidal,  Zhi-Qiang You,  Ying Zhu,  B. Alam,  B. Albrecht,  
 A. Aldossary,  E. Alguire,  J. H. Andersen,  D. Barton,  K. Begam,  A. Behn,  
 Y. A. Bernard,  E. J. Berquist,  H. Burton,  A. Carreras,  K. Carter-Fenk,  
 R. Chakraborty,  A. D. Chien,  K. D. Closser,  V. Cofer-Shabica,  
 S. Dasgupta,  Jia Deng,  M. de Wergifosse,  M. Diedenhofen,  Hainam Do,  
 S. Ehlert,  Po-Tung Fang,  S. Fatehi,  Qingguo Feng,  J. Gayvert,  
 Qinghui Ge,  G. Gidofalvi,  M. Goldey,  J. Gomes,  C. Gonzalez-Espinoza,  
 S. Gulania,  A. Gunina,  M. W. D. Hanson-Heine,  P. H. P. Harbach,  
 A. W. Hauser,  M. F. Herbst,  M. Hernandez Vera,  M. Hodecker,  
 Z. C. Holden,  S. Houck,  Xunkun Huang,  Kerwin Hui,  B. C. Huynh,  
 M. Ivanov,  Hyunjun Ji,  Hanjie Jiang,  B. Kaduk,  S. Kaehler,  
 K. Khistyaev,  Jaehoon Kim,  P. Klunzinger,  Z. Koczor-Benda,  
 Joong Hoon Koh,  D. Kosenkov,  L. Koulias,  T. Kowalczyk,  C. M. Krauter,  
 K. Kue,  A. Kunitsa,  T. Kus,  A. Landau,  K. V. Lawler,  D. Lefrancois,  
 S. Lehtola,  Rain Li,  Yi-Pei Li,  Jiashu Liang,  M. Liebenthal,  
 Hung-Hsuan Lin,  You-Sheng Lin,  Fenglai Liu,  Kuan-Yu Liu,  
 M. Loipersberger,  A. Luenser,  A. Manjanath,  P. Manohar,  E. Mansoor,  
 S. F. Manzer,  Shan-Ping Mao,  A. V. Marenich,  T. Markovich,  S. Mason,  
 S. A. Maurer,  P. F. McLaughlin,  M. F. S. J. Menger,  J.-M. Mewes,  
 S. A. Mewes,  P. Morgante,  J. W. Mullinax,  T. S. Nguyen-Beck,  
 K. J. Oosterbaan,  G. Paran,  Alexander C. Paul,  Suranjan K. Paul,  
 F. Pavosevic,  Zheng Pei,  S. Prager,  E. I. Proynov,  E. Ramos,  B. Rana,  
 A. E. Rask,  A. Rettig,  R. M. Richard,  F. Rob,  E. Rossomme,  T. Scheele,  
 M. Scheurer,  M. Schneider,  N. Sergueev,  S. M. Sharada,  W. Skomorowski,  
 D. W. Small,  C. J. Stein,  Yu-Chuan Su,  E. J. Sundstrom,  Zhen Tao,  
 J. Thirman,  T. Tsuchimochi,  N. M. Tubman,  S. P. Veccham,  O. Vydrov,  
 J. Wenzel,  J. Witte,  A. Yamada,  Kun Yao,  S. Yeganeh,  S. R. Yost,  
 A. Zech,  Igor Ying Zhang,  Xing Zhang,  Yu Zhang,  D. Zuev,  
 A. Aspuru-Guzik,  A. T. Bell,  N. A. Besley,  K. B. Bravaya,  B. R. Brooks,  
 D. Casanova,  Jeng-Da Chai,  S. Coriani,  C. J. Cramer,  
 A. E. DePrince, III,  R. A. DiStasio Jr.,  A. Dreuw,  B. D. Dunietz,  
 T. R. Furlani,  W. A. Goddard III,  S. Grimme,  S. Hammes-Schiffer,  
 T. Head-Gordon,  W. J. Hehre,  Chao-Ping Hsu,  T.-C. Jagau,  Yousung Jung,  
 A. Klamt,  Jing Kong,  D. S. Lambrecht,  WanZhen Liang,  N. J. Mayhall,  
 C. W. McCurdy,  J. B. Neaton,  C. Ochsenfeld,  J. A. Parkhill,  R. Peverati,  
 V. A. Rassolov,  Yihan Shao,  L. V. Slipchenko,  T. Stauch,  R. P. Steele,  
 J. E. Subotnik,  A. J. W. Thom,  A. Tkatchenko,  D. G. Truhlar,  
 T. Van Voorhis,  T. A. Wesolowski,  K. B. Whaley,  H. L. Woodcock III,  
 P. M. Zimmerman,  S. Faraji,  P. M. W. Gill,  M. Head-Gordon,  
 J. M. Herbert,  A. I. Krylov

 Contributors to earlier versions of Q-Chem not listed above: 
 R. D. Adamson,  B. Austin,  R. Baer,  J. Baker,  G. J. O. Beran,  
 K. Brandhorst,  S. T. Brown,  E. F. C. Byrd,  A. K. Chakraborty,  
 G. K. L. Chan,  Chun-Min Chang,  Yunqing Chen,  C.-L. Cheng,  
 Siu Hung Chien,  D. M. Chipman,  D. L. Crittenden,  H. Dachsel,  
 R. J. Doerksen,  A. D. Dutoi,  R. G. Edgar,  J. Fosso-Tande,  
 L. Fusti-Molnar,  D. Ghosh,  A. Ghysels,  A. Golubeva-Zadorozhnaya,  
 J. Gonthier,  M. S. Gordon,  S. R. Gwaltney,  G. Hawkins,  J. E. Herr,  
 A. Heyden,  S. Hirata,  E. G. Hohenstein,  G. Kedziora,  F. J. Keil,  
 C. Kelley,  Jihan Kim,  R. A. King,  R. Z. Khaliullin,  P. P. Korambath,  
 W. Kurlancheek,  A. Laurent,  A. M. Lee,  M. S. Lee,  S. V. Levchenko,  
 Ching Yeh Lin,  D. Liotard,  E. Livshits,  R. C. Lochan,  I. Lotan,  
 L. A. Martinez-Martinez,  P. E. Maslen,  N. Nair,  D. P. O'Neill,  
 D. Neuhauser,  E. Neuscamman,  C. M. Oana,  R. Olivares-Amaya,  R. Olson,  
 T. M. Perrine,  B. Peters,  P. A. Pieniazek,  A. Prociuk,  Y. M. Rhee,  
 J. Ritchie,  M. A. Rohrdanz,  E. Rosta,  N. J. Russ,  H. F. Schaefer III,  
 M. W. Schmidt,  N. E. Schultz,  S. Sharma,  N. Shenvi,  C. D. Sherrill,  
 A. C. Simmonett,  A. Sodt,  T. Stein,  D. Stuck,  K. S. Thanthiriwatte,  
 V. Vanovschi,  L. Vogt,  Tao Wang,  A. Warshel,  M. A. Watson,  
 C. F. Williams,  Q. Wu,  X. Xu,  Jun Yang,  W. Zhang,  Yan Zhao

 Please cite Q-Chem as follows:
 Y. Shao et al., Mol. Phys. 113, 184-215 (2015)
 DOI: 10.1080/00268976.2014.952696

 Q-Chem 5.4.0 for Intel X86 EM64T Linux

 Parts of Q-Chem use Armadillo 9.800.1 (Horizon Scraper).
 http://arma.sourceforge.net/

 Q-Chem begins on Fri Dec 15 14:05:03 2023  

 Host: 
0

     Scratch files written to ./qchem51668//
 May1621 |scratch|qcdevops|jenkins|workspace|build_RNUM    
 Parallel job on  1  processors
 Processing $rem in /cm/shared/apps/spack/cpu/opt/spack/linux-centos8-zen2/gcc-10.2.0/qchem-5.4-akfmr7b3t57bfs6qan3padb2wnb2i7cl/config/preferences:
 Processing $rem in /home/rramji/.qchemrc:
 Symmetry turned off for PCM/SM12/SMD calculation
 Core orbitals will be frozen

 Checking the input file for inconsistencies... 	...done.

 Q-Chem warning in module forms1/BasisType.C, line 2236:

 You are not using the predefined 5D/6D in this basis set.


--------------------------------------------------------------
User input:
--------------------------------------------------------------
$molecule
0 1
C	-0.435957	-0.419059	0.005925
C	0.104543	0.229941	1.118925
C	0.995043	1.298441	0.826525
H	-0.143857	-0.068259	2.148825
C	1.154143	1.489041	-0.557675
S	0.185143	0.326841	-1.458775
C	1.676643	2.116341	1.888325
H	1.389843	1.772241	2.900925
H	1.411143	3.191641	1.814025
H	2.782243	2.048841	1.814125
C	-0.435957	-1.869159	0.005925
H	-0.248457	-1.869659	-1.057675
H	0.487943	-2.404259	0.169025
H	-1.256557	-2.556359	-0.138475
H	1.767343	2.225041	-1.091175
$end

$rem
JOBTYPE		SP
EXCHANGE	HF
CORRELATION	pRIMP2
BASIS		cc-pvtz
METHOD		rimp2
AUX_BASIS	rimp2-cc-pvtz
SOLVENT_METHOD	PCM
PURECART	11111
SYMMETRY	false
MEM_TOTAL	110000
SCF_CONVERGENCE = 6
THRESH=10
GUI = 2
$end



$solvent
dielectric 4.90
$end
--------------------------------------------------------------
 ----------------------------------------------------------------
             Standard Nuclear Orientation (Angstroms)
    I     Atom           X                Y                Z
 ----------------------------------------------------------------
    1      C      -0.4359570000    -0.4190590000     0.0059250000
    2      C       0.1045430000     0.2299410000     1.1189250000
    3      C       0.9950430000     1.2984410000     0.8265250000
    4      H      -0.1438570000    -0.0682590000     2.1488250000
    5      C       1.1541430000     1.4890410000    -0.5576750000
    6      S       0.1851430000     0.3268410000    -1.4587750000
    7      C       1.6766430000     2.1163410000     1.8883250000
    8      H       1.3898430000     1.7722410000     2.9009250000
    9      H       1.4111430000     3.1916410000     1.8140250000
   10      H       2.7822430000     2.0488410000     1.8141250000
   11      C      -0.4359570000    -1.8691590000     0.0059250000
   12      H      -0.2484570000    -1.8696590000    -1.0576750000
   13      H       0.4879430000    -2.4042590000     0.1690250000
   14      H      -1.2565570000    -2.5563590000    -0.1384750000
   15      H       1.7673430000     2.2250410000    -1.0911750000
 ----------------------------------------------------------------
 Nuclear Repulsion Energy =         347.52049672 hartrees
 There are       30 alpha and       30 beta electrons
 Requested basis set is cc-pVTZ
 There are 120 shells and 326 basis functions

 Total QAlloc Memory Limit 110000 MB
 Mega-Array Size       188 MB
 MEM_STATIC part       192 MB
 Discretize the solute cavity surface with Lebedev spheres
	Using 110 Lebedev grid points for each H atom
	Using 194 Lebedev grid points for other atoms
	Atomic van der Waals radii will be scaled by 1.20
 Remove points where switching function is < 1.0e-08
 Keep 1042 surface tesserae and discard 1196 interior tesserae
 Molecular Surface Area = 157.217 Angst**2

                       Distance Matrix (Angstroms)
             C (  1)   C (  2)   C (  3)   H (  4)   C (  5)   S (  6)
   C (  2)  1.397179
   C (  3)  2.381376  1.421330
   H (  4)  2.190982  1.100600  2.216628
   C (  5)  2.546941  2.344777  1.406290  3.381587
   S (  6)  1.757122  2.580780  2.611999  3.644053  1.761150
   C (  7)  3.799311  2.573321  1.503648  2.855619  2.578648  4.077985
   H (  8)  4.064033  2.684438  2.164137  2.511042  3.478171  4.748417
   H (  9)  4.440513  3.310896  2.175431  3.627267  2.930846  4.519002
   H ( 10)  4.440375  3.310858  2.175440  3.627147  2.930788  4.519080
   C ( 11)  1.450100  2.436623  3.571391  2.814353  3.758134  2.711739
   H ( 12)  1.808492  3.044752  3.890162  3.679351  3.673983  2.274533
   H ( 13)  2.195726  2.826361  3.794660  3.126608  4.016180  3.193795
   H ( 14)  2.293968  3.346209  4.567320  3.558157  4.727839  3.483466
   H ( 15)  3.612399  3.410260  2.265526  4.405623  1.096509  2.498329
             C (  7)   H (  8)   H (  9)   H ( 10)   C ( 11)   H ( 12)
   H (  8)  1.107257
   H (  9)  1.110081  1.787876
   H ( 10)  1.110141  1.787853  1.784911
   C ( 11)  4.887813  4.997436  5.682667  5.383040
   H ( 12)  5.317248  5.622986  6.051255  5.725995  1.080001
   H ( 13)  4.980444  5.071474  5.905287  5.272596  1.080058  1.527375
   H ( 14)  5.877560  5.914234  6.630866  6.429029  1.080037  1.527335
   H ( 15)  2.982861  4.035393  3.082431  3.082505  4.777095  4.564114
             H ( 13)   H ( 14)
   H ( 14)  1.777912
   H ( 15)  4.965419  5.737020
 
 Requested basis set is rimp2-cc-pVTZ
 There are 250 shells and 848 basis functions
 A cutoff of  1.0D-10 yielded   6246 shell pairs
 There are     45866 function pairs (     59023 Cartesian)
 Smallest overlap matrix eigenvalue = 1.34E-04

 Scale SEOQF with 1.000000e-01/1.000000e-01/1.000000e-01

 Standard Electronic Orientation quadrupole field applied
 Nucleus-field energy     =     0.0000000001 hartrees
 Guess from superposition of atomic densities
 Warning:  Energy on first SCF cycle will be non-variational
 SAD guess density has 60.000000 electrons

 -----------------------------------------------------------------------
  General SCF calculation program by
  Eric Jon Sundstrom, Paul Horn, Yuezhi Mao, Dmitri Zuev, Alec White,
  David Stuck, Shaama M.S., Shane Yost, Joonho Lee, David Small,
  Daniel Levine, Susi Lehtola, Hugh Burton, Evgeny Epifanovsky,
  Bang C. Huynh
 -----------------------------------------------------------------------
 Hartree-Fock
 using 64 threads for integral computing
 -------------------------------------------------------
 OpenMP Integral computing Module                
 Release: version 1.0, May 2013, Q-Chem Inc. Pittsburgh 
 -------------------------------------------------------
 A restricted SCF calculation will be
 performed using DIIS
 SCF converges when DIIS error is below 1.0e-06
 ---------------------------------------
  Cycle       Energy         DIIS error
 ---------------------------------------
    1    -632.1433147222      2.93e-02  
    2    -629.3087176719      1.93e-03  
    3    -629.3793639422      6.65e-04  
    4    -629.3868970357      3.27e-04  
    5    -629.3888803498      6.35e-05  
    6    -629.3890266972      2.65e-05  
    7    -629.3890668117      1.23e-05  
    8    -629.3890789264      4.12e-06  
    9    -629.3890804703      1.52e-06  
   10    -629.3890805899      5.83e-07  Convergence criterion met
 ---------------------------------------
 SCF time:   CPU 678.67s  wall 14.00s 

************** Final PCM Free Energy Summary **************
 G_electrostatic  =      -0.00494060 hartree =      -3.10027204 kcal/mol
 G_cavitation     =       0.00000000 hartree =       0.00000000 kcal/mol
 G_dispersion     =       0.00000000 hartree =       0.00000000 kcal/mol
 G_repulsion      =       0.00000000 hartree =       0.00000000 kcal/mol
 --------------------------------------------------
 Non-electrostatic Free Energy =       0.00000000 hartree =       0.00000000 kcal/mol
 Total                         =      -0.00494060 hartree =      -3.10027204 kcal/mol
 --------------------------------------------------
 SCF Energy (H0 + V/2)                       =    -629.38908059 
 Solute Internal Energy (H0)                 =    -629.38413999 
 Total Free Energy (H0 + V/2 + non-elec)     =    -629.38908059 hartree
                                             = -394947.60901412 kcal/mol
***********************************************************

 SCF   energy in the final basis set =     -629.3890805899
 Total energy in the final basis set =     -629.3890805899


 --------------------------------------------------------------
  Generalized many-body perturbation theory program
  by Joonho Lee, Fazle Rob, Xintian Feng, Evgeny Epifanovsky

 No regularization used 
 (reg. param. = 0.0000e+00)
  (P|Q)^-1/2 Time:  CPU 7.46 s  wall 0.12 s

 In RI-MP2 calculation: 
 # of frozen core orbitals: 11

 Components of the RIMP2 correlation energy:
        aaaa    correlation energy =        -0.1466318548 a.u.
        abab    correlation energy =        -0.8910507064 a.u.
        bbbb    correlation energy =        -0.1466318548 a.u.
        non-Brillouin singles      =        -0.0000000000 a.u.
        total same-spin energy     =        -0.2932637097 a.u.
        total opposite-spin energy =        -0.8910507064 a.u.

 Total  RIMP2   correlation energy =        -1.1843144161 a.u.
        RIMP2         total energy =      -630.5733950060 a.u.

 RI-MP2 Energy Time:  CPU 37.21 s  wall 0.65 s
 
 --------------------------------------------------------------
 
                    Orbital Energies (a.u.)
 --------------------------------------------------------------
 
 Alpha MOs
 -- Occupied --
-91.9769 -11.2683 -11.2623 -11.2474 -11.2384 -11.2278 -11.2118  -8.9775
 -6.6584  -6.6577  -6.6572  -1.1660  -1.0544  -0.9940  -0.9443  -0.8808
 -0.7508  -0.7219  -0.6443  -0.5902  -0.5778  -0.5661  -0.5515  -0.5467
 -0.5134  -0.4740  -0.4639  -0.4414  -0.3350  -0.3046
 -- Virtual --
  0.0811   0.1436   0.1551   0.1748   0.1861   0.1900   0.1967   0.2283
  0.2376   0.2436   0.2464   0.2725   0.2885   0.3080   0.3493   0.3512
  0.3703   0.3969   0.4044   0.4199   0.4383   0.4595   0.4652   0.4714
  0.4889   0.4958   0.5115   0.5331   0.5356   0.5573   0.5652   0.5785
  0.5970   0.6028   0.6119   0.6201   0.6302   0.6386   0.6391   0.6492
  0.6612   0.6648   0.6785   0.6984   0.7367   0.7405   0.7741   0.7768
  0.7977   0.8061   0.8362   0.8545   0.8626   0.8848   0.8992   0.9200
  0.9522   0.9773   1.0009   1.0239   1.0402   1.0554   1.0572   1.0757
  1.0846   1.1027   1.1264   1.1425   1.1527   1.1708   1.1972   1.2226
  1.2296   1.2362   1.2508   1.2690   1.2706   1.2930   1.3255   1.3303
  1.3562   1.3592   1.4001   1.4056   1.4157   1.4326   1.4523   1.4743
  1.4806   1.5003   1.5097   1.5179   1.5492   1.5653   1.5731   1.5845
  1.6141   1.6217   1.6360   1.6590   1.6805   1.6980   1.7081   1.7406
  1.7480   1.7840   1.7947   1.8359   1.8901   1.9223   1.9464   1.9599
  1.9922   2.0328   2.0787   2.1272   2.1723   2.1822   2.2041   2.2130
  2.2545   2.2800   2.3533   2.4152   2.4519   2.4823   2.5356   2.5605
  2.5794   2.5902   2.6498   2.6602   2.6751   2.7042   2.7083   2.7309
  2.7442   2.7567   2.7715   2.7906   2.8335   2.8432   2.8697   2.8850
  2.9010   2.9153   2.9553   2.9790   3.0079   3.0344   3.0543   3.0731
  3.1083   3.1166   3.1232   3.1298   3.1510   3.1688   3.1864   3.1937
  3.2160   3.2453   3.2611   3.2634   3.2666   3.2939   3.3094   3.3206
  3.3441   3.3581   3.3692   3.3775   3.3921   3.4189   3.4233   3.4279
  3.4335   3.4601   3.4743   3.5034   3.5135   3.5467   3.5539   3.5764
  3.5831   3.6000   3.6240   3.6297   3.6497   3.6697   3.6728   3.6837
  3.7037   3.7215   3.7324   3.7464   3.7683   3.7888   3.8009   3.8085
  3.8305   3.8631   3.8664   3.8785   3.8957   3.9203   3.9331   3.9586
  3.9859   3.9909   4.0080   4.0279   4.0433   4.0536   4.0953   4.1061
  4.1290   4.1538   4.1678   4.1945   4.2018   4.2268   4.2421   4.2489
  4.2673   4.2816   4.3206   4.3275   4.3519   4.3703   4.3936   4.4028
  4.4108   4.4187   4.4302   4.4775   4.4933   4.5240   4.5470   4.5941
  4.6072   4.6246   4.6494   4.6688   4.7087   4.7380   4.7565   4.7728
  4.7986   4.8317   4.8417   4.8944   4.9146   4.9320   5.0492   5.0782
  5.1085   5.1209   5.1828   5.2013   5.2218   5.2621   5.2798   5.3087
  5.3669   5.4085   5.4136   5.4413   5.4654   5.4946   5.5471   5.5549
  5.6084   5.6210   5.6267   5.6655   5.6999   5.7994   5.8282   5.8424
  5.8963   5.9902   6.0208   6.1145   6.2238   6.2280   6.2736   6.3407
  6.4327   6.4461   9.1952  11.5793  12.8356  13.6811  14.1624  14.2333
 --------------------------------------------------------------
 
          Ground-State Mulliken Net Atomic Charges

     Atom                 Charge (a.u.)
  ----------------------------------------
      1 C                    -0.020397
      2 C                    -0.218261
      3 C                     0.032864
      4 H                     0.177820
      5 C                    -0.232903
      6 S                    -0.000906
      7 C                    -0.269930
      8 H                     0.102056
      9 H                     0.107115
     10 H                     0.105390
     11 C                    -0.364752
     12 H                     0.119435
     13 H                     0.132781
     14 H                     0.132860
     15 H                     0.196829
  ----------------------------------------
  Sum of atomic charges =     0.000000

 -----------------------------------------------------------------
                    Cartesian Multipole Moments
 -----------------------------------------------------------------
    Charge (ESU x 10^10)
                -0.0000
    Dipole Moment (Debye)
         X       1.4490      Y       0.1947      Z       1.0231
       Tot       1.7844
    Quadrupole Moments (Debye-Ang)
        XX     -50.5609     XY       4.3158     YY     -46.4707
        XZ       0.3394     YZ       1.3470     ZZ     -48.4534
    Octopole Moments (Debye-Ang^2)
       XXX     -64.1230    XXY     -16.1998    XYY     -14.5995
       YYY     -59.9026    XXZ      -4.0175    XYZ      -2.8078
       YYZ      -6.9917    XZZ     -19.6365    YZZ     -16.5335
       ZZZ       1.0838
    Hexadecapole Moments (Debye-Ang^3)
      XXXX    -304.5983   XXXY    -150.6053   XXYY    -138.2406
      XYYY    -144.4689   YYYY    -588.9610   XXXZ     -64.0535
      XXYZ     -29.2377   XYYZ     -23.7100   YYYZ     -76.7214
      XXZZ    -133.5636   XYZZ     -44.3666   YYZZ    -182.1893
      XZZZ     -67.8347   YZZZ     -81.9107   ZZZZ    -487.1744
 -----------------------------------------------------------------
 Total job time:  15.90s(wall), 753.59s(cpu) 
 Fri Dec 15 14:05:19 2023

        *************************************************************
        *                                                           *
        *  Thank you very much for using Q-Chem.  Have a nice day.  *
        *                                                           *
        *************************************************************


0 sent ACK to 0 
now end server 0 ... 
cleanup process ... done
remove work dirs ./qchem51668.0 -- ./qchem51668.0
rm -rf ./qchem51668.0
rm -rf ./qchem51668
