You are running Q-Chem version: 5.4.0

#
# job setting
#
local host:  exp-7-20
current dir: /home/rramji/project-csd799/aromodel/p3ht-qchem/methylated-rotation-run
input file:  Methylthiophene_Phi_10_Theta_170_Methylthiophene_Hydrogenated_Improper.qcin
output file: 
nprocs     : 1
nthreads   : 64
#
# qchem installation setting
#
QC:          /cm/shared/apps/spack/cpu/opt/spack/linux-centos8-zen2/gcc-10.2.0/qchem-5.4-akfmr7b3t57bfs6qan3padb2wnb2i7cl
QCAUX:       /cm/shared/apps/spack/cpu/opt/spack/linux-centos8-zen2/gcc-10.2.0/qchem-5.4-akfmr7b3t57bfs6qan3padb2wnb2i7cl/qcaux
QCPROG:      /cm/shared/apps/spack/cpu/opt/spack/linux-centos8-zen2/gcc-10.2.0/qchem-5.4-akfmr7b3t57bfs6qan3padb2wnb2i7cl/exe/qcprog.exe
QCPROG_S:    /cm/shared/apps/spack/cpu/opt/spack/linux-centos8-zen2/gcc-10.2.0/qchem-5.4-akfmr7b3t57bfs6qan3padb2wnb2i7cl/exe/qcprog.exe_s
PARALLEL:    -DPARALLEL
QCMPI:       mpich
#
# qchem directory setting
#
qcrun:       qchem3258896
QCSCRATCH:   .
QCLOCALSCR:  
QCTMPDIR:    .
QCFILEPREF:  ./qchem3258896
QCSAVEDIR:   
workdirs:    ./qchem3258896
workdir0:    ./qchem3258896
partmpdirs =  
#
# parallel setting
#
QCRSH:           ssh
QCMPI:           mpich
QCMPIRUN:        /cm/shared/apps/spack/cpu/opt/spack/linux-centos8-zen2/gcc-10.2.0/qchem-5.4-akfmr7b3t57bfs6qan3padb2wnb2i7cl/bin/mpi/mpirun_qchem
QCMACHINEFILE:   ./qchem3258896/hostfile
exp-7-20

#
# env setting
#
exported envs:   QC QCAUX QCSCRATCH QCRUNNAME QCFILEPREF QCPROG QCPROG_S GUIFILE

Running Job 1 of 1 Methylthiophene_Phi_10_Theta_170_Methylthiophene_Hydrogenated_Improper.qcin
qchem Methylthiophene_Phi_10_Theta_170_Methylthiophene_Hydrogenated_Improper.qcin_3258896.0 ./qchem3258896/ 1
/cm/shared/apps/spack/cpu/opt/spack/linux-centos8-zen2/gcc-10.2.0/qchem-5.4-akfmr7b3t57bfs6qan3padb2wnb2i7cl/bin/mpi/mpirun_qchem -machinefile ./qchem3258896/hostfile -np 1 /cm/shared/apps/spack/cpu/opt/spack/linux-centos8-zen2/gcc-10.2.0/qchem-5.4-akfmr7b3t57bfs6qan3padb2wnb2i7cl/exe/qcprog.exe Methylthiophene_Phi_10_Theta_170_Methylthiophene_Hydrogenated_Improper.qcin_3258896.0 ./qchem3258896/

Process 0 of 1 is on exp-7-20 - thread support 0
initial socket setup ...start
initial socket setup ...done 
now start server 0 ... 
                  Welcome to Q-Chem
     A Quantum Leap Into The Future Of Chemistry


 Q-Chem 5.4, Q-Chem, Inc., Pleasanton, CA (2021)

 License issued to: University of California, San Diego (site)

 E. Epifanovsky,  A. T. B. Gilbert,  Xintian Feng,  Joonho Lee,  Yuezhi Mao,  
 N. Mardirossian,  P. Pokhilko,  A. White,  M. Wormit,  M. P. Coons,  
 A. L. Dempwolff,  Zhengting Gan,  D. Hait,  P. R. Horn,  L. D. Jacobson,  
 I. Kaliman,  J. Kussmann,  A. W. Lange,  Ka Un Lao,  D. S. Levine,  Jie Liu,  
 S. C. McKenzie,  A. F. Morrison,  K. Nanda,  F. Plasser,  D. R. Rehn,  
 M. L. Vidal,  Zhi-Qiang You,  Ying Zhu,  B. Alam,  B. Albrecht,  
 A. Aldossary,  E. Alguire,  J. H. Andersen,  D. Barton,  K. Begam,  A. Behn,  
 Y. A. Bernard,  E. J. Berquist,  H. Burton,  A. Carreras,  K. Carter-Fenk,  
 R. Chakraborty,  A. D. Chien,  K. D. Closser,  V. Cofer-Shabica,  
 S. Dasgupta,  Jia Deng,  M. de Wergifosse,  M. Diedenhofen,  Hainam Do,  
 S. Ehlert,  Po-Tung Fang,  S. Fatehi,  Qingguo Feng,  J. Gayvert,  
 Qinghui Ge,  G. Gidofalvi,  M. Goldey,  J. Gomes,  C. Gonzalez-Espinoza,  
 S. Gulania,  A. Gunina,  M. W. D. Hanson-Heine,  P. H. P. Harbach,  
 A. W. Hauser,  M. F. Herbst,  M. Hernandez Vera,  M. Hodecker,  
 Z. C. Holden,  S. Houck,  Xunkun Huang,  Kerwin Hui,  B. C. Huynh,  
 M. Ivanov,  Hyunjun Ji,  Hanjie Jiang,  B. Kaduk,  S. Kaehler,  
 K. Khistyaev,  Jaehoon Kim,  P. Klunzinger,  Z. Koczor-Benda,  
 Joong Hoon Koh,  D. Kosenkov,  L. Koulias,  T. Kowalczyk,  C. M. Krauter,  
 K. Kue,  A. Kunitsa,  T. Kus,  A. Landau,  K. V. Lawler,  D. Lefrancois,  
 S. Lehtola,  Rain Li,  Yi-Pei Li,  Jiashu Liang,  M. Liebenthal,  
 Hung-Hsuan Lin,  You-Sheng Lin,  Fenglai Liu,  Kuan-Yu Liu,  
 M. Loipersberger,  A. Luenser,  A. Manjanath,  P. Manohar,  E. Mansoor,  
 S. F. Manzer,  Shan-Ping Mao,  A. V. Marenich,  T. Markovich,  S. Mason,  
 S. A. Maurer,  P. F. McLaughlin,  M. F. S. J. Menger,  J.-M. Mewes,  
 S. A. Mewes,  P. Morgante,  J. W. Mullinax,  T. S. Nguyen-Beck,  
 K. J. Oosterbaan,  G. Paran,  Alexander C. Paul,  Suranjan K. Paul,  
 F. Pavosevic,  Zheng Pei,  S. Prager,  E. I. Proynov,  E. Ramos,  B. Rana,  
 A. E. Rask,  A. Rettig,  R. M. Richard,  F. Rob,  E. Rossomme,  T. Scheele,  
 M. Scheurer,  M. Schneider,  N. Sergueev,  S. M. Sharada,  W. Skomorowski,  
 D. W. Small,  C. J. Stein,  Yu-Chuan Su,  E. J. Sundstrom,  Zhen Tao,  
 J. Thirman,  T. Tsuchimochi,  N. M. Tubman,  S. P. Veccham,  O. Vydrov,  
 J. Wenzel,  J. Witte,  A. Yamada,  Kun Yao,  S. Yeganeh,  S. R. Yost,  
 A. Zech,  Igor Ying Zhang,  Xing Zhang,  Yu Zhang,  D. Zuev,  
 A. Aspuru-Guzik,  A. T. Bell,  N. A. Besley,  K. B. Bravaya,  B. R. Brooks,  
 D. Casanova,  Jeng-Da Chai,  S. Coriani,  C. J. Cramer,  
 A. E. DePrince, III,  R. A. DiStasio Jr.,  A. Dreuw,  B. D. Dunietz,  
 T. R. Furlani,  W. A. Goddard III,  S. Grimme,  S. Hammes-Schiffer,  
 T. Head-Gordon,  W. J. Hehre,  Chao-Ping Hsu,  T.-C. Jagau,  Yousung Jung,  
 A. Klamt,  Jing Kong,  D. S. Lambrecht,  WanZhen Liang,  N. J. Mayhall,  
 C. W. McCurdy,  J. B. Neaton,  C. Ochsenfeld,  J. A. Parkhill,  R. Peverati,  
 V. A. Rassolov,  Yihan Shao,  L. V. Slipchenko,  T. Stauch,  R. P. Steele,  
 J. E. Subotnik,  A. J. W. Thom,  A. Tkatchenko,  D. G. Truhlar,  
 T. Van Voorhis,  T. A. Wesolowski,  K. B. Whaley,  H. L. Woodcock III,  
 P. M. Zimmerman,  S. Faraji,  P. M. W. Gill,  M. Head-Gordon,  
 J. M. Herbert,  A. I. Krylov

 Contributors to earlier versions of Q-Chem not listed above: 
 R. D. Adamson,  B. Austin,  R. Baer,  J. Baker,  G. J. O. Beran,  
 K. Brandhorst,  S. T. Brown,  E. F. C. Byrd,  A. K. Chakraborty,  
 G. K. L. Chan,  Chun-Min Chang,  Yunqing Chen,  C.-L. Cheng,  
 Siu Hung Chien,  D. M. Chipman,  D. L. Crittenden,  H. Dachsel,  
 R. J. Doerksen,  A. D. Dutoi,  R. G. Edgar,  J. Fosso-Tande,  
 L. Fusti-Molnar,  D. Ghosh,  A. Ghysels,  A. Golubeva-Zadorozhnaya,  
 J. Gonthier,  M. S. Gordon,  S. R. Gwaltney,  G. Hawkins,  J. E. Herr,  
 A. Heyden,  S. Hirata,  E. G. Hohenstein,  G. Kedziora,  F. J. Keil,  
 C. Kelley,  Jihan Kim,  R. A. King,  R. Z. Khaliullin,  P. P. Korambath,  
 W. Kurlancheek,  A. Laurent,  A. M. Lee,  M. S. Lee,  S. V. Levchenko,  
 Ching Yeh Lin,  D. Liotard,  E. Livshits,  R. C. Lochan,  I. Lotan,  
 L. A. Martinez-Martinez,  P. E. Maslen,  N. Nair,  D. P. O'Neill,  
 D. Neuhauser,  E. Neuscamman,  C. M. Oana,  R. Olivares-Amaya,  R. Olson,  
 T. M. Perrine,  B. Peters,  P. A. Pieniazek,  A. Prociuk,  Y. M. Rhee,  
 J. Ritchie,  M. A. Rohrdanz,  E. Rosta,  N. J. Russ,  H. F. Schaefer III,  
 M. W. Schmidt,  N. E. Schultz,  S. Sharma,  N. Shenvi,  C. D. Sherrill,  
 A. C. Simmonett,  A. Sodt,  T. Stein,  D. Stuck,  K. S. Thanthiriwatte,  
 V. Vanovschi,  L. Vogt,  Tao Wang,  A. Warshel,  M. A. Watson,  
 C. F. Williams,  Q. Wu,  X. Xu,  Jun Yang,  W. Zhang,  Yan Zhao

 Please cite Q-Chem as follows:
 Y. Shao et al., Mol. Phys. 113, 184-215 (2015)
 DOI: 10.1080/00268976.2014.952696

 Q-Chem 5.4.0 for Intel X86 EM64T Linux

 Parts of Q-Chem use Armadillo 9.800.1 (Horizon Scraper).
 http://arma.sourceforge.net/

 Q-Chem begins on Fri Dec 15 14:00:24 2023  

 Host: 
0

     Scratch files written to ./qchem3258896//
 May1621 |scratch|qcdevops|jenkins|workspace|build_RNUM    
 Parallel job on  1  processors
 Processing $rem in /cm/shared/apps/spack/cpu/opt/spack/linux-centos8-zen2/gcc-10.2.0/qchem-5.4-akfmr7b3t57bfs6qan3padb2wnb2i7cl/config/preferences:
 Processing $rem in /home/rramji/.qchemrc:
 Symmetry turned off for PCM/SM12/SMD calculation
 Core orbitals will be frozen

 Checking the input file for inconsistencies... 	...done.

 Q-Chem warning in module forms1/BasisType.C, line 2236:

 You are not using the predefined 5D/6D in this basis set.


--------------------------------------------------------------
User input:
--------------------------------------------------------------
$molecule
0 1
C	-0.110695	-0.566489	0.000852
C	0.032905	0.265811	1.113852
C	0.269805	1.636511	0.821452
H	-0.033095	-0.116589	2.143752
C	0.312305	1.881011	-0.562748
S	0.054205	0.390011	-1.463848
C	0.451205	2.685511	1.883252
H	0.374805	2.244111	2.895852
H	-0.316395	3.484011	1.808952
H	1.442305	3.179911	1.809052
C	-0.110695	-2.016589	0.000852
H	-1.174295	-2.017089	0.188452
H	-0.273395	-2.551689	-0.923048
H	0.034305	-2.703789	0.821352
H	0.475405	2.825011	-1.096248
$end

$rem
JOBTYPE		SP
EXCHANGE	HF
CORRELATION	pRIMP2
BASIS		cc-pvtz
METHOD		rimp2
AUX_BASIS	rimp2-cc-pvtz
SOLVENT_METHOD	PCM
PURECART	11111
SYMMETRY	false
MEM_TOTAL	110000
SCF_CONVERGENCE = 6
THRESH=10
GUI = 2
$end



$solvent
dielectric 4.90
$end
--------------------------------------------------------------
 ----------------------------------------------------------------
             Standard Nuclear Orientation (Angstroms)
    I     Atom           X                Y                Z
 ----------------------------------------------------------------
    1      C      -0.1106950000    -0.5664890000     0.0008520000
    2      C       0.0329050000     0.2658110000     1.1138520000
    3      C       0.2698050000     1.6365110000     0.8214520000
    4      H      -0.0330950000    -0.1165890000     2.1437520000
    5      C       0.3123050000     1.8810110000    -0.5627480000
    6      S       0.0542050000     0.3900110000    -1.4638480000
    7      C       0.4512050000     2.6855110000     1.8832520000
    8      H       0.3748050000     2.2441110000     2.8958520000
    9      H      -0.3163950000     3.4840110000     1.8089520000
   10      H       1.4423050000     3.1799110000     1.8090520000
   11      C      -0.1106950000    -2.0165890000     0.0008520000
   12      H      -1.1742950000    -2.0170890000     0.1884520000
   13      H      -0.2733950000    -2.5516890000    -0.9230480000
   14      H       0.0343050000    -2.7037890000     0.8213520000
   15      H       0.4754050000     2.8250110000    -1.0962480000
 ----------------------------------------------------------------
 Nuclear Repulsion Energy =         344.13832372 hartrees
 There are       30 alpha and       30 beta electrons
 Requested basis set is cc-pVTZ
 There are 120 shells and 326 basis functions

 Total QAlloc Memory Limit 110000 MB
 Mega-Array Size       188 MB
 MEM_STATIC part       192 MB
 Discretize the solute cavity surface with Lebedev spheres
	Using 110 Lebedev grid points for each H atom
	Using 194 Lebedev grid points for other atoms
	Atomic van der Waals radii will be scaled by 1.20
 Remove points where switching function is < 1.0e-08
 Keep 1067 surface tesserae and discard 1171 interior tesserae
 Molecular Surface Area = 158.932 Angst**2

                       Distance Matrix (Angstroms)
             C (  1)   C (  2)   C (  3)   H (  4)   C (  5)   S (  6)
   C (  2)  1.397180
   C (  3)  2.381465  1.421421
   H (  4)  2.190993  1.100582  2.216661
   C (  5)  2.546926  2.344765  1.406270  3.381545
   S (  6)  1.757109  2.580778  2.612057  3.644042  1.761158
   C (  7)  3.799298  2.573305  1.503571  2.855551  2.578649  4.077991
   H (  8)  4.064014  2.684416  2.164102  2.510964  3.478169  4.748416
   H (  9)  4.440505  3.310889  2.175326  3.627212  2.930842  4.519004
   H ( 10)  4.440373  3.310844  2.175361  3.627084  2.930781  4.519097
   C ( 11)  1.450100  2.543372  3.763417  2.864968  3.960790  2.822102
   H ( 12)  1.808502  2.743233  3.979310  2.955915  4.239041  3.167560
   H ( 13)  2.195696  3.490141  4.569394  3.923355  4.485721  3.008884
   H ( 14)  2.293970  2.983971  4.346684  2.906353  4.797229  3.846314
   H ( 15)  3.612397  3.410257  2.265475  4.405585  1.096522  2.498352
             C (  7)   H (  8)   H (  9)   H ( 10)   C ( 11)   H ( 12)
   H (  8)  1.107262
   H (  9)  1.110105  1.787865
   H ( 10)  1.110052  1.787851  1.784798
   C ( 11)  5.095970  5.174002  5.793802  5.717080
   H ( 12)  5.256334  5.280867  5.798630  6.040012  1.080018
   H ( 13)  5.985702  6.164727  6.625356  6.577175  1.079997  1.527367
   H ( 14)  5.508720  5.375984  6.275923  6.129922  1.080041  1.527362
   H ( 15)  2.982862  4.035397  3.082437  3.082469  4.998823  5.274267
             H ( 13)   H ( 14)
   H ( 14)  1.777848
   H ( 15)  5.431354  5.868508
 
 Requested basis set is rimp2-cc-pVTZ
 There are 250 shells and 848 basis functions
 A cutoff of  1.0D-10 yielded   6165 shell pairs
 There are     45137 function pairs (     58033 Cartesian)
 Smallest overlap matrix eigenvalue = 8.79E-05

 Scale SEOQF with 1.000000e+00/1.000000e-01/1.000000e-01

 Standard Electronic Orientation quadrupole field applied
 Nucleus-field energy     =     0.0000000042 hartrees
 Guess from superposition of atomic densities
 Warning:  Energy on first SCF cycle will be non-variational
 SAD guess density has 60.000000 electrons

 -----------------------------------------------------------------------
  General SCF calculation program by
  Eric Jon Sundstrom, Paul Horn, Yuezhi Mao, Dmitri Zuev, Alec White,
  David Stuck, Shaama M.S., Shane Yost, Joonho Lee, David Small,
  Daniel Levine, Susi Lehtola, Hugh Burton, Evgeny Epifanovsky,
  Bang C. Huynh
 -----------------------------------------------------------------------
 Hartree-Fock
 using 64 threads for integral computing
 -------------------------------------------------------
 OpenMP Integral computing Module                
 Release: version 1.0, May 2013, Q-Chem Inc. Pittsburgh 
 -------------------------------------------------------
 A restricted SCF calculation will be
 performed using DIIS
 SCF converges when DIIS error is below 1.0e-06
 ---------------------------------------
  Cycle       Energy         DIIS error
 ---------------------------------------
    1    -632.0789372008      2.91e-02  
    2    -629.3409915780      1.95e-03  
    3    -629.4115129697      7.13e-04  
    4    -629.4193480146      3.64e-04  
    5    -629.4216588590      6.21e-05  
    6    -629.4217888087      2.57e-05  
    7    -629.4218197355      1.11e-05  
    8    -629.4218282892      5.11e-06  
    9    -629.4218297343      1.68e-06  
   10    -629.4218299217      6.62e-07  Convergence criterion met
 ---------------------------------------
 SCF time:   CPU 686.73s  wall 16.00s 

************** Final PCM Free Energy Summary **************
 G_electrostatic  =      -0.00588219 hartree =      -3.69113254 kcal/mol
 G_cavitation     =       0.00000000 hartree =       0.00000000 kcal/mol
 G_dispersion     =       0.00000000 hartree =       0.00000000 kcal/mol
 G_repulsion      =       0.00000000 hartree =       0.00000000 kcal/mol
 --------------------------------------------------
 Non-electrostatic Free Energy =       0.00000000 hartree =       0.00000000 kcal/mol
 Total                         =      -0.00588219 hartree =      -3.69113254 kcal/mol
 --------------------------------------------------
 SCF Energy (H0 + V/2)                       =    -629.42182992 
 Solute Internal Energy (H0)                 =    -629.41594773 
 Total Free Energy (H0 + V/2 + non-elec)     =    -629.42182992 hartree
                                             = -394968.15953005 kcal/mol
***********************************************************

 SCF   energy in the final basis set =     -629.4218299217
 Total energy in the final basis set =     -629.4218299217


 --------------------------------------------------------------
  Generalized many-body perturbation theory program
  by Joonho Lee, Fazle Rob, Xintian Feng, Evgeny Epifanovsky

 No regularization used 
 (reg. param. = 0.0000e+00)
  (P|Q)^-1/2 Time:  CPU 16.00 s  wall 0.28 s

 In RI-MP2 calculation: 
 # of frozen core orbitals: 11

 Components of the RIMP2 correlation energy:
        aaaa    correlation energy =        -0.1452342475 a.u.
        abab    correlation energy =        -0.8856364006 a.u.
        bbbb    correlation energy =        -0.1452342475 a.u.
        non-Brillouin singles      =        -0.0000000000 a.u.
        total same-spin energy     =        -0.2904684950 a.u.
        total opposite-spin energy =        -0.8856364006 a.u.

 Total  RIMP2   correlation energy =        -1.1761048956 a.u.
        RIMP2         total energy =      -630.5979348173 a.u.

 RI-MP2 Energy Time:  CPU 45.26 s  wall 0.76 s
 
 --------------------------------------------------------------
 
                    Orbital Energies (a.u.)
 --------------------------------------------------------------
 
 Alpha MOs
 -- Occupied --
-91.9790 -11.2841 -11.2499 -11.2472 -11.2265 -11.2232 -11.2216  -8.9787
 -6.6597  -6.6591  -6.6585  -1.1597  -1.0540  -0.9973  -0.9414  -0.8839
 -0.7433  -0.7186  -0.6482  -0.5864  -0.5729  -0.5672  -0.5557  -0.5449
 -0.5082  -0.4957  -0.4631  -0.4560  -0.3377  -0.2893
 -- Virtual --
  0.1129   0.1449   0.1471   0.1746   0.1885   0.1899   0.2073   0.2223
  0.2256   0.2410   0.2469   0.2579   0.2936   0.3232   0.3445   0.3539
  0.3874   0.3893   0.4017   0.4249   0.4314   0.4619   0.4708   0.4938
  0.5019   0.5130   0.5156   0.5326   0.5432   0.5633   0.5773   0.5889
  0.6003   0.6064   0.6146   0.6257   0.6340   0.6387   0.6439   0.6480
  0.6578   0.6662   0.6867   0.7019   0.7181   0.7461   0.7787   0.7891
  0.8233   0.8338   0.8417   0.8514   0.8718   0.8930   0.9046   0.9277
  0.9554   0.9814   1.0093   1.0212   1.0369   1.0541   1.0626   1.0741
  1.0791   1.0876   1.0980   1.1089   1.1510   1.1584   1.1710   1.2099
  1.2344   1.2462   1.2607   1.2685   1.2743   1.2911   1.3078   1.3356
  1.3688   1.3790   1.3901   1.4027   1.4270   1.4484   1.4575   1.4828
  1.4983   1.5126   1.5235   1.5323   1.5425   1.5638   1.5704   1.5961
  1.6003   1.6325   1.6376   1.6801   1.6929   1.7056   1.7227   1.7497
  1.7728   1.7916   1.8058   1.8391   1.8996   1.9033   1.9448   1.9572
  2.0171   2.0429   2.0972   2.1417   2.1768   2.1968   2.2296   2.2415
  2.2690   2.3130   2.3437   2.4139   2.4575   2.4741   2.5021   2.5283
  2.5616   2.5967   2.6387   2.6617   2.6788   2.7070   2.7331   2.7431
  2.7536   2.7683   2.7812   2.7975   2.8137   2.8251   2.8521   2.8654
  2.9110   2.9171   2.9478   2.9719   3.0207   3.0339   3.0465   3.0691
  3.0892   3.0956   3.1144   3.1308   3.1542   3.1582   3.1757   3.1803
  3.2175   3.2412   3.2618   3.2773   3.2955   3.3114   3.3179   3.3308
  3.3438   3.3620   3.3801   3.3860   3.3959   3.4074   3.4315   3.4364
  3.4535   3.4682   3.4753   3.4839   3.4970   3.5088   3.5264   3.5450
  3.5846   3.5910   3.6186   3.6207   3.6289   3.6494   3.6687   3.6880
  3.6941   3.7017   3.7103   3.7397   3.7525   3.7719   3.7913   3.8001
  3.8126   3.8338   3.8550   3.8949   3.9046   3.9233   3.9408   3.9541
  3.9649   3.9967   4.0181   4.0352   4.0475   4.0685   4.0893   4.1054
  4.1270   4.1374   4.1749   4.2078   4.2178   4.2316   4.2401   4.2693
  4.2894   4.3051   4.3159   4.3327   4.3475   4.3675   4.3920   4.4027
  4.4164   4.4271   4.4363   4.4455   4.4697   4.5203   4.5403   4.5545
  4.6128   4.6150   4.6487   4.6819   4.6925   4.7250   4.7575   4.7812
  4.8153   4.8232   4.8692   4.8936   4.9064   4.9597   5.0805   5.1023
  5.1226   5.1345   5.1758   5.1984   5.2054   5.2645   5.2881   5.3275
  5.3731   5.4080   5.4154   5.4431   5.4841   5.5254   5.5518   5.5649
  5.5746   5.6101   5.6241   5.6496   5.7004   5.8080   5.8307   5.8744
  5.9407   6.0086   6.0778   6.1660   6.2272   6.2542   6.3051   6.3880
  6.4406   6.6061   9.2090  11.4668  12.9557  13.7735  14.1664  14.5953
 --------------------------------------------------------------
 
          Ground-State Mulliken Net Atomic Charges

     Atom                 Charge (a.u.)
  ----------------------------------------
      1 C                     0.056904
      2 C                    -0.305975
      3 C                     0.050574
      4 H                     0.174170
      5 C                    -0.278416
      6 S                     0.005132
      7 C                    -0.273866
      8 H                     0.101461
      9 H                     0.107250
     10 H                     0.107262
     11 C                    -0.381280
     12 H                     0.140549
     13 H                     0.140280
     14 H                     0.162870
     15 H                     0.193086
  ----------------------------------------
  Sum of atomic charges =     0.000000

 -----------------------------------------------------------------
                    Cartesian Multipole Moments
 -----------------------------------------------------------------
    Charge (ESU x 10^10)
                -0.0000
    Dipole Moment (Debye)
         X      -0.5435      Y      -0.6779      Z       1.5288
       Tot       1.7585
    Quadrupole Moments (Debye-Ang)
        XX     -54.0050     XY       3.0418     YY     -42.0370
        XZ       0.1399     YZ       0.0400     ZZ     -48.5305
    Octopole Moments (Debye-Ang^2)
       XXX     -18.1539    XXY     -30.2468    XYY      -5.5393
       YYY     -81.3885    XXZ      -2.7070    XYZ      -0.7367
       YYZ      -3.6165    XZZ      -5.0142    YZZ     -25.9465
       ZZZ      -1.2979
    Hexadecapole Moments (Debye-Ang^3)
      XXXX     -95.5228   XXXY     -57.7470   XXYY    -160.9295
      XYYY     -41.2281   YYYY    -789.3693   XXXZ     -16.1137
      XXYZ     -30.6307   XYYZ      -6.2460   YYYZ    -107.3287
      XXZZ    -105.6321   XYZZ     -15.2329   YYZZ    -207.8714
      XZZZ     -17.6008   YZZZ    -101.0377   ZZZZ    -491.7543
 -----------------------------------------------------------------
 Total job time:  18.59s(wall), 775.49s(cpu) 
 Fri Dec 15 14:00:43 2023

        *************************************************************
        *                                                           *
        *  Thank you very much for using Q-Chem.  Have a nice day.  *
        *                                                           *
        *************************************************************


0 sent ACK to 0 
now end server 0 ... 
cleanup process ... done
remove work dirs ./qchem3258896.0 -- ./qchem3258896.0
rm -rf ./qchem3258896.0
rm -rf ./qchem3258896
