You are running Q-Chem version: 5.4.0

#
# job setting
#
local host:  exp-7-23
current dir: /home/rramji/project-csd799/aromodel/p3ht-qchem/methylated-rotation-run
input file:  Methylthiophene_Phi_25_Theta_300_Methylthiophene_Hydrogenated_Improper.qcin
output file: 
nprocs     : 1
nthreads   : 64
#
# qchem installation setting
#
QC:          /cm/shared/apps/spack/cpu/opt/spack/linux-centos8-zen2/gcc-10.2.0/qchem-5.4-akfmr7b3t57bfs6qan3padb2wnb2i7cl
QCAUX:       /cm/shared/apps/spack/cpu/opt/spack/linux-centos8-zen2/gcc-10.2.0/qchem-5.4-akfmr7b3t57bfs6qan3padb2wnb2i7cl/qcaux
QCPROG:      /cm/shared/apps/spack/cpu/opt/spack/linux-centos8-zen2/gcc-10.2.0/qchem-5.4-akfmr7b3t57bfs6qan3padb2wnb2i7cl/exe/qcprog.exe
QCPROG_S:    /cm/shared/apps/spack/cpu/opt/spack/linux-centos8-zen2/gcc-10.2.0/qchem-5.4-akfmr7b3t57bfs6qan3padb2wnb2i7cl/exe/qcprog.exe_s
PARALLEL:    -DPARALLEL
QCMPI:       mpich
#
# qchem directory setting
#
qcrun:       qchem648611
QCSCRATCH:   .
QCLOCALSCR:  
QCTMPDIR:    .
QCFILEPREF:  ./qchem648611
QCSAVEDIR:   
workdirs:    ./qchem648611
workdir0:    ./qchem648611
partmpdirs =  
#
# parallel setting
#
QCRSH:           ssh
QCMPI:           mpich
QCMPIRUN:        /cm/shared/apps/spack/cpu/opt/spack/linux-centos8-zen2/gcc-10.2.0/qchem-5.4-akfmr7b3t57bfs6qan3padb2wnb2i7cl/bin/mpi/mpirun_qchem
QCMACHINEFILE:   ./qchem648611/hostfile
exp-7-23

#
# env setting
#
exported envs:   QC QCAUX QCSCRATCH QCRUNNAME QCFILEPREF QCPROG QCPROG_S GUIFILE

Running Job 1 of 1 Methylthiophene_Phi_25_Theta_300_Methylthiophene_Hydrogenated_Improper.qcin
qchem Methylthiophene_Phi_25_Theta_300_Methylthiophene_Hydrogenated_Improper.qcin_648611.0 ./qchem648611/ 1
/cm/shared/apps/spack/cpu/opt/spack/linux-centos8-zen2/gcc-10.2.0/qchem-5.4-akfmr7b3t57bfs6qan3padb2wnb2i7cl/bin/mpi/mpirun_qchem -machinefile ./qchem648611/hostfile -np 1 /cm/shared/apps/spack/cpu/opt/spack/linux-centos8-zen2/gcc-10.2.0/qchem-5.4-akfmr7b3t57bfs6qan3padb2wnb2i7cl/exe/qcprog.exe Methylthiophene_Phi_25_Theta_300_Methylthiophene_Hydrogenated_Improper.qcin_648611.0 ./qchem648611/

Process 0 of 1 is on exp-7-23 - thread support 0
initial socket setup ...start
initial socket setup ...done 
now start server 0 ... 
                  Welcome to Q-Chem
     A Quantum Leap Into The Future Of Chemistry


 Q-Chem 5.4, Q-Chem, Inc., Pleasanton, CA (2021)

 License issued to: University of California, San Diego (site)

 E. Epifanovsky,  A. T. B. Gilbert,  Xintian Feng,  Joonho Lee,  Yuezhi Mao,  
 N. Mardirossian,  P. Pokhilko,  A. White,  M. Wormit,  M. P. Coons,  
 A. L. Dempwolff,  Zhengting Gan,  D. Hait,  P. R. Horn,  L. D. Jacobson,  
 I. Kaliman,  J. Kussmann,  A. W. Lange,  Ka Un Lao,  D. S. Levine,  Jie Liu,  
 S. C. McKenzie,  A. F. Morrison,  K. Nanda,  F. Plasser,  D. R. Rehn,  
 M. L. Vidal,  Zhi-Qiang You,  Ying Zhu,  B. Alam,  B. Albrecht,  
 A. Aldossary,  E. Alguire,  J. H. Andersen,  D. Barton,  K. Begam,  A. Behn,  
 Y. A. Bernard,  E. J. Berquist,  H. Burton,  A. Carreras,  K. Carter-Fenk,  
 R. Chakraborty,  A. D. Chien,  K. D. Closser,  V. Cofer-Shabica,  
 S. Dasgupta,  Jia Deng,  M. de Wergifosse,  M. Diedenhofen,  Hainam Do,  
 S. Ehlert,  Po-Tung Fang,  S. Fatehi,  Qingguo Feng,  J. Gayvert,  
 Qinghui Ge,  G. Gidofalvi,  M. Goldey,  J. Gomes,  C. Gonzalez-Espinoza,  
 S. Gulania,  A. Gunina,  M. W. D. Hanson-Heine,  P. H. P. Harbach,  
 A. W. Hauser,  M. F. Herbst,  M. Hernandez Vera,  M. Hodecker,  
 Z. C. Holden,  S. Houck,  Xunkun Huang,  Kerwin Hui,  B. C. Huynh,  
 M. Ivanov,  Hyunjun Ji,  Hanjie Jiang,  B. Kaduk,  S. Kaehler,  
 K. Khistyaev,  Jaehoon Kim,  P. Klunzinger,  Z. Koczor-Benda,  
 Joong Hoon Koh,  D. Kosenkov,  L. Koulias,  T. Kowalczyk,  C. M. Krauter,  
 K. Kue,  A. Kunitsa,  T. Kus,  A. Landau,  K. V. Lawler,  D. Lefrancois,  
 S. Lehtola,  Rain Li,  Yi-Pei Li,  Jiashu Liang,  M. Liebenthal,  
 Hung-Hsuan Lin,  You-Sheng Lin,  Fenglai Liu,  Kuan-Yu Liu,  
 M. Loipersberger,  A. Luenser,  A. Manjanath,  P. Manohar,  E. Mansoor,  
 S. F. Manzer,  Shan-Ping Mao,  A. V. Marenich,  T. Markovich,  S. Mason,  
 S. A. Maurer,  P. F. McLaughlin,  M. F. S. J. Menger,  J.-M. Mewes,  
 S. A. Mewes,  P. Morgante,  J. W. Mullinax,  T. S. Nguyen-Beck,  
 K. J. Oosterbaan,  G. Paran,  Alexander C. Paul,  Suranjan K. Paul,  
 F. Pavosevic,  Zheng Pei,  S. Prager,  E. I. Proynov,  E. Ramos,  B. Rana,  
 A. E. Rask,  A. Rettig,  R. M. Richard,  F. Rob,  E. Rossomme,  T. Scheele,  
 M. Scheurer,  M. Schneider,  N. Sergueev,  S. M. Sharada,  W. Skomorowski,  
 D. W. Small,  C. J. Stein,  Yu-Chuan Su,  E. J. Sundstrom,  Zhen Tao,  
 J. Thirman,  T. Tsuchimochi,  N. M. Tubman,  S. P. Veccham,  O. Vydrov,  
 J. Wenzel,  J. Witte,  A. Yamada,  Kun Yao,  S. Yeganeh,  S. R. Yost,  
 A. Zech,  Igor Ying Zhang,  Xing Zhang,  Yu Zhang,  D. Zuev,  
 A. Aspuru-Guzik,  A. T. Bell,  N. A. Besley,  K. B. Bravaya,  B. R. Brooks,  
 D. Casanova,  Jeng-Da Chai,  S. Coriani,  C. J. Cramer,  
 A. E. DePrince, III,  R. A. DiStasio Jr.,  A. Dreuw,  B. D. Dunietz,  
 T. R. Furlani,  W. A. Goddard III,  S. Grimme,  S. Hammes-Schiffer,  
 T. Head-Gordon,  W. J. Hehre,  Chao-Ping Hsu,  T.-C. Jagau,  Yousung Jung,  
 A. Klamt,  Jing Kong,  D. S. Lambrecht,  WanZhen Liang,  N. J. Mayhall,  
 C. W. McCurdy,  J. B. Neaton,  C. Ochsenfeld,  J. A. Parkhill,  R. Peverati,  
 V. A. Rassolov,  Yihan Shao,  L. V. Slipchenko,  T. Stauch,  R. P. Steele,  
 J. E. Subotnik,  A. J. W. Thom,  A. Tkatchenko,  D. G. Truhlar,  
 T. Van Voorhis,  T. A. Wesolowski,  K. B. Whaley,  H. L. Woodcock III,  
 P. M. Zimmerman,  S. Faraji,  P. M. W. Gill,  M. Head-Gordon,  
 J. M. Herbert,  A. I. Krylov

 Contributors to earlier versions of Q-Chem not listed above: 
 R. D. Adamson,  B. Austin,  R. Baer,  J. Baker,  G. J. O. Beran,  
 K. Brandhorst,  S. T. Brown,  E. F. C. Byrd,  A. K. Chakraborty,  
 G. K. L. Chan,  Chun-Min Chang,  Yunqing Chen,  C.-L. Cheng,  
 Siu Hung Chien,  D. M. Chipman,  D. L. Crittenden,  H. Dachsel,  
 R. J. Doerksen,  A. D. Dutoi,  R. G. Edgar,  J. Fosso-Tande,  
 L. Fusti-Molnar,  D. Ghosh,  A. Ghysels,  A. Golubeva-Zadorozhnaya,  
 J. Gonthier,  M. S. Gordon,  S. R. Gwaltney,  G. Hawkins,  J. E. Herr,  
 A. Heyden,  S. Hirata,  E. G. Hohenstein,  G. Kedziora,  F. J. Keil,  
 C. Kelley,  Jihan Kim,  R. A. King,  R. Z. Khaliullin,  P. P. Korambath,  
 W. Kurlancheek,  A. Laurent,  A. M. Lee,  M. S. Lee,  S. V. Levchenko,  
 Ching Yeh Lin,  D. Liotard,  E. Livshits,  R. C. Lochan,  I. Lotan,  
 L. A. Martinez-Martinez,  P. E. Maslen,  N. Nair,  D. P. O'Neill,  
 D. Neuhauser,  E. Neuscamman,  C. M. Oana,  R. Olivares-Amaya,  R. Olson,  
 T. M. Perrine,  B. Peters,  P. A. Pieniazek,  A. Prociuk,  Y. M. Rhee,  
 J. Ritchie,  M. A. Rohrdanz,  E. Rosta,  N. J. Russ,  H. F. Schaefer III,  
 M. W. Schmidt,  N. E. Schultz,  S. Sharma,  N. Shenvi,  C. D. Sherrill,  
 A. C. Simmonett,  A. Sodt,  T. Stein,  D. Stuck,  K. S. Thanthiriwatte,  
 V. Vanovschi,  L. Vogt,  Tao Wang,  A. Warshel,  M. A. Watson,  
 C. F. Williams,  Q. Wu,  X. Xu,  Jun Yang,  W. Zhang,  Yan Zhao

 Please cite Q-Chem as follows:
 Y. Shao et al., Mol. Phys. 113, 184-215 (2015)
 DOI: 10.1080/00268976.2014.952696

 Q-Chem 5.4.0 for Intel X86 EM64T Linux

 Parts of Q-Chem use Armadillo 9.800.1 (Horizon Scraper).
 http://arma.sourceforge.net/

 Q-Chem begins on Fri Dec 15 14:04:26 2023  

 Host: 
0

     Scratch files written to ./qchem648611//
 May1621 |scratch|qcdevops|jenkins|workspace|build_RNUM    
 Parallel job on  1  processors
 Processing $rem in /cm/shared/apps/spack/cpu/opt/spack/linux-centos8-zen2/gcc-10.2.0/qchem-5.4-akfmr7b3t57bfs6qan3padb2wnb2i7cl/config/preferences:
 Processing $rem in /home/rramji/.qchemrc:
 Symmetry turned off for PCM/SM12/SMD calculation
 Core orbitals will be frozen

 Checking the input file for inconsistencies... 	...done.

 Q-Chem warning in module forms1/BasisType.C, line 2236:

 You are not using the predefined 5D/6D in this basis set.


--------------------------------------------------------------
User input:
--------------------------------------------------------------
$molecule
0 1
C	-0.287649	-0.513776	0.005194
C	0.066551	0.253024	1.118194
C	0.650151	1.515624	0.825794
H	-0.096349	-0.099276	2.148094
C	0.754351	1.740824	-0.558406
S	0.119251	0.367424	-1.459506
C	1.096751	2.482024	1.887594
H	0.908751	2.075424	2.900194
H	0.561951	3.451924	1.813294
H	2.182151	2.703024	1.813394
C	-0.287649	-1.963876	0.005194
H	0.252351	-1.964376	-0.930106
H	0.524651	-2.498976	0.474494
H	-1.009349	-2.651076	-0.411106
H	1.156251	2.610424	-1.091906
$end

$rem
JOBTYPE		SP
EXCHANGE	HF
CORRELATION	pRIMP2
BASIS		cc-pvtz
METHOD		rimp2
AUX_BASIS	rimp2-cc-pvtz
SOLVENT_METHOD	PCM
PURECART	11111
SYMMETRY	false
MEM_TOTAL	110000
SCF_CONVERGENCE = 6
THRESH=10
GUI = 2
$end



$solvent
dielectric 4.90
$end
--------------------------------------------------------------
 ----------------------------------------------------------------
             Standard Nuclear Orientation (Angstroms)
    I     Atom           X                Y                Z
 ----------------------------------------------------------------
    1      C      -0.2876490000    -0.5137760000     0.0051940000
    2      C       0.0665510000     0.2530240000     1.1181940000
    3      C       0.6501510000     1.5156240000     0.8257940000
    4      H      -0.0963490000    -0.0992760000     2.1480940000
    5      C       0.7543510000     1.7408240000    -0.5584060000
    6      S       0.1192510000     0.3674240000    -1.4595060000
    7      C       1.0967510000     2.4820240000     1.8875940000
    8      H       0.9087510000     2.0754240000     2.9001940000
    9      H       0.5619510000     3.4519240000     1.8132940000
   10      H       2.1821510000     2.7030240000     1.8133940000
   11      C      -0.2876490000    -1.9638760000     0.0051940000
   12      H       0.2523510000    -1.9643760000    -0.9301060000
   13      H       0.5246510000    -2.4989760000     0.4744940000
   14      H      -1.0093490000    -2.6510760000    -0.4111060000
   15      H       1.1562510000     2.6104240000    -1.0919060000
 ----------------------------------------------------------------
 Nuclear Repulsion Energy =         345.70065508 hartrees
 There are       30 alpha and       30 beta electrons
 Requested basis set is cc-pVTZ
 There are 120 shells and 326 basis functions

 Total QAlloc Memory Limit 110000 MB
 Mega-Array Size       188 MB
 MEM_STATIC part       192 MB
 Discretize the solute cavity surface with Lebedev spheres
	Using 110 Lebedev grid points for each H atom
	Using 194 Lebedev grid points for other atoms
	Atomic van der Waals radii will be scaled by 1.20
 Remove points where switching function is < 1.0e-08
 Keep 1061 surface tesserae and discard 1177 interior tesserae
 Molecular Surface Area = 157.985 Angst**2

                       Distance Matrix (Angstroms)
             C (  1)   C (  2)   C (  3)   H (  4)   C (  5)   S (  6)
   C (  2)  1.397215
   C (  3)  2.381453  1.421353
   H (  4)  2.190988  1.100612  2.216674
   C (  5)  2.546886  2.344697  1.406265  3.381538
   S (  6)  1.757108  2.580775  2.612052  3.644046  1.761125
   C (  7)  3.799317  2.573272  1.503596  2.855601  2.578668  4.078004
   H (  8)  4.064032  2.684393  2.164113  2.511016  3.478176  4.748427
   H (  9)  4.440475  3.310823  2.175360  3.627185  2.930843  4.518998
   H ( 10)  4.440417  3.310826  2.175384  3.627185  2.930849  4.519121
   C ( 11)  1.450100  2.505768  3.695913  2.846990  3.889500  2.783141
   H ( 12)  1.808487  3.024387  3.918141  3.616007  3.757482  2.394843
   H ( 13)  2.195699  2.863164  4.031895  2.990842  4.369845  3.481516
   H ( 14)  2.293950  3.454000  4.652446  3.727567  4.735095  3.388838
   H ( 15)  3.612354  3.410179  2.265457  4.405574  1.096517  2.498309
             C (  7)   H (  8)   H (  9)   H ( 10)   C ( 11)   H ( 12)
   H (  8)  1.107261
   H (  9)  1.110062  1.787841
   H ( 10)  1.110153  1.787894  1.784909
   C ( 11)  5.022551  5.111589  5.772516  5.581170
   H ( 12)  5.331315  5.605537  6.079342  5.747655  1.079994
   H ( 13)  5.209080  5.191983  6.099753  5.621456  1.080003  1.527366
   H ( 14)  6.005697  6.081416  6.683079  6.618192  1.080000  1.527352
   H ( 15)  2.982859  4.035386  3.082451  3.082501  4.920640  4.666049
             H ( 13)   H ( 14)
   H ( 14)  1.777801
   H ( 15)  5.381310  5.730331
 
 Requested basis set is rimp2-cc-pVTZ
 There are 250 shells and 848 basis functions
 A cutoff of  1.0D-10 yielded   6196 shell pairs
 There are     45338 function pairs (     58300 Cartesian)
 Smallest overlap matrix eigenvalue = 1.13E-04

 Scale SEOQF with 1.000000e-01/1.000000e-01/1.000000e-01

 Standard Electronic Orientation quadrupole field applied
 Nucleus-field energy     =     0.0000000013 hartrees
 Guess from superposition of atomic densities
 Warning:  Energy on first SCF cycle will be non-variational
 SAD guess density has 60.000000 electrons

 -----------------------------------------------------------------------
  General SCF calculation program by
  Eric Jon Sundstrom, Paul Horn, Yuezhi Mao, Dmitri Zuev, Alec White,
  David Stuck, Shaama M.S., Shane Yost, Joonho Lee, David Small,
  Daniel Levine, Susi Lehtola, Hugh Burton, Evgeny Epifanovsky,
  Bang C. Huynh
 -----------------------------------------------------------------------
 Hartree-Fock
 using 64 threads for integral computing
 -------------------------------------------------------
 OpenMP Integral computing Module                
 Release: version 1.0, May 2013, Q-Chem Inc. Pittsburgh 
 -------------------------------------------------------
 A restricted SCF calculation will be
 performed using DIIS
 SCF converges when DIIS error is below 1.0e-06
 ---------------------------------------
  Cycle       Energy         DIIS error
 ---------------------------------------
    1    -632.1103516789      2.92e-02  
    2    -629.3306651393      1.93e-03  
    3    -629.4010992751      6.77e-04  
    4    -629.4085922979      3.40e-04  
    5    -629.4106589961      6.41e-05  
    6    -629.4107961050      2.63e-05  
    7    -629.4108315593      1.19e-05  
    8    -629.4108416239      5.00e-06  
    9    -629.4108431588      1.82e-06  
   10    -629.4108433533      5.69e-07  Convergence criterion met
 ---------------------------------------
 SCF time:   CPU 686.09s  wall 14.00s 

************** Final PCM Free Energy Summary **************
 G_electrostatic  =      -0.00505034 hartree =      -3.16913321 kcal/mol
 G_cavitation     =       0.00000000 hartree =       0.00000000 kcal/mol
 G_dispersion     =       0.00000000 hartree =       0.00000000 kcal/mol
 G_repulsion      =       0.00000000 hartree =       0.00000000 kcal/mol
 --------------------------------------------------
 Non-electrostatic Free Energy =       0.00000000 hartree =       0.00000000 kcal/mol
 Total                         =      -0.00505034 hartree =      -3.16913321 kcal/mol
 --------------------------------------------------
 SCF Energy (H0 + V/2)                       =    -629.41084335 
 Solute Internal Energy (H0)                 =    -629.40579302 
 Total Free Energy (H0 + V/2 + non-elec)     =    -629.41084335 hartree
                                             = -394961.26535430 kcal/mol
***********************************************************

 SCF   energy in the final basis set =     -629.4108433533
 Total energy in the final basis set =     -629.4108433533


 --------------------------------------------------------------
  Generalized many-body perturbation theory program
  by Joonho Lee, Fazle Rob, Xintian Feng, Evgeny Epifanovsky

 No regularization used 
 (reg. param. = 0.0000e+00)
  (P|Q)^-1/2 Time:  CPU 6.74 s  wall 0.11 s

 In RI-MP2 calculation: 
 # of frozen core orbitals: 11

 Components of the RIMP2 correlation energy:
        aaaa    correlation energy =        -0.1457536795 a.u.
        abab    correlation energy =        -0.8878636601 a.u.
        bbbb    correlation energy =        -0.1457536795 a.u.
        non-Brillouin singles      =        -0.0000000000 a.u.
        total same-spin energy     =        -0.2915073590 a.u.
        total opposite-spin energy =        -0.8878636601 a.u.

 Total  RIMP2   correlation energy =        -1.1793710192 a.u.
        RIMP2         total energy =      -630.5902143725 a.u.

 RI-MP2 Energy Time:  CPU 34.50 s  wall 0.58 s
 
 --------------------------------------------------------------
 
                    Orbital Energies (a.u.)
 --------------------------------------------------------------
 
 Alpha MOs
 -- Occupied --
-91.9773 -11.2738 -11.2598 -11.2472 -11.2316 -11.2272 -11.2159  -8.9776
 -6.6586  -6.6580  -6.6574  -1.1627  -1.0541  -0.9947  -0.9443  -0.8819
 -0.7481  -0.7195  -0.6457  -0.5901  -0.5771  -0.5655  -0.5519  -0.5467
 -0.5098  -0.4862  -0.4635  -0.4463  -0.3380  -0.3000
 -- Virtual --
  0.0952   0.1447   0.1530   0.1746   0.1879   0.1891   0.2009   0.2286
  0.2374   0.2443   0.2492   0.2622   0.2907   0.3203   0.3468   0.3502
  0.3761   0.4026   0.4087   0.4194   0.4415   0.4601   0.4704   0.4790
  0.4849   0.4993   0.5133   0.5296   0.5394   0.5589   0.5760   0.5781
  0.5954   0.6060   0.6105   0.6129   0.6281   0.6359   0.6436   0.6496
  0.6570   0.6600   0.6846   0.7100   0.7239   0.7428   0.7712   0.7811
  0.8004   0.8197   0.8389   0.8611   0.8642   0.8958   0.8969   0.9326
  0.9489   0.9736   0.9971   1.0055   1.0208   1.0496   1.0633   1.0740
  1.0870   1.0947   1.1189   1.1408   1.1695   1.1722   1.1991   1.2112
  1.2185   1.2332   1.2461   1.2679   1.2721   1.2956   1.3050   1.3270
  1.3541   1.3780   1.4058   1.4118   1.4251   1.4369   1.4432   1.4698
  1.4941   1.5014   1.5139   1.5276   1.5481   1.5552   1.5744   1.5829
  1.5977   1.6273   1.6459   1.6684   1.6872   1.7004   1.7182   1.7261
  1.7563   1.7804   1.7998   1.8321   1.8827   1.9140   1.9450   1.9628
  1.9827   2.0388   2.1110   2.1272   2.1801   2.1893   2.2059   2.2104
  2.2621   2.2838   2.3671   2.4240   2.4561   2.4907   2.5242   2.5482
  2.5728   2.5805   2.6451   2.6622   2.6664   2.6829   2.7057   2.7221
  2.7396   2.7546   2.7765   2.7843   2.8123   2.8422   2.8624   2.8881
  2.9133   2.9173   2.9519   2.9746   3.0238   3.0385   3.0468   3.0574
  3.1045   3.1116   3.1212   3.1293   3.1586   3.1645   3.1749   3.2009
  3.2184   3.2517   3.2684   3.2719   3.2885   3.3063   3.3217   3.3304
  3.3432   3.3550   3.3725   3.3821   3.3944   3.4176   3.4243   3.4382
  3.4453   3.4529   3.4840   3.4904   3.5166   3.5344   3.5454   3.5763
  3.5870   3.5976   3.6103   3.6180   3.6421   3.6520   3.6670   3.6762
  3.7035   3.7210   3.7371   3.7488   3.7579   3.7809   3.7914   3.7980
  3.8088   3.8143   3.8690   3.8734   3.8919   3.9069   3.9278   3.9544
  3.9693   3.9836   3.9980   4.0224   4.0363   4.0467   4.0978   4.1070
  4.1307   4.1509   4.1670   4.1841   4.2132   4.2315   4.2394   4.2489
  4.2699   4.2868   4.3198   4.3418   4.3431   4.3639   4.3866   4.3934
  4.4033   4.4226   4.4428   4.4625   4.4780   4.5207   4.5370   4.5889
  4.6014   4.6132   4.6328   4.6575   4.7107   4.7317   4.7450   4.7751
  4.8026   4.8050   4.8379   4.8900   4.9285   4.9544   5.0720   5.0894
  5.1051   5.1263   5.1849   5.1890   5.2274   5.2571   5.2820   5.3162
  5.3665   5.4018   5.4163   5.4418   5.4761   5.4834   5.5488   5.5626
  5.5873   5.6194   5.6232   5.6657   5.7008   5.8063   5.8344   5.8713
  5.8945   5.9566   6.0420   6.1251   6.2271   6.2419   6.2878   6.3538
  6.4285   6.4966   9.2206  11.3839  12.8794  13.6781  14.1795  14.3997
 --------------------------------------------------------------
 
          Ground-State Mulliken Net Atomic Charges

     Atom                 Charge (a.u.)
  ----------------------------------------
      1 C                     0.034845
      2 C                    -0.277246
      3 C                     0.049469
      4 H                     0.178752
      5 C                    -0.253482
      6 S                    -0.004164
      7 C                    -0.271035
      8 H                     0.101873
      9 H                     0.107460
     10 H                     0.106459
     11 C                    -0.372894
     12 H                     0.125352
     13 H                     0.138179
     14 H                     0.141490
     15 H                     0.194944
  ----------------------------------------
  Sum of atomic charges =     0.000000

 -----------------------------------------------------------------
                    Cartesian Multipole Moments
 -----------------------------------------------------------------
    Charge (ESU x 10^10)
                -0.0000
    Dipole Moment (Debye)
         X       1.0229      Y      -0.0766      Z       0.9880
       Tot       1.4242
    Quadrupole Moments (Debye-Ang)
        XX     -52.6392     XY       2.7348     YY     -43.9218
        XZ       0.4866     YZ       1.4865     ZZ     -48.6461
    Octopole Moments (Debye-Ang^2)
       XXX     -44.9849    XXY     -24.8645    XYY      -6.7511
       YYY     -72.1681    XXZ      -3.0808    XYZ      -2.5995
       YYZ      -7.5729    XZZ     -12.9557    YZZ     -21.4245
       ZZZ       0.4109
    Hexadecapole Moments (Debye-Ang^3)
      XXXX    -177.1199   XXXY    -118.5014   XXYY    -148.2752
      XYYY    -105.1590   YYYY    -717.1734   XXXZ     -40.0929
      XXYZ     -30.8815   XYYZ     -14.1525   YYYZ     -91.7544
      XXZZ    -115.5171   XYZZ     -32.8157   YYZZ    -201.1893
      XZZZ     -44.7977   YZZZ     -95.9548   ZZZZ    -489.7299
 -----------------------------------------------------------------
 Total job time:  31.72s(wall), 757.40s(cpu) 
 Fri Dec 15 14:04:58 2023

        *************************************************************
        *                                                           *
        *  Thank you very much for using Q-Chem.  Have a nice day.  *
        *                                                           *
        *************************************************************


0 sent ACK to 0 
now end server 0 ... 
cleanup process ... done
remove work dirs ./qchem648611.0 -- ./qchem648611.0
rm -rf ./qchem648611.0
rm -rf ./qchem648611
