You are running Q-Chem version: 5.4.0

#
# job setting
#
local host:  exp-7-21
current dir: /home/rramji/project-csd799/aromodel/p3ht-qchem/methylated-rotation-run
input file:  Methylthiophene_Phi_20_Theta_170_Methylthiophene_Hydrogenated_Improper.qcin
output file: 
nprocs     : 1
nthreads   : 64
#
# qchem installation setting
#
QC:          /cm/shared/apps/spack/cpu/opt/spack/linux-centos8-zen2/gcc-10.2.0/qchem-5.4-akfmr7b3t57bfs6qan3padb2wnb2i7cl
QCAUX:       /cm/shared/apps/spack/cpu/opt/spack/linux-centos8-zen2/gcc-10.2.0/qchem-5.4-akfmr7b3t57bfs6qan3padb2wnb2i7cl/qcaux
QCPROG:      /cm/shared/apps/spack/cpu/opt/spack/linux-centos8-zen2/gcc-10.2.0/qchem-5.4-akfmr7b3t57bfs6qan3padb2wnb2i7cl/exe/qcprog.exe
QCPROG_S:    /cm/shared/apps/spack/cpu/opt/spack/linux-centos8-zen2/gcc-10.2.0/qchem-5.4-akfmr7b3t57bfs6qan3padb2wnb2i7cl/exe/qcprog.exe_s
PARALLEL:    -DPARALLEL
QCMPI:       mpich
#
# qchem directory setting
#
qcrun:       qchem20438
QCSCRATCH:   .
QCLOCALSCR:  
QCTMPDIR:    .
QCFILEPREF:  ./qchem20438
QCSAVEDIR:   
workdirs:    ./qchem20438
workdir0:    ./qchem20438
partmpdirs =  
#
# parallel setting
#
QCRSH:           ssh
QCMPI:           mpich
QCMPIRUN:        /cm/shared/apps/spack/cpu/opt/spack/linux-centos8-zen2/gcc-10.2.0/qchem-5.4-akfmr7b3t57bfs6qan3padb2wnb2i7cl/bin/mpi/mpirun_qchem
QCMACHINEFILE:   ./qchem20438/hostfile
exp-7-21

#
# env setting
#
exported envs:   QC QCAUX QCSCRATCH QCRUNNAME QCFILEPREF QCPROG QCPROG_S GUIFILE

Running Job 1 of 1 Methylthiophene_Phi_20_Theta_170_Methylthiophene_Hydrogenated_Improper.qcin
qchem Methylthiophene_Phi_20_Theta_170_Methylthiophene_Hydrogenated_Improper.qcin_20438.0 ./qchem20438/ 1
/cm/shared/apps/spack/cpu/opt/spack/linux-centos8-zen2/gcc-10.2.0/qchem-5.4-akfmr7b3t57bfs6qan3padb2wnb2i7cl/bin/mpi/mpirun_qchem -machinefile ./qchem20438/hostfile -np 1 /cm/shared/apps/spack/cpu/opt/spack/linux-centos8-zen2/gcc-10.2.0/qchem-5.4-akfmr7b3t57bfs6qan3padb2wnb2i7cl/exe/qcprog.exe Methylthiophene_Phi_20_Theta_170_Methylthiophene_Hydrogenated_Improper.qcin_20438.0 ./qchem20438/

Process 0 of 1 is on exp-7-21 - thread support 0
initial socket setup ...start
initial socket setup ...done 
now start server 0 ... 
                  Welcome to Q-Chem
     A Quantum Leap Into The Future Of Chemistry


 Q-Chem 5.4, Q-Chem, Inc., Pleasanton, CA (2021)

 License issued to: University of California, San Diego (site)

 E. Epifanovsky,  A. T. B. Gilbert,  Xintian Feng,  Joonho Lee,  Yuezhi Mao,  
 N. Mardirossian,  P. Pokhilko,  A. White,  M. Wormit,  M. P. Coons,  
 A. L. Dempwolff,  Zhengting Gan,  D. Hait,  P. R. Horn,  L. D. Jacobson,  
 I. Kaliman,  J. Kussmann,  A. W. Lange,  Ka Un Lao,  D. S. Levine,  Jie Liu,  
 S. C. McKenzie,  A. F. Morrison,  K. Nanda,  F. Plasser,  D. R. Rehn,  
 M. L. Vidal,  Zhi-Qiang You,  Ying Zhu,  B. Alam,  B. Albrecht,  
 A. Aldossary,  E. Alguire,  J. H. Andersen,  D. Barton,  K. Begam,  A. Behn,  
 Y. A. Bernard,  E. J. Berquist,  H. Burton,  A. Carreras,  K. Carter-Fenk,  
 R. Chakraborty,  A. D. Chien,  K. D. Closser,  V. Cofer-Shabica,  
 S. Dasgupta,  Jia Deng,  M. de Wergifosse,  M. Diedenhofen,  Hainam Do,  
 S. Ehlert,  Po-Tung Fang,  S. Fatehi,  Qingguo Feng,  J. Gayvert,  
 Qinghui Ge,  G. Gidofalvi,  M. Goldey,  J. Gomes,  C. Gonzalez-Espinoza,  
 S. Gulania,  A. Gunina,  M. W. D. Hanson-Heine,  P. H. P. Harbach,  
 A. W. Hauser,  M. F. Herbst,  M. Hernandez Vera,  M. Hodecker,  
 Z. C. Holden,  S. Houck,  Xunkun Huang,  Kerwin Hui,  B. C. Huynh,  
 M. Ivanov,  Hyunjun Ji,  Hanjie Jiang,  B. Kaduk,  S. Kaehler,  
 K. Khistyaev,  Jaehoon Kim,  P. Klunzinger,  Z. Koczor-Benda,  
 Joong Hoon Koh,  D. Kosenkov,  L. Koulias,  T. Kowalczyk,  C. M. Krauter,  
 K. Kue,  A. Kunitsa,  T. Kus,  A. Landau,  K. V. Lawler,  D. Lefrancois,  
 S. Lehtola,  Rain Li,  Yi-Pei Li,  Jiashu Liang,  M. Liebenthal,  
 Hung-Hsuan Lin,  You-Sheng Lin,  Fenglai Liu,  Kuan-Yu Liu,  
 M. Loipersberger,  A. Luenser,  A. Manjanath,  P. Manohar,  E. Mansoor,  
 S. F. Manzer,  Shan-Ping Mao,  A. V. Marenich,  T. Markovich,  S. Mason,  
 S. A. Maurer,  P. F. McLaughlin,  M. F. S. J. Menger,  J.-M. Mewes,  
 S. A. Mewes,  P. Morgante,  J. W. Mullinax,  T. S. Nguyen-Beck,  
 K. J. Oosterbaan,  G. Paran,  Alexander C. Paul,  Suranjan K. Paul,  
 F. Pavosevic,  Zheng Pei,  S. Prager,  E. I. Proynov,  E. Ramos,  B. Rana,  
 A. E. Rask,  A. Rettig,  R. M. Richard,  F. Rob,  E. Rossomme,  T. Scheele,  
 M. Scheurer,  M. Schneider,  N. Sergueev,  S. M. Sharada,  W. Skomorowski,  
 D. W. Small,  C. J. Stein,  Yu-Chuan Su,  E. J. Sundstrom,  Zhen Tao,  
 J. Thirman,  T. Tsuchimochi,  N. M. Tubman,  S. P. Veccham,  O. Vydrov,  
 J. Wenzel,  J. Witte,  A. Yamada,  Kun Yao,  S. Yeganeh,  S. R. Yost,  
 A. Zech,  Igor Ying Zhang,  Xing Zhang,  Yu Zhang,  D. Zuev,  
 A. Aspuru-Guzik,  A. T. Bell,  N. A. Besley,  K. B. Bravaya,  B. R. Brooks,  
 D. Casanova,  Jeng-Da Chai,  S. Coriani,  C. J. Cramer,  
 A. E. DePrince, III,  R. A. DiStasio Jr.,  A. Dreuw,  B. D. Dunietz,  
 T. R. Furlani,  W. A. Goddard III,  S. Grimme,  S. Hammes-Schiffer,  
 T. Head-Gordon,  W. J. Hehre,  Chao-Ping Hsu,  T.-C. Jagau,  Yousung Jung,  
 A. Klamt,  Jing Kong,  D. S. Lambrecht,  WanZhen Liang,  N. J. Mayhall,  
 C. W. McCurdy,  J. B. Neaton,  C. Ochsenfeld,  J. A. Parkhill,  R. Peverati,  
 V. A. Rassolov,  Yihan Shao,  L. V. Slipchenko,  T. Stauch,  R. P. Steele,  
 J. E. Subotnik,  A. J. W. Thom,  A. Tkatchenko,  D. G. Truhlar,  
 T. Van Voorhis,  T. A. Wesolowski,  K. B. Whaley,  H. L. Woodcock III,  
 P. M. Zimmerman,  S. Faraji,  P. M. W. Gill,  M. Head-Gordon,  
 J. M. Herbert,  A. I. Krylov

 Contributors to earlier versions of Q-Chem not listed above: 
 R. D. Adamson,  B. Austin,  R. Baer,  J. Baker,  G. J. O. Beran,  
 K. Brandhorst,  S. T. Brown,  E. F. C. Byrd,  A. K. Chakraborty,  
 G. K. L. Chan,  Chun-Min Chang,  Yunqing Chen,  C.-L. Cheng,  
 Siu Hung Chien,  D. M. Chipman,  D. L. Crittenden,  H. Dachsel,  
 R. J. Doerksen,  A. D. Dutoi,  R. G. Edgar,  J. Fosso-Tande,  
 L. Fusti-Molnar,  D. Ghosh,  A. Ghysels,  A. Golubeva-Zadorozhnaya,  
 J. Gonthier,  M. S. Gordon,  S. R. Gwaltney,  G. Hawkins,  J. E. Herr,  
 A. Heyden,  S. Hirata,  E. G. Hohenstein,  G. Kedziora,  F. J. Keil,  
 C. Kelley,  Jihan Kim,  R. A. King,  R. Z. Khaliullin,  P. P. Korambath,  
 W. Kurlancheek,  A. Laurent,  A. M. Lee,  M. S. Lee,  S. V. Levchenko,  
 Ching Yeh Lin,  D. Liotard,  E. Livshits,  R. C. Lochan,  I. Lotan,  
 L. A. Martinez-Martinez,  P. E. Maslen,  N. Nair,  D. P. O'Neill,  
 D. Neuhauser,  E. Neuscamman,  C. M. Oana,  R. Olivares-Amaya,  R. Olson,  
 T. M. Perrine,  B. Peters,  P. A. Pieniazek,  A. Prociuk,  Y. M. Rhee,  
 J. Ritchie,  M. A. Rohrdanz,  E. Rosta,  N. J. Russ,  H. F. Schaefer III,  
 M. W. Schmidt,  N. E. Schultz,  S. Sharma,  N. Shenvi,  C. D. Sherrill,  
 A. C. Simmonett,  A. Sodt,  T. Stein,  D. Stuck,  K. S. Thanthiriwatte,  
 V. Vanovschi,  L. Vogt,  Tao Wang,  A. Warshel,  M. A. Watson,  
 C. F. Williams,  Q. Wu,  X. Xu,  Jun Yang,  W. Zhang,  Yan Zhao

 Please cite Q-Chem as follows:
 Y. Shao et al., Mol. Phys. 113, 184-215 (2015)
 DOI: 10.1080/00268976.2014.952696

 Q-Chem 5.4.0 for Intel X86 EM64T Linux

 Parts of Q-Chem use Armadillo 9.800.1 (Horizon Scraper).
 http://arma.sourceforge.net/

 Q-Chem begins on Fri Dec 15 14:00:20 2023  

 Host: 
0

     Scratch files written to ./qchem20438//
 May1621 |scratch|qcdevops|jenkins|workspace|build_RNUM    
 Parallel job on  1  processors
 Processing $rem in /cm/shared/apps/spack/cpu/opt/spack/linux-centos8-zen2/gcc-10.2.0/qchem-5.4-akfmr7b3t57bfs6qan3padb2wnb2i7cl/config/preferences:
 Processing $rem in /home/rramji/.qchemrc:
 Symmetry turned off for PCM/SM12/SMD calculation
 Core orbitals will be frozen

 Checking the input file for inconsistencies... 	...done.

 Q-Chem warning in module forms1/BasisType.C, line 2236:

 You are not using the predefined 5D/6D in this basis set.


--------------------------------------------------------------
User input:
--------------------------------------------------------------
$molecule
0 1
C	-0.225145	-0.536244	0.000852
C	0.060855	0.258456	1.113852
C	0.532155	1.567156	0.821452
H	-0.070645	-0.106644	2.143752
C	0.616455	1.800556	-0.562748
S	0.103355	0.377056	-1.463848
C	0.892955	2.568756	1.883252
H	0.741055	2.147356	2.895852
H	0.275655	3.488456	1.808952
H	1.954855	2.883556	1.809052
C	-0.225145	-1.986344	0.000852
H	-1.288745	-1.986844	0.188452
H	-0.387845	-2.521444	-0.923048
H	-0.080145	-2.673544	0.821352
H	0.940955	2.701956	-1.096248
$end

$rem
JOBTYPE		SP
EXCHANGE	HF
CORRELATION	pRIMP2
BASIS		cc-pvtz
METHOD		rimp2
AUX_BASIS	rimp2-cc-pvtz
SOLVENT_METHOD	PCM
PURECART	11111
SYMMETRY	false
MEM_TOTAL	110000
SCF_CONVERGENCE = 6
THRESH=10
GUI = 2
$end



$solvent
dielectric 4.90
$end
--------------------------------------------------------------
 ----------------------------------------------------------------
             Standard Nuclear Orientation (Angstroms)
    I     Atom           X                Y                Z
 ----------------------------------------------------------------
    1      C      -0.2251450000    -0.5362440000     0.0008520000
    2      C       0.0608550000     0.2584560000     1.1138520000
    3      C       0.5321550000     1.5671560000     0.8214520000
    4      H      -0.0706450000    -0.1066440000     2.1437520000
    5      C       0.6164550000     1.8005560000    -0.5627480000
    6      S       0.1033550000     0.3770560000    -1.4638480000
    7      C       0.8929550000     2.5687560000     1.8832520000
    8      H       0.7410550000     2.1473560000     2.8958520000
    9      H       0.2756550000     3.4884560000     1.8089520000
   10      H       1.9548550000     2.8835560000     1.8090520000
   11      C      -0.2251450000    -1.9863440000     0.0008520000
   12      H      -1.2887450000    -1.9868440000     0.1884520000
   13      H      -0.3878450000    -2.5214440000    -0.9230480000
   14      H      -0.0801450000    -2.6735440000     0.8213520000
   15      H       0.9409550000     2.7019560000    -1.0962480000
 ----------------------------------------------------------------
 Nuclear Repulsion Energy =         344.52090054 hartrees
 There are       30 alpha and       30 beta electrons
 Requested basis set is cc-pVTZ
 There are 120 shells and 326 basis functions

 Total QAlloc Memory Limit 110000 MB
 Mega-Array Size       188 MB
 MEM_STATIC part       192 MB
 Discretize the solute cavity surface with Lebedev spheres
	Using 110 Lebedev grid points for each H atom
	Using 194 Lebedev grid points for other atoms
	Atomic van der Waals radii will be scaled by 1.20
 Remove points where switching function is < 1.0e-08
 Keep 1071 surface tesserae and discard 1167 interior tesserae
 Molecular Surface Area = 158.442 Angst**2

                       Distance Matrix (Angstroms)
             C (  1)   C (  2)   C (  3)   H (  4)   C (  5)   S (  6)
   C (  2)  1.397180
   C (  3)  2.381424  1.421379
   H (  4)  2.190992  1.100584  2.216631
   C (  5)  2.546875  2.344728  1.406269  3.381517
   S (  6)  1.757093  2.580777  2.612050  3.644039  1.761137
   C (  7)  3.799290  2.573296  1.503595  2.855547  2.578662  4.078001
   H (  8)  4.064022  2.684425  2.164118  2.510981  3.478176  4.748432
   H (  9)  4.440522  3.310922  2.175395  3.627225  2.930889  4.519039
   H ( 10)  4.440385  3.310844  2.175394  3.627116  2.930809  4.519123
   C ( 11)  1.450100  2.521843  3.724815  2.854674  3.920019  2.799807
   H ( 12)  1.808502  2.778337  4.043177  2.973570  4.305634  3.202509
   H ( 13)  2.195696  3.475361  4.539420  3.916266  4.451755  2.989154
   H ( 14)  2.293970  2.949926  4.284676  2.887526  4.734824  3.816015
   H ( 15)  3.612389  3.410251  2.265494  4.405584  1.096560  2.498372
             C (  7)   H (  8)   H (  9)   H ( 10)   C ( 11)   H ( 12)
   H (  8)  1.107254
   H (  9)  1.110148  1.787875
   H ( 10)  1.110061  1.787858  1.784830
   C ( 11)  5.053960  5.138292  5.787354  5.633641
   H ( 12)  5.327819  5.342444  5.920496  6.071909  1.080018
   H ( 13)  5.951966  6.136457  6.634980  6.493584  1.079997  1.527367
   H ( 14)  5.436567  5.312156  6.250775  5.999845  1.080041  1.527362
   H ( 15)  2.982862  4.035394  3.082433  3.082489  4.954147  5.348538
             H ( 13)   H ( 14)
   H ( 14)  1.777848
   H ( 15)  5.392552  5.797916
 
 Requested basis set is rimp2-cc-pVTZ
 There are 250 shells and 848 basis functions
 A cutoff of  1.0D-10 yielded   6170 shell pairs
 There are     45204 function pairs (     58124 Cartesian)
 Smallest overlap matrix eigenvalue = 1.07E-04

 Scale SEOQF with 1.000000e-01/1.000000e-01/1.000000e-01

 Standard Electronic Orientation quadrupole field applied
 Nucleus-field energy     =     0.0000000017 hartrees
 Guess from superposition of atomic densities
 Warning:  Energy on first SCF cycle will be non-variational
 SAD guess density has 60.000000 electrons

 -----------------------------------------------------------------------
  General SCF calculation program by
  Eric Jon Sundstrom, Paul Horn, Yuezhi Mao, Dmitri Zuev, Alec White,
  David Stuck, Shaama M.S., Shane Yost, Joonho Lee, David Small,
  Daniel Levine, Susi Lehtola, Hugh Burton, Evgeny Epifanovsky,
  Bang C. Huynh
 -----------------------------------------------------------------------
 Hartree-Fock
 using 64 threads for integral computing
 -------------------------------------------------------
 OpenMP Integral computing Module                
 Release: version 1.0, May 2013, Q-Chem Inc. Pittsburgh 
 -------------------------------------------------------
 A restricted SCF calculation will be
 performed using DIIS
 SCF converges when DIIS error is below 1.0e-06
 ---------------------------------------
  Cycle       Energy         DIIS error
 ---------------------------------------
    1    -632.0838276822      2.91e-02  
    2    -629.3335104974      1.94e-03  
    3    -629.4038068130      6.99e-04  
    4    -629.4114760860      3.57e-04  
    5    -629.4137119929      6.29e-05  
    6    -629.4138427459      2.58e-05  
    7    -629.4138738936      1.12e-05  
    8    -629.4138825122      5.11e-06  
    9    -629.4138840161      1.71e-06  
   10    -629.4138842115      6.17e-07  Convergence criterion met
 ---------------------------------------
 SCF time:   CPU 677.94s  wall 14.00s 

************** Final PCM Free Energy Summary **************
 G_electrostatic  =      -0.00575695 hartree =      -3.61254217 kcal/mol
 G_cavitation     =       0.00000000 hartree =       0.00000000 kcal/mol
 G_dispersion     =       0.00000000 hartree =       0.00000000 kcal/mol
 G_repulsion      =       0.00000000 hartree =       0.00000000 kcal/mol
 --------------------------------------------------
 Non-electrostatic Free Energy =       0.00000000 hartree =       0.00000000 kcal/mol
 Total                         =      -0.00575695 hartree =      -3.61254217 kcal/mol
 --------------------------------------------------
 SCF Energy (H0 + V/2)                       =    -629.41388421 
 Solute Internal Energy (H0)                 =    -629.40812726 
 Total Free Energy (H0 + V/2 + non-elec)     =    -629.41388421 hartree
                                             = -394963.17352164 kcal/mol
***********************************************************

 SCF   energy in the final basis set =     -629.4138842115
 Total energy in the final basis set =     -629.4138842115


 --------------------------------------------------------------
  Generalized many-body perturbation theory program
  by Joonho Lee, Fazle Rob, Xintian Feng, Evgeny Epifanovsky

 No regularization used 
 (reg. param. = 0.0000e+00)
  (P|Q)^-1/2 Time:  CPU 7.04 s  wall 0.12 s

 In RI-MP2 calculation: 
 # of frozen core orbitals: 11

 Components of the RIMP2 correlation energy:
        aaaa    correlation energy =        -0.1455877025 a.u.
        abab    correlation energy =        -0.8870609737 a.u.
        bbbb    correlation energy =        -0.1455877025 a.u.
        non-Brillouin singles      =        -0.0000000000 a.u.
        total same-spin energy     =        -0.2911754049 a.u.
        total opposite-spin energy =        -0.8870609737 a.u.

 Total  RIMP2   correlation energy =        -1.1782363787 a.u.
        RIMP2         total energy =      -630.5921205902 a.u.

 RI-MP2 Energy Time:  CPU 36.47 s  wall 0.64 s
 
 --------------------------------------------------------------
 
                    Orbital Energies (a.u.)
 --------------------------------------------------------------
 
 Alpha MOs
 -- Occupied --
-91.9781 -11.2806 -11.2523 -11.2473 -11.2267 -11.2257 -11.2194  -8.9779
 -6.6589  -6.6583  -6.6577  -1.1602  -1.0535  -0.9970  -0.9413  -0.8839
 -0.7437  -0.7193  -0.6473  -0.5857  -0.5732  -0.5667  -0.5558  -0.5444
 -0.5098  -0.4955  -0.4596  -0.4545  -0.3375  -0.2890
 -- Virtual --
  0.1065   0.1451   0.1481   0.1749   0.1883   0.1893   0.2080   0.2198
  0.2249   0.2419   0.2469   0.2584   0.2943   0.3200   0.3450   0.3524
  0.3843   0.3903   0.4028   0.4281   0.4326   0.4632   0.4705   0.4886
  0.4999   0.5046   0.5166   0.5307   0.5380   0.5625   0.5749   0.5895
  0.5987   0.6072   0.6138   0.6246   0.6334   0.6400   0.6434   0.6472
  0.6595   0.6666   0.6874   0.6929   0.7204   0.7465   0.7708   0.7897
  0.8087   0.8233   0.8405   0.8473   0.8677   0.8933   0.9089   0.9243
  0.9524   0.9907   1.0039   1.0146   1.0341   1.0577   1.0691   1.0702
  1.0811   1.0908   1.0945   1.1083   1.1492   1.1576   1.1739   1.2091
  1.2282   1.2487   1.2617   1.2629   1.2765   1.2960   1.3131   1.3382
  1.3629   1.3765   1.3885   1.4016   1.4256   1.4513   1.4557   1.4792
  1.4894   1.5055   1.5137   1.5269   1.5390   1.5634   1.5698   1.5928
  1.5962   1.6303   1.6367   1.6726   1.6873   1.7031   1.7221   1.7542
  1.7629   1.7976   1.8042   1.8286   1.8837   1.9134   1.9450   1.9651
  2.0118   2.0350   2.1096   2.1274   2.1757   2.1852   2.2193   2.2367
  2.2677   2.2957   2.3362   2.4129   2.4425   2.4746   2.5226   2.5360
  2.5637   2.6048   2.6169   2.6565   2.6788   2.7079   2.7341   2.7443
  2.7515   2.7697   2.7826   2.8048   2.8108   2.8346   2.8479   2.8635
  2.8964   2.9192   2.9636   2.9756   3.0144   3.0384   3.0463   3.0819
  3.0849   3.0980   3.1147   3.1343   3.1539   3.1592   3.1691   3.1859
  3.2017   3.2432   3.2684   3.2746   3.2875   3.3090   3.3146   3.3291
  3.3458   3.3625   3.3795   3.3847   3.3942   3.4047   3.4241   3.4320
  3.4551   3.4751   3.4814   3.4898   3.5054   3.5120   3.5355   3.5396
  3.5703   3.5915   3.6134   3.6283   3.6363   3.6487   3.6682   3.6848
  3.6928   3.6989   3.7137   3.7447   3.7642   3.7709   3.7908   3.7942
  3.8225   3.8301   3.8527   3.8837   3.9020   3.9218   3.9381   3.9486
  3.9647   3.9997   4.0033   4.0358   4.0532   4.0691   4.0963   4.1074
  4.1249   4.1476   4.1757   4.2075   4.2176   4.2251   4.2472   4.2671
  4.2898   4.3008   4.3118   4.3393   4.3448   4.3644   4.3936   4.4028
  4.4036   4.4295   4.4347   4.4471   4.4686   4.5169   4.5430   4.5560
  4.6148   4.6254   4.6462   4.6842   4.6935   4.7343   4.7560   4.7798
  4.8032   4.8174   4.8608   4.8938   4.9110   4.9558   5.0791   5.0939
  5.1133   5.1347   5.1697   5.1898   5.2031   5.2624   5.2876   5.3217
  5.3679   5.4056   5.4168   5.4366   5.4871   5.5269   5.5505   5.5639
  5.5824   5.6123   5.6254   5.6661   5.7015   5.8124   5.8308   5.8531
  5.9557   5.9938   6.0369   6.1596   6.2277   6.2516   6.2912   6.3809
  6.4304   6.5659   9.1984  11.4373  12.9142  13.7247  14.1645  14.4997
 --------------------------------------------------------------
 
          Ground-State Mulliken Net Atomic Charges

     Atom                 Charge (a.u.)
  ----------------------------------------
      1 C                     0.041238
      2 C                    -0.297818
      3 C                     0.051117
      4 H                     0.174545
      5 C                    -0.272615
      6 S                     0.006290
      7 C                    -0.271845
      8 H                     0.101530
      9 H                     0.107141
     10 H                     0.107025
     11 C                    -0.378693
     12 H                     0.137060
     13 H                     0.140042
     14 H                     0.162153
     15 H                     0.192832
  ----------------------------------------
  Sum of atomic charges =     0.000000

 -----------------------------------------------------------------
                    Cartesian Multipole Moments
 -----------------------------------------------------------------
    Charge (ESU x 10^10)
                -0.0000
    Dipole Moment (Debye)
         X      -0.3016      Y      -0.5533      Z       1.5667
       Tot       1.6887
    Quadrupole Moments (Debye-Ang)
        XX     -53.1551     XY       4.3527     YY     -42.9878
        XZ       0.1894     YZ       0.0011     ZZ     -48.4596
    Octopole Moments (Debye-Ang^2)
       XXX     -35.9307    XXY     -26.8891    XYY      -8.7714
       YYY     -77.8482    XXZ      -2.9439    XYZ      -1.1264
       YYZ      -3.6247    XZZ     -10.2430    YZZ     -24.5639
       ZZZ      -1.0611
    Hexadecapole Moments (Debye-Ang^3)
      XXXX    -145.6371   XXXY    -105.5826   XXYY    -155.4569
      XYYY     -83.8642   YYYY    -745.6105   XXXZ     -31.9704
      XXYZ     -30.2510   XYYZ     -13.3482   YYYZ    -101.8526
      XXZZ    -112.1804   XYZZ     -28.3053   YYZZ    -200.6809
      XZZZ     -34.9750   YZZZ     -96.2839   ZZZZ    -491.4349
 -----------------------------------------------------------------
 Total job time:  16.02s(wall), 755.18s(cpu) 
 Fri Dec 15 14:00:36 2023

        *************************************************************
        *                                                           *
        *  Thank you very much for using Q-Chem.  Have a nice day.  *
        *                                                           *
        *************************************************************


0 sent ACK to 0 
now end server 0 ... 
cleanup process ... done
remove work dirs ./qchem20438.0 -- ./qchem20438.0
rm -rf ./qchem20438.0
rm -rf ./qchem20438
