You are running Q-Chem version: 5.4.0

#
# job setting
#
local host:  exp-7-21
current dir: /home/rramji/project-csd799/aromodel/p3ht-qchem/methylated-rotation-run
input file:  Methylthiophene_Phi_20_Theta_220_Methylthiophene_Hydrogenated_Improper.qcin
output file: 
nprocs     : 1
nthreads   : 64
#
# qchem installation setting
#
QC:          /cm/shared/apps/spack/cpu/opt/spack/linux-centos8-zen2/gcc-10.2.0/qchem-5.4-akfmr7b3t57bfs6qan3padb2wnb2i7cl
QCAUX:       /cm/shared/apps/spack/cpu/opt/spack/linux-centos8-zen2/gcc-10.2.0/qchem-5.4-akfmr7b3t57bfs6qan3padb2wnb2i7cl/qcaux
QCPROG:      /cm/shared/apps/spack/cpu/opt/spack/linux-centos8-zen2/gcc-10.2.0/qchem-5.4-akfmr7b3t57bfs6qan3padb2wnb2i7cl/exe/qcprog.exe
QCPROG_S:    /cm/shared/apps/spack/cpu/opt/spack/linux-centos8-zen2/gcc-10.2.0/qchem-5.4-akfmr7b3t57bfs6qan3padb2wnb2i7cl/exe/qcprog.exe_s
PARALLEL:    -DPARALLEL
QCMPI:       mpich
#
# qchem directory setting
#
qcrun:       qchem22192
QCSCRATCH:   .
QCLOCALSCR:  
QCTMPDIR:    .
QCFILEPREF:  ./qchem22192
QCSAVEDIR:   
workdirs:    ./qchem22192
workdir0:    ./qchem22192
partmpdirs =  
#
# parallel setting
#
QCRSH:           ssh
QCMPI:           mpich
QCMPIRUN:        /cm/shared/apps/spack/cpu/opt/spack/linux-centos8-zen2/gcc-10.2.0/qchem-5.4-akfmr7b3t57bfs6qan3padb2wnb2i7cl/bin/mpi/mpirun_qchem
QCMACHINEFILE:   ./qchem22192/hostfile
exp-7-21

#
# env setting
#
exported envs:   QC QCAUX QCSCRATCH QCRUNNAME QCFILEPREF QCPROG QCPROG_S GUIFILE

Running Job 1 of 1 Methylthiophene_Phi_20_Theta_220_Methylthiophene_Hydrogenated_Improper.qcin
qchem Methylthiophene_Phi_20_Theta_220_Methylthiophene_Hydrogenated_Improper.qcin_22192.0 ./qchem22192/ 1
/cm/shared/apps/spack/cpu/opt/spack/linux-centos8-zen2/gcc-10.2.0/qchem-5.4-akfmr7b3t57bfs6qan3padb2wnb2i7cl/bin/mpi/mpirun_qchem -machinefile ./qchem22192/hostfile -np 1 /cm/shared/apps/spack/cpu/opt/spack/linux-centos8-zen2/gcc-10.2.0/qchem-5.4-akfmr7b3t57bfs6qan3padb2wnb2i7cl/exe/qcprog.exe Methylthiophene_Phi_20_Theta_220_Methylthiophene_Hydrogenated_Improper.qcin_22192.0 ./qchem22192/

Process 0 of 1 is on exp-7-21 - thread support 0
initial socket setup ...start
initial socket setup ...done 
now start server 0 ... 
                  Welcome to Q-Chem
     A Quantum Leap Into The Future Of Chemistry


 Q-Chem 5.4, Q-Chem, Inc., Pleasanton, CA (2021)

 License issued to: University of California, San Diego (site)

 E. Epifanovsky,  A. T. B. Gilbert,  Xintian Feng,  Joonho Lee,  Yuezhi Mao,  
 N. Mardirossian,  P. Pokhilko,  A. White,  M. Wormit,  M. P. Coons,  
 A. L. Dempwolff,  Zhengting Gan,  D. Hait,  P. R. Horn,  L. D. Jacobson,  
 I. Kaliman,  J. Kussmann,  A. W. Lange,  Ka Un Lao,  D. S. Levine,  Jie Liu,  
 S. C. McKenzie,  A. F. Morrison,  K. Nanda,  F. Plasser,  D. R. Rehn,  
 M. L. Vidal,  Zhi-Qiang You,  Ying Zhu,  B. Alam,  B. Albrecht,  
 A. Aldossary,  E. Alguire,  J. H. Andersen,  D. Barton,  K. Begam,  A. Behn,  
 Y. A. Bernard,  E. J. Berquist,  H. Burton,  A. Carreras,  K. Carter-Fenk,  
 R. Chakraborty,  A. D. Chien,  K. D. Closser,  V. Cofer-Shabica,  
 S. Dasgupta,  Jia Deng,  M. de Wergifosse,  M. Diedenhofen,  Hainam Do,  
 S. Ehlert,  Po-Tung Fang,  S. Fatehi,  Qingguo Feng,  J. Gayvert,  
 Qinghui Ge,  G. Gidofalvi,  M. Goldey,  J. Gomes,  C. Gonzalez-Espinoza,  
 S. Gulania,  A. Gunina,  M. W. D. Hanson-Heine,  P. H. P. Harbach,  
 A. W. Hauser,  M. F. Herbst,  M. Hernandez Vera,  M. Hodecker,  
 Z. C. Holden,  S. Houck,  Xunkun Huang,  Kerwin Hui,  B. C. Huynh,  
 M. Ivanov,  Hyunjun Ji,  Hanjie Jiang,  B. Kaduk,  S. Kaehler,  
 K. Khistyaev,  Jaehoon Kim,  P. Klunzinger,  Z. Koczor-Benda,  
 Joong Hoon Koh,  D. Kosenkov,  L. Koulias,  T. Kowalczyk,  C. M. Krauter,  
 K. Kue,  A. Kunitsa,  T. Kus,  A. Landau,  K. V. Lawler,  D. Lefrancois,  
 S. Lehtola,  Rain Li,  Yi-Pei Li,  Jiashu Liang,  M. Liebenthal,  
 Hung-Hsuan Lin,  You-Sheng Lin,  Fenglai Liu,  Kuan-Yu Liu,  
 M. Loipersberger,  A. Luenser,  A. Manjanath,  P. Manohar,  E. Mansoor,  
 S. F. Manzer,  Shan-Ping Mao,  A. V. Marenich,  T. Markovich,  S. Mason,  
 S. A. Maurer,  P. F. McLaughlin,  M. F. S. J. Menger,  J.-M. Mewes,  
 S. A. Mewes,  P. Morgante,  J. W. Mullinax,  T. S. Nguyen-Beck,  
 K. J. Oosterbaan,  G. Paran,  Alexander C. Paul,  Suranjan K. Paul,  
 F. Pavosevic,  Zheng Pei,  S. Prager,  E. I. Proynov,  E. Ramos,  B. Rana,  
 A. E. Rask,  A. Rettig,  R. M. Richard,  F. Rob,  E. Rossomme,  T. Scheele,  
 M. Scheurer,  M. Schneider,  N. Sergueev,  S. M. Sharada,  W. Skomorowski,  
 D. W. Small,  C. J. Stein,  Yu-Chuan Su,  E. J. Sundstrom,  Zhen Tao,  
 J. Thirman,  T. Tsuchimochi,  N. M. Tubman,  S. P. Veccham,  O. Vydrov,  
 J. Wenzel,  J. Witte,  A. Yamada,  Kun Yao,  S. Yeganeh,  S. R. Yost,  
 A. Zech,  Igor Ying Zhang,  Xing Zhang,  Yu Zhang,  D. Zuev,  
 A. Aspuru-Guzik,  A. T. Bell,  N. A. Besley,  K. B. Bravaya,  B. R. Brooks,  
 D. Casanova,  Jeng-Da Chai,  S. Coriani,  C. J. Cramer,  
 A. E. DePrince, III,  R. A. DiStasio Jr.,  A. Dreuw,  B. D. Dunietz,  
 T. R. Furlani,  W. A. Goddard III,  S. Grimme,  S. Hammes-Schiffer,  
 T. Head-Gordon,  W. J. Hehre,  Chao-Ping Hsu,  T.-C. Jagau,  Yousung Jung,  
 A. Klamt,  Jing Kong,  D. S. Lambrecht,  WanZhen Liang,  N. J. Mayhall,  
 C. W. McCurdy,  J. B. Neaton,  C. Ochsenfeld,  J. A. Parkhill,  R. Peverati,  
 V. A. Rassolov,  Yihan Shao,  L. V. Slipchenko,  T. Stauch,  R. P. Steele,  
 J. E. Subotnik,  A. J. W. Thom,  A. Tkatchenko,  D. G. Truhlar,  
 T. Van Voorhis,  T. A. Wesolowski,  K. B. Whaley,  H. L. Woodcock III,  
 P. M. Zimmerman,  S. Faraji,  P. M. W. Gill,  M. Head-Gordon,  
 J. M. Herbert,  A. I. Krylov

 Contributors to earlier versions of Q-Chem not listed above: 
 R. D. Adamson,  B. Austin,  R. Baer,  J. Baker,  G. J. O. Beran,  
 K. Brandhorst,  S. T. Brown,  E. F. C. Byrd,  A. K. Chakraborty,  
 G. K. L. Chan,  Chun-Min Chang,  Yunqing Chen,  C.-L. Cheng,  
 Siu Hung Chien,  D. M. Chipman,  D. L. Crittenden,  H. Dachsel,  
 R. J. Doerksen,  A. D. Dutoi,  R. G. Edgar,  J. Fosso-Tande,  
 L. Fusti-Molnar,  D. Ghosh,  A. Ghysels,  A. Golubeva-Zadorozhnaya,  
 J. Gonthier,  M. S. Gordon,  S. R. Gwaltney,  G. Hawkins,  J. E. Herr,  
 A. Heyden,  S. Hirata,  E. G. Hohenstein,  G. Kedziora,  F. J. Keil,  
 C. Kelley,  Jihan Kim,  R. A. King,  R. Z. Khaliullin,  P. P. Korambath,  
 W. Kurlancheek,  A. Laurent,  A. M. Lee,  M. S. Lee,  S. V. Levchenko,  
 Ching Yeh Lin,  D. Liotard,  E. Livshits,  R. C. Lochan,  I. Lotan,  
 L. A. Martinez-Martinez,  P. E. Maslen,  N. Nair,  D. P. O'Neill,  
 D. Neuhauser,  E. Neuscamman,  C. M. Oana,  R. Olivares-Amaya,  R. Olson,  
 T. M. Perrine,  B. Peters,  P. A. Pieniazek,  A. Prociuk,  Y. M. Rhee,  
 J. Ritchie,  M. A. Rohrdanz,  E. Rosta,  N. J. Russ,  H. F. Schaefer III,  
 M. W. Schmidt,  N. E. Schultz,  S. Sharma,  N. Shenvi,  C. D. Sherrill,  
 A. C. Simmonett,  A. Sodt,  T. Stein,  D. Stuck,  K. S. Thanthiriwatte,  
 V. Vanovschi,  L. Vogt,  Tao Wang,  A. Warshel,  M. A. Watson,  
 C. F. Williams,  Q. Wu,  X. Xu,  Jun Yang,  W. Zhang,  Yan Zhao

 Please cite Q-Chem as follows:
 Y. Shao et al., Mol. Phys. 113, 184-215 (2015)
 DOI: 10.1080/00268976.2014.952696

 Q-Chem 5.4.0 for Intel X86 EM64T Linux

 Parts of Q-Chem use Armadillo 9.800.1 (Horizon Scraper).
 http://arma.sourceforge.net/

 Q-Chem begins on Fri Dec 15 14:02:08 2023  

 Host: 
0

     Scratch files written to ./qchem22192//
 May1621 |scratch|qcdevops|jenkins|workspace|build_RNUM    
 Parallel job on  1  processors
 Processing $rem in /cm/shared/apps/spack/cpu/opt/spack/linux-centos8-zen2/gcc-10.2.0/qchem-5.4-akfmr7b3t57bfs6qan3padb2wnb2i7cl/config/preferences:
 Processing $rem in /home/rramji/.qchemrc:
 Symmetry turned off for PCM/SM12/SMD calculation
 Core orbitals will be frozen

 Checking the input file for inconsistencies... 	...done.

 Q-Chem warning in module forms1/BasisType.C, line 2236:

 You are not using the predefined 5D/6D in this basis set.


--------------------------------------------------------------
User input:
--------------------------------------------------------------
$molecule
0 1
C	-0.226592	-0.536244	0.004709
C	0.059408	0.258456	1.117709
C	0.530708	1.567156	0.825309
H	-0.072092	-0.106644	2.147609
C	0.615008	1.800556	-0.558891
S	0.101908	0.377056	-1.459991
C	0.891508	2.568756	1.887109
H	0.739608	2.147356	2.899709
H	0.274208	3.488456	1.812809
H	1.953408	2.883556	1.812909
C	-0.226592	-1.986344	0.004709
H	-1.053892	-1.986844	-0.689491
H	0.376608	-2.521444	-0.713791
H	-0.761892	-2.673544	0.643209
H	0.939508	2.701956	-1.092391
$end

$rem
JOBTYPE		SP
EXCHANGE	HF
CORRELATION	pRIMP2
BASIS		cc-pvtz
METHOD		rimp2
AUX_BASIS	rimp2-cc-pvtz
SOLVENT_METHOD	PCM
PURECART	11111
SYMMETRY	false
MEM_TOTAL	110000
SCF_CONVERGENCE = 6
THRESH=10
GUI = 2
$end



$solvent
dielectric 4.90
$end
--------------------------------------------------------------
 ----------------------------------------------------------------
             Standard Nuclear Orientation (Angstroms)
    I     Atom           X                Y                Z
 ----------------------------------------------------------------
    1      C      -0.2265920000    -0.5362440000     0.0047090000
    2      C       0.0594080000     0.2584560000     1.1177090000
    3      C       0.5307080000     1.5671560000     0.8253090000
    4      H      -0.0720920000    -0.1066440000     2.1476090000
    5      C       0.6150080000     1.8005560000    -0.5588910000
    6      S       0.1019080000     0.3770560000    -1.4599910000
    7      C       0.8915080000     2.5687560000     1.8871090000
    8      H       0.7396080000     2.1473560000     2.8997090000
    9      H       0.2742080000     3.4884560000     1.8128090000
   10      H       1.9534080000     2.8835560000     1.8129090000
   11      C      -0.2265920000    -1.9863440000     0.0047090000
   12      H      -1.0538920000    -1.9868440000    -0.6894910000
   13      H       0.3766080000    -2.5214440000    -0.7137910000
   14      H      -0.7618920000    -2.6735440000     0.6432090000
   15      H       0.9395080000     2.7019560000    -1.0923910000
 ----------------------------------------------------------------
 Nuclear Repulsion Energy =         344.77313302 hartrees
 There are       30 alpha and       30 beta electrons
 Requested basis set is cc-pVTZ
 There are 120 shells and 326 basis functions

 Total QAlloc Memory Limit 110000 MB
 Mega-Array Size       188 MB
 MEM_STATIC part       192 MB
 Discretize the solute cavity surface with Lebedev spheres
	Using 110 Lebedev grid points for each H atom
	Using 194 Lebedev grid points for other atoms
	Atomic van der Waals radii will be scaled by 1.20
 Remove points where switching function is < 1.0e-08
 Keep 1074 surface tesserae and discard 1164 interior tesserae
 Molecular Surface Area = 158.243 Angst**2

                       Distance Matrix (Angstroms)
             C (  1)   C (  2)   C (  3)   H (  4)   C (  5)   S (  6)
   C (  2)  1.397180
   C (  3)  2.381424  1.421379
   H (  4)  2.190992  1.100584  2.216631
   C (  5)  2.546875  2.344728  1.406269  3.381517
   S (  6)  1.757093  2.580777  2.612050  3.644039  1.761137
   C (  7)  3.799290  2.573296  1.503595  2.855547  2.578662  4.078001
   H (  8)  4.064022  2.684425  2.164118  2.510981  3.478176  4.748432
   H (  9)  4.440522  3.310922  2.175395  3.627225  2.930889  4.519039
   H ( 10)  4.440385  3.310844  2.175394  3.627116  2.930809  4.519123
   C ( 11)  1.450100  2.521843  3.724815  2.854674  3.920019  2.799807
   H ( 12)  1.808474  3.089787  4.175703  3.542347  4.140855  2.741818
   H ( 13)  2.195703  3.344077  4.371410  3.770968  4.331341  3.005591
   H ( 14)  2.293966  3.081608  4.437061  3.054181  4.833060  3.804702
   H ( 15)  3.612389  3.410251  2.265494  4.405584  1.096560  2.498372
             C (  7)   H (  8)   H (  9)   H ( 10)   C ( 11)   H ( 12)
   H (  8)  1.107254
   H (  9)  1.110148  1.787875
   H ( 10)  1.110061  1.787858  1.784830
   C ( 11)  5.053960  5.138292  5.787354  5.633641
   H ( 12)  5.583631  5.761129  6.164760  6.247132  1.079972
   H ( 13)  5.739333  5.914968  6.520206  6.171267  1.080011  1.527324
   H ( 14)  5.635843  5.530585  6.357021  6.294634  1.080033  1.527387
   H ( 15)  2.982862  4.035394  3.082433  3.082489  4.954147  5.110853
             H ( 13)   H ( 14)
   H ( 14)  1.777854
   H ( 15)  5.267267  5.899413
 
 Requested basis set is rimp2-cc-pVTZ
 There are 250 shells and 848 basis functions
 A cutoff of  1.0D-10 yielded   6169 shell pairs
 There are     45177 function pairs (     58096 Cartesian)
 Smallest overlap matrix eigenvalue = 1.01E-04

 Scale SEOQF with 1.000000e-01/1.000000e-01/1.000000e-01

 Standard Electronic Orientation quadrupole field applied
 Nucleus-field energy     =     0.0000000017 hartrees
 Guess from superposition of atomic densities
 Warning:  Energy on first SCF cycle will be non-variational
 SAD guess density has 60.000000 electrons

 -----------------------------------------------------------------------
  General SCF calculation program by
  Eric Jon Sundstrom, Paul Horn, Yuezhi Mao, Dmitri Zuev, Alec White,
  David Stuck, Shaama M.S., Shane Yost, Joonho Lee, David Small,
  Daniel Levine, Susi Lehtola, Hugh Burton, Evgeny Epifanovsky,
  Bang C. Huynh
 -----------------------------------------------------------------------
 Hartree-Fock
 using 64 threads for integral computing
 -------------------------------------------------------
 OpenMP Integral computing Module                
 Release: version 1.0, May 2013, Q-Chem Inc. Pittsburgh 
 -------------------------------------------------------
 A restricted SCF calculation will be
 performed using DIIS
 SCF converges when DIIS error is below 1.0e-06
 ---------------------------------------
  Cycle       Energy         DIIS error
 ---------------------------------------
    1    -632.0876526607      2.91e-02  
    2    -629.3331594611      1.95e-03  
    3    -629.4037762931      7.03e-04  
    4    -629.4115579106      3.52e-04  
    5    -629.4137723859      6.46e-05  
    6    -629.4139100367      2.66e-05  
    7    -629.4139447144      1.18e-05  
    8    -629.4139543132      5.14e-06  
    9    -629.4139558469      1.76e-06  
   10    -629.4139560343      5.54e-07  Convergence criterion met
 ---------------------------------------
 SCF time:   CPU 675.72s  wall 13.00s 

************** Final PCM Free Energy Summary **************
 G_electrostatic  =      -0.00531258 hartree =      -3.33369418 kcal/mol
 G_cavitation     =       0.00000000 hartree =       0.00000000 kcal/mol
 G_dispersion     =       0.00000000 hartree =       0.00000000 kcal/mol
 G_repulsion      =       0.00000000 hartree =       0.00000000 kcal/mol
 --------------------------------------------------
 Non-electrostatic Free Energy =       0.00000000 hartree =       0.00000000 kcal/mol
 Total                         =      -0.00531258 hartree =      -3.33369418 kcal/mol
 --------------------------------------------------
 SCF Energy (H0 + V/2)                       =    -629.41395603 
 Solute Internal Energy (H0)                 =    -629.40864345 
 Total Free Energy (H0 + V/2 + non-elec)     =    -629.41395603 hartree
                                             = -394963.21859113 kcal/mol
***********************************************************

 SCF   energy in the final basis set =     -629.4139560343
 Total energy in the final basis set =     -629.4139560343


 --------------------------------------------------------------
  Generalized many-body perturbation theory program
  by Joonho Lee, Fazle Rob, Xintian Feng, Evgeny Epifanovsky

 No regularization used 
 (reg. param. = 0.0000e+00)
  (P|Q)^-1/2 Time:  CPU 7.09 s  wall 0.12 s

 In RI-MP2 calculation: 
 # of frozen core orbitals: 11

 Components of the RIMP2 correlation energy:
        aaaa    correlation energy =        -0.1455047344 a.u.
        abab    correlation energy =        -0.8871461191 a.u.
        bbbb    correlation energy =        -0.1455047344 a.u.
        non-Brillouin singles      =        -0.0000000000 a.u.
        total same-spin energy     =        -0.2910094687 a.u.
        total opposite-spin energy =        -0.8871461191 a.u.

 Total  RIMP2   correlation energy =        -1.1781555878 a.u.
        RIMP2         total energy =      -630.5921116222 a.u.

 RI-MP2 Energy Time:  CPU 36.88 s  wall 0.65 s
 
 --------------------------------------------------------------
 
                    Orbital Energies (a.u.)
 --------------------------------------------------------------
 
 Alpha MOs
 -- Occupied --
-91.9797 -11.2768 -11.2566 -11.2472 -11.2273 -11.2268 -11.2176  -8.9796
 -6.6605  -6.6600  -6.6594  -1.1609  -1.0534  -0.9955  -0.9441  -0.8830
 -0.7462  -0.7186  -0.6464  -0.5891  -0.5742  -0.5672  -0.5528  -0.5456
 -0.5097  -0.4886  -0.4627  -0.4517  -0.3383  -0.2948
 -- Virtual --
  0.1020   0.1430   0.1495   0.1760   0.1879   0.1947   0.2040   0.2244
  0.2297   0.2389   0.2502   0.2555   0.2937   0.3227   0.3370   0.3523
  0.3812   0.3933   0.3971   0.4193   0.4406   0.4634   0.4714   0.4847
  0.4971   0.5002   0.5149   0.5285   0.5405   0.5653   0.5797   0.5911
  0.5977   0.6087   0.6088   0.6200   0.6291   0.6378   0.6454   0.6505
  0.6533   0.6672   0.6844   0.7052   0.7347   0.7413   0.7503   0.7824
  0.8075   0.8411   0.8432   0.8545   0.8653   0.8862   0.9065   0.9107
  0.9534   0.9711   1.0009   1.0143   1.0287   1.0573   1.0675   1.0756
  1.0919   1.0944   1.0972   1.1340   1.1639   1.1697   1.1984   1.2182
  1.2312   1.2417   1.2496   1.2606   1.2681   1.2880   1.3077   1.3319
  1.3521   1.3713   1.3980   1.4086   1.4196   1.4365   1.4622   1.4827
  1.5021   1.5084   1.5219   1.5343   1.5500   1.5619   1.5651   1.5781
  1.6106   1.6273   1.6591   1.6731   1.6891   1.6928   1.7108   1.7471
  1.7617   1.7781   1.8137   1.8312   1.8721   1.9066   1.9299   1.9619
  2.0167   2.0407   2.1044   2.1247   2.1767   2.1906   2.2187   2.2477
  2.2613   2.2824   2.3440   2.4188   2.4504   2.4747   2.5377   2.5420
  2.5604   2.6077   2.6330   2.6560   2.6758   2.7042   2.7125   2.7340
  2.7510   2.7594   2.7873   2.7909   2.8184   2.8363   2.8543   2.8732
  2.9117   2.9363   2.9704   2.9886   3.0131   3.0298   3.0415   3.0575
  3.0785   3.1013   3.1151   3.1411   3.1502   3.1699   3.1802   3.1952
  3.2013   3.2502   3.2661   3.2778   3.2930   3.2990   3.3089   3.3320
  3.3391   3.3509   3.3814   3.3876   3.3979   3.4218   3.4221   3.4373
  3.4478   3.4565   3.4840   3.4946   3.5183   3.5275   3.5407   3.5618
  3.5790   3.5951   3.6080   3.6181   3.6302   3.6412   3.6609   3.6847
  3.6999   3.7027   3.7146   3.7484   3.7572   3.7722   3.7939   3.8042
  3.8194   3.8292   3.8607   3.8828   3.8941   3.9336   3.9396   3.9454
  3.9698   3.9917   4.0212   4.0228   4.0466   4.0684   4.0738   4.1090
  4.1225   4.1544   4.1826   4.1859   4.1972   4.2206   4.2482   4.2546
  4.2818   4.3011   4.3032   4.3352   4.3418   4.3723   4.3858   4.4015
  4.4160   4.4277   4.4332   4.4634   4.4694   4.4761   4.5283   4.5530
  4.6043   4.6202   4.6321   4.6620   4.7128   4.7385   4.7521   4.7753
  4.8171   4.8205   4.8332   4.8900   4.9227   4.9412   5.0634   5.0947
  5.1083   5.1641   5.1785   5.1859   5.2230   5.2627   5.2894   5.3239
  5.3639   5.4034   5.4183   5.4436   5.4576   5.5086   5.5483   5.5651
  5.5942   5.6111   5.6241   5.6909   5.7189   5.8168   5.8251   5.8704
  5.9211   6.0278   6.0758   6.1333   6.2277   6.2470   6.3055   6.3622
  6.4483   6.4677   9.1485  11.4294  12.9414  13.8988  14.1858  14.2845
 --------------------------------------------------------------
 
          Ground-State Mulliken Net Atomic Charges

     Atom                 Charge (a.u.)
  ----------------------------------------
      1 C                     0.010480
      2 C                    -0.248340
      3 C                     0.032017
      4 H                     0.179605
      5 C                    -0.252975
      6 S                    -0.004413
      7 C                    -0.272795
      8 H                     0.101635
      9 H                     0.107019
     10 H                     0.106741
     11 C                    -0.372317
     12 H                     0.122924
     13 H                     0.137304
     14 H                     0.157893
     15 H                     0.195222
  ----------------------------------------
  Sum of atomic charges =     0.000000

 -----------------------------------------------------------------
                    Cartesian Multipole Moments
 -----------------------------------------------------------------
    Charge (ESU x 10^10)
                -0.0000
    Dipole Moment (Debye)
         X      -0.0186      Y      -0.2416      Z       1.0633
       Tot       1.0906
    Quadrupole Moments (Debye-Ang)
        XX     -52.9675     XY       4.0496     YY     -43.0255
        XZ      -0.1929     YZ       1.0127     ZZ     -48.6200
    Octopole Moments (Debye-Ang^2)
       XXX     -36.0516    XXY     -27.4931    XYY      -8.4391
       YYY     -76.0802    XXZ      -2.6134    XYZ       0.2277
       YYZ      -6.1600    XZZ     -10.0962    YZZ     -23.1422
       ZZZ       0.0414
    Hexadecapole Moments (Debye-Ang^3)
      XXXX    -145.8999   XXXY    -103.8533   XXYY    -152.3393
      XYYY     -82.2145   YYYY    -745.6713   XXXZ     -31.8556
      XXYZ     -32.0977   XYYZ     -18.4773   YYYZ    -100.3883
      XXZZ    -111.3954   XYZZ     -28.7049   YYZZ    -204.1350
      XZZZ     -35.4269   YZZZ     -99.4968   ZZZZ    -491.1699
 -----------------------------------------------------------------
 Total job time:  18.08s(wall), 743.49s(cpu) 
 Fri Dec 15 14:02:26 2023

        *************************************************************
        *                                                           *
        *  Thank you very much for using Q-Chem.  Have a nice day.  *
        *                                                           *
        *************************************************************


0 sent ACK to 0 
now end server 0 ... 
cleanup process ... done
remove work dirs ./qchem22192.0 -- ./qchem22192.0
rm -rf ./qchem22192.0
rm -rf ./qchem22192
