You are running Q-Chem version: 5.4.0

#
# job setting
#
local host:  exp-7-23
current dir: /home/rramji/project-csd799/aromodel/p3ht-qchem/methylated-rotation-run
input file:  Methylthiophene_Phi_25_Theta_240_Methylthiophene_Hydrogenated_Improper.qcin
output file: 
nprocs     : 1
nthreads   : 64
#
# qchem installation setting
#
QC:          /cm/shared/apps/spack/cpu/opt/spack/linux-centos8-zen2/gcc-10.2.0/qchem-5.4-akfmr7b3t57bfs6qan3padb2wnb2i7cl
QCAUX:       /cm/shared/apps/spack/cpu/opt/spack/linux-centos8-zen2/gcc-10.2.0/qchem-5.4-akfmr7b3t57bfs6qan3padb2wnb2i7cl/qcaux
QCPROG:      /cm/shared/apps/spack/cpu/opt/spack/linux-centos8-zen2/gcc-10.2.0/qchem-5.4-akfmr7b3t57bfs6qan3padb2wnb2i7cl/exe/qcprog.exe
QCPROG_S:    /cm/shared/apps/spack/cpu/opt/spack/linux-centos8-zen2/gcc-10.2.0/qchem-5.4-akfmr7b3t57bfs6qan3padb2wnb2i7cl/exe/qcprog.exe_s
PARALLEL:    -DPARALLEL
QCMPI:       mpich
#
# qchem directory setting
#
qcrun:       qchem646396
QCSCRATCH:   .
QCLOCALSCR:  
QCTMPDIR:    .
QCFILEPREF:  ./qchem646396
QCSAVEDIR:   
workdirs:    ./qchem646396
workdir0:    ./qchem646396
partmpdirs =  
#
# parallel setting
#
QCRSH:           ssh
QCMPI:           mpich
QCMPIRUN:        /cm/shared/apps/spack/cpu/opt/spack/linux-centos8-zen2/gcc-10.2.0/qchem-5.4-akfmr7b3t57bfs6qan3padb2wnb2i7cl/bin/mpi/mpirun_qchem
QCMACHINEFILE:   ./qchem646396/hostfile
exp-7-23

#
# env setting
#
exported envs:   QC QCAUX QCSCRATCH QCRUNNAME QCFILEPREF QCPROG QCPROG_S GUIFILE

Running Job 1 of 1 Methylthiophene_Phi_25_Theta_240_Methylthiophene_Hydrogenated_Improper.qcin
qchem Methylthiophene_Phi_25_Theta_240_Methylthiophene_Hydrogenated_Improper.qcin_646396.0 ./qchem646396/ 1
/cm/shared/apps/spack/cpu/opt/spack/linux-centos8-zen2/gcc-10.2.0/qchem-5.4-akfmr7b3t57bfs6qan3padb2wnb2i7cl/bin/mpi/mpirun_qchem -machinefile ./qchem646396/hostfile -np 1 /cm/shared/apps/spack/cpu/opt/spack/linux-centos8-zen2/gcc-10.2.0/qchem-5.4-akfmr7b3t57bfs6qan3padb2wnb2i7cl/exe/qcprog.exe Methylthiophene_Phi_25_Theta_240_Methylthiophene_Hydrogenated_Improper.qcin_646396.0 ./qchem646396/

Process 0 of 1 is on exp-7-23 - thread support 0
initial socket setup ...start
initial socket setup ...done 
now start server 0 ... 
                  Welcome to Q-Chem
     A Quantum Leap Into The Future Of Chemistry


 Q-Chem 5.4, Q-Chem, Inc., Pleasanton, CA (2021)

 License issued to: University of California, San Diego (site)

 E. Epifanovsky,  A. T. B. Gilbert,  Xintian Feng,  Joonho Lee,  Yuezhi Mao,  
 N. Mardirossian,  P. Pokhilko,  A. White,  M. Wormit,  M. P. Coons,  
 A. L. Dempwolff,  Zhengting Gan,  D. Hait,  P. R. Horn,  L. D. Jacobson,  
 I. Kaliman,  J. Kussmann,  A. W. Lange,  Ka Un Lao,  D. S. Levine,  Jie Liu,  
 S. C. McKenzie,  A. F. Morrison,  K. Nanda,  F. Plasser,  D. R. Rehn,  
 M. L. Vidal,  Zhi-Qiang You,  Ying Zhu,  B. Alam,  B. Albrecht,  
 A. Aldossary,  E. Alguire,  J. H. Andersen,  D. Barton,  K. Begam,  A. Behn,  
 Y. A. Bernard,  E. J. Berquist,  H. Burton,  A. Carreras,  K. Carter-Fenk,  
 R. Chakraborty,  A. D. Chien,  K. D. Closser,  V. Cofer-Shabica,  
 S. Dasgupta,  Jia Deng,  M. de Wergifosse,  M. Diedenhofen,  Hainam Do,  
 S. Ehlert,  Po-Tung Fang,  S. Fatehi,  Qingguo Feng,  J. Gayvert,  
 Qinghui Ge,  G. Gidofalvi,  M. Goldey,  J. Gomes,  C. Gonzalez-Espinoza,  
 S. Gulania,  A. Gunina,  M. W. D. Hanson-Heine,  P. H. P. Harbach,  
 A. W. Hauser,  M. F. Herbst,  M. Hernandez Vera,  M. Hodecker,  
 Z. C. Holden,  S. Houck,  Xunkun Huang,  Kerwin Hui,  B. C. Huynh,  
 M. Ivanov,  Hyunjun Ji,  Hanjie Jiang,  B. Kaduk,  S. Kaehler,  
 K. Khistyaev,  Jaehoon Kim,  P. Klunzinger,  Z. Koczor-Benda,  
 Joong Hoon Koh,  D. Kosenkov,  L. Koulias,  T. Kowalczyk,  C. M. Krauter,  
 K. Kue,  A. Kunitsa,  T. Kus,  A. Landau,  K. V. Lawler,  D. Lefrancois,  
 S. Lehtola,  Rain Li,  Yi-Pei Li,  Jiashu Liang,  M. Liebenthal,  
 Hung-Hsuan Lin,  You-Sheng Lin,  Fenglai Liu,  Kuan-Yu Liu,  
 M. Loipersberger,  A. Luenser,  A. Manjanath,  P. Manohar,  E. Mansoor,  
 S. F. Manzer,  Shan-Ping Mao,  A. V. Marenich,  T. Markovich,  S. Mason,  
 S. A. Maurer,  P. F. McLaughlin,  M. F. S. J. Menger,  J.-M. Mewes,  
 S. A. Mewes,  P. Morgante,  J. W. Mullinax,  T. S. Nguyen-Beck,  
 K. J. Oosterbaan,  G. Paran,  Alexander C. Paul,  Suranjan K. Paul,  
 F. Pavosevic,  Zheng Pei,  S. Prager,  E. I. Proynov,  E. Ramos,  B. Rana,  
 A. E. Rask,  A. Rettig,  R. M. Richard,  F. Rob,  E. Rossomme,  T. Scheele,  
 M. Scheurer,  M. Schneider,  N. Sergueev,  S. M. Sharada,  W. Skomorowski,  
 D. W. Small,  C. J. Stein,  Yu-Chuan Su,  E. J. Sundstrom,  Zhen Tao,  
 J. Thirman,  T. Tsuchimochi,  N. M. Tubman,  S. P. Veccham,  O. Vydrov,  
 J. Wenzel,  J. Witte,  A. Yamada,  Kun Yao,  S. Yeganeh,  S. R. Yost,  
 A. Zech,  Igor Ying Zhang,  Xing Zhang,  Yu Zhang,  D. Zuev,  
 A. Aspuru-Guzik,  A. T. Bell,  N. A. Besley,  K. B. Bravaya,  B. R. Brooks,  
 D. Casanova,  Jeng-Da Chai,  S. Coriani,  C. J. Cramer,  
 A. E. DePrince, III,  R. A. DiStasio Jr.,  A. Dreuw,  B. D. Dunietz,  
 T. R. Furlani,  W. A. Goddard III,  S. Grimme,  S. Hammes-Schiffer,  
 T. Head-Gordon,  W. J. Hehre,  Chao-Ping Hsu,  T.-C. Jagau,  Yousung Jung,  
 A. Klamt,  Jing Kong,  D. S. Lambrecht,  WanZhen Liang,  N. J. Mayhall,  
 C. W. McCurdy,  J. B. Neaton,  C. Ochsenfeld,  J. A. Parkhill,  R. Peverati,  
 V. A. Rassolov,  Yihan Shao,  L. V. Slipchenko,  T. Stauch,  R. P. Steele,  
 J. E. Subotnik,  A. J. W. Thom,  A. Tkatchenko,  D. G. Truhlar,  
 T. Van Voorhis,  T. A. Wesolowski,  K. B. Whaley,  H. L. Woodcock III,  
 P. M. Zimmerman,  S. Faraji,  P. M. W. Gill,  M. Head-Gordon,  
 J. M. Herbert,  A. I. Krylov

 Contributors to earlier versions of Q-Chem not listed above: 
 R. D. Adamson,  B. Austin,  R. Baer,  J. Baker,  G. J. O. Beran,  
 K. Brandhorst,  S. T. Brown,  E. F. C. Byrd,  A. K. Chakraborty,  
 G. K. L. Chan,  Chun-Min Chang,  Yunqing Chen,  C.-L. Cheng,  
 Siu Hung Chien,  D. M. Chipman,  D. L. Crittenden,  H. Dachsel,  
 R. J. Doerksen,  A. D. Dutoi,  R. G. Edgar,  J. Fosso-Tande,  
 L. Fusti-Molnar,  D. Ghosh,  A. Ghysels,  A. Golubeva-Zadorozhnaya,  
 J. Gonthier,  M. S. Gordon,  S. R. Gwaltney,  G. Hawkins,  J. E. Herr,  
 A. Heyden,  S. Hirata,  E. G. Hohenstein,  G. Kedziora,  F. J. Keil,  
 C. Kelley,  Jihan Kim,  R. A. King,  R. Z. Khaliullin,  P. P. Korambath,  
 W. Kurlancheek,  A. Laurent,  A. M. Lee,  M. S. Lee,  S. V. Levchenko,  
 Ching Yeh Lin,  D. Liotard,  E. Livshits,  R. C. Lochan,  I. Lotan,  
 L. A. Martinez-Martinez,  P. E. Maslen,  N. Nair,  D. P. O'Neill,  
 D. Neuhauser,  E. Neuscamman,  C. M. Oana,  R. Olivares-Amaya,  R. Olson,  
 T. M. Perrine,  B. Peters,  P. A. Pieniazek,  A. Prociuk,  Y. M. Rhee,  
 J. Ritchie,  M. A. Rohrdanz,  E. Rosta,  N. J. Russ,  H. F. Schaefer III,  
 M. W. Schmidt,  N. E. Schultz,  S. Sharma,  N. Shenvi,  C. D. Sherrill,  
 A. C. Simmonett,  A. Sodt,  T. Stein,  D. Stuck,  K. S. Thanthiriwatte,  
 V. Vanovschi,  L. Vogt,  Tao Wang,  A. Warshel,  M. A. Watson,  
 C. F. Williams,  Q. Wu,  X. Xu,  Jun Yang,  W. Zhang,  Yan Zhao

 Please cite Q-Chem as follows:
 Y. Shao et al., Mol. Phys. 113, 184-215 (2015)
 DOI: 10.1080/00268976.2014.952696

 Q-Chem 5.4.0 for Intel X86 EM64T Linux

 Parts of Q-Chem use Armadillo 9.800.1 (Horizon Scraper).
 http://arma.sourceforge.net/

 Q-Chem begins on Fri Dec 15 14:02:24 2023  

 Host: 
0

     Scratch files written to ./qchem646396//
 May1621 |scratch|qcdevops|jenkins|workspace|build_RNUM    
 Parallel job on  1  processors
 Processing $rem in /cm/shared/apps/spack/cpu/opt/spack/linux-centos8-zen2/gcc-10.2.0/qchem-5.4-akfmr7b3t57bfs6qan3padb2wnb2i7cl/config/preferences:
 Processing $rem in /home/rramji/.qchemrc:
 Symmetry turned off for PCM/SM12/SMD calculation
 Core orbitals will be frozen

 Checking the input file for inconsistencies... 	...done.

 Q-Chem warning in module forms1/BasisType.C, line 2236:

 You are not using the predefined 5D/6D in this basis set.


--------------------------------------------------------------
User input:
--------------------------------------------------------------
$molecule
0 1
C	-0.282800	-0.513776	0.005666
C	0.071400	0.253024	1.118666
C	0.655000	1.515624	0.826266
H	-0.091500	-0.099276	2.148566
C	0.759200	1.740824	-0.557934
S	0.124100	0.367424	-1.459034
C	1.101600	2.482024	1.888066
H	0.913600	2.075424	2.900666
H	0.566800	3.451924	1.813766
H	2.187000	2.703024	1.813866
C	-0.282800	-1.963876	0.005666
H	-0.822800	-1.964376	-0.929634
H	0.529800	-2.498976	-0.463234
H	-1.004200	-2.651076	0.422566
H	1.161100	2.610424	-1.091434
$end

$rem
JOBTYPE		SP
EXCHANGE	HF
CORRELATION	pRIMP2
BASIS		cc-pvtz
METHOD		rimp2
AUX_BASIS	rimp2-cc-pvtz
SOLVENT_METHOD	PCM
PURECART	11111
SYMMETRY	false
MEM_TOTAL	110000
SCF_CONVERGENCE = 6
THRESH=10
GUI = 2
$end



$solvent
dielectric 4.90
$end
--------------------------------------------------------------
 ----------------------------------------------------------------
             Standard Nuclear Orientation (Angstroms)
    I     Atom           X                Y                Z
 ----------------------------------------------------------------
    1      C      -0.2828000000    -0.5137760000     0.0056660000
    2      C       0.0714000000     0.2530240000     1.1186660000
    3      C       0.6550000000     1.5156240000     0.8262660000
    4      H      -0.0915000000    -0.0992760000     2.1485660000
    5      C       0.7592000000     1.7408240000    -0.5579340000
    6      S       0.1241000000     0.3674240000    -1.4590340000
    7      C       1.1016000000     2.4820240000     1.8880660000
    8      H       0.9136000000     2.0754240000     2.9006660000
    9      H       0.5668000000     3.4519240000     1.8137660000
   10      H       2.1870000000     2.7030240000     1.8138660000
   11      C      -0.2828000000    -1.9638760000     0.0056660000
   12      H      -0.8228000000    -1.9643760000    -0.9296340000
   13      H       0.5298000000    -2.4989760000    -0.4632340000
   14      H      -1.0042000000    -2.6510760000     0.4225660000
   15      H       1.1611000000     2.6104240000    -1.0914340000
 ----------------------------------------------------------------
 Nuclear Repulsion Energy =         345.29444449 hartrees
 There are       30 alpha and       30 beta electrons
 Requested basis set is cc-pVTZ
 There are 120 shells and 326 basis functions

 Total QAlloc Memory Limit 110000 MB
 Mega-Array Size       188 MB
 MEM_STATIC part       192 MB
 Discretize the solute cavity surface with Lebedev spheres
	Using 110 Lebedev grid points for each H atom
	Using 194 Lebedev grid points for other atoms
	Atomic van der Waals radii will be scaled by 1.20
 Remove points where switching function is < 1.0e-08
 Keep 1066 surface tesserae and discard 1172 interior tesserae
 Molecular Surface Area = 158.139 Angst**2

                       Distance Matrix (Angstroms)
             C (  1)   C (  2)   C (  3)   H (  4)   C (  5)   S (  6)
   C (  2)  1.397215
   C (  3)  2.381453  1.421353
   H (  4)  2.190988  1.100612  2.216674
   C (  5)  2.546886  2.344697  1.406265  3.381538
   S (  6)  1.757108  2.580775  2.612052  3.644046  1.761125
   C (  7)  3.799317  2.573272  1.503596  2.855601  2.578668  4.078004
   H (  8)  4.064032  2.684393  2.164113  2.511016  3.478176  4.748427
   H (  9)  4.440475  3.310823  2.175360  3.627185  2.930843  4.518998
   H ( 10)  4.440417  3.310826  2.175384  3.627185  2.930849  4.519121
   C ( 11)  1.450100  2.505768  3.695913  2.846990  3.889500  2.783141
   H ( 12)  1.808487  3.148331  4.168630  3.672698  4.045911  2.571804
   H ( 13)  2.195724  3.207186  4.218471  3.600843  4.247057  3.061447
   H ( 14)  2.293965  3.174156  4.503033  3.213064  4.833192  3.731598
   H ( 15)  3.612354  3.410179  2.265457  4.405574  1.096517  2.498309
             C (  7)   H (  8)   H (  9)   H ( 10)   C ( 11)   H ( 12)
   H (  8)  1.107261
   H (  9)  1.110062  1.787841
   H ( 10)  1.110153  1.787894  1.784909
   C ( 11)  5.022551  5.111589  5.772516  5.581170
   H ( 12)  5.604750  5.831489  6.228446  6.194377  1.079994
   H ( 13)  5.537683  5.691069  6.371759  5.915429  1.080055  1.527368
   H ( 14)  5.738536  5.670868  6.453688  6.386381  1.080031  1.527386
   H ( 15)  2.982859  4.035386  3.082451  3.082501  4.920640  4.989071
             H ( 13)   H ( 14)
   H ( 14)  1.777901
   H ( 15)  5.186438  5.887623
 
 Requested basis set is rimp2-cc-pVTZ
 There are 250 shells and 848 basis functions
 A cutoff of  1.0D-10 yielded   6179 shell pairs
 There are     45231 function pairs (     58162 Cartesian)
 Smallest overlap matrix eigenvalue = 1.12E-04

 Scale SEOQF with 1.000000e-01/1.000000e-01/1.000000e-01

 Standard Electronic Orientation quadrupole field applied
 Nucleus-field energy     =     0.0000000014 hartrees
 Guess from superposition of atomic densities
 Warning:  Energy on first SCF cycle will be non-variational
 SAD guess density has 60.000000 electrons

 -----------------------------------------------------------------------
  General SCF calculation program by
  Eric Jon Sundstrom, Paul Horn, Yuezhi Mao, Dmitri Zuev, Alec White,
  David Stuck, Shaama M.S., Shane Yost, Joonho Lee, David Small,
  Daniel Levine, Susi Lehtola, Hugh Burton, Evgeny Epifanovsky,
  Bang C. Huynh
 -----------------------------------------------------------------------
 Hartree-Fock
 using 64 threads for integral computing
 -------------------------------------------------------
 OpenMP Integral computing Module                
 Release: version 1.0, May 2013, Q-Chem Inc. Pittsburgh 
 -------------------------------------------------------
 A restricted SCF calculation will be
 performed using DIIS
 SCF converges when DIIS error is below 1.0e-06
 ---------------------------------------
  Cycle       Energy         DIIS error
 ---------------------------------------
    1    -632.0976071399      2.92e-02  
    2    -629.3293768001      1.94e-03  
    3    -629.3999297877      6.87e-04  
    4    -629.4075745529      3.40e-04  
    5    -629.4096755611      6.43e-05  
    6    -629.4098134083      2.63e-05  
    7    -629.4098488463      1.20e-05  
    8    -629.4098588563      4.96e-06  
    9    -629.4098603899      1.90e-06  
   10    -629.4098605860      5.16e-07  Convergence criterion met
 ---------------------------------------
 SCF time:   CPU 670.75s  wall 14.00s 

************** Final PCM Free Energy Summary **************
 G_electrostatic  =      -0.00502622 hartree =      -3.15400169 kcal/mol
 G_cavitation     =       0.00000000 hartree =       0.00000000 kcal/mol
 G_dispersion     =       0.00000000 hartree =       0.00000000 kcal/mol
 G_repulsion      =       0.00000000 hartree =       0.00000000 kcal/mol
 --------------------------------------------------
 Non-electrostatic Free Energy =       0.00000000 hartree =       0.00000000 kcal/mol
 Total                         =      -0.00502622 hartree =      -3.15400169 kcal/mol
 --------------------------------------------------
 SCF Energy (H0 + V/2)                       =    -629.40986059 
 Solute Internal Energy (H0)                 =    -629.40483436 
 Total Free Energy (H0 + V/2 + non-elec)     =    -629.40986059 hartree
                                             = -394960.64865848 kcal/mol
***********************************************************

 SCF   energy in the final basis set =     -629.4098605860
 Total energy in the final basis set =     -629.4098605860


 --------------------------------------------------------------
  Generalized many-body perturbation theory program
  by Joonho Lee, Fazle Rob, Xintian Feng, Evgeny Epifanovsky

 No regularization used 
 (reg. param. = 0.0000e+00)
  (P|Q)^-1/2 Time:  CPU 7.41 s  wall 0.12 s

 In RI-MP2 calculation: 
 # of frozen core orbitals: 11

 Components of the RIMP2 correlation energy:
        aaaa    correlation energy =        -0.1458168556 a.u.
        abab    correlation energy =        -0.8881985030 a.u.
        bbbb    correlation energy =        -0.1458168556 a.u.
        non-Brillouin singles      =        -0.0000000000 a.u.
        total same-spin energy     =        -0.2916337113 a.u.
        total opposite-spin energy =        -0.8881985030 a.u.

 Total  RIMP2   correlation energy =        -1.1798322142 a.u.
        RIMP2         total energy =      -630.5896928002 a.u.

 RI-MP2 Energy Time:  CPU 36.01 s  wall 0.64 s
 
 --------------------------------------------------------------
 
                    Orbital Energies (a.u.)
 --------------------------------------------------------------
 
 Alpha MOs
 -- Occupied --
-91.9803 -11.2715 -11.2610 -11.2474 -11.2305 -11.2271 -11.2156  -8.9801
 -6.6611  -6.6605  -6.6599  -1.1619  -1.0532  -0.9950  -0.9448  -0.8827
 -0.7477  -0.7193  -0.6456  -0.5904  -0.5749  -0.5669  -0.5529  -0.5458
 -0.5108  -0.4827  -0.4636  -0.4468  -0.3378  -0.3006
 -- Virtual --
  0.0954   0.1424   0.1505   0.1761   0.1871   0.1921   0.1992   0.2268
  0.2331   0.2448   0.2475   0.2696   0.2922   0.3166   0.3383   0.3496
  0.3763   0.3943   0.3993   0.4175   0.4364   0.4660   0.4732   0.4757
  0.4932   0.4971   0.5167   0.5315   0.5430   0.5533   0.5823   0.5913
  0.6000   0.6077   0.6123   0.6178   0.6279   0.6372   0.6452   0.6474
  0.6550   0.6643   0.6876   0.7105   0.7376   0.7466   0.7511   0.7744
  0.8015   0.8340   0.8418   0.8602   0.8612   0.8805   0.9016   0.9179
  0.9401   0.9597   0.9976   1.0090   1.0264   1.0522   1.0651   1.0794
  1.0909   1.0946   1.1033   1.1481   1.1640   1.1782   1.2055   1.2186
  1.2296   1.2363   1.2514   1.2638   1.2760   1.2921   1.3111   1.3259
  1.3386   1.3594   1.3913   1.4051   1.4230   1.4287   1.4606   1.4773
  1.4902   1.5146   1.5249   1.5304   1.5533   1.5657   1.5762   1.5829
  1.6196   1.6218   1.6498   1.6631   1.6819   1.6928   1.7076   1.7413
  1.7583   1.7838   1.8146   1.8270   1.8718   1.9102   1.9339   1.9682
  1.9882   2.0390   2.0856   2.1221   2.1614   2.1875   2.2152   2.2258
  2.2572   2.2736   2.3412   2.4163   2.4519   2.4919   2.5434   2.5614
  2.5656   2.6049   2.6420   2.6646   2.6776   2.6967   2.7194   2.7334
  2.7525   2.7707   2.7777   2.7887   2.8221   2.8357   2.8517   2.8645
  2.9016   2.9295   2.9627   2.9817   2.9996   3.0121   3.0466   3.0492
  3.1054   3.1124   3.1168   3.1350   3.1402   3.1683   3.1733   3.2000
  3.2082   3.2406   3.2623   3.2725   3.2792   3.2945   3.3123   3.3321
  3.3419   3.3586   3.3748   3.3840   3.4074   3.4165   3.4285   3.4359
  3.4469   3.4559   3.4889   3.4977   3.5190   3.5251   3.5440   3.5590
  3.5784   3.5952   3.6131   3.6220   3.6273   3.6455   3.6631   3.6967
  3.7062   3.7153   3.7195   3.7486   3.7618   3.7689   3.7949   3.8020
  3.8055   3.8236   3.8606   3.8865   3.8979   3.9225   3.9372   3.9433
  3.9703   3.9807   4.0238   4.0261   4.0535   4.0637   4.0832   4.1056
  4.1201   4.1408   4.1752   4.1826   4.1871   4.2201   4.2406   4.2501
  4.2799   4.2910   4.3259   4.3370   4.3439   4.3672   4.3779   4.3914
  4.4024   4.4300   4.4355   4.4522   4.4888   4.5000   4.5165   4.5650
  4.5966   4.6131   4.6532   4.6761   4.7146   4.7312   4.7610   4.7716
  4.8056   4.8094   4.8295   4.8927   4.9250   4.9578   5.0777   5.0875
  5.1070   5.1388   5.1774   5.1920   5.2417   5.2707   5.2874   5.3138
  5.3633   5.4034   5.4129   5.4383   5.4512   5.4986   5.5438   5.5616
  5.5917   5.6104   5.6245   5.6898   5.7319   5.8138   5.8285   5.8669
  5.8911   6.0279   6.0318   6.1149   6.2273   6.2436   6.2923   6.3672
  6.3957   6.4626   9.1122  11.4726  12.8941  13.8889  14.1864  14.2595
 --------------------------------------------------------------
 
          Ground-State Mulliken Net Atomic Charges

     Atom                 Charge (a.u.)
  ----------------------------------------
      1 C                     0.002411
      2 C                    -0.239135
      3 C                     0.032399
      4 H                     0.178730
      5 C                    -0.246458
      6 S                    -0.000164
      7 C                    -0.271814
      8 H                     0.101955
      9 H                     0.106926
     10 H                     0.106343
     11 C                    -0.364685
     12 H                     0.112893
     13 H                     0.132592
     14 H                     0.152642
     15 H                     0.195365
  ----------------------------------------
  Sum of atomic charges =     0.000000

 -----------------------------------------------------------------
                    Cartesian Multipole Moments
 -----------------------------------------------------------------
    Charge (ESU x 10^10)
                -0.0000
    Dipole Moment (Debye)
         X       0.3941      Y       0.0298      Z       0.9999
       Tot       1.0752
    Quadrupole Moments (Debye-Ang)
        XX     -52.2620     XY       4.2376     YY     -43.7969
        XZ      -0.1003     YZ       1.1779     ZZ     -48.6954
    Octopole Moments (Debye-Ang^2)
       XXX     -44.2752    XXY     -25.5329    XYY      -9.6070
       YYY     -72.1773    XXZ      -2.7849    XYZ      -0.3975
       YYZ      -6.8031    XZZ     -12.6013    YZZ     -21.0465
       ZZZ       0.6425
    Hexadecapole Moments (Debye-Ang^3)
      XXXX    -179.7200   XXXY    -121.0320   XXYY    -146.7155
      XYYY    -101.1062   YYYY    -714.8811   XXXZ     -40.5657
      XXYZ     -32.0475   XYYZ     -20.9462   YYYZ     -95.6483
      XXZZ    -115.9690   XYZZ     -34.2632   YYZZ    -201.6925
      XZZZ     -43.5722   YZZZ     -97.1183   ZZZZ    -489.8785
 -----------------------------------------------------------------
 Total job time:  15.67s(wall), 746.41s(cpu) 
 Fri Dec 15 14:02:39 2023

        *************************************************************
        *                                                           *
        *  Thank you very much for using Q-Chem.  Have a nice day.  *
        *                                                           *
        *************************************************************


0 sent ACK to 0 
now end server 0 ... 
cleanup process ... done
remove work dirs ./qchem646396.0 -- ./qchem646396.0
rm -rf ./qchem646396.0
rm -rf ./qchem646396
