You are running Q-Chem version: 5.4.0

#
# job setting
#
local host:  exp-7-23
current dir: /home/rramji/project-csd799/aromodel/p3ht-qchem/methylated-rotation-run
input file:  Methylthiophene_Phi_30_Theta_350_Methylthiophene_Hydrogenated_Improper.qcin
output file: 
nprocs     : 1
nthreads   : 64
#
# qchem installation setting
#
QC:          /cm/shared/apps/spack/cpu/opt/spack/linux-centos8-zen2/gcc-10.2.0/qchem-5.4-akfmr7b3t57bfs6qan3padb2wnb2i7cl
QCAUX:       /cm/shared/apps/spack/cpu/opt/spack/linux-centos8-zen2/gcc-10.2.0/qchem-5.4-akfmr7b3t57bfs6qan3padb2wnb2i7cl/qcaux
QCPROG:      /cm/shared/apps/spack/cpu/opt/spack/linux-centos8-zen2/gcc-10.2.0/qchem-5.4-akfmr7b3t57bfs6qan3padb2wnb2i7cl/exe/qcprog.exe
QCPROG_S:    /cm/shared/apps/spack/cpu/opt/spack/linux-centos8-zen2/gcc-10.2.0/qchem-5.4-akfmr7b3t57bfs6qan3padb2wnb2i7cl/exe/qcprog.exe_s
PARALLEL:    -DPARALLEL
QCMPI:       mpich
#
# qchem directory setting
#
qcrun:       qchem649915
QCSCRATCH:   .
QCLOCALSCR:  
QCTMPDIR:    .
QCFILEPREF:  ./qchem649915
QCSAVEDIR:   
workdirs:    ./qchem649915
workdir0:    ./qchem649915
partmpdirs =  
#
# parallel setting
#
QCRSH:           ssh
QCMPI:           mpich
QCMPIRUN:        /cm/shared/apps/spack/cpu/opt/spack/linux-centos8-zen2/gcc-10.2.0/qchem-5.4-akfmr7b3t57bfs6qan3padb2wnb2i7cl/bin/mpi/mpirun_qchem
QCMACHINEFILE:   ./qchem649915/hostfile
exp-7-23

#
# env setting
#
exported envs:   QC QCAUX QCSCRATCH QCRUNNAME QCFILEPREF QCPROG QCPROG_S GUIFILE

Running Job 1 of 1 Methylthiophene_Phi_30_Theta_350_Methylthiophene_Hydrogenated_Improper.qcin
qchem Methylthiophene_Phi_30_Theta_350_Methylthiophene_Hydrogenated_Improper.qcin_649915.0 ./qchem649915/ 1
/cm/shared/apps/spack/cpu/opt/spack/linux-centos8-zen2/gcc-10.2.0/qchem-5.4-akfmr7b3t57bfs6qan3padb2wnb2i7cl/bin/mpi/mpirun_qchem -machinefile ./qchem649915/hostfile -np 1 /cm/shared/apps/spack/cpu/opt/spack/linux-centos8-zen2/gcc-10.2.0/qchem-5.4-akfmr7b3t57bfs6qan3padb2wnb2i7cl/exe/qcprog.exe Methylthiophene_Phi_30_Theta_350_Methylthiophene_Hydrogenated_Improper.qcin_649915.0 ./qchem649915/

Process 0 of 1 is on exp-7-23 - thread support 0
initial socket setup ...start
initial socket setup ...done 
now start server 0 ... 
                  Welcome to Q-Chem
     A Quantum Leap Into The Future Of Chemistry


 Q-Chem 5.4, Q-Chem, Inc., Pleasanton, CA (2021)

 License issued to: University of California, San Diego (site)

 E. Epifanovsky,  A. T. B. Gilbert,  Xintian Feng,  Joonho Lee,  Yuezhi Mao,  
 N. Mardirossian,  P. Pokhilko,  A. White,  M. Wormit,  M. P. Coons,  
 A. L. Dempwolff,  Zhengting Gan,  D. Hait,  P. R. Horn,  L. D. Jacobson,  
 I. Kaliman,  J. Kussmann,  A. W. Lange,  Ka Un Lao,  D. S. Levine,  Jie Liu,  
 S. C. McKenzie,  A. F. Morrison,  K. Nanda,  F. Plasser,  D. R. Rehn,  
 M. L. Vidal,  Zhi-Qiang You,  Ying Zhu,  B. Alam,  B. Albrecht,  
 A. Aldossary,  E. Alguire,  J. H. Andersen,  D. Barton,  K. Begam,  A. Behn,  
 Y. A. Bernard,  E. J. Berquist,  H. Burton,  A. Carreras,  K. Carter-Fenk,  
 R. Chakraborty,  A. D. Chien,  K. D. Closser,  V. Cofer-Shabica,  
 S. Dasgupta,  Jia Deng,  M. de Wergifosse,  M. Diedenhofen,  Hainam Do,  
 S. Ehlert,  Po-Tung Fang,  S. Fatehi,  Qingguo Feng,  J. Gayvert,  
 Qinghui Ge,  G. Gidofalvi,  M. Goldey,  J. Gomes,  C. Gonzalez-Espinoza,  
 S. Gulania,  A. Gunina,  M. W. D. Hanson-Heine,  P. H. P. Harbach,  
 A. W. Hauser,  M. F. Herbst,  M. Hernandez Vera,  M. Hodecker,  
 Z. C. Holden,  S. Houck,  Xunkun Huang,  Kerwin Hui,  B. C. Huynh,  
 M. Ivanov,  Hyunjun Ji,  Hanjie Jiang,  B. Kaduk,  S. Kaehler,  
 K. Khistyaev,  Jaehoon Kim,  P. Klunzinger,  Z. Koczor-Benda,  
 Joong Hoon Koh,  D. Kosenkov,  L. Koulias,  T. Kowalczyk,  C. M. Krauter,  
 K. Kue,  A. Kunitsa,  T. Kus,  A. Landau,  K. V. Lawler,  D. Lefrancois,  
 S. Lehtola,  Rain Li,  Yi-Pei Li,  Jiashu Liang,  M. Liebenthal,  
 Hung-Hsuan Lin,  You-Sheng Lin,  Fenglai Liu,  Kuan-Yu Liu,  
 M. Loipersberger,  A. Luenser,  A. Manjanath,  P. Manohar,  E. Mansoor,  
 S. F. Manzer,  Shan-Ping Mao,  A. V. Marenich,  T. Markovich,  S. Mason,  
 S. A. Maurer,  P. F. McLaughlin,  M. F. S. J. Menger,  J.-M. Mewes,  
 S. A. Mewes,  P. Morgante,  J. W. Mullinax,  T. S. Nguyen-Beck,  
 K. J. Oosterbaan,  G. Paran,  Alexander C. Paul,  Suranjan K. Paul,  
 F. Pavosevic,  Zheng Pei,  S. Prager,  E. I. Proynov,  E. Ramos,  B. Rana,  
 A. E. Rask,  A. Rettig,  R. M. Richard,  F. Rob,  E. Rossomme,  T. Scheele,  
 M. Scheurer,  M. Schneider,  N. Sergueev,  S. M. Sharada,  W. Skomorowski,  
 D. W. Small,  C. J. Stein,  Yu-Chuan Su,  E. J. Sundstrom,  Zhen Tao,  
 J. Thirman,  T. Tsuchimochi,  N. M. Tubman,  S. P. Veccham,  O. Vydrov,  
 J. Wenzel,  J. Witte,  A. Yamada,  Kun Yao,  S. Yeganeh,  S. R. Yost,  
 A. Zech,  Igor Ying Zhang,  Xing Zhang,  Yu Zhang,  D. Zuev,  
 A. Aspuru-Guzik,  A. T. Bell,  N. A. Besley,  K. B. Bravaya,  B. R. Brooks,  
 D. Casanova,  Jeng-Da Chai,  S. Coriani,  C. J. Cramer,  
 A. E. DePrince, III,  R. A. DiStasio Jr.,  A. Dreuw,  B. D. Dunietz,  
 T. R. Furlani,  W. A. Goddard III,  S. Grimme,  S. Hammes-Schiffer,  
 T. Head-Gordon,  W. J. Hehre,  Chao-Ping Hsu,  T.-C. Jagau,  Yousung Jung,  
 A. Klamt,  Jing Kong,  D. S. Lambrecht,  WanZhen Liang,  N. J. Mayhall,  
 C. W. McCurdy,  J. B. Neaton,  C. Ochsenfeld,  J. A. Parkhill,  R. Peverati,  
 V. A. Rassolov,  Yihan Shao,  L. V. Slipchenko,  T. Stauch,  R. P. Steele,  
 J. E. Subotnik,  A. J. W. Thom,  A. Tkatchenko,  D. G. Truhlar,  
 T. Van Voorhis,  T. A. Wesolowski,  K. B. Whaley,  H. L. Woodcock III,  
 P. M. Zimmerman,  S. Faraji,  P. M. W. Gill,  M. Head-Gordon,  
 J. M. Herbert,  A. I. Krylov

 Contributors to earlier versions of Q-Chem not listed above: 
 R. D. Adamson,  B. Austin,  R. Baer,  J. Baker,  G. J. O. Beran,  
 K. Brandhorst,  S. T. Brown,  E. F. C. Byrd,  A. K. Chakraborty,  
 G. K. L. Chan,  Chun-Min Chang,  Yunqing Chen,  C.-L. Cheng,  
 Siu Hung Chien,  D. M. Chipman,  D. L. Crittenden,  H. Dachsel,  
 R. J. Doerksen,  A. D. Dutoi,  R. G. Edgar,  J. Fosso-Tande,  
 L. Fusti-Molnar,  D. Ghosh,  A. Ghysels,  A. Golubeva-Zadorozhnaya,  
 J. Gonthier,  M. S. Gordon,  S. R. Gwaltney,  G. Hawkins,  J. E. Herr,  
 A. Heyden,  S. Hirata,  E. G. Hohenstein,  G. Kedziora,  F. J. Keil,  
 C. Kelley,  Jihan Kim,  R. A. King,  R. Z. Khaliullin,  P. P. Korambath,  
 W. Kurlancheek,  A. Laurent,  A. M. Lee,  M. S. Lee,  S. V. Levchenko,  
 Ching Yeh Lin,  D. Liotard,  E. Livshits,  R. C. Lochan,  I. Lotan,  
 L. A. Martinez-Martinez,  P. E. Maslen,  N. Nair,  D. P. O'Neill,  
 D. Neuhauser,  E. Neuscamman,  C. M. Oana,  R. Olivares-Amaya,  R. Olson,  
 T. M. Perrine,  B. Peters,  P. A. Pieniazek,  A. Prociuk,  Y. M. Rhee,  
 J. Ritchie,  M. A. Rohrdanz,  E. Rosta,  N. J. Russ,  H. F. Schaefer III,  
 M. W. Schmidt,  N. E. Schultz,  S. Sharma,  N. Shenvi,  C. D. Sherrill,  
 A. C. Simmonett,  A. Sodt,  T. Stein,  D. Stuck,  K. S. Thanthiriwatte,  
 V. Vanovschi,  L. Vogt,  Tao Wang,  A. Warshel,  M. A. Watson,  
 C. F. Williams,  Q. Wu,  X. Xu,  Jun Yang,  W. Zhang,  Yan Zhao

 Please cite Q-Chem as follows:
 Y. Shao et al., Mol. Phys. 113, 184-215 (2015)
 DOI: 10.1080/00268976.2014.952696

 Q-Chem 5.4.0 for Intel X86 EM64T Linux

 Parts of Q-Chem use Armadillo 9.800.1 (Horizon Scraper).
 http://arma.sourceforge.net/

 Q-Chem begins on Fri Dec 15 14:06:07 2023  

 Host: 
0

     Scratch files written to ./qchem649915//
 May1621 |scratch|qcdevops|jenkins|workspace|build_RNUM    
 Parallel job on  1  processors
 Processing $rem in /cm/shared/apps/spack/cpu/opt/spack/linux-centos8-zen2/gcc-10.2.0/qchem-5.4-akfmr7b3t57bfs6qan3padb2wnb2i7cl/config/preferences:
 Processing $rem in /home/rramji/.qchemrc:
 Symmetry turned off for PCM/SM12/SMD calculation
 Core orbitals will be frozen

 Checking the input file for inconsistencies... 	...done.

 Q-Chem warning in module forms1/BasisType.C, line 2236:

 You are not using the predefined 5D/6D in this basis set.


--------------------------------------------------------------
User input:
--------------------------------------------------------------
$molecule
0 1
C	-0.342311	-0.486609	0.001609
C	0.077289	0.246391	1.114609
C	0.768789	1.453391	0.822209
H	-0.115611	-0.090409	2.144509
C	0.892289	1.668591	-0.561991
S	0.139789	0.355791	-1.463091
C	1.297989	2.377091	1.884009
H	1.075189	1.988491	2.896609
H	0.849689	3.389991	1.809709
H	2.398389	2.502691	1.809809
C	-0.342311	-1.936709	0.001609
H	0.721289	-1.937209	-0.185991
H	-0.179611	-2.471809	0.925509
H	-0.487311	-2.623909	-0.818891
H	1.368389	2.499891	-1.095491
$end

$rem
JOBTYPE		SP
EXCHANGE	HF
CORRELATION	pRIMP2
BASIS		cc-pvtz
METHOD		rimp2
AUX_BASIS	rimp2-cc-pvtz
SOLVENT_METHOD	PCM
PURECART	11111
SYMMETRY	false
MEM_TOTAL	110000
SCF_CONVERGENCE = 6
THRESH=10
GUI = 2
$end



$solvent
dielectric 4.90
$end
--------------------------------------------------------------
 ----------------------------------------------------------------
             Standard Nuclear Orientation (Angstroms)
    I     Atom           X                Y                Z
 ----------------------------------------------------------------
    1      C      -0.3423110000    -0.4866090000     0.0016090000
    2      C       0.0772890000     0.2463910000     1.1146090000
    3      C       0.7687890000     1.4533910000     0.8222090000
    4      H      -0.1156110000    -0.0904090000     2.1445090000
    5      C       0.8922890000     1.6685910000    -0.5619910000
    6      S       0.1397890000     0.3557910000    -1.4630910000
    7      C       1.2979890000     2.3770910000     1.8840090000
    8      H       1.0751890000     1.9884910000     2.8966090000
    9      H       0.8496890000     3.3899910000     1.8097090000
   10      H       2.3983890000     2.5026910000     1.8098090000
   11      C      -0.3423110000    -1.9367090000     0.0016090000
   12      H       0.7212890000    -1.9372090000    -0.1859910000
   13      H      -0.1796110000    -2.4718090000     0.9255090000
   14      H      -0.4873110000    -2.6239090000    -0.8188910000
   15      H       1.3683890000     2.4998910000    -1.0954910000
 ----------------------------------------------------------------
 Nuclear Repulsion Energy =         346.20525383 hartrees
 There are       30 alpha and       30 beta electrons
 Requested basis set is cc-pVTZ
 There are 120 shells and 326 basis functions

 Total QAlloc Memory Limit 110000 MB
 Mega-Array Size       188 MB
 MEM_STATIC part       192 MB
 Discretize the solute cavity surface with Lebedev spheres
	Using 110 Lebedev grid points for each H atom
	Using 194 Lebedev grid points for other atoms
	Atomic van der Waals radii will be scaled by 1.20
 Remove points where switching function is < 1.0e-08
 Keep 1050 surface tesserae and discard 1188 interior tesserae
 Molecular Surface Area = 158.086 Angst**2

                       Distance Matrix (Angstroms)
             C (  1)   C (  2)   C (  3)   H (  4)   C (  5)   S (  6)
   C (  2)  1.397184
   C (  3)  2.381497  1.421450
   H (  4)  2.190979  1.100608  2.216745
   C (  5)  2.546914  2.344753  1.406262  3.381580
   S (  6)  1.757101  2.580777  2.612080  3.644050  1.761159
   C (  7)  3.799315  2.573318  1.503560  2.855640  2.578659  4.078009
   H (  8)  4.064044  2.684444  2.164105  2.511072  3.478175  4.748438
   H (  9)  4.440509  3.310889  2.175344  3.627269  2.930869  4.519021
   H ( 10)  4.440376  3.310846  2.175312  3.627174  2.930784  4.519107
   C ( 11)  1.450100  2.486113  3.660697  2.837646  3.852281  2.762847
   H ( 12)  1.808502  2.621909  3.537639  3.089062  3.629382  2.688303
   H ( 13)  2.195696  2.736854  4.039471  2.676027  4.528194  3.715205
   H ( 14)  2.293970  3.506539  4.571146  3.916443  4.516066  3.112372
   H ( 15)  3.612382  3.410241  2.265448  4.405623  1.096519  2.498350
             C (  7)   H (  8)   H (  9)   H ( 10)   C ( 11)   H ( 12)
   H (  8)  1.107253
   H (  9)  1.110162  1.787849
   H ( 10)  1.110028  1.787846  1.784873
   C ( 11)  4.984264  5.079127  5.750115  5.521711
   H ( 12)  4.819820  5.003877  5.690199  5.148650  1.080018
   H ( 13)  5.158862  5.035279  6.016807  5.672188  1.079997  1.527367
   H ( 14)  5.958436  6.125404  6.698067  6.443551  1.080041  1.527362
   H ( 15)  2.982860  4.035388  3.082453  3.082479  4.879912  4.575345
             H ( 13)   H ( 14)
   H ( 14)  1.777848
   H ( 15)  5.585566  5.456506
 
 Requested basis set is rimp2-cc-pVTZ
 There are 250 shells and 848 basis functions
 A cutoff of  1.0D-10 yielded   6244 shell pairs
 There are     45830 function pairs (     58941 Cartesian)
 Smallest overlap matrix eigenvalue = 1.20E-04

 Scale SEOQF with 1.000000e-01/1.000000e-01/1.000000e-01

 Standard Electronic Orientation quadrupole field applied
 Nucleus-field energy     =     0.0000000009 hartrees
 Guess from superposition of atomic densities
 Warning:  Energy on first SCF cycle will be non-variational
 SAD guess density has 60.000000 electrons

 -----------------------------------------------------------------------
  General SCF calculation program by
  Eric Jon Sundstrom, Paul Horn, Yuezhi Mao, Dmitri Zuev, Alec White,
  David Stuck, Shaama M.S., Shane Yost, Joonho Lee, David Small,
  Daniel Levine, Susi Lehtola, Hugh Burton, Evgeny Epifanovsky,
  Bang C. Huynh
 -----------------------------------------------------------------------
 Hartree-Fock
 using 64 threads for integral computing
 -------------------------------------------------------
 OpenMP Integral computing Module                
 Release: version 1.0, May 2013, Q-Chem Inc. Pittsburgh 
 -------------------------------------------------------
 A restricted SCF calculation will be
 performed using DIIS
 SCF converges when DIIS error is below 1.0e-06
 ---------------------------------------
  Cycle       Energy         DIIS error
 ---------------------------------------
    1    -632.1092882188      2.92e-02  
    2    -629.3308928335      1.94e-03  
    3    -629.4013126961      6.93e-04  
    4    -629.4089058818      3.56e-04  
    5    -629.4111129785      6.29e-05  
    6    -629.4112468446      2.63e-05  
    7    -629.4112801854      1.16e-05  
    8    -629.4112897378      5.23e-06  
    9    -629.4112913615      1.75e-06  
   10    -629.4112915702      6.54e-07  Convergence criterion met
 ---------------------------------------
 SCF time:   CPU 682.80s  wall 14.00s 

************** Final PCM Free Energy Summary **************
 G_electrostatic  =      -0.00546385 hartree =      -3.42861478 kcal/mol
 G_cavitation     =       0.00000000 hartree =       0.00000000 kcal/mol
 G_dispersion     =       0.00000000 hartree =       0.00000000 kcal/mol
 G_repulsion      =       0.00000000 hartree =       0.00000000 kcal/mol
 --------------------------------------------------
 Non-electrostatic Free Energy =       0.00000000 hartree =       0.00000000 kcal/mol
 Total                         =      -0.00546385 hartree =      -3.42861478 kcal/mol
 --------------------------------------------------
 SCF Energy (H0 + V/2)                       =    -629.41129157 
 Solute Internal Energy (H0)                 =    -629.40582772 
 Total Free Energy (H0 + V/2 + non-elec)     =    -629.41129157 hartree
                                             = -394961.54661464 kcal/mol
***********************************************************

 SCF   energy in the final basis set =     -629.4112915702
 Total energy in the final basis set =     -629.4112915702


 --------------------------------------------------------------
  Generalized many-body perturbation theory program
  by Joonho Lee, Fazle Rob, Xintian Feng, Evgeny Epifanovsky

 No regularization used 
 (reg. param. = 0.0000e+00)
  (P|Q)^-1/2 Time:  CPU 6.89 s  wall 0.11 s

 In RI-MP2 calculation: 
 # of frozen core orbitals: 11

 Components of the RIMP2 correlation energy:
        aaaa    correlation energy =        -0.1456035440 a.u.
        abab    correlation energy =        -0.8873830503 a.u.
        bbbb    correlation energy =        -0.1456035440 a.u.
        non-Brillouin singles      =        -0.0000000000 a.u.
        total same-spin energy     =        -0.2912070880 a.u.
        total opposite-spin energy =        -0.8873830503 a.u.

 Total  RIMP2   correlation energy =        -1.1785901383 a.u.
        RIMP2         total energy =      -630.5898817085 a.u.

 RI-MP2 Energy Time:  CPU 34.65 s  wall 0.58 s
 
 --------------------------------------------------------------
 
                    Orbital Energies (a.u.)
 --------------------------------------------------------------
 
 Alpha MOs
 -- Occupied --
-91.9763 -11.2813 -11.2550 -11.2481 -11.2273 -11.2270 -11.2219  -8.9766
 -6.6576  -6.6570  -6.6564  -1.1639  -1.0554  -0.9963  -0.9404  -0.8828
 -0.7456  -0.7203  -0.6455  -0.5881  -0.5802  -0.5667  -0.5512  -0.5459
 -0.5070  -0.4960  -0.4625  -0.4548  -0.3392  -0.2894
 -- Virtual --
  0.0977   0.1449   0.1535   0.1758   0.1864   0.1950   0.2113   0.2162
  0.2214   0.2453   0.2502   0.2585   0.2967   0.3278   0.3429   0.3484
  0.3785   0.3953   0.4018   0.4232   0.4373   0.4604   0.4654   0.4756
  0.4898   0.4938   0.5211   0.5289   0.5412   0.5583   0.5649   0.5861
  0.5909   0.6057   0.6074   0.6217   0.6314   0.6395   0.6435   0.6478
  0.6576   0.6739   0.6743   0.6929   0.7174   0.7495   0.7644   0.7856
  0.8053   0.8162   0.8392   0.8459   0.8606   0.8818   0.8936   0.9235
  0.9517   0.9696   1.0078   1.0255   1.0345   1.0551   1.0704   1.0763
  1.0807   1.1076   1.1159   1.1425   1.1534   1.1699   1.1832   1.2019
  1.2332   1.2470   1.2494   1.2603   1.2694   1.3055   1.3134   1.3333
  1.3555   1.3823   1.3887   1.4124   1.4313   1.4347   1.4540   1.4663
  1.4808   1.5036   1.5095   1.5212   1.5381   1.5509   1.5554   1.5800
  1.5842   1.6246   1.6432   1.6687   1.6906   1.7000   1.7228   1.7547
  1.7651   1.7809   1.8032   1.8235   1.9004   1.9280   1.9415   1.9756
  2.0096   2.0337   2.1045   2.1237   2.1741   2.1848   2.2257   2.2451
  2.2738   2.2883   2.3427   2.4084   2.4298   2.4784   2.4928   2.5461
  2.5635   2.5928   2.6047   2.6495   2.6759   2.6922   2.7047   2.7440
  2.7485   2.7722   2.7805   2.7916   2.8300   2.8478   2.8712   2.8946
  2.9056   2.9520   2.9662   2.9961   3.0166   3.0390   3.0432   3.0939
  3.1005   3.1125   3.1144   3.1304   3.1398   3.1550   3.1766   3.1799
  3.1904   3.2428   3.2500   3.2739   3.2853   3.2951   3.3087   3.3233
  3.3365   3.3577   3.3774   3.3903   3.4057   3.4087   3.4216   3.4390
  3.4500   3.4778   3.4936   3.5041   3.5154   3.5228   3.5468   3.5550
  3.5712   3.5874   3.6127   3.6232   3.6290   3.6351   3.6602   3.6852
  3.6911   3.7065   3.7219   3.7395   3.7490   3.7601   3.7919   3.8029
  3.8138   3.8400   3.8656   3.8768   3.8929   3.9110   3.9260   3.9545
  3.9968   4.0074   4.0261   4.0394   4.0441   4.0751   4.0958   4.1167
  4.1173   4.1569   4.1688   4.1977   4.2237   4.2284   4.2405   4.2730
  4.2924   4.3008   4.3187   4.3314   4.3487   4.3897   4.3997   4.4032
  4.4051   4.4315   4.4553   4.4618   4.4895   4.5128   4.5438   4.5683
  4.5903   4.6184   4.6478   4.6841   4.7170   4.7397   4.7532   4.7725
  4.8079   4.8213   4.8593   4.8728   4.8933   4.9233   5.0784   5.0947
  5.1073   5.1278   5.1463   5.1931   5.2130   5.2592   5.2887   5.3374
  5.3666   5.4015   5.4190   5.4436   5.4606   5.5109   5.5463   5.5647
  5.5937   5.5969   5.6217   5.6655   5.6957   5.8080   5.8268   5.8479
  5.9347   5.9619   6.0356   6.1737   6.2287   6.2466   6.2889   6.3671
  6.4314   6.4894   9.1797  11.4294  12.8708  13.6668  14.1754  14.4274
 --------------------------------------------------------------
 
          Ground-State Mulliken Net Atomic Charges

     Atom                 Charge (a.u.)
  ----------------------------------------
      1 C                     0.046435
      2 C                    -0.310612
      3 C                     0.058489
      4 H                     0.175798
      5 C                    -0.270309
      6 S                    -0.002716
      7 C                    -0.269982
      8 H                     0.101765
      9 H                     0.107788
     10 H                     0.106772
     11 C                    -0.370043
     12 H                     0.145825
     13 H                     0.136723
     14 H                     0.150860
     15 H                     0.193207
  ----------------------------------------
  Sum of atomic charges =     0.000000

 -----------------------------------------------------------------
                    Cartesian Multipole Moments
 -----------------------------------------------------------------
    Charge (ESU x 10^10)
                -0.0000
    Dipole Moment (Debye)
         X       1.3486      Y      -0.5744      Z       1.4003
       Tot       2.0272
    Quadrupole Moments (Debye-Ang)
        XX     -52.8292     XY       2.6131     YY     -44.1826
        XZ       0.3101     YZ       0.6107     ZZ     -48.5272
    Octopole Moments (Debye-Ang^2)
       XXX     -52.6546    XXY     -20.6181    XYY      -7.9773
       YYY     -72.0652    XXZ      -3.3694    XYZ      -1.6546
       YYZ      -5.3202    XZZ     -15.5701    YZZ     -22.0749
       ZZZ      -0.4019
    Hexadecapole Moments (Debye-Ang^3)
      XXXX    -214.6093   XXXY    -133.6569   XXYY    -150.9433
      XYYY    -123.6759   YYYY    -674.1007   XXXZ     -47.4037
      XXYZ     -29.5261   XYYZ     -18.7554   YYYZ     -86.9049
      XXZZ    -121.3260   XYZZ     -36.4262   YYZZ    -189.4703
      XZZZ     -51.2724   YZZZ     -89.5867   ZZZZ    -491.5453
 -----------------------------------------------------------------
 Total job time:  16.19s(wall), 758.87s(cpu) 
 Fri Dec 15 14:06:23 2023

        *************************************************************
        *                                                           *
        *  Thank you very much for using Q-Chem.  Have a nice day.  *
        *                                                           *
        *************************************************************


0 sent ACK to 0 
now end server 0 ... 
cleanup process ... done
remove work dirs ./qchem649915.0 -- ./qchem649915.0
rm -rf ./qchem649915.0
rm -rf ./qchem649915
