You are running Q-Chem version: 5.4.0

#
# job setting
#
local host:  exp-7-21
current dir: /home/rramji/project-csd799/aromodel/p3ht-qchem/methylated-rotation-run
input file:  Methylthiophene_Phi_15_Theta_100_Methylthiophene_Hydrogenated_Improper.qcin
output file: 
nprocs     : 1
nthreads   : 64
#
# qchem installation setting
#
QC:          /cm/shared/apps/spack/cpu/opt/spack/linux-centos8-zen2/gcc-10.2.0/qchem-5.4-akfmr7b3t57bfs6qan3padb2wnb2i7cl
QCAUX:       /cm/shared/apps/spack/cpu/opt/spack/linux-centos8-zen2/gcc-10.2.0/qchem-5.4-akfmr7b3t57bfs6qan3padb2wnb2i7cl/qcaux
QCPROG:      /cm/shared/apps/spack/cpu/opt/spack/linux-centos8-zen2/gcc-10.2.0/qchem-5.4-akfmr7b3t57bfs6qan3padb2wnb2i7cl/exe/qcprog.exe
QCPROG_S:    /cm/shared/apps/spack/cpu/opt/spack/linux-centos8-zen2/gcc-10.2.0/qchem-5.4-akfmr7b3t57bfs6qan3padb2wnb2i7cl/exe/qcprog.exe_s
PARALLEL:    -DPARALLEL
QCMPI:       mpich
#
# qchem directory setting
#
qcrun:       qchem17840
QCSCRATCH:   .
QCLOCALSCR:  
QCTMPDIR:    .
QCFILEPREF:  ./qchem17840
QCSAVEDIR:   
workdirs:    ./qchem17840
workdir0:    ./qchem17840
partmpdirs =  
#
# parallel setting
#
QCRSH:           ssh
QCMPI:           mpich
QCMPIRUN:        /cm/shared/apps/spack/cpu/opt/spack/linux-centos8-zen2/gcc-10.2.0/qchem-5.4-akfmr7b3t57bfs6qan3padb2wnb2i7cl/bin/mpi/mpirun_qchem
QCMACHINEFILE:   ./qchem17840/hostfile
exp-7-21

#
# env setting
#
exported envs:   QC QCAUX QCSCRATCH QCRUNNAME QCFILEPREF QCPROG QCPROG_S GUIFILE

Running Job 1 of 1 Methylthiophene_Phi_15_Theta_100_Methylthiophene_Hydrogenated_Improper.qcin
qchem Methylthiophene_Phi_15_Theta_100_Methylthiophene_Hydrogenated_Improper.qcin_17840.0 ./qchem17840/ 1
/cm/shared/apps/spack/cpu/opt/spack/linux-centos8-zen2/gcc-10.2.0/qchem-5.4-akfmr7b3t57bfs6qan3padb2wnb2i7cl/bin/mpi/mpirun_qchem -machinefile ./qchem17840/hostfile -np 1 /cm/shared/apps/spack/cpu/opt/spack/linux-centos8-zen2/gcc-10.2.0/qchem-5.4-akfmr7b3t57bfs6qan3padb2wnb2i7cl/exe/qcprog.exe Methylthiophene_Phi_15_Theta_100_Methylthiophene_Hydrogenated_Improper.qcin_17840.0 ./qchem17840/

Process 0 of 1 is on exp-7-21 - thread support 0
initial socket setup ...start
initial socket setup ...done 
now start server 0 ... 
                  Welcome to Q-Chem
     A Quantum Leap Into The Future Of Chemistry


 Q-Chem 5.4, Q-Chem, Inc., Pleasanton, CA (2021)

 License issued to: University of California, San Diego (site)

 E. Epifanovsky,  A. T. B. Gilbert,  Xintian Feng,  Joonho Lee,  Yuezhi Mao,  
 N. Mardirossian,  P. Pokhilko,  A. White,  M. Wormit,  M. P. Coons,  
 A. L. Dempwolff,  Zhengting Gan,  D. Hait,  P. R. Horn,  L. D. Jacobson,  
 I. Kaliman,  J. Kussmann,  A. W. Lange,  Ka Un Lao,  D. S. Levine,  Jie Liu,  
 S. C. McKenzie,  A. F. Morrison,  K. Nanda,  F. Plasser,  D. R. Rehn,  
 M. L. Vidal,  Zhi-Qiang You,  Ying Zhu,  B. Alam,  B. Albrecht,  
 A. Aldossary,  E. Alguire,  J. H. Andersen,  D. Barton,  K. Begam,  A. Behn,  
 Y. A. Bernard,  E. J. Berquist,  H. Burton,  A. Carreras,  K. Carter-Fenk,  
 R. Chakraborty,  A. D. Chien,  K. D. Closser,  V. Cofer-Shabica,  
 S. Dasgupta,  Jia Deng,  M. de Wergifosse,  M. Diedenhofen,  Hainam Do,  
 S. Ehlert,  Po-Tung Fang,  S. Fatehi,  Qingguo Feng,  J. Gayvert,  
 Qinghui Ge,  G. Gidofalvi,  M. Goldey,  J. Gomes,  C. Gonzalez-Espinoza,  
 S. Gulania,  A. Gunina,  M. W. D. Hanson-Heine,  P. H. P. Harbach,  
 A. W. Hauser,  M. F. Herbst,  M. Hernandez Vera,  M. Hodecker,  
 Z. C. Holden,  S. Houck,  Xunkun Huang,  Kerwin Hui,  B. C. Huynh,  
 M. Ivanov,  Hyunjun Ji,  Hanjie Jiang,  B. Kaduk,  S. Kaehler,  
 K. Khistyaev,  Jaehoon Kim,  P. Klunzinger,  Z. Koczor-Benda,  
 Joong Hoon Koh,  D. Kosenkov,  L. Koulias,  T. Kowalczyk,  C. M. Krauter,  
 K. Kue,  A. Kunitsa,  T. Kus,  A. Landau,  K. V. Lawler,  D. Lefrancois,  
 S. Lehtola,  Rain Li,  Yi-Pei Li,  Jiashu Liang,  M. Liebenthal,  
 Hung-Hsuan Lin,  You-Sheng Lin,  Fenglai Liu,  Kuan-Yu Liu,  
 M. Loipersberger,  A. Luenser,  A. Manjanath,  P. Manohar,  E. Mansoor,  
 S. F. Manzer,  Shan-Ping Mao,  A. V. Marenich,  T. Markovich,  S. Mason,  
 S. A. Maurer,  P. F. McLaughlin,  M. F. S. J. Menger,  J.-M. Mewes,  
 S. A. Mewes,  P. Morgante,  J. W. Mullinax,  T. S. Nguyen-Beck,  
 K. J. Oosterbaan,  G. Paran,  Alexander C. Paul,  Suranjan K. Paul,  
 F. Pavosevic,  Zheng Pei,  S. Prager,  E. I. Proynov,  E. Ramos,  B. Rana,  
 A. E. Rask,  A. Rettig,  R. M. Richard,  F. Rob,  E. Rossomme,  T. Scheele,  
 M. Scheurer,  M. Schneider,  N. Sergueev,  S. M. Sharada,  W. Skomorowski,  
 D. W. Small,  C. J. Stein,  Yu-Chuan Su,  E. J. Sundstrom,  Zhen Tao,  
 J. Thirman,  T. Tsuchimochi,  N. M. Tubman,  S. P. Veccham,  O. Vydrov,  
 J. Wenzel,  J. Witte,  A. Yamada,  Kun Yao,  S. Yeganeh,  S. R. Yost,  
 A. Zech,  Igor Ying Zhang,  Xing Zhang,  Yu Zhang,  D. Zuev,  
 A. Aspuru-Guzik,  A. T. Bell,  N. A. Besley,  K. B. Bravaya,  B. R. Brooks,  
 D. Casanova,  Jeng-Da Chai,  S. Coriani,  C. J. Cramer,  
 A. E. DePrince, III,  R. A. DiStasio Jr.,  A. Dreuw,  B. D. Dunietz,  
 T. R. Furlani,  W. A. Goddard III,  S. Grimme,  S. Hammes-Schiffer,  
 T. Head-Gordon,  W. J. Hehre,  Chao-Ping Hsu,  T.-C. Jagau,  Yousung Jung,  
 A. Klamt,  Jing Kong,  D. S. Lambrecht,  WanZhen Liang,  N. J. Mayhall,  
 C. W. McCurdy,  J. B. Neaton,  C. Ochsenfeld,  J. A. Parkhill,  R. Peverati,  
 V. A. Rassolov,  Yihan Shao,  L. V. Slipchenko,  T. Stauch,  R. P. Steele,  
 J. E. Subotnik,  A. J. W. Thom,  A. Tkatchenko,  D. G. Truhlar,  
 T. Van Voorhis,  T. A. Wesolowski,  K. B. Whaley,  H. L. Woodcock III,  
 P. M. Zimmerman,  S. Faraji,  P. M. W. Gill,  M. Head-Gordon,  
 J. M. Herbert,  A. I. Krylov

 Contributors to earlier versions of Q-Chem not listed above: 
 R. D. Adamson,  B. Austin,  R. Baer,  J. Baker,  G. J. O. Beran,  
 K. Brandhorst,  S. T. Brown,  E. F. C. Byrd,  A. K. Chakraborty,  
 G. K. L. Chan,  Chun-Min Chang,  Yunqing Chen,  C.-L. Cheng,  
 Siu Hung Chien,  D. M. Chipman,  D. L. Crittenden,  H. Dachsel,  
 R. J. Doerksen,  A. D. Dutoi,  R. G. Edgar,  J. Fosso-Tande,  
 L. Fusti-Molnar,  D. Ghosh,  A. Ghysels,  A. Golubeva-Zadorozhnaya,  
 J. Gonthier,  M. S. Gordon,  S. R. Gwaltney,  G. Hawkins,  J. E. Herr,  
 A. Heyden,  S. Hirata,  E. G. Hohenstein,  G. Kedziora,  F. J. Keil,  
 C. Kelley,  Jihan Kim,  R. A. King,  R. Z. Khaliullin,  P. P. Korambath,  
 W. Kurlancheek,  A. Laurent,  A. M. Lee,  M. S. Lee,  S. V. Levchenko,  
 Ching Yeh Lin,  D. Liotard,  E. Livshits,  R. C. Lochan,  I. Lotan,  
 L. A. Martinez-Martinez,  P. E. Maslen,  N. Nair,  D. P. O'Neill,  
 D. Neuhauser,  E. Neuscamman,  C. M. Oana,  R. Olivares-Amaya,  R. Olson,  
 T. M. Perrine,  B. Peters,  P. A. Pieniazek,  A. Prociuk,  Y. M. Rhee,  
 J. Ritchie,  M. A. Rohrdanz,  E. Rosta,  N. J. Russ,  H. F. Schaefer III,  
 M. W. Schmidt,  N. E. Schultz,  S. Sharma,  N. Shenvi,  C. D. Sherrill,  
 A. C. Simmonett,  A. Sodt,  T. Stein,  D. Stuck,  K. S. Thanthiriwatte,  
 V. Vanovschi,  L. Vogt,  Tao Wang,  A. Warshel,  M. A. Watson,  
 C. F. Williams,  Q. Wu,  X. Xu,  Jun Yang,  W. Zhang,  Yan Zhao

 Please cite Q-Chem as follows:
 Y. Shao et al., Mol. Phys. 113, 184-215 (2015)
 DOI: 10.1080/00268976.2014.952696

 Q-Chem 5.4.0 for Intel X86 EM64T Linux

 Parts of Q-Chem use Armadillo 9.800.1 (Horizon Scraper).
 http://arma.sourceforge.net/

 Q-Chem begins on Fri Dec 15 13:57:48 2023  

 Host: 
0

     Scratch files written to ./qchem17840//
 May1621 |scratch|qcdevops|jenkins|workspace|build_RNUM    
 Parallel job on  1  processors
 Processing $rem in /cm/shared/apps/spack/cpu/opt/spack/linux-centos8-zen2/gcc-10.2.0/qchem-5.4-akfmr7b3t57bfs6qan3padb2wnb2i7cl/config/preferences:
 Processing $rem in /home/rramji/.qchemrc:
 Symmetry turned off for PCM/SM12/SMD calculation
 Core orbitals will be frozen

 Checking the input file for inconsistencies... 	...done.

 Q-Chem warning in module forms1/BasisType.C, line 2236:

 You are not using the predefined 5D/6D in this basis set.


--------------------------------------------------------------
User input:
--------------------------------------------------------------
$molecule
0 1
C	-0.172125	-0.553870	-0.003463
C	0.043475	0.262730	1.109537
C	0.398975	1.607530	0.817137
H	-0.055625	-0.112470	2.139437
C	0.462575	1.847430	-0.567063
S	0.075475	0.384630	-1.468163
C	0.671075	2.636830	1.878937
H	0.556475	2.203730	2.891537
H	-0.024025	3.499130	1.804637
H	1.701575	3.042930	1.804737
C	-0.172125	-2.003970	-0.003463
H	-0.359625	-2.004470	1.060137
H	-1.096025	-2.539070	-0.166563
H	0.648475	-2.691170	0.140937
H	0.707375	2.773630	-1.100563
$end

$rem
JOBTYPE		SP
EXCHANGE	HF
CORRELATION	pRIMP2
BASIS		cc-pvtz
METHOD		rimp2
AUX_BASIS	rimp2-cc-pvtz
SOLVENT_METHOD	PCM
PURECART	11111
SYMMETRY	false
MEM_TOTAL	110000
SCF_CONVERGENCE = 6
THRESH=10
GUI = 2
$end



$solvent
dielectric 4.90
$end
--------------------------------------------------------------
 ----------------------------------------------------------------
             Standard Nuclear Orientation (Angstroms)
    I     Atom           X                Y                Z
 ----------------------------------------------------------------
    1      C      -0.1721250000    -0.5538700000    -0.0034630000
    2      C       0.0434750000     0.2627300000     1.1095370000
    3      C       0.3989750000     1.6075300000     0.8171370000
    4      H      -0.0556250000    -0.1124700000     2.1394370000
    5      C       0.4625750000     1.8474300000    -0.5670630000
    6      S       0.0754750000     0.3846300000    -1.4681630000
    7      C       0.6710750000     2.6368300000     1.8789370000
    8      H       0.5564750000     2.2037300000     2.8915370000
    9      H      -0.0240250000     3.4991300000     1.8046370000
   10      H       1.7015750000     3.0429300000     1.8047370000
   11      C      -0.1721250000    -2.0039700000    -0.0034630000
   12      H      -0.3596250000    -2.0044700000     1.0601370000
   13      H      -1.0960250000    -2.5390700000    -0.1665630000
   14      H       0.6484750000    -2.6911700000     0.1409370000
   15      H       0.7073750000     2.7736300000    -1.1005630000
 ----------------------------------------------------------------
 Nuclear Repulsion Energy =         344.32331371 hartrees
 There are       30 alpha and       30 beta electrons
 Requested basis set is cc-pVTZ
 There are 120 shells and 326 basis functions

 Total QAlloc Memory Limit 110000 MB
 Mega-Array Size       188 MB
 MEM_STATIC part       192 MB
 Discretize the solute cavity surface with Lebedev spheres
	Using 110 Lebedev grid points for each H atom
	Using 194 Lebedev grid points for other atoms
	Atomic van der Waals radii will be scaled by 1.20
 Remove points where switching function is < 1.0e-08
 Keep 1053 surface tesserae and discard 1185 interior tesserae
 Molecular Surface Area = 158.255 Angst**2

                       Distance Matrix (Angstroms)
             C (  1)   C (  2)   C (  3)   H (  4)   C (  5)   S (  6)
   C (  2)  1.397171
   C (  3)  2.381426  1.421395
   H (  4)  2.190988  1.100586  2.216650
   C (  5)  2.546906  2.344761  1.406274  3.381550
   S (  6)  1.757110  2.580779  2.612036  3.644046  1.761139
   C (  7)  3.799340  2.573365  1.503634  2.855627  2.578670  4.078017
   H (  8)  4.064018  2.684432  2.164116  2.510996  3.478172  4.748418
   H (  9)  4.440492  3.310892  2.175370  3.627223  2.930845  4.518986
   H ( 10)  4.440418  3.310908  2.175430  3.627165  2.930832  4.519141
   C ( 11)  1.450100  2.534400  3.747329  2.860658  3.943827  2.812839
   H ( 12)  1.808492  2.303286  3.698793  2.199311  4.261564  3.505626
   H ( 13)  2.195726  3.282830  4.516302  3.505489  4.672367  3.408019
   H ( 14)  2.293968  3.166976  4.358706  3.337582  4.597251  3.518249
   H ( 15)  3.612396  3.410267  2.265496  4.405604  1.096538  2.498349
             C (  7)   H (  8)   H (  9)   H ( 10)   C ( 11)   H ( 12)
   H (  8)  1.107279
   H (  9)  1.110066  1.787846
   H ( 10)  1.110114  1.787916  1.784885
   C ( 11)  5.078527  5.159130  5.794417  5.679044
   H ( 12)  4.824359  4.679980  5.563858  5.502656  1.080001
   H ( 13)  5.839234  5.880211  6.441636  6.547619  1.080058  1.527375
   H ( 14)  5.604350  5.615542  6.445151  6.062768  1.080037  1.527335
   H ( 15)  2.982860  4.035396  3.082448  3.082487  4.980222  5.351388
             H ( 13)   H ( 14)
   H ( 14)  1.777912
   H ( 15)  5.687652  5.604358
 
 Requested basis set is rimp2-cc-pVTZ
 There are 250 shells and 848 basis functions
 A cutoff of  1.0D-10 yielded   6205 shell pairs
 There are     45465 function pairs (     58463 Cartesian)
 Smallest overlap matrix eigenvalue = 1.10E-04

 Scale SEOQF with 1.000000e-01/1.000000e-01/1.000000e-01

 Standard Electronic Orientation quadrupole field applied
 Nucleus-field energy     =     0.0000000020 hartrees
 Guess from superposition of atomic densities
 Warning:  Energy on first SCF cycle will be non-variational
 SAD guess density has 60.000000 electrons

 -----------------------------------------------------------------------
  General SCF calculation program by
  Eric Jon Sundstrom, Paul Horn, Yuezhi Mao, Dmitri Zuev, Alec White,
  David Stuck, Shaama M.S., Shane Yost, Joonho Lee, David Small,
  Daniel Levine, Susi Lehtola, Hugh Burton, Evgeny Epifanovsky,
  Bang C. Huynh
 -----------------------------------------------------------------------
 Hartree-Fock
 using 64 threads for integral computing
 -------------------------------------------------------
 OpenMP Integral computing Module                
 Release: version 1.0, May 2013, Q-Chem Inc. Pittsburgh 
 -------------------------------------------------------
 A restricted SCF calculation will be
 performed using DIIS
 SCF converges when DIIS error is below 1.0e-06
 ---------------------------------------
  Cycle       Energy         DIIS error
 ---------------------------------------
    1    -632.0953338676      2.91e-02  
    2    -629.3434379736      1.90e-03  
    3    -629.4128713783      6.32e-04  
    4    -629.4198126483      3.21e-04  
    5    -629.4216025316      6.16e-05  
    6    -629.4217294005      2.44e-05  
    7    -629.4217607670      1.14e-05  
    8    -629.4217699752      4.72e-06  
    9    -629.4217714152      1.74e-06  
   10    -629.4217715751      4.87e-07  Convergence criterion met
 ---------------------------------------
 SCF time:   CPU 684.01s  wall 14.00s 

************** Final PCM Free Energy Summary **************
 G_electrostatic  =      -0.00543968 hartree =      -3.41344847 kcal/mol
 G_cavitation     =       0.00000000 hartree =       0.00000000 kcal/mol
 G_dispersion     =       0.00000000 hartree =       0.00000000 kcal/mol
 G_repulsion      =       0.00000000 hartree =       0.00000000 kcal/mol
 --------------------------------------------------
 Non-electrostatic Free Energy =       0.00000000 hartree =       0.00000000 kcal/mol
 Total                         =      -0.00543968 hartree =      -3.41344847 kcal/mol
 --------------------------------------------------
 SCF Energy (H0 + V/2)                       =    -629.42177158 
 Solute Internal Energy (H0)                 =    -629.41633190 
 Total Free Energy (H0 + V/2 + non-elec)     =    -629.42177158 hartree
                                             = -394968.12291700 kcal/mol
***********************************************************

 SCF   energy in the final basis set =     -629.4217715751
 Total energy in the final basis set =     -629.4217715751


 --------------------------------------------------------------
  Generalized many-body perturbation theory program
  by Joonho Lee, Fazle Rob, Xintian Feng, Evgeny Epifanovsky

 No regularization used 
 (reg. param. = 0.0000e+00)
  (P|Q)^-1/2 Time:  CPU 7.57 s  wall 0.13 s

 In RI-MP2 calculation: 
 # of frozen core orbitals: 11

 Components of the RIMP2 correlation energy:
        aaaa    correlation energy =        -0.1457225115 a.u.
        abab    correlation energy =        -0.8871736608 a.u.
        bbbb    correlation energy =        -0.1457225115 a.u.
        non-Brillouin singles      =        -0.0000000000 a.u.
        total same-spin energy     =        -0.2914450230 a.u.
        total opposite-spin energy =        -0.8871736608 a.u.

 Total  RIMP2   correlation energy =        -1.1786186838 a.u.
        RIMP2         total energy =      -630.6003902589 a.u.

 RI-MP2 Energy Time:  CPU 35.52 s  wall 0.59 s
 
 --------------------------------------------------------------
 
                    Orbital Energies (a.u.)
 --------------------------------------------------------------
 
 Alpha MOs
 -- Occupied --
-91.9751 -11.2755 -11.2596 -11.2474 -11.2352 -11.2277 -11.2165  -8.9752
 -6.6562  -6.6556  -6.6551  -1.1614  -1.0523  -0.9995  -0.9387  -0.8855
 -0.7426  -0.7243  -0.6476  -0.5897  -0.5783  -0.5670  -0.5584  -0.5411
 -0.5114  -0.4842  -0.4672  -0.4377  -0.3377  -0.3051
 -- Virtual --
  0.1005   0.1446   0.1511   0.1773   0.1841   0.1911   0.2024   0.2290
  0.2317   0.2430   0.2497   0.2704   0.3091   0.3115   0.3445   0.3575
  0.3788   0.3948   0.4116   0.4138   0.4416   0.4601   0.4702   0.4821
  0.4881   0.5025   0.5136   0.5242   0.5398   0.5463   0.5717   0.5933
  0.6002   0.6023   0.6191   0.6318   0.6389   0.6422   0.6456   0.6466
  0.6632   0.6664   0.6825   0.6899   0.7430   0.7522   0.7617   0.7729
  0.8048   0.8154   0.8429   0.8660   0.8715   0.8855   0.9029   0.9276
  0.9525   0.9730   1.0025   1.0137   1.0334   1.0419   1.0617   1.0749
  1.0792   1.0890   1.1185   1.1330   1.1619   1.1696   1.1849   1.2042
  1.2200   1.2327   1.2478   1.2634   1.2722   1.2818   1.3051   1.3291
  1.3450   1.3534   1.3869   1.4069   1.4286   1.4487   1.4630   1.4836
  1.4862   1.5177   1.5248   1.5349   1.5507   1.5623   1.5730   1.5889
  1.5972   1.6285   1.6619   1.6688   1.6859   1.7008   1.7209   1.7548
  1.7712   1.7758   1.7963   1.8150   1.8969   1.9126   1.9186   1.9652
  1.9907   2.0419   2.1018   2.1210   2.1788   2.1864   2.2074   2.2200
  2.2572   2.2905   2.3540   2.4207   2.4634   2.5032   2.5268   2.5633
  2.5786   2.5997   2.6359   2.6496   2.6558   2.6836   2.7186   2.7389
  2.7481   2.7567   2.7662   2.7933   2.8369   2.8433   2.8606   2.8726
  2.9008   2.9222   2.9421   2.9623   2.9986   3.0078   3.0382   3.0685
  3.0879   3.1119   3.1228   3.1346   3.1531   3.1552   3.1916   3.1977
  3.2098   3.2283   3.2603   3.2693   3.2953   3.3153   3.3229   3.3348
  3.3434   3.3551   3.3700   3.3834   3.3944   3.4039   3.4239   3.4329
  3.4498   3.4675   3.4762   3.4901   3.4986   3.5163   3.5368   3.5531
  3.5859   3.5989   3.6106   3.6143   3.6317   3.6665   3.6712   3.6803
  3.7018   3.7120   3.7232   3.7400   3.7604   3.7734   3.7865   3.7923
  3.8044   3.8484   3.8558   3.8847   3.8902   3.9094   3.9313   3.9442
  3.9631   3.9804   4.0030   4.0285   4.0443   4.0684   4.0856   4.1008
  4.1200   4.1429   4.1506   4.1608   4.1984   4.2165   4.2259   4.2387
  4.2728   4.2816   4.3062   4.3385   4.3428   4.3648   4.4009   4.4158
  4.4233   4.4341   4.4475   4.4587   4.4806   4.5228   4.5575   4.5737
  4.6098   4.6257   4.6398   4.6857   4.7206   4.7421   4.7850   4.7884
  4.8028   4.8190   4.8749   4.8928   4.9079   4.9223   5.0751   5.0953
  5.1039   5.1379   5.1903   5.2150   5.2485   5.2603   5.2964   5.3107
  5.3576   5.3984   5.4103   5.4496   5.4752   5.4899   5.5497   5.5758
  5.5959   5.6214   5.6327   5.6930   5.6988   5.8260   5.8421   5.8534
  5.9070   5.9975   6.0237   6.1398   6.2264   6.2474   6.2876   6.3406
  6.4414   6.4986   9.1781  11.3998  12.9176  13.8520  14.1853  14.3701
 --------------------------------------------------------------
 
          Ground-State Mulliken Net Atomic Charges

     Atom                 Charge (a.u.)
  ----------------------------------------
      1 C                     0.041159
      2 C                    -0.264867
      3 C                     0.034921
      4 H                     0.176794
      5 C                    -0.248872
      6 S                    -0.006284
      7 C                    -0.272298
      8 H                     0.101296
      9 H                     0.107068
     10 H                     0.107276
     11 C                    -0.359938
     12 H                     0.117413
     13 H                     0.130936
     14 H                     0.141387
     15 H                     0.194009
  ----------------------------------------
  Sum of atomic charges =     0.000000

 -----------------------------------------------------------------
                    Cartesian Multipole Moments
 -----------------------------------------------------------------
    Charge (ESU x 10^10)
                -0.0000
    Dipole Moment (Debye)
         X       0.2829      Y      -0.0002      Z       2.1698
       Tot       2.1882
    Quadrupole Moments (Debye-Ang)
        XX     -53.1286     XY       2.3707     YY     -42.7825
        XZ       0.0794     YZ      -1.0391     ZZ     -48.9448
    Octopole Moments (Debye-Ang^2)
       XXX     -27.7781    XXY     -30.0363    XYY      -3.8322
       YYY     -75.6902    XXZ      -3.0955    XYZ      -0.9644
       YYZ      -2.4628    XZZ      -7.6945    YZZ     -22.7596
       ZZZ      -0.9330
    Hexadecapole Moments (Debye-Ang^3)
      XXXX    -116.0569   XXXY     -78.8890   XXYY    -152.1329
      XYYY     -68.5352   YYYY    -774.7421   XXXZ     -23.1704
      XXYZ     -29.6561   XYYZ     -10.1810   YYYZ    -106.4600
      XXZZ    -107.9229   XYZZ     -21.9583   YYZZ    -212.6465
      XZZZ     -26.3218   YZZZ     -95.3155   ZZZZ    -490.1212
 -----------------------------------------------------------------
 Total job time:  15.92s(wall), 755.83s(cpu) 
 Fri Dec 15 13:58:04 2023

        *************************************************************
        *                                                           *
        *  Thank you very much for using Q-Chem.  Have a nice day.  *
        *                                                           *
        *************************************************************


0 sent ACK to 0 
now end server 0 ... 
cleanup process ... done
remove work dirs ./qchem17840.0 -- ./qchem17840.0
rm -rf ./qchem17840.0
rm -rf ./qchem17840
