You are running Q-Chem version: 5.4.0

#
# job setting
#
local host:  exp-7-21
current dir: /home/rramji/project-csd799/aromodel/p3ht-qchem/methylated-rotation-run
input file:  Methylthiophene_Phi_20_Theta_290_Methylthiophene_Hydrogenated_Improper.qcin
output file: 
nprocs     : 1
nthreads   : 64
#
# qchem installation setting
#
QC:          /cm/shared/apps/spack/cpu/opt/spack/linux-centos8-zen2/gcc-10.2.0/qchem-5.4-akfmr7b3t57bfs6qan3padb2wnb2i7cl
QCAUX:       /cm/shared/apps/spack/cpu/opt/spack/linux-centos8-zen2/gcc-10.2.0/qchem-5.4-akfmr7b3t57bfs6qan3padb2wnb2i7cl/qcaux
QCPROG:      /cm/shared/apps/spack/cpu/opt/spack/linux-centos8-zen2/gcc-10.2.0/qchem-5.4-akfmr7b3t57bfs6qan3padb2wnb2i7cl/exe/qcprog.exe
QCPROG_S:    /cm/shared/apps/spack/cpu/opt/spack/linux-centos8-zen2/gcc-10.2.0/qchem-5.4-akfmr7b3t57bfs6qan3padb2wnb2i7cl/exe/qcprog.exe_s
PARALLEL:    -DPARALLEL
QCMPI:       mpich
#
# qchem directory setting
#
qcrun:       qchem24812
QCSCRATCH:   .
QCLOCALSCR:  
QCTMPDIR:    .
QCFILEPREF:  ./qchem24812
QCSAVEDIR:   
workdirs:    ./qchem24812
workdir0:    ./qchem24812
partmpdirs =  
#
# parallel setting
#
QCRSH:           ssh
QCMPI:           mpich
QCMPIRUN:        /cm/shared/apps/spack/cpu/opt/spack/linux-centos8-zen2/gcc-10.2.0/qchem-5.4-akfmr7b3t57bfs6qan3padb2wnb2i7cl/bin/mpi/mpirun_qchem
QCMACHINEFILE:   ./qchem24812/hostfile
exp-7-21

#
# env setting
#
exported envs:   QC QCAUX QCSCRATCH QCRUNNAME QCFILEPREF QCPROG QCPROG_S GUIFILE

Running Job 1 of 1 Methylthiophene_Phi_20_Theta_290_Methylthiophene_Hydrogenated_Improper.qcin
qchem Methylthiophene_Phi_20_Theta_290_Methylthiophene_Hydrogenated_Improper.qcin_24812.0 ./qchem24812/ 1
/cm/shared/apps/spack/cpu/opt/spack/linux-centos8-zen2/gcc-10.2.0/qchem-5.4-akfmr7b3t57bfs6qan3padb2wnb2i7cl/bin/mpi/mpirun_qchem -machinefile ./qchem24812/hostfile -np 1 /cm/shared/apps/spack/cpu/opt/spack/linux-centos8-zen2/gcc-10.2.0/qchem-5.4-akfmr7b3t57bfs6qan3padb2wnb2i7cl/exe/qcprog.exe Methylthiophene_Phi_20_Theta_290_Methylthiophene_Hydrogenated_Improper.qcin_24812.0 ./qchem24812/

Process 0 of 1 is on exp-7-21 - thread support 0
initial socket setup ...start
initial socket setup ...done 
now start server 0 ... 
                  Welcome to Q-Chem
     A Quantum Leap Into The Future Of Chemistry


 Q-Chem 5.4, Q-Chem, Inc., Pleasanton, CA (2021)

 License issued to: University of California, San Diego (site)

 E. Epifanovsky,  A. T. B. Gilbert,  Xintian Feng,  Joonho Lee,  Yuezhi Mao,  
 N. Mardirossian,  P. Pokhilko,  A. White,  M. Wormit,  M. P. Coons,  
 A. L. Dempwolff,  Zhengting Gan,  D. Hait,  P. R. Horn,  L. D. Jacobson,  
 I. Kaliman,  J. Kussmann,  A. W. Lange,  Ka Un Lao,  D. S. Levine,  Jie Liu,  
 S. C. McKenzie,  A. F. Morrison,  K. Nanda,  F. Plasser,  D. R. Rehn,  
 M. L. Vidal,  Zhi-Qiang You,  Ying Zhu,  B. Alam,  B. Albrecht,  
 A. Aldossary,  E. Alguire,  J. H. Andersen,  D. Barton,  K. Begam,  A. Behn,  
 Y. A. Bernard,  E. J. Berquist,  H. Burton,  A. Carreras,  K. Carter-Fenk,  
 R. Chakraborty,  A. D. Chien,  K. D. Closser,  V. Cofer-Shabica,  
 S. Dasgupta,  Jia Deng,  M. de Wergifosse,  M. Diedenhofen,  Hainam Do,  
 S. Ehlert,  Po-Tung Fang,  S. Fatehi,  Qingguo Feng,  J. Gayvert,  
 Qinghui Ge,  G. Gidofalvi,  M. Goldey,  J. Gomes,  C. Gonzalez-Espinoza,  
 S. Gulania,  A. Gunina,  M. W. D. Hanson-Heine,  P. H. P. Harbach,  
 A. W. Hauser,  M. F. Herbst,  M. Hernandez Vera,  M. Hodecker,  
 Z. C. Holden,  S. Houck,  Xunkun Huang,  Kerwin Hui,  B. C. Huynh,  
 M. Ivanov,  Hyunjun Ji,  Hanjie Jiang,  B. Kaduk,  S. Kaehler,  
 K. Khistyaev,  Jaehoon Kim,  P. Klunzinger,  Z. Koczor-Benda,  
 Joong Hoon Koh,  D. Kosenkov,  L. Koulias,  T. Kowalczyk,  C. M. Krauter,  
 K. Kue,  A. Kunitsa,  T. Kus,  A. Landau,  K. V. Lawler,  D. Lefrancois,  
 S. Lehtola,  Rain Li,  Yi-Pei Li,  Jiashu Liang,  M. Liebenthal,  
 Hung-Hsuan Lin,  You-Sheng Lin,  Fenglai Liu,  Kuan-Yu Liu,  
 M. Loipersberger,  A. Luenser,  A. Manjanath,  P. Manohar,  E. Mansoor,  
 S. F. Manzer,  Shan-Ping Mao,  A. V. Marenich,  T. Markovich,  S. Mason,  
 S. A. Maurer,  P. F. McLaughlin,  M. F. S. J. Menger,  J.-M. Mewes,  
 S. A. Mewes,  P. Morgante,  J. W. Mullinax,  T. S. Nguyen-Beck,  
 K. J. Oosterbaan,  G. Paran,  Alexander C. Paul,  Suranjan K. Paul,  
 F. Pavosevic,  Zheng Pei,  S. Prager,  E. I. Proynov,  E. Ramos,  B. Rana,  
 A. E. Rask,  A. Rettig,  R. M. Richard,  F. Rob,  E. Rossomme,  T. Scheele,  
 M. Scheurer,  M. Schneider,  N. Sergueev,  S. M. Sharada,  W. Skomorowski,  
 D. W. Small,  C. J. Stein,  Yu-Chuan Su,  E. J. Sundstrom,  Zhen Tao,  
 J. Thirman,  T. Tsuchimochi,  N. M. Tubman,  S. P. Veccham,  O. Vydrov,  
 J. Wenzel,  J. Witte,  A. Yamada,  Kun Yao,  S. Yeganeh,  S. R. Yost,  
 A. Zech,  Igor Ying Zhang,  Xing Zhang,  Yu Zhang,  D. Zuev,  
 A. Aspuru-Guzik,  A. T. Bell,  N. A. Besley,  K. B. Bravaya,  B. R. Brooks,  
 D. Casanova,  Jeng-Da Chai,  S. Coriani,  C. J. Cramer,  
 A. E. DePrince, III,  R. A. DiStasio Jr.,  A. Dreuw,  B. D. Dunietz,  
 T. R. Furlani,  W. A. Goddard III,  S. Grimme,  S. Hammes-Schiffer,  
 T. Head-Gordon,  W. J. Hehre,  Chao-Ping Hsu,  T.-C. Jagau,  Yousung Jung,  
 A. Klamt,  Jing Kong,  D. S. Lambrecht,  WanZhen Liang,  N. J. Mayhall,  
 C. W. McCurdy,  J. B. Neaton,  C. Ochsenfeld,  J. A. Parkhill,  R. Peverati,  
 V. A. Rassolov,  Yihan Shao,  L. V. Slipchenko,  T. Stauch,  R. P. Steele,  
 J. E. Subotnik,  A. J. W. Thom,  A. Tkatchenko,  D. G. Truhlar,  
 T. Van Voorhis,  T. A. Wesolowski,  K. B. Whaley,  H. L. Woodcock III,  
 P. M. Zimmerman,  S. Faraji,  P. M. W. Gill,  M. Head-Gordon,  
 J. M. Herbert,  A. I. Krylov

 Contributors to earlier versions of Q-Chem not listed above: 
 R. D. Adamson,  B. Austin,  R. Baer,  J. Baker,  G. J. O. Beran,  
 K. Brandhorst,  S. T. Brown,  E. F. C. Byrd,  A. K. Chakraborty,  
 G. K. L. Chan,  Chun-Min Chang,  Yunqing Chen,  C.-L. Cheng,  
 Siu Hung Chien,  D. M. Chipman,  D. L. Crittenden,  H. Dachsel,  
 R. J. Doerksen,  A. D. Dutoi,  R. G. Edgar,  J. Fosso-Tande,  
 L. Fusti-Molnar,  D. Ghosh,  A. Ghysels,  A. Golubeva-Zadorozhnaya,  
 J. Gonthier,  M. S. Gordon,  S. R. Gwaltney,  G. Hawkins,  J. E. Herr,  
 A. Heyden,  S. Hirata,  E. G. Hohenstein,  G. Kedziora,  F. J. Keil,  
 C. Kelley,  Jihan Kim,  R. A. King,  R. Z. Khaliullin,  P. P. Korambath,  
 W. Kurlancheek,  A. Laurent,  A. M. Lee,  M. S. Lee,  S. V. Levchenko,  
 Ching Yeh Lin,  D. Liotard,  E. Livshits,  R. C. Lochan,  I. Lotan,  
 L. A. Martinez-Martinez,  P. E. Maslen,  N. Nair,  D. P. O'Neill,  
 D. Neuhauser,  E. Neuscamman,  C. M. Oana,  R. Olivares-Amaya,  R. Olson,  
 T. M. Perrine,  B. Peters,  P. A. Pieniazek,  A. Prociuk,  Y. M. Rhee,  
 J. Ritchie,  M. A. Rohrdanz,  E. Rosta,  N. J. Russ,  H. F. Schaefer III,  
 M. W. Schmidt,  N. E. Schultz,  S. Sharma,  N. Shenvi,  C. D. Sherrill,  
 A. C. Simmonett,  A. Sodt,  T. Stein,  D. Stuck,  K. S. Thanthiriwatte,  
 V. Vanovschi,  L. Vogt,  Tao Wang,  A. Warshel,  M. A. Watson,  
 C. F. Williams,  Q. Wu,  X. Xu,  Jun Yang,  W. Zhang,  Yan Zhao

 Please cite Q-Chem as follows:
 Y. Shao et al., Mol. Phys. 113, 184-215 (2015)
 DOI: 10.1080/00268976.2014.952696

 Q-Chem 5.4.0 for Intel X86 EM64T Linux

 Parts of Q-Chem use Armadillo 9.800.1 (Horizon Scraper).
 http://arma.sourceforge.net/

 Q-Chem begins on Fri Dec 15 14:04:43 2023  

 Host: 
0

     Scratch files written to ./qchem24812//
 May1621 |scratch|qcdevops|jenkins|workspace|build_RNUM    
 Parallel job on  1  processors
 Processing $rem in /cm/shared/apps/spack/cpu/opt/spack/linux-centos8-zen2/gcc-10.2.0/qchem-5.4-akfmr7b3t57bfs6qan3padb2wnb2i7cl/config/preferences:
 Processing $rem in /home/rramji/.qchemrc:
 Symmetry turned off for PCM/SM12/SMD calculation
 Core orbitals will be frozen

 Checking the input file for inconsistencies... 	...done.

 Q-Chem warning in module forms1/BasisType.C, line 2236:

 You are not using the predefined 5D/6D in this basis set.


--------------------------------------------------------------
User input:
--------------------------------------------------------------
$molecule
0 1
C	-0.232105	-0.536244	0.005627
C	0.053895	0.258456	1.118627
C	0.525195	1.567156	0.826227
H	-0.077605	-0.106644	2.148527
C	0.609495	1.800556	-0.557973
S	0.096395	0.377056	-1.459073
C	0.885995	2.568756	1.888027
H	0.734095	2.147356	2.900627
H	0.268695	3.488456	1.813727
H	1.947895	2.883556	1.813827
C	-0.232105	-1.986344	0.005627
H	0.137295	-1.986844	-1.009273
H	0.649395	-2.521444	0.326727
H	-1.015105	-2.673544	-0.279073
H	0.933995	2.701956	-1.091473
$end

$rem
JOBTYPE		SP
EXCHANGE	HF
CORRELATION	pRIMP2
BASIS		cc-pvtz
METHOD		rimp2
AUX_BASIS	rimp2-cc-pvtz
SOLVENT_METHOD	PCM
PURECART	11111
SYMMETRY	false
MEM_TOTAL	110000
SCF_CONVERGENCE = 6
THRESH=10
GUI = 2
$end



$solvent
dielectric 4.90
$end
--------------------------------------------------------------
 ----------------------------------------------------------------
             Standard Nuclear Orientation (Angstroms)
    I     Atom           X                Y                Z
 ----------------------------------------------------------------
    1      C      -0.2321050000    -0.5362440000     0.0056270000
    2      C       0.0538950000     0.2584560000     1.1186270000
    3      C       0.5251950000     1.5671560000     0.8262270000
    4      H      -0.0776050000    -0.1066440000     2.1485270000
    5      C       0.6094950000     1.8005560000    -0.5579730000
    6      S       0.0963950000     0.3770560000    -1.4590730000
    7      C       0.8859950000     2.5687560000     1.8880270000
    8      H       0.7340950000     2.1473560000     2.9006270000
    9      H       0.2686950000     3.4884560000     1.8137270000
   10      H       1.9478950000     2.8835560000     1.8138270000
   11      C      -0.2321050000    -1.9863440000     0.0056270000
   12      H       0.1372950000    -1.9868440000    -1.0092730000
   13      H       0.6493950000    -2.5214440000     0.3267270000
   14      H      -1.0151050000    -2.6735440000    -0.2790730000
   15      H       0.9339950000     2.7019560000    -1.0914730000
 ----------------------------------------------------------------
 Nuclear Repulsion Energy =         345.22210659 hartrees
 There are       30 alpha and       30 beta electrons
 Requested basis set is cc-pVTZ
 There are 120 shells and 326 basis functions

 Total QAlloc Memory Limit 110000 MB
 Mega-Array Size       188 MB
 MEM_STATIC part       192 MB
 Discretize the solute cavity surface with Lebedev spheres
	Using 110 Lebedev grid points for each H atom
	Using 194 Lebedev grid points for other atoms
	Atomic van der Waals radii will be scaled by 1.20
 Remove points where switching function is < 1.0e-08
 Keep 1068 surface tesserae and discard 1170 interior tesserae
 Molecular Surface Area = 157.838 Angst**2

                       Distance Matrix (Angstroms)
             C (  1)   C (  2)   C (  3)   H (  4)   C (  5)   S (  6)
   C (  2)  1.397180
   C (  3)  2.381424  1.421379
   H (  4)  2.190992  1.100584  2.216631
   C (  5)  2.546875  2.344728  1.406269  3.381517
   S (  6)  1.757093  2.580777  2.612050  3.644039  1.761137
   C (  7)  3.799290  2.573296  1.503595  2.855547  2.578662  4.078001
   H (  8)  4.064022  2.684425  2.164118  2.510981  3.478176  4.748432
   H (  9)  4.440522  3.310922  2.175395  3.627225  2.930889  4.519039
   H ( 10)  4.440385  3.310844  2.175394  3.627116  2.930809  4.519123
   C ( 11)  1.450100  2.521843  3.724815  2.854674  3.920019  2.799807
   H ( 12)  1.808513  3.094557  4.018761  3.681445  3.843312  2.406661
   H ( 13)  2.195715  2.951198  4.120871  3.111068  4.411799  3.449086
   H ( 14)  2.293947  3.419496  4.645186  3.655287  4.768090  3.454561
   H ( 15)  3.612389  3.410251  2.265494  4.405584  1.096560  2.498372
             C (  7)   H (  8)   H (  9)   H ( 10)   C ( 11)   H ( 12)
   H (  8)  1.107254
   H (  9)  1.110148  1.787875
   H ( 10)  1.110061  1.787858  1.784830
   C ( 11)  5.053960  5.138292  5.787354  5.633641
   H ( 12)  5.450540  5.721459  6.161615  5.913456  1.080036
   H ( 13)  5.329519  5.331963  6.202822  5.754267  1.080037  1.527396
   H ( 14)  5.982659  6.034175  6.633114  6.636336  1.079994  1.527342
   H ( 15)  2.982862  4.035394  3.082433  3.082489  4.954147  4.756715
             H ( 13)   H ( 14)
   H ( 14)  1.777832
   H ( 15)  5.419981  5.775377
 
 Requested basis set is rimp2-cc-pVTZ
 There are 250 shells and 848 basis functions
 A cutoff of  1.0D-10 yielded   6183 shell pairs
 There are     45257 function pairs (     58204 Cartesian)
 Smallest overlap matrix eigenvalue = 1.13E-04

 Scale SEOQF with 1.000000e-01/1.000000e-01/1.000000e-01

 Standard Electronic Orientation quadrupole field applied
 Nucleus-field energy     =     0.0000000017 hartrees
 Guess from superposition of atomic densities
 Warning:  Energy on first SCF cycle will be non-variational
 SAD guess density has 60.000000 electrons

 -----------------------------------------------------------------------
  General SCF calculation program by
  Eric Jon Sundstrom, Paul Horn, Yuezhi Mao, Dmitri Zuev, Alec White,
  David Stuck, Shaama M.S., Shane Yost, Joonho Lee, David Small,
  Daniel Levine, Susi Lehtola, Hugh Burton, Evgeny Epifanovsky,
  Bang C. Huynh
 -----------------------------------------------------------------------
 Hartree-Fock
 using 64 threads for integral computing
 -------------------------------------------------------
 OpenMP Integral computing Module                
 Release: version 1.0, May 2013, Q-Chem Inc. Pittsburgh 
 -------------------------------------------------------
 A restricted SCF calculation will be
 performed using DIIS
 SCF converges when DIIS error is below 1.0e-06
 ---------------------------------------
  Cycle       Energy         DIIS error
 ---------------------------------------
    1    -632.1034577109      2.92e-02  
    2    -629.3345446588      1.94e-03  
    3    -629.4050256268      6.80e-04  
    4    -629.4125624810      3.40e-04  
    5    -629.4146380812      6.40e-05  
    6    -629.4147739709      2.62e-05  
    7    -629.4148087597      1.18e-05  
    8    -629.4148185522      4.96e-06  
    9    -629.4148200328      1.81e-06  
   10    -629.4148202186      5.49e-07  Convergence criterion met
 ---------------------------------------
 SCF time:   CPU 681.86s  wall 13.00s 

************** Final PCM Free Energy Summary **************
 G_electrostatic  =      -0.00502854 hartree =      -3.15545639 kcal/mol
 G_cavitation     =       0.00000000 hartree =       0.00000000 kcal/mol
 G_dispersion     =       0.00000000 hartree =       0.00000000 kcal/mol
 G_repulsion      =       0.00000000 hartree =       0.00000000 kcal/mol
 --------------------------------------------------
 Non-electrostatic Free Energy =       0.00000000 hartree =       0.00000000 kcal/mol
 Total                         =      -0.00502854 hartree =      -3.15545639 kcal/mol
 --------------------------------------------------
 SCF Energy (H0 + V/2)                       =    -629.41482022 
 Solute Internal Energy (H0)                 =    -629.40979168 
 Total Free Energy (H0 + V/2 + non-elec)     =    -629.41482022 hartree
                                             = -394963.76087494 kcal/mol
***********************************************************

 SCF   energy in the final basis set =     -629.4148202186
 Total energy in the final basis set =     -629.4148202186


 --------------------------------------------------------------
  Generalized many-body perturbation theory program
  by Joonho Lee, Fazle Rob, Xintian Feng, Evgeny Epifanovsky

 No regularization used 
 (reg. param. = 0.0000e+00)
  (P|Q)^-1/2 Time:  CPU 9.45 s  wall 0.16 s

 In RI-MP2 calculation: 
 # of frozen core orbitals: 11

 Components of the RIMP2 correlation energy:
        aaaa    correlation energy =        -0.1456853231 a.u.
        abab    correlation energy =        -0.8874563740 a.u.
        bbbb    correlation energy =        -0.1456853231 a.u.
        non-Brillouin singles      =        -0.0000000000 a.u.
        total same-spin energy     =        -0.2913706462 a.u.
        total opposite-spin energy =        -0.8874563740 a.u.

 Total  RIMP2   correlation energy =        -1.1788270202 a.u.
        RIMP2         total energy =      -630.5936472388 a.u.

 RI-MP2 Energy Time:  CPU 38.33 s  wall 0.68 s
 
 --------------------------------------------------------------
 
                    Orbital Energies (a.u.)
 --------------------------------------------------------------
 
 Alpha MOs
 -- Occupied --
-91.9790 -11.2738 -11.2595 -11.2472 -11.2307 -11.2272 -11.2161  -8.9791
 -6.6600  -6.6594  -6.6588  -1.1619  -1.0538  -0.9948  -0.9450  -0.8823
 -0.7481  -0.7190  -0.6462  -0.5906  -0.5763  -0.5656  -0.5525  -0.5466
 -0.5095  -0.4856  -0.4642  -0.4453  -0.3378  -0.3026
 -- Virtual --
  0.0979   0.1441   0.1519   0.1739   0.1882   0.1897   0.1977   0.2309
  0.2407   0.2431   0.2464   0.2712   0.2897   0.3186   0.3472   0.3490
  0.3757   0.4017   0.4060   0.4147   0.4449   0.4645   0.4726   0.4783
  0.4840   0.5053   0.5125   0.5287   0.5381   0.5622   0.5703   0.5886
  0.5968   0.6047   0.6120   0.6173   0.6331   0.6371   0.6428   0.6493
  0.6578   0.6603   0.6821   0.7056   0.7342   0.7459   0.7721   0.7750
  0.7972   0.8206   0.8404   0.8593   0.8619   0.8964   0.9058   0.9169
  0.9550   0.9800   0.9940   1.0048   1.0211   1.0483   1.0624   1.0740
  1.0875   1.0928   1.1236   1.1330   1.1588   1.1707   1.1906   1.2123
  1.2173   1.2403   1.2470   1.2658   1.2740   1.2949   1.3070   1.3254
  1.3488   1.3725   1.4050   1.4147   1.4279   1.4371   1.4452   1.4712
  1.4914   1.5015   1.5183   1.5297   1.5503   1.5560   1.5704   1.5924
  1.6101   1.6227   1.6362   1.6673   1.6864   1.6973   1.7151   1.7408
  1.7603   1.7731   1.8039   1.8273   1.8824   1.9125   1.9382   1.9659
  1.9866   2.0380   2.1075   2.1239   2.1827   2.1922   2.2121   2.2195
  2.2588   2.2871   2.3664   2.4242   2.4538   2.5041   2.5271   2.5535
  2.5740   2.5878   2.6409   2.6539   2.6688   2.6825   2.7154   2.7253
  2.7471   2.7579   2.7607   2.7830   2.8161   2.8445   2.8659   2.8901
  2.9094   2.9137   2.9387   2.9732   3.0109   3.0317   3.0515   3.0647
  3.1099   3.1144   3.1232   3.1313   3.1525   3.1667   3.1761   3.1938
  3.2238   3.2550   3.2628   3.2688   3.2917   3.3093   3.3207   3.3269
  3.3355   3.3648   3.3697   3.3883   3.3930   3.4146   3.4216   3.4381
  3.4445   3.4587   3.4795   3.4906   3.5191   3.5354   3.5557   3.5628
  3.5860   3.5991   3.6133   3.6212   3.6361   3.6437   3.6636   3.6735
  3.7028   3.7208   3.7448   3.7487   3.7544   3.7779   3.7877   3.7996
  3.8107   3.8179   3.8695   3.8740   3.9014   3.9127   3.9306   3.9502
  3.9608   3.9708   4.0001   4.0249   4.0350   4.0458   4.0984   4.1059
  4.1331   4.1491   4.1638   4.1766   4.1981   4.2213   4.2276   4.2484
  4.2684   4.2869   4.3155   4.3403   4.3429   4.3620   4.3893   4.3961
  4.4033   4.4247   4.4331   4.4630   4.4764   4.4962   4.5262   4.5827
  4.5994   4.6215   4.6393   4.6530   4.7111   4.7370   4.7423   4.7747
  4.7956   4.8050   4.8413   4.8961   4.9315   4.9730   5.0775   5.0980
  5.1074   5.1247   5.1780   5.1904   5.2405   5.2683   5.2807   5.3115
  5.3652   5.4060   5.4104   5.4412   5.4710   5.4868   5.5502   5.5640
  5.5854   5.6200   5.6243   5.6881   5.7049   5.8097   5.8364   5.8706
  5.8992   5.9599   6.0261   6.1280   6.2269   6.2435   6.2927   6.3512
  6.4155   6.4942   9.1838  11.3802  12.8900  13.7671  14.1746  14.3890
 --------------------------------------------------------------
 
          Ground-State Mulliken Net Atomic Charges

     Atom                 Charge (a.u.)
  ----------------------------------------
      1 C                     0.038474
      2 C                    -0.270712
      3 C                     0.047505
      4 H                     0.178582
      5 C                    -0.256135
      6 S                    -0.003309
      7 C                    -0.271768
      8 H                     0.101980
      9 H                     0.107173
     10 H                     0.106628
     11 C                    -0.369415
     12 H                     0.118636
     13 H                     0.134817
     14 H                     0.141991
     15 H                     0.195556
  ----------------------------------------
  Sum of atomic charges =     0.000000

 -----------------------------------------------------------------
                    Cartesian Multipole Moments
 -----------------------------------------------------------------
    Charge (ESU x 10^10)
                -0.0000
    Dipole Moment (Debye)
         X       0.7808      Y      -0.0096      Z       0.9267
       Tot       1.2118
    Quadrupole Moments (Debye-Ang)
        XX     -52.9491     XY       2.4173     YY     -43.3114
        XZ       0.4024     YZ       1.5442     ZZ     -48.7284
    Octopole Moments (Debye-Ang^2)
       XXX     -36.8154    XXY     -27.7237    XYY      -5.3235
       YYY     -74.1687    XXZ      -2.7909    XYZ      -2.1039
       YYZ      -7.8930    XZZ     -10.4579    YZZ     -21.9807
       ZZZ       0.4093
    Hexadecapole Moments (Debye-Ang^3)
      XXXX    -143.1572   XXXY     -99.8084   XXYY    -150.0931
      XYYY     -85.4806   YYYY    -749.5028   XXXZ     -31.9993
      XXYZ     -31.4611   XYYZ     -11.7775   YYYZ     -96.0974
      XXZZ    -111.2303   XYZZ     -27.4136   YYZZ    -207.6213
      XZZZ     -36.3148   YZZZ    -100.0788   ZZZZ    -489.2278
 -----------------------------------------------------------------
 Total job time:  15.83s(wall), 758.09s(cpu) 
 Fri Dec 15 14:04:59 2023

        *************************************************************
        *                                                           *
        *  Thank you very much for using Q-Chem.  Have a nice day.  *
        *                                                           *
        *************************************************************


0 sent ACK to 0 
now end server 0 ... 
cleanup process ... done
remove work dirs ./qchem24812.0 -- ./qchem24812.0
rm -rf ./qchem24812.0
rm -rf ./qchem24812
