You are running Q-Chem version: 5.4.0

#
# job setting
#
local host:  exp-7-21
current dir: /home/rramji/project-csd799/aromodel/p3ht-qchem/methylated-rotation-run
input file:  Methylthiophene_Phi_15_Theta_120_Methylthiophene_Hydrogenated_Improper.qcin
output file: 
nprocs     : 1
nthreads   : 64
#
# qchem installation setting
#
QC:          /cm/shared/apps/spack/cpu/opt/spack/linux-centos8-zen2/gcc-10.2.0/qchem-5.4-akfmr7b3t57bfs6qan3padb2wnb2i7cl
QCAUX:       /cm/shared/apps/spack/cpu/opt/spack/linux-centos8-zen2/gcc-10.2.0/qchem-5.4-akfmr7b3t57bfs6qan3padb2wnb2i7cl/qcaux
QCPROG:      /cm/shared/apps/spack/cpu/opt/spack/linux-centos8-zen2/gcc-10.2.0/qchem-5.4-akfmr7b3t57bfs6qan3padb2wnb2i7cl/exe/qcprog.exe
QCPROG_S:    /cm/shared/apps/spack/cpu/opt/spack/linux-centos8-zen2/gcc-10.2.0/qchem-5.4-akfmr7b3t57bfs6qan3padb2wnb2i7cl/exe/qcprog.exe_s
PARALLEL:    -DPARALLEL
QCMPI:       mpich
#
# qchem directory setting
#
qcrun:       qchem18592
QCSCRATCH:   .
QCLOCALSCR:  
QCTMPDIR:    .
QCFILEPREF:  ./qchem18592
QCSAVEDIR:   
workdirs:    ./qchem18592
workdir0:    ./qchem18592
partmpdirs =  
#
# parallel setting
#
QCRSH:           ssh
QCMPI:           mpich
QCMPIRUN:        /cm/shared/apps/spack/cpu/opt/spack/linux-centos8-zen2/gcc-10.2.0/qchem-5.4-akfmr7b3t57bfs6qan3padb2wnb2i7cl/bin/mpi/mpirun_qchem
QCMACHINEFILE:   ./qchem18592/hostfile
exp-7-21

#
# env setting
#
exported envs:   QC QCAUX QCSCRATCH QCRUNNAME QCFILEPREF QCPROG QCPROG_S GUIFILE

Running Job 1 of 1 Methylthiophene_Phi_15_Theta_120_Methylthiophene_Hydrogenated_Improper.qcin
qchem Methylthiophene_Phi_15_Theta_120_Methylthiophene_Hydrogenated_Improper.qcin_18592.0 ./qchem18592/ 1
/cm/shared/apps/spack/cpu/opt/spack/linux-centos8-zen2/gcc-10.2.0/qchem-5.4-akfmr7b3t57bfs6qan3padb2wnb2i7cl/bin/mpi/mpirun_qchem -machinefile ./qchem18592/hostfile -np 1 /cm/shared/apps/spack/cpu/opt/spack/linux-centos8-zen2/gcc-10.2.0/qchem-5.4-akfmr7b3t57bfs6qan3padb2wnb2i7cl/exe/qcprog.exe Methylthiophene_Phi_15_Theta_120_Methylthiophene_Hydrogenated_Improper.qcin_18592.0 ./qchem18592/

Process 0 of 1 is on exp-7-21 - thread support 0
initial socket setup ...start
initial socket setup ...done 
now start server 0 ... 
                  Welcome to Q-Chem
     A Quantum Leap Into The Future Of Chemistry


 Q-Chem 5.4, Q-Chem, Inc., Pleasanton, CA (2021)

 License issued to: University of California, San Diego (site)

 E. Epifanovsky,  A. T. B. Gilbert,  Xintian Feng,  Joonho Lee,  Yuezhi Mao,  
 N. Mardirossian,  P. Pokhilko,  A. White,  M. Wormit,  M. P. Coons,  
 A. L. Dempwolff,  Zhengting Gan,  D. Hait,  P. R. Horn,  L. D. Jacobson,  
 I. Kaliman,  J. Kussmann,  A. W. Lange,  Ka Un Lao,  D. S. Levine,  Jie Liu,  
 S. C. McKenzie,  A. F. Morrison,  K. Nanda,  F. Plasser,  D. R. Rehn,  
 M. L. Vidal,  Zhi-Qiang You,  Ying Zhu,  B. Alam,  B. Albrecht,  
 A. Aldossary,  E. Alguire,  J. H. Andersen,  D. Barton,  K. Begam,  A. Behn,  
 Y. A. Bernard,  E. J. Berquist,  H. Burton,  A. Carreras,  K. Carter-Fenk,  
 R. Chakraborty,  A. D. Chien,  K. D. Closser,  V. Cofer-Shabica,  
 S. Dasgupta,  Jia Deng,  M. de Wergifosse,  M. Diedenhofen,  Hainam Do,  
 S. Ehlert,  Po-Tung Fang,  S. Fatehi,  Qingguo Feng,  J. Gayvert,  
 Qinghui Ge,  G. Gidofalvi,  M. Goldey,  J. Gomes,  C. Gonzalez-Espinoza,  
 S. Gulania,  A. Gunina,  M. W. D. Hanson-Heine,  P. H. P. Harbach,  
 A. W. Hauser,  M. F. Herbst,  M. Hernandez Vera,  M. Hodecker,  
 Z. C. Holden,  S. Houck,  Xunkun Huang,  Kerwin Hui,  B. C. Huynh,  
 M. Ivanov,  Hyunjun Ji,  Hanjie Jiang,  B. Kaduk,  S. Kaehler,  
 K. Khistyaev,  Jaehoon Kim,  P. Klunzinger,  Z. Koczor-Benda,  
 Joong Hoon Koh,  D. Kosenkov,  L. Koulias,  T. Kowalczyk,  C. M. Krauter,  
 K. Kue,  A. Kunitsa,  T. Kus,  A. Landau,  K. V. Lawler,  D. Lefrancois,  
 S. Lehtola,  Rain Li,  Yi-Pei Li,  Jiashu Liang,  M. Liebenthal,  
 Hung-Hsuan Lin,  You-Sheng Lin,  Fenglai Liu,  Kuan-Yu Liu,  
 M. Loipersberger,  A. Luenser,  A. Manjanath,  P. Manohar,  E. Mansoor,  
 S. F. Manzer,  Shan-Ping Mao,  A. V. Marenich,  T. Markovich,  S. Mason,  
 S. A. Maurer,  P. F. McLaughlin,  M. F. S. J. Menger,  J.-M. Mewes,  
 S. A. Mewes,  P. Morgante,  J. W. Mullinax,  T. S. Nguyen-Beck,  
 K. J. Oosterbaan,  G. Paran,  Alexander C. Paul,  Suranjan K. Paul,  
 F. Pavosevic,  Zheng Pei,  S. Prager,  E. I. Proynov,  E. Ramos,  B. Rana,  
 A. E. Rask,  A. Rettig,  R. M. Richard,  F. Rob,  E. Rossomme,  T. Scheele,  
 M. Scheurer,  M. Schneider,  N. Sergueev,  S. M. Sharada,  W. Skomorowski,  
 D. W. Small,  C. J. Stein,  Yu-Chuan Su,  E. J. Sundstrom,  Zhen Tao,  
 J. Thirman,  T. Tsuchimochi,  N. M. Tubman,  S. P. Veccham,  O. Vydrov,  
 J. Wenzel,  J. Witte,  A. Yamada,  Kun Yao,  S. Yeganeh,  S. R. Yost,  
 A. Zech,  Igor Ying Zhang,  Xing Zhang,  Yu Zhang,  D. Zuev,  
 A. Aspuru-Guzik,  A. T. Bell,  N. A. Besley,  K. B. Bravaya,  B. R. Brooks,  
 D. Casanova,  Jeng-Da Chai,  S. Coriani,  C. J. Cramer,  
 A. E. DePrince, III,  R. A. DiStasio Jr.,  A. Dreuw,  B. D. Dunietz,  
 T. R. Furlani,  W. A. Goddard III,  S. Grimme,  S. Hammes-Schiffer,  
 T. Head-Gordon,  W. J. Hehre,  Chao-Ping Hsu,  T.-C. Jagau,  Yousung Jung,  
 A. Klamt,  Jing Kong,  D. S. Lambrecht,  WanZhen Liang,  N. J. Mayhall,  
 C. W. McCurdy,  J. B. Neaton,  C. Ochsenfeld,  J. A. Parkhill,  R. Peverati,  
 V. A. Rassolov,  Yihan Shao,  L. V. Slipchenko,  T. Stauch,  R. P. Steele,  
 J. E. Subotnik,  A. J. W. Thom,  A. Tkatchenko,  D. G. Truhlar,  
 T. Van Voorhis,  T. A. Wesolowski,  K. B. Whaley,  H. L. Woodcock III,  
 P. M. Zimmerman,  S. Faraji,  P. M. W. Gill,  M. Head-Gordon,  
 J. M. Herbert,  A. I. Krylov

 Contributors to earlier versions of Q-Chem not listed above: 
 R. D. Adamson,  B. Austin,  R. Baer,  J. Baker,  G. J. O. Beran,  
 K. Brandhorst,  S. T. Brown,  E. F. C. Byrd,  A. K. Chakraborty,  
 G. K. L. Chan,  Chun-Min Chang,  Yunqing Chen,  C.-L. Cheng,  
 Siu Hung Chien,  D. M. Chipman,  D. L. Crittenden,  H. Dachsel,  
 R. J. Doerksen,  A. D. Dutoi,  R. G. Edgar,  J. Fosso-Tande,  
 L. Fusti-Molnar,  D. Ghosh,  A. Ghysels,  A. Golubeva-Zadorozhnaya,  
 J. Gonthier,  M. S. Gordon,  S. R. Gwaltney,  G. Hawkins,  J. E. Herr,  
 A. Heyden,  S. Hirata,  E. G. Hohenstein,  G. Kedziora,  F. J. Keil,  
 C. Kelley,  Jihan Kim,  R. A. King,  R. Z. Khaliullin,  P. P. Korambath,  
 W. Kurlancheek,  A. Laurent,  A. M. Lee,  M. S. Lee,  S. V. Levchenko,  
 Ching Yeh Lin,  D. Liotard,  E. Livshits,  R. C. Lochan,  I. Lotan,  
 L. A. Martinez-Martinez,  P. E. Maslen,  N. Nair,  D. P. O'Neill,  
 D. Neuhauser,  E. Neuscamman,  C. M. Oana,  R. Olivares-Amaya,  R. Olson,  
 T. M. Perrine,  B. Peters,  P. A. Pieniazek,  A. Prociuk,  Y. M. Rhee,  
 J. Ritchie,  M. A. Rohrdanz,  E. Rosta,  N. J. Russ,  H. F. Schaefer III,  
 M. W. Schmidt,  N. E. Schultz,  S. Sharma,  N. Shenvi,  C. D. Sherrill,  
 A. C. Simmonett,  A. Sodt,  T. Stein,  D. Stuck,  K. S. Thanthiriwatte,  
 V. Vanovschi,  L. Vogt,  Tao Wang,  A. Warshel,  M. A. Watson,  
 C. F. Williams,  Q. Wu,  X. Xu,  Jun Yang,  W. Zhang,  Yan Zhao

 Please cite Q-Chem as follows:
 Y. Shao et al., Mol. Phys. 113, 184-215 (2015)
 DOI: 10.1080/00268976.2014.952696

 Q-Chem 5.4.0 for Intel X86 EM64T Linux

 Parts of Q-Chem use Armadillo 9.800.1 (Horizon Scraper).
 http://arma.sourceforge.net/

 Q-Chem begins on Fri Dec 15 13:58:29 2023  

 Host: 
0

     Scratch files written to ./qchem18592//
 May1621 |scratch|qcdevops|jenkins|workspace|build_RNUM    
 Parallel job on  1  processors
 Processing $rem in /cm/shared/apps/spack/cpu/opt/spack/linux-centos8-zen2/gcc-10.2.0/qchem-5.4-akfmr7b3t57bfs6qan3padb2wnb2i7cl/config/preferences:
 Processing $rem in /home/rramji/.qchemrc:
 Symmetry turned off for PCM/SM12/SMD calculation
 Core orbitals will be frozen

 Checking the input file for inconsistencies... 	...done.

 Q-Chem warning in module forms1/BasisType.C, line 2236:

 You are not using the predefined 5D/6D in this basis set.


--------------------------------------------------------------
User input:
--------------------------------------------------------------
$molecule
0 1
C	-0.170599	-0.553870	-0.002733
C	0.045001	0.262730	1.110267
C	0.400501	1.607530	0.817867
H	-0.054099	-0.112470	2.140167
C	0.464101	1.847430	-0.566333
S	0.077001	0.384630	-1.467433
C	0.672601	2.636830	1.879667
H	0.558001	2.203730	2.892267
H	-0.022499	3.499130	1.805367
H	1.703101	3.042930	1.805467
C	-0.170599	-2.003970	-0.002733
H	-0.710599	-2.004470	0.932567
H	-0.982899	-2.539070	-0.472033
H	0.551101	-2.691170	0.413567
H	0.708901	2.773630	-1.099833
$end

$rem
JOBTYPE		SP
EXCHANGE	HF
CORRELATION	pRIMP2
BASIS		cc-pvtz
METHOD		rimp2
AUX_BASIS	rimp2-cc-pvtz
SOLVENT_METHOD	PCM
PURECART	11111
SYMMETRY	false
MEM_TOTAL	110000
SCF_CONVERGENCE = 6
THRESH=10
GUI = 2
$end



$solvent
dielectric 4.90
$end
--------------------------------------------------------------
 ----------------------------------------------------------------
             Standard Nuclear Orientation (Angstroms)
    I     Atom           X                Y                Z
 ----------------------------------------------------------------
    1      C      -0.1705990000    -0.5538700000    -0.0027330000
    2      C       0.0450010000     0.2627300000     1.1102670000
    3      C       0.4005010000     1.6075300000     0.8178670000
    4      H      -0.0540990000    -0.1124700000     2.1401670000
    5      C       0.4641010000     1.8474300000    -0.5663330000
    6      S       0.0770010000     0.3846300000    -1.4674330000
    7      C       0.6726010000     2.6368300000     1.8796670000
    8      H       0.5580010000     2.2037300000     2.8922670000
    9      H      -0.0224990000     3.4991300000     1.8053670000
   10      H       1.7031010000     3.0429300000     1.8054670000
   11      C      -0.1705990000    -2.0039700000    -0.0027330000
   12      H      -0.7105990000    -2.0044700000     0.9325670000
   13      H      -0.9828990000    -2.5390700000    -0.4720330000
   14      H       0.5511010000    -2.6911700000     0.4135670000
   15      H       0.7089010000     2.7736300000    -1.0998330000
 ----------------------------------------------------------------
 Nuclear Repulsion Energy =         344.26459180 hartrees
 There are       30 alpha and       30 beta electrons
 Requested basis set is cc-pVTZ
 There are 120 shells and 326 basis functions

 Total QAlloc Memory Limit 110000 MB
 Mega-Array Size       188 MB
 MEM_STATIC part       192 MB
 Discretize the solute cavity surface with Lebedev spheres
	Using 110 Lebedev grid points for each H atom
	Using 194 Lebedev grid points for other atoms
	Atomic van der Waals radii will be scaled by 1.20
 Remove points where switching function is < 1.0e-08
 Keep 1061 surface tesserae and discard 1177 interior tesserae
 Molecular Surface Area = 158.277 Angst**2

                       Distance Matrix (Angstroms)
             C (  1)   C (  2)   C (  3)   H (  4)   C (  5)   S (  6)
   C (  2)  1.397171
   C (  3)  2.381426  1.421395
   H (  4)  2.190988  1.100586  2.216650
   C (  5)  2.546906  2.344761  1.406274  3.381550
   S (  6)  1.757110  2.580779  2.612036  3.644046  1.761139
   C (  7)  3.799340  2.573365  1.503634  2.855627  2.578670  4.078017
   H (  8)  4.064018  2.684432  2.164116  2.510996  3.478172  4.748418
   H (  9)  4.440492  3.310892  2.175370  3.627223  2.930845  4.518986
   H ( 10)  4.440418  3.310908  2.175430  3.627165  2.930832  4.519141
   C ( 11)  1.450100  2.534400  3.747329  2.860658  3.943827  2.812839
   H ( 12)  1.808487  2.396394  3.780773  2.338579  4.296947  3.476796
   H ( 13)  2.195699  3.377919  4.557623  3.684379  4.619966  3.265307
   H ( 14)  2.293950  3.076858  4.320296  3.161820  4.643992  3.636410
   H ( 15)  3.612396  3.410267  2.265496  4.405604  1.096538  2.498349
             C (  7)   H (  8)   H (  9)   H ( 10)   C ( 11)   H ( 12)
   H (  8)  1.107279
   H (  9)  1.110066  1.787846
   H ( 10)  1.110114  1.787916  1.784885
   C ( 11)  5.078527  5.159130  5.794417  5.679044
   H ( 12)  4.934765  4.812350  5.614702  5.662521  1.079994
   H ( 13)  5.921243  6.015566  6.524475  6.600025  1.080003  1.527366
   H ( 14)  5.527368  5.486716  6.370709  6.012021  1.080000  1.527352
   H ( 15)  2.982860  4.035396  3.082448  3.082487  4.980222  5.382924
             H ( 13)   H ( 14)
   H ( 14)  1.777801
   H ( 15)  5.610802  5.672682
 
 Requested basis set is rimp2-cc-pVTZ
 There are 250 shells and 848 basis functions
 A cutoff of  1.0D-10 yielded   6193 shell pairs
 There are     45325 function pairs (     58286 Cartesian)
 Smallest overlap matrix eigenvalue = 1.01E-04

 Scale SEOQF with 1.000000e-01/1.000000e-01/1.000000e-01

 Standard Electronic Orientation quadrupole field applied
 Nucleus-field energy     =     0.0000000019 hartrees
 Guess from superposition of atomic densities
 Warning:  Energy on first SCF cycle will be non-variational
 SAD guess density has 60.000000 electrons

 -----------------------------------------------------------------------
  General SCF calculation program by
  Eric Jon Sundstrom, Paul Horn, Yuezhi Mao, Dmitri Zuev, Alec White,
  David Stuck, Shaama M.S., Shane Yost, Joonho Lee, David Small,
  Daniel Levine, Susi Lehtola, Hugh Burton, Evgeny Epifanovsky,
  Bang C. Huynh
 -----------------------------------------------------------------------
 Hartree-Fock
 using 64 threads for integral computing
 -------------------------------------------------------
 OpenMP Integral computing Module                
 Release: version 1.0, May 2013, Q-Chem Inc. Pittsburgh 
 -------------------------------------------------------
 A restricted SCF calculation will be
 performed using DIIS
 SCF converges when DIIS error is below 1.0e-06
 ---------------------------------------
  Cycle       Energy         DIIS error
 ---------------------------------------
    1    -632.0893992910      2.91e-02  
    2    -629.3429118052      1.91e-03  
    3    -629.4123737998      6.42e-04  
    4    -629.4193878056      3.28e-04  
    5    -629.4212595759      6.16e-05  
    6    -629.4213854097      2.45e-05  
    7    -629.4214159181      1.13e-05  
    8    -629.4214248176      4.83e-06  
    9    -629.4214262812      1.73e-06  
   10    -629.4214264543      5.09e-07  Convergence criterion met
 ---------------------------------------
 SCF time:   CPU 672.97s  wall 14.00s 

************** Final PCM Free Energy Summary **************
 G_electrostatic  =      -0.00548334 hartree =      -3.44084621 kcal/mol
 G_cavitation     =       0.00000000 hartree =       0.00000000 kcal/mol
 G_dispersion     =       0.00000000 hartree =       0.00000000 kcal/mol
 G_repulsion      =       0.00000000 hartree =       0.00000000 kcal/mol
 --------------------------------------------------
 Non-electrostatic Free Energy =       0.00000000 hartree =       0.00000000 kcal/mol
 Total                         =      -0.00548334 hartree =      -3.44084621 kcal/mol
 --------------------------------------------------
 SCF Energy (H0 + V/2)                       =    -629.42142645 
 Solute Internal Energy (H0)                 =    -629.41594312 
 Total Free Energy (H0 + V/2 + non-elec)     =    -629.42142645 hartree
                                             = -394967.90635039 kcal/mol
***********************************************************

 SCF   energy in the final basis set =     -629.4214264543
 Total energy in the final basis set =     -629.4214264543


 --------------------------------------------------------------
  Generalized many-body perturbation theory program
  by Joonho Lee, Fazle Rob, Xintian Feng, Evgeny Epifanovsky

 No regularization used 
 (reg. param. = 0.0000e+00)
  (P|Q)^-1/2 Time:  CPU 7.01 s  wall 0.11 s

 In RI-MP2 calculation: 
 # of frozen core orbitals: 11

 Components of the RIMP2 correlation energy:
        aaaa    correlation energy =        -0.1456989919 a.u.
        abab    correlation energy =        -0.8870916357 a.u.
        bbbb    correlation energy =        -0.1456989919 a.u.
        non-Brillouin singles      =        -0.0000000000 a.u.
        total same-spin energy     =        -0.2913979839 a.u.
        total opposite-spin energy =        -0.8870916357 a.u.

 Total  RIMP2   correlation energy =        -1.1784896195 a.u.
        RIMP2         total energy =      -630.5999160738 a.u.

 RI-MP2 Energy Time:  CPU 34.97 s  wall 0.62 s
 
 --------------------------------------------------------------
 
                    Orbital Energies (a.u.)
 --------------------------------------------------------------
 
 Alpha MOs
 -- Occupied --
-91.9757 -11.2767 -11.2578 -11.2475 -11.2330 -11.2275 -11.2173  -8.9758
 -6.6567  -6.6561  -6.6556  -1.1609  -1.0524  -0.9990  -0.9393  -0.8853
 -0.7427  -0.7229  -0.6479  -0.5887  -0.5769  -0.5658  -0.5592  -0.5417
 -0.5109  -0.4875  -0.4657  -0.4414  -0.3375  -0.3012
 -- Virtual --
  0.1018   0.1449   0.1500   0.1768   0.1797   0.1901   0.2094   0.2244
  0.2339   0.2422   0.2511   0.2686   0.3041   0.3131   0.3443   0.3526
  0.3837   0.3926   0.4119   0.4184   0.4334   0.4525   0.4730   0.4855
  0.4916   0.5020   0.5178   0.5262   0.5397   0.5528   0.5657   0.5885
  0.6008   0.6055   0.6188   0.6218   0.6369   0.6382   0.6457   0.6522
  0.6584   0.6617   0.6811   0.6979   0.7414   0.7528   0.7602   0.7765
  0.8074   0.8285   0.8443   0.8636   0.8697   0.8926   0.9114   0.9337
  0.9470   0.9663   0.9918   1.0126   1.0312   1.0401   1.0607   1.0752
  1.0813   1.0836   1.1112   1.1502   1.1590   1.1736   1.1915   1.2006
  1.2217   1.2342   1.2521   1.2639   1.2699   1.2845   1.3126   1.3333
  1.3468   1.3653   1.3836   1.4008   1.4256   1.4429   1.4562   1.4814
  1.4923   1.5184   1.5265   1.5405   1.5448   1.5606   1.5703   1.5885
  1.6102   1.6279   1.6670   1.6791   1.6895   1.7021   1.7198   1.7310
  1.7548   1.7813   1.7978   1.8198   1.8877   1.9103   1.9276   1.9600
  1.9906   2.0436   2.0989   2.1321   2.1829   2.1905   2.2023   2.2211
  2.2607   2.2881   2.3645   2.4222   2.4676   2.4932   2.5288   2.5566
  2.5822   2.5951   2.6408   2.6581   2.6708   2.6758   2.7210   2.7246
  2.7542   2.7605   2.7668   2.7876   2.8211   2.8475   2.8684   2.8721
  2.9015   2.9267   2.9625   2.9706   2.9845   2.9971   3.0368   3.0470
  3.0878   3.1124   3.1183   3.1376   3.1523   3.1561   3.1764   3.1980
  3.2043   3.2227   3.2607   3.2825   3.2959   3.3067   3.3234   3.3405
  3.3450   3.3594   3.3826   3.3864   3.4046   3.4143   3.4245   3.4334
  3.4436   3.4681   3.4885   3.4915   3.5065   3.5261   3.5351   3.5590
  3.5850   3.5924   3.6168   3.6189   3.6309   3.6585   3.6640   3.6727
  3.6879   3.7098   3.7307   3.7409   3.7666   3.7713   3.7875   3.7970
  3.8067   3.8306   3.8619   3.8707   3.8775   3.9129   3.9177   3.9580
  3.9585   3.9895   4.0165   4.0312   4.0422   4.0759   4.0885   4.1008
  4.1184   4.1335   4.1502   4.1637   4.2061   4.2180   4.2290   4.2589
  4.2832   4.2847   4.3218   4.3301   4.3382   4.3650   4.3916   4.4030
  4.4124   4.4336   4.4481   4.4517   4.4703   4.5289   4.5586   4.5828
  4.6004   4.6200   4.6247   4.6827   4.7179   4.7341   4.7683   4.7970
  4.8121   4.8223   4.8838   4.8854   4.9063   4.9255   5.0698   5.0948
  5.1091   5.1344   5.1873   5.1993   5.2353   5.2597   5.2871   5.3203
  5.3610   5.4040   5.4133   5.4446   5.4778   5.4885   5.5551   5.5683
  5.5797   5.6222   5.6328   5.6737   5.7027   5.8176   5.8398   5.8728
  5.9391   6.0158   6.0470   6.1291   6.2267   6.2493   6.2920   6.3547
  6.4535   6.5451   9.1757  11.3721  12.9188  13.8193  14.1743  14.4458
 --------------------------------------------------------------
 
          Ground-State Mulliken Net Atomic Charges

     Atom                 Charge (a.u.)
  ----------------------------------------
      1 C                     0.041819
      2 C                    -0.270381
      3 C                     0.036594
      4 H                     0.177374
      5 C                    -0.254040
      6 S                    -0.004722
      7 C                    -0.272963
      8 H                     0.101339
      9 H                     0.107042
     10 H                     0.107280
     11 C                    -0.366476
     12 H                     0.122407
     13 H                     0.136476
     14 H                     0.144575
     15 H                     0.193676
  ----------------------------------------
  Sum of atomic charges =     0.000000

 -----------------------------------------------------------------
                    Cartesian Multipole Moments
 -----------------------------------------------------------------
    Charge (ESU x 10^10)
                -0.0000
    Dipole Moment (Debye)
         X       0.0409      Y      -0.1220      Z       2.0890
       Tot       2.0930
    Quadrupole Moments (Debye-Ang)
        XX     -53.2010     XY       2.9058     YY     -42.7298
        XZ       0.2742     YZ      -0.9219     ZZ     -48.8334
    Octopole Moments (Debye-Ang^2)
       XXX     -27.5016    XXY     -29.7996    XYY      -4.9840
       YYY     -76.5208    XXZ      -3.1314    XYZ      -1.5664
       YYZ      -2.4157    XZZ      -7.6649    YZZ     -23.3503
       ZZZ      -0.9624
    Hexadecapole Moments (Debye-Ang^3)
      XXXX    -116.9735   XXXY     -80.2108   XXYY    -153.4155
      XYYY     -66.6790   YYYY    -774.2287   XXXZ     -23.1981
      XXYZ     -29.4265   XYYZ      -8.1464   YYYZ    -106.7522
      XXZZ    -107.4943   XYZZ     -22.1467   YYZZ    -210.9009
      XZZZ     -26.6655   YZZZ     -96.0709   ZZZZ    -490.9955
 -----------------------------------------------------------------
 Total job time:  15.86s(wall), 740.54s(cpu) 
 Fri Dec 15 13:58:45 2023

        *************************************************************
        *                                                           *
        *  Thank you very much for using Q-Chem.  Have a nice day.  *
        *                                                           *
        *************************************************************


0 sent ACK to 0 
now end server 0 ... 
cleanup process ... done
remove work dirs ./qchem18592.0 -- ./qchem18592.0
rm -rf ./qchem18592.0
rm -rf ./qchem18592
