You are running Q-Chem version: 5.4.0

#
# job setting
#
local host:  exp-7-24
current dir: /home/rramji/project-csd799/aromodel/p3ht-qchem/methylated-rotation-run
input file:  Methylthiophene_Phi_50_Theta_310_Methylthiophene_Hydrogenated_Improper.qcin
output file: 
nprocs     : 1
nthreads   : 64
#
# qchem installation setting
#
QC:          /cm/shared/apps/spack/cpu/opt/spack/linux-centos8-zen2/gcc-10.2.0/qchem-5.4-akfmr7b3t57bfs6qan3padb2wnb2i7cl
QCAUX:       /cm/shared/apps/spack/cpu/opt/spack/linux-centos8-zen2/gcc-10.2.0/qchem-5.4-akfmr7b3t57bfs6qan3padb2wnb2i7cl/qcaux
QCPROG:      /cm/shared/apps/spack/cpu/opt/spack/linux-centos8-zen2/gcc-10.2.0/qchem-5.4-akfmr7b3t57bfs6qan3padb2wnb2i7cl/exe/qcprog.exe
QCPROG_S:    /cm/shared/apps/spack/cpu/opt/spack/linux-centos8-zen2/gcc-10.2.0/qchem-5.4-akfmr7b3t57bfs6qan3padb2wnb2i7cl/exe/qcprog.exe_s
PARALLEL:    -DPARALLEL
QCMPI:       mpich
#
# qchem directory setting
#
qcrun:       qchem52978
QCSCRATCH:   .
QCLOCALSCR:  
QCTMPDIR:    .
QCFILEPREF:  ./qchem52978
QCSAVEDIR:   
workdirs:    ./qchem52978
workdir0:    ./qchem52978
partmpdirs =  
#
# parallel setting
#
QCRSH:           ssh
QCMPI:           mpich
QCMPIRUN:        /cm/shared/apps/spack/cpu/opt/spack/linux-centos8-zen2/gcc-10.2.0/qchem-5.4-akfmr7b3t57bfs6qan3padb2wnb2i7cl/bin/mpi/mpirun_qchem
QCMACHINEFILE:   ./qchem52978/hostfile
exp-7-24

#
# env setting
#
exported envs:   QC QCAUX QCSCRATCH QCRUNNAME QCFILEPREF QCPROG QCPROG_S GUIFILE

Running Job 1 of 1 Methylthiophene_Phi_50_Theta_310_Methylthiophene_Hydrogenated_Improper.qcin
qchem Methylthiophene_Phi_50_Theta_310_Methylthiophene_Hydrogenated_Improper.qcin_52978.0 ./qchem52978/ 1
/cm/shared/apps/spack/cpu/opt/spack/linux-centos8-zen2/gcc-10.2.0/qchem-5.4-akfmr7b3t57bfs6qan3padb2wnb2i7cl/bin/mpi/mpirun_qchem -machinefile ./qchem52978/hostfile -np 1 /cm/shared/apps/spack/cpu/opt/spack/linux-centos8-zen2/gcc-10.2.0/qchem-5.4-akfmr7b3t57bfs6qan3padb2wnb2i7cl/exe/qcprog.exe Methylthiophene_Phi_50_Theta_310_Methylthiophene_Hydrogenated_Improper.qcin_52978.0 ./qchem52978/

Process 0 of 1 is on exp-7-24 - thread support 0
initial socket setup ...start
initial socket setup ...done 
now start server 0 ... 
                  Welcome to Q-Chem
     A Quantum Leap Into The Future Of Chemistry


 Q-Chem 5.4, Q-Chem, Inc., Pleasanton, CA (2021)

 License issued to: University of California, San Diego (site)

 E. Epifanovsky,  A. T. B. Gilbert,  Xintian Feng,  Joonho Lee,  Yuezhi Mao,  
 N. Mardirossian,  P. Pokhilko,  A. White,  M. Wormit,  M. P. Coons,  
 A. L. Dempwolff,  Zhengting Gan,  D. Hait,  P. R. Horn,  L. D. Jacobson,  
 I. Kaliman,  J. Kussmann,  A. W. Lange,  Ka Un Lao,  D. S. Levine,  Jie Liu,  
 S. C. McKenzie,  A. F. Morrison,  K. Nanda,  F. Plasser,  D. R. Rehn,  
 M. L. Vidal,  Zhi-Qiang You,  Ying Zhu,  B. Alam,  B. Albrecht,  
 A. Aldossary,  E. Alguire,  J. H. Andersen,  D. Barton,  K. Begam,  A. Behn,  
 Y. A. Bernard,  E. J. Berquist,  H. Burton,  A. Carreras,  K. Carter-Fenk,  
 R. Chakraborty,  A. D. Chien,  K. D. Closser,  V. Cofer-Shabica,  
 S. Dasgupta,  Jia Deng,  M. de Wergifosse,  M. Diedenhofen,  Hainam Do,  
 S. Ehlert,  Po-Tung Fang,  S. Fatehi,  Qingguo Feng,  J. Gayvert,  
 Qinghui Ge,  G. Gidofalvi,  M. Goldey,  J. Gomes,  C. Gonzalez-Espinoza,  
 S. Gulania,  A. Gunina,  M. W. D. Hanson-Heine,  P. H. P. Harbach,  
 A. W. Hauser,  M. F. Herbst,  M. Hernandez Vera,  M. Hodecker,  
 Z. C. Holden,  S. Houck,  Xunkun Huang,  Kerwin Hui,  B. C. Huynh,  
 M. Ivanov,  Hyunjun Ji,  Hanjie Jiang,  B. Kaduk,  S. Kaehler,  
 K. Khistyaev,  Jaehoon Kim,  P. Klunzinger,  Z. Koczor-Benda,  
 Joong Hoon Koh,  D. Kosenkov,  L. Koulias,  T. Kowalczyk,  C. M. Krauter,  
 K. Kue,  A. Kunitsa,  T. Kus,  A. Landau,  K. V. Lawler,  D. Lefrancois,  
 S. Lehtola,  Rain Li,  Yi-Pei Li,  Jiashu Liang,  M. Liebenthal,  
 Hung-Hsuan Lin,  You-Sheng Lin,  Fenglai Liu,  Kuan-Yu Liu,  
 M. Loipersberger,  A. Luenser,  A. Manjanath,  P. Manohar,  E. Mansoor,  
 S. F. Manzer,  Shan-Ping Mao,  A. V. Marenich,  T. Markovich,  S. Mason,  
 S. A. Maurer,  P. F. McLaughlin,  M. F. S. J. Menger,  J.-M. Mewes,  
 S. A. Mewes,  P. Morgante,  J. W. Mullinax,  T. S. Nguyen-Beck,  
 K. J. Oosterbaan,  G. Paran,  Alexander C. Paul,  Suranjan K. Paul,  
 F. Pavosevic,  Zheng Pei,  S. Prager,  E. I. Proynov,  E. Ramos,  B. Rana,  
 A. E. Rask,  A. Rettig,  R. M. Richard,  F. Rob,  E. Rossomme,  T. Scheele,  
 M. Scheurer,  M. Schneider,  N. Sergueev,  S. M. Sharada,  W. Skomorowski,  
 D. W. Small,  C. J. Stein,  Yu-Chuan Su,  E. J. Sundstrom,  Zhen Tao,  
 J. Thirman,  T. Tsuchimochi,  N. M. Tubman,  S. P. Veccham,  O. Vydrov,  
 J. Wenzel,  J. Witte,  A. Yamada,  Kun Yao,  S. Yeganeh,  S. R. Yost,  
 A. Zech,  Igor Ying Zhang,  Xing Zhang,  Yu Zhang,  D. Zuev,  
 A. Aspuru-Guzik,  A. T. Bell,  N. A. Besley,  K. B. Bravaya,  B. R. Brooks,  
 D. Casanova,  Jeng-Da Chai,  S. Coriani,  C. J. Cramer,  
 A. E. DePrince, III,  R. A. DiStasio Jr.,  A. Dreuw,  B. D. Dunietz,  
 T. R. Furlani,  W. A. Goddard III,  S. Grimme,  S. Hammes-Schiffer,  
 T. Head-Gordon,  W. J. Hehre,  Chao-Ping Hsu,  T.-C. Jagau,  Yousung Jung,  
 A. Klamt,  Jing Kong,  D. S. Lambrecht,  WanZhen Liang,  N. J. Mayhall,  
 C. W. McCurdy,  J. B. Neaton,  C. Ochsenfeld,  J. A. Parkhill,  R. Peverati,  
 V. A. Rassolov,  Yihan Shao,  L. V. Slipchenko,  T. Stauch,  R. P. Steele,  
 J. E. Subotnik,  A. J. W. Thom,  A. Tkatchenko,  D. G. Truhlar,  
 T. Van Voorhis,  T. A. Wesolowski,  K. B. Whaley,  H. L. Woodcock III,  
 P. M. Zimmerman,  S. Faraji,  P. M. W. Gill,  M. Head-Gordon,  
 J. M. Herbert,  A. I. Krylov

 Contributors to earlier versions of Q-Chem not listed above: 
 R. D. Adamson,  B. Austin,  R. Baer,  J. Baker,  G. J. O. Beran,  
 K. Brandhorst,  S. T. Brown,  E. F. C. Byrd,  A. K. Chakraborty,  
 G. K. L. Chan,  Chun-Min Chang,  Yunqing Chen,  C.-L. Cheng,  
 Siu Hung Chien,  D. M. Chipman,  D. L. Crittenden,  H. Dachsel,  
 R. J. Doerksen,  A. D. Dutoi,  R. G. Edgar,  J. Fosso-Tande,  
 L. Fusti-Molnar,  D. Ghosh,  A. Ghysels,  A. Golubeva-Zadorozhnaya,  
 J. Gonthier,  M. S. Gordon,  S. R. Gwaltney,  G. Hawkins,  J. E. Herr,  
 A. Heyden,  S. Hirata,  E. G. Hohenstein,  G. Kedziora,  F. J. Keil,  
 C. Kelley,  Jihan Kim,  R. A. King,  R. Z. Khaliullin,  P. P. Korambath,  
 W. Kurlancheek,  A. Laurent,  A. M. Lee,  M. S. Lee,  S. V. Levchenko,  
 Ching Yeh Lin,  D. Liotard,  E. Livshits,  R. C. Lochan,  I. Lotan,  
 L. A. Martinez-Martinez,  P. E. Maslen,  N. Nair,  D. P. O'Neill,  
 D. Neuhauser,  E. Neuscamman,  C. M. Oana,  R. Olivares-Amaya,  R. Olson,  
 T. M. Perrine,  B. Peters,  P. A. Pieniazek,  A. Prociuk,  Y. M. Rhee,  
 J. Ritchie,  M. A. Rohrdanz,  E. Rosta,  N. J. Russ,  H. F. Schaefer III,  
 M. W. Schmidt,  N. E. Schultz,  S. Sharma,  N. Shenvi,  C. D. Sherrill,  
 A. C. Simmonett,  A. Sodt,  T. Stein,  D. Stuck,  K. S. Thanthiriwatte,  
 V. Vanovschi,  L. Vogt,  Tao Wang,  A. Warshel,  M. A. Watson,  
 C. F. Williams,  Q. Wu,  X. Xu,  Jun Yang,  W. Zhang,  Yan Zhao

 Please cite Q-Chem as follows:
 Y. Shao et al., Mol. Phys. 113, 184-215 (2015)
 DOI: 10.1080/00268976.2014.952696

 Q-Chem 5.4.0 for Intel X86 EM64T Linux

 Parts of Q-Chem use Armadillo 9.800.1 (Horizon Scraper).
 http://arma.sourceforge.net/

 Q-Chem begins on Fri Dec 15 14:06:24 2023  

 Host: 
0

     Scratch files written to ./qchem52978//
 May1621 |scratch|qcdevops|jenkins|workspace|build_RNUM    
 Parallel job on  1  processors
 Processing $rem in /cm/shared/apps/spack/cpu/opt/spack/linux-centos8-zen2/gcc-10.2.0/qchem-5.4-akfmr7b3t57bfs6qan3padb2wnb2i7cl/config/preferences:
 Processing $rem in /home/rramji/.qchemrc:
 Symmetry turned off for PCM/SM12/SMD calculation
 Core orbitals will be frozen

 Checking the input file for inconsistencies... 	...done.

 Q-Chem warning in module forms1/BasisType.C, line 2236:

 You are not using the predefined 5D/6D in this basis set.


--------------------------------------------------------------
User input:
--------------------------------------------------------------
$molecule
0 1
C	-0.522126	-0.335659	0.004642
C	0.122874	0.209641	1.117642
C	1.185474	1.107341	0.825242
H	-0.173526	-0.040859	2.147542
C	1.375074	1.267341	-0.558958
S	0.219074	0.291041	-1.460058
C	1.998674	1.794341	1.887042
H	1.656474	1.505341	2.899642
H	1.923874	2.899441	1.812742
H	3.075674	1.535941	1.812842
C	-0.522126	-1.785759	0.004642
H	0.172074	-1.786259	-0.822658
H	0.196374	-2.320859	0.607842
H	-1.160626	-2.472959	-0.530658
H	2.106874	1.885641	-1.092458
$end

$rem
JOBTYPE		SP
EXCHANGE	HF
CORRELATION	pRIMP2
BASIS		cc-pvtz
METHOD		rimp2
AUX_BASIS	rimp2-cc-pvtz
SOLVENT_METHOD	PCM
PURECART	11111
SYMMETRY	false
MEM_TOTAL	110000
SCF_CONVERGENCE = 6
THRESH=10
GUI = 2
$end



$solvent
dielectric 4.90
$end
--------------------------------------------------------------
 ----------------------------------------------------------------
             Standard Nuclear Orientation (Angstroms)
    I     Atom           X                Y                Z
 ----------------------------------------------------------------
    1      C      -0.5221260000    -0.3356590000     0.0046420000
    2      C       0.1228740000     0.2096410000     1.1176420000
    3      C       1.1854740000     1.1073410000     0.8252420000
    4      H      -0.1735260000    -0.0408590000     2.1475420000
    5      C       1.3750740000     1.2673410000    -0.5589580000
    6      S       0.2190740000     0.2910410000    -1.4600580000
    7      C       1.9986740000     1.7943410000     1.8870420000
    8      H       1.6564740000     1.5053410000     2.8996420000
    9      H       1.9238740000     2.8994410000     1.8127420000
   10      H       3.0756740000     1.5359410000     1.8128420000
   11      C      -0.5221260000    -1.7857590000     0.0046420000
   12      H       0.1720740000    -1.7862590000    -0.8226580000
   13      H       0.1963740000    -2.3208590000     0.6078420000
   14      H      -1.1606260000    -2.4729590000    -0.5306580000
   15      H       2.1068740000     1.8856410000    -1.0924580000
 ----------------------------------------------------------------
 Nuclear Repulsion Energy =         349.63450992 hartrees
 There are       30 alpha and       30 beta electrons
 Requested basis set is cc-pVTZ
 There are 120 shells and 326 basis functions

 Total QAlloc Memory Limit 110000 MB
 Mega-Array Size       188 MB
 MEM_STATIC part       192 MB
 Discretize the solute cavity surface with Lebedev spheres
	Using 110 Lebedev grid points for each H atom
	Using 194 Lebedev grid points for other atoms
	Atomic van der Waals radii will be scaled by 1.20
 Remove points where switching function is < 1.0e-08
 Keep 1041 surface tesserae and discard 1197 interior tesserae
 Molecular Surface Area = 156.089 Angst**2

                       Distance Matrix (Angstroms)
             C (  1)   C (  2)   C (  3)   H (  4)   C (  5)   S (  6)
   C (  2)  1.397192
   C (  3)  2.381498  1.421437
   H (  4)  2.190993  1.100589  2.216692
   C (  5)  2.546885  2.344722  1.406257  3.381522
   S (  6)  1.757122  2.580779  2.612063  3.644046  1.761102
   C (  7)  3.799311  2.573301  1.503557  2.855569  2.578667  4.077985
   H (  8)  4.064062  2.684454  2.164112  2.511033  3.478181  4.748434
   H (  9)  4.440497  3.310859  2.175319  3.627195  2.930852  4.518995
   H ( 10)  4.440342  3.310801  2.175295  3.627068  2.930806  4.519050
   C ( 11)  1.450100  2.374114  3.458223  2.785358  3.638466  2.647229
   H ( 12)  1.808474  2.784026  3.480729  3.462362  3.292601  2.173399
   H ( 13)  2.195703  2.582388  3.574652  2.775951  3.952965  3.331478
   H ( 14)  2.293966  3.400089  4.490122  3.749964  4.518896  3.225996
   H ( 15)  3.612401  3.410245  2.265458  4.405590  1.096562  2.498333
             C (  7)   H (  8)   H (  9)   H ( 10)   C ( 11)   H ( 12)
   H (  8)  1.107240
   H (  9)  1.110118  1.787839
   H ( 10)  1.110047  1.787792  1.784874
   C ( 11)  4.766023  4.894759  5.585986  5.219908
   H ( 12)  4.847643  5.185903  5.654195  5.139432  1.079972
   H ( 13)  4.671136  4.692978  5.629172  4.961582  1.080011  1.527324
   H ( 14)  5.834064  5.960695  6.623318  6.285659  1.080033  1.527387
   H ( 15)  2.982862  4.035387  3.082445  3.082472  4.646983  4.159218
             H ( 13)   H ( 14)
   H ( 14)  1.777854
   H ( 15)  4.922974  5.476273
 
 Requested basis set is rimp2-cc-pVTZ
 There are 250 shells and 848 basis functions
 A cutoff of  1.0D-10 yielded   6326 shell pairs
 There are     46542 function pairs (     59891 Cartesian)
 Smallest overlap matrix eigenvalue = 1.25E-04

 Scale SEOQF with 1.000000e-01/1.000000e-01/1.000000e-01

 Standard Electronic Orientation quadrupole field applied
 Nucleus-field energy     =    -0.0000000009 hartrees
 Guess from superposition of atomic densities
 Warning:  Energy on first SCF cycle will be non-variational
 SAD guess density has 60.000000 electrons

 -----------------------------------------------------------------------
  General SCF calculation program by
  Eric Jon Sundstrom, Paul Horn, Yuezhi Mao, Dmitri Zuev, Alec White,
  David Stuck, Shaama M.S., Shane Yost, Joonho Lee, David Small,
  Daniel Levine, Susi Lehtola, Hugh Burton, Evgeny Epifanovsky,
  Bang C. Huynh
 -----------------------------------------------------------------------
 Hartree-Fock
 using 64 threads for integral computing
 -------------------------------------------------------
 OpenMP Integral computing Module                
 Release: version 1.0, May 2013, Q-Chem Inc. Pittsburgh 
 -------------------------------------------------------
 A restricted SCF calculation will be
 performed using DIIS
 SCF converges when DIIS error is below 1.0e-06
 ---------------------------------------
  Cycle       Energy         DIIS error
 ---------------------------------------
    1    -632.1876374182      2.95e-02  
    2    -629.2877986368      1.93e-03  
    3    -629.3588124435      6.58e-04  
    4    -629.3663358630      3.25e-04  
    5    -629.3682881584      6.44e-05  
    6    -629.3684421797      2.76e-05  
    7    -629.3684868078      1.27e-05  
    8    -629.3685004862      4.55e-06  
    9    -629.3685022982      1.69e-06  
   10    -629.3685024494      6.71e-07  Convergence criterion met
 ---------------------------------------
 SCF time:   CPU 696.59s  wall 15.00s 

************** Final PCM Free Energy Summary **************
 G_electrostatic  =      -0.00537534 hartree =      -3.37307835 kcal/mol
 G_cavitation     =       0.00000000 hartree =       0.00000000 kcal/mol
 G_dispersion     =       0.00000000 hartree =       0.00000000 kcal/mol
 G_repulsion      =       0.00000000 hartree =       0.00000000 kcal/mol
 --------------------------------------------------
 Non-electrostatic Free Energy =       0.00000000 hartree =       0.00000000 kcal/mol
 Total                         =      -0.00537534 hartree =      -3.37307835 kcal/mol
 --------------------------------------------------
 SCF Energy (H0 + V/2)                       =    -629.36850245 
 Solute Internal Energy (H0)                 =    -629.36312711 
 Total Free Energy (H0 + V/2 + non-elec)     =    -629.36850245 hartree
                                             = -394934.69603609 kcal/mol
***********************************************************

 SCF   energy in the final basis set =     -629.3685024494
 Total energy in the final basis set =     -629.3685024494


 --------------------------------------------------------------
  Generalized many-body perturbation theory program
  by Joonho Lee, Fazle Rob, Xintian Feng, Evgeny Epifanovsky

 No regularization used 
 (reg. param. = 0.0000e+00)
  (P|Q)^-1/2 Time:  CPU 7.14 s  wall 0.12 s

 In RI-MP2 calculation: 
 # of frozen core orbitals: 11

 Components of the RIMP2 correlation energy:
        aaaa    correlation energy =        -0.1471072463 a.u.
        abab    correlation energy =        -0.8930359887 a.u.
        bbbb    correlation energy =        -0.1471072463 a.u.
        non-Brillouin singles      =        -0.0000000000 a.u.
        total same-spin energy     =        -0.2942144926 a.u.
        total opposite-spin energy =        -0.8930359887 a.u.

 Total  RIMP2   correlation energy =        -1.1872504813 a.u.
        RIMP2         total energy =      -630.5557529307 a.u.

 RI-MP2 Energy Time:  CPU 35.61 s  wall 0.62 s
 
 --------------------------------------------------------------
 
                    Orbital Energies (a.u.)
 --------------------------------------------------------------
 
 Alpha MOs
 -- Occupied --
-91.9714 -11.2723 -11.2603 -11.2483 -11.2440 -11.2285 -11.2098  -8.9729
 -6.6538  -6.6530  -6.6526  -1.1710  -1.0564  -0.9945  -0.9424  -0.8796
 -0.7524  -0.7249  -0.6434  -0.5891  -0.5818  -0.5652  -0.5514  -0.5467
 -0.5137  -0.4834  -0.4612  -0.4375  -0.3365  -0.2956
 -- Virtual --
  0.0736   0.1429   0.1586   0.1769   0.1848   0.1887   0.2048   0.2217
  0.2283   0.2464   0.2491   0.2550   0.2888   0.3105   0.3460   0.3537
  0.3670   0.3963   0.4090   0.4251   0.4329   0.4494   0.4646   0.4668
  0.4815   0.4901   0.5133   0.5326   0.5402   0.5560   0.5693   0.5906
  0.5943   0.5977   0.6042   0.6183   0.6277   0.6349   0.6400   0.6456
  0.6567   0.6704   0.6801   0.7000   0.7213   0.7347   0.7629   0.7849
  0.8014   0.8069   0.8248   0.8579   0.8789   0.8870   0.8923   0.9389
  0.9453   0.9779   1.0016   1.0352   1.0521   1.0562   1.0669   1.0794
  1.0914   1.1006   1.1311   1.1403   1.1687   1.1886   1.2060   1.2169
  1.2208   1.2376   1.2483   1.2689   1.2704   1.2904   1.3047   1.3211
  1.3694   1.3943   1.4045   1.4061   1.4235   1.4275   1.4609   1.4758
  1.4841   1.4918   1.5071   1.5243   1.5516   1.5580   1.5651   1.5698
  1.5995   1.6362   1.6552   1.6690   1.6864   1.7075   1.7194   1.7463
  1.7555   1.7695   1.7934   1.8406   1.8866   1.9119   1.9389   1.9606
  1.9658   2.0594   2.0721   2.1338   2.1519   2.1950   2.1978   2.2140
  2.2617   2.2737   2.3624   2.4103   2.4353   2.4838   2.5281   2.5486
  2.5571   2.5953   2.6398   2.6540   2.6705   2.6808   2.7105   2.7366
  2.7449   2.7710   2.8085   2.8126   2.8186   2.8356   2.8375   2.9046
  2.9122   2.9370   2.9654   2.9879   3.0009   3.0328   3.0499   3.0831
  3.0928   3.1098   3.1116   3.1366   3.1617   3.1705   3.1805   3.2004
  3.2322   3.2383   3.2563   3.2652   3.2865   3.2960   3.3135   3.3316
  3.3378   3.3487   3.3746   3.3877   3.3942   3.4144   3.4175   3.4387
  3.4614   3.4715   3.4889   3.5053   3.5136   3.5289   3.5431   3.5593
  3.5787   3.5862   3.6160   3.6276   3.6353   3.6606   3.6793   3.6878
  3.7093   3.7284   3.7442   3.7499   3.7800   3.7937   3.7980   3.8122
  3.8351   3.8560   3.8790   3.8875   3.9128   3.9176   3.9422   3.9523
  3.9705   4.0233   4.0295   4.0466   4.0577   4.0606   4.0934   4.1149
  4.1442   4.1724   4.1759   4.2036   4.2220   4.2309   4.2450   4.2645
  4.2858   4.2946   4.3127   4.3321   4.3572   4.3672   4.4000   4.4067
  4.4183   4.4299   4.4628   4.4859   4.5025   4.5323   4.5528   4.5843
  4.5974   4.6471   4.6635   4.6769   4.6919   4.7430   4.7480   4.7846
  4.8110   4.8190   4.8620   4.8913   4.9274   4.9404   4.9950   5.0931
  5.1065   5.1354   5.1549   5.1925   5.2181   5.2645   5.2874   5.3196
  5.3638   5.4024   5.4267   5.4449   5.4747   5.5033   5.5475   5.5531
  5.5883   5.6149   5.6242   5.6618   5.6993   5.8097   5.8426   5.8768
  5.9143   5.9279   6.0565   6.0980   6.2106   6.2288   6.2645   6.3403
  6.4312   6.4723   9.3125  11.6123  12.8134  13.6013  14.1742  14.3409
 --------------------------------------------------------------
 
          Ground-State Mulliken Net Atomic Charges

     Atom                 Charge (a.u.)
  ----------------------------------------
      1 C                    -0.037705
      2 C                    -0.194206
      3 C                     0.008435
      4 H                     0.182042
      5 C                    -0.214018
      6 S                    -0.004230
      7 C                    -0.268429
      8 H                     0.101877
      9 H                     0.107777
     10 H                     0.105584
     11 C                    -0.379332
     12 H                     0.135286
     13 H                     0.132769
     14 H                     0.127975
     15 H                     0.196176
  ----------------------------------------
  Sum of atomic charges =     0.000000

 -----------------------------------------------------------------
                    Cartesian Multipole Moments
 -----------------------------------------------------------------
    Charge (ESU x 10^10)
                -0.0000
    Dipole Moment (Debye)
         X       2.1622      Y       0.0224      Z       1.2629
       Tot       2.5041
    Quadrupole Moments (Debye-Ang)
        XX     -49.7396     XY       3.8034     YY     -48.3563
        XZ       0.3987     YZ       1.2561     ZZ     -48.1528
    Octopole Moments (Debye-Ang^2)
       XXX     -72.7487    XXY      -8.5182    XYY     -18.6303
       YYY     -49.1785    XXZ      -5.0460    XYZ      -3.4828
       YYZ      -5.8846    XZZ     -23.5259    YZZ     -13.9820
       ZZZ       1.5130
    Hexadecapole Moments (Debye-Ang^3)
      XXXX    -393.6874   XXXY    -150.5670   XXYY    -139.2383
      XYYY    -156.1814   YYYY    -486.7840   XXXZ     -78.5949
      XXYZ     -25.6344   XYYZ     -25.1980   YYYZ     -62.1224
      XXZZ    -145.3945   XYZZ     -44.9790   YYZZ    -163.7895
      XZZZ     -80.4882   YZZZ     -66.7608   ZZZZ    -488.1735
 -----------------------------------------------------------------
 Total job time:  17.50s(wall), 770.13s(cpu) 
 Fri Dec 15 14:06:42 2023

        *************************************************************
        *                                                           *
        *  Thank you very much for using Q-Chem.  Have a nice day.  *
        *                                                           *
        *************************************************************


0 sent ACK to 0 
now end server 0 ... 
cleanup process ... done
remove work dirs ./qchem52978.0 -- ./qchem52978.0
rm -rf ./qchem52978.0
rm -rf ./qchem52978
