You are running Q-Chem version: 5.4.0

#
# job setting
#
local host:  exp-7-24
current dir: /home/rramji/project-csd799/aromodel/p3ht-qchem/methylated-rotation-run
input file:  Methylthiophene_Phi_50_Theta_50_Methylthiophene_Hydrogenated_Improper.qcin
output file: 
nprocs     : 1
nthreads   : 64
#
# qchem installation setting
#
QC:          /cm/shared/apps/spack/cpu/opt/spack/linux-centos8-zen2/gcc-10.2.0/qchem-5.4-akfmr7b3t57bfs6qan3padb2wnb2i7cl
QCAUX:       /cm/shared/apps/spack/cpu/opt/spack/linux-centos8-zen2/gcc-10.2.0/qchem-5.4-akfmr7b3t57bfs6qan3padb2wnb2i7cl/qcaux
QCPROG:      /cm/shared/apps/spack/cpu/opt/spack/linux-centos8-zen2/gcc-10.2.0/qchem-5.4-akfmr7b3t57bfs6qan3padb2wnb2i7cl/exe/qcprog.exe
QCPROG_S:    /cm/shared/apps/spack/cpu/opt/spack/linux-centos8-zen2/gcc-10.2.0/qchem-5.4-akfmr7b3t57bfs6qan3padb2wnb2i7cl/exe/qcprog.exe_s
PARALLEL:    -DPARALLEL
QCMPI:       mpich
#
# qchem directory setting
#
qcrun:       qchem43694
QCSCRATCH:   .
QCLOCALSCR:  
QCTMPDIR:    .
QCFILEPREF:  ./qchem43694
QCSAVEDIR:   
workdirs:    ./qchem43694
workdir0:    ./qchem43694
partmpdirs =  
#
# parallel setting
#
QCRSH:           ssh
QCMPI:           mpich
QCMPIRUN:        /cm/shared/apps/spack/cpu/opt/spack/linux-centos8-zen2/gcc-10.2.0/qchem-5.4-akfmr7b3t57bfs6qan3padb2wnb2i7cl/bin/mpi/mpirun_qchem
QCMACHINEFILE:   ./qchem43694/hostfile
exp-7-24

#
# env setting
#
exported envs:   QC QCAUX QCSCRATCH QCRUNNAME QCFILEPREF QCPROG QCPROG_S GUIFILE

Running Job 1 of 1 Methylthiophene_Phi_50_Theta_50_Methylthiophene_Hydrogenated_Improper.qcin
qchem Methylthiophene_Phi_50_Theta_50_Methylthiophene_Hydrogenated_Improper.qcin_43694.0 ./qchem43694/ 1
/cm/shared/apps/spack/cpu/opt/spack/linux-centos8-zen2/gcc-10.2.0/qchem-5.4-akfmr7b3t57bfs6qan3padb2wnb2i7cl/bin/mpi/mpirun_qchem -machinefile ./qchem43694/hostfile -np 1 /cm/shared/apps/spack/cpu/opt/spack/linux-centos8-zen2/gcc-10.2.0/qchem-5.4-akfmr7b3t57bfs6qan3padb2wnb2i7cl/exe/qcprog.exe Methylthiophene_Phi_50_Theta_50_Methylthiophene_Hydrogenated_Improper.qcin_43694.0 ./qchem43694/

Process 0 of 1 is on exp-7-24 - thread support 0
initial socket setup ...start
initial socket setup ...done 
now start server 0 ... 
                  Welcome to Q-Chem
     A Quantum Leap Into The Future Of Chemistry


 Q-Chem 5.4, Q-Chem, Inc., Pleasanton, CA (2021)

 License issued to: University of California, San Diego (site)

 E. Epifanovsky,  A. T. B. Gilbert,  Xintian Feng,  Joonho Lee,  Yuezhi Mao,  
 N. Mardirossian,  P. Pokhilko,  A. White,  M. Wormit,  M. P. Coons,  
 A. L. Dempwolff,  Zhengting Gan,  D. Hait,  P. R. Horn,  L. D. Jacobson,  
 I. Kaliman,  J. Kussmann,  A. W. Lange,  Ka Un Lao,  D. S. Levine,  Jie Liu,  
 S. C. McKenzie,  A. F. Morrison,  K. Nanda,  F. Plasser,  D. R. Rehn,  
 M. L. Vidal,  Zhi-Qiang You,  Ying Zhu,  B. Alam,  B. Albrecht,  
 A. Aldossary,  E. Alguire,  J. H. Andersen,  D. Barton,  K. Begam,  A. Behn,  
 Y. A. Bernard,  E. J. Berquist,  H. Burton,  A. Carreras,  K. Carter-Fenk,  
 R. Chakraborty,  A. D. Chien,  K. D. Closser,  V. Cofer-Shabica,  
 S. Dasgupta,  Jia Deng,  M. de Wergifosse,  M. Diedenhofen,  Hainam Do,  
 S. Ehlert,  Po-Tung Fang,  S. Fatehi,  Qingguo Feng,  J. Gayvert,  
 Qinghui Ge,  G. Gidofalvi,  M. Goldey,  J. Gomes,  C. Gonzalez-Espinoza,  
 S. Gulania,  A. Gunina,  M. W. D. Hanson-Heine,  P. H. P. Harbach,  
 A. W. Hauser,  M. F. Herbst,  M. Hernandez Vera,  M. Hodecker,  
 Z. C. Holden,  S. Houck,  Xunkun Huang,  Kerwin Hui,  B. C. Huynh,  
 M. Ivanov,  Hyunjun Ji,  Hanjie Jiang,  B. Kaduk,  S. Kaehler,  
 K. Khistyaev,  Jaehoon Kim,  P. Klunzinger,  Z. Koczor-Benda,  
 Joong Hoon Koh,  D. Kosenkov,  L. Koulias,  T. Kowalczyk,  C. M. Krauter,  
 K. Kue,  A. Kunitsa,  T. Kus,  A. Landau,  K. V. Lawler,  D. Lefrancois,  
 S. Lehtola,  Rain Li,  Yi-Pei Li,  Jiashu Liang,  M. Liebenthal,  
 Hung-Hsuan Lin,  You-Sheng Lin,  Fenglai Liu,  Kuan-Yu Liu,  
 M. Loipersberger,  A. Luenser,  A. Manjanath,  P. Manohar,  E. Mansoor,  
 S. F. Manzer,  Shan-Ping Mao,  A. V. Marenich,  T. Markovich,  S. Mason,  
 S. A. Maurer,  P. F. McLaughlin,  M. F. S. J. Menger,  J.-M. Mewes,  
 S. A. Mewes,  P. Morgante,  J. W. Mullinax,  T. S. Nguyen-Beck,  
 K. J. Oosterbaan,  G. Paran,  Alexander C. Paul,  Suranjan K. Paul,  
 F. Pavosevic,  Zheng Pei,  S. Prager,  E. I. Proynov,  E. Ramos,  B. Rana,  
 A. E. Rask,  A. Rettig,  R. M. Richard,  F. Rob,  E. Rossomme,  T. Scheele,  
 M. Scheurer,  M. Schneider,  N. Sergueev,  S. M. Sharada,  W. Skomorowski,  
 D. W. Small,  C. J. Stein,  Yu-Chuan Su,  E. J. Sundstrom,  Zhen Tao,  
 J. Thirman,  T. Tsuchimochi,  N. M. Tubman,  S. P. Veccham,  O. Vydrov,  
 J. Wenzel,  J. Witte,  A. Yamada,  Kun Yao,  S. Yeganeh,  S. R. Yost,  
 A. Zech,  Igor Ying Zhang,  Xing Zhang,  Yu Zhang,  D. Zuev,  
 A. Aspuru-Guzik,  A. T. Bell,  N. A. Besley,  K. B. Bravaya,  B. R. Brooks,  
 D. Casanova,  Jeng-Da Chai,  S. Coriani,  C. J. Cramer,  
 A. E. DePrince, III,  R. A. DiStasio Jr.,  A. Dreuw,  B. D. Dunietz,  
 T. R. Furlani,  W. A. Goddard III,  S. Grimme,  S. Hammes-Schiffer,  
 T. Head-Gordon,  W. J. Hehre,  Chao-Ping Hsu,  T.-C. Jagau,  Yousung Jung,  
 A. Klamt,  Jing Kong,  D. S. Lambrecht,  WanZhen Liang,  N. J. Mayhall,  
 C. W. McCurdy,  J. B. Neaton,  C. Ochsenfeld,  J. A. Parkhill,  R. Peverati,  
 V. A. Rassolov,  Yihan Shao,  L. V. Slipchenko,  T. Stauch,  R. P. Steele,  
 J. E. Subotnik,  A. J. W. Thom,  A. Tkatchenko,  D. G. Truhlar,  
 T. Van Voorhis,  T. A. Wesolowski,  K. B. Whaley,  H. L. Woodcock III,  
 P. M. Zimmerman,  S. Faraji,  P. M. W. Gill,  M. Head-Gordon,  
 J. M. Herbert,  A. I. Krylov

 Contributors to earlier versions of Q-Chem not listed above: 
 R. D. Adamson,  B. Austin,  R. Baer,  J. Baker,  G. J. O. Beran,  
 K. Brandhorst,  S. T. Brown,  E. F. C. Byrd,  A. K. Chakraborty,  
 G. K. L. Chan,  Chun-Min Chang,  Yunqing Chen,  C.-L. Cheng,  
 Siu Hung Chien,  D. M. Chipman,  D. L. Crittenden,  H. Dachsel,  
 R. J. Doerksen,  A. D. Dutoi,  R. G. Edgar,  J. Fosso-Tande,  
 L. Fusti-Molnar,  D. Ghosh,  A. Ghysels,  A. Golubeva-Zadorozhnaya,  
 J. Gonthier,  M. S. Gordon,  S. R. Gwaltney,  G. Hawkins,  J. E. Herr,  
 A. Heyden,  S. Hirata,  E. G. Hohenstein,  G. Kedziora,  F. J. Keil,  
 C. Kelley,  Jihan Kim,  R. A. King,  R. Z. Khaliullin,  P. P. Korambath,  
 W. Kurlancheek,  A. Laurent,  A. M. Lee,  M. S. Lee,  S. V. Levchenko,  
 Ching Yeh Lin,  D. Liotard,  E. Livshits,  R. C. Lochan,  I. Lotan,  
 L. A. Martinez-Martinez,  P. E. Maslen,  N. Nair,  D. P. O'Neill,  
 D. Neuhauser,  E. Neuscamman,  C. M. Oana,  R. Olivares-Amaya,  R. Olson,  
 T. M. Perrine,  B. Peters,  P. A. Pieniazek,  A. Prociuk,  Y. M. Rhee,  
 J. Ritchie,  M. A. Rohrdanz,  E. Rosta,  N. J. Russ,  H. F. Schaefer III,  
 M. W. Schmidt,  N. E. Schultz,  S. Sharma,  N. Shenvi,  C. D. Sherrill,  
 A. C. Simmonett,  A. Sodt,  T. Stein,  D. Stuck,  K. S. Thanthiriwatte,  
 V. Vanovschi,  L. Vogt,  Tao Wang,  A. Warshel,  M. A. Watson,  
 C. F. Williams,  Q. Wu,  X. Xu,  Jun Yang,  W. Zhang,  Yan Zhao

 Please cite Q-Chem as follows:
 Y. Shao et al., Mol. Phys. 113, 184-215 (2015)
 DOI: 10.1080/00268976.2014.952696

 Q-Chem 5.4.0 for Intel X86 EM64T Linux

 Parts of Q-Chem use Armadillo 9.800.1 (Horizon Scraper).
 http://arma.sourceforge.net/

 Q-Chem begins on Fri Dec 15 13:56:43 2023  

 Host: 
0

     Scratch files written to ./qchem43694//
 May1621 |scratch|qcdevops|jenkins|workspace|build_RNUM    
 Parallel job on  1  processors
 Processing $rem in /cm/shared/apps/spack/cpu/opt/spack/linux-centos8-zen2/gcc-10.2.0/qchem-5.4-akfmr7b3t57bfs6qan3padb2wnb2i7cl/config/preferences:
 Processing $rem in /home/rramji/.qchemrc:
 Symmetry turned off for PCM/SM12/SMD calculation
 Core orbitals will be frozen

 Checking the input file for inconsistencies... 	...done.

 Q-Chem warning in module forms1/BasisType.C, line 2236:

 You are not using the predefined 5D/6D in this basis set.


--------------------------------------------------------------
User input:
--------------------------------------------------------------
$molecule
0 1
C	-0.521404	-0.335659	-0.002787
C	0.123596	0.209641	1.110213
C	1.186196	1.107341	0.817813
H	-0.172804	-0.040859	2.140113
C	1.375796	1.267341	-0.566387
S	0.219796	0.291041	-1.467487
C	1.999396	1.794341	1.879613
H	1.657196	1.505341	2.892213
H	1.924596	2.899441	1.805313
H	3.076396	1.535941	1.805413
C	-0.521404	-1.785759	-0.002787
H	0.172796	-1.786259	0.824513
H	-1.240204	-2.320859	0.600113
H	0.116696	-2.472959	-0.538587
H	2.107596	1.885641	-1.099887
$end

$rem
JOBTYPE		SP
EXCHANGE	HF
CORRELATION	pRIMP2
BASIS		cc-pvtz
METHOD		rimp2
AUX_BASIS	rimp2-cc-pvtz
SOLVENT_METHOD	PCM
PURECART	11111
SYMMETRY	false
MEM_TOTAL	110000
SCF_CONVERGENCE = 6
THRESH=10
GUI = 2
$end



$solvent
dielectric 4.90
$end
--------------------------------------------------------------
 ----------------------------------------------------------------
             Standard Nuclear Orientation (Angstroms)
    I     Atom           X                Y                Z
 ----------------------------------------------------------------
    1      C      -0.5214040000    -0.3356590000    -0.0027870000
    2      C       0.1235960000     0.2096410000     1.1102130000
    3      C       1.1861960000     1.1073410000     0.8178130000
    4      H      -0.1728040000    -0.0408590000     2.1401130000
    5      C       1.3757960000     1.2673410000    -0.5663870000
    6      S       0.2197960000     0.2910410000    -1.4674870000
    7      C       1.9993960000     1.7943410000     1.8796130000
    8      H       1.6571960000     1.5053410000     2.8922130000
    9      H       1.9245960000     2.8994410000     1.8053130000
   10      H       3.0763960000     1.5359410000     1.8054130000
   11      C      -0.5214040000    -1.7857590000    -0.0027870000
   12      H       0.1727960000    -1.7862590000     0.8245130000
   13      H      -1.2402040000    -2.3208590000     0.6001130000
   14      H       0.1166960000    -2.4729590000    -0.5385870000
   15      H       2.1075960000     1.8856410000    -1.0998870000
 ----------------------------------------------------------------
 Nuclear Repulsion Energy =         349.08613916 hartrees
 There are       30 alpha and       30 beta electrons
 Requested basis set is cc-pVTZ
 There are 120 shells and 326 basis functions

 Total QAlloc Memory Limit 110000 MB
 Mega-Array Size       188 MB
 MEM_STATIC part       192 MB
 Discretize the solute cavity surface with Lebedev spheres
	Using 110 Lebedev grid points for each H atom
	Using 194 Lebedev grid points for other atoms
	Atomic van der Waals radii will be scaled by 1.20
 Remove points where switching function is < 1.0e-08
 Keep 1044 surface tesserae and discard 1194 interior tesserae
 Molecular Surface Area = 156.380 Angst**2

                       Distance Matrix (Angstroms)
             C (  1)   C (  2)   C (  3)   H (  4)   C (  5)   S (  6)
   C (  2)  1.397192
   C (  3)  2.381498  1.421437
   H (  4)  2.190993  1.100589  2.216692
   C (  5)  2.546885  2.344722  1.406257  3.381522
   S (  6)  1.757122  2.580779  2.612063  3.644046  1.761102
   C (  7)  3.799311  2.573301  1.503557  2.855569  2.578667  4.077985
   H (  8)  4.064062  2.684454  2.164112  2.511033  3.478181  4.748434
   H (  9)  4.440497  3.310859  2.175319  3.627195  2.930852  4.518995
   H ( 10)  4.440342  3.310801  2.175295  3.627068  2.930806  4.519050
   C ( 11)  1.450100  2.374114  3.458223  2.785358  3.638466  2.647229
   H ( 12)  1.808474  2.016845  3.065933  2.212841  3.564588  3.093646
   H ( 13)  2.195719  2.919518  4.205635  2.951160  4.591226  3.637113
   H ( 14)  2.293971  3.148798  3.975198  3.629649  3.946638  2.917736
   H ( 15)  3.612401  3.410245  2.265458  4.405590  1.096562  2.498333
             C (  7)   H (  8)   H (  9)   H ( 10)   C ( 11)   H ( 12)
   H (  8)  1.107240
   H (  9)  1.110118  1.787839
   H ( 10)  1.110047  1.787792  1.784874
   C ( 11)  4.766023  4.894759  5.585986  5.219908
   H ( 12)  4.155767  4.160944  5.097701  4.519964  1.079972
   H ( 13)  5.391382  5.318689  6.222540  5.912757  1.080043  1.527325
   H ( 14)  5.253770  5.474523  6.133926  5.506854  1.080045  1.527333
   H ( 15)  2.982862  4.035387  3.082445  3.082472  4.646983  4.574890
             H ( 13)   H ( 14)
   H ( 14)  1.777906
   H ( 15)  5.638476  4.824535
 
 Requested basis set is rimp2-cc-pVTZ
 There are 250 shells and 848 basis functions
 A cutoff of  1.0D-10 yielded   6343 shell pairs
 There are     46561 function pairs (     59848 Cartesian)
 Smallest overlap matrix eigenvalue = 1.28E-04

 Scale SEOQF with 1.000000e-01/1.000000e-01/1.000000e-01

 Standard Electronic Orientation quadrupole field applied
 Nucleus-field energy     =    -0.0000000009 hartrees
 Guess from superposition of atomic densities
 Warning:  Energy on first SCF cycle will be non-variational
 SAD guess density has 60.000000 electrons

 -----------------------------------------------------------------------
  General SCF calculation program by
  Eric Jon Sundstrom, Paul Horn, Yuezhi Mao, Dmitri Zuev, Alec White,
  David Stuck, Shaama M.S., Shane Yost, Joonho Lee, David Small,
  Daniel Levine, Susi Lehtola, Hugh Burton, Evgeny Epifanovsky,
  Bang C. Huynh
 -----------------------------------------------------------------------
 Hartree-Fock
 using 64 threads for integral computing
 -------------------------------------------------------
 OpenMP Integral computing Module                
 Release: version 1.0, May 2013, Q-Chem Inc. Pittsburgh 
 -------------------------------------------------------
 A restricted SCF calculation will be
 performed using DIIS
 SCF converges when DIIS error is below 1.0e-06
 ---------------------------------------
  Cycle       Energy         DIIS error
 ---------------------------------------
    1    -632.1799627596      2.94e-02  
    2    -629.2831637779      1.92e-03  
    3    -629.3538292304      6.35e-04  
    4    -629.3611337413      3.09e-04  
    5    -629.3629163465      6.46e-05  
    6    -629.3630688274      2.83e-05  
    7    -629.3631147675      1.34e-05  
    8    -629.3631312545      6.39e-06  
    9    -629.3631341503      2.52e-06  
   10    -629.3631346073      1.15e-06  
   11    -629.3631346909      4.71e-07  Convergence criterion met
 ---------------------------------------
 SCF time:   CPU 757.89s  wall 16.00s 

************** Final PCM Free Energy Summary **************
 G_electrostatic  =      -0.00567436 hartree =      -3.56071671 kcal/mol
 G_cavitation     =       0.00000000 hartree =       0.00000000 kcal/mol
 G_dispersion     =       0.00000000 hartree =       0.00000000 kcal/mol
 G_repulsion      =       0.00000000 hartree =       0.00000000 kcal/mol
 --------------------------------------------------
 Non-electrostatic Free Energy =       0.00000000 hartree =       0.00000000 kcal/mol
 Total                         =      -0.00567436 hartree =      -3.56071671 kcal/mol
 --------------------------------------------------
 SCF Energy (H0 + V/2)                       =    -629.36313469 
 Solute Internal Energy (H0)                 =    -629.35746033 
 Total Free Energy (H0 + V/2 + non-elec)     =    -629.36313469 hartree
                                             = -394931.32771678 kcal/mol
***********************************************************

 SCF   energy in the final basis set =     -629.3631346909
 Total energy in the final basis set =     -629.3631346909


 --------------------------------------------------------------
  Generalized many-body perturbation theory program
  by Joonho Lee, Fazle Rob, Xintian Feng, Evgeny Epifanovsky

 No regularization used 
 (reg. param. = 0.0000e+00)
  (P|Q)^-1/2 Time:  CPU 7.02 s  wall 0.11 s

 In RI-MP2 calculation: 
 # of frozen core orbitals: 11

 Components of the RIMP2 correlation energy:
        aaaa    correlation energy =        -0.1477841485 a.u.
        abab    correlation energy =        -0.8946950631 a.u.
        bbbb    correlation energy =        -0.1477841485 a.u.
        non-Brillouin singles      =        -0.0000000000 a.u.
        total same-spin energy     =        -0.2955682970 a.u.
        total opposite-spin energy =        -0.8946950631 a.u.

 Total  RIMP2   correlation energy =        -1.1902633601 a.u.
        RIMP2         total energy =      -630.5533980510 a.u.

 RI-MP2 Energy Time:  CPU 34.60 s  wall 0.57 s
 
 --------------------------------------------------------------
 
                    Orbital Energies (a.u.)
 --------------------------------------------------------------
 
 Alpha MOs
 -- Occupied --
-91.9783 -11.2703 -11.2596 -11.2490 -11.2407 -11.2287 -11.2087  -8.9784
 -6.6592  -6.6585  -6.6582  -1.1705  -1.0546  -1.0001  -0.9338  -0.8833
 -0.7459  -0.7290  -0.6433  -0.5888  -0.5785  -0.5730  -0.5538  -0.5435
 -0.5158  -0.4741  -0.4559  -0.4489  -0.3319  -0.2928
 -- Virtual --
  0.0713   0.1421   0.1608   0.1760   0.1828   0.1906   0.2047   0.2203
  0.2291   0.2451   0.2494   0.2563   0.2929   0.3001   0.3403   0.3553
  0.3694   0.3939   0.4049   0.4125   0.4340   0.4495   0.4604   0.4713
  0.4815   0.5062   0.5117   0.5293   0.5376   0.5514   0.5762   0.5823
  0.5889   0.6084   0.6192   0.6210   0.6268   0.6359   0.6403   0.6482
  0.6506   0.6635   0.6846   0.7196   0.7224   0.7417   0.7610   0.7780
  0.8025   0.8163   0.8266   0.8432   0.8673   0.8808   0.8967   0.9288
  0.9336   0.9628   1.0163   1.0291   1.0454   1.0567   1.0730   1.0775
  1.0940   1.1141   1.1301   1.1524   1.1792   1.1916   1.2060   1.2137
  1.2325   1.2386   1.2500   1.2556   1.2724   1.2805   1.3181   1.3452
  1.3606   1.3680   1.3781   1.4081   1.4233   1.4446   1.4596   1.4651
  1.4878   1.5005   1.5113   1.5282   1.5587   1.5602   1.5810   1.5927
  1.6089   1.6285   1.6566   1.6577   1.6788   1.6977   1.7165   1.7317
  1.7552   1.7948   1.8099   1.8283   1.8582   1.9135   1.9457   1.9806
  1.9843   2.0382   2.0643   2.1338   2.1580   2.1901   2.2109   2.2272
  2.2612   2.2699   2.3353   2.4158   2.4311   2.4681   2.5115   2.5360
  2.5644   2.6120   2.6456   2.6513   2.6741   2.6959   2.7192   2.7295
  2.7678   2.7760   2.7800   2.8185   2.8334   2.8453   2.8516   2.8911
  2.8992   2.9207   2.9667   2.9885   2.9968   3.0283   3.0386   3.0695
  3.0941   3.1047   3.1127   3.1372   3.1578   3.1671   3.1818   3.1974
  3.2186   3.2262   3.2390   3.2516   3.2841   3.3116   3.3177   3.3361
  3.3405   3.3535   3.3724   3.3868   3.3976   3.4042   3.4168   3.4375
  3.4496   3.4828   3.4917   3.4959   3.5254   3.5326   3.5404   3.5609
  3.5805   3.5951   3.6148   3.6347   3.6406   3.6659   3.6722   3.6920
  3.6995   3.7194   3.7455   3.7519   3.7617   3.7847   3.8011   3.8131
  3.8180   3.8456   3.8706   3.8829   3.9275   3.9463   3.9597   3.9714
  4.0014   4.0141   4.0280   4.0444   4.0659   4.0870   4.1220   4.1344
  4.1492   4.1499   4.1805   4.1969   4.2109   4.2187   4.2619   4.2731
  4.2784   4.3074   4.3450   4.3471   4.3704   4.3798   4.3894   4.3976
  4.4027   4.4363   4.4477   4.4817   4.4962   4.5289   4.5721   4.5924
  4.6133   4.6568   4.6768   4.6815   4.6902   4.7649   4.7695   4.7807
  4.8477   4.8567   4.8756   4.8965   4.9199   4.9800   5.0384   5.0884
  5.1122   5.1351   5.1766   5.2086   5.2204   5.2654   5.2826   5.3136
  5.3693   5.4065   5.4113   5.4230   5.4639   5.4877   5.5500   5.5526
  5.5957   5.6143   5.6278   5.6836   5.7002   5.8026   5.8460   5.8755
  5.9351   5.9617   5.9842   6.0993   6.2150   6.2299   6.2591   6.3481
  6.4120   6.4663   9.2711  11.8474  12.8193  13.8087  14.1301  14.2089
 --------------------------------------------------------------
 
          Ground-State Mulliken Net Atomic Charges

     Atom                 Charge (a.u.)
  ----------------------------------------
      1 C                    -0.061049
      2 C                    -0.166883
      3 C                    -0.005845
      4 H                     0.179872
      5 C                    -0.221276
      6 S                     0.017223
      7 C                    -0.268243
      8 H                     0.101793
      9 H                     0.107160
     10 H                     0.104612
     11 C                    -0.382729
     12 H                     0.133917
     13 H                     0.112752
     14 H                     0.152834
     15 H                     0.195862
  ----------------------------------------
  Sum of atomic charges =     0.000000

 -----------------------------------------------------------------
                    Cartesian Multipole Moments
 -----------------------------------------------------------------
    Charge (ESU x 10^10)
                -0.0000
    Dipole Moment (Debye)
         X       2.0959      Y       0.0237      Z       2.0631
       Tot       2.9410
    Quadrupole Moments (Debye-Ang)
        XX     -49.8511     XY       3.6110     YY     -48.4266
        XZ      -0.5079     YZ      -0.7158     ZZ     -48.0158
    Octopole Moments (Debye-Ang^2)
       XXX     -72.8416    XXY      -8.4072    XYY     -17.8414
       YYY     -49.2324    XXZ      -4.4823    XYZ      -0.3978
       YYZ      -3.0892    XZZ     -23.7956    YZZ     -13.8215
       ZZZ      -0.5250
    Hexadecapole Moments (Debye-Ang^3)
      XXXX    -395.2829   XXXY    -151.1356   XXYY    -140.3875
      XYYY    -159.9054   YYYY    -486.4877   XXXZ     -76.4085
      XXYZ     -26.2751   XYYZ     -31.6747   YYYZ     -63.6532
      XXZZ    -145.4970   XYZZ     -45.2407   YYZZ    -163.8664
      XZZZ     -77.1693   YZZZ     -63.2498   ZZZZ    -487.1497
 -----------------------------------------------------------------
 Total job time:  17.91s(wall), 844.66s(cpu) 
 Fri Dec 15 13:57:00 2023

        *************************************************************
        *                                                           *
        *  Thank you very much for using Q-Chem.  Have a nice day.  *
        *                                                           *
        *************************************************************


0 sent ACK to 0 
now end server 0 ... 
cleanup process ... done
remove work dirs ./qchem43694.0 -- ./qchem43694.0
rm -rf ./qchem43694.0
rm -rf ./qchem43694
