You are running Q-Chem version: 5.4.0

#
# job setting
#
local host:  exp-7-20
current dir: /home/rramji/project-csd799/aromodel/p3ht-qchem/methylated-rotation-run
input file:  Methylthiophene_Phi_0_Theta_210_Methylthiophene_Hydrogenated_Improper.qcin
output file: 
nprocs     : 1
nthreads   : 64
#
# qchem installation setting
#
QC:          /cm/shared/apps/spack/cpu/opt/spack/linux-centos8-zen2/gcc-10.2.0/qchem-5.4-akfmr7b3t57bfs6qan3padb2wnb2i7cl
QCAUX:       /cm/shared/apps/spack/cpu/opt/spack/linux-centos8-zen2/gcc-10.2.0/qchem-5.4-akfmr7b3t57bfs6qan3padb2wnb2i7cl/qcaux
QCPROG:      /cm/shared/apps/spack/cpu/opt/spack/linux-centos8-zen2/gcc-10.2.0/qchem-5.4-akfmr7b3t57bfs6qan3padb2wnb2i7cl/exe/qcprog.exe
QCPROG_S:    /cm/shared/apps/spack/cpu/opt/spack/linux-centos8-zen2/gcc-10.2.0/qchem-5.4-akfmr7b3t57bfs6qan3padb2wnb2i7cl/exe/qcprog.exe_s
PARALLEL:    -DPARALLEL
QCMPI:       mpich
#
# qchem directory setting
#
qcrun:       qchem3259815
QCSCRATCH:   .
QCLOCALSCR:  
QCTMPDIR:    .
QCFILEPREF:  ./qchem3259815
QCSAVEDIR:   
workdirs:    ./qchem3259815
workdir0:    ./qchem3259815
partmpdirs =  
#
# parallel setting
#
QCRSH:           ssh
QCMPI:           mpich
QCMPIRUN:        /cm/shared/apps/spack/cpu/opt/spack/linux-centos8-zen2/gcc-10.2.0/qchem-5.4-akfmr7b3t57bfs6qan3padb2wnb2i7cl/bin/mpi/mpirun_qchem
QCMACHINEFILE:   ./qchem3259815/hostfile
exp-7-20

#
# env setting
#
exported envs:   QC QCAUX QCSCRATCH QCRUNNAME QCFILEPREF QCPROG QCPROG_S GUIFILE

Running Job 1 of 1 Methylthiophene_Phi_0_Theta_210_Methylthiophene_Hydrogenated_Improper.qcin
qchem Methylthiophene_Phi_0_Theta_210_Methylthiophene_Hydrogenated_Improper.qcin_3259815.0 ./qchem3259815/ 1
/cm/shared/apps/spack/cpu/opt/spack/linux-centos8-zen2/gcc-10.2.0/qchem-5.4-akfmr7b3t57bfs6qan3padb2wnb2i7cl/bin/mpi/mpirun_qchem -machinefile ./qchem3259815/hostfile -np 1 /cm/shared/apps/spack/cpu/opt/spack/linux-centos8-zen2/gcc-10.2.0/qchem-5.4-akfmr7b3t57bfs6qan3padb2wnb2i7cl/exe/qcprog.exe Methylthiophene_Phi_0_Theta_210_Methylthiophene_Hydrogenated_Improper.qcin_3259815.0 ./qchem3259815/

Process 0 of 1 is on exp-7-20 - thread support 0
initial socket setup ...start
initial socket setup ...done 
now start server 0 ... 
                  Welcome to Q-Chem
     A Quantum Leap Into The Future Of Chemistry


 Q-Chem 5.4, Q-Chem, Inc., Pleasanton, CA (2021)

 License issued to: University of California, San Diego (site)

 E. Epifanovsky,  A. T. B. Gilbert,  Xintian Feng,  Joonho Lee,  Yuezhi Mao,  
 N. Mardirossian,  P. Pokhilko,  A. White,  M. Wormit,  M. P. Coons,  
 A. L. Dempwolff,  Zhengting Gan,  D. Hait,  P. R. Horn,  L. D. Jacobson,  
 I. Kaliman,  J. Kussmann,  A. W. Lange,  Ka Un Lao,  D. S. Levine,  Jie Liu,  
 S. C. McKenzie,  A. F. Morrison,  K. Nanda,  F. Plasser,  D. R. Rehn,  
 M. L. Vidal,  Zhi-Qiang You,  Ying Zhu,  B. Alam,  B. Albrecht,  
 A. Aldossary,  E. Alguire,  J. H. Andersen,  D. Barton,  K. Begam,  A. Behn,  
 Y. A. Bernard,  E. J. Berquist,  H. Burton,  A. Carreras,  K. Carter-Fenk,  
 R. Chakraborty,  A. D. Chien,  K. D. Closser,  V. Cofer-Shabica,  
 S. Dasgupta,  Jia Deng,  M. de Wergifosse,  M. Diedenhofen,  Hainam Do,  
 S. Ehlert,  Po-Tung Fang,  S. Fatehi,  Qingguo Feng,  J. Gayvert,  
 Qinghui Ge,  G. Gidofalvi,  M. Goldey,  J. Gomes,  C. Gonzalez-Espinoza,  
 S. Gulania,  A. Gunina,  M. W. D. Hanson-Heine,  P. H. P. Harbach,  
 A. W. Hauser,  M. F. Herbst,  M. Hernandez Vera,  M. Hodecker,  
 Z. C. Holden,  S. Houck,  Xunkun Huang,  Kerwin Hui,  B. C. Huynh,  
 M. Ivanov,  Hyunjun Ji,  Hanjie Jiang,  B. Kaduk,  S. Kaehler,  
 K. Khistyaev,  Jaehoon Kim,  P. Klunzinger,  Z. Koczor-Benda,  
 Joong Hoon Koh,  D. Kosenkov,  L. Koulias,  T. Kowalczyk,  C. M. Krauter,  
 K. Kue,  A. Kunitsa,  T. Kus,  A. Landau,  K. V. Lawler,  D. Lefrancois,  
 S. Lehtola,  Rain Li,  Yi-Pei Li,  Jiashu Liang,  M. Liebenthal,  
 Hung-Hsuan Lin,  You-Sheng Lin,  Fenglai Liu,  Kuan-Yu Liu,  
 M. Loipersberger,  A. Luenser,  A. Manjanath,  P. Manohar,  E. Mansoor,  
 S. F. Manzer,  Shan-Ping Mao,  A. V. Marenich,  T. Markovich,  S. Mason,  
 S. A. Maurer,  P. F. McLaughlin,  M. F. S. J. Menger,  J.-M. Mewes,  
 S. A. Mewes,  P. Morgante,  J. W. Mullinax,  T. S. Nguyen-Beck,  
 K. J. Oosterbaan,  G. Paran,  Alexander C. Paul,  Suranjan K. Paul,  
 F. Pavosevic,  Zheng Pei,  S. Prager,  E. I. Proynov,  E. Ramos,  B. Rana,  
 A. E. Rask,  A. Rettig,  R. M. Richard,  F. Rob,  E. Rossomme,  T. Scheele,  
 M. Scheurer,  M. Schneider,  N. Sergueev,  S. M. Sharada,  W. Skomorowski,  
 D. W. Small,  C. J. Stein,  Yu-Chuan Su,  E. J. Sundstrom,  Zhen Tao,  
 J. Thirman,  T. Tsuchimochi,  N. M. Tubman,  S. P. Veccham,  O. Vydrov,  
 J. Wenzel,  J. Witte,  A. Yamada,  Kun Yao,  S. Yeganeh,  S. R. Yost,  
 A. Zech,  Igor Ying Zhang,  Xing Zhang,  Yu Zhang,  D. Zuev,  
 A. Aspuru-Guzik,  A. T. Bell,  N. A. Besley,  K. B. Bravaya,  B. R. Brooks,  
 D. Casanova,  Jeng-Da Chai,  S. Coriani,  C. J. Cramer,  
 A. E. DePrince, III,  R. A. DiStasio Jr.,  A. Dreuw,  B. D. Dunietz,  
 T. R. Furlani,  W. A. Goddard III,  S. Grimme,  S. Hammes-Schiffer,  
 T. Head-Gordon,  W. J. Hehre,  Chao-Ping Hsu,  T.-C. Jagau,  Yousung Jung,  
 A. Klamt,  Jing Kong,  D. S. Lambrecht,  WanZhen Liang,  N. J. Mayhall,  
 C. W. McCurdy,  J. B. Neaton,  C. Ochsenfeld,  J. A. Parkhill,  R. Peverati,  
 V. A. Rassolov,  Yihan Shao,  L. V. Slipchenko,  T. Stauch,  R. P. Steele,  
 J. E. Subotnik,  A. J. W. Thom,  A. Tkatchenko,  D. G. Truhlar,  
 T. Van Voorhis,  T. A. Wesolowski,  K. B. Whaley,  H. L. Woodcock III,  
 P. M. Zimmerman,  S. Faraji,  P. M. W. Gill,  M. Head-Gordon,  
 J. M. Herbert,  A. I. Krylov

 Contributors to earlier versions of Q-Chem not listed above: 
 R. D. Adamson,  B. Austin,  R. Baer,  J. Baker,  G. J. O. Beran,  
 K. Brandhorst,  S. T. Brown,  E. F. C. Byrd,  A. K. Chakraborty,  
 G. K. L. Chan,  Chun-Min Chang,  Yunqing Chen,  C.-L. Cheng,  
 Siu Hung Chien,  D. M. Chipman,  D. L. Crittenden,  H. Dachsel,  
 R. J. Doerksen,  A. D. Dutoi,  R. G. Edgar,  J. Fosso-Tande,  
 L. Fusti-Molnar,  D. Ghosh,  A. Ghysels,  A. Golubeva-Zadorozhnaya,  
 J. Gonthier,  M. S. Gordon,  S. R. Gwaltney,  G. Hawkins,  J. E. Herr,  
 A. Heyden,  S. Hirata,  E. G. Hohenstein,  G. Kedziora,  F. J. Keil,  
 C. Kelley,  Jihan Kim,  R. A. King,  R. Z. Khaliullin,  P. P. Korambath,  
 W. Kurlancheek,  A. Laurent,  A. M. Lee,  M. S. Lee,  S. V. Levchenko,  
 Ching Yeh Lin,  D. Liotard,  E. Livshits,  R. C. Lochan,  I. Lotan,  
 L. A. Martinez-Martinez,  P. E. Maslen,  N. Nair,  D. P. O'Neill,  
 D. Neuhauser,  E. Neuscamman,  C. M. Oana,  R. Olivares-Amaya,  R. Olson,  
 T. M. Perrine,  B. Peters,  P. A. Pieniazek,  A. Prociuk,  Y. M. Rhee,  
 J. Ritchie,  M. A. Rohrdanz,  E. Rosta,  N. J. Russ,  H. F. Schaefer III,  
 M. W. Schmidt,  N. E. Schultz,  S. Sharma,  N. Shenvi,  C. D. Sherrill,  
 A. C. Simmonett,  A. Sodt,  T. Stein,  D. Stuck,  K. S. Thanthiriwatte,  
 V. Vanovschi,  L. Vogt,  Tao Wang,  A. Warshel,  M. A. Watson,  
 C. F. Williams,  Q. Wu,  X. Xu,  Jun Yang,  W. Zhang,  Yan Zhao

 Please cite Q-Chem as follows:
 Y. Shao et al., Mol. Phys. 113, 184-215 (2015)
 DOI: 10.1080/00268976.2014.952696

 Q-Chem 5.4.0 for Intel X86 EM64T Linux

 Parts of Q-Chem use Armadillo 9.800.1 (Horizon Scraper).
 http://arma.sourceforge.net/

 Q-Chem begins on Fri Dec 15 14:01:20 2023  

 Host: 
0

     Scratch files written to ./qchem3259815//
 May1621 |scratch|qcdevops|jenkins|workspace|build_RNUM    
 Parallel job on  1  processors
 Processing $rem in /cm/shared/apps/spack/cpu/opt/spack/linux-centos8-zen2/gcc-10.2.0/qchem-5.4-akfmr7b3t57bfs6qan3padb2wnb2i7cl/config/preferences:
 Processing $rem in /home/rramji/.qchemrc:
 Symmetry turned off for PCM/SM12/SMD calculation
 Core orbitals will be frozen

 Checking the input file for inconsistencies... 	...done.

 Q-Chem warning in module forms1/BasisType.C, line 2236:

 You are not using the predefined 5D/6D in this basis set.


--------------------------------------------------------------
User input:
--------------------------------------------------------------
$molecule
0 1
C	0.006362	-0.576386	0.004064
C	0.003262	0.268214	1.117064
C	-0.001438	1.659214	0.824664
H	0.004662	-0.119886	2.146964
C	-0.002038	1.907314	-0.559536
S	0.002662	0.394214	-1.460636
C	-0.005038	2.723814	1.886464
H	-0.003538	2.275814	2.899064
H	-0.899538	3.376814	1.812164
H	0.885262	3.382714	1.812264
C	0.006362	-2.026486	0.004064
H	-0.928938	-2.026986	-0.535936
H	0.475662	-2.561586	-0.808236
H	-0.409938	-2.713686	0.725764
H	-0.005338	2.865414	-1.093036
$end

$rem
JOBTYPE		SP
EXCHANGE	HF
CORRELATION	pRIMP2
BASIS		cc-pvtz
METHOD		rimp2
AUX_BASIS	rimp2-cc-pvtz
SOLVENT_METHOD	PCM
PURECART	11111
SYMMETRY	false
MEM_TOTAL	110000
SCF_CONVERGENCE = 6
THRESH=10
GUI = 2
$end



$solvent
dielectric 4.90
$end
--------------------------------------------------------------
 ----------------------------------------------------------------
             Standard Nuclear Orientation (Angstroms)
    I     Atom           X                Y                Z
 ----------------------------------------------------------------
    1      C       0.0063620000    -0.5763860000     0.0040640000
    2      C       0.0032620000     0.2682140000     1.1170640000
    3      C      -0.0014380000     1.6592140000     0.8246640000
    4      H       0.0046620000    -0.1198860000     2.1469640000
    5      C      -0.0020380000     1.9073140000    -0.5595360000
    6      S       0.0026620000     0.3942140000    -1.4606360000
    7      C      -0.0050380000     2.7238140000     1.8864640000
    8      H      -0.0035380000     2.2758140000     2.8990640000
    9      H      -0.8995380000     3.3768140000     1.8121640000
   10      H       0.8852620000     3.3827140000     1.8122640000
   11      C       0.0063620000    -2.0264860000     0.0040640000
   12      H      -0.9289380000    -2.0269860000    -0.5359360000
   13      H       0.4756620000    -2.5615860000    -0.8082360000
   14      H      -0.4099380000    -2.7136860000     0.7257640000
   15      H      -0.0053380000     2.8654140000    -1.0930360000
 ----------------------------------------------------------------
 Nuclear Repulsion Energy =         344.24859102 hartrees
 There are       30 alpha and       30 beta electrons
 Requested basis set is cc-pVTZ
 There are 120 shells and 326 basis functions

 Total QAlloc Memory Limit 110000 MB
 Mega-Array Size       188 MB
 MEM_STATIC part       192 MB
 Discretize the solute cavity surface with Lebedev spheres
	Using 110 Lebedev grid points for each H atom
	Using 194 Lebedev grid points for other atoms
	Atomic van der Waals radii will be scaled by 1.20
 Remove points where switching function is < 1.0e-08
 Keep 1072 surface tesserae and discard 1166 interior tesserae
 Molecular Surface Area = 159.741 Angst**2

                       Distance Matrix (Angstroms)
             C (  1)   C (  2)   C (  3)   H (  4)   C (  5)   S (  6)
   C (  2)  1.397186
   C (  3)  2.381460  1.421408
   H (  4)  2.190985  1.100599  2.216689
   C (  5)  2.546857  2.344710  1.406259  3.381527
   S (  6)  1.757107  2.580778  2.612056  3.644047  1.761100
   C (  7)  3.799326  2.573328  1.503597  2.855623  2.578681  4.078011
   H (  8)  4.064009  2.684405  2.164102  2.510996  3.478176  4.748415
   H (  9)  4.440458  3.310832  2.175291  3.627200  2.930853  4.518970
   H ( 10)  4.440329  3.310791  2.175326  3.627077  2.930792  4.519070
   C ( 11)  1.450100  2.550378  3.775954  2.868300  3.973978  2.829337
   H ( 12)  1.808487  2.978145  4.037271  3.421490  4.042081  2.754117
   H ( 13)  2.195699  3.455099  4.550730  3.862246  4.501235  3.063676
   H ( 14)  2.293950  3.035717  4.393052  2.986553  4.813732  3.822254
   H ( 15)  3.612444  3.410288  2.265504  4.405646  1.096626  2.498404
             C (  7)   H (  8)   H (  9)   H ( 10)   C ( 11)   H ( 12)
   H (  8)  1.107278
   H (  9)  1.109982  1.787839
   H ( 10)  1.110085  1.787828  1.784810
   C ( 11)  5.109688  5.185644  5.769361  5.770745
   H ( 12)  5.412182  5.582981  5.891985  6.170107  1.079994
   H ( 13)  5.952137  6.113440  6.634928  6.509185  1.080003  1.527366
   H ( 14)  5.574726  5.457427  6.205978  6.326462  1.080000  1.527352
   H ( 15)  2.982863  4.035405  3.082420  3.082456  5.013427  5.009888
             H ( 13)   H ( 14)
   H ( 14)  1.777801
   H ( 15)  5.455713  5.882014
 
 Requested basis set is rimp2-cc-pVTZ
 There are 250 shells and 848 basis functions
 A cutoff of  1.0D-10 yielded   6160 shell pairs
 There are     45084 function pairs (     57974 Cartesian)
 Smallest overlap matrix eigenvalue = 8.70E-05

 Scale SEOQF with 1.000000e+00/1.000000e-01/1.000000e-01

 Standard Electronic Orientation quadrupole field applied
 Nucleus-field energy     =     0.0000000032 hartrees
 Guess from superposition of atomic densities
 Warning:  Energy on first SCF cycle will be non-variational
 SAD guess density has 60.000000 electrons

 -----------------------------------------------------------------------
  General SCF calculation program by
  Eric Jon Sundstrom, Paul Horn, Yuezhi Mao, Dmitri Zuev, Alec White,
  David Stuck, Shaama M.S., Shane Yost, Joonho Lee, David Small,
  Daniel Levine, Susi Lehtola, Hugh Burton, Evgeny Epifanovsky,
  Bang C. Huynh
 -----------------------------------------------------------------------
 Hartree-Fock
 using 64 threads for integral computing
 -------------------------------------------------------
 OpenMP Integral computing Module                
 Release: version 1.0, May 2013, Q-Chem Inc. Pittsburgh 
 -------------------------------------------------------
 A restricted SCF calculation will be
 performed using DIIS
 SCF converges when DIIS error is below 1.0e-06
 ---------------------------------------
  Cycle       Energy         DIIS error
 ---------------------------------------
    1    -632.0808039822      2.91e-02  
    2    -629.3435614032      1.96e-03  
    3    -629.4142964413      7.19e-04  
    4    -629.4222314367      3.63e-04  
    5    -629.4245543076      6.31e-05  
    6    -629.4246902673      2.64e-05  
    7    -629.4247239883      1.14e-05  
    8    -629.4247332722      5.12e-06  
    9    -629.4247347113      1.68e-06  
   10    -629.4247348882      6.59e-07  Convergence criterion met
 ---------------------------------------
 SCF time:   CPU 700.71s  wall 14.00s 

************** Final PCM Free Energy Summary **************
 G_electrostatic  =      -0.00565276 hartree =      -3.54715921 kcal/mol
 G_cavitation     =       0.00000000 hartree =       0.00000000 kcal/mol
 G_dispersion     =       0.00000000 hartree =       0.00000000 kcal/mol
 G_repulsion      =       0.00000000 hartree =       0.00000000 kcal/mol
 --------------------------------------------------
 Non-electrostatic Free Energy =       0.00000000 hartree =       0.00000000 kcal/mol
 Total                         =      -0.00565276 hartree =      -3.54715921 kcal/mol
 --------------------------------------------------
 SCF Energy (H0 + V/2)                       =    -629.42473489 
 Solute Internal Energy (H0)                 =    -629.41908213 
 Total Free Energy (H0 + V/2 + non-elec)     =    -629.42473489 hartree
                                             = -394969.98242399 kcal/mol
***********************************************************

 SCF   energy in the final basis set =     -629.4247348882
 Total energy in the final basis set =     -629.4247348882


 --------------------------------------------------------------
  Generalized many-body perturbation theory program
  by Joonho Lee, Fazle Rob, Xintian Feng, Evgeny Epifanovsky

 No regularization used 
 (reg. param. = 0.0000e+00)
  (P|Q)^-1/2 Time:  CPU 7.04 s  wall 0.11 s

 In RI-MP2 calculation: 
 # of frozen core orbitals: 11

 Components of the RIMP2 correlation energy:
        aaaa    correlation energy =        -0.1449959170 a.u.
        abab    correlation energy =        -0.8851316423 a.u.
        bbbb    correlation energy =        -0.1449959170 a.u.
        non-Brillouin singles      =        -0.0000000000 a.u.
        total same-spin energy     =        -0.2899918341 a.u.
        total opposite-spin energy =        -0.8851316423 a.u.

 Total  RIMP2   correlation energy =        -1.1751234764 a.u.
        RIMP2         total energy =      -630.5998583646 a.u.

 RI-MP2 Energy Time:  CPU 36.11 s  wall 0.60 s
 
 --------------------------------------------------------------
 
                    Orbital Energies (a.u.)
 --------------------------------------------------------------
 
 Alpha MOs
 -- Occupied --
-91.9793 -11.2831 -11.2520 -11.2469 -11.2265 -11.2239 -11.2214  -8.9791
 -6.6601  -6.6596  -6.6590  -1.1601  -1.0544  -0.9961  -0.9437  -0.8831
 -0.7452  -0.7177  -0.6481  -0.5884  -0.5753  -0.5658  -0.5527  -0.5463
 -0.5075  -0.4933  -0.4659  -0.4545  -0.3389  -0.2927
 -- Virtual --
  0.1112   0.1434   0.1487   0.1756   0.1888   0.1985   0.2062   0.2206
  0.2258   0.2405   0.2500   0.2540   0.2927   0.3296   0.3428   0.3517
  0.3871   0.3903   0.4009   0.4193   0.4356   0.4642   0.4695   0.4892
  0.4972   0.5081   0.5174   0.5270   0.5532   0.5589   0.5764   0.5962
  0.5995   0.6068   0.6108   0.6181   0.6299   0.6385   0.6447   0.6498
  0.6554   0.6710   0.6855   0.7093   0.7273   0.7416   0.7837   0.7912
  0.8126   0.8306   0.8375   0.8515   0.8789   0.8937   0.9073   0.9351
  0.9480   0.9797   0.9839   1.0259   1.0332   1.0464   1.0556   1.0671
  1.0812   1.0903   1.1005   1.1379   1.1576   1.1710   1.1887   1.2105
  1.2328   1.2344   1.2620   1.2629   1.2811   1.2864   1.3019   1.3233
  1.3768   1.3855   1.3913   1.4130   1.4333   1.4361   1.4467   1.4838
  1.5037   1.5107   1.5257   1.5422   1.5505   1.5581   1.5751   1.5884
  1.6097   1.6278   1.6495   1.6791   1.6963   1.7036   1.7179   1.7441
  1.7594   1.7915   1.8088   1.8322   1.8860   1.8997   1.9341   1.9488
  2.0236   2.0565   2.0907   2.1378   2.1825   2.2011   2.2282   2.2606
  2.2692   2.3026   2.3678   2.4225   2.4595   2.4721   2.4878   2.5360
  2.5610   2.6042   2.6366   2.6670   2.6926   2.7018   2.7152   2.7222
  2.7392   2.7508   2.7781   2.7987   2.8053   2.8489   2.8567   2.8963
  2.9071   2.9201   2.9672   2.9747   2.9931   3.0313   3.0423   3.0546
  3.0786   3.0862   3.1143   3.1348   3.1562   3.1679   3.1870   3.1888
  3.2299   3.2368   3.2438   3.2703   3.2969   3.3039   3.3138   3.3241
  3.3470   3.3633   3.3801   3.3965   3.4021   3.4245   3.4325   3.4414
  3.4538   3.4651   3.4857   3.4994   3.5037   3.5191   3.5266   3.5567
  3.5761   3.5978   3.6048   3.6248   3.6255   3.6412   3.6507   3.6803
  3.6892   3.6987   3.7217   3.7325   3.7574   3.7723   3.7899   3.7998
  3.8196   3.8362   3.8442   3.8787   3.9149   3.9326   3.9492   3.9645
  3.9776   3.9907   4.0150   4.0264   4.0328   4.0632   4.0684   4.1094
  4.1158   4.1413   4.1715   4.1968   4.2120   4.2381   4.2409   4.2551
  4.2774   4.2963   4.3177   4.3363   4.3457   4.3574   4.3931   4.4014
  4.4164   4.4250   4.4420   4.4498   4.4693   4.5004   4.5450   4.5858
  4.5942   4.6172   4.6313   4.6584   4.7206   4.7380   4.7560   4.7736
  4.8151   4.8306   4.8532   4.8904   4.9029   4.9512   5.0579   5.0973
  5.1128   5.1393   5.1689   5.1969   5.2135   5.2645   5.2895   5.3307
  5.3720   5.4060   5.4238   5.4430   5.4755   5.5097   5.5585   5.5659
  5.5907   5.6139   5.6217   5.6682   5.7012   5.8124   5.8336   5.8647
  5.9247   6.0180   6.1098   6.1448   6.2272   6.2536   6.3109   6.3739
  6.4662   6.5778   9.2231  11.3862  12.9600  13.8358  14.1741  14.4940
 --------------------------------------------------------------
 
          Ground-State Mulliken Net Atomic Charges

     Atom                 Charge (a.u.)
  ----------------------------------------
      1 C                     0.052506
      2 C                    -0.289740
      3 C                     0.043272
      4 H                     0.179530
      5 C                    -0.269533
      6 S                    -0.004047
      7 C                    -0.273569
      8 H                     0.101567
      9 H                     0.107238
     10 H                     0.107278
     11 C                    -0.377537
     12 H                     0.130777
     13 H                     0.136685
     14 H                     0.160934
     15 H                     0.194639
  ----------------------------------------
  Sum of atomic charges =     0.000000

 -----------------------------------------------------------------
                    Cartesian Multipole Moments
 -----------------------------------------------------------------
    Charge (ESU x 10^10)
                -0.0000
    Dipole Moment (Debye)
         X      -0.6172      Y      -0.5313      Z       1.0776
       Tot       1.3507
    Quadrupole Moments (Debye-Ang)
        XX     -54.2570     XY       1.3457     YY     -41.6984
        XZ      -0.2955     YZ       1.0009     ZZ     -48.6635
    Octopole Moments (Debye-Ang^2)
       XXX       0.9141    XXY     -31.6128    XYY      -2.7963
       YYY     -81.3843    XXZ      -2.5344    XYZ       1.1528
       YYZ      -5.8747    XZZ       0.3942    YZZ     -25.5727
       ZZZ      -0.4825
    Hexadecapole Moments (Debye-Ang^3)
      XXXX     -78.4297   XXXY      -1.6746   XXYY    -161.4472
      XYYY       5.6437   YYYY    -803.6292   XXXZ       0.8011
      XXYZ     -31.5822   XYYZ      -3.3755   YYYZ    -107.6229
      XXZZ    -102.8083   XYZZ      -0.7556   YYZZ    -212.3295
      XZZZ       0.2605   YZZZ    -104.9492   ZZZZ    -491.9428
 -----------------------------------------------------------------
 Total job time:  19.01s(wall), 775.66s(cpu) 
 Fri Dec 15 14:01:39 2023

        *************************************************************
        *                                                           *
        *  Thank you very much for using Q-Chem.  Have a nice day.  *
        *                                                           *
        *************************************************************


0 sent ACK to 0 
now end server 0 ... 
cleanup process ... done
remove work dirs ./qchem3259815.0 -- ./qchem3259815.0
rm -rf ./qchem3259815.0
rm -rf ./qchem3259815
