You are running Q-Chem version: 5.4.0

#
# job setting
#
local host:  exp-8-30
current dir: /home/rramji/project-csd799/aromodel/p3ht-qchem/methylated-rotation-run
input file:  Methylthiophene_Phi_5_Theta_320_Methylthiophene_Hydrogenated_Improper.qcin
output file: 
nprocs     : 1
nthreads   : 64
#
# qchem installation setting
#
QC:          /cm/shared/apps/spack/cpu/opt/spack/linux-centos8-zen2/gcc-10.2.0/qchem-5.4-akfmr7b3t57bfs6qan3padb2wnb2i7cl
QCAUX:       /cm/shared/apps/spack/cpu/opt/spack/linux-centos8-zen2/gcc-10.2.0/qchem-5.4-akfmr7b3t57bfs6qan3padb2wnb2i7cl/qcaux
QCPROG:      /cm/shared/apps/spack/cpu/opt/spack/linux-centos8-zen2/gcc-10.2.0/qchem-5.4-akfmr7b3t57bfs6qan3padb2wnb2i7cl/exe/qcprog.exe
QCPROG_S:    /cm/shared/apps/spack/cpu/opt/spack/linux-centos8-zen2/gcc-10.2.0/qchem-5.4-akfmr7b3t57bfs6qan3padb2wnb2i7cl/exe/qcprog.exe_s
PARALLEL:    -DPARALLEL
QCMPI:       mpich
#
# qchem directory setting
#
qcrun:       qchem2119837
QCSCRATCH:   .
QCLOCALSCR:  
QCTMPDIR:    .
QCFILEPREF:  ./qchem2119837
QCSAVEDIR:   
workdirs:    ./qchem2119837
workdir0:    ./qchem2119837
partmpdirs =  
#
# parallel setting
#
QCRSH:           ssh
QCMPI:           mpich
QCMPIRUN:        /cm/shared/apps/spack/cpu/opt/spack/linux-centos8-zen2/gcc-10.2.0/qchem-5.4-akfmr7b3t57bfs6qan3padb2wnb2i7cl/bin/mpi/mpirun_qchem
QCMACHINEFILE:   ./qchem2119837/hostfile
exp-8-30

#
# env setting
#
exported envs:   QC QCAUX QCSCRATCH QCRUNNAME QCFILEPREF QCPROG QCPROG_S GUIFILE

Running Job 1 of 1 Methylthiophene_Phi_5_Theta_320_Methylthiophene_Hydrogenated_Improper.qcin
qchem Methylthiophene_Phi_5_Theta_320_Methylthiophene_Hydrogenated_Improper.qcin_2119837.0 ./qchem2119837/ 1
/cm/shared/apps/spack/cpu/opt/spack/linux-centos8-zen2/gcc-10.2.0/qchem-5.4-akfmr7b3t57bfs6qan3padb2wnb2i7cl/bin/mpi/mpirun_qchem -machinefile ./qchem2119837/hostfile -np 1 /cm/shared/apps/spack/cpu/opt/spack/linux-centos8-zen2/gcc-10.2.0/qchem-5.4-akfmr7b3t57bfs6qan3padb2wnb2i7cl/exe/qcprog.exe Methylthiophene_Phi_5_Theta_320_Methylthiophene_Hydrogenated_Improper.qcin_2119837.0 ./qchem2119837/

Process 0 of 1 is on exp-8-30 - thread support 0
initial socket setup ...start
initial socket setup ...done 
now start server 0 ... 
                  Welcome to Q-Chem
     A Quantum Leap Into The Future Of Chemistry


 Q-Chem 5.4, Q-Chem, Inc., Pleasanton, CA (2021)

 License issued to: University of California, San Diego (site)

 E. Epifanovsky,  A. T. B. Gilbert,  Xintian Feng,  Joonho Lee,  Yuezhi Mao,  
 N. Mardirossian,  P. Pokhilko,  A. White,  M. Wormit,  M. P. Coons,  
 A. L. Dempwolff,  Zhengting Gan,  D. Hait,  P. R. Horn,  L. D. Jacobson,  
 I. Kaliman,  J. Kussmann,  A. W. Lange,  Ka Un Lao,  D. S. Levine,  Jie Liu,  
 S. C. McKenzie,  A. F. Morrison,  K. Nanda,  F. Plasser,  D. R. Rehn,  
 M. L. Vidal,  Zhi-Qiang You,  Ying Zhu,  B. Alam,  B. Albrecht,  
 A. Aldossary,  E. Alguire,  J. H. Andersen,  D. Barton,  K. Begam,  A. Behn,  
 Y. A. Bernard,  E. J. Berquist,  H. Burton,  A. Carreras,  K. Carter-Fenk,  
 R. Chakraborty,  A. D. Chien,  K. D. Closser,  V. Cofer-Shabica,  
 S. Dasgupta,  Jia Deng,  M. de Wergifosse,  M. Diedenhofen,  Hainam Do,  
 S. Ehlert,  Po-Tung Fang,  S. Fatehi,  Qingguo Feng,  J. Gayvert,  
 Qinghui Ge,  G. Gidofalvi,  M. Goldey,  J. Gomes,  C. Gonzalez-Espinoza,  
 S. Gulania,  A. Gunina,  M. W. D. Hanson-Heine,  P. H. P. Harbach,  
 A. W. Hauser,  M. F. Herbst,  M. Hernandez Vera,  M. Hodecker,  
 Z. C. Holden,  S. Houck,  Xunkun Huang,  Kerwin Hui,  B. C. Huynh,  
 M. Ivanov,  Hyunjun Ji,  Hanjie Jiang,  B. Kaduk,  S. Kaehler,  
 K. Khistyaev,  Jaehoon Kim,  P. Klunzinger,  Z. Koczor-Benda,  
 Joong Hoon Koh,  D. Kosenkov,  L. Koulias,  T. Kowalczyk,  C. M. Krauter,  
 K. Kue,  A. Kunitsa,  T. Kus,  A. Landau,  K. V. Lawler,  D. Lefrancois,  
 S. Lehtola,  Rain Li,  Yi-Pei Li,  Jiashu Liang,  M. Liebenthal,  
 Hung-Hsuan Lin,  You-Sheng Lin,  Fenglai Liu,  Kuan-Yu Liu,  
 M. Loipersberger,  A. Luenser,  A. Manjanath,  P. Manohar,  E. Mansoor,  
 S. F. Manzer,  Shan-Ping Mao,  A. V. Marenich,  T. Markovich,  S. Mason,  
 S. A. Maurer,  P. F. McLaughlin,  M. F. S. J. Menger,  J.-M. Mewes,  
 S. A. Mewes,  P. Morgante,  J. W. Mullinax,  T. S. Nguyen-Beck,  
 K. J. Oosterbaan,  G. Paran,  Alexander C. Paul,  Suranjan K. Paul,  
 F. Pavosevic,  Zheng Pei,  S. Prager,  E. I. Proynov,  E. Ramos,  B. Rana,  
 A. E. Rask,  A. Rettig,  R. M. Richard,  F. Rob,  E. Rossomme,  T. Scheele,  
 M. Scheurer,  M. Schneider,  N. Sergueev,  S. M. Sharada,  W. Skomorowski,  
 D. W. Small,  C. J. Stein,  Yu-Chuan Su,  E. J. Sundstrom,  Zhen Tao,  
 J. Thirman,  T. Tsuchimochi,  N. M. Tubman,  S. P. Veccham,  O. Vydrov,  
 J. Wenzel,  J. Witte,  A. Yamada,  Kun Yao,  S. Yeganeh,  S. R. Yost,  
 A. Zech,  Igor Ying Zhang,  Xing Zhang,  Yu Zhang,  D. Zuev,  
 A. Aspuru-Guzik,  A. T. Bell,  N. A. Besley,  K. B. Bravaya,  B. R. Brooks,  
 D. Casanova,  Jeng-Da Chai,  S. Coriani,  C. J. Cramer,  
 A. E. DePrince, III,  R. A. DiStasio Jr.,  A. Dreuw,  B. D. Dunietz,  
 T. R. Furlani,  W. A. Goddard III,  S. Grimme,  S. Hammes-Schiffer,  
 T. Head-Gordon,  W. J. Hehre,  Chao-Ping Hsu,  T.-C. Jagau,  Yousung Jung,  
 A. Klamt,  Jing Kong,  D. S. Lambrecht,  WanZhen Liang,  N. J. Mayhall,  
 C. W. McCurdy,  J. B. Neaton,  C. Ochsenfeld,  J. A. Parkhill,  R. Peverati,  
 V. A. Rassolov,  Yihan Shao,  L. V. Slipchenko,  T. Stauch,  R. P. Steele,  
 J. E. Subotnik,  A. J. W. Thom,  A. Tkatchenko,  D. G. Truhlar,  
 T. Van Voorhis,  T. A. Wesolowski,  K. B. Whaley,  H. L. Woodcock III,  
 P. M. Zimmerman,  S. Faraji,  P. M. W. Gill,  M. Head-Gordon,  
 J. M. Herbert,  A. I. Krylov

 Contributors to earlier versions of Q-Chem not listed above: 
 R. D. Adamson,  B. Austin,  R. Baer,  J. Baker,  G. J. O. Beran,  
 K. Brandhorst,  S. T. Brown,  E. F. C. Byrd,  A. K. Chakraborty,  
 G. K. L. Chan,  Chun-Min Chang,  Yunqing Chen,  C.-L. Cheng,  
 Siu Hung Chien,  D. M. Chipman,  D. L. Crittenden,  H. Dachsel,  
 R. J. Doerksen,  A. D. Dutoi,  R. G. Edgar,  J. Fosso-Tande,  
 L. Fusti-Molnar,  D. Ghosh,  A. Ghysels,  A. Golubeva-Zadorozhnaya,  
 J. Gonthier,  M. S. Gordon,  S. R. Gwaltney,  G. Hawkins,  J. E. Herr,  
 A. Heyden,  S. Hirata,  E. G. Hohenstein,  G. Kedziora,  F. J. Keil,  
 C. Kelley,  Jihan Kim,  R. A. King,  R. Z. Khaliullin,  P. P. Korambath,  
 W. Kurlancheek,  A. Laurent,  A. M. Lee,  M. S. Lee,  S. V. Levchenko,  
 Ching Yeh Lin,  D. Liotard,  E. Livshits,  R. C. Lochan,  I. Lotan,  
 L. A. Martinez-Martinez,  P. E. Maslen,  N. Nair,  D. P. O'Neill,  
 D. Neuhauser,  E. Neuscamman,  C. M. Oana,  R. Olivares-Amaya,  R. Olson,  
 T. M. Perrine,  B. Peters,  P. A. Pieniazek,  A. Prociuk,  Y. M. Rhee,  
 J. Ritchie,  M. A. Rohrdanz,  E. Rosta,  N. J. Russ,  H. F. Schaefer III,  
 M. W. Schmidt,  N. E. Schultz,  S. Sharma,  N. Shenvi,  C. D. Sherrill,  
 A. C. Simmonett,  A. Sodt,  T. Stein,  D. Stuck,  K. S. Thanthiriwatte,  
 V. Vanovschi,  L. Vogt,  Tao Wang,  A. Warshel,  M. A. Watson,  
 C. F. Williams,  Q. Wu,  X. Xu,  Jun Yang,  W. Zhang,  Yan Zhao

 Please cite Q-Chem as follows:
 Y. Shao et al., Mol. Phys. 113, 184-215 (2015)
 DOI: 10.1080/00268976.2014.952696

 Q-Chem 5.4.0 for Intel X86 EM64T Linux

 Parts of Q-Chem use Armadillo 9.800.1 (Horizon Scraper).
 http://arma.sourceforge.net/

 Q-Chem begins on Fri Dec 15 14:05:18 2023  

 Host: 
0

     Scratch files written to ./qchem2119837//
 May1621 |scratch|qcdevops|jenkins|workspace|build_RNUM    
 Parallel job on  1  processors
 Processing $rem in /cm/shared/apps/spack/cpu/opt/spack/linux-centos8-zen2/gcc-10.2.0/qchem-5.4-akfmr7b3t57bfs6qan3padb2wnb2i7cl/config/preferences:
 Processing $rem in /home/rramji/.qchemrc:
 Symmetry turned off for PCM/SM12/SMD calculation
 Core orbitals will be frozen

 Checking the input file for inconsistencies... 	...done.

 Q-Chem warning in module forms1/BasisType.C, line 2236:

 You are not using the predefined 5D/6D in this basis set.


--------------------------------------------------------------
User input:
--------------------------------------------------------------
$molecule
0 1
C	-0.060812	-0.574004	0.003987
C	0.009688	0.267696	1.116987
C	0.126288	1.653696	0.824587
H	-0.022712	-0.119104	2.146887
C	0.147288	1.900996	-0.559613
S	0.020088	0.393196	-1.460713
C	0.215488	2.714596	1.886387
H	0.177888	2.268196	2.898987
H	-0.618812	3.443096	1.812087
H	1.159788	3.293496	1.812187
C	-0.060812	-2.024104	0.003987
H	0.766488	-2.024604	-0.690213
H	0.542088	-2.559204	0.722787
H	-0.596612	-2.711304	-0.634113
H	0.227488	2.855696	-1.093113
$end

$rem
JOBTYPE		SP
EXCHANGE	HF
CORRELATION	pRIMP2
BASIS		cc-pvtz
METHOD		rimp2
AUX_BASIS	rimp2-cc-pvtz
SOLVENT_METHOD	PCM
PURECART	11111
SYMMETRY	false
MEM_TOTAL	110000
SCF_CONVERGENCE = 6
THRESH=10
GUI = 2
$end



$solvent
dielectric 4.90
$end
--------------------------------------------------------------
 ----------------------------------------------------------------
             Standard Nuclear Orientation (Angstroms)
    I     Atom           X                Y                Z
 ----------------------------------------------------------------
    1      C      -0.0608120000    -0.5740040000     0.0039870000
    2      C       0.0096880000     0.2676960000     1.1169870000
    3      C       0.1262880000     1.6536960000     0.8245870000
    4      H      -0.0227120000    -0.1191040000     2.1468870000
    5      C       0.1472880000     1.9009960000    -0.5596130000
    6      S       0.0200880000     0.3931960000    -1.4607130000
    7      C       0.2154880000     2.7145960000     1.8863870000
    8      H       0.1778880000     2.2681960000     2.8989870000
    9      H      -0.6188120000     3.4430960000     1.8120870000
   10      H       1.1597880000     3.2934960000     1.8121870000
   11      C      -0.0608120000    -2.0241040000     0.0039870000
   12      H       0.7664880000    -2.0246040000    -0.6902130000
   13      H       0.5420880000    -2.5592040000     0.7227870000
   14      H      -0.5966120000    -2.7113040000    -0.6341130000
   15      H       0.2274880000     2.8556960000    -1.0931130000
 ----------------------------------------------------------------
 Nuclear Repulsion Energy =         344.35460766 hartrees
 There are       30 alpha and       30 beta electrons
 Requested basis set is cc-pVTZ
 There are 120 shells and 326 basis functions

 Total QAlloc Memory Limit 110000 MB
 Mega-Array Size       188 MB
 MEM_STATIC part       192 MB
 Discretize the solute cavity surface with Lebedev spheres
	Using 110 Lebedev grid points for each H atom
	Using 194 Lebedev grid points for other atoms
	Atomic van der Waals radii will be scaled by 1.20
 Remove points where switching function is < 1.0e-08
 Keep 1066 surface tesserae and discard 1172 interior tesserae
 Molecular Surface Area = 159.336 Angst**2

                       Distance Matrix (Angstroms)
             C (  1)   C (  2)   C (  3)   H (  4)   C (  5)   S (  6)
   C (  2)  1.397211
   C (  3)  2.381394  1.421298
   H (  4)  2.190983  1.100617  2.216641
   C (  5)  2.546876  2.344694  1.406274  3.381545
   S (  6)  1.757090  2.580774  2.612037  3.644045  1.761142
   C (  7)  3.799297  2.573257  1.503624  2.855601  2.578665  4.078009
   H (  8)  4.064001  2.684365  2.164118  2.510995  3.478173  4.748422
   H (  9)  4.440460  3.310792  2.175381  3.627216  2.930860  4.518994
   H ( 10)  4.440384  3.310815  2.175413  3.627143  2.930810  4.519129
   C ( 11)  1.450100  2.548742  3.772877  2.867490  3.970814  2.827584
   H ( 12)  1.808474  3.015519  4.029189  3.507549  3.976280  2.645097
   H ( 13)  2.195719  2.903482  4.234593  2.881171  4.657660  3.709019
   H ( 14)  2.293971  3.508332  4.658714  3.844844  4.672499  3.271316
   H ( 15)  3.612421  3.410238  2.265528  4.405637  1.096589  2.498410
             C (  7)   H (  8)   H (  9)   H ( 10)   C ( 11)   H ( 12)
   H (  8)  1.107269
   H (  9)  1.110085  1.787868
   H ( 10)  1.110105  1.787876  1.784880
   C ( 11)  5.106373  5.182841  5.785401  5.747723
   H ( 12)  5.422406  5.626450  6.170600  5.890575  1.079972
   H ( 13)  5.410508  5.307756  6.209820  5.985185  1.080043  1.527325
   H ( 14)  6.037617  6.154516  6.622766  6.717659  1.080045  1.527333
   H ( 15)  2.982863  4.035403  3.082442  3.082470  5.009910  4.926477
             H ( 13)   H ( 14)
   H ( 14)  1.777906
   H ( 15)  5.719931  5.646354
 
 Requested basis set is rimp2-cc-pVTZ
 There are 250 shells and 848 basis functions
 A cutoff of  1.0D-10 yielded   6161 shell pairs
 There are     45125 function pairs (     58034 Cartesian)
 Smallest overlap matrix eigenvalue = 9.03E-05

 Scale SEOQF with 1.000000e+00/1.000000e-01/1.000000e-01

 Standard Electronic Orientation quadrupole field applied
 Nucleus-field energy     =     0.0000000034 hartrees
 Guess from superposition of atomic densities
 Warning:  Energy on first SCF cycle will be non-variational
 SAD guess density has 60.000000 electrons

 -----------------------------------------------------------------------
  General SCF calculation program by
  Eric Jon Sundstrom, Paul Horn, Yuezhi Mao, Dmitri Zuev, Alec White,
  David Stuck, Shaama M.S., Shane Yost, Joonho Lee, David Small,
  Daniel Levine, Susi Lehtola, Hugh Burton, Evgeny Epifanovsky,
  Bang C. Huynh
 -----------------------------------------------------------------------
 Hartree-Fock
 using 64 threads for integral computing
 -------------------------------------------------------
 OpenMP Integral computing Module                
 Release: version 1.0, May 2013, Q-Chem Inc. Pittsburgh 
 -------------------------------------------------------
 A restricted SCF calculation will be
 performed using DIIS
 SCF converges when DIIS error is below 1.0e-06
 ---------------------------------------
  Cycle       Energy         DIIS error
 ---------------------------------------
    1    -632.0843150395      2.91e-02  
    2    -629.3441130667      1.95e-03  
    3    -629.4145867050      7.01e-04  
    4    -629.4222899586      3.57e-04  
    5    -629.4245265367      6.32e-05  
    6    -629.4246618596      2.62e-05  
    7    -629.4246955573      1.14e-05  
    8    -629.4247048966      5.06e-06  
    9    -629.4247063304      1.68e-06  
   10    -629.4247065037      6.26e-07  Convergence criterion met
 ---------------------------------------
 SCF time:   CPU 677.22s  wall 14.00s 

************** Final PCM Free Energy Summary **************
 G_electrostatic  =      -0.00548306 hartree =      -3.44067097 kcal/mol
 G_cavitation     =       0.00000000 hartree =       0.00000000 kcal/mol
 G_dispersion     =       0.00000000 hartree =       0.00000000 kcal/mol
 G_repulsion      =       0.00000000 hartree =       0.00000000 kcal/mol
 --------------------------------------------------
 Non-electrostatic Free Energy =       0.00000000 hartree =       0.00000000 kcal/mol
 Total                         =      -0.00548306 hartree =      -3.44067097 kcal/mol
 --------------------------------------------------
 SCF Energy (H0 + V/2)                       =    -629.42470650 
 Solute Internal Energy (H0)                 =    -629.41922345 
 Total Free Energy (H0 + V/2 + non-elec)     =    -629.42470650 hartree
                                             = -394969.96461244 kcal/mol
***********************************************************

 SCF   energy in the final basis set =     -629.4247065037
 Total energy in the final basis set =     -629.4247065037


 --------------------------------------------------------------
  Generalized many-body perturbation theory program
  by Joonho Lee, Fazle Rob, Xintian Feng, Evgeny Epifanovsky

 No regularization used 
 (reg. param. = 0.0000e+00)
  (P|Q)^-1/2 Time:  CPU 7.59 s  wall 0.12 s

 In RI-MP2 calculation: 
 # of frozen core orbitals: 11

 Components of the RIMP2 correlation energy:
        aaaa    correlation energy =        -0.1451205953 a.u.
        abab    correlation energy =        -0.8854942757 a.u.
        bbbb    correlation energy =        -0.1451205953 a.u.
        non-Brillouin singles      =        -0.0000000000 a.u.
        total same-spin energy     =        -0.2902411906 a.u.
        total opposite-spin energy =        -0.8854942757 a.u.

 Total  RIMP2   correlation energy =        -1.1757354663 a.u.
        RIMP2         total energy =      -630.6004419700 a.u.

 RI-MP2 Energy Time:  CPU 35.46 s  wall 0.59 s
 
 --------------------------------------------------------------
 
                    Orbital Energies (a.u.)
 --------------------------------------------------------------
 
 Alpha MOs
 -- Occupied --
-91.9784 -11.2816 -11.2537 -11.2470 -11.2268 -11.2262 -11.2203  -8.9784
 -6.6593  -6.6588  -6.6582  -1.1605  -1.0542  -0.9960  -0.9438  -0.8831
 -0.7459  -0.7181  -0.6468  -0.5904  -0.5760  -0.5670  -0.5510  -0.5465
 -0.5077  -0.4918  -0.4654  -0.4524  -0.3389  -0.2954
 -- Virtual --
  0.1081   0.1441   0.1492   0.1757   0.1884   0.1954   0.2052   0.2246
  0.2291   0.2417   0.2505   0.2573   0.2933   0.3273   0.3416   0.3501
  0.3865   0.3932   0.4046   0.4164   0.4362   0.4629   0.4702   0.4865
  0.4965   0.5020   0.5249   0.5284   0.5484   0.5544   0.5687   0.5944
  0.6002   0.6055   0.6105   0.6172   0.6286   0.6384   0.6453   0.6501
  0.6576   0.6690   0.6841   0.7120   0.7244   0.7493   0.7786   0.7888
  0.8047   0.8334   0.8393   0.8558   0.8722   0.9044   0.9094   0.9401
  0.9486   0.9645   0.9820   1.0189   1.0250   1.0421   1.0543   1.0650
  1.0813   1.0868   1.1045   1.1315   1.1640   1.1966   1.1990   1.2081
  1.2226   1.2264   1.2571   1.2667   1.2750   1.2929   1.3028   1.3272
  1.3648   1.3886   1.3981   1.4139   1.4202   1.4285   1.4490   1.4823
  1.5007   1.5131   1.5343   1.5414   1.5505   1.5592   1.5713   1.5767
  1.6094   1.6240   1.6470   1.6784   1.6890   1.7002   1.7153   1.7412
  1.7497   1.7910   1.8134   1.8278   1.8911   1.9126   1.9280   1.9622
  2.0039   2.0367   2.0912   2.1429   2.1849   2.1975   2.2220   2.2533
  2.2593   2.2985   2.3711   2.4215   2.4596   2.4841   2.5048   2.5446
  2.5698   2.5964   2.6424   2.6602   2.6735   2.6887   2.7110   2.7239
  2.7424   2.7525   2.7791   2.7865   2.8143   2.8503   2.8603   2.8883
  2.9065   2.9245   2.9597   2.9744   3.0013   3.0292   3.0459   3.0602
  3.0716   3.0897   3.1140   3.1251   3.1572   3.1623   3.1845   3.1927
  3.2278   3.2441   3.2621   3.2812   3.2877   3.2951   3.3112   3.3221
  3.3438   3.3666   3.3745   3.3828   3.4009   3.4212   3.4288   3.4435
  3.4485   3.4858   3.4880   3.4969   3.5152   3.5252   3.5364   3.5523
  3.5870   3.5917   3.6058   3.6218   3.6277   3.6356   3.6612   3.6773
  3.6901   3.7044   3.7226   3.7388   3.7605   3.7750   3.7885   3.8000
  3.8147   3.8296   3.8392   3.8798   3.9033   3.9104   3.9431   3.9541
  3.9742   3.9854   4.0145   4.0206   4.0317   4.0473   4.1005   4.1086
  4.1272   4.1442   4.1653   4.1973   4.2120   4.2316   4.2333   4.2511
  4.2793   4.2907   4.3178   4.3344   4.3483   4.3711   4.3748   4.4011
  4.4072   4.4294   4.4412   4.4552   4.4677   4.5100   4.5308   4.5785
  4.5911   4.6175   4.6291   4.6501   4.7103   4.7407   4.7562   4.7826
  4.8006   4.8258   4.8497   4.9060   4.9127   4.9670   5.0801   5.0880
  5.1062   5.1260   5.1790   5.1999   5.2354   5.2637   5.2895   5.3280
  5.3661   5.3981   5.4196   5.4393   5.4570   5.4926   5.5526   5.5655
  5.5928   5.6130   5.6217   5.6759   5.7008   5.8159   5.8259   5.8684
  5.9202   5.9740   6.1061   6.1593   6.2269   6.2494   6.3069   6.4003
  6.4404   6.5386   9.2415  11.3486  12.9442  13.7920  14.1727  14.4809
 --------------------------------------------------------------
 
          Ground-State Mulliken Net Atomic Charges

     Atom                 Charge (a.u.)
  ----------------------------------------
      1 C                     0.053037
      2 C                    -0.286804
      3 C                     0.044069
      4 H                     0.180517
      5 C                    -0.265494
      6 S                    -0.005412
      7 C                    -0.273035
      8 H                     0.101578
      9 H                     0.107337
     10 H                     0.107169
     11 C                    -0.372441
     12 H                     0.126493
     13 H                     0.139593
     14 H                     0.149047
     15 H                     0.194345
  ----------------------------------------
  Sum of atomic charges =     0.000000

 -----------------------------------------------------------------
                    Cartesian Multipole Moments
 -----------------------------------------------------------------
    Charge (ESU x 10^10)
                -0.0000
    Dipole Moment (Debye)
         X       0.6468      Y      -0.4009      Z       1.0349
       Tot       1.2846
    Quadrupole Moments (Debye-Ang)
        XX     -54.1396     XY      -0.3655     YY     -41.8884
        XZ       0.3704     YZ       1.3623     ZZ     -48.6996
    Octopole Moments (Debye-Ang^2)
       XXX      -9.8610    XXY     -31.4443    XYY       0.5497
       YYY     -80.1833    XXZ      -2.5113    XYZ      -1.5455
       YYZ      -7.4034    XZZ      -2.7346    YZZ     -25.0590
       ZZZ      -0.2083
    Hexadecapole Moments (Debye-Ang^3)
      XXXX     -82.3504   XXXY     -24.2272   XXYY    -160.0469
      XYYY     -23.0514   YYYY    -801.5581   XXXZ      -8.0985
      XXYZ     -31.6360   XYYZ       0.2525   YYYZ    -101.9642
      XXZZ    -103.0051   XYZZ      -6.3834   YYZZ    -212.9459
      XZZZ      -8.9837   YZZZ    -104.6614   ZZZZ    -491.7248
 -----------------------------------------------------------------
 Total job time:  15.75s(wall), 754.10s(cpu) 
 Fri Dec 15 14:05:34 2023

        *************************************************************
        *                                                           *
        *  Thank you very much for using Q-Chem.  Have a nice day.  *
        *                                                           *
        *************************************************************


0 sent ACK to 0 
now end server 0 ... 
cleanup process ... done
remove work dirs ./qchem2119837.0 -- ./qchem2119837.0
rm -rf ./qchem2119837.0
rm -rf ./qchem2119837
