You are running Q-Chem version: 5.4.0

#
# job setting
#
local host:  exp-8-30
current dir: /home/rramji/project-csd799/aromodel/p3ht-qchem/methylated-rotation-run
input file:  Methylthiophene_Phi_5_Theta_280_Methylthiophene_Hydrogenated_Improper.qcin
output file: 
nprocs     : 1
nthreads   : 64
#
# qchem installation setting
#
QC:          /cm/shared/apps/spack/cpu/opt/spack/linux-centos8-zen2/gcc-10.2.0/qchem-5.4-akfmr7b3t57bfs6qan3padb2wnb2i7cl
QCAUX:       /cm/shared/apps/spack/cpu/opt/spack/linux-centos8-zen2/gcc-10.2.0/qchem-5.4-akfmr7b3t57bfs6qan3padb2wnb2i7cl/qcaux
QCPROG:      /cm/shared/apps/spack/cpu/opt/spack/linux-centos8-zen2/gcc-10.2.0/qchem-5.4-akfmr7b3t57bfs6qan3padb2wnb2i7cl/exe/qcprog.exe
QCPROG_S:    /cm/shared/apps/spack/cpu/opt/spack/linux-centos8-zen2/gcc-10.2.0/qchem-5.4-akfmr7b3t57bfs6qan3padb2wnb2i7cl/exe/qcprog.exe_s
PARALLEL:    -DPARALLEL
QCMPI:       mpich
#
# qchem directory setting
#
qcrun:       qchem2118341
QCSCRATCH:   .
QCLOCALSCR:  
QCTMPDIR:    .
QCFILEPREF:  ./qchem2118341
QCSAVEDIR:   
workdirs:    ./qchem2118341
workdir0:    ./qchem2118341
partmpdirs =  
#
# parallel setting
#
QCRSH:           ssh
QCMPI:           mpich
QCMPIRUN:        /cm/shared/apps/spack/cpu/opt/spack/linux-centos8-zen2/gcc-10.2.0/qchem-5.4-akfmr7b3t57bfs6qan3padb2wnb2i7cl/bin/mpi/mpirun_qchem
QCMACHINEFILE:   ./qchem2118341/hostfile
exp-8-30

#
# env setting
#
exported envs:   QC QCAUX QCSCRATCH QCRUNNAME QCFILEPREF QCPROG QCPROG_S GUIFILE

Running Job 1 of 1 Methylthiophene_Phi_5_Theta_280_Methylthiophene_Hydrogenated_Improper.qcin
qchem Methylthiophene_Phi_5_Theta_280_Methylthiophene_Hydrogenated_Improper.qcin_2118341.0 ./qchem2118341/ 1
/cm/shared/apps/spack/cpu/opt/spack/linux-centos8-zen2/gcc-10.2.0/qchem-5.4-akfmr7b3t57bfs6qan3padb2wnb2i7cl/bin/mpi/mpirun_qchem -machinefile ./qchem2118341/hostfile -np 1 /cm/shared/apps/spack/cpu/opt/spack/linux-centos8-zen2/gcc-10.2.0/qchem-5.4-akfmr7b3t57bfs6qan3padb2wnb2i7cl/exe/qcprog.exe Methylthiophene_Phi_5_Theta_280_Methylthiophene_Hydrogenated_Improper.qcin_2118341.0 ./qchem2118341/

Process 0 of 1 is on exp-8-30 - thread support 0
initial socket setup ...start
initial socket setup ...done 
now start server 0 ... 
                  Welcome to Q-Chem
     A Quantum Leap Into The Future Of Chemistry


 Q-Chem 5.4, Q-Chem, Inc., Pleasanton, CA (2021)

 License issued to: University of California, San Diego (site)

 E. Epifanovsky,  A. T. B. Gilbert,  Xintian Feng,  Joonho Lee,  Yuezhi Mao,  
 N. Mardirossian,  P. Pokhilko,  A. White,  M. Wormit,  M. P. Coons,  
 A. L. Dempwolff,  Zhengting Gan,  D. Hait,  P. R. Horn,  L. D. Jacobson,  
 I. Kaliman,  J. Kussmann,  A. W. Lange,  Ka Un Lao,  D. S. Levine,  Jie Liu,  
 S. C. McKenzie,  A. F. Morrison,  K. Nanda,  F. Plasser,  D. R. Rehn,  
 M. L. Vidal,  Zhi-Qiang You,  Ying Zhu,  B. Alam,  B. Albrecht,  
 A. Aldossary,  E. Alguire,  J. H. Andersen,  D. Barton,  K. Begam,  A. Behn,  
 Y. A. Bernard,  E. J. Berquist,  H. Burton,  A. Carreras,  K. Carter-Fenk,  
 R. Chakraborty,  A. D. Chien,  K. D. Closser,  V. Cofer-Shabica,  
 S. Dasgupta,  Jia Deng,  M. de Wergifosse,  M. Diedenhofen,  Hainam Do,  
 S. Ehlert,  Po-Tung Fang,  S. Fatehi,  Qingguo Feng,  J. Gayvert,  
 Qinghui Ge,  G. Gidofalvi,  M. Goldey,  J. Gomes,  C. Gonzalez-Espinoza,  
 S. Gulania,  A. Gunina,  M. W. D. Hanson-Heine,  P. H. P. Harbach,  
 A. W. Hauser,  M. F. Herbst,  M. Hernandez Vera,  M. Hodecker,  
 Z. C. Holden,  S. Houck,  Xunkun Huang,  Kerwin Hui,  B. C. Huynh,  
 M. Ivanov,  Hyunjun Ji,  Hanjie Jiang,  B. Kaduk,  S. Kaehler,  
 K. Khistyaev,  Jaehoon Kim,  P. Klunzinger,  Z. Koczor-Benda,  
 Joong Hoon Koh,  D. Kosenkov,  L. Koulias,  T. Kowalczyk,  C. M. Krauter,  
 K. Kue,  A. Kunitsa,  T. Kus,  A. Landau,  K. V. Lawler,  D. Lefrancois,  
 S. Lehtola,  Rain Li,  Yi-Pei Li,  Jiashu Liang,  M. Liebenthal,  
 Hung-Hsuan Lin,  You-Sheng Lin,  Fenglai Liu,  Kuan-Yu Liu,  
 M. Loipersberger,  A. Luenser,  A. Manjanath,  P. Manohar,  E. Mansoor,  
 S. F. Manzer,  Shan-Ping Mao,  A. V. Marenich,  T. Markovich,  S. Mason,  
 S. A. Maurer,  P. F. McLaughlin,  M. F. S. J. Menger,  J.-M. Mewes,  
 S. A. Mewes,  P. Morgante,  J. W. Mullinax,  T. S. Nguyen-Beck,  
 K. J. Oosterbaan,  G. Paran,  Alexander C. Paul,  Suranjan K. Paul,  
 F. Pavosevic,  Zheng Pei,  S. Prager,  E. I. Proynov,  E. Ramos,  B. Rana,  
 A. E. Rask,  A. Rettig,  R. M. Richard,  F. Rob,  E. Rossomme,  T. Scheele,  
 M. Scheurer,  M. Schneider,  N. Sergueev,  S. M. Sharada,  W. Skomorowski,  
 D. W. Small,  C. J. Stein,  Yu-Chuan Su,  E. J. Sundstrom,  Zhen Tao,  
 J. Thirman,  T. Tsuchimochi,  N. M. Tubman,  S. P. Veccham,  O. Vydrov,  
 J. Wenzel,  J. Witte,  A. Yamada,  Kun Yao,  S. Yeganeh,  S. R. Yost,  
 A. Zech,  Igor Ying Zhang,  Xing Zhang,  Yu Zhang,  D. Zuev,  
 A. Aspuru-Guzik,  A. T. Bell,  N. A. Besley,  K. B. Bravaya,  B. R. Brooks,  
 D. Casanova,  Jeng-Da Chai,  S. Coriani,  C. J. Cramer,  
 A. E. DePrince, III,  R. A. DiStasio Jr.,  A. Dreuw,  B. D. Dunietz,  
 T. R. Furlani,  W. A. Goddard III,  S. Grimme,  S. Hammes-Schiffer,  
 T. Head-Gordon,  W. J. Hehre,  Chao-Ping Hsu,  T.-C. Jagau,  Yousung Jung,  
 A. Klamt,  Jing Kong,  D. S. Lambrecht,  WanZhen Liang,  N. J. Mayhall,  
 C. W. McCurdy,  J. B. Neaton,  C. Ochsenfeld,  J. A. Parkhill,  R. Peverati,  
 V. A. Rassolov,  Yihan Shao,  L. V. Slipchenko,  T. Stauch,  R. P. Steele,  
 J. E. Subotnik,  A. J. W. Thom,  A. Tkatchenko,  D. G. Truhlar,  
 T. Van Voorhis,  T. A. Wesolowski,  K. B. Whaley,  H. L. Woodcock III,  
 P. M. Zimmerman,  S. Faraji,  P. M. W. Gill,  M. Head-Gordon,  
 J. M. Herbert,  A. I. Krylov

 Contributors to earlier versions of Q-Chem not listed above: 
 R. D. Adamson,  B. Austin,  R. Baer,  J. Baker,  G. J. O. Beran,  
 K. Brandhorst,  S. T. Brown,  E. F. C. Byrd,  A. K. Chakraborty,  
 G. K. L. Chan,  Chun-Min Chang,  Yunqing Chen,  C.-L. Cheng,  
 Siu Hung Chien,  D. M. Chipman,  D. L. Crittenden,  H. Dachsel,  
 R. J. Doerksen,  A. D. Dutoi,  R. G. Edgar,  J. Fosso-Tande,  
 L. Fusti-Molnar,  D. Ghosh,  A. Ghysels,  A. Golubeva-Zadorozhnaya,  
 J. Gonthier,  M. S. Gordon,  S. R. Gwaltney,  G. Hawkins,  J. E. Herr,  
 A. Heyden,  S. Hirata,  E. G. Hohenstein,  G. Kedziora,  F. J. Keil,  
 C. Kelley,  Jihan Kim,  R. A. King,  R. Z. Khaliullin,  P. P. Korambath,  
 W. Kurlancheek,  A. Laurent,  A. M. Lee,  M. S. Lee,  S. V. Levchenko,  
 Ching Yeh Lin,  D. Liotard,  E. Livshits,  R. C. Lochan,  I. Lotan,  
 L. A. Martinez-Martinez,  P. E. Maslen,  N. Nair,  D. P. O'Neill,  
 D. Neuhauser,  E. Neuscamman,  C. M. Oana,  R. Olivares-Amaya,  R. Olson,  
 T. M. Perrine,  B. Peters,  P. A. Pieniazek,  A. Prociuk,  Y. M. Rhee,  
 J. Ritchie,  M. A. Rohrdanz,  E. Rosta,  N. J. Russ,  H. F. Schaefer III,  
 M. W. Schmidt,  N. E. Schultz,  S. Sharma,  N. Shenvi,  C. D. Sherrill,  
 A. C. Simmonett,  A. Sodt,  T. Stein,  D. Stuck,  K. S. Thanthiriwatte,  
 V. Vanovschi,  L. Vogt,  Tao Wang,  A. Warshel,  M. A. Watson,  
 C. F. Williams,  Q. Wu,  X. Xu,  Jun Yang,  W. Zhang,  Yan Zhao

 Please cite Q-Chem as follows:
 Y. Shao et al., Mol. Phys. 113, 184-215 (2015)
 DOI: 10.1080/00268976.2014.952696

 Q-Chem 5.4.0 for Intel X86 EM64T Linux

 Parts of Q-Chem use Armadillo 9.800.1 (Horizon Scraper).
 http://arma.sourceforge.net/

 Q-Chem begins on Fri Dec 15 14:03:41 2023  

 Host: 
0

     Scratch files written to ./qchem2118341//
 May1621 |scratch|qcdevops|jenkins|workspace|build_RNUM    
 Parallel job on  1  processors
 Processing $rem in /cm/shared/apps/spack/cpu/opt/spack/linux-centos8-zen2/gcc-10.2.0/qchem-5.4-akfmr7b3t57bfs6qan3padb2wnb2i7cl/config/preferences:
 Processing $rem in /home/rramji/.qchemrc:
 Symmetry turned off for PCM/SM12/SMD calculation
 Core orbitals will be frozen

 Checking the input file for inconsistencies... 	...done.

 Q-Chem warning in module forms1/BasisType.C, line 2236:

 You are not using the predefined 5D/6D in this basis set.


--------------------------------------------------------------
User input:
--------------------------------------------------------------
$molecule
0 1
C	-0.058100	-0.574004	0.005925
C	0.012400	0.267696	1.118925
C	0.129000	1.653696	0.826525
H	-0.020000	-0.119104	2.148825
C	0.150000	1.900996	-0.557675
S	0.022800	0.393196	-1.458775
C	0.218200	2.714596	1.888325
H	0.180600	2.268196	2.900925
H	-0.616100	3.443096	1.814025
H	1.162500	3.293496	1.814125
C	-0.058100	-2.024104	0.005925
H	0.129400	-2.024604	-1.057675
H	0.865800	-2.559204	0.169025
H	-0.878700	-2.711304	-0.138475
H	0.230200	2.855696	-1.091175
$end

$rem
JOBTYPE		SP
EXCHANGE	HF
CORRELATION	pRIMP2
BASIS		cc-pvtz
METHOD		rimp2
AUX_BASIS	rimp2-cc-pvtz
SOLVENT_METHOD	PCM
PURECART	11111
SYMMETRY	false
MEM_TOTAL	110000
SCF_CONVERGENCE = 6
THRESH=10
GUI = 2
$end



$solvent
dielectric 4.90
$end
--------------------------------------------------------------
 ----------------------------------------------------------------
             Standard Nuclear Orientation (Angstroms)
    I     Atom           X                Y                Z
 ----------------------------------------------------------------
    1      C      -0.0581000000    -0.5740040000     0.0059250000
    2      C       0.0124000000     0.2676960000     1.1189250000
    3      C       0.1290000000     1.6536960000     0.8265250000
    4      H      -0.0200000000    -0.1191040000     2.1488250000
    5      C       0.1500000000     1.9009960000    -0.5576750000
    6      S       0.0228000000     0.3931960000    -1.4587750000
    7      C       0.2182000000     2.7145960000     1.8883250000
    8      H       0.1806000000     2.2681960000     2.9009250000
    9      H      -0.6161000000     3.4430960000     1.8140250000
   10      H       1.1625000000     3.2934960000     1.8141250000
   11      C      -0.0581000000    -2.0241040000     0.0059250000
   12      H       0.1294000000    -2.0246040000    -1.0576750000
   13      H       0.8658000000    -2.5592040000     0.1690250000
   14      H      -0.8787000000    -2.7113040000    -0.1384750000
   15      H       0.2302000000     2.8556960000    -1.0911750000
 ----------------------------------------------------------------
 Nuclear Repulsion Energy =         344.44769182 hartrees
 There are       30 alpha and       30 beta electrons
 Requested basis set is cc-pVTZ
 There are 120 shells and 326 basis functions

 Total QAlloc Memory Limit 110000 MB
 Mega-Array Size       188 MB
 MEM_STATIC part       192 MB
 Discretize the solute cavity surface with Lebedev spheres
	Using 110 Lebedev grid points for each H atom
	Using 194 Lebedev grid points for other atoms
	Atomic van der Waals radii will be scaled by 1.20
 Remove points where switching function is < 1.0e-08
 Keep 1056 surface tesserae and discard 1182 interior tesserae
 Molecular Surface Area = 158.807 Angst**2

                       Distance Matrix (Angstroms)
             C (  1)   C (  2)   C (  3)   H (  4)   C (  5)   S (  6)
   C (  2)  1.397211
   C (  3)  2.381394  1.421298
   H (  4)  2.190983  1.100617  2.216641
   C (  5)  2.546876  2.344694  1.406274  3.381545
   S (  6)  1.757090  2.580774  2.612037  3.644045  1.761142
   C (  7)  3.799297  2.573257  1.503624  2.855601  2.578665  4.078009
   H (  8)  4.064001  2.684365  2.164118  2.510995  3.478173  4.748422
   H (  9)  4.440460  3.310792  2.175381  3.627216  2.930860  4.518994
   H ( 10)  4.440384  3.310815  2.175413  3.627143  2.930810  4.519129
   C ( 11)  1.450100  2.548742  3.772877  2.867490  3.970814  2.827584
   H ( 12)  1.808492  3.163213  4.132808  3.732947  3.957368  2.453162
   H ( 13)  2.195726  3.101929  4.327090  3.264711  4.575352  3.475205
   H ( 14)  2.293968  3.354036  4.582566  3.562107  4.744182  3.491964
   H ( 15)  3.612421  3.410238  2.265528  4.405637  1.096589  2.498410
             C (  7)   H (  8)   H (  9)   H ( 10)   C ( 11)   H ( 12)
   H (  8)  1.107269
   H (  9)  1.110085  1.787868
   H ( 10)  1.110105  1.787876  1.784880
   C ( 11)  5.106373  5.182841  5.785401  5.747723
   H ( 12)  5.580933  5.839629  6.220786  6.131616  1.080001
   H ( 13)  5.584653  5.588968  6.397629  6.086746  1.080058  1.527375
   H ( 14)  5.895040  5.929206  6.462032  6.636020  1.080037  1.527335
   H ( 15)  2.982863  4.035403  3.082442  3.082470  5.009910  4.881456
             H ( 13)   H ( 14)
   H ( 14)  1.777912
   H ( 15)  5.595823  5.755761
 
 Requested basis set is rimp2-cc-pVTZ
 There are 250 shells and 848 basis functions
 A cutoff of  1.0D-10 yielded   6169 shell pairs
 There are     45173 function pairs (     58089 Cartesian)
 Smallest overlap matrix eigenvalue = 1.03E-04

 Scale SEOQF with 1.000000e+00/1.000000e-01/1.000000e-01

 Standard Electronic Orientation quadrupole field applied
 Nucleus-field energy     =     0.0000000035 hartrees
 Guess from superposition of atomic densities
 Warning:  Energy on first SCF cycle will be non-variational
 SAD guess density has 60.000000 electrons

 -----------------------------------------------------------------------
  General SCF calculation program by
  Eric Jon Sundstrom, Paul Horn, Yuezhi Mao, Dmitri Zuev, Alec White,
  David Stuck, Shaama M.S., Shane Yost, Joonho Lee, David Small,
  Daniel Levine, Susi Lehtola, Hugh Burton, Evgeny Epifanovsky,
  Bang C. Huynh
 -----------------------------------------------------------------------
 Hartree-Fock
 using 64 threads for integral computing
 -------------------------------------------------------
 OpenMP Integral computing Module                
 Release: version 1.0, May 2013, Q-Chem Inc. Pittsburgh 
 -------------------------------------------------------
 A restricted SCF calculation will be
 performed using DIIS
 SCF converges when DIIS error is below 1.0e-06
 ---------------------------------------
  Cycle       Energy         DIIS error
 ---------------------------------------
    1    -632.0916795086      2.91e-02  
    2    -629.3412850779      1.94e-03  
    3    -629.4118386896      6.86e-04  
    4    -629.4194476631      3.43e-04  
    5    -629.4215531300      6.38e-05  
    6    -629.4216872613      2.62e-05  
    7    -629.4217210558      1.16e-05  
    8    -629.4217304326      4.93e-06  
    9    -629.4217318411      1.75e-06  
   10    -629.4217320157      5.40e-07  Convergence criterion met
 ---------------------------------------
 SCF time:   CPU 669.94s  wall 14.00s 

************** Final PCM Free Energy Summary **************
 G_electrostatic  =      -0.00508884 hartree =      -3.19329452 kcal/mol
 G_cavitation     =       0.00000000 hartree =       0.00000000 kcal/mol
 G_dispersion     =       0.00000000 hartree =       0.00000000 kcal/mol
 G_repulsion      =       0.00000000 hartree =       0.00000000 kcal/mol
 --------------------------------------------------
 Non-electrostatic Free Energy =       0.00000000 hartree =       0.00000000 kcal/mol
 Total                         =      -0.00508884 hartree =      -3.19329452 kcal/mol
 --------------------------------------------------
 SCF Energy (H0 + V/2)                       =    -629.42173202 
 Solute Internal Energy (H0)                 =    -629.41664318 
 Total Free Energy (H0 + V/2 + non-elec)     =    -629.42173202 hartree
                                             = -394968.09809309 kcal/mol
***********************************************************

 SCF   energy in the final basis set =     -629.4217320157
 Total energy in the final basis set =     -629.4217320157


 --------------------------------------------------------------
  Generalized many-body perturbation theory program
  by Joonho Lee, Fazle Rob, Xintian Feng, Evgeny Epifanovsky

 No regularization used 
 (reg. param. = 0.0000e+00)
  (P|Q)^-1/2 Time:  CPU 7.39 s  wall 0.12 s

 In RI-MP2 calculation: 
 # of frozen core orbitals: 11

 Components of the RIMP2 correlation energy:
        aaaa    correlation energy =        -0.1454859075 a.u.
        abab    correlation energy =        -0.8865588425 a.u.
        bbbb    correlation energy =        -0.1454859075 a.u.
        non-Brillouin singles      =        -0.0000000000 a.u.
        total same-spin energy     =        -0.2909718150 a.u.
        total opposite-spin energy =        -0.8865588425 a.u.

 Total  RIMP2   correlation energy =        -1.1775306575 a.u.
        RIMP2         total energy =      -630.5992626732 a.u.

 RI-MP2 Energy Time:  CPU 35.99 s  wall 0.62 s
 
 --------------------------------------------------------------
 
                    Orbital Energies (a.u.)
 --------------------------------------------------------------
 
 Alpha MOs
 -- Occupied --
-91.9809 -11.2753 -11.2582 -11.2472 -11.2288 -11.2270 -11.2169  -8.9807
 -6.6616  -6.6611  -6.6604  -1.1607  -1.0534  -0.9952  -0.9456  -0.8828
 -0.7477  -0.7182  -0.6471  -0.5910  -0.5754  -0.5660  -0.5532  -0.5464
 -0.5085  -0.4870  -0.4649  -0.4449  -0.3381  -0.3044
 -- Virtual --
  0.1042   0.1421   0.1501   0.1739   0.1887   0.1919   0.1944   0.2326
  0.2395   0.2444   0.2447   0.2808   0.2879   0.3165   0.3437   0.3501
  0.3730   0.3979   0.4044   0.4106   0.4460   0.4717   0.4720   0.4790
  0.4917   0.5074   0.5231   0.5258   0.5357   0.5719   0.5755   0.5980
  0.6016   0.6043   0.6135   0.6233   0.6357   0.6407   0.6426   0.6501
  0.6601   0.6616   0.6865   0.6997   0.7356   0.7467   0.7673   0.7755
  0.8002   0.8111   0.8422   0.8546   0.8666   0.8971   0.9025   0.9335
  0.9600   0.9670   0.9820   1.0116   1.0361   1.0481   1.0625   1.0728
  1.0849   1.0858   1.1208   1.1249   1.1563   1.1691   1.1881   1.2095
  1.2205   1.2470   1.2552   1.2561   1.2720   1.2998   1.3098   1.3160
  1.3554   1.3797   1.4052   1.4122   1.4355   1.4395   1.4541   1.4778
  1.4865   1.5022   1.5218   1.5404   1.5489   1.5604   1.5693   1.5855
  1.6229   1.6261   1.6309   1.6656   1.6895   1.6909   1.7090   1.7528
  1.7689   1.7826   1.8065   1.8398   1.8871   1.9027   1.9275   1.9592
  1.9900   2.0471   2.1031   2.1251   2.1838   2.1978   2.2207   2.2367
  2.2575   2.2968   2.3618   2.4183   2.4537   2.5170   2.5198   2.5610
  2.5729   2.6087   2.6144   2.6548   2.6699   2.6763   2.7224   2.7284
  2.7480   2.7537   2.7869   2.7976   2.8250   2.8425   2.8499   2.8927
  2.9077   2.9093   2.9239   2.9649   2.9945   3.0146   3.0491   3.0772
  3.0967   3.1141   3.1334   3.1484   3.1546   3.1723   3.1752   3.1944
  3.2249   3.2466   3.2527   3.2646   3.2905   3.3048   3.3080   3.3244
  3.3363   3.3565   3.3738   3.3888   3.3913   3.4164   3.4223   3.4337
  3.4378   3.4536   3.4817   3.4970   3.5080   3.5193   3.5284   3.5663
  3.5895   3.6041   3.6099   3.6196   3.6324   3.6400   3.6578   3.6760
  3.7044   3.7151   3.7383   3.7543   3.7646   3.7752   3.7877   3.7964
  3.8166   3.8238   3.8794   3.8888   3.9088   3.9289   3.9313   3.9499
  3.9587   3.9651   4.0094   4.0219   4.0326   4.0518   4.0975   4.1030
  4.1307   4.1438   4.1621   4.1696   4.1813   4.2084   4.2227   4.2455
  4.2810   4.2875   4.3037   4.3378   4.3422   4.3521   4.3897   4.4024
  4.4129   4.4284   4.4395   4.4484   4.4601   4.4838   4.5393   4.5629
  4.5913   4.6295   4.6442   4.6642   4.7113   4.7451   4.7473   4.7822
  4.7933   4.8084   4.8536   4.9043   4.9301   5.0003   5.0849   5.0956
  5.1194   5.1273   5.1574   5.1951   5.2481   5.2823   5.2965   5.3061
  5.3627   5.4029   5.4149   5.4400   5.4597   5.4928   5.5500   5.5631
  5.5910   5.6217   5.6301   5.6999   5.7360   5.8220   5.8378   5.8790
  5.9083   5.9543   6.0216   6.1360   6.2267   6.2494   6.3078   6.3591
  6.4129   6.5022   9.1671  11.3942  12.9169  13.8994  14.1756  14.4536
 --------------------------------------------------------------
 
          Ground-State Mulliken Net Atomic Charges

     Atom                 Charge (a.u.)
  ----------------------------------------
      1 C                     0.051272
      2 C                    -0.260966
      3 C                     0.039543
      4 H                     0.179250
      5 C                    -0.259859
      6 S                    -0.002059
      7 C                    -0.273096
      8 H                     0.102050
      9 H                     0.106909
     10 H                     0.106881
     11 C                    -0.368925
     12 H                     0.112416
     13 H                     0.129564
     14 H                     0.141114
     15 H                     0.195906
  ----------------------------------------
  Sum of atomic charges =     0.000000

 -----------------------------------------------------------------
                    Cartesian Multipole Moments
 -----------------------------------------------------------------
    Charge (ESU x 10^10)
                -0.0000
    Dipole Moment (Debye)
         X       0.2550      Y       0.0127      Z       0.8715
       Tot       0.9081
    Quadrupole Moments (Debye-Ang)
        XX     -53.6653     XY       0.5661     YY     -42.1841
        XZ       0.1757     YZ       1.5965     ZZ     -48.8468
    Octopole Moments (Debye-Ang^2)
       XXX      -9.3584    XXY     -32.5098    XYY      -1.3364
       YYY     -77.6876    XXZ      -2.3511    XYZ      -0.7944
       YYZ      -8.2116    XZZ      -2.6567    YZZ     -23.3121
       ZZZ       0.3664
    Hexadecapole Moments (Debye-Ang^3)
      XXXX     -82.2884   XXXY     -26.1578   XXYY    -155.6529
      XYYY     -19.8564   YYYY    -804.4657   XXXZ      -7.6550
      XXYZ     -32.1098   XYYZ      -2.2108   YYYZ    -103.4512
      XXZZ    -103.4644   XYZZ      -6.8958   YYZZ    -217.7883
      XZZZ      -9.1987   YZZZ    -106.5477   ZZZZ    -489.2113
 -----------------------------------------------------------------
 Total job time:  15.56s(wall), 739.00s(cpu) 
 Fri Dec 15 14:03:57 2023

        *************************************************************
        *                                                           *
        *  Thank you very much for using Q-Chem.  Have a nice day.  *
        *                                                           *
        *************************************************************


0 sent ACK to 0 
now end server 0 ... 
cleanup process ... done
remove work dirs ./qchem2118341.0 -- ./qchem2118341.0
rm -rf ./qchem2118341.0
rm -rf ./qchem2118341
