You are running Q-Chem version: 5.4.0

#
# job setting
#
local host:  exp-7-23
current dir: /home/rramji/project-csd799/aromodel/p3ht-qchem/methylated-rotation-run
input file:  Methylthiophene_Phi_30_Theta_270_Methylthiophene_Hydrogenated_Improper.qcin
output file: 
nprocs     : 1
nthreads   : 64
#
# qchem installation setting
#
QC:          /cm/shared/apps/spack/cpu/opt/spack/linux-centos8-zen2/gcc-10.2.0/qchem-5.4-akfmr7b3t57bfs6qan3padb2wnb2i7cl
QCAUX:       /cm/shared/apps/spack/cpu/opt/spack/linux-centos8-zen2/gcc-10.2.0/qchem-5.4-akfmr7b3t57bfs6qan3padb2wnb2i7cl/qcaux
QCPROG:      /cm/shared/apps/spack/cpu/opt/spack/linux-centos8-zen2/gcc-10.2.0/qchem-5.4-akfmr7b3t57bfs6qan3padb2wnb2i7cl/exe/qcprog.exe
QCPROG_S:    /cm/shared/apps/spack/cpu/opt/spack/linux-centos8-zen2/gcc-10.2.0/qchem-5.4-akfmr7b3t57bfs6qan3padb2wnb2i7cl/exe/qcprog.exe_s
PARALLEL:    -DPARALLEL
QCMPI:       mpich
#
# qchem directory setting
#
qcrun:       qchem647370
QCSCRATCH:   .
QCLOCALSCR:  
QCTMPDIR:    .
QCFILEPREF:  ./qchem647370
QCSAVEDIR:   
workdirs:    ./qchem647370
workdir0:    ./qchem647370
partmpdirs =  
#
# parallel setting
#
QCRSH:           ssh
QCMPI:           mpich
QCMPIRUN:        /cm/shared/apps/spack/cpu/opt/spack/linux-centos8-zen2/gcc-10.2.0/qchem-5.4-akfmr7b3t57bfs6qan3padb2wnb2i7cl/bin/mpi/mpirun_qchem
QCMACHINEFILE:   ./qchem647370/hostfile
exp-7-23

#
# env setting
#
exported envs:   QC QCAUX QCSCRATCH QCRUNNAME QCFILEPREF QCPROG QCPROG_S GUIFILE

Running Job 1 of 1 Methylthiophene_Phi_30_Theta_270_Methylthiophene_Hydrogenated_Improper.qcin
qchem Methylthiophene_Phi_30_Theta_270_Methylthiophene_Hydrogenated_Improper.qcin_647370.0 ./qchem647370/ 1
/cm/shared/apps/spack/cpu/opt/spack/linux-centos8-zen2/gcc-10.2.0/qchem-5.4-akfmr7b3t57bfs6qan3padb2wnb2i7cl/bin/mpi/mpirun_qchem -machinefile ./qchem647370/hostfile -np 1 /cm/shared/apps/spack/cpu/opt/spack/linux-centos8-zen2/gcc-10.2.0/qchem-5.4-akfmr7b3t57bfs6qan3padb2wnb2i7cl/exe/qcprog.exe Methylthiophene_Phi_30_Theta_270_Methylthiophene_Hydrogenated_Improper.qcin_647370.0 ./qchem647370/

Process 0 of 1 is on exp-7-23 - thread support 0
initial socket setup ...start
initial socket setup ...done 
now start server 0 ... 
                  Welcome to Q-Chem
     A Quantum Leap Into The Future Of Chemistry


 Q-Chem 5.4, Q-Chem, Inc., Pleasanton, CA (2021)

 License issued to: University of California, San Diego (site)

 E. Epifanovsky,  A. T. B. Gilbert,  Xintian Feng,  Joonho Lee,  Yuezhi Mao,  
 N. Mardirossian,  P. Pokhilko,  A. White,  M. Wormit,  M. P. Coons,  
 A. L. Dempwolff,  Zhengting Gan,  D. Hait,  P. R. Horn,  L. D. Jacobson,  
 I. Kaliman,  J. Kussmann,  A. W. Lange,  Ka Un Lao,  D. S. Levine,  Jie Liu,  
 S. C. McKenzie,  A. F. Morrison,  K. Nanda,  F. Plasser,  D. R. Rehn,  
 M. L. Vidal,  Zhi-Qiang You,  Ying Zhu,  B. Alam,  B. Albrecht,  
 A. Aldossary,  E. Alguire,  J. H. Andersen,  D. Barton,  K. Begam,  A. Behn,  
 Y. A. Bernard,  E. J. Berquist,  H. Burton,  A. Carreras,  K. Carter-Fenk,  
 R. Chakraborty,  A. D. Chien,  K. D. Closser,  V. Cofer-Shabica,  
 S. Dasgupta,  Jia Deng,  M. de Wergifosse,  M. Diedenhofen,  Hainam Do,  
 S. Ehlert,  Po-Tung Fang,  S. Fatehi,  Qingguo Feng,  J. Gayvert,  
 Qinghui Ge,  G. Gidofalvi,  M. Goldey,  J. Gomes,  C. Gonzalez-Espinoza,  
 S. Gulania,  A. Gunina,  M. W. D. Hanson-Heine,  P. H. P. Harbach,  
 A. W. Hauser,  M. F. Herbst,  M. Hernandez Vera,  M. Hodecker,  
 Z. C. Holden,  S. Houck,  Xunkun Huang,  Kerwin Hui,  B. C. Huynh,  
 M. Ivanov,  Hyunjun Ji,  Hanjie Jiang,  B. Kaduk,  S. Kaehler,  
 K. Khistyaev,  Jaehoon Kim,  P. Klunzinger,  Z. Koczor-Benda,  
 Joong Hoon Koh,  D. Kosenkov,  L. Koulias,  T. Kowalczyk,  C. M. Krauter,  
 K. Kue,  A. Kunitsa,  T. Kus,  A. Landau,  K. V. Lawler,  D. Lefrancois,  
 S. Lehtola,  Rain Li,  Yi-Pei Li,  Jiashu Liang,  M. Liebenthal,  
 Hung-Hsuan Lin,  You-Sheng Lin,  Fenglai Liu,  Kuan-Yu Liu,  
 M. Loipersberger,  A. Luenser,  A. Manjanath,  P. Manohar,  E. Mansoor,  
 S. F. Manzer,  Shan-Ping Mao,  A. V. Marenich,  T. Markovich,  S. Mason,  
 S. A. Maurer,  P. F. McLaughlin,  M. F. S. J. Menger,  J.-M. Mewes,  
 S. A. Mewes,  P. Morgante,  J. W. Mullinax,  T. S. Nguyen-Beck,  
 K. J. Oosterbaan,  G. Paran,  Alexander C. Paul,  Suranjan K. Paul,  
 F. Pavosevic,  Zheng Pei,  S. Prager,  E. I. Proynov,  E. Ramos,  B. Rana,  
 A. E. Rask,  A. Rettig,  R. M. Richard,  F. Rob,  E. Rossomme,  T. Scheele,  
 M. Scheurer,  M. Schneider,  N. Sergueev,  S. M. Sharada,  W. Skomorowski,  
 D. W. Small,  C. J. Stein,  Yu-Chuan Su,  E. J. Sundstrom,  Zhen Tao,  
 J. Thirman,  T. Tsuchimochi,  N. M. Tubman,  S. P. Veccham,  O. Vydrov,  
 J. Wenzel,  J. Witte,  A. Yamada,  Kun Yao,  S. Yeganeh,  S. R. Yost,  
 A. Zech,  Igor Ying Zhang,  Xing Zhang,  Yu Zhang,  D. Zuev,  
 A. Aspuru-Guzik,  A. T. Bell,  N. A. Besley,  K. B. Bravaya,  B. R. Brooks,  
 D. Casanova,  Jeng-Da Chai,  S. Coriani,  C. J. Cramer,  
 A. E. DePrince, III,  R. A. DiStasio Jr.,  A. Dreuw,  B. D. Dunietz,  
 T. R. Furlani,  W. A. Goddard III,  S. Grimme,  S. Hammes-Schiffer,  
 T. Head-Gordon,  W. J. Hehre,  Chao-Ping Hsu,  T.-C. Jagau,  Yousung Jung,  
 A. Klamt,  Jing Kong,  D. S. Lambrecht,  WanZhen Liang,  N. J. Mayhall,  
 C. W. McCurdy,  J. B. Neaton,  C. Ochsenfeld,  J. A. Parkhill,  R. Peverati,  
 V. A. Rassolov,  Yihan Shao,  L. V. Slipchenko,  T. Stauch,  R. P. Steele,  
 J. E. Subotnik,  A. J. W. Thom,  A. Tkatchenko,  D. G. Truhlar,  
 T. Van Voorhis,  T. A. Wesolowski,  K. B. Whaley,  H. L. Woodcock III,  
 P. M. Zimmerman,  S. Faraji,  P. M. W. Gill,  M. Head-Gordon,  
 J. M. Herbert,  A. I. Krylov

 Contributors to earlier versions of Q-Chem not listed above: 
 R. D. Adamson,  B. Austin,  R. Baer,  J. Baker,  G. J. O. Beran,  
 K. Brandhorst,  S. T. Brown,  E. F. C. Byrd,  A. K. Chakraborty,  
 G. K. L. Chan,  Chun-Min Chang,  Yunqing Chen,  C.-L. Cheng,  
 Siu Hung Chien,  D. M. Chipman,  D. L. Crittenden,  H. Dachsel,  
 R. J. Doerksen,  A. D. Dutoi,  R. G. Edgar,  J. Fosso-Tande,  
 L. Fusti-Molnar,  D. Ghosh,  A. Ghysels,  A. Golubeva-Zadorozhnaya,  
 J. Gonthier,  M. S. Gordon,  S. R. Gwaltney,  G. Hawkins,  J. E. Herr,  
 A. Heyden,  S. Hirata,  E. G. Hohenstein,  G. Kedziora,  F. J. Keil,  
 C. Kelley,  Jihan Kim,  R. A. King,  R. Z. Khaliullin,  P. P. Korambath,  
 W. Kurlancheek,  A. Laurent,  A. M. Lee,  M. S. Lee,  S. V. Levchenko,  
 Ching Yeh Lin,  D. Liotard,  E. Livshits,  R. C. Lochan,  I. Lotan,  
 L. A. Martinez-Martinez,  P. E. Maslen,  N. Nair,  D. P. O'Neill,  
 D. Neuhauser,  E. Neuscamman,  C. M. Oana,  R. Olivares-Amaya,  R. Olson,  
 T. M. Perrine,  B. Peters,  P. A. Pieniazek,  A. Prociuk,  Y. M. Rhee,  
 J. Ritchie,  M. A. Rohrdanz,  E. Rosta,  N. J. Russ,  H. F. Schaefer III,  
 M. W. Schmidt,  N. E. Schultz,  S. Sharma,  N. Shenvi,  C. D. Sherrill,  
 A. C. Simmonett,  A. Sodt,  T. Stein,  D. Stuck,  K. S. Thanthiriwatte,  
 V. Vanovschi,  L. Vogt,  Tao Wang,  A. Warshel,  M. A. Watson,  
 C. F. Williams,  Q. Wu,  X. Xu,  Jun Yang,  W. Zhang,  Yan Zhao

 Please cite Q-Chem as follows:
 Y. Shao et al., Mol. Phys. 113, 184-215 (2015)
 DOI: 10.1080/00268976.2014.952696

 Q-Chem 5.4.0 for Intel X86 EM64T Linux

 Parts of Q-Chem use Armadillo 9.800.1 (Horizon Scraper).
 http://arma.sourceforge.net/

 Q-Chem begins on Fri Dec 15 14:03:09 2023  

 Host: 
0

     Scratch files written to ./qchem647370//
 May1621 |scratch|qcdevops|jenkins|workspace|build_RNUM    
 Parallel job on  1  processors
 Processing $rem in /cm/shared/apps/spack/cpu/opt/spack/linux-centos8-zen2/gcc-10.2.0/qchem-5.4-akfmr7b3t57bfs6qan3padb2wnb2i7cl/config/preferences:
 Processing $rem in /home/rramji/.qchemrc:
 Symmetry turned off for PCM/SM12/SMD calculation
 Core orbitals will be frozen

 Checking the input file for inconsistencies... 	...done.

 Q-Chem warning in module forms1/BasisType.C, line 2236:

 You are not using the predefined 5D/6D in this basis set.


--------------------------------------------------------------
User input:
--------------------------------------------------------------
$molecule
0 1
C	-0.337924	-0.486609	0.006080
C	0.081676	0.246391	1.119080
C	0.773176	1.453391	0.826680
H	-0.111224	-0.090409	2.148980
C	0.896676	1.668591	-0.557520
S	0.144176	0.355791	-1.458620
C	1.302376	2.377091	1.888480
H	1.079576	1.988491	2.901080
H	0.854076	3.389991	1.814180
H	2.402776	2.502691	1.814280
C	-0.337924	-1.936709	0.006080
H	-0.337924	-1.937209	-1.073920
H	0.600176	-2.471809	0.006280
H	-1.171124	-2.623909	0.006380
H	1.372776	2.499891	-1.091020
$end

$rem
JOBTYPE		SP
EXCHANGE	HF
CORRELATION	pRIMP2
BASIS		cc-pvtz
METHOD		rimp2
AUX_BASIS	rimp2-cc-pvtz
SOLVENT_METHOD	PCM
PURECART	11111
SYMMETRY	false
MEM_TOTAL	110000
SCF_CONVERGENCE = 6
THRESH=10
GUI = 2
$end



$solvent
dielectric 4.90
$end
--------------------------------------------------------------
 ----------------------------------------------------------------
             Standard Nuclear Orientation (Angstroms)
    I     Atom           X                Y                Z
 ----------------------------------------------------------------
    1      C      -0.3379240000    -0.4866090000     0.0060800000
    2      C       0.0816760000     0.2463910000     1.1190800000
    3      C       0.7731760000     1.4533910000     0.8266800000
    4      H      -0.1112240000    -0.0904090000     2.1489800000
    5      C       0.8966760000     1.6685910000    -0.5575200000
    6      S       0.1441760000     0.3557910000    -1.4586200000
    7      C       1.3023760000     2.3770910000     1.8884800000
    8      H       1.0795760000     1.9884910000     2.9010800000
    9      H       0.8540760000     3.3899910000     1.8141800000
   10      H       2.4027760000     2.5026910000     1.8142800000
   11      C      -0.3379240000    -1.9367090000     0.0060800000
   12      H      -0.3379240000    -1.9372090000    -1.0739200000
   13      H       0.6001760000    -2.4718090000     0.0062800000
   14      H      -1.1711240000    -2.6239090000     0.0063800000
   15      H       1.3727760000     2.4998910000    -1.0910200000
 ----------------------------------------------------------------
 Nuclear Repulsion Energy =         346.06778953 hartrees
 There are       30 alpha and       30 beta electrons
 Requested basis set is cc-pVTZ
 There are 120 shells and 326 basis functions

 Total QAlloc Memory Limit 110000 MB
 Mega-Array Size       188 MB
 MEM_STATIC part       192 MB
 Discretize the solute cavity surface with Lebedev spheres
	Using 110 Lebedev grid points for each H atom
	Using 194 Lebedev grid points for other atoms
	Atomic van der Waals radii will be scaled by 1.20
 Remove points where switching function is < 1.0e-08
 Keep 1045 surface tesserae and discard 1193 interior tesserae
 Molecular Surface Area = 157.861 Angst**2

                       Distance Matrix (Angstroms)
             C (  1)   C (  2)   C (  3)   H (  4)   C (  5)   S (  6)
   C (  2)  1.397184
   C (  3)  2.381497  1.421450
   H (  4)  2.190979  1.100608  2.216745
   C (  5)  2.546914  2.344753  1.406262  3.381580
   S (  6)  1.757101  2.580777  2.612080  3.644050  1.761159
   C (  7)  3.799315  2.573318  1.503560  2.855640  2.578659  4.078009
   H (  8)  4.064044  2.684444  2.164105  2.511072  3.478175  4.748438
   H (  9)  4.440509  3.310889  2.175344  3.627269  2.930869  4.519021
   H ( 10)  4.440376  3.310846  2.175312  3.627174  2.930784  4.519107
   C ( 11)  1.450100  2.486113  3.660697  2.837646  3.852281  2.762847
   H ( 12)  1.808491  3.123047  4.042647  3.721444  3.846128  2.374503
   H ( 13)  2.195689  2.982579  4.013749  3.281512  4.189116  3.217016
   H ( 14)  2.293965  3.323587  4.591031  3.483209  4.797847  3.571393
   H ( 15)  3.612382  3.410241  2.265448  4.405623  1.096519  2.498350
             C (  7)   H (  8)   H (  9)   H ( 10)   C ( 11)   H ( 12)
   H (  8)  1.107253
   H (  9)  1.110162  1.787849
   H ( 10)  1.110028  1.787846  1.784873
   C ( 11)  4.984264  5.079127  5.750115  5.521711
   H ( 12)  5.484486  5.763771  6.175844  5.963711  1.080000
   H ( 13)  5.248580  5.338911  6.139517  5.591411  1.079983  1.527305
   H ( 14)  5.888166  5.892298  6.598225  6.505635  1.080031  1.527360
   H ( 15)  2.982860  4.035388  3.082453  3.082479  4.879912  4.755486
             H ( 13)   H ( 14)
   H ( 14)  1.777818
   H ( 15)  5.149639  5.824864
 
 Requested basis set is rimp2-cc-pVTZ
 There are 250 shells and 848 basis functions
 A cutoff of  1.0D-10 yielded   6201 shell pairs
 There are     45453 function pairs (     58462 Cartesian)
 Smallest overlap matrix eigenvalue = 1.30E-04

 Scale SEOQF with 1.000000e-01/1.000000e-01/1.000000e-01

 Standard Electronic Orientation quadrupole field applied
 Nucleus-field energy     =     0.0000000010 hartrees
 Guess from superposition of atomic densities
 Warning:  Energy on first SCF cycle will be non-variational
 SAD guess density has 60.000000 electrons

 -----------------------------------------------------------------------
  General SCF calculation program by
  Eric Jon Sundstrom, Paul Horn, Yuezhi Mao, Dmitri Zuev, Alec White,
  David Stuck, Shaama M.S., Shane Yost, Joonho Lee, David Small,
  Daniel Levine, Susi Lehtola, Hugh Burton, Evgeny Epifanovsky,
  Bang C. Huynh
 -----------------------------------------------------------------------
 Hartree-Fock
 using 64 threads for integral computing
 -------------------------------------------------------
 OpenMP Integral computing Module                
 Release: version 1.0, May 2013, Q-Chem Inc. Pittsburgh 
 -------------------------------------------------------
 A restricted SCF calculation will be
 performed using DIIS
 SCF converges when DIIS error is below 1.0e-06
 ---------------------------------------
  Cycle       Energy         DIIS error
 ---------------------------------------
    1    -632.1160190717      2.92e-02  
    2    -629.3240578228      1.93e-03  
    3    -629.3946049267      6.73e-04  
    4    -629.4021523198      3.32e-04  
    5    -629.4041722317      6.36e-05  
    6    -629.4043111896      2.60e-05  
    7    -629.4043475083      1.20e-05  
    8    -629.4043579769      4.62e-06  
    9    -629.4043594524      1.99e-06  
   10    -629.4043596389      5.35e-07  Convergence criterion met
 ---------------------------------------
 SCF time:   CPU 665.55s  wall 14.00s 

************** Final PCM Free Energy Summary **************
 G_electrostatic  =      -0.00488774 hartree =      -3.06710520 kcal/mol
 G_cavitation     =       0.00000000 hartree =       0.00000000 kcal/mol
 G_dispersion     =       0.00000000 hartree =       0.00000000 kcal/mol
 G_repulsion      =       0.00000000 hartree =       0.00000000 kcal/mol
 --------------------------------------------------
 Non-electrostatic Free Energy =       0.00000000 hartree =       0.00000000 kcal/mol
 Total                         =      -0.00488774 hartree =      -3.06710520 kcal/mol
 --------------------------------------------------
 SCF Energy (H0 + V/2)                       =    -629.40435964 
 Solute Internal Energy (H0)                 =    -629.39947190 
 Total Free Energy (H0 + V/2 + non-elec)     =    -629.40435964 hartree
                                             = -394957.19676209 kcal/mol
***********************************************************

 SCF   energy in the final basis set =     -629.4043596389
 Total energy in the final basis set =     -629.4043596389


 --------------------------------------------------------------
  Generalized many-body perturbation theory program
  by Joonho Lee, Fazle Rob, Xintian Feng, Evgeny Epifanovsky

 No regularization used 
 (reg. param. = 0.0000e+00)
  (P|Q)^-1/2 Time:  CPU 6.95 s  wall 0.12 s

 In RI-MP2 calculation: 
 # of frozen core orbitals: 11

 Components of the RIMP2 correlation energy:
        aaaa    correlation energy =        -0.1461363282 a.u.
        abab    correlation energy =        -0.8891701986 a.u.
        bbbb    correlation energy =        -0.1461363282 a.u.
        non-Brillouin singles      =        -0.0000000000 a.u.
        total same-spin energy     =        -0.2922726565 a.u.
        total opposite-spin energy =        -0.8891701986 a.u.

 Total  RIMP2   correlation energy =        -1.1814428550 a.u.
        RIMP2         total energy =      -630.5858024939 a.u.

 RI-MP2 Energy Time:  CPU 35.64 s  wall 0.63 s
 
 --------------------------------------------------------------
 
                    Orbital Energies (a.u.)
 --------------------------------------------------------------
 
 Alpha MOs
 -- Occupied --
-91.9794 -11.2676 -11.2639 -11.2474 -11.2336 -11.2274 -11.2142  -8.9795
 -6.6604  -6.6598  -6.6592  -1.1633  -1.0536  -0.9944  -0.9450  -0.8818
 -0.7492  -0.7201  -0.6453  -0.5907  -0.5763  -0.5662  -0.5525  -0.5464
 -0.5116  -0.4784  -0.4645  -0.4428  -0.3366  -0.3052
 -- Virtual --
  0.0900   0.1432   0.1525   0.1747   0.1871   0.1911   0.1947   0.2303
  0.2374   0.2438   0.2461   0.2811   0.2899   0.3116   0.3469   0.3507
  0.3713   0.3984   0.4024   0.4137   0.4407   0.4640   0.4703   0.4741
  0.4894   0.4956   0.5228   0.5292   0.5360   0.5507   0.5727   0.5845
  0.5974   0.6043   0.6120   0.6210   0.6312   0.6396   0.6441   0.6548
  0.6589   0.6638   0.6758   0.6975   0.7398   0.7554   0.7634   0.7777
  0.7942   0.8085   0.8395   0.8566   0.8638   0.8883   0.8929   0.9111
  0.9581   0.9708   1.0000   1.0129   1.0300   1.0504   1.0604   1.0714
  1.0847   1.0980   1.1167   1.1404   1.1570   1.1698   1.1971   1.2191
  1.2278   1.2413   1.2453   1.2658   1.2768   1.2966   1.3220   1.3312
  1.3401   1.3501   1.3925   1.4080   1.4222   1.4328   1.4576   1.4805
  1.4880   1.5003   1.5099   1.5216   1.5502   1.5682   1.5716   1.6049
  1.6103   1.6215   1.6289   1.6573   1.6800   1.6905   1.7075   1.7461
  1.7562   1.7815   1.7958   1.8319   1.8839   1.9258   1.9391   1.9632
  1.9909   2.0399   2.0861   2.1089   2.1744   2.1836   2.2094   2.2202
  2.2542   2.2768   2.3534   2.4202   2.4579   2.4954   2.5408   2.5608
  2.5743   2.6043   2.6513   2.6541   2.6786   2.6944   2.7171   2.7332
  2.7411   2.7582   2.7706   2.7905   2.8299   2.8410   2.8733   2.8801
  2.8902   2.9164   2.9531   2.9679   2.9904   3.0296   3.0559   3.0715
  3.1041   3.1103   3.1229   3.1386   3.1498   3.1566   3.1855   3.1914
  3.2177   3.2473   3.2524   3.2669   3.2736   3.2962   3.3106   3.3306
  3.3471   3.3609   3.3706   3.3828   3.3878   3.4144   3.4194   3.4330
  3.4363   3.4704   3.4743   3.5008   3.5156   3.5481   3.5567   3.5718
  3.5856   3.5922   3.6201   3.6294   3.6379   3.6504   3.6661   3.6879
  3.7066   3.7217   3.7303   3.7438   3.7669   3.7738   3.7954   3.8020
  3.8090   3.8438   3.8636   3.8765   3.8948   3.9182   3.9406   3.9509
  3.9746   3.9858   3.9947   4.0276   4.0448   4.0615   4.0904   4.1040
  4.1282   4.1453   4.1666   4.1782   4.1887   4.2216   4.2337   4.2513
  4.2651   4.2838   4.3103   4.3339   4.3513   4.3674   4.3918   4.4036
  4.4086   4.4193   4.4270   4.4729   4.4806   4.5128   4.5247   4.5916
  4.5951   4.6240   4.6526   4.6743   4.7170   4.7335   4.7560   4.7722
  4.7882   4.8088   4.8437   4.9012   4.9191   4.9601   5.0595   5.1007
  5.1023   5.1360   5.1670   5.1891   5.2299   5.2757   5.2843   5.3055
  5.3651   5.4041   5.4125   5.4401   5.4660   5.4898   5.5485   5.5614
  5.5907   5.6208   5.6272   5.6900   5.7126   5.7990   5.8281   5.8358
  5.9020   5.9999   6.0131   6.1190   6.2268   6.2375   6.2797   6.3420
  6.4162   6.4589   9.1383  11.4742  12.8566  13.7939  14.1619  14.2525
 --------------------------------------------------------------
 
          Ground-State Mulliken Net Atomic Charges

     Atom                 Charge (a.u.)
  ----------------------------------------
      1 C                     0.006958
      2 C                    -0.243457
      3 C                     0.040841
      4 H                     0.177515
      5 C                    -0.246386
      6 S                    -0.001213
      7 C                    -0.271041
      8 H                     0.102156
      9 H                     0.106880
     10 H                     0.106047
     11 C                    -0.360030
     12 H                     0.112450
     13 H                     0.132126
     14 H                     0.140856
     15 H                     0.196298
  ----------------------------------------
  Sum of atomic charges =     0.000000

 -----------------------------------------------------------------
                    Cartesian Multipole Moments
 -----------------------------------------------------------------
    Charge (ESU x 10^10)
                -0.0000
    Dipole Moment (Debye)
         X       0.9263      Y       0.1604      Z       0.9585
       Tot       1.3426
    Quadrupole Moments (Debye-Ang)
        XX     -51.7068     XY       3.9831     YY     -44.6953
        XZ       0.2450     YZ       1.3814     ZZ     -48.6706
    Octopole Moments (Debye-Ang^2)
       XXX     -51.9389    XXY     -22.7891    XYY     -10.3261
       YYY     -68.2441    XXZ      -3.2083    XYZ      -1.9307
       YYZ      -7.4059    XZZ     -15.1777    YZZ     -19.3072
       ZZZ       0.8479
    Hexadecapole Moments (Debye-Ang^3)
      XXXX    -217.1576   XXXY    -134.0491   XXYY    -142.5748
      XYYY    -119.1562   YYYY    -678.8972   XXXZ     -48.4776
      XXYZ     -31.0663   XYYZ     -20.2096   YYYZ     -88.8073
      XXZZ    -121.5560   XYZZ     -38.3529   YYZZ    -197.1208
      XZZZ     -52.4147   YZZZ     -93.0675   ZZZZ    -488.0240
 -----------------------------------------------------------------
 Total job time:  19.10s(wall), 736.88s(cpu) 
 Fri Dec 15 14:03:28 2023

        *************************************************************
        *                                                           *
        *  Thank you very much for using Q-Chem.  Have a nice day.  *
        *                                                           *
        *************************************************************


0 sent ACK to 0 
now end server 0 ... 
cleanup process ... done
remove work dirs ./qchem647370.0 -- ./qchem647370.0
rm -rf ./qchem647370.0
rm -rf ./qchem647370
