You are running Q-Chem version: 5.4.0

#
# job setting
#
local host:  exp-8-30
current dir: /home/rramji/project-csd799/aromodel/p3ht-qchem/methylated-rotation-run
input file:  Methylthiophene_Phi_5_Theta_260_Methylthiophene_Hydrogenated_Improper.qcin
output file: 
nprocs     : 1
nthreads   : 64
#
# qchem installation setting
#
QC:          /cm/shared/apps/spack/cpu/opt/spack/linux-centos8-zen2/gcc-10.2.0/qchem-5.4-akfmr7b3t57bfs6qan3padb2wnb2i7cl
QCAUX:       /cm/shared/apps/spack/cpu/opt/spack/linux-centos8-zen2/gcc-10.2.0/qchem-5.4-akfmr7b3t57bfs6qan3padb2wnb2i7cl/qcaux
QCPROG:      /cm/shared/apps/spack/cpu/opt/spack/linux-centos8-zen2/gcc-10.2.0/qchem-5.4-akfmr7b3t57bfs6qan3padb2wnb2i7cl/exe/qcprog.exe
QCPROG_S:    /cm/shared/apps/spack/cpu/opt/spack/linux-centos8-zen2/gcc-10.2.0/qchem-5.4-akfmr7b3t57bfs6qan3padb2wnb2i7cl/exe/qcprog.exe_s
PARALLEL:    -DPARALLEL
QCMPI:       mpich
#
# qchem directory setting
#
qcrun:       qchem2117477
QCSCRATCH:   .
QCLOCALSCR:  
QCTMPDIR:    .
QCFILEPREF:  ./qchem2117477
QCSAVEDIR:   
workdirs:    ./qchem2117477
workdir0:    ./qchem2117477
partmpdirs =  
#
# parallel setting
#
QCRSH:           ssh
QCMPI:           mpich
QCMPIRUN:        /cm/shared/apps/spack/cpu/opt/spack/linux-centos8-zen2/gcc-10.2.0/qchem-5.4-akfmr7b3t57bfs6qan3padb2wnb2i7cl/bin/mpi/mpirun_qchem
QCMACHINEFILE:   ./qchem2117477/hostfile
exp-8-30

#
# env setting
#
exported envs:   QC QCAUX QCSCRATCH QCRUNNAME QCFILEPREF QCPROG QCPROG_S GUIFILE

Running Job 1 of 1 Methylthiophene_Phi_5_Theta_260_Methylthiophene_Hydrogenated_Improper.qcin
qchem Methylthiophene_Phi_5_Theta_260_Methylthiophene_Hydrogenated_Improper.qcin_2117477.0 ./qchem2117477/ 1
/cm/shared/apps/spack/cpu/opt/spack/linux-centos8-zen2/gcc-10.2.0/qchem-5.4-akfmr7b3t57bfs6qan3padb2wnb2i7cl/bin/mpi/mpirun_qchem -machinefile ./qchem2117477/hostfile -np 1 /cm/shared/apps/spack/cpu/opt/spack/linux-centos8-zen2/gcc-10.2.0/qchem-5.4-akfmr7b3t57bfs6qan3padb2wnb2i7cl/exe/qcprog.exe Methylthiophene_Phi_5_Theta_260_Methylthiophene_Hydrogenated_Improper.qcin_2117477.0 ./qchem2117477/

Process 0 of 1 is on exp-8-30 - thread support 0
initial socket setup ...start
initial socket setup ...done 
now start server 0 ... 
                  Welcome to Q-Chem
     A Quantum Leap Into The Future Of Chemistry


 Q-Chem 5.4, Q-Chem, Inc., Pleasanton, CA (2021)

 License issued to: University of California, San Diego (site)

 E. Epifanovsky,  A. T. B. Gilbert,  Xintian Feng,  Joonho Lee,  Yuezhi Mao,  
 N. Mardirossian,  P. Pokhilko,  A. White,  M. Wormit,  M. P. Coons,  
 A. L. Dempwolff,  Zhengting Gan,  D. Hait,  P. R. Horn,  L. D. Jacobson,  
 I. Kaliman,  J. Kussmann,  A. W. Lange,  Ka Un Lao,  D. S. Levine,  Jie Liu,  
 S. C. McKenzie,  A. F. Morrison,  K. Nanda,  F. Plasser,  D. R. Rehn,  
 M. L. Vidal,  Zhi-Qiang You,  Ying Zhu,  B. Alam,  B. Albrecht,  
 A. Aldossary,  E. Alguire,  J. H. Andersen,  D. Barton,  K. Begam,  A. Behn,  
 Y. A. Bernard,  E. J. Berquist,  H. Burton,  A. Carreras,  K. Carter-Fenk,  
 R. Chakraborty,  A. D. Chien,  K. D. Closser,  V. Cofer-Shabica,  
 S. Dasgupta,  Jia Deng,  M. de Wergifosse,  M. Diedenhofen,  Hainam Do,  
 S. Ehlert,  Po-Tung Fang,  S. Fatehi,  Qingguo Feng,  J. Gayvert,  
 Qinghui Ge,  G. Gidofalvi,  M. Goldey,  J. Gomes,  C. Gonzalez-Espinoza,  
 S. Gulania,  A. Gunina,  M. W. D. Hanson-Heine,  P. H. P. Harbach,  
 A. W. Hauser,  M. F. Herbst,  M. Hernandez Vera,  M. Hodecker,  
 Z. C. Holden,  S. Houck,  Xunkun Huang,  Kerwin Hui,  B. C. Huynh,  
 M. Ivanov,  Hyunjun Ji,  Hanjie Jiang,  B. Kaduk,  S. Kaehler,  
 K. Khistyaev,  Jaehoon Kim,  P. Klunzinger,  Z. Koczor-Benda,  
 Joong Hoon Koh,  D. Kosenkov,  L. Koulias,  T. Kowalczyk,  C. M. Krauter,  
 K. Kue,  A. Kunitsa,  T. Kus,  A. Landau,  K. V. Lawler,  D. Lefrancois,  
 S. Lehtola,  Rain Li,  Yi-Pei Li,  Jiashu Liang,  M. Liebenthal,  
 Hung-Hsuan Lin,  You-Sheng Lin,  Fenglai Liu,  Kuan-Yu Liu,  
 M. Loipersberger,  A. Luenser,  A. Manjanath,  P. Manohar,  E. Mansoor,  
 S. F. Manzer,  Shan-Ping Mao,  A. V. Marenich,  T. Markovich,  S. Mason,  
 S. A. Maurer,  P. F. McLaughlin,  M. F. S. J. Menger,  J.-M. Mewes,  
 S. A. Mewes,  P. Morgante,  J. W. Mullinax,  T. S. Nguyen-Beck,  
 K. J. Oosterbaan,  G. Paran,  Alexander C. Paul,  Suranjan K. Paul,  
 F. Pavosevic,  Zheng Pei,  S. Prager,  E. I. Proynov,  E. Ramos,  B. Rana,  
 A. E. Rask,  A. Rettig,  R. M. Richard,  F. Rob,  E. Rossomme,  T. Scheele,  
 M. Scheurer,  M. Schneider,  N. Sergueev,  S. M. Sharada,  W. Skomorowski,  
 D. W. Small,  C. J. Stein,  Yu-Chuan Su,  E. J. Sundstrom,  Zhen Tao,  
 J. Thirman,  T. Tsuchimochi,  N. M. Tubman,  S. P. Veccham,  O. Vydrov,  
 J. Wenzel,  J. Witte,  A. Yamada,  Kun Yao,  S. Yeganeh,  S. R. Yost,  
 A. Zech,  Igor Ying Zhang,  Xing Zhang,  Yu Zhang,  D. Zuev,  
 A. Aspuru-Guzik,  A. T. Bell,  N. A. Besley,  K. B. Bravaya,  B. R. Brooks,  
 D. Casanova,  Jeng-Da Chai,  S. Coriani,  C. J. Cramer,  
 A. E. DePrince, III,  R. A. DiStasio Jr.,  A. Dreuw,  B. D. Dunietz,  
 T. R. Furlani,  W. A. Goddard III,  S. Grimme,  S. Hammes-Schiffer,  
 T. Head-Gordon,  W. J. Hehre,  Chao-Ping Hsu,  T.-C. Jagau,  Yousung Jung,  
 A. Klamt,  Jing Kong,  D. S. Lambrecht,  WanZhen Liang,  N. J. Mayhall,  
 C. W. McCurdy,  J. B. Neaton,  C. Ochsenfeld,  J. A. Parkhill,  R. Peverati,  
 V. A. Rassolov,  Yihan Shao,  L. V. Slipchenko,  T. Stauch,  R. P. Steele,  
 J. E. Subotnik,  A. J. W. Thom,  A. Tkatchenko,  D. G. Truhlar,  
 T. Van Voorhis,  T. A. Wesolowski,  K. B. Whaley,  H. L. Woodcock III,  
 P. M. Zimmerman,  S. Faraji,  P. M. W. Gill,  M. Head-Gordon,  
 J. M. Herbert,  A. I. Krylov

 Contributors to earlier versions of Q-Chem not listed above: 
 R. D. Adamson,  B. Austin,  R. Baer,  J. Baker,  G. J. O. Beran,  
 K. Brandhorst,  S. T. Brown,  E. F. C. Byrd,  A. K. Chakraborty,  
 G. K. L. Chan,  Chun-Min Chang,  Yunqing Chen,  C.-L. Cheng,  
 Siu Hung Chien,  D. M. Chipman,  D. L. Crittenden,  H. Dachsel,  
 R. J. Doerksen,  A. D. Dutoi,  R. G. Edgar,  J. Fosso-Tande,  
 L. Fusti-Molnar,  D. Ghosh,  A. Ghysels,  A. Golubeva-Zadorozhnaya,  
 J. Gonthier,  M. S. Gordon,  S. R. Gwaltney,  G. Hawkins,  J. E. Herr,  
 A. Heyden,  S. Hirata,  E. G. Hohenstein,  G. Kedziora,  F. J. Keil,  
 C. Kelley,  Jihan Kim,  R. A. King,  R. Z. Khaliullin,  P. P. Korambath,  
 W. Kurlancheek,  A. Laurent,  A. M. Lee,  M. S. Lee,  S. V. Levchenko,  
 Ching Yeh Lin,  D. Liotard,  E. Livshits,  R. C. Lochan,  I. Lotan,  
 L. A. Martinez-Martinez,  P. E. Maslen,  N. Nair,  D. P. O'Neill,  
 D. Neuhauser,  E. Neuscamman,  C. M. Oana,  R. Olivares-Amaya,  R. Olson,  
 T. M. Perrine,  B. Peters,  P. A. Pieniazek,  A. Prociuk,  Y. M. Rhee,  
 J. Ritchie,  M. A. Rohrdanz,  E. Rosta,  N. J. Russ,  H. F. Schaefer III,  
 M. W. Schmidt,  N. E. Schultz,  S. Sharma,  N. Shenvi,  C. D. Sherrill,  
 A. C. Simmonett,  A. Sodt,  T. Stein,  D. Stuck,  K. S. Thanthiriwatte,  
 V. Vanovschi,  L. Vogt,  Tao Wang,  A. Warshel,  M. A. Watson,  
 C. F. Williams,  Q. Wu,  X. Xu,  Jun Yang,  W. Zhang,  Yan Zhao

 Please cite Q-Chem as follows:
 Y. Shao et al., Mol. Phys. 113, 184-215 (2015)
 DOI: 10.1080/00268976.2014.952696

 Q-Chem 5.4.0 for Intel X86 EM64T Linux

 Parts of Q-Chem use Armadillo 9.800.1 (Horizon Scraper).
 http://arma.sourceforge.net/

 Q-Chem begins on Fri Dec 15 14:03:05 2023  

 Host: 
0

     Scratch files written to ./qchem2117477//
 May1621 |scratch|qcdevops|jenkins|workspace|build_RNUM    
 Parallel job on  1  processors
 Processing $rem in /cm/shared/apps/spack/cpu/opt/spack/linux-centos8-zen2/gcc-10.2.0/qchem-5.4-akfmr7b3t57bfs6qan3padb2wnb2i7cl/config/preferences:
 Processing $rem in /home/rramji/.qchemrc:
 Symmetry turned off for PCM/SM12/SMD calculation
 Core orbitals will be frozen

 Checking the input file for inconsistencies... 	...done.

 Q-Chem warning in module forms1/BasisType.C, line 2236:

 You are not using the predefined 5D/6D in this basis set.


--------------------------------------------------------------
User input:
--------------------------------------------------------------
$molecule
0 1
C	-0.056415	-0.574004	0.006088
C	0.014085	0.267696	1.119088
C	0.130685	1.653696	0.826688
H	-0.018315	-0.119104	2.148988
C	0.151685	1.900996	-0.557512
S	0.024485	0.393196	-1.458612
C	0.219885	2.714596	1.888488
H	0.182285	2.268196	2.901088
H	-0.614415	3.443096	1.814188
H	1.164185	3.293496	1.814288
C	-0.056415	-2.024104	0.006088
H	-0.244015	-2.024604	-1.057512
H	0.867485	-2.559204	-0.156612
H	-0.876915	-2.711304	0.151088
H	0.231885	2.855696	-1.091012
$end

$rem
JOBTYPE		SP
EXCHANGE	HF
CORRELATION	pRIMP2
BASIS		cc-pvtz
METHOD		rimp2
AUX_BASIS	rimp2-cc-pvtz
SOLVENT_METHOD	PCM
PURECART	11111
SYMMETRY	false
MEM_TOTAL	110000
SCF_CONVERGENCE = 6
THRESH=10
GUI = 2
$end



$solvent
dielectric 4.90
$end
--------------------------------------------------------------
 ----------------------------------------------------------------
             Standard Nuclear Orientation (Angstroms)
    I     Atom           X                Y                Z
 ----------------------------------------------------------------
    1      C      -0.0564150000    -0.5740040000     0.0060880000
    2      C       0.0140850000     0.2676960000     1.1190880000
    3      C       0.1306850000     1.6536960000     0.8266880000
    4      H      -0.0183150000    -0.1191040000     2.1489880000
    5      C       0.1516850000     1.9009960000    -0.5575120000
    6      S       0.0244850000     0.3931960000    -1.4586120000
    7      C       0.2198850000     2.7145960000     1.8884880000
    8      H       0.1822850000     2.2681960000     2.9010880000
    9      H      -0.6144150000     3.4430960000     1.8141880000
   10      H       1.1641850000     3.2934960000     1.8142880000
   11      C      -0.0564150000    -2.0241040000     0.0060880000
   12      H      -0.2440150000    -2.0246040000    -1.0575120000
   13      H       0.8674850000    -2.5592040000    -0.1566120000
   14      H      -0.8769150000    -2.7113040000     0.1510880000
   15      H       0.2318850000     2.8556960000    -1.0910120000
 ----------------------------------------------------------------
 Nuclear Repulsion Energy =         344.42576088 hartrees
 There are       30 alpha and       30 beta electrons
 Requested basis set is cc-pVTZ
 There are 120 shells and 326 basis functions

 Total QAlloc Memory Limit 110000 MB
 Mega-Array Size       188 MB
 MEM_STATIC part       192 MB
 Discretize the solute cavity surface with Lebedev spheres
	Using 110 Lebedev grid points for each H atom
	Using 194 Lebedev grid points for other atoms
	Atomic van der Waals radii will be scaled by 1.20
 Remove points where switching function is < 1.0e-08
 Keep 1057 surface tesserae and discard 1181 interior tesserae
 Molecular Surface Area = 158.776 Angst**2

                       Distance Matrix (Angstroms)
             C (  1)   C (  2)   C (  3)   H (  4)   C (  5)   S (  6)
   C (  2)  1.397211
   C (  3)  2.381394  1.421298
   H (  4)  2.190983  1.100617  2.216641
   C (  5)  2.546876  2.344694  1.406274  3.381545
   S (  6)  1.757090  2.580774  2.612037  3.644045  1.761142
   C (  7)  3.799297  2.573257  1.503624  2.855601  2.578665  4.078009
   H (  8)  4.064001  2.684365  2.164118  2.510995  3.478173  4.748422
   H (  9)  4.440460  3.310792  2.175381  3.627216  2.930860  4.518994
   H ( 10)  4.440384  3.310815  2.175413  3.627143  2.930810  4.519129
   C ( 11)  1.450100  2.548742  3.772877  2.867490  3.970814  2.827584
   H ( 12)  1.808502  3.171568  4.149759  3.736778  3.977048  2.465508
   H ( 13)  2.195696  3.216686  4.388426  3.471962  4.535028  3.335044
   H ( 14)  2.293970  3.256585  4.530443  3.383534  4.778435  3.611312
   H ( 15)  3.612421  3.410238  2.265528  4.405637  1.096589  2.498410
             C (  7)   H (  8)   H (  9)   H ( 10)   C ( 11)   H ( 12)
   H (  8)  1.107269
   H (  9)  1.110085  1.787868
   H ( 10)  1.110105  1.787876  1.784880
   C ( 11)  5.106373  5.182841  5.785401  5.747723
   H ( 12)  5.599476  5.854945  6.187051  6.205840  1.080018
   H ( 13)  5.693398  5.755243  6.489043  6.182764  1.079997  1.527367
   H ( 14)  5.801889  5.786175  6.380552  6.556672  1.080041  1.527362
   H ( 15)  2.982863  4.035403  3.082442  3.082470  5.009910  4.903563
             H ( 13)   H ( 14)
   H ( 14)  1.777848
   H ( 15)  5.531567  5.810657
 
 Requested basis set is rimp2-cc-pVTZ
 There are 250 shells and 848 basis functions
 A cutoff of  1.0D-10 yielded   6160 shell pairs
 There are     45110 function pairs (     58017 Cartesian)
 Smallest overlap matrix eigenvalue = 1.03E-04

 Scale SEOQF with 1.000000e+00/1.000000e-01/1.000000e-01

 Standard Electronic Orientation quadrupole field applied
 Nucleus-field energy     =     0.0000000035 hartrees
 Guess from superposition of atomic densities
 Warning:  Energy on first SCF cycle will be non-variational
 SAD guess density has 60.000000 electrons

 -----------------------------------------------------------------------
  General SCF calculation program by
  Eric Jon Sundstrom, Paul Horn, Yuezhi Mao, Dmitri Zuev, Alec White,
  David Stuck, Shaama M.S., Shane Yost, Joonho Lee, David Small,
  Daniel Levine, Susi Lehtola, Hugh Burton, Evgeny Epifanovsky,
  Bang C. Huynh
 -----------------------------------------------------------------------
 Hartree-Fock
 using 64 threads for integral computing
 -------------------------------------------------------
 OpenMP Integral computing Module                
 Release: version 1.0, May 2013, Q-Chem Inc. Pittsburgh 
 -------------------------------------------------------
 A restricted SCF calculation will be
 performed using DIIS
 SCF converges when DIIS error is below 1.0e-06
 ---------------------------------------
  Cycle       Energy         DIIS error
 ---------------------------------------
    1    -632.0907874087      2.91e-02  
    2    -629.3410733730      1.94e-03  
    3    -629.4116745669      6.89e-04  
    4    -629.4193192801      3.43e-04  
    5    -629.4214369408      6.38e-05  
    6    -629.4215714111      2.62e-05  
    7    -629.4216053196      1.16e-05  
    8    -629.4216147210      4.94e-06  
    9    -629.4216161350      1.76e-06  
   10    -629.4216163093      5.38e-07  Convergence criterion met
 ---------------------------------------
 SCF time:   CPU 668.41s  wall 13.00s 

************** Final PCM Free Energy Summary **************
 G_electrostatic  =      -0.00509026 hartree =      -3.19418503 kcal/mol
 G_cavitation     =       0.00000000 hartree =       0.00000000 kcal/mol
 G_dispersion     =       0.00000000 hartree =       0.00000000 kcal/mol
 G_repulsion      =       0.00000000 hartree =       0.00000000 kcal/mol
 --------------------------------------------------
 Non-electrostatic Free Energy =       0.00000000 hartree =       0.00000000 kcal/mol
 Total                         =      -0.00509026 hartree =      -3.19418503 kcal/mol
 --------------------------------------------------
 SCF Energy (H0 + V/2)                       =    -629.42161631 
 Solute Internal Energy (H0)                 =    -629.41652605 
 Total Free Energy (H0 + V/2 + non-elec)     =    -629.42161631 hartree
                                             = -394968.02548620 kcal/mol
***********************************************************

 SCF   energy in the final basis set =     -629.4216163093
 Total energy in the final basis set =     -629.4216163093


 --------------------------------------------------------------
  Generalized many-body perturbation theory program
  by Joonho Lee, Fazle Rob, Xintian Feng, Evgeny Epifanovsky

 No regularization used 
 (reg. param. = 0.0000e+00)
  (P|Q)^-1/2 Time:  CPU 7.01 s  wall 0.11 s

 In RI-MP2 calculation: 
 # of frozen core orbitals: 11

 Components of the RIMP2 correlation energy:
        aaaa    correlation energy =        -0.1454761340 a.u.
        abab    correlation energy =        -0.8865525985 a.u.
        bbbb    correlation energy =        -0.1454761340 a.u.
        non-Brillouin singles      =        -0.0000000000 a.u.
        total same-spin energy     =        -0.2909522680 a.u.
        total opposite-spin energy =        -0.8865525985 a.u.

 Total  RIMP2   correlation energy =        -1.1775048665 a.u.
        RIMP2         total energy =      -630.5991211758 a.u.

 RI-MP2 Energy Time:  CPU 34.47 s  wall 0.58 s
 
 --------------------------------------------------------------
 
                    Orbital Energies (a.u.)
 --------------------------------------------------------------
 
 Alpha MOs
 -- Occupied --
-91.9812 -11.2752 -11.2583 -11.2472 -11.2285 -11.2270 -11.2169  -8.9810
 -6.6619  -6.6614  -6.6608  -1.1606  -1.0534  -0.9952  -0.9457  -0.8828
 -0.7476  -0.7182  -0.6473  -0.5909  -0.5752  -0.5657  -0.5537  -0.5463
 -0.5086  -0.4867  -0.4650  -0.4449  -0.3381  -0.3044
 -- Virtual --
  0.1045   0.1416   0.1500   0.1741   0.1887   0.1917   0.1952   0.2322
  0.2384   0.2438   0.2451   0.2814   0.2878   0.3166   0.3433   0.3499
  0.3727   0.3972   0.4033   0.4110   0.4452   0.4704   0.4730   0.4808
  0.4917   0.5043   0.5235   0.5298   0.5337   0.5674   0.5801   0.5967
  0.6034   0.6084   0.6131   0.6262   0.6304   0.6418   0.6428   0.6508
  0.6571   0.6650   0.6920   0.6947   0.7355   0.7563   0.7614   0.7748
  0.7994   0.8112   0.8422   0.8539   0.8689   0.8952   0.9051   0.9295
  0.9612   0.9658   0.9678   1.0074   1.0385   1.0492   1.0655   1.0761
  1.0810   1.0843   1.1140   1.1326   1.1624   1.1699   1.1971   1.2091
  1.2192   1.2470   1.2559   1.2653   1.2667   1.2971   1.3091   1.3156
  1.3617   1.3773   1.3947   1.4090   1.4308   1.4517   1.4548   1.4812
  1.4857   1.5054   1.5210   1.5421   1.5452   1.5602   1.5740   1.5836
  1.6192   1.6276   1.6365   1.6634   1.6849   1.6926   1.7082   1.7526
  1.7702   1.7794   1.8128   1.8413   1.8863   1.9014   1.9296   1.9571
  1.9903   2.0487   2.0973   2.1234   2.1830   2.1977   2.2207   2.2311
  2.2585   2.2926   2.3588   2.4200   2.4548   2.5095   2.5332   2.5625
  2.5708   2.6062   2.6276   2.6532   2.6782   2.6815   2.7135   2.7328
  2.7468   2.7563   2.7924   2.8012   2.8145   2.8312   2.8490   2.8754
  2.9035   2.9140   2.9376   2.9622   2.9958   3.0071   3.0495   3.0721
  3.0863   3.1136   3.1320   3.1487   3.1587   3.1711   3.1751   3.2047
  3.2187   3.2372   3.2482   3.2732   3.2870   3.2946   3.3089   3.3278
  3.3415   3.3578   3.3748   3.3833   3.3936   3.4156   3.4224   3.4372
  3.4411   3.4523   3.4860   3.5008   3.5046   3.5148   3.5309   3.5621
  3.5911   3.6064   3.6127   3.6153   3.6316   3.6356   3.6513   3.6799
  3.7041   3.7107   3.7292   3.7602   3.7625   3.7758   3.7890   3.8013
  3.8121   3.8262   3.8845   3.8964   3.9090   3.9176   3.9361   3.9465
  3.9628   3.9882   4.0010   4.0308   4.0338   4.0457   4.0935   4.1059
  4.1176   4.1419   4.1581   4.1707   4.1858   4.2160   4.2235   4.2453
  4.2855   4.2870   4.2988   4.3384   4.3427   4.3493   4.3975   4.4005
  4.4111   4.4284   4.4336   4.4480   4.4605   4.4948   4.5378   4.5613
  4.5887   4.6273   4.6466   4.6881   4.6943   4.7380   4.7512   4.7887
  4.7926   4.8148   4.8476   4.9020   4.9296   4.9964   5.0741   5.0935
  5.1064   5.1519   5.1631   5.1946   5.2525   5.2855   5.2956   5.3057
  5.3626   5.4012   5.4182   5.4400   5.4622   5.4940   5.5494   5.5630
  5.5911   5.6223   5.6277   5.6988   5.7427   5.8236   5.8394   5.8702
  5.9006   5.9713   6.0163   6.1360   6.2269   6.2514   6.3110   6.3475
  6.4221   6.5002   9.1461  11.4123  12.9182  13.9190  14.1795  14.4365
 --------------------------------------------------------------
 
          Ground-State Mulliken Net Atomic Charges

     Atom                 Charge (a.u.)
  ----------------------------------------
      1 C                     0.048963
      2 C                    -0.259894
      3 C                     0.038519
      4 H                     0.179344
      5 C                    -0.259125
      6 S                    -0.002107
      7 C                    -0.273257
      8 H                     0.102057
      9 H                     0.106840
     10 H                     0.106896
     11 C                    -0.367900
     12 H                     0.111989
     13 H                     0.124703
     14 H                     0.147065
     15 H                     0.195906
  ----------------------------------------
  Sum of atomic charges =     0.000000

 -----------------------------------------------------------------
                    Cartesian Multipole Moments
 -----------------------------------------------------------------
    Charge (ESU x 10^10)
                -0.0000
    Dipole Moment (Debye)
         X       0.0288      Y       0.0163      Z       0.8681
       Tot       0.8687
    Quadrupole Moments (Debye-Ang)
        XX     -53.6376     XY       1.0981     YY     -42.1600
        XZ      -0.0500     YZ       1.5431     ZZ     -48.8595
    Octopole Moments (Debye-Ang^2)
       XXX      -9.0995    XXY     -32.5827    XYY      -2.4314
       YYY     -77.7419    XXZ      -2.3738    XYZ       0.0790
       YYZ      -7.9748    XZZ      -2.5363    YZZ     -23.2589
       ZZZ       0.4332
    Hexadecapole Moments (Debye-Ang^3)
      XXXX     -82.4856   XXXY     -27.1872   XXYY    -155.4748
      XYYY     -18.3543   YYYY    -804.0764   XXXZ      -8.0315
      XXYZ     -32.1058   XYYZ      -4.8430   YYYZ    -104.6066
      XXZZ    -103.4953   XYZZ      -7.4201   YYZZ    -217.8859
      XZZZ      -8.4058   YZZZ    -106.7897   ZZZZ    -489.2592
 -----------------------------------------------------------------
 Total job time:  15.41s(wall), 729.07s(cpu) 
 Fri Dec 15 14:03:20 2023

        *************************************************************
        *                                                           *
        *  Thank you very much for using Q-Chem.  Have a nice day.  *
        *                                                           *
        *************************************************************


0 sent ACK to 0 
now end server 0 ... 
cleanup process ... done
remove work dirs ./qchem2117477.0 -- ./qchem2117477.0
rm -rf ./qchem2117477.0
rm -rf ./qchem2117477
