You are running Q-Chem version: 5.4.0

#
# job setting
#
local host:  exp-7-21
current dir: /home/rramji/project-csd799/aromodel/p3ht-qchem/methylated-rotation-run
input file:  Methylthiophene_Phi_20_Theta_310_Methylthiophene_Hydrogenated_Improper.qcin
output file: 
nprocs     : 1
nthreads   : 64
#
# qchem installation setting
#
QC:          /cm/shared/apps/spack/cpu/opt/spack/linux-centos8-zen2/gcc-10.2.0/qchem-5.4-akfmr7b3t57bfs6qan3padb2wnb2i7cl
QCAUX:       /cm/shared/apps/spack/cpu/opt/spack/linux-centos8-zen2/gcc-10.2.0/qchem-5.4-akfmr7b3t57bfs6qan3padb2wnb2i7cl/qcaux
QCPROG:      /cm/shared/apps/spack/cpu/opt/spack/linux-centos8-zen2/gcc-10.2.0/qchem-5.4-akfmr7b3t57bfs6qan3padb2wnb2i7cl/exe/qcprog.exe
QCPROG_S:    /cm/shared/apps/spack/cpu/opt/spack/linux-centos8-zen2/gcc-10.2.0/qchem-5.4-akfmr7b3t57bfs6qan3padb2wnb2i7cl/exe/qcprog.exe_s
PARALLEL:    -DPARALLEL
QCMPI:       mpich
#
# qchem directory setting
#
qcrun:       qchem25406
QCSCRATCH:   .
QCLOCALSCR:  
QCTMPDIR:    .
QCFILEPREF:  ./qchem25406
QCSAVEDIR:   
workdirs:    ./qchem25406
workdir0:    ./qchem25406
partmpdirs =  
#
# parallel setting
#
QCRSH:           ssh
QCMPI:           mpich
QCMPIRUN:        /cm/shared/apps/spack/cpu/opt/spack/linux-centos8-zen2/gcc-10.2.0/qchem-5.4-akfmr7b3t57bfs6qan3padb2wnb2i7cl/bin/mpi/mpirun_qchem
QCMACHINEFILE:   ./qchem25406/hostfile
exp-7-21

#
# env setting
#
exported envs:   QC QCAUX QCSCRATCH QCRUNNAME QCFILEPREF QCPROG QCPROG_S GUIFILE

Running Job 1 of 1 Methylthiophene_Phi_20_Theta_310_Methylthiophene_Hydrogenated_Improper.qcin
qchem Methylthiophene_Phi_20_Theta_310_Methylthiophene_Hydrogenated_Improper.qcin_25406.0 ./qchem25406/ 1
/cm/shared/apps/spack/cpu/opt/spack/linux-centos8-zen2/gcc-10.2.0/qchem-5.4-akfmr7b3t57bfs6qan3padb2wnb2i7cl/bin/mpi/mpirun_qchem -machinefile ./qchem25406/hostfile -np 1 /cm/shared/apps/spack/cpu/opt/spack/linux-centos8-zen2/gcc-10.2.0/qchem-5.4-akfmr7b3t57bfs6qan3padb2wnb2i7cl/exe/qcprog.exe Methylthiophene_Phi_20_Theta_310_Methylthiophene_Hydrogenated_Improper.qcin_25406.0 ./qchem25406/

Process 0 of 1 is on exp-7-21 - thread support 0
initial socket setup ...start
initial socket setup ...done 
now start server 0 ... 
                  Welcome to Q-Chem
     A Quantum Leap Into The Future Of Chemistry


 Q-Chem 5.4, Q-Chem, Inc., Pleasanton, CA (2021)

 License issued to: University of California, San Diego (site)

 E. Epifanovsky,  A. T. B. Gilbert,  Xintian Feng,  Joonho Lee,  Yuezhi Mao,  
 N. Mardirossian,  P. Pokhilko,  A. White,  M. Wormit,  M. P. Coons,  
 A. L. Dempwolff,  Zhengting Gan,  D. Hait,  P. R. Horn,  L. D. Jacobson,  
 I. Kaliman,  J. Kussmann,  A. W. Lange,  Ka Un Lao,  D. S. Levine,  Jie Liu,  
 S. C. McKenzie,  A. F. Morrison,  K. Nanda,  F. Plasser,  D. R. Rehn,  
 M. L. Vidal,  Zhi-Qiang You,  Ying Zhu,  B. Alam,  B. Albrecht,  
 A. Aldossary,  E. Alguire,  J. H. Andersen,  D. Barton,  K. Begam,  A. Behn,  
 Y. A. Bernard,  E. J. Berquist,  H. Burton,  A. Carreras,  K. Carter-Fenk,  
 R. Chakraborty,  A. D. Chien,  K. D. Closser,  V. Cofer-Shabica,  
 S. Dasgupta,  Jia Deng,  M. de Wergifosse,  M. Diedenhofen,  Hainam Do,  
 S. Ehlert,  Po-Tung Fang,  S. Fatehi,  Qingguo Feng,  J. Gayvert,  
 Qinghui Ge,  G. Gidofalvi,  M. Goldey,  J. Gomes,  C. Gonzalez-Espinoza,  
 S. Gulania,  A. Gunina,  M. W. D. Hanson-Heine,  P. H. P. Harbach,  
 A. W. Hauser,  M. F. Herbst,  M. Hernandez Vera,  M. Hodecker,  
 Z. C. Holden,  S. Houck,  Xunkun Huang,  Kerwin Hui,  B. C. Huynh,  
 M. Ivanov,  Hyunjun Ji,  Hanjie Jiang,  B. Kaduk,  S. Kaehler,  
 K. Khistyaev,  Jaehoon Kim,  P. Klunzinger,  Z. Koczor-Benda,  
 Joong Hoon Koh,  D. Kosenkov,  L. Koulias,  T. Kowalczyk,  C. M. Krauter,  
 K. Kue,  A. Kunitsa,  T. Kus,  A. Landau,  K. V. Lawler,  D. Lefrancois,  
 S. Lehtola,  Rain Li,  Yi-Pei Li,  Jiashu Liang,  M. Liebenthal,  
 Hung-Hsuan Lin,  You-Sheng Lin,  Fenglai Liu,  Kuan-Yu Liu,  
 M. Loipersberger,  A. Luenser,  A. Manjanath,  P. Manohar,  E. Mansoor,  
 S. F. Manzer,  Shan-Ping Mao,  A. V. Marenich,  T. Markovich,  S. Mason,  
 S. A. Maurer,  P. F. McLaughlin,  M. F. S. J. Menger,  J.-M. Mewes,  
 S. A. Mewes,  P. Morgante,  J. W. Mullinax,  T. S. Nguyen-Beck,  
 K. J. Oosterbaan,  G. Paran,  Alexander C. Paul,  Suranjan K. Paul,  
 F. Pavosevic,  Zheng Pei,  S. Prager,  E. I. Proynov,  E. Ramos,  B. Rana,  
 A. E. Rask,  A. Rettig,  R. M. Richard,  F. Rob,  E. Rossomme,  T. Scheele,  
 M. Scheurer,  M. Schneider,  N. Sergueev,  S. M. Sharada,  W. Skomorowski,  
 D. W. Small,  C. J. Stein,  Yu-Chuan Su,  E. J. Sundstrom,  Zhen Tao,  
 J. Thirman,  T. Tsuchimochi,  N. M. Tubman,  S. P. Veccham,  O. Vydrov,  
 J. Wenzel,  J. Witte,  A. Yamada,  Kun Yao,  S. Yeganeh,  S. R. Yost,  
 A. Zech,  Igor Ying Zhang,  Xing Zhang,  Yu Zhang,  D. Zuev,  
 A. Aspuru-Guzik,  A. T. Bell,  N. A. Besley,  K. B. Bravaya,  B. R. Brooks,  
 D. Casanova,  Jeng-Da Chai,  S. Coriani,  C. J. Cramer,  
 A. E. DePrince, III,  R. A. DiStasio Jr.,  A. Dreuw,  B. D. Dunietz,  
 T. R. Furlani,  W. A. Goddard III,  S. Grimme,  S. Hammes-Schiffer,  
 T. Head-Gordon,  W. J. Hehre,  Chao-Ping Hsu,  T.-C. Jagau,  Yousung Jung,  
 A. Klamt,  Jing Kong,  D. S. Lambrecht,  WanZhen Liang,  N. J. Mayhall,  
 C. W. McCurdy,  J. B. Neaton,  C. Ochsenfeld,  J. A. Parkhill,  R. Peverati,  
 V. A. Rassolov,  Yihan Shao,  L. V. Slipchenko,  T. Stauch,  R. P. Steele,  
 J. E. Subotnik,  A. J. W. Thom,  A. Tkatchenko,  D. G. Truhlar,  
 T. Van Voorhis,  T. A. Wesolowski,  K. B. Whaley,  H. L. Woodcock III,  
 P. M. Zimmerman,  S. Faraji,  P. M. W. Gill,  M. Head-Gordon,  
 J. M. Herbert,  A. I. Krylov

 Contributors to earlier versions of Q-Chem not listed above: 
 R. D. Adamson,  B. Austin,  R. Baer,  J. Baker,  G. J. O. Beran,  
 K. Brandhorst,  S. T. Brown,  E. F. C. Byrd,  A. K. Chakraborty,  
 G. K. L. Chan,  Chun-Min Chang,  Yunqing Chen,  C.-L. Cheng,  
 Siu Hung Chien,  D. M. Chipman,  D. L. Crittenden,  H. Dachsel,  
 R. J. Doerksen,  A. D. Dutoi,  R. G. Edgar,  J. Fosso-Tande,  
 L. Fusti-Molnar,  D. Ghosh,  A. Ghysels,  A. Golubeva-Zadorozhnaya,  
 J. Gonthier,  M. S. Gordon,  S. R. Gwaltney,  G. Hawkins,  J. E. Herr,  
 A. Heyden,  S. Hirata,  E. G. Hohenstein,  G. Kedziora,  F. J. Keil,  
 C. Kelley,  Jihan Kim,  R. A. King,  R. Z. Khaliullin,  P. P. Korambath,  
 W. Kurlancheek,  A. Laurent,  A. M. Lee,  M. S. Lee,  S. V. Levchenko,  
 Ching Yeh Lin,  D. Liotard,  E. Livshits,  R. C. Lochan,  I. Lotan,  
 L. A. Martinez-Martinez,  P. E. Maslen,  N. Nair,  D. P. O'Neill,  
 D. Neuhauser,  E. Neuscamman,  C. M. Oana,  R. Olivares-Amaya,  R. Olson,  
 T. M. Perrine,  B. Peters,  P. A. Pieniazek,  A. Prociuk,  Y. M. Rhee,  
 J. Ritchie,  M. A. Rohrdanz,  E. Rosta,  N. J. Russ,  H. F. Schaefer III,  
 M. W. Schmidt,  N. E. Schultz,  S. Sharma,  N. Shenvi,  C. D. Sherrill,  
 A. C. Simmonett,  A. Sodt,  T. Stein,  D. Stuck,  K. S. Thanthiriwatte,  
 V. Vanovschi,  L. Vogt,  Tao Wang,  A. Warshel,  M. A. Watson,  
 C. F. Williams,  Q. Wu,  X. Xu,  Jun Yang,  W. Zhang,  Yan Zhao

 Please cite Q-Chem as follows:
 Y. Shao et al., Mol. Phys. 113, 184-215 (2015)
 DOI: 10.1080/00268976.2014.952696

 Q-Chem 5.4.0 for Intel X86 EM64T Linux

 Parts of Q-Chem use Armadillo 9.800.1 (Horizon Scraper).
 http://arma.sourceforge.net/

 Q-Chem begins on Fri Dec 15 14:05:26 2023  

 Host: 
0

     Scratch files written to ./qchem25406//
 May1621 |scratch|qcdevops|jenkins|workspace|build_RNUM    
 Parallel job on  1  processors
 Processing $rem in /cm/shared/apps/spack/cpu/opt/spack/linux-centos8-zen2/gcc-10.2.0/qchem-5.4-akfmr7b3t57bfs6qan3padb2wnb2i7cl/config/preferences:
 Processing $rem in /home/rramji/.qchemrc:
 Symmetry turned off for PCM/SM12/SMD calculation
 Core orbitals will be frozen

 Checking the input file for inconsistencies... 	...done.

 Q-Chem warning in module forms1/BasisType.C, line 2236:

 You are not using the predefined 5D/6D in this basis set.


--------------------------------------------------------------
User input:
--------------------------------------------------------------
$molecule
0 1
C	-0.233481	-0.536244	0.004642
C	0.052519	0.258456	1.117642
C	0.523819	1.567156	0.825242
H	-0.078981	-0.106644	2.147542
C	0.608119	1.800556	-0.558958
S	0.095019	0.377056	-1.460058
C	0.884619	2.568756	1.887042
H	0.732719	2.147356	2.899642
H	0.267319	3.488456	1.812742
H	1.946519	2.883556	1.812842
C	-0.233481	-1.986344	0.004642
H	0.460719	-1.986844	-0.822658
H	0.485019	-2.521444	0.607842
H	-0.871981	-2.673544	-0.530658
H	0.932619	2.701956	-1.092458
$end

$rem
JOBTYPE		SP
EXCHANGE	HF
CORRELATION	pRIMP2
BASIS		cc-pvtz
METHOD		rimp2
AUX_BASIS	rimp2-cc-pvtz
SOLVENT_METHOD	PCM
PURECART	11111
SYMMETRY	false
MEM_TOTAL	110000
SCF_CONVERGENCE = 6
THRESH=10
GUI = 2
$end



$solvent
dielectric 4.90
$end
--------------------------------------------------------------
 ----------------------------------------------------------------
             Standard Nuclear Orientation (Angstroms)
    I     Atom           X                Y                Z
 ----------------------------------------------------------------
    1      C      -0.2334810000    -0.5362440000     0.0046420000
    2      C       0.0525190000     0.2584560000     1.1176420000
    3      C       0.5238190000     1.5671560000     0.8252420000
    4      H      -0.0789810000    -0.1066440000     2.1475420000
    5      C       0.6081190000     1.8005560000    -0.5589580000
    6      S       0.0950190000     0.3770560000    -1.4600580000
    7      C       0.8846190000     2.5687560000     1.8870420000
    8      H       0.7327190000     2.1473560000     2.8996420000
    9      H       0.2673190000     3.4884560000     1.8127420000
   10      H       1.9465190000     2.8835560000     1.8128420000
   11      C      -0.2334810000    -1.9863440000     0.0046420000
   12      H       0.4607190000    -1.9868440000    -0.8226580000
   13      H       0.4850190000    -2.5214440000     0.6078420000
   14      H      -0.8719810000    -2.6735440000    -0.5306580000
   15      H       0.9326190000     2.7019560000    -1.0924580000
 ----------------------------------------------------------------
 Nuclear Repulsion Energy =         345.23939956 hartrees
 There are       30 alpha and       30 beta electrons
 Requested basis set is cc-pVTZ
 There are 120 shells and 326 basis functions

 Total QAlloc Memory Limit 110000 MB
 Mega-Array Size       188 MB
 MEM_STATIC part       192 MB
 Discretize the solute cavity surface with Lebedev spheres
	Using 110 Lebedev grid points for each H atom
	Using 194 Lebedev grid points for other atoms
	Atomic van der Waals radii will be scaled by 1.20
 Remove points where switching function is < 1.0e-08
 Keep 1069 surface tesserae and discard 1169 interior tesserae
 Molecular Surface Area = 158.208 Angst**2

                       Distance Matrix (Angstroms)
             C (  1)   C (  2)   C (  3)   H (  4)   C (  5)   S (  6)
   C (  2)  1.397180
   C (  3)  2.381424  1.421379
   H (  4)  2.190992  1.100584  2.216631
   C (  5)  2.546875  2.344728  1.406269  3.381517
   S (  6)  1.757093  2.580777  2.612050  3.644039  1.761137
   C (  7)  3.799290  2.573296  1.503595  2.855547  2.578662  4.078001
   H (  8)  4.064022  2.684425  2.164118  2.510981  3.478176  4.748432
   H (  9)  4.440522  3.310922  2.175395  3.627225  2.930889  4.519039
   H ( 10)  4.440385  3.310844  2.175394  3.627116  2.930809  4.519123
   C ( 11)  1.450100  2.521843  3.724815  2.854674  3.920019  2.799807
   H ( 12)  1.808474  2.995457  3.917968  3.556475  3.799429  2.475488
   H ( 13)  2.195703  2.859160  4.094560  2.918909  4.478422  3.581845
   H ( 14)  2.293966  3.488297  4.665861  3.793492  4.712650  3.332422
   H ( 15)  3.612389  3.410251  2.265494  4.405584  1.096560  2.498372
             C (  7)   H (  8)   H (  9)   H ( 10)   C ( 11)   H ( 12)
   H (  8)  1.107254
   H (  9)  1.110148  1.787875
   H ( 10)  1.110061  1.787858  1.784830
   C ( 11)  5.053960  5.138292  5.787354  5.633641
   H ( 12)  5.317486  5.569660  6.079609  5.733608  1.079972
   H ( 13)  5.263665  5.206860  6.133358  5.727306  1.080011  1.527324
   H ( 14)  6.034288  6.130505  6.690274  6.657124  1.080033  1.527387
   H ( 15)  2.982862  4.035394  3.082433  3.082489  4.954147  4.720204
             H ( 13)   H ( 14)
   H ( 14)  1.777854
   H ( 15)  5.511377  5.698087
 
 Requested basis set is rimp2-cc-pVTZ
 There are 250 shells and 848 basis functions
 A cutoff of  1.0D-10 yielded   6189 shell pairs
 There are     45329 function pairs (     58296 Cartesian)
 Smallest overlap matrix eigenvalue = 1.05E-04

 Scale SEOQF with 1.000000e-01/1.000000e-01/1.000000e-01

 Standard Electronic Orientation quadrupole field applied
 Nucleus-field energy     =     0.0000000016 hartrees
 Guess from superposition of atomic densities
 Warning:  Energy on first SCF cycle will be non-variational
 SAD guess density has 60.000000 electrons

 -----------------------------------------------------------------------
  General SCF calculation program by
  Eric Jon Sundstrom, Paul Horn, Yuezhi Mao, Dmitri Zuev, Alec White,
  David Stuck, Shaama M.S., Shane Yost, Joonho Lee, David Small,
  Daniel Levine, Susi Lehtola, Hugh Burton, Evgeny Epifanovsky,
  Bang C. Huynh
 -----------------------------------------------------------------------
 Hartree-Fock
 using 64 threads for integral computing
 -------------------------------------------------------
 OpenMP Integral computing Module                
 Release: version 1.0, May 2013, Q-Chem Inc. Pittsburgh 
 -------------------------------------------------------
 A restricted SCF calculation will be
 performed using DIIS
 SCF converges when DIIS error is below 1.0e-06
 ---------------------------------------
  Cycle       Energy         DIIS error
 ---------------------------------------
    1    -632.1006017694      2.92e-02  
    2    -629.3364872094      1.94e-03  
    3    -629.4068871646      6.86e-04  
    4    -629.4144317614      3.48e-04  
    5    -629.4165700374      6.38e-05  
    6    -629.4167063375      2.63e-05  
    7    -629.4167410693      1.17e-05  
    8    -629.4167508596      5.07e-06  
    9    -629.4167523728      1.74e-06  
   10    -629.4167525610      6.06e-07  Convergence criterion met
 ---------------------------------------
 SCF time:   CPU 695.75s  wall 14.00s 

************** Final PCM Free Energy Summary **************
 G_electrostatic  =      -0.00520002 hartree =      -3.26306228 kcal/mol
 G_cavitation     =       0.00000000 hartree =       0.00000000 kcal/mol
 G_dispersion     =       0.00000000 hartree =       0.00000000 kcal/mol
 G_repulsion      =       0.00000000 hartree =       0.00000000 kcal/mol
 --------------------------------------------------
 Non-electrostatic Free Energy =       0.00000000 hartree =       0.00000000 kcal/mol
 Total                         =      -0.00520002 hartree =      -3.26306228 kcal/mol
 --------------------------------------------------
 SCF Energy (H0 + V/2)                       =    -629.41675256 
 Solute Internal Energy (H0)                 =    -629.41155254 
 Total Free Energy (H0 + V/2 + non-elec)     =    -629.41675256 hartree
                                             = -394964.97343812 kcal/mol
***********************************************************

 SCF   energy in the final basis set =     -629.4167525610
 Total energy in the final basis set =     -629.4167525610


 --------------------------------------------------------------
  Generalized many-body perturbation theory program
  by Joonho Lee, Fazle Rob, Xintian Feng, Evgeny Epifanovsky

 No regularization used 
 (reg. param. = 0.0000e+00)
  (P|Q)^-1/2 Time:  CPU 7.00 s  wall 0.11 s

 In RI-MP2 calculation: 
 # of frozen core orbitals: 11

 Components of the RIMP2 correlation energy:
        aaaa    correlation energy =        -0.1454641807 a.u.
        abab    correlation energy =        -0.8868367343 a.u.
        bbbb    correlation energy =        -0.1454641807 a.u.
        non-Brillouin singles      =        -0.0000000000 a.u.
        total same-spin energy     =        -0.2909283614 a.u.
        total opposite-spin energy =        -0.8868367343 a.u.

 Total  RIMP2   correlation energy =        -1.1777650957 a.u.
        RIMP2         total energy =      -630.5945176567 a.u.

 RI-MP2 Energy Time:  CPU 34.91 s  wall 0.60 s
 
 --------------------------------------------------------------
 
                    Orbital Energies (a.u.)
 --------------------------------------------------------------
 
 Alpha MOs
 -- Occupied --
-91.9773 -11.2776 -11.2571 -11.2471 -11.2295 -11.2271 -11.2180  -8.9775
 -6.6585  -6.6579  -6.6573  -1.1620  -1.0542  -0.9952  -0.9440  -0.8824
 -0.7472  -0.7190  -0.6462  -0.5902  -0.5771  -0.5657  -0.5515  -0.5467
 -0.5086  -0.4897  -0.4639  -0.4492  -0.3388  -0.2975
 -- Virtual --
  0.0999   0.1448   0.1518   0.1753   0.1882   0.1904   0.2034   0.2271
  0.2330   0.2447   0.2515   0.2576   0.2920   0.3246   0.3466   0.3480
  0.3796   0.4001   0.4083   0.4202   0.4378   0.4610   0.4696   0.4837
  0.4872   0.4969   0.5201   0.5310   0.5399   0.5556   0.5696   0.5861
  0.5944   0.6057   0.6097   0.6150   0.6278   0.6361   0.6449   0.6501
  0.6571   0.6620   0.6863   0.7121   0.7206   0.7459   0.7701   0.7866
  0.8029   0.8238   0.8410   0.8589   0.8638   0.8988   0.8994   0.9389
  0.9468   0.9660   0.9954   1.0025   1.0195   1.0483   1.0634   1.0681
  1.0843   1.0909   1.1118   1.1424   1.1649   1.1885   1.2068   1.2091
  1.2169   1.2274   1.2488   1.2683   1.2728   1.2951   1.3054   1.3247
  1.3564   1.3791   1.4061   1.4138   1.4244   1.4306   1.4459   1.4745
  1.4956   1.5056   1.5150   1.5324   1.5426   1.5562   1.5725   1.5782
  1.5944   1.6296   1.6475   1.6734   1.6845   1.7012   1.7087   1.7348
  1.7489   1.7868   1.8014   1.8299   1.8883   1.9212   1.9394   1.9681
  1.9834   2.0391   2.1030   2.1381   2.1827   2.1888   2.2150   2.2155
  2.2634   2.2841   2.3698   2.4217   2.4599   2.4836   2.5117   2.5454
  2.5732   2.5822   2.6426   2.6612   2.6626   2.6806   2.7089   2.7177
  2.7401   2.7568   2.7806   2.7879   2.8133   2.8454   2.8600   2.8849
  2.9198   2.9256   2.9480   2.9733   3.0277   3.0351   3.0469   3.0619
  3.0953   3.1032   3.1119   3.1218   3.1599   3.1671   3.1706   3.1963
  3.2185   3.2449   3.2707   3.2781   3.2872   3.3035   3.3096   3.3313
  3.3436   3.3510   3.3753   3.3903   3.3913   3.4217   3.4224   3.4429
  3.4546   3.4653   3.4807   3.4892   3.5192   3.5276   3.5386   3.5680
  3.5878   3.5993   3.6058   3.6190   3.6388   3.6452   3.6649   3.6836
  3.6938   3.7197   3.7287   3.7459   3.7632   3.7724   3.7850   3.7932
  3.8022   3.8191   3.8592   3.8720   3.8925   3.9094   3.9233   3.9584
  3.9624   3.9878   4.0070   4.0201   4.0329   4.0480   4.1002   4.1061
  4.1300   4.1493   4.1669   4.1852   4.2178   4.2331   4.2410   4.2533
  4.2762   4.2869   4.3176   4.3378   4.3480   4.3670   4.3817   4.3959
  4.4029   4.4250   4.4560   4.4565   4.4745   4.5243   4.5376   4.5868
  4.5898   4.6197   4.6294   4.6553   4.7075   4.7328   4.7499   4.7844
  4.7925   4.8103   4.8438   4.8918   4.9267   4.9574   5.0740   5.0938
  5.1023   5.1227   5.1788   5.1915   5.2274   5.2593   5.2859   5.3219
  5.3660   5.3981   5.4178   5.4431   5.4698   5.4850   5.5505   5.5642
  5.5852   5.6184   5.6222   5.6624   5.7000   5.8102   5.8353   5.8538
  5.9147   5.9596   6.0611   6.1355   6.2271   6.2469   6.2941   6.3677
  6.4321   6.5200   9.2224  11.3491  12.8942  13.6809  14.1788  14.4552
 --------------------------------------------------------------
 
          Ground-State Mulliken Net Atomic Charges

     Atom                 Charge (a.u.)
  ----------------------------------------
      1 C                     0.047382
      2 C                    -0.293693
      3 C                     0.052715
      4 H                     0.179353
      5 C                    -0.259702
      6 S                    -0.003935
      7 C                    -0.271287
      8 H                     0.101727
      9 H                     0.107489
     10 H                     0.106839
     11 C                    -0.373559
     12 H                     0.127922
     13 H                     0.139081
     14 H                     0.145365
     15 H                     0.194304
  ----------------------------------------
  Sum of atomic charges =     0.000000

 -----------------------------------------------------------------
                    Cartesian Multipole Moments
 -----------------------------------------------------------------
    Charge (ESU x 10^10)
                -0.0000
    Dipole Moment (Debye)
         X       0.9444      Y      -0.2293      Z       1.0166
       Tot       1.4064
    Quadrupole Moments (Debye-Ang)
        XX     -53.2594     XY       1.9569     YY     -43.1639
        XZ       0.4893     YZ       1.4400     ZZ     -48.6706
    Octopole Moments (Debye-Ang^2)
       XXX     -37.0542    XXY     -27.0697    XYY      -4.4670
       YYY     -75.3668    XXZ      -2.8890    XYZ      -2.4049
       YYZ      -7.4699    XZZ     -10.5119    YZZ     -22.8908
       ZZZ       0.1728
    Hexadecapole Moments (Debye-Ang^3)
      XXXX    -142.8775   XXXY     -99.3270   XXYY    -152.5885
      XYYY     -87.0467   YYYY    -748.1624   XXXZ     -32.1562
      XXYZ     -31.0751   XYYZ     -10.5081   YYYZ     -95.4209
      XXZZ    -110.8367   XYZZ     -27.0120   YYZZ    -205.1637
      XZZZ     -36.0748   YZZZ     -99.0453   ZZZZ    -490.7933
 -----------------------------------------------------------------
 Total job time:  16.18s(wall), 763.94s(cpu) 
 Fri Dec 15 14:05:42 2023

        *************************************************************
        *                                                           *
        *  Thank you very much for using Q-Chem.  Have a nice day.  *
        *                                                           *
        *************************************************************


0 sent ACK to 0 
now end server 0 ... 
cleanup process ... done
remove work dirs ./qchem25406.0 -- ./qchem25406.0
rm -rf ./qchem25406.0
rm -rf ./qchem25406
