You are running Q-Chem version: 5.4.0

#
# job setting
#
local host:  exp-8-30
current dir: /home/rramji/project-csd799/aromodel/p3ht-qchem/methylated-rotation-run
input file:  Methylthiophene_Phi_5_Theta_130_Methylthiophene_Hydrogenated_Improper.qcin
output file: 
nprocs     : 1
nthreads   : 64
#
# qchem installation setting
#
QC:          /cm/shared/apps/spack/cpu/opt/spack/linux-centos8-zen2/gcc-10.2.0/qchem-5.4-akfmr7b3t57bfs6qan3padb2wnb2i7cl
QCAUX:       /cm/shared/apps/spack/cpu/opt/spack/linux-centos8-zen2/gcc-10.2.0/qchem-5.4-akfmr7b3t57bfs6qan3padb2wnb2i7cl/qcaux
QCPROG:      /cm/shared/apps/spack/cpu/opt/spack/linux-centos8-zen2/gcc-10.2.0/qchem-5.4-akfmr7b3t57bfs6qan3padb2wnb2i7cl/exe/qcprog.exe
QCPROG_S:    /cm/shared/apps/spack/cpu/opt/spack/linux-centos8-zen2/gcc-10.2.0/qchem-5.4-akfmr7b3t57bfs6qan3padb2wnb2i7cl/exe/qcprog.exe_s
PARALLEL:    -DPARALLEL
QCMPI:       mpich
#
# qchem directory setting
#
qcrun:       qchem2113044
QCSCRATCH:   .
QCLOCALSCR:  
QCTMPDIR:    .
QCFILEPREF:  ./qchem2113044
QCSAVEDIR:   
workdirs:    ./qchem2113044
workdir0:    ./qchem2113044
partmpdirs =  
#
# parallel setting
#
QCRSH:           ssh
QCMPI:           mpich
QCMPIRUN:        /cm/shared/apps/spack/cpu/opt/spack/linux-centos8-zen2/gcc-10.2.0/qchem-5.4-akfmr7b3t57bfs6qan3padb2wnb2i7cl/bin/mpi/mpirun_qchem
QCMACHINEFILE:   ./qchem2113044/hostfile
exp-8-30

#
# env setting
#
exported envs:   QC QCAUX QCSCRATCH QCRUNNAME QCFILEPREF QCPROG QCPROG_S GUIFILE

Running Job 1 of 1 Methylthiophene_Phi_5_Theta_130_Methylthiophene_Hydrogenated_Improper.qcin
qchem Methylthiophene_Phi_5_Theta_130_Methylthiophene_Hydrogenated_Improper.qcin_2113044.0 ./qchem2113044/ 1
/cm/shared/apps/spack/cpu/opt/spack/linux-centos8-zen2/gcc-10.2.0/qchem-5.4-akfmr7b3t57bfs6qan3padb2wnb2i7cl/bin/mpi/mpirun_qchem -machinefile ./qchem2113044/hostfile -np 1 /cm/shared/apps/spack/cpu/opt/spack/linux-centos8-zen2/gcc-10.2.0/qchem-5.4-akfmr7b3t57bfs6qan3padb2wnb2i7cl/exe/qcprog.exe Methylthiophene_Phi_5_Theta_130_Methylthiophene_Hydrogenated_Improper.qcin_2113044.0 ./qchem2113044/

Process 0 of 1 is on exp-8-30 - thread support 0
initial socket setup ...start
initial socket setup ...done 
now start server 0 ... 
                  Welcome to Q-Chem
     A Quantum Leap Into The Future Of Chemistry


 Q-Chem 5.4, Q-Chem, Inc., Pleasanton, CA (2021)

 License issued to: University of California, San Diego (site)

 E. Epifanovsky,  A. T. B. Gilbert,  Xintian Feng,  Joonho Lee,  Yuezhi Mao,  
 N. Mardirossian,  P. Pokhilko,  A. White,  M. Wormit,  M. P. Coons,  
 A. L. Dempwolff,  Zhengting Gan,  D. Hait,  P. R. Horn,  L. D. Jacobson,  
 I. Kaliman,  J. Kussmann,  A. W. Lange,  Ka Un Lao,  D. S. Levine,  Jie Liu,  
 S. C. McKenzie,  A. F. Morrison,  K. Nanda,  F. Plasser,  D. R. Rehn,  
 M. L. Vidal,  Zhi-Qiang You,  Ying Zhu,  B. Alam,  B. Albrecht,  
 A. Aldossary,  E. Alguire,  J. H. Andersen,  D. Barton,  K. Begam,  A. Behn,  
 Y. A. Bernard,  E. J. Berquist,  H. Burton,  A. Carreras,  K. Carter-Fenk,  
 R. Chakraborty,  A. D. Chien,  K. D. Closser,  V. Cofer-Shabica,  
 S. Dasgupta,  Jia Deng,  M. de Wergifosse,  M. Diedenhofen,  Hainam Do,  
 S. Ehlert,  Po-Tung Fang,  S. Fatehi,  Qingguo Feng,  J. Gayvert,  
 Qinghui Ge,  G. Gidofalvi,  M. Goldey,  J. Gomes,  C. Gonzalez-Espinoza,  
 S. Gulania,  A. Gunina,  M. W. D. Hanson-Heine,  P. H. P. Harbach,  
 A. W. Hauser,  M. F. Herbst,  M. Hernandez Vera,  M. Hodecker,  
 Z. C. Holden,  S. Houck,  Xunkun Huang,  Kerwin Hui,  B. C. Huynh,  
 M. Ivanov,  Hyunjun Ji,  Hanjie Jiang,  B. Kaduk,  S. Kaehler,  
 K. Khistyaev,  Jaehoon Kim,  P. Klunzinger,  Z. Koczor-Benda,  
 Joong Hoon Koh,  D. Kosenkov,  L. Koulias,  T. Kowalczyk,  C. M. Krauter,  
 K. Kue,  A. Kunitsa,  T. Kus,  A. Landau,  K. V. Lawler,  D. Lefrancois,  
 S. Lehtola,  Rain Li,  Yi-Pei Li,  Jiashu Liang,  M. Liebenthal,  
 Hung-Hsuan Lin,  You-Sheng Lin,  Fenglai Liu,  Kuan-Yu Liu,  
 M. Loipersberger,  A. Luenser,  A. Manjanath,  P. Manohar,  E. Mansoor,  
 S. F. Manzer,  Shan-Ping Mao,  A. V. Marenich,  T. Markovich,  S. Mason,  
 S. A. Maurer,  P. F. McLaughlin,  M. F. S. J. Menger,  J.-M. Mewes,  
 S. A. Mewes,  P. Morgante,  J. W. Mullinax,  T. S. Nguyen-Beck,  
 K. J. Oosterbaan,  G. Paran,  Alexander C. Paul,  Suranjan K. Paul,  
 F. Pavosevic,  Zheng Pei,  S. Prager,  E. I. Proynov,  E. Ramos,  B. Rana,  
 A. E. Rask,  A. Rettig,  R. M. Richard,  F. Rob,  E. Rossomme,  T. Scheele,  
 M. Scheurer,  M. Schneider,  N. Sergueev,  S. M. Sharada,  W. Skomorowski,  
 D. W. Small,  C. J. Stein,  Yu-Chuan Su,  E. J. Sundstrom,  Zhen Tao,  
 J. Thirman,  T. Tsuchimochi,  N. M. Tubman,  S. P. Veccham,  O. Vydrov,  
 J. Wenzel,  J. Witte,  A. Yamada,  Kun Yao,  S. Yeganeh,  S. R. Yost,  
 A. Zech,  Igor Ying Zhang,  Xing Zhang,  Yu Zhang,  D. Zuev,  
 A. Aspuru-Guzik,  A. T. Bell,  N. A. Besley,  K. B. Bravaya,  B. R. Brooks,  
 D. Casanova,  Jeng-Da Chai,  S. Coriani,  C. J. Cramer,  
 A. E. DePrince, III,  R. A. DiStasio Jr.,  A. Dreuw,  B. D. Dunietz,  
 T. R. Furlani,  W. A. Goddard III,  S. Grimme,  S. Hammes-Schiffer,  
 T. Head-Gordon,  W. J. Hehre,  Chao-Ping Hsu,  T.-C. Jagau,  Yousung Jung,  
 A. Klamt,  Jing Kong,  D. S. Lambrecht,  WanZhen Liang,  N. J. Mayhall,  
 C. W. McCurdy,  J. B. Neaton,  C. Ochsenfeld,  J. A. Parkhill,  R. Peverati,  
 V. A. Rassolov,  Yihan Shao,  L. V. Slipchenko,  T. Stauch,  R. P. Steele,  
 J. E. Subotnik,  A. J. W. Thom,  A. Tkatchenko,  D. G. Truhlar,  
 T. Van Voorhis,  T. A. Wesolowski,  K. B. Whaley,  H. L. Woodcock III,  
 P. M. Zimmerman,  S. Faraji,  P. M. W. Gill,  M. Head-Gordon,  
 J. M. Herbert,  A. I. Krylov

 Contributors to earlier versions of Q-Chem not listed above: 
 R. D. Adamson,  B. Austin,  R. Baer,  J. Baker,  G. J. O. Beran,  
 K. Brandhorst,  S. T. Brown,  E. F. C. Byrd,  A. K. Chakraborty,  
 G. K. L. Chan,  Chun-Min Chang,  Yunqing Chen,  C.-L. Cheng,  
 Siu Hung Chien,  D. M. Chipman,  D. L. Crittenden,  H. Dachsel,  
 R. J. Doerksen,  A. D. Dutoi,  R. G. Edgar,  J. Fosso-Tande,  
 L. Fusti-Molnar,  D. Ghosh,  A. Ghysels,  A. Golubeva-Zadorozhnaya,  
 J. Gonthier,  M. S. Gordon,  S. R. Gwaltney,  G. Hawkins,  J. E. Herr,  
 A. Heyden,  S. Hirata,  E. G. Hohenstein,  G. Kedziora,  F. J. Keil,  
 C. Kelley,  Jihan Kim,  R. A. King,  R. Z. Khaliullin,  P. P. Korambath,  
 W. Kurlancheek,  A. Laurent,  A. M. Lee,  M. S. Lee,  S. V. Levchenko,  
 Ching Yeh Lin,  D. Liotard,  E. Livshits,  R. C. Lochan,  I. Lotan,  
 L. A. Martinez-Martinez,  P. E. Maslen,  N. Nair,  D. P. O'Neill,  
 D. Neuhauser,  E. Neuscamman,  C. M. Oana,  R. Olivares-Amaya,  R. Olson,  
 T. M. Perrine,  B. Peters,  P. A. Pieniazek,  A. Prociuk,  Y. M. Rhee,  
 J. Ritchie,  M. A. Rohrdanz,  E. Rosta,  N. J. Russ,  H. F. Schaefer III,  
 M. W. Schmidt,  N. E. Schultz,  S. Sharma,  N. Shenvi,  C. D. Sherrill,  
 A. C. Simmonett,  A. Sodt,  T. Stein,  D. Stuck,  K. S. Thanthiriwatte,  
 V. Vanovschi,  L. Vogt,  Tao Wang,  A. Warshel,  M. A. Watson,  
 C. F. Williams,  Q. Wu,  X. Xu,  Jun Yang,  W. Zhang,  Yan Zhao

 Please cite Q-Chem as follows:
 Y. Shao et al., Mol. Phys. 113, 184-215 (2015)
 DOI: 10.1080/00268976.2014.952696

 Q-Chem 5.4.0 for Intel X86 EM64T Linux

 Parts of Q-Chem use Armadillo 9.800.1 (Horizon Scraper).
 http://arma.sourceforge.net/

 Q-Chem begins on Fri Dec 15 13:58:32 2023  

 Host: 
0

     Scratch files written to ./qchem2113044//
 May1621 |scratch|qcdevops|jenkins|workspace|build_RNUM    
 Parallel job on  1  processors
 Processing $rem in /cm/shared/apps/spack/cpu/opt/spack/linux-centos8-zen2/gcc-10.2.0/qchem-5.4-akfmr7b3t57bfs6qan3padb2wnb2i7cl/config/preferences:
 Processing $rem in /home/rramji/.qchemrc:
 Symmetry turned off for PCM/SM12/SMD calculation
 Core orbitals will be frozen

 Checking the input file for inconsistencies... 	...done.

 Q-Chem warning in module forms1/BasisType.C, line 2236:

 You are not using the predefined 5D/6D in this basis set.


--------------------------------------------------------------
User input:
--------------------------------------------------------------
$molecule
0 1
C	-0.053316	-0.574004	-0.002181
C	0.017184	0.267696	1.110819
C	0.133784	1.653696	0.818419
H	-0.015216	-0.119104	2.140719
C	0.154784	1.900996	-0.565781
S	0.027584	0.393196	-1.466881
C	0.222984	2.714596	1.880219
H	0.185384	2.268196	2.892819
H	-0.611316	3.443096	1.805919
H	1.167284	3.293496	1.806019
C	-0.053316	-2.024104	-0.002181
H	-0.747516	-2.024604	0.825119
H	-0.771816	-2.559204	-0.605381
H	0.585184	-2.711304	0.533119
H	0.234984	2.855696	-1.099281
$end

$rem
JOBTYPE		SP
EXCHANGE	HF
CORRELATION	pRIMP2
BASIS		cc-pvtz
METHOD		rimp2
AUX_BASIS	rimp2-cc-pvtz
SOLVENT_METHOD	PCM
PURECART	11111
SYMMETRY	false
MEM_TOTAL	110000
SCF_CONVERGENCE = 6
THRESH=10
GUI = 2
$end



$solvent
dielectric 4.90
$end
--------------------------------------------------------------
 ----------------------------------------------------------------
             Standard Nuclear Orientation (Angstroms)
    I     Atom           X                Y                Z
 ----------------------------------------------------------------
    1      C      -0.0533160000    -0.5740040000    -0.0021810000
    2      C       0.0171840000     0.2676960000     1.1108190000
    3      C       0.1337840000     1.6536960000     0.8184190000
    4      H      -0.0152160000    -0.1191040000     2.1407190000
    5      C       0.1547840000     1.9009960000    -0.5657810000
    6      S       0.0275840000     0.3931960000    -1.4668810000
    7      C       0.2229840000     2.7145960000     1.8802190000
    8      H       0.1853840000     2.2681960000     2.8928190000
    9      H      -0.6113160000     3.4430960000     1.8059190000
   10      H       1.1672840000     3.2934960000     1.8060190000
   11      C      -0.0533160000    -2.0241040000    -0.0021810000
   12      H      -0.7475160000    -2.0246040000     0.8251190000
   13      H      -0.7718160000    -2.5592040000    -0.6053810000
   14      H       0.5851840000    -2.7113040000     0.5331190000
   15      H       0.2349840000     2.8556960000    -1.0992810000
 ----------------------------------------------------------------
 Nuclear Repulsion Energy =         344.01460896 hartrees
 There are       30 alpha and       30 beta electrons
 Requested basis set is cc-pVTZ
 There are 120 shells and 326 basis functions

 Total QAlloc Memory Limit 110000 MB
 Mega-Array Size       188 MB
 MEM_STATIC part       192 MB
 Discretize the solute cavity surface with Lebedev spheres
	Using 110 Lebedev grid points for each H atom
	Using 194 Lebedev grid points for other atoms
	Atomic van der Waals radii will be scaled by 1.20
 Remove points where switching function is < 1.0e-08
 Keep 1065 surface tesserae and discard 1173 interior tesserae
 Molecular Surface Area = 159.442 Angst**2

                       Distance Matrix (Angstroms)
             C (  1)   C (  2)   C (  3)   H (  4)   C (  5)   S (  6)
   C (  2)  1.397211
   C (  3)  2.381394  1.421298
   H (  4)  2.190983  1.100617  2.216641
   C (  5)  2.546876  2.344694  1.406274  3.381545
   S (  6)  1.757090  2.580774  2.612037  3.644045  1.761142
   C (  7)  3.799297  2.573257  1.503624  2.855601  2.578665  4.078009
   H (  8)  4.064001  2.684365  2.164118  2.510995  3.478173  4.748422
   H (  9)  4.440460  3.310792  2.175381  3.627216  2.930860  4.518994
   H ( 10)  4.440384  3.310815  2.175413  3.627143  2.930810  4.519129
   C ( 11)  1.450100  2.548742  3.772877  2.867490  3.970814  2.827584
   H ( 12)  1.808474  2.433317  3.782410  2.428579  4.261348  3.420497
   H ( 13)  2.195703  3.399886  4.538264  3.750680  4.555605  3.177717
   H ( 14)  2.293966  3.087200  4.397543  3.108755  4.760897  3.734814
   H ( 15)  3.612421  3.410238  2.265528  4.405637  1.096589  2.498410
             C (  7)   H (  8)   H (  9)   H ( 10)   C ( 11)   H ( 12)
   H (  8)  1.107269
   H (  9)  1.110085  1.787868
   H ( 10)  1.110105  1.787876  1.784880
   C ( 11)  5.106373  5.182841  5.785401  5.747723
   H ( 12)  4.951275  4.855288  5.556641  5.736795  1.079972
   H ( 13)  5.914457  6.037998  6.470528  6.620352  1.080011  1.527324
   H ( 14)  5.602344  5.524803  6.397521  6.165771  1.080033  1.527387
   H ( 15)  2.982863  4.035403  3.082442  3.082470  5.009910  5.337223
             H ( 13)   H ( 14)
   H ( 14)  1.777854
   H ( 15)  5.529803  5.811958
 
 Requested basis set is rimp2-cc-pVTZ
 There are 250 shells and 848 basis functions
 A cutoff of  1.0D-10 yielded   6185 shell pairs
 There are     45297 function pairs (     58253 Cartesian)
 Smallest overlap matrix eigenvalue = 9.15E-05

 Scale SEOQF with 1.000000e+00/1.000000e-01/1.000000e-01

 Standard Electronic Orientation quadrupole field applied
 Nucleus-field energy     =     0.0000000035 hartrees
 Guess from superposition of atomic densities
 Warning:  Energy on first SCF cycle will be non-variational
 SAD guess density has 60.000000 electrons

 -----------------------------------------------------------------------
  General SCF calculation program by
  Eric Jon Sundstrom, Paul Horn, Yuezhi Mao, Dmitri Zuev, Alec White,
  David Stuck, Shaama M.S., Shane Yost, Joonho Lee, David Small,
  Daniel Levine, Susi Lehtola, Hugh Burton, Evgeny Epifanovsky,
  Bang C. Huynh
 -----------------------------------------------------------------------
 Hartree-Fock
 using 64 threads for integral computing
 -------------------------------------------------------
 OpenMP Integral computing Module                
 Release: version 1.0, May 2013, Q-Chem Inc. Pittsburgh 
 -------------------------------------------------------
 A restricted SCF calculation will be
 performed using DIIS
 SCF converges when DIIS error is below 1.0e-06
 ---------------------------------------
  Cycle       Energy         DIIS error
 ---------------------------------------
    1    -632.0843348288      2.91e-02  
    2    -629.3456712839      1.92e-03  
    3    -629.4154204980      6.63e-04  
    4    -629.4226254741      3.42e-04  
    5    -629.4246500608      6.15e-05  
    6    -629.4247754236      2.48e-05  
    7    -629.4248053123      1.11e-05  
    8    -629.4248138954      4.92e-06  
    9    -629.4248153291      1.66e-06  
   10    -629.4248154973      5.42e-07  Convergence criterion met
 ---------------------------------------
 SCF time:   CPU 671.95s  wall 13.00s 

************** Final PCM Free Energy Summary **************
 G_electrostatic  =      -0.00558381 hartree =      -3.50389158 kcal/mol
 G_cavitation     =       0.00000000 hartree =       0.00000000 kcal/mol
 G_dispersion     =       0.00000000 hartree =       0.00000000 kcal/mol
 G_repulsion      =       0.00000000 hartree =       0.00000000 kcal/mol
 --------------------------------------------------
 Non-electrostatic Free Energy =       0.00000000 hartree =       0.00000000 kcal/mol
 Total                         =      -0.00558381 hartree =      -3.50389158 kcal/mol
 --------------------------------------------------
 SCF Energy (H0 + V/2)                       =    -629.42481550 
 Solute Internal Energy (H0)                 =    -629.41923169 
 Total Free Energy (H0 + V/2 + non-elec)     =    -629.42481550 hartree
                                             = -394970.03300698 kcal/mol
***********************************************************

 SCF   energy in the final basis set =     -629.4248154973
 Total energy in the final basis set =     -629.4248154973


 --------------------------------------------------------------
  Generalized many-body perturbation theory program
  by Joonho Lee, Fazle Rob, Xintian Feng, Evgeny Epifanovsky

 No regularization used 
 (reg. param. = 0.0000e+00)
  (P|Q)^-1/2 Time:  CPU 7.05 s  wall 0.11 s

 In RI-MP2 calculation: 
 # of frozen core orbitals: 11

 Components of the RIMP2 correlation energy:
        aaaa    correlation energy =        -0.1454835580 a.u.
        abab    correlation energy =        -0.8862218744 a.u.
        bbbb    correlation energy =        -0.1454835580 a.u.
        non-Brillouin singles      =        -0.0000000000 a.u.
        total same-spin energy     =        -0.2909671161 a.u.
        total opposite-spin energy =        -0.8862218744 a.u.

 Total  RIMP2   correlation energy =        -1.1771889905 a.u.
        RIMP2         total energy =      -630.6020044878 a.u.

 RI-MP2 Energy Time:  CPU 34.16 s  wall 0.57 s
 
 --------------------------------------------------------------
 
                    Orbital Energies (a.u.)
 --------------------------------------------------------------
 
 Alpha MOs
 -- Occupied --
-91.9772 -11.2804 -11.2543 -11.2474 -11.2292 -11.2272 -11.2188  -8.9770
 -6.6580  -6.6574  -6.6569  -1.1603  -1.0529  -0.9988  -0.9396  -0.8849
 -0.7425  -0.7214  -0.6484  -0.5890  -0.5751  -0.5654  -0.5598  -0.5423
 -0.5092  -0.4898  -0.4663  -0.4465  -0.3372  -0.2979
 -- Virtual --
  0.1074   0.1449   0.1490   0.1764   0.1805   0.1899   0.2098   0.2235
  0.2344   0.2421   0.2516   0.2669   0.2979   0.3183   0.3446   0.3521
  0.3848   0.3911   0.4080   0.4159   0.4338   0.4524   0.4715   0.4924
  0.4977   0.5036   0.5194   0.5357   0.5374   0.5539   0.5635   0.5942
  0.5996   0.6074   0.6147   0.6199   0.6386   0.6395   0.6457   0.6542
  0.6565   0.6621   0.6805   0.7046   0.7383   0.7503   0.7645   0.7811
  0.8099   0.8338   0.8472   0.8481   0.8684   0.8954   0.9223   0.9415
  0.9532   0.9582   0.9772   1.0136   1.0314   1.0544   1.0624   1.0754
  1.0770   1.0846   1.1030   1.1509   1.1579   1.1857   1.1928   1.2061
  1.2209   1.2352   1.2554   1.2620   1.2690   1.2772   1.3201   1.3389
  1.3527   1.3782   1.3922   1.4024   1.4234   1.4407   1.4521   1.4816
  1.4960   1.5179   1.5331   1.5400   1.5493   1.5599   1.5701   1.5896
  1.6037   1.6253   1.6627   1.6846   1.6929   1.7026   1.7156   1.7421
  1.7504   1.7932   1.8021   1.8239   1.8860   1.9011   1.9314   1.9441
  1.9970   2.0431   2.0951   2.1463   2.1828   2.2017   2.2182   2.2362
  2.2640   2.2969   2.3708   2.4170   2.4639   2.4969   2.5264   2.5550
  2.5776   2.5993   2.6464   2.6595   2.6804   2.6881   2.7171   2.7284
  2.7474   2.7622   2.7678   2.7838   2.8139   2.8484   2.8694   2.8823
  2.9012   2.9332   2.9369   2.9646   2.9751   2.9991   3.0355   3.0431
  3.0819   3.1082   3.1133   3.1363   3.1497   3.1566   3.1775   3.1904
  3.2232   3.2332   3.2553   3.2801   3.3016   3.3074   3.3195   3.3335
  3.3359   3.3666   3.3820   3.3983   3.4128   3.4175   3.4307   3.4377
  3.4508   3.4689   3.4834   3.4936   3.5081   3.5298   3.5318   3.5679
  3.5824   3.5902   3.5985   3.6187   3.6218   3.6362   3.6678   3.6772
  3.6854   3.6973   3.7297   3.7415   3.7743   3.7831   3.7879   3.8033
  3.8107   3.8322   3.8495   3.8687   3.8963   3.9056   3.9259   3.9618
  3.9771   3.9936   4.0107   4.0300   4.0461   4.0686   4.0950   4.1024
  4.1222   4.1286   4.1590   4.1631   4.2122   4.2195   4.2270   4.2494
  4.2877   4.2892   4.3127   4.3289   4.3396   4.3751   4.3871   4.4010
  4.4061   4.4237   4.4401   4.4563   4.4712   4.5281   4.5567   4.5913
  4.5942   4.6165   4.6308   4.6750   4.7197   4.7382   4.7625   4.7957
  4.8046   4.8281   4.8656   4.8892   4.9199   4.9471   5.0810   5.0938
  5.1095   5.1352   5.1775   5.1976   5.2308   5.2629   5.2841   5.3226
  5.3661   5.4058   5.4158   5.4427   5.4750   5.4923   5.5571   5.5609
  5.5828   5.6243   5.6406   5.6694   5.6999   5.8204   5.8416   5.8769
  5.9151   6.0281   6.0863   6.1283   6.2269   6.2537   6.3015   6.3668
  6.4703   6.5466   9.1878  11.3984  12.9509  13.8597  14.1663  14.4676
 --------------------------------------------------------------
 
          Ground-State Mulliken Net Atomic Charges

     Atom                 Charge (a.u.)
  ----------------------------------------
      1 C                     0.059112
      2 C                    -0.276504
      3 C                     0.035882
      4 H                     0.176483
      5 C                    -0.262146
      6 S                    -0.004627
      7 C                    -0.274610
      8 H                     0.101349
      9 H                     0.107123
     10 H                     0.107353
     11 C                    -0.376989
     12 H                     0.129530
     13 H                     0.138528
     14 H                     0.146155
     15 H                     0.193363
  ----------------------------------------
  Sum of atomic charges =     0.000000

 -----------------------------------------------------------------
                    Cartesian Multipole Moments
 -----------------------------------------------------------------
    Charge (ESU x 10^10)
                -0.0000
    Dipole Moment (Debye)
         X      -0.3424      Y      -0.3174      Z       1.9880
       Tot       2.0421
    Quadrupole Moments (Debye-Ang)
        XX     -53.8690     XY       1.7037     YY     -42.1019
        XZ       0.3200     YZ      -0.7830     ZZ     -48.7694
    Octopole Moments (Debye-Ang^2)
       XXX      -8.7903    XXY     -31.9475    XYY      -2.6763
       YYY     -79.4221    XXZ      -2.8785    XYZ      -1.3466
       YYZ      -2.4754    XZZ      -2.4068    YZZ     -24.7595
       ZZZ      -1.1915
    Hexadecapole Moments (Debye-Ang^3)
      XXXX     -83.1926   XXXY     -28.9916   XXYY    -158.4555
      XYYY     -21.3412   YYYY    -803.6729   XXXZ      -7.7390
      XXYZ     -29.8251   XYYZ       0.0211   YYYZ    -110.2734
      XXZZ    -102.8914   XYZZ      -7.8747   YYZZ    -214.4974
      XZZZ      -9.0876   YZZZ     -99.8491   ZZZZ    -491.5121
 -----------------------------------------------------------------
 Total job time:  15.90s(wall), 742.16s(cpu) 
 Fri Dec 15 13:58:48 2023

        *************************************************************
        *                                                           *
        *  Thank you very much for using Q-Chem.  Have a nice day.  *
        *                                                           *
        *************************************************************


0 sent ACK to 0 
now end server 0 ... 
cleanup process ... done
remove work dirs ./qchem2113044.0 -- ./qchem2113044.0
rm -rf ./qchem2113044.0
rm -rf ./qchem2113044
