You are running Q-Chem version: 5.4.0

#
# job setting
#
local host:  exp-7-21
current dir: /home/rramji/project-csd799/aromodel/p3ht-qchem/methylated-rotation-run
input file:  Methylthiophene_Phi_20_Theta_250_Methylthiophene_Hydrogenated_Improper.qcin
output file: 
nprocs     : 1
nthreads   : 64
#
# qchem installation setting
#
QC:          /cm/shared/apps/spack/cpu/opt/spack/linux-centos8-zen2/gcc-10.2.0/qchem-5.4-akfmr7b3t57bfs6qan3padb2wnb2i7cl
QCAUX:       /cm/shared/apps/spack/cpu/opt/spack/linux-centos8-zen2/gcc-10.2.0/qchem-5.4-akfmr7b3t57bfs6qan3padb2wnb2i7cl/qcaux
QCPROG:      /cm/shared/apps/spack/cpu/opt/spack/linux-centos8-zen2/gcc-10.2.0/qchem-5.4-akfmr7b3t57bfs6qan3padb2wnb2i7cl/exe/qcprog.exe
QCPROG_S:    /cm/shared/apps/spack/cpu/opt/spack/linux-centos8-zen2/gcc-10.2.0/qchem-5.4-akfmr7b3t57bfs6qan3padb2wnb2i7cl/exe/qcprog.exe_s
PARALLEL:    -DPARALLEL
QCMPI:       mpich
#
# qchem directory setting
#
qcrun:       qchem23399
QCSCRATCH:   .
QCLOCALSCR:  
QCTMPDIR:    .
QCFILEPREF:  ./qchem23399
QCSAVEDIR:   
workdirs:    ./qchem23399
workdir0:    ./qchem23399
partmpdirs =  
#
# parallel setting
#
QCRSH:           ssh
QCMPI:           mpich
QCMPIRUN:        /cm/shared/apps/spack/cpu/opt/spack/linux-centos8-zen2/gcc-10.2.0/qchem-5.4-akfmr7b3t57bfs6qan3padb2wnb2i7cl/bin/mpi/mpirun_qchem
QCMACHINEFILE:   ./qchem23399/hostfile
exp-7-21

#
# env setting
#
exported envs:   QC QCAUX QCSCRATCH QCRUNNAME QCFILEPREF QCPROG QCPROG_S GUIFILE

Running Job 1 of 1 Methylthiophene_Phi_20_Theta_250_Methylthiophene_Hydrogenated_Improper.qcin
qchem Methylthiophene_Phi_20_Theta_250_Methylthiophene_Hydrogenated_Improper.qcin_23399.0 ./qchem23399/ 1
/cm/shared/apps/spack/cpu/opt/spack/linux-centos8-zen2/gcc-10.2.0/qchem-5.4-akfmr7b3t57bfs6qan3padb2wnb2i7cl/bin/mpi/mpirun_qchem -machinefile ./qchem23399/hostfile -np 1 /cm/shared/apps/spack/cpu/opt/spack/linux-centos8-zen2/gcc-10.2.0/qchem-5.4-akfmr7b3t57bfs6qan3padb2wnb2i7cl/exe/qcprog.exe Methylthiophene_Phi_20_Theta_250_Methylthiophene_Hydrogenated_Improper.qcin_23399.0 ./qchem23399/

Process 0 of 1 is on exp-7-21 - thread support 0
initial socket setup ...start
initial socket setup ...done 
now start server 0 ... 
                  Welcome to Q-Chem
     A Quantum Leap Into The Future Of Chemistry


 Q-Chem 5.4, Q-Chem, Inc., Pleasanton, CA (2021)

 License issued to: University of California, San Diego (site)

 E. Epifanovsky,  A. T. B. Gilbert,  Xintian Feng,  Joonho Lee,  Yuezhi Mao,  
 N. Mardirossian,  P. Pokhilko,  A. White,  M. Wormit,  M. P. Coons,  
 A. L. Dempwolff,  Zhengting Gan,  D. Hait,  P. R. Horn,  L. D. Jacobson,  
 I. Kaliman,  J. Kussmann,  A. W. Lange,  Ka Un Lao,  D. S. Levine,  Jie Liu,  
 S. C. McKenzie,  A. F. Morrison,  K. Nanda,  F. Plasser,  D. R. Rehn,  
 M. L. Vidal,  Zhi-Qiang You,  Ying Zhu,  B. Alam,  B. Albrecht,  
 A. Aldossary,  E. Alguire,  J. H. Andersen,  D. Barton,  K. Begam,  A. Behn,  
 Y. A. Bernard,  E. J. Berquist,  H. Burton,  A. Carreras,  K. Carter-Fenk,  
 R. Chakraborty,  A. D. Chien,  K. D. Closser,  V. Cofer-Shabica,  
 S. Dasgupta,  Jia Deng,  M. de Wergifosse,  M. Diedenhofen,  Hainam Do,  
 S. Ehlert,  Po-Tung Fang,  S. Fatehi,  Qingguo Feng,  J. Gayvert,  
 Qinghui Ge,  G. Gidofalvi,  M. Goldey,  J. Gomes,  C. Gonzalez-Espinoza,  
 S. Gulania,  A. Gunina,  M. W. D. Hanson-Heine,  P. H. P. Harbach,  
 A. W. Hauser,  M. F. Herbst,  M. Hernandez Vera,  M. Hodecker,  
 Z. C. Holden,  S. Houck,  Xunkun Huang,  Kerwin Hui,  B. C. Huynh,  
 M. Ivanov,  Hyunjun Ji,  Hanjie Jiang,  B. Kaduk,  S. Kaehler,  
 K. Khistyaev,  Jaehoon Kim,  P. Klunzinger,  Z. Koczor-Benda,  
 Joong Hoon Koh,  D. Kosenkov,  L. Koulias,  T. Kowalczyk,  C. M. Krauter,  
 K. Kue,  A. Kunitsa,  T. Kus,  A. Landau,  K. V. Lawler,  D. Lefrancois,  
 S. Lehtola,  Rain Li,  Yi-Pei Li,  Jiashu Liang,  M. Liebenthal,  
 Hung-Hsuan Lin,  You-Sheng Lin,  Fenglai Liu,  Kuan-Yu Liu,  
 M. Loipersberger,  A. Luenser,  A. Manjanath,  P. Manohar,  E. Mansoor,  
 S. F. Manzer,  Shan-Ping Mao,  A. V. Marenich,  T. Markovich,  S. Mason,  
 S. A. Maurer,  P. F. McLaughlin,  M. F. S. J. Menger,  J.-M. Mewes,  
 S. A. Mewes,  P. Morgante,  J. W. Mullinax,  T. S. Nguyen-Beck,  
 K. J. Oosterbaan,  G. Paran,  Alexander C. Paul,  Suranjan K. Paul,  
 F. Pavosevic,  Zheng Pei,  S. Prager,  E. I. Proynov,  E. Ramos,  B. Rana,  
 A. E. Rask,  A. Rettig,  R. M. Richard,  F. Rob,  E. Rossomme,  T. Scheele,  
 M. Scheurer,  M. Schneider,  N. Sergueev,  S. M. Sharada,  W. Skomorowski,  
 D. W. Small,  C. J. Stein,  Yu-Chuan Su,  E. J. Sundstrom,  Zhen Tao,  
 J. Thirman,  T. Tsuchimochi,  N. M. Tubman,  S. P. Veccham,  O. Vydrov,  
 J. Wenzel,  J. Witte,  A. Yamada,  Kun Yao,  S. Yeganeh,  S. R. Yost,  
 A. Zech,  Igor Ying Zhang,  Xing Zhang,  Yu Zhang,  D. Zuev,  
 A. Aspuru-Guzik,  A. T. Bell,  N. A. Besley,  K. B. Bravaya,  B. R. Brooks,  
 D. Casanova,  Jeng-Da Chai,  S. Coriani,  C. J. Cramer,  
 A. E. DePrince, III,  R. A. DiStasio Jr.,  A. Dreuw,  B. D. Dunietz,  
 T. R. Furlani,  W. A. Goddard III,  S. Grimme,  S. Hammes-Schiffer,  
 T. Head-Gordon,  W. J. Hehre,  Chao-Ping Hsu,  T.-C. Jagau,  Yousung Jung,  
 A. Klamt,  Jing Kong,  D. S. Lambrecht,  WanZhen Liang,  N. J. Mayhall,  
 C. W. McCurdy,  J. B. Neaton,  C. Ochsenfeld,  J. A. Parkhill,  R. Peverati,  
 V. A. Rassolov,  Yihan Shao,  L. V. Slipchenko,  T. Stauch,  R. P. Steele,  
 J. E. Subotnik,  A. J. W. Thom,  A. Tkatchenko,  D. G. Truhlar,  
 T. Van Voorhis,  T. A. Wesolowski,  K. B. Whaley,  H. L. Woodcock III,  
 P. M. Zimmerman,  S. Faraji,  P. M. W. Gill,  M. Head-Gordon,  
 J. M. Herbert,  A. I. Krylov

 Contributors to earlier versions of Q-Chem not listed above: 
 R. D. Adamson,  B. Austin,  R. Baer,  J. Baker,  G. J. O. Beran,  
 K. Brandhorst,  S. T. Brown,  E. F. C. Byrd,  A. K. Chakraborty,  
 G. K. L. Chan,  Chun-Min Chang,  Yunqing Chen,  C.-L. Cheng,  
 Siu Hung Chien,  D. M. Chipman,  D. L. Crittenden,  H. Dachsel,  
 R. J. Doerksen,  A. D. Dutoi,  R. G. Edgar,  J. Fosso-Tande,  
 L. Fusti-Molnar,  D. Ghosh,  A. Ghysels,  A. Golubeva-Zadorozhnaya,  
 J. Gonthier,  M. S. Gordon,  S. R. Gwaltney,  G. Hawkins,  J. E. Herr,  
 A. Heyden,  S. Hirata,  E. G. Hohenstein,  G. Kedziora,  F. J. Keil,  
 C. Kelley,  Jihan Kim,  R. A. King,  R. Z. Khaliullin,  P. P. Korambath,  
 W. Kurlancheek,  A. Laurent,  A. M. Lee,  M. S. Lee,  S. V. Levchenko,  
 Ching Yeh Lin,  D. Liotard,  E. Livshits,  R. C. Lochan,  I. Lotan,  
 L. A. Martinez-Martinez,  P. E. Maslen,  N. Nair,  D. P. O'Neill,  
 D. Neuhauser,  E. Neuscamman,  C. M. Oana,  R. Olivares-Amaya,  R. Olson,  
 T. M. Perrine,  B. Peters,  P. A. Pieniazek,  A. Prociuk,  Y. M. Rhee,  
 J. Ritchie,  M. A. Rohrdanz,  E. Rosta,  N. J. Russ,  H. F. Schaefer III,  
 M. W. Schmidt,  N. E. Schultz,  S. Sharma,  N. Shenvi,  C. D. Sherrill,  
 A. C. Simmonett,  A. Sodt,  T. Stein,  D. Stuck,  K. S. Thanthiriwatte,  
 V. Vanovschi,  L. Vogt,  Tao Wang,  A. Warshel,  M. A. Watson,  
 C. F. Williams,  Q. Wu,  X. Xu,  Jun Yang,  W. Zhang,  Yan Zhao

 Please cite Q-Chem as follows:
 Y. Shao et al., Mol. Phys. 113, 184-215 (2015)
 DOI: 10.1080/00268976.2014.952696

 Q-Chem 5.4.0 for Intel X86 EM64T Linux

 Parts of Q-Chem use Armadillo 9.800.1 (Horizon Scraper).
 http://arma.sourceforge.net/

 Q-Chem begins on Fri Dec 15 14:03:09 2023  

 Host: 
0

     Scratch files written to ./qchem23399//
 May1621 |scratch|qcdevops|jenkins|workspace|build_RNUM    
 Parallel job on  1  processors
 Processing $rem in /cm/shared/apps/spack/cpu/opt/spack/linux-centos8-zen2/gcc-10.2.0/qchem-5.4-akfmr7b3t57bfs6qan3padb2wnb2i7cl/config/preferences:
 Processing $rem in /home/rramji/.qchemrc:
 Symmetry turned off for PCM/SM12/SMD calculation
 Core orbitals will be frozen

 Checking the input file for inconsistencies... 	...done.

 Q-Chem warning in module forms1/BasisType.C, line 2236:

 You are not using the predefined 5D/6D in this basis set.


--------------------------------------------------------------
User input:
--------------------------------------------------------------
$molecule
0 1
C	-0.228787	-0.536244	0.005949
C	0.057213	0.258456	1.118949
C	0.528513	1.567156	0.826549
H	-0.074287	-0.106644	2.148849
C	0.612813	1.800556	-0.557651
S	0.099713	0.377056	-1.458751
C	0.889313	2.568756	1.888349
H	0.737413	2.147356	2.900949
H	0.272013	3.488456	1.814049
H	1.951213	2.883556	1.814149
C	-0.228787	-1.986344	0.005949
H	-0.598187	-1.986844	-1.008951
H	0.652813	-2.521444	-0.314751
H	-1.011587	-2.673544	0.291249
H	0.937313	2.701956	-1.091151
$end

$rem
JOBTYPE		SP
EXCHANGE	HF
CORRELATION	pRIMP2
BASIS		cc-pvtz
METHOD		rimp2
AUX_BASIS	rimp2-cc-pvtz
SOLVENT_METHOD	PCM
PURECART	11111
SYMMETRY	false
MEM_TOTAL	110000
SCF_CONVERGENCE = 6
THRESH=10
GUI = 2
$end



$solvent
dielectric 4.90
$end
--------------------------------------------------------------
 ----------------------------------------------------------------
             Standard Nuclear Orientation (Angstroms)
    I     Atom           X                Y                Z
 ----------------------------------------------------------------
    1      C      -0.2287870000    -0.5362440000     0.0059490000
    2      C       0.0572130000     0.2584560000     1.1189490000
    3      C       0.5285130000     1.5671560000     0.8265490000
    4      H      -0.0742870000    -0.1066440000     2.1488490000
    5      C       0.6128130000     1.8005560000    -0.5576510000
    6      S       0.0997130000     0.3770560000    -1.4587510000
    7      C       0.8893130000     2.5687560000     1.8883490000
    8      H       0.7374130000     2.1473560000     2.9009490000
    9      H       0.2720130000     3.4884560000     1.8140490000
   10      H       1.9512130000     2.8835560000     1.8141490000
   11      C      -0.2287870000    -1.9863440000     0.0059490000
   12      H      -0.5981870000    -1.9868440000    -1.0089510000
   13      H       0.6528130000    -2.5214440000    -0.3147510000
   14      H      -1.0115870000    -2.6735440000     0.2912490000
   15      H       0.9373130000     2.7019560000    -1.0911510000
 ----------------------------------------------------------------
 Nuclear Repulsion Energy =         344.99950240 hartrees
 There are       30 alpha and       30 beta electrons
 Requested basis set is cc-pVTZ
 There are 120 shells and 326 basis functions

 Total QAlloc Memory Limit 110000 MB
 Mega-Array Size       188 MB
 MEM_STATIC part       192 MB
 Discretize the solute cavity surface with Lebedev spheres
	Using 110 Lebedev grid points for each H atom
	Using 194 Lebedev grid points for other atoms
	Atomic van der Waals radii will be scaled by 1.20
 Remove points where switching function is < 1.0e-08
 Keep 1069 surface tesserae and discard 1169 interior tesserae
 Molecular Surface Area = 157.920 Angst**2

                       Distance Matrix (Angstroms)
             C (  1)   C (  2)   C (  3)   H (  4)   C (  5)   S (  6)
   C (  2)  1.397180
   C (  3)  2.381424  1.421379
   H (  4)  2.190992  1.100584  2.216631
   C (  5)  2.546875  2.344728  1.406269  3.381517
   S (  6)  1.757093  2.580777  2.612050  3.644039  1.761137
   C (  7)  3.799290  2.573296  1.503595  2.855547  2.578662  4.078001
   H (  8)  4.064022  2.684425  2.164118  2.510981  3.478176  4.748432
   H (  9)  4.440522  3.310922  2.175395  3.627225  2.930889  4.519039
   H ( 10)  4.440385  3.310844  2.175394  3.627116  2.930809  4.519123
   C ( 11)  1.450100  2.521843  3.724815  2.854674  3.920019  2.799807
   H ( 12)  1.808513  3.162101  4.155650  3.712321  4.001824  2.505476
   H ( 13)  2.195697  3.184035  4.246724  3.525515  4.329005  3.164800
   H ( 14)  2.293954  3.228629  4.543346  3.304268  4.834964  3.688312
   H ( 15)  3.612389  3.410251  2.265494  4.405584  1.096560  2.498372
             C (  7)   H (  8)   H (  9)   H ( 10)   C ( 11)   H ( 12)
   H (  8)  1.107254
   H (  9)  1.110148  1.787875
   H ( 10)  1.110061  1.787858  1.784830
   C ( 11)  5.053960  5.138292  5.787354  5.633641
   H ( 12)  5.600044  5.844891  6.221373  6.179816  1.080036
   H ( 13)  5.551551  5.669707  6.387151  5.952485  1.080000  1.527322
   H ( 14)  5.800505  5.754182  6.475862  6.479102  1.080007  1.527408
   H ( 15)  2.982862  4.035394  3.082433  3.082489  4.954147  4.934507
             H ( 13)   H ( 14)
   H ( 14)  1.777807
   H ( 15)  5.288444  5.882622
 
 Requested basis set is rimp2-cc-pVTZ
 There are 250 shells and 848 basis functions
 A cutoff of  1.0D-10 yielded   6171 shell pairs
 There are     45213 function pairs (     58146 Cartesian)
 Smallest overlap matrix eigenvalue = 1.12E-04

 Scale SEOQF with 1.000000e-01/1.000000e-01/1.000000e-01

 Standard Electronic Orientation quadrupole field applied
 Nucleus-field energy     =     0.0000000017 hartrees
 Guess from superposition of atomic densities
 Warning:  Energy on first SCF cycle will be non-variational
 SAD guess density has 60.000000 electrons

 -----------------------------------------------------------------------
  General SCF calculation program by
  Eric Jon Sundstrom, Paul Horn, Yuezhi Mao, Dmitri Zuev, Alec White,
  David Stuck, Shaama M.S., Shane Yost, Joonho Lee, David Small,
  Daniel Levine, Susi Lehtola, Hugh Burton, Evgeny Epifanovsky,
  Bang C. Huynh
 -----------------------------------------------------------------------
 Hartree-Fock
 using 64 threads for integral computing
 -------------------------------------------------------
 OpenMP Integral computing Module                
 Release: version 1.0, May 2013, Q-Chem Inc. Pittsburgh 
 -------------------------------------------------------
 A restricted SCF calculation will be
 performed using DIIS
 SCF converges when DIIS error is below 1.0e-06
 ---------------------------------------
  Cycle       Energy         DIIS error
 ---------------------------------------
    1    -632.0960228677      2.91e-02  
    2    -629.3340823154      1.94e-03  
    3    -629.4046519554      6.87e-04  
    4    -629.4122864680      3.40e-04  
    5    -629.4143856053      6.41e-05  
    6    -629.4145218621      2.62e-05  
    7    -629.4145566266      1.19e-05  
    8    -629.4145663801      4.94e-06  
    9    -629.4145678616      1.85e-06  
   10    -629.4145680491      5.19e-07  Convergence criterion met
 ---------------------------------------
 SCF time:   CPU 663.90s  wall 14.00s 

************** Final PCM Free Energy Summary **************
 G_electrostatic  =      -0.00502032 hartree =      -3.15030128 kcal/mol
 G_cavitation     =       0.00000000 hartree =       0.00000000 kcal/mol
 G_dispersion     =       0.00000000 hartree =       0.00000000 kcal/mol
 G_repulsion      =       0.00000000 hartree =       0.00000000 kcal/mol
 --------------------------------------------------
 Non-electrostatic Free Energy =       0.00000000 hartree =       0.00000000 kcal/mol
 Total                         =      -0.00502032 hartree =      -3.15030128 kcal/mol
 --------------------------------------------------
 SCF Energy (H0 + V/2)                       =    -629.41456805 
 Solute Internal Energy (H0)                 =    -629.40954772 
 Total Free Energy (H0 + V/2 + non-elec)     =    -629.41456805 hartree
                                             = -394963.60263619 kcal/mol
***********************************************************

 SCF   energy in the final basis set =     -629.4145680491
 Total energy in the final basis set =     -629.4145680491


 --------------------------------------------------------------
  Generalized many-body perturbation theory program
  by Joonho Lee, Fazle Rob, Xintian Feng, Evgeny Epifanovsky

 No regularization used 
 (reg. param. = 0.0000e+00)
  (P|Q)^-1/2 Time:  CPU 6.96 s  wall 0.11 s

 In RI-MP2 calculation: 
 # of frozen core orbitals: 11

 Components of the RIMP2 correlation energy:
        aaaa    correlation energy =        -0.1457045632 a.u.
        abab    correlation energy =        -0.8876005881 a.u.
        bbbb    correlation energy =        -0.1457045632 a.u.
        non-Brillouin singles      =        -0.0000000000 a.u.
        total same-spin energy     =        -0.2914091264 a.u.
        total opposite-spin energy =        -0.8876005881 a.u.

 Total  RIMP2   correlation energy =        -1.1790097144 a.u.
        RIMP2         total energy =      -630.5935777636 a.u.

 RI-MP2 Energy Time:  CPU 34.80 s  wall 0.58 s
 
 --------------------------------------------------------------
 
                    Orbital Energies (a.u.)
 --------------------------------------------------------------
 
 Alpha MOs
 -- Occupied --
-91.9808 -11.2726 -11.2602 -11.2474 -11.2299 -11.2271 -11.2161  -8.9806
 -6.6615  -6.6610  -6.6604  -1.1615  -1.0533  -0.9950  -0.9453  -0.8827
 -0.7479  -0.7189  -0.6463  -0.5908  -0.5751  -0.5663  -0.5533  -0.5461
 -0.5101  -0.4834  -0.4646  -0.4456  -0.3379  -0.3030
 -- Virtual --
  0.0983   0.1421   0.1505   0.1754   0.1878   0.1920   0.1964   0.2291
  0.2353   0.2451   0.2462   0.2775   0.2902   0.3166   0.3409   0.3494
  0.3740   0.3971   0.3992   0.4139   0.4381   0.4674   0.4750   0.4765
  0.4925   0.4974   0.5212   0.5321   0.5402   0.5522   0.5822   0.5930
  0.6009   0.6101   0.6116   0.6221   0.6268   0.6390   0.6436   0.6485
  0.6562   0.6650   0.6881   0.7046   0.7384   0.7514   0.7587   0.7732
  0.7969   0.8279   0.8416   0.8598   0.8650   0.8842   0.9037   0.9149
  0.9404   0.9600   0.9934   1.0058   1.0300   1.0498   1.0650   1.0769
  1.0882   1.0910   1.1061   1.1435   1.1636   1.1739   1.2076   1.2147
  1.2261   1.2374   1.2505   1.2697   1.2723   1.2983   1.3082   1.3227
  1.3380   1.3587   1.3891   1.4070   1.4254   1.4359   1.4608   1.4793
  1.4946   1.5120   1.5225   1.5294   1.5502   1.5674   1.5796   1.5849
  1.6185   1.6239   1.6438   1.6623   1.6820   1.6877   1.7074   1.7437
  1.7583   1.7819   1.8137   1.8264   1.8788   1.9145   1.9312   1.9647
  1.9889   2.0439   2.0844   2.1175   2.1690   2.1885   2.2143   2.2217
  2.2572   2.2771   2.3501   2.4208   2.4557   2.5016   2.5452   2.5645
  2.5676   2.6040   2.6407   2.6653   2.6804   2.6919   2.7161   2.7383
  2.7415   2.7612   2.7876   2.7950   2.8179   2.8404   2.8441   2.8666
  2.9006   2.9254   2.9548   2.9644   2.9940   3.0082   3.0494   3.0603
  3.0989   3.1125   3.1267   3.1348   3.1423   3.1651   3.1744   3.1976
  3.2124   3.2369   3.2573   3.2713   3.2771   3.2959   3.3142   3.3329
  3.3464   3.3567   3.3764   3.3867   3.4062   3.4130   3.4258   3.4374
  3.4475   3.4567   3.4891   3.4982   3.5074   3.5217   3.5522   3.5586
  3.5840   3.5945   3.6159   3.6213   3.6263   3.6379   3.6594   3.6926
  3.7016   3.7140   3.7187   3.7475   3.7573   3.7720   3.7907   3.8054
  3.8073   3.8267   3.8686   3.8838   3.9028   3.9165   3.9365   3.9492
  3.9689   3.9794   4.0219   4.0246   4.0505   4.0589   4.0849   4.1045
  4.1209   4.1414   4.1648   4.1784   4.1859   4.2205   4.2313   4.2506
  4.2786   4.2884   4.3111   4.3386   4.3474   4.3641   4.3823   4.4013
  4.4040   4.4249   4.4317   4.4537   4.4789   4.5015   4.5167   4.5705
  4.5900   4.6197   4.6517   4.6859   4.7037   4.7385   4.7541   4.7821
  4.8002   4.8053   4.8347   4.8980   4.9274   4.9770   5.0792   5.0878
  5.1069   5.1411   5.1710   5.1908   5.2456   5.2817   5.2876   5.3088
  5.3627   5.4024   5.4153   5.4399   5.4531   5.4949   5.5462   5.5607
  5.5891   5.6167   5.6241   5.6922   5.7349   5.8238   5.8298   5.8457
  5.8961   6.0190   6.0269   6.1200   6.2272   6.2462   6.2933   6.3594
  6.3956   6.4787   9.1083  11.4406  12.8949  13.8980  14.1804  14.3058
 --------------------------------------------------------------
 
          Ground-State Mulliken Net Atomic Charges

     Atom                 Charge (a.u.)
  ----------------------------------------
      1 C                     0.019643
      2 C                    -0.250470
      3 C                     0.036408
      4 H                     0.178710
      5 C                    -0.251577
      6 S                    -0.000579
      7 C                    -0.272196
      8 H                     0.102028
      9 H                     0.106818
     10 H                     0.106601
     11 C                    -0.362410
     12 H                     0.111198
     13 H                     0.128570
     14 H                     0.151741
     15 H                     0.195515
  ----------------------------------------
  Sum of atomic charges =     0.000000

 -----------------------------------------------------------------
                    Cartesian Multipole Moments
 -----------------------------------------------------------------
    Charge (ESU x 10^10)
                -0.0000
    Dipole Moment (Debye)
         X       0.3471      Y       0.0486      Z       0.9367
       Tot       1.0002
    Quadrupole Moments (Debye-Ang)
        XX     -52.7379     XY       3.4608     YY     -43.2145
        XZ      -0.0285     YZ       1.3450     ZZ     -48.7752
    Octopole Moments (Debye-Ang^2)
       XXX     -36.3314    XXY     -28.1318    XYY      -7.3689
       YYY     -74.2063    XXZ      -2.6434    XYZ      -0.4650
       YYZ      -7.3452    XZZ     -10.2081    YZZ     -21.7264
       ZZZ       0.6125
    Hexadecapole Moments (Debye-Ang^3)
      XXXX    -144.6172   XXXY    -101.5950   XXYY    -149.1304
      XYYY     -82.5342   YYYY    -747.8541   XXXZ     -32.5608
      XXYZ     -32.0735   XYYZ     -16.7866   YYYZ     -98.7910
      XXZZ    -111.4754   XYZZ     -28.4447   YYZZ    -207.9769
      XZZZ     -35.0845   YZZZ    -100.8778   ZZZZ    -489.4213
 -----------------------------------------------------------------
 Total job time:  18.92s(wall), 744.77s(cpu) 
 Fri Dec 15 14:03:28 2023

        *************************************************************
        *                                                           *
        *  Thank you very much for using Q-Chem.  Have a nice day.  *
        *                                                           *
        *************************************************************


0 sent ACK to 0 
now end server 0 ... 
cleanup process ... done
remove work dirs ./qchem23399.0 -- ./qchem23399.0
rm -rf ./qchem23399.0
rm -rf ./qchem23399
