You are running Q-Chem version: 5.4.0

#
# job setting
#
local host:  exp-7-20
current dir: /home/rramji/project-csd799/aromodel/p3ht-qchem/methylated-rotation-run
input file:  Methylthiophene_Phi_10_Theta_90_Methylthiophene_Hydrogenated_Improper.qcin
output file: 
nprocs     : 1
nthreads   : 64
#
# qchem installation setting
#
QC:          /cm/shared/apps/spack/cpu/opt/spack/linux-centos8-zen2/gcc-10.2.0/qchem-5.4-akfmr7b3t57bfs6qan3padb2wnb2i7cl
QCAUX:       /cm/shared/apps/spack/cpu/opt/spack/linux-centos8-zen2/gcc-10.2.0/qchem-5.4-akfmr7b3t57bfs6qan3padb2wnb2i7cl/qcaux
QCPROG:      /cm/shared/apps/spack/cpu/opt/spack/linux-centos8-zen2/gcc-10.2.0/qchem-5.4-akfmr7b3t57bfs6qan3padb2wnb2i7cl/exe/qcprog.exe
QCPROG_S:    /cm/shared/apps/spack/cpu/opt/spack/linux-centos8-zen2/gcc-10.2.0/qchem-5.4-akfmr7b3t57bfs6qan3padb2wnb2i7cl/exe/qcprog.exe_s
PARALLEL:    -DPARALLEL
QCMPI:       mpich
#
# qchem directory setting
#
qcrun:       qchem3255985
QCSCRATCH:   .
QCLOCALSCR:  
QCTMPDIR:    .
QCFILEPREF:  ./qchem3255985
QCSAVEDIR:   
workdirs:    ./qchem3255985
workdir0:    ./qchem3255985
partmpdirs =  
#
# parallel setting
#
QCRSH:           ssh
QCMPI:           mpich
QCMPIRUN:        /cm/shared/apps/spack/cpu/opt/spack/linux-centos8-zen2/gcc-10.2.0/qchem-5.4-akfmr7b3t57bfs6qan3padb2wnb2i7cl/bin/mpi/mpirun_qchem
QCMACHINEFILE:   ./qchem3255985/hostfile
exp-7-20

#
# env setting
#
exported envs:   QC QCAUX QCSCRATCH QCRUNNAME QCFILEPREF QCPROG QCPROG_S GUIFILE

Running Job 1 of 1 Methylthiophene_Phi_10_Theta_90_Methylthiophene_Hydrogenated_Improper.qcin
qchem Methylthiophene_Phi_10_Theta_90_Methylthiophene_Hydrogenated_Improper.qcin_3255985.0 ./qchem3255985/ 1
/cm/shared/apps/spack/cpu/opt/spack/linux-centos8-zen2/gcc-10.2.0/qchem-5.4-akfmr7b3t57bfs6qan3padb2wnb2i7cl/bin/mpi/mpirun_qchem -machinefile ./qchem3255985/hostfile -np 1 /cm/shared/apps/spack/cpu/opt/spack/linux-centos8-zen2/gcc-10.2.0/qchem-5.4-akfmr7b3t57bfs6qan3padb2wnb2i7cl/exe/qcprog.exe Methylthiophene_Phi_10_Theta_90_Methylthiophene_Hydrogenated_Improper.qcin_3255985.0 ./qchem3255985/

Process 0 of 1 is on exp-7-20 - thread support 0
initial socket setup ...start
initial socket setup ...done 
now start server 0 ... 
                  Welcome to Q-Chem
     A Quantum Leap Into The Future Of Chemistry


 Q-Chem 5.4, Q-Chem, Inc., Pleasanton, CA (2021)

 License issued to: University of California, San Diego (site)

 E. Epifanovsky,  A. T. B. Gilbert,  Xintian Feng,  Joonho Lee,  Yuezhi Mao,  
 N. Mardirossian,  P. Pokhilko,  A. White,  M. Wormit,  M. P. Coons,  
 A. L. Dempwolff,  Zhengting Gan,  D. Hait,  P. R. Horn,  L. D. Jacobson,  
 I. Kaliman,  J. Kussmann,  A. W. Lange,  Ka Un Lao,  D. S. Levine,  Jie Liu,  
 S. C. McKenzie,  A. F. Morrison,  K. Nanda,  F. Plasser,  D. R. Rehn,  
 M. L. Vidal,  Zhi-Qiang You,  Ying Zhu,  B. Alam,  B. Albrecht,  
 A. Aldossary,  E. Alguire,  J. H. Andersen,  D. Barton,  K. Begam,  A. Behn,  
 Y. A. Bernard,  E. J. Berquist,  H. Burton,  A. Carreras,  K. Carter-Fenk,  
 R. Chakraborty,  A. D. Chien,  K. D. Closser,  V. Cofer-Shabica,  
 S. Dasgupta,  Jia Deng,  M. de Wergifosse,  M. Diedenhofen,  Hainam Do,  
 S. Ehlert,  Po-Tung Fang,  S. Fatehi,  Qingguo Feng,  J. Gayvert,  
 Qinghui Ge,  G. Gidofalvi,  M. Goldey,  J. Gomes,  C. Gonzalez-Espinoza,  
 S. Gulania,  A. Gunina,  M. W. D. Hanson-Heine,  P. H. P. Harbach,  
 A. W. Hauser,  M. F. Herbst,  M. Hernandez Vera,  M. Hodecker,  
 Z. C. Holden,  S. Houck,  Xunkun Huang,  Kerwin Hui,  B. C. Huynh,  
 M. Ivanov,  Hyunjun Ji,  Hanjie Jiang,  B. Kaduk,  S. Kaehler,  
 K. Khistyaev,  Jaehoon Kim,  P. Klunzinger,  Z. Koczor-Benda,  
 Joong Hoon Koh,  D. Kosenkov,  L. Koulias,  T. Kowalczyk,  C. M. Krauter,  
 K. Kue,  A. Kunitsa,  T. Kus,  A. Landau,  K. V. Lawler,  D. Lefrancois,  
 S. Lehtola,  Rain Li,  Yi-Pei Li,  Jiashu Liang,  M. Liebenthal,  
 Hung-Hsuan Lin,  You-Sheng Lin,  Fenglai Liu,  Kuan-Yu Liu,  
 M. Loipersberger,  A. Luenser,  A. Manjanath,  P. Manohar,  E. Mansoor,  
 S. F. Manzer,  Shan-Ping Mao,  A. V. Marenich,  T. Markovich,  S. Mason,  
 S. A. Maurer,  P. F. McLaughlin,  M. F. S. J. Menger,  J.-M. Mewes,  
 S. A. Mewes,  P. Morgante,  J. W. Mullinax,  T. S. Nguyen-Beck,  
 K. J. Oosterbaan,  G. Paran,  Alexander C. Paul,  Suranjan K. Paul,  
 F. Pavosevic,  Zheng Pei,  S. Prager,  E. I. Proynov,  E. Ramos,  B. Rana,  
 A. E. Rask,  A. Rettig,  R. M. Richard,  F. Rob,  E. Rossomme,  T. Scheele,  
 M. Scheurer,  M. Schneider,  N. Sergueev,  S. M. Sharada,  W. Skomorowski,  
 D. W. Small,  C. J. Stein,  Yu-Chuan Su,  E. J. Sundstrom,  Zhen Tao,  
 J. Thirman,  T. Tsuchimochi,  N. M. Tubman,  S. P. Veccham,  O. Vydrov,  
 J. Wenzel,  J. Witte,  A. Yamada,  Kun Yao,  S. Yeganeh,  S. R. Yost,  
 A. Zech,  Igor Ying Zhang,  Xing Zhang,  Yu Zhang,  D. Zuev,  
 A. Aspuru-Guzik,  A. T. Bell,  N. A. Besley,  K. B. Bravaya,  B. R. Brooks,  
 D. Casanova,  Jeng-Da Chai,  S. Coriani,  C. J. Cramer,  
 A. E. DePrince, III,  R. A. DiStasio Jr.,  A. Dreuw,  B. D. Dunietz,  
 T. R. Furlani,  W. A. Goddard III,  S. Grimme,  S. Hammes-Schiffer,  
 T. Head-Gordon,  W. J. Hehre,  Chao-Ping Hsu,  T.-C. Jagau,  Yousung Jung,  
 A. Klamt,  Jing Kong,  D. S. Lambrecht,  WanZhen Liang,  N. J. Mayhall,  
 C. W. McCurdy,  J. B. Neaton,  C. Ochsenfeld,  J. A. Parkhill,  R. Peverati,  
 V. A. Rassolov,  Yihan Shao,  L. V. Slipchenko,  T. Stauch,  R. P. Steele,  
 J. E. Subotnik,  A. J. W. Thom,  A. Tkatchenko,  D. G. Truhlar,  
 T. Van Voorhis,  T. A. Wesolowski,  K. B. Whaley,  H. L. Woodcock III,  
 P. M. Zimmerman,  S. Faraji,  P. M. W. Gill,  M. Head-Gordon,  
 J. M. Herbert,  A. I. Krylov

 Contributors to earlier versions of Q-Chem not listed above: 
 R. D. Adamson,  B. Austin,  R. Baer,  J. Baker,  G. J. O. Beran,  
 K. Brandhorst,  S. T. Brown,  E. F. C. Byrd,  A. K. Chakraborty,  
 G. K. L. Chan,  Chun-Min Chang,  Yunqing Chen,  C.-L. Cheng,  
 Siu Hung Chien,  D. M. Chipman,  D. L. Crittenden,  H. Dachsel,  
 R. J. Doerksen,  A. D. Dutoi,  R. G. Edgar,  J. Fosso-Tande,  
 L. Fusti-Molnar,  D. Ghosh,  A. Ghysels,  A. Golubeva-Zadorozhnaya,  
 J. Gonthier,  M. S. Gordon,  S. R. Gwaltney,  G. Hawkins,  J. E. Herr,  
 A. Heyden,  S. Hirata,  E. G. Hohenstein,  G. Kedziora,  F. J. Keil,  
 C. Kelley,  Jihan Kim,  R. A. King,  R. Z. Khaliullin,  P. P. Korambath,  
 W. Kurlancheek,  A. Laurent,  A. M. Lee,  M. S. Lee,  S. V. Levchenko,  
 Ching Yeh Lin,  D. Liotard,  E. Livshits,  R. C. Lochan,  I. Lotan,  
 L. A. Martinez-Martinez,  P. E. Maslen,  N. Nair,  D. P. O'Neill,  
 D. Neuhauser,  E. Neuscamman,  C. M. Oana,  R. Olivares-Amaya,  R. Olson,  
 T. M. Perrine,  B. Peters,  P. A. Pieniazek,  A. Prociuk,  Y. M. Rhee,  
 J. Ritchie,  M. A. Rohrdanz,  E. Rosta,  N. J. Russ,  H. F. Schaefer III,  
 M. W. Schmidt,  N. E. Schultz,  S. Sharma,  N. Shenvi,  C. D. Sherrill,  
 A. C. Simmonett,  A. Sodt,  T. Stein,  D. Stuck,  K. S. Thanthiriwatte,  
 V. Vanovschi,  L. Vogt,  Tao Wang,  A. Warshel,  M. A. Watson,  
 C. F. Williams,  Q. Wu,  X. Xu,  Jun Yang,  W. Zhang,  Yan Zhao

 Please cite Q-Chem as follows:
 Y. Shao et al., Mol. Phys. 113, 184-215 (2015)
 DOI: 10.1080/00268976.2014.952696

 Q-Chem 5.4.0 for Intel X86 EM64T Linux

 Parts of Q-Chem use Armadillo 9.800.1 (Horizon Scraper).
 http://arma.sourceforge.net/

 Q-Chem begins on Fri Dec 15 13:57:40 2023  

 Host: 
0

     Scratch files written to ./qchem3255985//
 May1621 |scratch|qcdevops|jenkins|workspace|build_RNUM    
 Parallel job on  1  processors
 Processing $rem in /cm/shared/apps/spack/cpu/opt/spack/linux-centos8-zen2/gcc-10.2.0/qchem-5.4-akfmr7b3t57bfs6qan3padb2wnb2i7cl/config/preferences:
 Processing $rem in /home/rramji/.qchemrc:
 Symmetry turned off for PCM/SM12/SMD calculation
 Core orbitals will be frozen

 Checking the input file for inconsistencies... 	...done.

 Q-Chem warning in module forms1/BasisType.C, line 2236:

 You are not using the predefined 5D/6D in this basis set.


--------------------------------------------------------------
User input:
--------------------------------------------------------------
$molecule
0 1
C	-0.115082	-0.566489	-0.003619
C	0.028518	0.265811	1.109381
C	0.265418	1.636511	0.816981
H	-0.037482	-0.116589	2.139281
C	0.307918	1.881011	-0.567219
S	0.049818	0.390011	-1.468319
C	0.446818	2.685511	1.878781
H	0.370418	2.244111	2.891381
H	-0.320782	3.484011	1.804481
H	1.437918	3.179911	1.804581
C	-0.115082	-2.016589	-0.003619
H	-0.115082	-2.017089	1.076381
H	-1.053182	-2.551689	-0.003819
H	0.718118	-2.703789	-0.003919
H	0.471018	2.825011	-1.100719
$end

$rem
JOBTYPE		SP
EXCHANGE	HF
CORRELATION	pRIMP2
BASIS		cc-pvtz
METHOD		rimp2
AUX_BASIS	rimp2-cc-pvtz
SOLVENT_METHOD	PCM
PURECART	11111
SYMMETRY	false
MEM_TOTAL	110000
SCF_CONVERGENCE = 6
THRESH=10
GUI = 2
$end



$solvent
dielectric 4.90
$end
--------------------------------------------------------------
 ----------------------------------------------------------------
             Standard Nuclear Orientation (Angstroms)
    I     Atom           X                Y                Z
 ----------------------------------------------------------------
    1      C      -0.1150820000    -0.5664890000    -0.0036190000
    2      C       0.0285180000     0.2658110000     1.1093810000
    3      C       0.2654180000     1.6365110000     0.8169810000
    4      H      -0.0374820000    -0.1165890000     2.1392810000
    5      C       0.3079180000     1.8810110000    -0.5672190000
    6      S       0.0498180000     0.3900110000    -1.4683190000
    7      C       0.4468180000     2.6855110000     1.8787810000
    8      H       0.3704180000     2.2441110000     2.8913810000
    9      H      -0.3207820000     3.4840110000     1.8044810000
   10      H       1.4379180000     3.1799110000     1.8045810000
   11      C      -0.1150820000    -2.0165890000    -0.0036190000
   12      H      -0.1150820000    -2.0170890000     1.0763810000
   13      H      -1.0531820000    -2.5516890000    -0.0038190000
   14      H       0.7181180000    -2.7037890000    -0.0039190000
   15      H       0.4710180000     2.8250110000    -1.1007190000
 ----------------------------------------------------------------
 Nuclear Repulsion Energy =         344.15136164 hartrees
 There are       30 alpha and       30 beta electrons
 Requested basis set is cc-pVTZ
 There are 120 shells and 326 basis functions

 Total QAlloc Memory Limit 110000 MB
 Mega-Array Size       188 MB
 MEM_STATIC part       192 MB
 Discretize the solute cavity surface with Lebedev spheres
	Using 110 Lebedev grid points for each H atom
	Using 194 Lebedev grid points for other atoms
	Atomic van der Waals radii will be scaled by 1.20
 Remove points where switching function is < 1.0e-08
 Keep 1057 surface tesserae and discard 1181 interior tesserae
 Molecular Surface Area = 158.590 Angst**2

                       Distance Matrix (Angstroms)
             C (  1)   C (  2)   C (  3)   H (  4)   C (  5)   S (  6)
   C (  2)  1.397180
   C (  3)  2.381465  1.421421
   H (  4)  2.190993  1.100582  2.216661
   C (  5)  2.546926  2.344765  1.406270  3.381545
   S (  6)  1.757109  2.580778  2.612057  3.644042  1.761158
   C (  7)  3.799298  2.573305  1.503571  2.855551  2.578649  4.077991
   H (  8)  4.064014  2.684416  2.164102  2.510964  3.478169  4.748416
   H (  9)  4.440505  3.310889  2.175326  3.627212  2.930842  4.519004
   H ( 10)  4.440373  3.310844  2.175361  3.627084  2.930781  4.519097
   C ( 11)  1.450100  2.543372  3.763417  2.864968  3.960790  2.822102
   H ( 12)  1.808491  2.287650  3.682508  2.178917  4.251533  3.506682
   H ( 13)  2.195689  3.216768  4.466927  3.399152  4.671064  3.466261
   H ( 14)  2.293965  3.245537  4.440385  3.443522  4.637452  3.487505
   H ( 15)  3.612397  3.410257  2.265475  4.405585  1.096522  2.498352
             C (  7)   H (  8)   H (  9)   H ( 10)   C ( 11)   H ( 12)
   H (  8)  1.107262
   H (  9)  1.110105  1.787865
   H ( 10)  1.110052  1.787851  1.784798
   C ( 11)  5.095970  5.174002  5.793802  5.717080
   H ( 12)  4.803543  4.657012  5.552886  5.472741  1.080000
   H ( 13)  5.763892  5.780010  6.343188  6.505930  1.079983  1.527305
   H ( 14)  5.715131  5.743289  6.529816  6.197315  1.080031  1.527360
   H ( 15)  2.982862  4.035397  3.082437  3.082469  4.998823  5.341274
             H ( 13)   H ( 14)
   H ( 14)  1.777818
   H ( 15)  5.695198  5.641955
 
 Requested basis set is rimp2-cc-pVTZ
 There are 250 shells and 848 basis functions
 A cutoff of  1.0D-10 yielded   6205 shell pairs
 There are     45441 function pairs (     58436 Cartesian)
 Smallest overlap matrix eigenvalue = 1.07E-04

 Scale SEOQF with 1.000000e+00/1.000000e-01/1.000000e-01

 Standard Electronic Orientation quadrupole field applied
 Nucleus-field energy     =     0.0000000043 hartrees
 Guess from superposition of atomic densities
 Warning:  Energy on first SCF cycle will be non-variational
 SAD guess density has 60.000000 electrons

 -----------------------------------------------------------------------
  General SCF calculation program by
  Eric Jon Sundstrom, Paul Horn, Yuezhi Mao, Dmitri Zuev, Alec White,
  David Stuck, Shaama M.S., Shane Yost, Joonho Lee, David Small,
  Daniel Levine, Susi Lehtola, Hugh Burton, Evgeny Epifanovsky,
  Bang C. Huynh
 -----------------------------------------------------------------------
 Hartree-Fock
 using 64 threads for integral computing
 -------------------------------------------------------
 OpenMP Integral computing Module                
 Release: version 1.0, May 2013, Q-Chem Inc. Pittsburgh 
 -------------------------------------------------------
 A restricted SCF calculation will be
 performed using DIIS
 SCF converges when DIIS error is below 1.0e-06
 ---------------------------------------
  Cycle       Energy         DIIS error
 ---------------------------------------
    1    -632.0944411196      2.91e-02  
    2    -629.3457044543      1.91e-03  
    3    -629.4151838150      6.34e-04  
    4    -629.4221379825      3.23e-04  
    5    -629.4239524186      6.16e-05  
    6    -629.4240791695      2.44e-05  
    7    -629.4241103656      1.14e-05  
    8    -629.4241194830      4.74e-06  
    9    -629.4241209068      1.70e-06  
   10    -629.4241210614      4.84e-07  Convergence criterion met
 ---------------------------------------
 SCF time:   CPU 697.27s  wall 15.00s 

************** Final PCM Free Energy Summary **************
 G_electrostatic  =      -0.00546382 hartree =      -3.42859899 kcal/mol
 G_cavitation     =       0.00000000 hartree =       0.00000000 kcal/mol
 G_dispersion     =       0.00000000 hartree =       0.00000000 kcal/mol
 G_repulsion      =       0.00000000 hartree =       0.00000000 kcal/mol
 --------------------------------------------------
 Non-electrostatic Free Energy =       0.00000000 hartree =       0.00000000 kcal/mol
 Total                         =      -0.00546382 hartree =      -3.42859899 kcal/mol
 --------------------------------------------------
 SCF Energy (H0 + V/2)                       =    -629.42412106 
 Solute Internal Energy (H0)                 =    -629.41865724 
 Total Free Energy (H0 + V/2 + non-elec)     =    -629.42412106 hartree
                                             = -394969.59724189 kcal/mol
***********************************************************

 SCF   energy in the final basis set =     -629.4241210614
 Total energy in the final basis set =     -629.4241210614


 --------------------------------------------------------------
  Generalized many-body perturbation theory program
  by Joonho Lee, Fazle Rob, Xintian Feng, Evgeny Epifanovsky

 No regularization used 
 (reg. param. = 0.0000e+00)
  (P|Q)^-1/2 Time:  CPU 7.02 s  wall 0.12 s

 In RI-MP2 calculation: 
 # of frozen core orbitals: 11

 Components of the RIMP2 correlation energy:
        aaaa    correlation energy =        -0.1456278640 a.u.
        abab    correlation energy =        -0.8867766560 a.u.
        bbbb    correlation energy =        -0.1456278640 a.u.
        non-Brillouin singles      =        -0.0000000000 a.u.
        total same-spin energy     =        -0.2912557280 a.u.
        total opposite-spin energy =        -0.8867766560 a.u.

 Total  RIMP2   correlation energy =        -1.1780323840 a.u.
        RIMP2         total energy =      -630.6021534454 a.u.

 RI-MP2 Energy Time:  CPU 35.82 s  wall 0.61 s
 
 --------------------------------------------------------------
 
                    Orbital Energies (a.u.)
 --------------------------------------------------------------
 
 Alpha MOs
 -- Occupied --
-91.9753 -11.2768 -11.2587 -11.2472 -11.2345 -11.2277 -11.2168  -8.9754
 -6.6563  -6.6558  -6.6553  -1.1611  -1.0524  -0.9997  -0.9388  -0.8855
 -0.7425  -0.7241  -0.6477  -0.5905  -0.5782  -0.5671  -0.5586  -0.5410
 -0.5107  -0.4844  -0.4678  -0.4381  -0.3377  -0.3054
 -- Virtual --
  0.1029   0.1445   0.1509   0.1773   0.1872   0.1924   0.1982   0.2303
  0.2318   0.2442   0.2481   0.2704   0.3089   0.3128   0.3444   0.3592
  0.3746   0.3957   0.4115   0.4119   0.4414   0.4643   0.4705   0.4850
  0.4907   0.5019   0.5213   0.5238   0.5388   0.5433   0.5747   0.5897
  0.6030   0.6035   0.6203   0.6320   0.6404   0.6437   0.6469   0.6485
  0.6656   0.6715   0.6836   0.6888   0.7371   0.7504   0.7641   0.7684
  0.8035   0.8120   0.8430   0.8673   0.8686   0.8818   0.9036   0.9359
  0.9514   0.9690   1.0006   1.0149   1.0368   1.0481   1.0634   1.0770
  1.0796   1.0904   1.1102   1.1358   1.1627   1.1695   1.1902   1.2051
  1.2133   1.2298   1.2527   1.2611   1.2699   1.2829   1.3086   1.3336
  1.3446   1.3517   1.3905   1.4149   1.4341   1.4517   1.4626   1.4840
  1.4909   1.5058   1.5298   1.5345   1.5531   1.5628   1.5749   1.5818
  1.5991   1.6327   1.6488   1.6667   1.6848   1.7035   1.7175   1.7556
  1.7782   1.7874   1.8024   1.8176   1.8979   1.9101   1.9190   1.9613
  1.9936   2.0423   2.1010   2.1348   2.1821   2.1896   2.2150   2.2226
  2.2572   2.2980   2.3523   2.4169   2.4600   2.5083   2.5240   2.5683
  2.5772   2.6040   2.6344   2.6462   2.6575   2.6911   2.7138   2.7297
  2.7374   2.7549   2.7706   2.8020   2.8322   2.8402   2.8553   2.8790
  2.9067   2.9182   2.9294   2.9601   2.9978   3.0053   3.0396   3.0684
  3.0864   3.1127   3.1160   3.1379   3.1538   3.1563   3.1960   3.2096
  3.2138   3.2416   3.2622   3.2664   3.2839   3.3221   3.3223   3.3308
  3.3421   3.3548   3.3723   3.3775   3.3887   3.4112   3.4279   3.4322
  3.4430   3.4666   3.4774   3.4859   3.4937   3.5183   3.5363   3.5553
  3.5862   3.6021   3.6062   3.6127   3.6294   3.6648   3.6685   3.6782
  3.7074   3.7138   3.7203   3.7360   3.7603   3.7773   3.7870   3.7914
  3.8079   3.8441   3.8754   3.8900   3.8937   3.9055   3.9429   3.9437
  3.9683   3.9776   3.9904   4.0306   4.0416   4.0624   4.0854   4.1005
  4.1251   4.1455   4.1489   4.1610   4.1959   4.2090   4.2238   4.2262
  4.2686   4.2798   4.3044   4.3378   4.3448   4.3789   4.3990   4.4071
  4.4226   4.4311   4.4424   4.4597   4.4851   4.5214   4.5575   4.5761
  4.6071   4.6325   4.6535   4.6854   4.7178   4.7534   4.7763   4.8012
  4.8103   4.8141   4.8665   4.8976   4.9130   4.9271   5.0853   5.0930
  5.1017   5.1299   5.1918   5.2182   5.2517   5.2640   5.2990   5.3043
  5.3601   5.3964   5.4105   5.4480   5.4725   5.4919   5.5483   5.5750
  5.5964   5.6230   5.6346   5.6965   5.7155   5.8288   5.8457   5.8509
  5.9040   5.9790   6.0412   6.1435   6.2265   6.2484   6.2911   6.3459
  6.4346   6.4754   9.1946  11.4122  12.9332  13.8691  14.1907  14.3984
 --------------------------------------------------------------
 
          Ground-State Mulliken Net Atomic Charges

     Atom                 Charge (a.u.)
  ----------------------------------------
      1 C                     0.053048
      2 C                    -0.266616
      3 C                     0.032046
      4 H                     0.176335
      5 C                    -0.249236
      6 S                    -0.007091
      7 C                    -0.273131
      8 H                     0.101241
      9 H                     0.107142
     10 H                     0.107345
     11 C                    -0.364935
     12 H                     0.119342
     13 H                     0.129044
     14 H                     0.141556
     15 H                     0.193911
  ----------------------------------------
  Sum of atomic charges =     0.000000

 -----------------------------------------------------------------
                    Cartesian Multipole Moments
 -----------------------------------------------------------------
    Charge (ESU x 10^10)
                -0.0000
    Dipole Moment (Debye)
         X       0.2490      Y      -0.0318      Z       2.1702
       Tot       2.1847
    Quadrupole Moments (Debye-Ang)
        XX     -53.4476     XY       1.3931     YY     -42.4164
        XZ      -0.0197     YZ      -1.0283     ZZ     -48.9815
    Octopole Moments (Debye-Ang^2)
       XXX     -18.7874    XXY     -31.6033    XYY      -1.8551
       YYY     -76.9431    XXZ      -2.9368    XYZ      -0.3818
       YYZ      -2.5631    XZZ      -5.1412    YZZ     -23.2697
       ZZZ      -1.0162
    Hexadecapole Moments (Debye-Ang^3)
      XXXX     -94.9967   XXXY     -53.4608   XXYY    -154.1736
      XYYY     -47.6093   YYYY    -793.3940   XXXZ     -15.4825
      XXYZ     -29.8869   XYYZ      -7.6561   YYYZ    -108.3652
      XXZZ    -105.2497   XYZZ     -14.7769   YYZZ    -216.0050
      XZZZ     -17.2895   YZZZ     -97.1287   ZZZZ    -490.0951
 -----------------------------------------------------------------
 Total job time:  21.54s(wall), 776.77s(cpu) 
 Fri Dec 15 13:58:02 2023

        *************************************************************
        *                                                           *
        *  Thank you very much for using Q-Chem.  Have a nice day.  *
        *                                                           *
        *************************************************************


0 sent ACK to 0 
now end server 0 ... 
cleanup process ... done
remove work dirs ./qchem3255985.0 -- ./qchem3255985.0
rm -rf ./qchem3255985.0
rm -rf ./qchem3255985
