You are running Q-Chem version: 5.4.0

#
# job setting
#
local host:  exp-7-20
current dir: /home/rramji/project-csd799/aromodel/p3ht-qchem/methylated-rotation-run
input file:  Methylthiophene_Phi_0_Theta_20_Methylthiophene_Hydrogenated_Improper.qcin
output file: 
nprocs     : 1
nthreads   : 64
#
# qchem installation setting
#
QC:          /cm/shared/apps/spack/cpu/opt/spack/linux-centos8-zen2/gcc-10.2.0/qchem-5.4-akfmr7b3t57bfs6qan3padb2wnb2i7cl
QCAUX:       /cm/shared/apps/spack/cpu/opt/spack/linux-centos8-zen2/gcc-10.2.0/qchem-5.4-akfmr7b3t57bfs6qan3padb2wnb2i7cl/qcaux
QCPROG:      /cm/shared/apps/spack/cpu/opt/spack/linux-centos8-zen2/gcc-10.2.0/qchem-5.4-akfmr7b3t57bfs6qan3padb2wnb2i7cl/exe/qcprog.exe
QCPROG_S:    /cm/shared/apps/spack/cpu/opt/spack/linux-centos8-zen2/gcc-10.2.0/qchem-5.4-akfmr7b3t57bfs6qan3padb2wnb2i7cl/exe/qcprog.exe_s
PARALLEL:    -DPARALLEL
QCMPI:       mpich
#
# qchem directory setting
#
qcrun:       qchem3253501
QCSCRATCH:   .
QCLOCALSCR:  
QCTMPDIR:    .
QCFILEPREF:  ./qchem3253501
QCSAVEDIR:   
workdirs:    ./qchem3253501
workdir0:    ./qchem3253501
partmpdirs =  
#
# parallel setting
#
QCRSH:           ssh
QCMPI:           mpich
QCMPIRUN:        /cm/shared/apps/spack/cpu/opt/spack/linux-centos8-zen2/gcc-10.2.0/qchem-5.4-akfmr7b3t57bfs6qan3padb2wnb2i7cl/bin/mpi/mpirun_qchem
QCMACHINEFILE:   ./qchem3253501/hostfile
exp-7-20

#
# env setting
#
exported envs:   QC QCAUX QCSCRATCH QCRUNNAME QCFILEPREF QCPROG QCPROG_S GUIFILE

Running Job 1 of 1 Methylthiophene_Phi_0_Theta_20_Methylthiophene_Hydrogenated_Improper.qcin
qchem Methylthiophene_Phi_0_Theta_20_Methylthiophene_Hydrogenated_Improper.qcin_3253501.0 ./qchem3253501/ 1
/cm/shared/apps/spack/cpu/opt/spack/linux-centos8-zen2/gcc-10.2.0/qchem-5.4-akfmr7b3t57bfs6qan3padb2wnb2i7cl/bin/mpi/mpirun_qchem -machinefile ./qchem3253501/hostfile -np 1 /cm/shared/apps/spack/cpu/opt/spack/linux-centos8-zen2/gcc-10.2.0/qchem-5.4-akfmr7b3t57bfs6qan3padb2wnb2i7cl/exe/qcprog.exe Methylthiophene_Phi_0_Theta_20_Methylthiophene_Hydrogenated_Improper.qcin_3253501.0 ./qchem3253501/

Process 0 of 1 is on exp-7-20 - thread support 0
initial socket setup ...start
initial socket setup ...done 
now start server 0 ... 
                  Welcome to Q-Chem
     A Quantum Leap Into The Future Of Chemistry


 Q-Chem 5.4, Q-Chem, Inc., Pleasanton, CA (2021)

 License issued to: University of California, San Diego (site)

 E. Epifanovsky,  A. T. B. Gilbert,  Xintian Feng,  Joonho Lee,  Yuezhi Mao,  
 N. Mardirossian,  P. Pokhilko,  A. White,  M. Wormit,  M. P. Coons,  
 A. L. Dempwolff,  Zhengting Gan,  D. Hait,  P. R. Horn,  L. D. Jacobson,  
 I. Kaliman,  J. Kussmann,  A. W. Lange,  Ka Un Lao,  D. S. Levine,  Jie Liu,  
 S. C. McKenzie,  A. F. Morrison,  K. Nanda,  F. Plasser,  D. R. Rehn,  
 M. L. Vidal,  Zhi-Qiang You,  Ying Zhu,  B. Alam,  B. Albrecht,  
 A. Aldossary,  E. Alguire,  J. H. Andersen,  D. Barton,  K. Begam,  A. Behn,  
 Y. A. Bernard,  E. J. Berquist,  H. Burton,  A. Carreras,  K. Carter-Fenk,  
 R. Chakraborty,  A. D. Chien,  K. D. Closser,  V. Cofer-Shabica,  
 S. Dasgupta,  Jia Deng,  M. de Wergifosse,  M. Diedenhofen,  Hainam Do,  
 S. Ehlert,  Po-Tung Fang,  S. Fatehi,  Qingguo Feng,  J. Gayvert,  
 Qinghui Ge,  G. Gidofalvi,  M. Goldey,  J. Gomes,  C. Gonzalez-Espinoza,  
 S. Gulania,  A. Gunina,  M. W. D. Hanson-Heine,  P. H. P. Harbach,  
 A. W. Hauser,  M. F. Herbst,  M. Hernandez Vera,  M. Hodecker,  
 Z. C. Holden,  S. Houck,  Xunkun Huang,  Kerwin Hui,  B. C. Huynh,  
 M. Ivanov,  Hyunjun Ji,  Hanjie Jiang,  B. Kaduk,  S. Kaehler,  
 K. Khistyaev,  Jaehoon Kim,  P. Klunzinger,  Z. Koczor-Benda,  
 Joong Hoon Koh,  D. Kosenkov,  L. Koulias,  T. Kowalczyk,  C. M. Krauter,  
 K. Kue,  A. Kunitsa,  T. Kus,  A. Landau,  K. V. Lawler,  D. Lefrancois,  
 S. Lehtola,  Rain Li,  Yi-Pei Li,  Jiashu Liang,  M. Liebenthal,  
 Hung-Hsuan Lin,  You-Sheng Lin,  Fenglai Liu,  Kuan-Yu Liu,  
 M. Loipersberger,  A. Luenser,  A. Manjanath,  P. Manohar,  E. Mansoor,  
 S. F. Manzer,  Shan-Ping Mao,  A. V. Marenich,  T. Markovich,  S. Mason,  
 S. A. Maurer,  P. F. McLaughlin,  M. F. S. J. Menger,  J.-M. Mewes,  
 S. A. Mewes,  P. Morgante,  J. W. Mullinax,  T. S. Nguyen-Beck,  
 K. J. Oosterbaan,  G. Paran,  Alexander C. Paul,  Suranjan K. Paul,  
 F. Pavosevic,  Zheng Pei,  S. Prager,  E. I. Proynov,  E. Ramos,  B. Rana,  
 A. E. Rask,  A. Rettig,  R. M. Richard,  F. Rob,  E. Rossomme,  T. Scheele,  
 M. Scheurer,  M. Schneider,  N. Sergueev,  S. M. Sharada,  W. Skomorowski,  
 D. W. Small,  C. J. Stein,  Yu-Chuan Su,  E. J. Sundstrom,  Zhen Tao,  
 J. Thirman,  T. Tsuchimochi,  N. M. Tubman,  S. P. Veccham,  O. Vydrov,  
 J. Wenzel,  J. Witte,  A. Yamada,  Kun Yao,  S. Yeganeh,  S. R. Yost,  
 A. Zech,  Igor Ying Zhang,  Xing Zhang,  Yu Zhang,  D. Zuev,  
 A. Aspuru-Guzik,  A. T. Bell,  N. A. Besley,  K. B. Bravaya,  B. R. Brooks,  
 D. Casanova,  Jeng-Da Chai,  S. Coriani,  C. J. Cramer,  
 A. E. DePrince, III,  R. A. DiStasio Jr.,  A. Dreuw,  B. D. Dunietz,  
 T. R. Furlani,  W. A. Goddard III,  S. Grimme,  S. Hammes-Schiffer,  
 T. Head-Gordon,  W. J. Hehre,  Chao-Ping Hsu,  T.-C. Jagau,  Yousung Jung,  
 A. Klamt,  Jing Kong,  D. S. Lambrecht,  WanZhen Liang,  N. J. Mayhall,  
 C. W. McCurdy,  J. B. Neaton,  C. Ochsenfeld,  J. A. Parkhill,  R. Peverati,  
 V. A. Rassolov,  Yihan Shao,  L. V. Slipchenko,  T. Stauch,  R. P. Steele,  
 J. E. Subotnik,  A. J. W. Thom,  A. Tkatchenko,  D. G. Truhlar,  
 T. Van Voorhis,  T. A. Wesolowski,  K. B. Whaley,  H. L. Woodcock III,  
 P. M. Zimmerman,  S. Faraji,  P. M. W. Gill,  M. Head-Gordon,  
 J. M. Herbert,  A. I. Krylov

 Contributors to earlier versions of Q-Chem not listed above: 
 R. D. Adamson,  B. Austin,  R. Baer,  J. Baker,  G. J. O. Beran,  
 K. Brandhorst,  S. T. Brown,  E. F. C. Byrd,  A. K. Chakraborty,  
 G. K. L. Chan,  Chun-Min Chang,  Yunqing Chen,  C.-L. Cheng,  
 Siu Hung Chien,  D. M. Chipman,  D. L. Crittenden,  H. Dachsel,  
 R. J. Doerksen,  A. D. Dutoi,  R. G. Edgar,  J. Fosso-Tande,  
 L. Fusti-Molnar,  D. Ghosh,  A. Ghysels,  A. Golubeva-Zadorozhnaya,  
 J. Gonthier,  M. S. Gordon,  S. R. Gwaltney,  G. Hawkins,  J. E. Herr,  
 A. Heyden,  S. Hirata,  E. G. Hohenstein,  G. Kedziora,  F. J. Keil,  
 C. Kelley,  Jihan Kim,  R. A. King,  R. Z. Khaliullin,  P. P. Korambath,  
 W. Kurlancheek,  A. Laurent,  A. M. Lee,  M. S. Lee,  S. V. Levchenko,  
 Ching Yeh Lin,  D. Liotard,  E. Livshits,  R. C. Lochan,  I. Lotan,  
 L. A. Martinez-Martinez,  P. E. Maslen,  N. Nair,  D. P. O'Neill,  
 D. Neuhauser,  E. Neuscamman,  C. M. Oana,  R. Olivares-Amaya,  R. Olson,  
 T. M. Perrine,  B. Peters,  P. A. Pieniazek,  A. Prociuk,  Y. M. Rhee,  
 J. Ritchie,  M. A. Rohrdanz,  E. Rosta,  N. J. Russ,  H. F. Schaefer III,  
 M. W. Schmidt,  N. E. Schultz,  S. Sharma,  N. Shenvi,  C. D. Sherrill,  
 A. C. Simmonett,  A. Sodt,  T. Stein,  D. Stuck,  K. S. Thanthiriwatte,  
 V. Vanovschi,  L. Vogt,  Tao Wang,  A. Warshel,  M. A. Watson,  
 C. F. Williams,  Q. Wu,  X. Xu,  Jun Yang,  W. Zhang,  Yan Zhao

 Please cite Q-Chem as follows:
 Y. Shao et al., Mol. Phys. 113, 184-215 (2015)
 DOI: 10.1080/00268976.2014.952696

 Q-Chem 5.4.0 for Intel X86 EM64T Linux

 Parts of Q-Chem use Armadillo 9.800.1 (Horizon Scraper).
 http://arma.sourceforge.net/

 Q-Chem begins on Fri Dec 15 13:54:49 2023  

 Host: 
0

     Scratch files written to ./qchem3253501//
 May1621 |scratch|qcdevops|jenkins|workspace|build_RNUM    
 Parallel job on  1  processors
 Processing $rem in /cm/shared/apps/spack/cpu/opt/spack/linux-centos8-zen2/gcc-10.2.0/qchem-5.4-akfmr7b3t57bfs6qan3padb2wnb2i7cl/config/preferences:
 Processing $rem in /home/rramji/.qchemrc:
 Symmetry turned off for PCM/SM12/SMD calculation
 Core orbitals will be frozen

 Checking the input file for inconsistencies... 	...done.

 Q-Chem warning in module forms1/BasisType.C, line 2236:

 You are not using the predefined 5D/6D in this basis set.


--------------------------------------------------------------
User input:
--------------------------------------------------------------
$molecule
0 1
C	-0.001998	-0.576386	-0.000871
C	-0.005098	0.268214	1.112129
C	-0.009798	1.659214	0.819729
H	-0.003698	-0.119886	2.142029
C	-0.010398	1.907314	-0.564471
S	-0.005698	0.394214	-1.465571
C	-0.013398	2.723814	1.881529
H	-0.011898	2.275814	2.894129
H	-0.907898	3.376814	1.807229
H	0.876902	3.382714	1.807329
C	-0.001998	-2.026486	-0.000871
H	1.012902	-2.026986	0.368529
H	-0.323098	-2.561586	0.880629
H	0.282702	-2.713686	-0.783871
H	-0.013698	2.865414	-1.097971
$end

$rem
JOBTYPE		SP
EXCHANGE	HF
CORRELATION	pRIMP2
BASIS		cc-pvtz
METHOD		rimp2
AUX_BASIS	rimp2-cc-pvtz
SOLVENT_METHOD	PCM
PURECART	11111
SYMMETRY	false
MEM_TOTAL	110000
SCF_CONVERGENCE = 6
THRESH=10
GUI = 2
$end



$solvent
dielectric 4.90
$end
--------------------------------------------------------------
 ----------------------------------------------------------------
             Standard Nuclear Orientation (Angstroms)
    I     Atom           X                Y                Z
 ----------------------------------------------------------------
    1      C      -0.0019980000    -0.5763860000    -0.0008710000
    2      C      -0.0050980000     0.2682140000     1.1121290000
    3      C      -0.0097980000     1.6592140000     0.8197290000
    4      H      -0.0036980000    -0.1198860000     2.1420290000
    5      C      -0.0103980000     1.9073140000    -0.5644710000
    6      S      -0.0056980000     0.3942140000    -1.4655710000
    7      C      -0.0133980000     2.7238140000     1.8815290000
    8      H      -0.0118980000     2.2758140000     2.8941290000
    9      H      -0.9078980000     3.3768140000     1.8072290000
   10      H       0.8769020000     3.3827140000     1.8073290000
   11      C      -0.0019980000    -2.0264860000    -0.0008710000
   12      H       1.0129020000    -2.0269860000     0.3685290000
   13      H      -0.3230980000    -2.5615860000     0.8806290000
   14      H       0.2827020000    -2.7136860000    -0.7838710000
   15      H      -0.0136980000     2.8654140000    -1.0979710000
 ----------------------------------------------------------------
 Nuclear Repulsion Energy =         344.04155762 hartrees
 There are       30 alpha and       30 beta electrons
 Requested basis set is cc-pVTZ
 There are 120 shells and 326 basis functions

 Total QAlloc Memory Limit 110000 MB
 Mega-Array Size       188 MB
 MEM_STATIC part       192 MB
 Discretize the solute cavity surface with Lebedev spheres
	Using 110 Lebedev grid points for each H atom
	Using 194 Lebedev grid points for other atoms
	Atomic van der Waals radii will be scaled by 1.20
 Remove points where switching function is < 1.0e-08
 Keep 1072 surface tesserae and discard 1166 interior tesserae
 Molecular Surface Area = 159.778 Angst**2

                       Distance Matrix (Angstroms)
             C (  1)   C (  2)   C (  3)   H (  4)   C (  5)   S (  6)
   C (  2)  1.397186
   C (  3)  2.381460  1.421408
   H (  4)  2.190985  1.100599  2.216689
   C (  5)  2.546857  2.344710  1.406259  3.381527
   S (  6)  1.757107  2.580778  2.612056  3.644047  1.761100
   C (  7)  3.799326  2.573328  1.503597  2.855623  2.578681  4.078011
   H (  8)  4.064009  2.684405  2.164102  2.510996  3.478176  4.748415
   H (  9)  4.440458  3.310832  2.175291  3.627200  2.930853  4.518970
   H ( 10)  4.440329  3.310791  2.175326  3.627077  2.930792  4.519070
   C ( 11)  1.450100  2.550378  3.775954  2.868300  3.973978  2.829337
   H ( 12)  1.808513  2.618627  3.851956  2.795677  4.170893  3.203698
   H ( 13)  2.195715  2.857006  4.232850  2.766775  4.707140  3.787103
   H ( 14)  2.293947  3.545331  4.666834  3.920550  4.635481  3.194829
   H ( 15)  3.612444  3.410288  2.265504  4.405646  1.096626  2.498404
             C (  7)   H (  8)   H (  9)   H ( 10)   C ( 11)   H ( 12)
   H (  8)  1.107278
   H (  9)  1.109982  1.787839
   H ( 10)  1.110085  1.787828  1.784810
   C ( 11)  5.109688  5.185644  5.769361  5.770745
   H ( 12)  5.090438  5.093423  5.912731  5.599419  1.080036
   H ( 13)  5.388244  5.248949  6.038640  6.134613  1.080037  1.527396
   H ( 14)  6.062874  6.205609  6.724992  6.650826  1.079994  1.527342
   H ( 15)  2.982863  4.035405  3.082420  3.082456  5.013427  5.209617
             H ( 13)   H ( 14)
   H ( 14)  1.777832
   H ( 15)  5.784714  5.595790
 
 Requested basis set is rimp2-cc-pVTZ
 There are 250 shells and 848 basis functions
 A cutoff of  1.0D-10 yielded   6164 shell pairs
 There are     45136 function pairs (     58045 Cartesian)
 Smallest overlap matrix eigenvalue = 8.07E-05

 Scale SEOQF with 1.000000e+00/1.000000e-01/1.000000e-01

 Standard Electronic Orientation quadrupole field applied
 Nucleus-field energy     =     0.0000000031 hartrees
 Guess from superposition of atomic densities
 Warning:  Energy on first SCF cycle will be non-variational
 SAD guess density has 60.000000 electrons

 -----------------------------------------------------------------------
  General SCF calculation program by
  Eric Jon Sundstrom, Paul Horn, Yuezhi Mao, Dmitri Zuev, Alec White,
  David Stuck, Shaama M.S., Shane Yost, Joonho Lee, David Small,
  Daniel Levine, Susi Lehtola, Hugh Burton, Evgeny Epifanovsky,
  Bang C. Huynh
 -----------------------------------------------------------------------
 Hartree-Fock
 using 64 threads for integral computing
 -------------------------------------------------------
 OpenMP Integral computing Module                
 Release: version 1.0, May 2013, Q-Chem Inc. Pittsburgh 
 -------------------------------------------------------
 A restricted SCF calculation will be
 performed using DIIS
 SCF converges when DIIS error is below 1.0e-06
 ---------------------------------------
  Cycle       Energy         DIIS error
 ---------------------------------------
    1    -632.0795732994      2.91e-02  
    2    -629.3450436810      1.95e-03  
    3    -629.4153443049      7.03e-04  
    4    -629.4230218467      3.63e-04  
    5    -629.4252954621      6.13e-05  
    6    -629.4254230966      2.54e-05  
    7    -629.4254533370      1.09e-05  
    8    -629.4254618045      5.07e-06  
    9    -629.4254632346      1.67e-06  
   10    -629.4254634147      6.57e-07  Convergence criterion met
 ---------------------------------------
 SCF time:   CPU 669.51s  wall 14.00s 

************** Final PCM Free Energy Summary **************
 G_electrostatic  =      -0.00589281 hartree =      -3.69779610 kcal/mol
 G_cavitation     =       0.00000000 hartree =       0.00000000 kcal/mol
 G_dispersion     =       0.00000000 hartree =       0.00000000 kcal/mol
 G_repulsion      =       0.00000000 hartree =       0.00000000 kcal/mol
 --------------------------------------------------
 Non-electrostatic Free Energy =       0.00000000 hartree =       0.00000000 kcal/mol
 Total                         =      -0.00589281 hartree =      -3.69779610 kcal/mol
 --------------------------------------------------
 SCF Energy (H0 + V/2)                       =    -629.42546341 
 Solute Internal Energy (H0)                 =    -629.41957060 
 Total Free Energy (H0 + V/2 + non-elec)     =    -629.42546341 hartree
                                             = -394970.43958128 kcal/mol
***********************************************************

 SCF   energy in the final basis set =     -629.4254634147
 Total energy in the final basis set =     -629.4254634147


 --------------------------------------------------------------
  Generalized many-body perturbation theory program
  by Joonho Lee, Fazle Rob, Xintian Feng, Evgeny Epifanovsky

 No regularization used 
 (reg. param. = 0.0000e+00)
  (P|Q)^-1/2 Time:  CPU 7.81 s  wall 0.13 s

 In RI-MP2 calculation: 
 # of frozen core orbitals: 11

 Components of the RIMP2 correlation energy:
        aaaa    correlation energy =        -0.1451987310 a.u.
        abab    correlation energy =        -0.8852518750 a.u.
        bbbb    correlation energy =        -0.1451987310 a.u.
        non-Brillouin singles      =        -0.0000000000 a.u.
        total same-spin energy     =        -0.2903974620 a.u.
        total opposite-spin energy =        -0.8852518750 a.u.

 Total  RIMP2   correlation energy =        -1.1756493370 a.u.
        RIMP2         total energy =      -630.6011127517 a.u.

 RI-MP2 Energy Time:  CPU 38.31 s  wall 0.68 s
 
 --------------------------------------------------------------
 
                    Orbital Energies (a.u.)
 --------------------------------------------------------------
 
 Alpha MOs
 -- Occupied --
-91.9784 -11.2859 -11.2491 -11.2473 -11.2267 -11.2236 -11.2223  -8.9781
 -6.6591  -6.6585  -6.6579  -1.1599  -1.0543  -0.9981  -0.9401  -0.8842
 -0.7428  -0.7188  -0.6471  -0.5895  -0.5731  -0.5704  -0.5554  -0.5440
 -0.5080  -0.4932  -0.4658  -0.4545  -0.3375  -0.2903
 -- Virtual --
  0.1145   0.1451   0.1475   0.1751   0.1851   0.1896   0.2110   0.2193
  0.2327   0.2387   0.2504   0.2584   0.2956   0.3259   0.3439   0.3535
  0.3854   0.3901   0.4043   0.4157   0.4358   0.4538   0.4710   0.4937
  0.5068   0.5128   0.5138   0.5344   0.5463   0.5527   0.5743   0.5901
  0.5974   0.6059   0.6128   0.6285   0.6339   0.6382   0.6459   0.6498
  0.6584   0.6664   0.6826   0.7052   0.7165   0.7534   0.7795   0.7899
  0.8237   0.8304   0.8473   0.8592   0.8802   0.8864   0.9185   0.9288
  0.9453   0.9719   1.0116   1.0228   1.0326   1.0506   1.0563   1.0749
  1.0837   1.0921   1.0975   1.1175   1.1506   1.1693   1.1772   1.2100
  1.2332   1.2504   1.2547   1.2651   1.2731   1.2882   1.3043   1.3399
  1.3508   1.3839   1.3940   1.4137   1.4306   1.4389   1.4689   1.4811
  1.5043   1.5102   1.5145   1.5416   1.5547   1.5585   1.5721   1.5894
  1.5948   1.6266   1.6386   1.6845   1.6910   1.7020   1.7276   1.7493
  1.7730   1.7910   1.8074   1.8440   1.8968   1.9111   1.9513   1.9561
  2.0098   2.0426   2.0887   2.1487   2.1810   2.2013   2.2301   2.2542
  2.2724   2.3076   2.3361   2.4143   2.4611   2.4952   2.4987   2.5252
  2.5696   2.5880   2.6518   2.6723   2.6830   2.7053   2.7161   2.7250
  2.7515   2.7667   2.7712   2.7834   2.8165   2.8447   2.8523   2.8918
  2.9063   2.9326   2.9383   2.9710   3.0064   3.0173   3.0382   3.0485
  3.0966   3.1026   3.1142   3.1406   3.1568   3.1582   3.1729   3.1847
  3.2334   3.2392   3.2609   3.2732   3.3025   3.3057   3.3196   3.3246
  3.3300   3.3645   3.3801   3.3881   3.4047   3.4221   3.4285   3.4371
  3.4515   3.4691   3.4726   3.4811   3.5084   3.5169   3.5218   3.5651
  3.5862   3.5939   3.6057   3.6181   3.6285   3.6470   3.6625   3.6840
  3.6901   3.6948   3.7190   3.7218   3.7482   3.7682   3.7835   3.8069
  3.8104   3.8390   3.8606   3.8798   3.9120   3.9244   3.9364   3.9624
  3.9818   3.9899   4.0171   4.0335   4.0431   4.0597   4.0976   4.1048
  4.1274   4.1312   4.1624   4.2161   4.2241   4.2287   4.2386   4.2684
  4.2935   4.2995   4.3173   4.3303   4.3496   4.3769   4.4006   4.4154
  4.4179   4.4231   4.4452   4.4602   4.4679   4.4980   4.5353   4.5729
  4.6003   4.6063   4.6417   4.6824   4.7080   4.7456   4.7555   4.7789
  4.8079   4.8284   4.8781   4.8927   4.9081   4.9389   5.0819   5.0899
  5.1185   5.1381   5.1625   5.2022   5.2168   5.2663   5.2920   5.3346
  5.3737   5.4048   5.4185   5.4423   5.4602   5.5086   5.5506   5.5615
  5.5849   5.6165   5.6255   5.6495   5.6989   5.8068   5.8221   5.8827
  5.9314   5.9738   6.1157   6.1897   6.2270   6.2508   6.3124   6.4170
  6.4262   6.5589   9.2292  11.4363  12.9712  13.8092  14.1689  14.6108
 --------------------------------------------------------------
 
          Ground-State Mulliken Net Atomic Charges

     Atom                 Charge (a.u.)
  ----------------------------------------
      1 C                     0.067650
      2 C                    -0.302427
      3 C                     0.045589
      4 H                     0.174445
      5 C                    -0.277852
      6 S                     0.000071
      7 C                    -0.275130
      8 H                     0.101370
      9 H                     0.107384
     10 H                     0.107367
     11 C                    -0.387292
     12 H                     0.142886
     13 H                     0.143027
     14 H                     0.160376
     15 H                     0.192535
  ----------------------------------------
  Sum of atomic charges =     0.000000

 -----------------------------------------------------------------
                    Cartesian Multipole Moments
 -----------------------------------------------------------------
    Charge (ESU x 10^10)
                -0.0000
    Dipole Moment (Debye)
         X       0.6908      Y      -0.7306      Z       1.6624
       Tot       1.9428
    Quadrupole Moments (Debye-Ang)
        XX     -54.3168     XY      -1.5639     YY     -41.7561
        XZ      -0.1840     YZ       0.0374     ZZ     -48.6149
    Octopole Moments (Debye-Ang^2)
       XXX      -0.0778    XXY     -31.4907    XYY       2.9982
       YYY     -82.3546    XXZ      -2.7203    XYZ       0.8114
       YYZ      -4.3238    XZZ      -0.2040    YZZ     -26.1795
       ZZZ      -1.4106
    Hexadecapole Moments (Debye-Ang^3)
      XXXX     -77.9675   XXXY       4.0714   XXYY    -162.5221
      XYYY      -3.9193   YYYY    -804.2539   XXXZ       0.9963
      XXYZ     -30.3578   XYYZ      -2.4483   YYYZ    -103.5275
      XXZZ    -103.0136   XYZZ       1.3041   YYZZ    -211.1218
      XZZZ       0.3014   YZZZ    -101.7944   ZZZZ    -492.0561
 -----------------------------------------------------------------
 Total job time:  36.35s(wall), 769.18s(cpu) 
 Fri Dec 15 13:55:25 2023

        *************************************************************
        *                                                           *
        *  Thank you very much for using Q-Chem.  Have a nice day.  *
        *                                                           *
        *************************************************************


0 sent ACK to 0 
now end server 0 ... 
cleanup process ... done
remove work dirs ./qchem3253501.0 -- ./qchem3253501.0
rm -rf ./qchem3253501.0
rm -rf ./qchem3253501
