You are running Q-Chem version: 5.4.0

#
# job setting
#
local host:  exp-7-23
current dir: /home/rramji/project-csd799/aromodel/p3ht-qchem/methylated-rotation-run
input file:  Methylthiophene_Phi_30_Theta_110_Methylthiophene_Hydrogenated_Improper.qcin
output file: 
nprocs     : 1
nthreads   : 64
#
# qchem installation setting
#
QC:          /cm/shared/apps/spack/cpu/opt/spack/linux-centos8-zen2/gcc-10.2.0/qchem-5.4-akfmr7b3t57bfs6qan3padb2wnb2i7cl
QCAUX:       /cm/shared/apps/spack/cpu/opt/spack/linux-centos8-zen2/gcc-10.2.0/qchem-5.4-akfmr7b3t57bfs6qan3padb2wnb2i7cl/qcaux
QCPROG:      /cm/shared/apps/spack/cpu/opt/spack/linux-centos8-zen2/gcc-10.2.0/qchem-5.4-akfmr7b3t57bfs6qan3padb2wnb2i7cl/exe/qcprog.exe
QCPROG_S:    /cm/shared/apps/spack/cpu/opt/spack/linux-centos8-zen2/gcc-10.2.0/qchem-5.4-akfmr7b3t57bfs6qan3padb2wnb2i7cl/exe/qcprog.exe_s
PARALLEL:    -DPARALLEL
QCMPI:       mpich
#
# qchem directory setting
#
qcrun:       qchem641663
QCSCRATCH:   .
QCLOCALSCR:  
QCTMPDIR:    .
QCFILEPREF:  ./qchem641663
QCSAVEDIR:   
workdirs:    ./qchem641663
workdir0:    ./qchem641663
partmpdirs =  
#
# parallel setting
#
QCRSH:           ssh
QCMPI:           mpich
QCMPIRUN:        /cm/shared/apps/spack/cpu/opt/spack/linux-centos8-zen2/gcc-10.2.0/qchem-5.4-akfmr7b3t57bfs6qan3padb2wnb2i7cl/bin/mpi/mpirun_qchem
QCMACHINEFILE:   ./qchem641663/hostfile
exp-7-23

#
# env setting
#
exported envs:   QC QCAUX QCSCRATCH QCRUNNAME QCFILEPREF QCPROG QCPROG_S GUIFILE

Running Job 1 of 1 Methylthiophene_Phi_30_Theta_110_Methylthiophene_Hydrogenated_Improper.qcin
qchem Methylthiophene_Phi_30_Theta_110_Methylthiophene_Hydrogenated_Improper.qcin_641663.0 ./qchem641663/ 1
/cm/shared/apps/spack/cpu/opt/spack/linux-centos8-zen2/gcc-10.2.0/qchem-5.4-akfmr7b3t57bfs6qan3padb2wnb2i7cl/bin/mpi/mpirun_qchem -machinefile ./qchem641663/hostfile -np 1 /cm/shared/apps/spack/cpu/opt/spack/linux-centos8-zen2/gcc-10.2.0/qchem-5.4-akfmr7b3t57bfs6qan3padb2wnb2i7cl/exe/qcprog.exe Methylthiophene_Phi_30_Theta_110_Methylthiophene_Hydrogenated_Improper.qcin_641663.0 ./qchem641663/

Process 0 of 1 is on exp-7-23 - thread support 0
initial socket setup ...start
initial socket setup ...done 
now start server 0 ... 
                  Welcome to Q-Chem
     A Quantum Leap Into The Future Of Chemistry


 Q-Chem 5.4, Q-Chem, Inc., Pleasanton, CA (2021)

 License issued to: University of California, San Diego (site)

 E. Epifanovsky,  A. T. B. Gilbert,  Xintian Feng,  Joonho Lee,  Yuezhi Mao,  
 N. Mardirossian,  P. Pokhilko,  A. White,  M. Wormit,  M. P. Coons,  
 A. L. Dempwolff,  Zhengting Gan,  D. Hait,  P. R. Horn,  L. D. Jacobson,  
 I. Kaliman,  J. Kussmann,  A. W. Lange,  Ka Un Lao,  D. S. Levine,  Jie Liu,  
 S. C. McKenzie,  A. F. Morrison,  K. Nanda,  F. Plasser,  D. R. Rehn,  
 M. L. Vidal,  Zhi-Qiang You,  Ying Zhu,  B. Alam,  B. Albrecht,  
 A. Aldossary,  E. Alguire,  J. H. Andersen,  D. Barton,  K. Begam,  A. Behn,  
 Y. A. Bernard,  E. J. Berquist,  H. Burton,  A. Carreras,  K. Carter-Fenk,  
 R. Chakraborty,  A. D. Chien,  K. D. Closser,  V. Cofer-Shabica,  
 S. Dasgupta,  Jia Deng,  M. de Wergifosse,  M. Diedenhofen,  Hainam Do,  
 S. Ehlert,  Po-Tung Fang,  S. Fatehi,  Qingguo Feng,  J. Gayvert,  
 Qinghui Ge,  G. Gidofalvi,  M. Goldey,  J. Gomes,  C. Gonzalez-Espinoza,  
 S. Gulania,  A. Gunina,  M. W. D. Hanson-Heine,  P. H. P. Harbach,  
 A. W. Hauser,  M. F. Herbst,  M. Hernandez Vera,  M. Hodecker,  
 Z. C. Holden,  S. Houck,  Xunkun Huang,  Kerwin Hui,  B. C. Huynh,  
 M. Ivanov,  Hyunjun Ji,  Hanjie Jiang,  B. Kaduk,  S. Kaehler,  
 K. Khistyaev,  Jaehoon Kim,  P. Klunzinger,  Z. Koczor-Benda,  
 Joong Hoon Koh,  D. Kosenkov,  L. Koulias,  T. Kowalczyk,  C. M. Krauter,  
 K. Kue,  A. Kunitsa,  T. Kus,  A. Landau,  K. V. Lawler,  D. Lefrancois,  
 S. Lehtola,  Rain Li,  Yi-Pei Li,  Jiashu Liang,  M. Liebenthal,  
 Hung-Hsuan Lin,  You-Sheng Lin,  Fenglai Liu,  Kuan-Yu Liu,  
 M. Loipersberger,  A. Luenser,  A. Manjanath,  P. Manohar,  E. Mansoor,  
 S. F. Manzer,  Shan-Ping Mao,  A. V. Marenich,  T. Markovich,  S. Mason,  
 S. A. Maurer,  P. F. McLaughlin,  M. F. S. J. Menger,  J.-M. Mewes,  
 S. A. Mewes,  P. Morgante,  J. W. Mullinax,  T. S. Nguyen-Beck,  
 K. J. Oosterbaan,  G. Paran,  Alexander C. Paul,  Suranjan K. Paul,  
 F. Pavosevic,  Zheng Pei,  S. Prager,  E. I. Proynov,  E. Ramos,  B. Rana,  
 A. E. Rask,  A. Rettig,  R. M. Richard,  F. Rob,  E. Rossomme,  T. Scheele,  
 M. Scheurer,  M. Schneider,  N. Sergueev,  S. M. Sharada,  W. Skomorowski,  
 D. W. Small,  C. J. Stein,  Yu-Chuan Su,  E. J. Sundstrom,  Zhen Tao,  
 J. Thirman,  T. Tsuchimochi,  N. M. Tubman,  S. P. Veccham,  O. Vydrov,  
 J. Wenzel,  J. Witte,  A. Yamada,  Kun Yao,  S. Yeganeh,  S. R. Yost,  
 A. Zech,  Igor Ying Zhang,  Xing Zhang,  Yu Zhang,  D. Zuev,  
 A. Aspuru-Guzik,  A. T. Bell,  N. A. Besley,  K. B. Bravaya,  B. R. Brooks,  
 D. Casanova,  Jeng-Da Chai,  S. Coriani,  C. J. Cramer,  
 A. E. DePrince, III,  R. A. DiStasio Jr.,  A. Dreuw,  B. D. Dunietz,  
 T. R. Furlani,  W. A. Goddard III,  S. Grimme,  S. Hammes-Schiffer,  
 T. Head-Gordon,  W. J. Hehre,  Chao-Ping Hsu,  T.-C. Jagau,  Yousung Jung,  
 A. Klamt,  Jing Kong,  D. S. Lambrecht,  WanZhen Liang,  N. J. Mayhall,  
 C. W. McCurdy,  J. B. Neaton,  C. Ochsenfeld,  J. A. Parkhill,  R. Peverati,  
 V. A. Rassolov,  Yihan Shao,  L. V. Slipchenko,  T. Stauch,  R. P. Steele,  
 J. E. Subotnik,  A. J. W. Thom,  A. Tkatchenko,  D. G. Truhlar,  
 T. Van Voorhis,  T. A. Wesolowski,  K. B. Whaley,  H. L. Woodcock III,  
 P. M. Zimmerman,  S. Faraji,  P. M. W. Gill,  M. Head-Gordon,  
 J. M. Herbert,  A. I. Krylov

 Contributors to earlier versions of Q-Chem not listed above: 
 R. D. Adamson,  B. Austin,  R. Baer,  J. Baker,  G. J. O. Beran,  
 K. Brandhorst,  S. T. Brown,  E. F. C. Byrd,  A. K. Chakraborty,  
 G. K. L. Chan,  Chun-Min Chang,  Yunqing Chen,  C.-L. Cheng,  
 Siu Hung Chien,  D. M. Chipman,  D. L. Crittenden,  H. Dachsel,  
 R. J. Doerksen,  A. D. Dutoi,  R. G. Edgar,  J. Fosso-Tande,  
 L. Fusti-Molnar,  D. Ghosh,  A. Ghysels,  A. Golubeva-Zadorozhnaya,  
 J. Gonthier,  M. S. Gordon,  S. R. Gwaltney,  G. Hawkins,  J. E. Herr,  
 A. Heyden,  S. Hirata,  E. G. Hohenstein,  G. Kedziora,  F. J. Keil,  
 C. Kelley,  Jihan Kim,  R. A. King,  R. Z. Khaliullin,  P. P. Korambath,  
 W. Kurlancheek,  A. Laurent,  A. M. Lee,  M. S. Lee,  S. V. Levchenko,  
 Ching Yeh Lin,  D. Liotard,  E. Livshits,  R. C. Lochan,  I. Lotan,  
 L. A. Martinez-Martinez,  P. E. Maslen,  N. Nair,  D. P. O'Neill,  
 D. Neuhauser,  E. Neuscamman,  C. M. Oana,  R. Olivares-Amaya,  R. Olson,  
 T. M. Perrine,  B. Peters,  P. A. Pieniazek,  A. Prociuk,  Y. M. Rhee,  
 J. Ritchie,  M. A. Rohrdanz,  E. Rosta,  N. J. Russ,  H. F. Schaefer III,  
 M. W. Schmidt,  N. E. Schultz,  S. Sharma,  N. Shenvi,  C. D. Sherrill,  
 A. C. Simmonett,  A. Sodt,  T. Stein,  D. Stuck,  K. S. Thanthiriwatte,  
 V. Vanovschi,  L. Vogt,  Tao Wang,  A. Warshel,  M. A. Watson,  
 C. F. Williams,  Q. Wu,  X. Xu,  Jun Yang,  W. Zhang,  Yan Zhao

 Please cite Q-Chem as follows:
 Y. Shao et al., Mol. Phys. 113, 184-215 (2015)
 DOI: 10.1080/00268976.2014.952696

 Q-Chem 5.4.0 for Intel X86 EM64T Linux

 Parts of Q-Chem use Armadillo 9.800.1 (Horizon Scraper).
 http://arma.sourceforge.net/

 Q-Chem begins on Fri Dec 15 13:57:49 2023  

 Host: 
0

     Scratch files written to ./qchem641663//
 May1621 |scratch|qcdevops|jenkins|workspace|build_RNUM    
 Parallel job on  1  processors
 Processing $rem in /cm/shared/apps/spack/cpu/opt/spack/linux-centos8-zen2/gcc-10.2.0/qchem-5.4-akfmr7b3t57bfs6qan3padb2wnb2i7cl/config/preferences:
 Processing $rem in /home/rramji/.qchemrc:
 Symmetry turned off for PCM/SM12/SMD calculation
 Core orbitals will be frozen

 Checking the input file for inconsistencies... 	...done.

 Q-Chem warning in module forms1/BasisType.C, line 2236:

 You are not using the predefined 5D/6D in this basis set.


--------------------------------------------------------------
User input:
--------------------------------------------------------------
$molecule
0 1
C	-0.335351	-0.486609	-0.003165
C	0.084249	0.246391	1.109835
C	0.775749	1.453391	0.817435
H	-0.108651	-0.090409	2.139735
C	0.899249	1.668591	-0.566765
S	0.146749	0.355791	-1.467865
C	1.304949	2.377091	1.879235
H	1.082149	1.988491	2.891835
H	0.856649	3.389991	1.804935
H	2.405349	2.502691	1.805035
C	-0.335351	-1.936709	-0.003165
H	-0.704751	-1.937209	1.011735
H	-1.216851	-2.471809	-0.324265
H	0.447649	-2.623909	0.281535
H	1.375349	2.499891	-1.100265
$end

$rem
JOBTYPE		SP
EXCHANGE	HF
CORRELATION	pRIMP2
BASIS		cc-pvtz
METHOD		rimp2
AUX_BASIS	rimp2-cc-pvtz
SOLVENT_METHOD	PCM
PURECART	11111
SYMMETRY	false
MEM_TOTAL	110000
SCF_CONVERGENCE = 6
THRESH=10
GUI = 2
$end



$solvent
dielectric 4.90
$end
--------------------------------------------------------------
 ----------------------------------------------------------------
             Standard Nuclear Orientation (Angstroms)
    I     Atom           X                Y                Z
 ----------------------------------------------------------------
    1      C      -0.3353510000    -0.4866090000    -0.0031650000
    2      C       0.0842490000     0.2463910000     1.1098350000
    3      C       0.7757490000     1.4533910000     0.8174350000
    4      H      -0.1086510000    -0.0904090000     2.1397350000
    5      C       0.8992490000     1.6685910000    -0.5667650000
    6      S       0.1467490000     0.3557910000    -1.4678650000
    7      C       1.3049490000     2.3770910000     1.8792350000
    8      H       1.0821490000     1.9884910000     2.8918350000
    9      H       0.8566490000     3.3899910000     1.8049350000
   10      H       2.4053490000     2.5026910000     1.8050350000
   11      C      -0.3353510000    -1.9367090000    -0.0031650000
   12      H      -0.7047510000    -1.9372090000     1.0117350000
   13      H      -1.2168510000    -2.4718090000    -0.3242650000
   14      H       0.4476490000    -2.6239090000     0.2815350000
   15      H       1.3753490000     2.4998910000    -1.1002650000
 ----------------------------------------------------------------
 Nuclear Repulsion Energy =         345.38562816 hartrees
 There are       30 alpha and       30 beta electrons
 Requested basis set is cc-pVTZ
 There are 120 shells and 326 basis functions

 Total QAlloc Memory Limit 110000 MB
 Mega-Array Size       188 MB
 MEM_STATIC part       192 MB
 Discretize the solute cavity surface with Lebedev spheres
	Using 110 Lebedev grid points for each H atom
	Using 194 Lebedev grid points for other atoms
	Atomic van der Waals radii will be scaled by 1.20
 Remove points where switching function is < 1.0e-08
 Keep 1053 surface tesserae and discard 1185 interior tesserae
 Molecular Surface Area = 157.991 Angst**2

                       Distance Matrix (Angstroms)
             C (  1)   C (  2)   C (  3)   H (  4)   C (  5)   S (  6)
   C (  2)  1.397184
   C (  3)  2.381497  1.421450
   H (  4)  2.190979  1.100608  2.216745
   C (  5)  2.546914  2.344753  1.406262  3.381580
   S (  6)  1.757101  2.580777  2.612080  3.644050  1.761159
   C (  7)  3.799315  2.573318  1.503560  2.855640  2.578659  4.078009
   H (  8)  4.064044  2.684444  2.164105  2.511072  3.478175  4.748438
   H (  9)  4.440509  3.310889  2.175344  3.627269  2.930869  4.519021
   H ( 10)  4.440376  3.310846  2.175312  3.627174  2.930784  4.519107
   C ( 11)  1.450100  2.486113  3.660697  2.837646  3.852281  2.762847
   H ( 12)  1.808513  2.323845  3.704835  2.244636  4.250444  3.483004
   H ( 13)  2.195715  3.337381  4.547651  3.601454  4.656135  3.341040
   H ( 14)  2.293947  3.009446  4.125435  3.190768  4.398763  3.468365
   H ( 15)  3.612382  3.410241  2.265448  4.405623  1.096519  2.498350
             C (  7)   H (  8)   H (  9)   H ( 10)   C ( 11)   H ( 12)
   H (  8)  1.107253
   H (  9)  1.110162  1.787849
   H ( 10)  1.110028  1.787846  1.784873
   C ( 11)  4.984264  5.079127  5.750115  5.521711
   H ( 12)  4.837834  4.705200  5.607691  5.478573  1.080036
   H ( 13)  5.892938  5.960115  6.572183  6.511521  1.080037  1.527396
   H ( 14)  5.319550  5.337648  6.217316  5.695232  1.079994  1.527342
   H ( 15)  2.982860  4.035388  3.082453  3.082479  4.879912  5.336217
             H ( 13)   H ( 14)
   H ( 14)  1.777832
   H ( 15)  5.660343  5.387330
 
 Requested basis set is rimp2-cc-pVTZ
 There are 250 shells and 848 basis functions
 A cutoff of  1.0D-10 yielded   6231 shell pairs
 There are     45661 function pairs (     58711 Cartesian)
 Smallest overlap matrix eigenvalue = 1.20E-04

 Scale SEOQF with 1.000000e-01/1.000000e-01/1.000000e-01

 Standard Electronic Orientation quadrupole field applied
 Nucleus-field energy     =     0.0000000010 hartrees
 Guess from superposition of atomic densities
 Warning:  Energy on first SCF cycle will be non-variational
 SAD guess density has 60.000000 electrons

 -----------------------------------------------------------------------
  General SCF calculation program by
  Eric Jon Sundstrom, Paul Horn, Yuezhi Mao, Dmitri Zuev, Alec White,
  David Stuck, Shaama M.S., Shane Yost, Joonho Lee, David Small,
  Daniel Levine, Susi Lehtola, Hugh Burton, Evgeny Epifanovsky,
  Bang C. Huynh
 -----------------------------------------------------------------------
 Hartree-Fock
 using 64 threads for integral computing
 -------------------------------------------------------
 OpenMP Integral computing Module                
 Release: version 1.0, May 2013, Q-Chem Inc. Pittsburgh 
 -------------------------------------------------------
 A restricted SCF calculation will be
 performed using DIIS
 SCF converges when DIIS error is below 1.0e-06
 ---------------------------------------
  Cycle       Energy         DIIS error
 ---------------------------------------
    1    -632.1071366537      2.92e-02  
    2    -629.3301998329      1.90e-03  
    3    -629.3995309358      6.20e-04  
    4    -629.4064489669      3.08e-04  
    5    -629.4081317185      6.13e-05  
    6    -629.4082607502      2.41e-05  
    7    -629.4082937571      1.16e-05  
    8    -629.4083037006      4.33e-06  
    9    -629.4083051429      1.87e-06  
   10    -629.4083053066      5.20e-07  Convergence criterion met
 ---------------------------------------
 SCF time:   CPU 673.34s  wall 14.00s 

************** Final PCM Free Energy Summary **************
 G_electrostatic  =      -0.00536431 hartree =      -3.36615641 kcal/mol
 G_cavitation     =       0.00000000 hartree =       0.00000000 kcal/mol
 G_dispersion     =       0.00000000 hartree =       0.00000000 kcal/mol
 G_repulsion      =       0.00000000 hartree =       0.00000000 kcal/mol
 --------------------------------------------------
 Non-electrostatic Free Energy =       0.00000000 hartree =       0.00000000 kcal/mol
 Total                         =      -0.00536431 hartree =      -3.36615641 kcal/mol
 --------------------------------------------------
 SCF Energy (H0 + V/2)                       =    -629.40830531 
 Solute Internal Energy (H0)                 =    -629.40294099 
 Total Free Energy (H0 + V/2 + non-elec)     =    -629.40830531 hartree
                                             = -394959.67270597 kcal/mol
***********************************************************

 SCF   energy in the final basis set =     -629.4083053066
 Total energy in the final basis set =     -629.4083053066


 --------------------------------------------------------------
  Generalized many-body perturbation theory program
  by Joonho Lee, Fazle Rob, Xintian Feng, Evgeny Epifanovsky

 No regularization used 
 (reg. param. = 0.0000e+00)
  (P|Q)^-1/2 Time:  CPU 9.41 s  wall 0.17 s

 In RI-MP2 calculation: 
 # of frozen core orbitals: 11

 Components of the RIMP2 correlation energy:
        aaaa    correlation energy =        -0.1462317800 a.u.
        abab    correlation energy =        -0.8892148152 a.u.
        bbbb    correlation energy =        -0.1462317800 a.u.
        non-Brillouin singles      =        -0.0000000000 a.u.
        total same-spin energy     =        -0.2924635601 a.u.
        total opposite-spin energy =        -0.8892148152 a.u.

 Total  RIMP2   correlation energy =        -1.1816783752 a.u.
        RIMP2         total energy =      -630.5899836819 a.u.

 RI-MP2 Energy Time:  CPU 39.38 s  wall 0.75 s
 
 --------------------------------------------------------------
 
                    Orbital Energies (a.u.)
 --------------------------------------------------------------
 
 Alpha MOs
 -- Occupied --
-91.9740 -11.2691 -11.2641 -11.2479 -11.2387 -11.2281 -11.2145  -8.9743
 -6.6552  -6.6546  -6.6541  -1.1631  -1.0522  -0.9992  -0.9380  -0.8853
 -0.7435  -0.7254  -0.6465  -0.5874  -0.5795  -0.5677  -0.5570  -0.5412
 -0.5139  -0.4817  -0.4647  -0.4350  -0.3374  -0.3043
 -- Virtual --
  0.0898   0.1445   0.1529   0.1772   0.1793   0.1904   0.2074   0.2253
  0.2322   0.2410   0.2514   0.2685   0.3024   0.3104   0.3432   0.3563
  0.3813   0.3950   0.4123   0.4205   0.4399   0.4502   0.4702   0.4793
  0.4802   0.4988   0.5041   0.5297   0.5402   0.5580   0.5706   0.5812
  0.5958   0.6026   0.6140   0.6273   0.6337   0.6354   0.6445   0.6481
  0.6583   0.6641   0.6815   0.6892   0.7341   0.7498   0.7647   0.7816
  0.8007   0.8190   0.8406   0.8582   0.8725   0.8863   0.9063   0.9293
  0.9514   0.9738   1.0043   1.0154   1.0248   1.0307   1.0567   1.0732
  1.0835   1.0896   1.1163   1.1501   1.1575   1.1758   1.1819   1.2031
  1.2215   1.2369   1.2528   1.2630   1.2834   1.2970   1.3018   1.3197
  1.3405   1.3737   1.3754   1.4006   1.4234   1.4354   1.4526   1.4804
  1.4923   1.5102   1.5232   1.5344   1.5448   1.5582   1.5708   1.5902
  1.6098   1.6342   1.6617   1.6705   1.6938   1.6995   1.7159   1.7412
  1.7605   1.7748   1.7958   1.8219   1.8982   1.9162   1.9295   1.9643
  1.9826   2.0394   2.0893   2.1063   2.1642   2.1835   2.2024   2.2117
  2.2568   2.2760   2.3506   2.4164   2.4653   2.4860   2.5338   2.5551
  2.5738   2.5943   2.6387   2.6544   2.6629   2.6768   2.7174   2.7379
  2.7485   2.7618   2.7699   2.7898   2.8284   2.8501   2.8583   2.8916
  2.8996   2.9214   2.9686   2.9725   2.9964   3.0187   3.0353   3.0530
  3.0878   3.1112   3.1265   3.1366   3.1552   3.1589   3.1695   3.1969
  3.2079   3.2302   3.2629   3.2654   3.2969   3.3029   3.3201   3.3368
  3.3493   3.3522   3.3713   3.3807   3.4006   3.4056   3.4230   3.4353
  3.4407   3.4636   3.4838   3.5075   3.5113   3.5217   3.5384   3.5486
  3.5823   3.5955   3.6135   3.6309   3.6323   3.6583   3.6640   3.6760
  3.7074   3.7193   3.7311   3.7535   3.7641   3.7659   3.7867   3.7976
  3.8091   3.8233   3.8594   3.8762   3.8969   3.9211   3.9348   3.9471
  3.9547   3.9822   4.0097   4.0349   4.0435   4.0789   4.0987   4.1101
  4.1191   4.1383   4.1606   4.1738   4.2032   4.2172   4.2279   4.2676
  4.2791   4.2862   4.3224   4.3365   4.3492   4.3580   4.3996   4.4061
  4.4218   4.4375   4.4524   4.4653   4.4890   4.5281   4.5596   4.5697
  4.6077   4.6128   4.6397   4.6858   4.7163   4.7369   4.7767   4.7915
  4.8095   4.8280   4.8733   4.8802   4.8999   4.9087   5.0524   5.0883
  5.1118   5.1342   5.1806   5.2029   5.2311   5.2571   5.2914   5.3171
  5.3576   5.4023   5.4097   5.4501   5.4571   5.4997   5.5479   5.5630
  5.6024   5.6171   5.6327   5.6770   5.7031   5.8131   5.8284   5.8609
  5.9445   5.9869   6.0178   6.1241   6.2271   6.2377   6.2730   6.3397
  6.4364   6.5155   9.2015  11.4708  12.8718  13.7472  14.1820  14.3227
 --------------------------------------------------------------
 
          Ground-State Mulliken Net Atomic Charges

     Atom                 Charge (a.u.)
  ----------------------------------------
      1 C                     0.002760
      2 C                    -0.245547
      3 C                     0.031967
      4 H                     0.177377
      5 C                    -0.238190
      6 S                    -0.002731
      7 C                    -0.270064
      8 H                     0.101485
      9 H                     0.106890
     10 H                     0.106795
     11 C                    -0.355731
     12 H                     0.114508
     13 H                     0.126918
     14 H                     0.149189
     15 H                     0.194372
  ----------------------------------------
  Sum of atomic charges =     0.000000

 -----------------------------------------------------------------
                    Cartesian Multipole Moments
 -----------------------------------------------------------------
    Charge (ESU x 10^10)
                -0.0000
    Dipole Moment (Debye)
         X       0.6881      Y       0.1218      Z       2.1943
       Tot       2.3029
    Quadrupole Moments (Debye-Ang)
        XX     -51.5971     XY       4.2717     YY     -44.6548
        XZ       0.1067     YZ      -1.0221     ZZ     -48.7856
    Octopole Moments (Debye-Ang^2)
       XXX     -51.5328    XXY     -22.5097    XYY      -9.8625
       YYY     -68.4093    XXZ      -3.7680    XYZ      -1.8095
       YYZ      -2.3051    XZZ     -15.0441    YZZ     -19.8781
       ZZZ      -0.5773
    Hexadecapole Moments (Debye-Ang^3)
      XXXX    -218.4830   XXXY    -135.1542   XXYY    -143.8171
      XYYY    -123.6977   YYYY    -678.2961   XXXZ     -46.5375
      XXYZ     -28.6005   XYYZ     -19.0315   YYYZ     -94.1876
      XXZZ    -121.4455   XYZZ     -38.8745   YYZZ    -196.2581
      XZZZ     -51.0310   YZZZ     -85.1356   ZZZZ    -489.9171
 -----------------------------------------------------------------
 Total job time:  15.85s(wall), 750.02s(cpu) 
 Fri Dec 15 13:58:05 2023

        *************************************************************
        *                                                           *
        *  Thank you very much for using Q-Chem.  Have a nice day.  *
        *                                                           *
        *************************************************************


0 sent ACK to 0 
now end server 0 ... 
cleanup process ... done
remove work dirs ./qchem641663.0 -- ./qchem641663.0
rm -rf ./qchem641663.0
rm -rf ./qchem641663
