You are running Q-Chem version: 5.4.0

#
# job setting
#
local host:  exp-7-21
current dir: /home/rramji/project-csd799/aromodel/p3ht-qchem/methylated-rotation-run
input file:  Methylthiophene_Phi_20_Theta_140_Methylthiophene_Hydrogenated_Improper.qcin
output file: 
nprocs     : 1
nthreads   : 64
#
# qchem installation setting
#
QC:          /cm/shared/apps/spack/cpu/opt/spack/linux-centos8-zen2/gcc-10.2.0/qchem-5.4-akfmr7b3t57bfs6qan3padb2wnb2i7cl
QCAUX:       /cm/shared/apps/spack/cpu/opt/spack/linux-centos8-zen2/gcc-10.2.0/qchem-5.4-akfmr7b3t57bfs6qan3padb2wnb2i7cl/qcaux
QCPROG:      /cm/shared/apps/spack/cpu/opt/spack/linux-centos8-zen2/gcc-10.2.0/qchem-5.4-akfmr7b3t57bfs6qan3padb2wnb2i7cl/exe/qcprog.exe
QCPROG_S:    /cm/shared/apps/spack/cpu/opt/spack/linux-centos8-zen2/gcc-10.2.0/qchem-5.4-akfmr7b3t57bfs6qan3padb2wnb2i7cl/exe/qcprog.exe_s
PARALLEL:    -DPARALLEL
QCMPI:       mpich
#
# qchem directory setting
#
qcrun:       qchem19049
QCSCRATCH:   .
QCLOCALSCR:  
QCTMPDIR:    .
QCFILEPREF:  ./qchem19049
QCSAVEDIR:   
workdirs:    ./qchem19049
workdir0:    ./qchem19049
partmpdirs =  
#
# parallel setting
#
QCRSH:           ssh
QCMPI:           mpich
QCMPIRUN:        /cm/shared/apps/spack/cpu/opt/spack/linux-centos8-zen2/gcc-10.2.0/qchem-5.4-akfmr7b3t57bfs6qan3padb2wnb2i7cl/bin/mpi/mpirun_qchem
QCMACHINEFILE:   ./qchem19049/hostfile
exp-7-21

#
# env setting
#
exported envs:   QC QCAUX QCSCRATCH QCRUNNAME QCFILEPREF QCPROG QCPROG_S GUIFILE

Running Job 1 of 1 Methylthiophene_Phi_20_Theta_140_Methylthiophene_Hydrogenated_Improper.qcin
qchem Methylthiophene_Phi_20_Theta_140_Methylthiophene_Hydrogenated_Improper.qcin_19049.0 ./qchem19049/ 1
/cm/shared/apps/spack/cpu/opt/spack/linux-centos8-zen2/gcc-10.2.0/qchem-5.4-akfmr7b3t57bfs6qan3padb2wnb2i7cl/bin/mpi/mpirun_qchem -machinefile ./qchem19049/hostfile -np 1 /cm/shared/apps/spack/cpu/opt/spack/linux-centos8-zen2/gcc-10.2.0/qchem-5.4-akfmr7b3t57bfs6qan3padb2wnb2i7cl/exe/qcprog.exe Methylthiophene_Phi_20_Theta_140_Methylthiophene_Hydrogenated_Improper.qcin_19049.0 ./qchem19049/

Process 0 of 1 is on exp-7-21 - thread support 0
initial socket setup ...start
initial socket setup ...done 
now start server 0 ... 
                  Welcome to Q-Chem
     A Quantum Leap Into The Future Of Chemistry


 Q-Chem 5.4, Q-Chem, Inc., Pleasanton, CA (2021)

 License issued to: University of California, San Diego (site)

 E. Epifanovsky,  A. T. B. Gilbert,  Xintian Feng,  Joonho Lee,  Yuezhi Mao,  
 N. Mardirossian,  P. Pokhilko,  A. White,  M. Wormit,  M. P. Coons,  
 A. L. Dempwolff,  Zhengting Gan,  D. Hait,  P. R. Horn,  L. D. Jacobson,  
 I. Kaliman,  J. Kussmann,  A. W. Lange,  Ka Un Lao,  D. S. Levine,  Jie Liu,  
 S. C. McKenzie,  A. F. Morrison,  K. Nanda,  F. Plasser,  D. R. Rehn,  
 M. L. Vidal,  Zhi-Qiang You,  Ying Zhu,  B. Alam,  B. Albrecht,  
 A. Aldossary,  E. Alguire,  J. H. Andersen,  D. Barton,  K. Begam,  A. Behn,  
 Y. A. Bernard,  E. J. Berquist,  H. Burton,  A. Carreras,  K. Carter-Fenk,  
 R. Chakraborty,  A. D. Chien,  K. D. Closser,  V. Cofer-Shabica,  
 S. Dasgupta,  Jia Deng,  M. de Wergifosse,  M. Diedenhofen,  Hainam Do,  
 S. Ehlert,  Po-Tung Fang,  S. Fatehi,  Qingguo Feng,  J. Gayvert,  
 Qinghui Ge,  G. Gidofalvi,  M. Goldey,  J. Gomes,  C. Gonzalez-Espinoza,  
 S. Gulania,  A. Gunina,  M. W. D. Hanson-Heine,  P. H. P. Harbach,  
 A. W. Hauser,  M. F. Herbst,  M. Hernandez Vera,  M. Hodecker,  
 Z. C. Holden,  S. Houck,  Xunkun Huang,  Kerwin Hui,  B. C. Huynh,  
 M. Ivanov,  Hyunjun Ji,  Hanjie Jiang,  B. Kaduk,  S. Kaehler,  
 K. Khistyaev,  Jaehoon Kim,  P. Klunzinger,  Z. Koczor-Benda,  
 Joong Hoon Koh,  D. Kosenkov,  L. Koulias,  T. Kowalczyk,  C. M. Krauter,  
 K. Kue,  A. Kunitsa,  T. Kus,  A. Landau,  K. V. Lawler,  D. Lefrancois,  
 S. Lehtola,  Rain Li,  Yi-Pei Li,  Jiashu Liang,  M. Liebenthal,  
 Hung-Hsuan Lin,  You-Sheng Lin,  Fenglai Liu,  Kuan-Yu Liu,  
 M. Loipersberger,  A. Luenser,  A. Manjanath,  P. Manohar,  E. Mansoor,  
 S. F. Manzer,  Shan-Ping Mao,  A. V. Marenich,  T. Markovich,  S. Mason,  
 S. A. Maurer,  P. F. McLaughlin,  M. F. S. J. Menger,  J.-M. Mewes,  
 S. A. Mewes,  P. Morgante,  J. W. Mullinax,  T. S. Nguyen-Beck,  
 K. J. Oosterbaan,  G. Paran,  Alexander C. Paul,  Suranjan K. Paul,  
 F. Pavosevic,  Zheng Pei,  S. Prager,  E. I. Proynov,  E. Ramos,  B. Rana,  
 A. E. Rask,  A. Rettig,  R. M. Richard,  F. Rob,  E. Rossomme,  T. Scheele,  
 M. Scheurer,  M. Schneider,  N. Sergueev,  S. M. Sharada,  W. Skomorowski,  
 D. W. Small,  C. J. Stein,  Yu-Chuan Su,  E. J. Sundstrom,  Zhen Tao,  
 J. Thirman,  T. Tsuchimochi,  N. M. Tubman,  S. P. Veccham,  O. Vydrov,  
 J. Wenzel,  J. Witte,  A. Yamada,  Kun Yao,  S. Yeganeh,  S. R. Yost,  
 A. Zech,  Igor Ying Zhang,  Xing Zhang,  Yu Zhang,  D. Zuev,  
 A. Aspuru-Guzik,  A. T. Bell,  N. A. Besley,  K. B. Bravaya,  B. R. Brooks,  
 D. Casanova,  Jeng-Da Chai,  S. Coriani,  C. J. Cramer,  
 A. E. DePrince, III,  R. A. DiStasio Jr.,  A. Dreuw,  B. D. Dunietz,  
 T. R. Furlani,  W. A. Goddard III,  S. Grimme,  S. Hammes-Schiffer,  
 T. Head-Gordon,  W. J. Hehre,  Chao-Ping Hsu,  T.-C. Jagau,  Yousung Jung,  
 A. Klamt,  Jing Kong,  D. S. Lambrecht,  WanZhen Liang,  N. J. Mayhall,  
 C. W. McCurdy,  J. B. Neaton,  C. Ochsenfeld,  J. A. Parkhill,  R. Peverati,  
 V. A. Rassolov,  Yihan Shao,  L. V. Slipchenko,  T. Stauch,  R. P. Steele,  
 J. E. Subotnik,  A. J. W. Thom,  A. Tkatchenko,  D. G. Truhlar,  
 T. Van Voorhis,  T. A. Wesolowski,  K. B. Whaley,  H. L. Woodcock III,  
 P. M. Zimmerman,  S. Faraji,  P. M. W. Gill,  M. Head-Gordon,  
 J. M. Herbert,  A. I. Krylov

 Contributors to earlier versions of Q-Chem not listed above: 
 R. D. Adamson,  B. Austin,  R. Baer,  J. Baker,  G. J. O. Beran,  
 K. Brandhorst,  S. T. Brown,  E. F. C. Byrd,  A. K. Chakraborty,  
 G. K. L. Chan,  Chun-Min Chang,  Yunqing Chen,  C.-L. Cheng,  
 Siu Hung Chien,  D. M. Chipman,  D. L. Crittenden,  H. Dachsel,  
 R. J. Doerksen,  A. D. Dutoi,  R. G. Edgar,  J. Fosso-Tande,  
 L. Fusti-Molnar,  D. Ghosh,  A. Ghysels,  A. Golubeva-Zadorozhnaya,  
 J. Gonthier,  M. S. Gordon,  S. R. Gwaltney,  G. Hawkins,  J. E. Herr,  
 A. Heyden,  S. Hirata,  E. G. Hohenstein,  G. Kedziora,  F. J. Keil,  
 C. Kelley,  Jihan Kim,  R. A. King,  R. Z. Khaliullin,  P. P. Korambath,  
 W. Kurlancheek,  A. Laurent,  A. M. Lee,  M. S. Lee,  S. V. Levchenko,  
 Ching Yeh Lin,  D. Liotard,  E. Livshits,  R. C. Lochan,  I. Lotan,  
 L. A. Martinez-Martinez,  P. E. Maslen,  N. Nair,  D. P. O'Neill,  
 D. Neuhauser,  E. Neuscamman,  C. M. Oana,  R. Olivares-Amaya,  R. Olson,  
 T. M. Perrine,  B. Peters,  P. A. Pieniazek,  A. Prociuk,  Y. M. Rhee,  
 J. Ritchie,  M. A. Rohrdanz,  E. Rosta,  N. J. Russ,  H. F. Schaefer III,  
 M. W. Schmidt,  N. E. Schultz,  S. Sharma,  N. Shenvi,  C. D. Sherrill,  
 A. C. Simmonett,  A. Sodt,  T. Stein,  D. Stuck,  K. S. Thanthiriwatte,  
 V. Vanovschi,  L. Vogt,  Tao Wang,  A. Warshel,  M. A. Watson,  
 C. F. Williams,  Q. Wu,  X. Xu,  Jun Yang,  W. Zhang,  Yan Zhao

 Please cite Q-Chem as follows:
 Y. Shao et al., Mol. Phys. 113, 184-215 (2015)
 DOI: 10.1080/00268976.2014.952696

 Q-Chem 5.4.0 for Intel X86 EM64T Linux

 Parts of Q-Chem use Armadillo 9.800.1 (Horizon Scraper).
 http://arma.sourceforge.net/

 Q-Chem begins on Fri Dec 15 13:58:56 2023  

 Host: 
0

     Scratch files written to ./qchem19049//
 May1621 |scratch|qcdevops|jenkins|workspace|build_RNUM    
 Parallel job on  1  processors
 Processing $rem in /cm/shared/apps/spack/cpu/opt/spack/linux-centos8-zen2/gcc-10.2.0/qchem-5.4-akfmr7b3t57bfs6qan3padb2wnb2i7cl/config/preferences:
 Processing $rem in /home/rramji/.qchemrc:
 Symmetry turned off for PCM/SM12/SMD calculation
 Core orbitals will be frozen

 Checking the input file for inconsistencies... 	...done.

 Q-Chem warning in module forms1/BasisType.C, line 2236:

 You are not using the predefined 5D/6D in this basis set.


--------------------------------------------------------------
User input:
--------------------------------------------------------------
$molecule
0 1
C	-0.225985	-0.536244	-0.001525
C	0.060015	0.258456	1.111475
C	0.531315	1.567156	0.819075
H	-0.071485	-0.106644	2.141375
C	0.615615	1.800556	-0.565125
S	0.102515	0.377056	-1.466225
C	0.892115	2.568756	1.880875
H	0.740215	2.147356	2.893475
H	0.274815	3.488456	1.806575
H	1.954015	2.883556	1.806675
C	-0.225985	-1.986344	-0.001525
H	-1.053285	-1.986844	0.692675
H	-0.828885	-2.521444	-0.720325
H	0.309815	-2.673544	0.636575
H	0.940115	2.701956	-1.098625
$end

$rem
JOBTYPE		SP
EXCHANGE	HF
CORRELATION	pRIMP2
BASIS		cc-pvtz
METHOD		rimp2
AUX_BASIS	rimp2-cc-pvtz
SOLVENT_METHOD	PCM
PURECART	11111
SYMMETRY	false
MEM_TOTAL	110000
SCF_CONVERGENCE = 6
THRESH=10
GUI = 2
$end



$solvent
dielectric 4.90
$end
--------------------------------------------------------------
 ----------------------------------------------------------------
             Standard Nuclear Orientation (Angstroms)
    I     Atom           X                Y                Z
 ----------------------------------------------------------------
    1      C      -0.2259850000    -0.5362440000    -0.0015250000
    2      C       0.0600150000     0.2584560000     1.1114750000
    3      C       0.5313150000     1.5671560000     0.8190750000
    4      H      -0.0714850000    -0.1066440000     2.1413750000
    5      C       0.6156150000     1.8005560000    -0.5651250000
    6      S       0.1025150000     0.3770560000    -1.4662250000
    7      C       0.8921150000     2.5687560000     1.8808750000
    8      H       0.7402150000     2.1473560000     2.8934750000
    9      H       0.2748150000     3.4884560000     1.8065750000
   10      H       1.9540150000     2.8835560000     1.8066750000
   11      C      -0.2259850000    -1.9863440000    -0.0015250000
   12      H      -1.0532850000    -1.9868440000     0.6926750000
   13      H      -0.8288850000    -2.5214440000    -0.7203250000
   14      H       0.3098150000    -2.6735440000     0.6365750000
   15      H       0.9401150000     2.7019560000    -1.0986250000
 ----------------------------------------------------------------
 Nuclear Repulsion Energy =         344.48688488 hartrees
 There are       30 alpha and       30 beta electrons
 Requested basis set is cc-pVTZ
 There are 120 shells and 326 basis functions

 Total QAlloc Memory Limit 110000 MB
 Mega-Array Size       188 MB
 MEM_STATIC part       192 MB
 Discretize the solute cavity surface with Lebedev spheres
	Using 110 Lebedev grid points for each H atom
	Using 194 Lebedev grid points for other atoms
	Atomic van der Waals radii will be scaled by 1.20
 Remove points where switching function is < 1.0e-08
 Keep 1076 surface tesserae and discard 1162 interior tesserae
 Molecular Surface Area = 158.402 Angst**2

                       Distance Matrix (Angstroms)
             C (  1)   C (  2)   C (  3)   H (  4)   C (  5)   S (  6)
   C (  2)  1.397180
   C (  3)  2.381424  1.421379
   H (  4)  2.190992  1.100584  2.216631
   C (  5)  2.546875  2.344728  1.406269  3.381517
   S (  6)  1.757093  2.580777  2.612050  3.644039  1.761137
   C (  7)  3.799290  2.573296  1.503595  2.855547  2.578662  4.078001
   H (  8)  4.064022  2.684425  2.164118  2.510981  3.478176  4.748432
   H (  9)  4.440522  3.310922  2.175395  3.627225  2.930889  4.519039
   H ( 10)  4.440385  3.310844  2.175394  3.627116  2.930809  4.519123
   C ( 11)  1.450100  2.521843  3.724815  2.854674  3.920019  2.799807
   H ( 12)  1.808474  2.540906  3.893308  2.568621  4.325701  3.403637
   H ( 13)  2.195719  3.445791  4.575647  3.820241  4.559644  3.134514
   H ( 14)  2.293971  2.980697  4.250401  2.999798  4.642754  3.710917
   H ( 15)  3.612389  3.410251  2.265494  4.405584  1.096560  2.498372
             C (  7)   H (  8)   H (  9)   H ( 10)   C ( 11)   H ( 12)
   H (  8)  1.107254
   H (  9)  1.110148  1.787875
   H ( 10)  1.110061  1.787858  1.784830
   C ( 11)  5.053960  5.138292  5.787354  5.633641
   H ( 12)  5.094104  5.015154  5.743129  5.831436  1.079972
   H ( 13)  5.969775  6.108954  6.612282  6.583638  1.080043  1.527325
   H ( 14)  5.419323  5.340404  6.272190  5.912181  1.080045  1.527333
   H ( 15)  2.982862  4.035394  3.082433  3.082489  4.954147  5.400671
             H ( 13)   H ( 14)
   H ( 14)  1.777906
   H ( 15)  5.527783  5.683678
 
 Requested basis set is rimp2-cc-pVTZ
 There are 250 shells and 848 basis functions
 A cutoff of  1.0D-10 yielded   6187 shell pairs
 There are     45309 function pairs (     58251 Cartesian)
 Smallest overlap matrix eigenvalue = 9.91E-05

 Scale SEOQF with 1.000000e-01/1.000000e-01/1.000000e-01

 Standard Electronic Orientation quadrupole field applied
 Nucleus-field energy     =     0.0000000017 hartrees
 Guess from superposition of atomic densities
 Warning:  Energy on first SCF cycle will be non-variational
 SAD guess density has 60.000000 electrons

 -----------------------------------------------------------------------
  General SCF calculation program by
  Eric Jon Sundstrom, Paul Horn, Yuezhi Mao, Dmitri Zuev, Alec White,
  David Stuck, Shaama M.S., Shane Yost, Joonho Lee, David Small,
  Daniel Levine, Susi Lehtola, Hugh Burton, Evgeny Epifanovsky,
  Bang C. Huynh
 -----------------------------------------------------------------------
 Hartree-Fock
 using 64 threads for integral computing
 -------------------------------------------------------
 OpenMP Integral computing Module                
 Release: version 1.0, May 2013, Q-Chem Inc. Pittsburgh 
 -------------------------------------------------------
 A restricted SCF calculation will be
 performed using DIIS
 SCF converges when DIIS error is below 1.0e-06
 ---------------------------------------
  Cycle       Energy         DIIS error
 ---------------------------------------
    1    -632.0870220738      2.91e-02  
    2    -629.3373591997      1.92e-03  
    3    -629.4069827388      6.58e-04  
    4    -629.4141517569      3.38e-04  
    5    -629.4161339276      6.21e-05  
    6    -629.4162600087      2.48e-05  
    7    -629.4162900705      1.12e-05  
    8    -629.4162987084      4.95e-06  
    9    -629.4163002151      1.74e-06  
   10    -629.4163004066      5.46e-07  Convergence criterion met
 ---------------------------------------
 SCF time:   CPU 671.50s  wall 14.00s 

************** Final PCM Free Energy Summary **************
 G_electrostatic  =      -0.00555772 hartree =      -3.48752052 kcal/mol
 G_cavitation     =       0.00000000 hartree =       0.00000000 kcal/mol
 G_dispersion     =       0.00000000 hartree =       0.00000000 kcal/mol
 G_repulsion      =       0.00000000 hartree =       0.00000000 kcal/mol
 --------------------------------------------------
 Non-electrostatic Free Energy =       0.00000000 hartree =       0.00000000 kcal/mol
 Total                         =      -0.00555772 hartree =      -3.48752052 kcal/mol
 --------------------------------------------------
 SCF Energy (H0 + V/2)                       =    -629.41630041 
 Solute Internal Energy (H0)                 =    -629.41074269 
 Total Free Energy (H0 + V/2 + non-elec)     =    -629.41630041 hartree
                                             = -394964.68970693 kcal/mol
***********************************************************

 SCF   energy in the final basis set =     -629.4163004066
 Total energy in the final basis set =     -629.4163004066


 --------------------------------------------------------------
  Generalized many-body perturbation theory program
  by Joonho Lee, Fazle Rob, Xintian Feng, Evgeny Epifanovsky

 No regularization used 
 (reg. param. = 0.0000e+00)
  (P|Q)^-1/2 Time:  CPU 14.19 s  wall 0.24 s

 In RI-MP2 calculation: 
 # of frozen core orbitals: 11

 Components of the RIMP2 correlation energy:
        aaaa    correlation energy =        -0.1457908163 a.u.
        abab    correlation energy =        -0.8875277674 a.u.
        bbbb    correlation energy =        -0.1457908163 a.u.
        non-Brillouin singles      =        -0.0000000000 a.u.
        total same-spin energy     =        -0.2915816326 a.u.
        total opposite-spin energy =        -0.8875277674 a.u.

 Total  RIMP2   correlation energy =        -1.1791094000 a.u.
        RIMP2         total energy =      -630.5954098066 a.u.

 RI-MP2 Energy Time:  CPU 42.81 s  wall 0.75 s
 
 --------------------------------------------------------------
 
                    Orbital Energies (a.u.)
 --------------------------------------------------------------
 
 Alpha MOs
 -- Occupied --
-91.9764 -11.2773 -11.2561 -11.2477 -11.2306 -11.2273 -11.2178  -8.9764
 -6.6573  -6.6567  -6.6562  -1.1608  -1.0527  -0.9982  -0.9399  -0.8848
 -0.7430  -0.7215  -0.6476  -0.5869  -0.5754  -0.5647  -0.5594  -0.5427
 -0.5109  -0.4912  -0.4629  -0.4460  -0.3373  -0.2953
 -- Virtual --
  0.1014   0.1449   0.1492   0.1759   0.1789   0.1897   0.2116   0.2240
  0.2316   0.2419   0.2520   0.2615   0.2973   0.3148   0.3436   0.3497
  0.3848   0.3927   0.4095   0.4228   0.4334   0.4547   0.4735   0.4897
  0.4906   0.4993   0.5258   0.5294   0.5448   0.5479   0.5739   0.5797
  0.5980   0.6043   0.6138   0.6196   0.6322   0.6363   0.6469   0.6512
  0.6559   0.6619   0.6836   0.7048   0.7237   0.7516   0.7628   0.7806
  0.8095   0.8280   0.8449   0.8593   0.8655   0.8905   0.9119   0.9333
  0.9557   0.9800   0.9912   1.0133   1.0296   1.0447   1.0615   1.0746
  1.0814   1.0851   1.1053   1.1382   1.1482   1.1752   1.1880   1.2089
  1.2169   1.2440   1.2543   1.2680   1.2846   1.2914   1.3131   1.3308
  1.3488   1.3822   1.3969   1.4145   1.4255   1.4393   1.4501   1.4752
  1.4935   1.5070   1.5154   1.5367   1.5457   1.5558   1.5746   1.5773
  1.5932   1.6317   1.6441   1.6772   1.6965   1.7002   1.7117   1.7378
  1.7615   1.7897   1.8008   1.8264   1.8790   1.9143   1.9350   1.9679
  1.9935   2.0394   2.1013   2.1454   2.1794   2.1949   2.2028   2.2251
  2.2643   2.2829   2.3685   2.4185   2.4663   2.4840   2.5354   2.5467
  2.5737   2.5900   2.6322   2.6598   2.6742   2.7051   2.7105   2.7427
  2.7459   2.7635   2.7783   2.7869   2.8126   2.8493   2.8602   2.8674
  2.9096   2.9099   2.9640   2.9775   2.9985   3.0226   3.0386   3.0524
  3.0800   3.0908   3.1126   3.1460   3.1540   3.1580   3.1712   3.1966
  3.1999   3.2348   3.2657   3.2815   3.2876   3.3083   3.3213   3.3277
  3.3458   3.3663   3.3903   3.3980   3.4073   3.4195   3.4232   3.4330
  3.4454   3.4808   3.4894   3.5051   3.5119   3.5346   3.5372   3.5634
  3.5798   3.5851   3.6168   3.6216   3.6427   3.6445   3.6567   3.6774
  3.6918   3.6992   3.7084   3.7285   3.7544   3.7761   3.7895   3.7943
  3.8201   3.8440   3.8604   3.8752   3.8836   3.9009   3.9402   3.9489
  3.9769   3.9809   4.0210   4.0302   4.0395   4.0664   4.1002   4.1077
  4.1219   4.1404   4.1603   4.1761   4.2093   4.2231   4.2335   4.2648
  4.2817   4.2898   4.3236   4.3340   4.3365   4.3773   4.3857   4.4004
  4.4101   4.4297   4.4339   4.4583   4.4798   4.5153   4.5467   4.5741
  4.6004   4.6204   4.6466   4.6856   4.7114   4.7406   4.7461   4.7864
  4.7991   4.8241   4.8728   4.8867   4.9090   4.9357   5.0648   5.0830
  5.1105   5.1303   5.1741   5.1953   5.2016   5.2637   5.2880   5.3218
  5.3650   5.4037   5.4143   5.4350   5.4800   5.5032   5.5550   5.5607
  5.5703   5.6223   5.6335   5.6623   5.7081   5.8052   5.8359   5.8986
  5.9475   6.0096   6.0687   6.1254   6.2273   6.2497   6.2916   6.3693
  6.4521   6.5669   9.2038  11.4183  12.9271  13.7264  14.1704  14.5590
 --------------------------------------------------------------
 
          Ground-State Mulliken Net Atomic Charges

     Atom                 Charge (a.u.)
  ----------------------------------------
      1 C                     0.038227
      2 C                    -0.285272
      3 C                     0.042808
      4 H                     0.176318
      5 C                    -0.257476
      6 S                    -0.000086
      7 C                    -0.273016
      8 H                     0.101395
      9 H                     0.107014
     10 H                     0.107172
     11 C                    -0.373453
     12 H                     0.131210
     13 H                     0.137160
     14 H                     0.155194
     15 H                     0.192807
  ----------------------------------------
  Sum of atomic charges =     0.000000

 -----------------------------------------------------------------
                    Cartesian Multipole Moments
 -----------------------------------------------------------------
    Charge (ESU x 10^10)
                -0.0000
    Dipole Moment (Debye)
         X      -0.0594      Y      -0.2846      Z       1.9399
       Tot       1.9615
    Quadrupole Moments (Debye-Ang)
        XX     -52.9127     XY       3.9800     YY     -43.1596
        XZ       0.3438     YZ      -0.6507     ZZ     -48.6385
    Octopole Moments (Debye-Ang^2)
       XXX     -35.9780    XXY     -27.3884    XYY      -7.7061
       YYY     -75.9947    XXZ      -3.2163    XYZ      -1.8725
       YYZ      -2.6259    XZZ     -10.2484    YZZ     -23.4737
       ZZZ      -0.9702
    Hexadecapole Moments (Debye-Ang^3)
      XXXX    -145.9135   XXXY    -103.9638   XXYY    -152.7499
      XYYY     -85.6805   YYYY    -747.5877   XXXZ     -31.6578
      XXYZ     -29.2632   XYYZ     -11.0689   YYYZ    -103.0279
      XXZZ    -111.2092   XYZZ     -28.4414   YYZZ    -203.9565
      XZZZ     -34.8640   YZZZ     -94.4163   ZZZZ    -491.5635
 -----------------------------------------------------------------
 Total job time:  18.43s(wall), 750.83s(cpu) 
 Fri Dec 15 13:59:14 2023

        *************************************************************
        *                                                           *
        *  Thank you very much for using Q-Chem.  Have a nice day.  *
        *                                                           *
        *************************************************************


0 sent ACK to 0 
now end server 0 ... 
cleanup process ... done
remove work dirs ./qchem19049.0 -- ./qchem19049.0
rm -rf ./qchem19049.0
rm -rf ./qchem19049
