You are running Q-Chem version: 5.4.0

#
# job setting
#
local host:  exp-7-20
current dir: /home/rramji/project-csd799/aromodel/p3ht-qchem/methylated-rotation-run
input file:  Methylthiophene_Phi_0_Theta_10_Methylthiophene_Hydrogenated_Improper.qcin
output file: 
nprocs     : 1
nthreads   : 64
#
# qchem installation setting
#
QC:          /cm/shared/apps/spack/cpu/opt/spack/linux-centos8-zen2/gcc-10.2.0/qchem-5.4-akfmr7b3t57bfs6qan3padb2wnb2i7cl
QCAUX:       /cm/shared/apps/spack/cpu/opt/spack/linux-centos8-zen2/gcc-10.2.0/qchem-5.4-akfmr7b3t57bfs6qan3padb2wnb2i7cl/qcaux
QCPROG:      /cm/shared/apps/spack/cpu/opt/spack/linux-centos8-zen2/gcc-10.2.0/qchem-5.4-akfmr7b3t57bfs6qan3padb2wnb2i7cl/exe/qcprog.exe
QCPROG_S:    /cm/shared/apps/spack/cpu/opt/spack/linux-centos8-zen2/gcc-10.2.0/qchem-5.4-akfmr7b3t57bfs6qan3padb2wnb2i7cl/exe/qcprog.exe_s
PARALLEL:    -DPARALLEL
QCMPI:       mpich
#
# qchem directory setting
#
qcrun:       qchem3253197
QCSCRATCH:   .
QCLOCALSCR:  
QCTMPDIR:    .
QCFILEPREF:  ./qchem3253197
QCSAVEDIR:   
workdirs:    ./qchem3253197
workdir0:    ./qchem3253197
partmpdirs =  
#
# parallel setting
#
QCRSH:           ssh
QCMPI:           mpich
QCMPIRUN:        /cm/shared/apps/spack/cpu/opt/spack/linux-centos8-zen2/gcc-10.2.0/qchem-5.4-akfmr7b3t57bfs6qan3padb2wnb2i7cl/bin/mpi/mpirun_qchem
QCMACHINEFILE:   ./qchem3253197/hostfile
exp-7-20

#
# env setting
#
exported envs:   QC QCAUX QCSCRATCH QCRUNNAME QCFILEPREF QCPROG QCPROG_S GUIFILE

Running Job 1 of 1 Methylthiophene_Phi_0_Theta_10_Methylthiophene_Hydrogenated_Improper.qcin
qchem Methylthiophene_Phi_0_Theta_10_Methylthiophene_Hydrogenated_Improper.qcin_3253197.0 ./qchem3253197/ 1
/cm/shared/apps/spack/cpu/opt/spack/linux-centos8-zen2/gcc-10.2.0/qchem-5.4-akfmr7b3t57bfs6qan3padb2wnb2i7cl/bin/mpi/mpirun_qchem -machinefile ./qchem3253197/hostfile -np 1 /cm/shared/apps/spack/cpu/opt/spack/linux-centos8-zen2/gcc-10.2.0/qchem-5.4-akfmr7b3t57bfs6qan3padb2wnb2i7cl/exe/qcprog.exe Methylthiophene_Phi_0_Theta_10_Methylthiophene_Hydrogenated_Improper.qcin_3253197.0 ./qchem3253197/

Process 0 of 1 is on exp-7-20 - thread support 0
initial socket setup ...start
initial socket setup ...done 
now start server 0 ... 
                  Welcome to Q-Chem
     A Quantum Leap Into The Future Of Chemistry


 Q-Chem 5.4, Q-Chem, Inc., Pleasanton, CA (2021)

 License issued to: University of California, San Diego (site)

 E. Epifanovsky,  A. T. B. Gilbert,  Xintian Feng,  Joonho Lee,  Yuezhi Mao,  
 N. Mardirossian,  P. Pokhilko,  A. White,  M. Wormit,  M. P. Coons,  
 A. L. Dempwolff,  Zhengting Gan,  D. Hait,  P. R. Horn,  L. D. Jacobson,  
 I. Kaliman,  J. Kussmann,  A. W. Lange,  Ka Un Lao,  D. S. Levine,  Jie Liu,  
 S. C. McKenzie,  A. F. Morrison,  K. Nanda,  F. Plasser,  D. R. Rehn,  
 M. L. Vidal,  Zhi-Qiang You,  Ying Zhu,  B. Alam,  B. Albrecht,  
 A. Aldossary,  E. Alguire,  J. H. Andersen,  D. Barton,  K. Begam,  A. Behn,  
 Y. A. Bernard,  E. J. Berquist,  H. Burton,  A. Carreras,  K. Carter-Fenk,  
 R. Chakraborty,  A. D. Chien,  K. D. Closser,  V. Cofer-Shabica,  
 S. Dasgupta,  Jia Deng,  M. de Wergifosse,  M. Diedenhofen,  Hainam Do,  
 S. Ehlert,  Po-Tung Fang,  S. Fatehi,  Qingguo Feng,  J. Gayvert,  
 Qinghui Ge,  G. Gidofalvi,  M. Goldey,  J. Gomes,  C. Gonzalez-Espinoza,  
 S. Gulania,  A. Gunina,  M. W. D. Hanson-Heine,  P. H. P. Harbach,  
 A. W. Hauser,  M. F. Herbst,  M. Hernandez Vera,  M. Hodecker,  
 Z. C. Holden,  S. Houck,  Xunkun Huang,  Kerwin Hui,  B. C. Huynh,  
 M. Ivanov,  Hyunjun Ji,  Hanjie Jiang,  B. Kaduk,  S. Kaehler,  
 K. Khistyaev,  Jaehoon Kim,  P. Klunzinger,  Z. Koczor-Benda,  
 Joong Hoon Koh,  D. Kosenkov,  L. Koulias,  T. Kowalczyk,  C. M. Krauter,  
 K. Kue,  A. Kunitsa,  T. Kus,  A. Landau,  K. V. Lawler,  D. Lefrancois,  
 S. Lehtola,  Rain Li,  Yi-Pei Li,  Jiashu Liang,  M. Liebenthal,  
 Hung-Hsuan Lin,  You-Sheng Lin,  Fenglai Liu,  Kuan-Yu Liu,  
 M. Loipersberger,  A. Luenser,  A. Manjanath,  P. Manohar,  E. Mansoor,  
 S. F. Manzer,  Shan-Ping Mao,  A. V. Marenich,  T. Markovich,  S. Mason,  
 S. A. Maurer,  P. F. McLaughlin,  M. F. S. J. Menger,  J.-M. Mewes,  
 S. A. Mewes,  P. Morgante,  J. W. Mullinax,  T. S. Nguyen-Beck,  
 K. J. Oosterbaan,  G. Paran,  Alexander C. Paul,  Suranjan K. Paul,  
 F. Pavosevic,  Zheng Pei,  S. Prager,  E. I. Proynov,  E. Ramos,  B. Rana,  
 A. E. Rask,  A. Rettig,  R. M. Richard,  F. Rob,  E. Rossomme,  T. Scheele,  
 M. Scheurer,  M. Schneider,  N. Sergueev,  S. M. Sharada,  W. Skomorowski,  
 D. W. Small,  C. J. Stein,  Yu-Chuan Su,  E. J. Sundstrom,  Zhen Tao,  
 J. Thirman,  T. Tsuchimochi,  N. M. Tubman,  S. P. Veccham,  O. Vydrov,  
 J. Wenzel,  J. Witte,  A. Yamada,  Kun Yao,  S. Yeganeh,  S. R. Yost,  
 A. Zech,  Igor Ying Zhang,  Xing Zhang,  Yu Zhang,  D. Zuev,  
 A. Aspuru-Guzik,  A. T. Bell,  N. A. Besley,  K. B. Bravaya,  B. R. Brooks,  
 D. Casanova,  Jeng-Da Chai,  S. Coriani,  C. J. Cramer,  
 A. E. DePrince, III,  R. A. DiStasio Jr.,  A. Dreuw,  B. D. Dunietz,  
 T. R. Furlani,  W. A. Goddard III,  S. Grimme,  S. Hammes-Schiffer,  
 T. Head-Gordon,  W. J. Hehre,  Chao-Ping Hsu,  T.-C. Jagau,  Yousung Jung,  
 A. Klamt,  Jing Kong,  D. S. Lambrecht,  WanZhen Liang,  N. J. Mayhall,  
 C. W. McCurdy,  J. B. Neaton,  C. Ochsenfeld,  J. A. Parkhill,  R. Peverati,  
 V. A. Rassolov,  Yihan Shao,  L. V. Slipchenko,  T. Stauch,  R. P. Steele,  
 J. E. Subotnik,  A. J. W. Thom,  A. Tkatchenko,  D. G. Truhlar,  
 T. Van Voorhis,  T. A. Wesolowski,  K. B. Whaley,  H. L. Woodcock III,  
 P. M. Zimmerman,  S. Faraji,  P. M. W. Gill,  M. Head-Gordon,  
 J. M. Herbert,  A. I. Krylov

 Contributors to earlier versions of Q-Chem not listed above: 
 R. D. Adamson,  B. Austin,  R. Baer,  J. Baker,  G. J. O. Beran,  
 K. Brandhorst,  S. T. Brown,  E. F. C. Byrd,  A. K. Chakraborty,  
 G. K. L. Chan,  Chun-Min Chang,  Yunqing Chen,  C.-L. Cheng,  
 Siu Hung Chien,  D. M. Chipman,  D. L. Crittenden,  H. Dachsel,  
 R. J. Doerksen,  A. D. Dutoi,  R. G. Edgar,  J. Fosso-Tande,  
 L. Fusti-Molnar,  D. Ghosh,  A. Ghysels,  A. Golubeva-Zadorozhnaya,  
 J. Gonthier,  M. S. Gordon,  S. R. Gwaltney,  G. Hawkins,  J. E. Herr,  
 A. Heyden,  S. Hirata,  E. G. Hohenstein,  G. Kedziora,  F. J. Keil,  
 C. Kelley,  Jihan Kim,  R. A. King,  R. Z. Khaliullin,  P. P. Korambath,  
 W. Kurlancheek,  A. Laurent,  A. M. Lee,  M. S. Lee,  S. V. Levchenko,  
 Ching Yeh Lin,  D. Liotard,  E. Livshits,  R. C. Lochan,  I. Lotan,  
 L. A. Martinez-Martinez,  P. E. Maslen,  N. Nair,  D. P. O'Neill,  
 D. Neuhauser,  E. Neuscamman,  C. M. Oana,  R. Olivares-Amaya,  R. Olson,  
 T. M. Perrine,  B. Peters,  P. A. Pieniazek,  A. Prociuk,  Y. M. Rhee,  
 J. Ritchie,  M. A. Rohrdanz,  E. Rosta,  N. J. Russ,  H. F. Schaefer III,  
 M. W. Schmidt,  N. E. Schultz,  S. Sharma,  N. Shenvi,  C. D. Sherrill,  
 A. C. Simmonett,  A. Sodt,  T. Stein,  D. Stuck,  K. S. Thanthiriwatte,  
 V. Vanovschi,  L. Vogt,  Tao Wang,  A. Warshel,  M. A. Watson,  
 C. F. Williams,  Q. Wu,  X. Xu,  Jun Yang,  W. Zhang,  Yan Zhao

 Please cite Q-Chem as follows:
 Y. Shao et al., Mol. Phys. 113, 184-215 (2015)
 DOI: 10.1080/00268976.2014.952696

 Q-Chem 5.4.0 for Intel X86 EM64T Linux

 Parts of Q-Chem use Armadillo 9.800.1 (Horizon Scraper).
 http://arma.sourceforge.net/

 Q-Chem begins on Fri Dec 15 13:54:26 2023  

 Host: 
0

     Scratch files written to ./qchem3253197//
 May1621 |scratch|qcdevops|jenkins|workspace|build_RNUM    
 Parallel job on  1  processors
 Processing $rem in /cm/shared/apps/spack/cpu/opt/spack/linux-centos8-zen2/gcc-10.2.0/qchem-5.4-akfmr7b3t57bfs6qan3padb2wnb2i7cl/config/preferences:
 Processing $rem in /home/rramji/.qchemrc:
 Symmetry turned off for PCM/SM12/SMD calculation
 Core orbitals will be frozen

 Checking the input file for inconsistencies... 	...done.

 Q-Chem warning in module forms1/BasisType.C, line 2236:

 You are not using the predefined 5D/6D in this basis set.


--------------------------------------------------------------
User input:
--------------------------------------------------------------
$molecule
0 1
C	-0.004119	-0.576256	0.011707
C	-0.004519	0.290944	1.107207
C	-0.004819	1.675644	0.786507
H	-0.004419	-0.076056	2.144807
C	-0.004719	1.895444	-0.602493
S	-0.004719	0.364244	-1.472593
C	-0.005119	2.761644	1.826307
H	-0.005019	2.334444	2.847807
H	-0.897619	3.415844	1.738707
H	0.887281	3.416144	1.738807
C	-0.008719	-2.026056	0.041307
H	1.054881	-2.026056	0.228907
H	-0.173519	-2.541656	0.975907
H	0.133481	-2.730356	-0.765093
H	-0.005019	2.842444	-1.155393
$end

$rem
JOBTYPE		SP
EXCHANGE	HF
CORRELATION	pRIMP2
BASIS		cc-pvtz
METHOD		rimp2
AUX_BASIS	rimp2-cc-pvtz
SOLVENT_METHOD	PCM
PURECART	11111
SYMMETRY	false
MEM_TOTAL	110000
SCF_CONVERGENCE = 6
THRESH=10
GUI = 2
$end



$solvent
dielectric 4.90
$end
--------------------------------------------------------------
 ----------------------------------------------------------------
             Standard Nuclear Orientation (Angstroms)
    I     Atom           X                Y                Z
 ----------------------------------------------------------------
    1      C      -0.0041190000    -0.5762560000     0.0117070000
    2      C      -0.0045190000     0.2909440000     1.1072070000
    3      C      -0.0048190000     1.6756440000     0.7865070000
    4      H      -0.0044190000    -0.0760560000     2.1448070000
    5      C      -0.0047190000     1.8954440000    -0.6024930000
    6      S      -0.0047190000     0.3642440000    -1.4725930000
    7      C      -0.0051190000     2.7616440000     1.8263070000
    8      H      -0.0050190000     2.3344440000     2.8478070000
    9      H      -0.8976190000     3.4158440000     1.7387070000
   10      H       0.8872810000     3.4161440000     1.7388070000
   11      C      -0.0087190000    -2.0260560000     0.0413070000
   12      H       1.0548810000    -2.0260560000     0.2289070000
   13      H      -0.1735190000    -2.5416560000     0.9759070000
   14      H       0.1334810000    -2.7303560000    -0.7650930000
   15      H      -0.0050190000     2.8424440000    -1.1553930000
 ----------------------------------------------------------------
 Nuclear Repulsion Energy =         344.06361561 hartrees
 There are       30 alpha and       30 beta electrons
 Requested basis set is cc-pVTZ
 There are 120 shells and 326 basis functions

 Total QAlloc Memory Limit 110000 MB
 Mega-Array Size       188 MB
 MEM_STATIC part       192 MB
 Discretize the solute cavity surface with Lebedev spheres
	Using 110 Lebedev grid points for each H atom
	Using 194 Lebedev grid points for other atoms
	Atomic van der Waals radii will be scaled by 1.20
 Remove points where switching function is < 1.0e-08
 Keep 1062 surface tesserae and discard 1176 interior tesserae
 Molecular Surface Area = 159.766 Angst**2

                       Distance Matrix (Angstroms)
             C (  1)   C (  2)   C (  3)   H (  4)   C (  5)   S (  6)
   C (  2)  1.397196
   C (  3)  2.381464  1.421352
   H (  4)  2.190962  1.100592  2.216626
   C (  5)  2.546869  2.344674  1.406283  3.381489
   S (  6)  1.757182  2.580841  2.612145  3.644098  1.761149
   C (  7)  3.799257  2.573220  1.503523  2.855518  2.578638  4.078023
   H (  8)  4.063944  2.684321  2.164018  2.510920  3.478116  4.748425
   H (  9)  4.440465  3.310804  2.175333  3.627132  2.930888  4.519069
   H ( 10)  4.440352  3.310755  2.175329  3.627041  2.930849  4.519164
   C ( 11)  1.450109  2.550421  3.775966  2.868315  3.973998  2.829389
   H ( 12)  1.808474  2.694852  3.890561  2.931772  4.146341  3.119517
   H ( 13)  2.195717  2.840673  4.224920  2.733881  4.712504  3.803669
   H ( 14)  2.294014  3.557078  4.673267  3.941046  4.630720  3.177453
   H ( 15)  3.612428  3.410207  2.265480  4.405560  1.096589  2.498418
             C (  7)   H (  8)   H (  9)   H ( 10)   C ( 11)   H ( 12)
   H (  8)  1.107232
   H (  9)  1.110048  1.787810
   H ( 10)  1.110137  1.787779  1.784900
   C ( 11)  5.109629  5.185597  5.769366  5.770777
   H ( 12)  5.157263  5.195766  5.975452  5.650259  1.080018
   H ( 13)  5.373689  5.225778  6.049627  6.099401  1.080037  1.527357
   H ( 14)  6.074259  6.222895  6.716246  6.679610  1.080065  1.527433
   H ( 15)  2.982795  4.035303  3.082424  3.082487  5.013422  5.171264
             H ( 13)   H ( 14)
   H ( 14)  1.777903
   H ( 15)  5.793045  5.588168
 
 Requested basis set is rimp2-cc-pVTZ
 There are 250 shells and 848 basis functions
 A cutoff of  1.0D-10 yielded   6158 shell pairs
 There are     45076 function pairs (     57960 Cartesian)
 Smallest overlap matrix eigenvalue = 7.90E-05

 Scale SEOQF with 1.000000e+00/1.000000e-01/1.000000e-01

 Standard Electronic Orientation quadrupole field applied
 Nucleus-field energy     =     0.0000000034 hartrees
 Guess from superposition of atomic densities
 Warning:  Energy on first SCF cycle will be non-variational
 SAD guess density has 60.000000 electrons

 -----------------------------------------------------------------------
  General SCF calculation program by
  Eric Jon Sundstrom, Paul Horn, Yuezhi Mao, Dmitri Zuev, Alec White,
  David Stuck, Shaama M.S., Shane Yost, Joonho Lee, David Small,
  Daniel Levine, Susi Lehtola, Hugh Burton, Evgeny Epifanovsky,
  Bang C. Huynh
 -----------------------------------------------------------------------
 Hartree-Fock
 using 64 threads for integral computing
 -------------------------------------------------------
 OpenMP Integral computing Module                
 Release: version 1.0, May 2013, Q-Chem Inc. Pittsburgh 
 -------------------------------------------------------
 A restricted SCF calculation will be
 performed using DIIS
 SCF converges when DIIS error is below 1.0e-06
 ---------------------------------------
  Cycle       Energy         DIIS error
 ---------------------------------------
    1    -632.0787439014      2.91e-02  
    2    -629.3450498627      1.95e-03  
    3    -629.4155074789      7.12e-04  
    4    -629.4233128004      3.66e-04  
    5    -629.4256336557      6.15e-05  
    6    -629.4257630775      2.56e-05  
    7    -629.4257939228      1.10e-05  
    8    -629.4258025070      5.09e-06  
    9    -629.4258039350      1.67e-06  
   10    -629.4258041144      6.76e-07  Convergence criterion met
 ---------------------------------------
 SCF time:   CPU 674.76s  wall 14.00s 

************** Final PCM Free Energy Summary **************
 G_electrostatic  =      -0.00594294 hartree =      -3.72925026 kcal/mol
 G_cavitation     =       0.00000000 hartree =       0.00000000 kcal/mol
 G_dispersion     =       0.00000000 hartree =       0.00000000 kcal/mol
 G_repulsion      =       0.00000000 hartree =       0.00000000 kcal/mol
 --------------------------------------------------
 Non-electrostatic Free Energy =       0.00000000 hartree =       0.00000000 kcal/mol
 Total                         =      -0.00594294 hartree =      -3.72925026 kcal/mol
 --------------------------------------------------
 SCF Energy (H0 + V/2)                       =    -629.42580411 
 Solute Internal Energy (H0)                 =    -629.41986118 
 Total Free Energy (H0 + V/2 + non-elec)     =    -629.42580411 hartree
                                             = -394970.65337360 kcal/mol
***********************************************************

 SCF   energy in the final basis set =     -629.4258041144
 Total energy in the final basis set =     -629.4258041144


 --------------------------------------------------------------
  Generalized many-body perturbation theory program
  by Joonho Lee, Fazle Rob, Xintian Feng, Evgeny Epifanovsky

 No regularization used 
 (reg. param. = 0.0000e+00)
  (P|Q)^-1/2 Time:  CPU 7.31 s  wall 0.12 s

 In RI-MP2 calculation: 
 # of frozen core orbitals: 11

 Components of the RIMP2 correlation energy:
        aaaa    correlation energy =        -0.1450993274 a.u.
        abab    correlation energy =        -0.8850135780 a.u.
        bbbb    correlation energy =        -0.1450993274 a.u.
        non-Brillouin singles      =        -0.0000000000 a.u.
        total same-spin energy     =        -0.2901986548 a.u.
        total opposite-spin energy =        -0.8850135780 a.u.

 Total  RIMP2   correlation energy =        -1.1752122328 a.u.
        RIMP2         total energy =      -630.6010163473 a.u.

 RI-MP2 Energy Time:  CPU 36.50 s  wall 0.61 s
 
 --------------------------------------------------------------
 
                    Orbital Energies (a.u.)
 --------------------------------------------------------------
 
 Alpha MOs
 -- Occupied --
-91.9785 -11.2866 -11.2487 -11.2472 -11.2266 -11.2231 -11.2229  -8.9782
 -6.6592  -6.6586  -6.6580  -1.1599  -1.0545  -0.9978  -0.9407  -0.8840
 -0.7432  -0.7184  -0.6470  -0.5892  -0.5737  -0.5702  -0.5539  -0.5447
 -0.5077  -0.4945  -0.4658  -0.4558  -0.3378  -0.2894
 -- Virtual --
  0.1153   0.1452   0.1472   0.1749   0.1879   0.1905   0.2109   0.2192
  0.2282   0.2390   0.2473   0.2585   0.2957   0.3269   0.3442   0.3534
  0.3850   0.3908   0.4041   0.4182   0.4334   0.4572   0.4706   0.4938
  0.5051   0.5132   0.5186   0.5329   0.5454   0.5542   0.5762   0.5911
  0.6000   0.6039   0.6146   0.6305   0.6331   0.6397   0.6453   0.6485
  0.6570   0.6690   0.6851   0.7056   0.7123   0.7524   0.7833   0.7912
  0.8205   0.8361   0.8513   0.8574   0.8825   0.8860   0.9080   0.9333
  0.9451   0.9738   1.0005   1.0261   1.0432   1.0491   1.0559   1.0763
  1.0848   1.0877   1.0988   1.1173   1.1434   1.1654   1.1713   1.2082
  1.2370   1.2476   1.2572   1.2661   1.2759   1.2970   1.2983   1.3415
  1.3607   1.3882   1.3952   1.4095   1.4316   1.4396   1.4556   1.4836
  1.5017   1.5075   1.5204   1.5390   1.5503   1.5578   1.5717   1.5868
  1.5986   1.6299   1.6432   1.6787   1.6907   1.7024   1.7331   1.7497
  1.7798   1.7926   1.8040   1.8477   1.8943   1.9196   1.9509   1.9585
  2.0154   2.0499   2.0853   2.1421   2.1810   2.2015   2.2303   2.2581
  2.2838   2.3152   2.3283   2.4140   2.4604   2.4769   2.4914   2.5265
  2.5661   2.5881   2.6530   2.6765   2.6805   2.7062   2.7173   2.7251
  2.7411   2.7679   2.7786   2.7799   2.8196   2.8375   2.8536   2.8797
  2.9157   2.9350   2.9435   2.9705   3.0133   3.0175   3.0417   3.0575
  3.0975   3.1142   3.1205   3.1372   3.1531   3.1586   3.1777   3.1828
  3.2333   3.2352   3.2622   3.2743   3.3017   3.3064   3.3186   3.3275
  3.3316   3.3561   3.3851   3.3896   3.3938   3.4103   3.4278   3.4389
  3.4459   3.4630   3.4692   3.4834   3.5072   3.5159   3.5220   3.5561
  3.5883   3.5940   3.6105   3.6178   3.6303   3.6489   3.6670   3.6811
  3.6873   3.7033   3.7159   3.7246   3.7450   3.7730   3.7849   3.8009
  3.8087   3.8421   3.8737   3.8805   3.9173   3.9183   3.9391   3.9569
  3.9839   3.9881   4.0226   4.0306   4.0413   4.0561   4.0993   4.1046
  4.1285   4.1348   4.1697   4.2140   4.2261   4.2310   4.2412   4.2716
  4.2967   4.3015   4.3184   4.3237   4.3522   4.3753   4.3992   4.4053
  4.4270   4.4284   4.4376   4.4654   4.4716   4.5104   4.5366   4.5583
  4.5998   4.6063   4.6430   4.6869   4.7052   4.7438   4.7480   4.7794
  4.8078   4.8269   4.8786   4.8958   4.9093   4.9305   5.0929   5.1001
  5.1255   5.1332   5.1647   5.2035   5.2144   5.2660   5.2881   5.3349
  5.3750   5.4077   5.4169   5.4430   5.4636   5.5114   5.5506   5.5626
  5.5808   5.6082   5.6237   5.6474   5.6991   5.8039   5.8211   5.8824
  5.9301   5.9725   6.1173   6.2018   6.2270   6.2516   6.3200   6.4151
  6.4300   6.5728   9.2212  11.4406  12.9699  13.7990  14.1722  14.6220
 --------------------------------------------------------------
 
          Ground-State Mulliken Net Atomic Charges

     Atom                 Charge (a.u.)
  ----------------------------------------
      1 C                     0.065370
      2 C                    -0.306630
      3 C                     0.047638
      4 H                     0.174651
      5 C                    -0.279709
      6 S                     0.000562
      7 C                    -0.274829
      8 H                     0.101418
      9 H                     0.107339
     10 H                     0.107419
     11 C                    -0.385706
     12 H                     0.144098
     13 H                     0.144482
     14 H                     0.161142
     15 H                     0.192755
  ----------------------------------------
  Sum of atomic charges =     0.000000

 -----------------------------------------------------------------
                    Cartesian Multipole Moments
 -----------------------------------------------------------------
    Charge (ESU x 10^10)
                -0.0000
    Dipole Moment (Debye)
         X       0.7277      Y      -0.7489      Z       1.5503
       Tot       1.8691
    Quadrupole Moments (Debye-Ang)
        XX     -54.4014     XY      -1.5711     YY     -41.6537
        XZ      -0.0544     YZ       0.1556     ZZ     -48.5997
    Octopole Moments (Debye-Ang^2)
       XXX      -0.4115    XXY     -31.3341    XYY       2.9526
       YYY     -83.0481    XXZ      -2.0788    XYZ       0.3673
       YYZ      -4.2152    XZZ      -0.3021    YZZ     -26.2351
       ZZZ       0.3116
    Hexadecapole Moments (Debye-Ang^3)
      XXXX     -77.6383   XXXY       3.0322   XXYY    -164.4967
      XYYY      -4.5426   YYYY    -811.6269   XXXZ       0.4302
      XXYZ     -29.2646   XYYZ      -1.2705   YYYZ     -99.2323
      XXZZ    -102.1150   XYZZ       1.0313   YYZZ    -210.2920
      XZZZ      -0.0353   YZZZ     -99.5064   ZZZZ    -483.7919
 -----------------------------------------------------------------
 Total job time:  19.53s(wall), 753.80s(cpu) 
 Fri Dec 15 13:54:46 2023

        *************************************************************
        *                                                           *
        *  Thank you very much for using Q-Chem.  Have a nice day.  *
        *                                                           *
        *************************************************************


0 sent ACK to 0 
now end server 0 ... 
cleanup process ... done
remove work dirs ./qchem3253197.0 -- ./qchem3253197.0
rm -rf ./qchem3253197.0
rm -rf ./qchem3253197
