You are running Q-Chem version: 5.4.0

#
# job setting
#
local host:  exp-7-23
current dir: /home/rramji/project-csd799/aromodel/p3ht-qchem/methylated-rotation-run
input file:  Methylthiophene_Phi_30_Theta_190_Methylthiophene_Hydrogenated_Improper.qcin
output file: 
nprocs     : 1
nthreads   : 64
#
# qchem installation setting
#
QC:          /cm/shared/apps/spack/cpu/opt/spack/linux-centos8-zen2/gcc-10.2.0/qchem-5.4-akfmr7b3t57bfs6qan3padb2wnb2i7cl
QCAUX:       /cm/shared/apps/spack/cpu/opt/spack/linux-centos8-zen2/gcc-10.2.0/qchem-5.4-akfmr7b3t57bfs6qan3padb2wnb2i7cl/qcaux
QCPROG:      /cm/shared/apps/spack/cpu/opt/spack/linux-centos8-zen2/gcc-10.2.0/qchem-5.4-akfmr7b3t57bfs6qan3padb2wnb2i7cl/exe/qcprog.exe
QCPROG_S:    /cm/shared/apps/spack/cpu/opt/spack/linux-centos8-zen2/gcc-10.2.0/qchem-5.4-akfmr7b3t57bfs6qan3padb2wnb2i7cl/exe/qcprog.exe_s
PARALLEL:    -DPARALLEL
QCMPI:       mpich
#
# qchem directory setting
#
qcrun:       qchem644521
QCSCRATCH:   .
QCLOCALSCR:  
QCTMPDIR:    .
QCFILEPREF:  ./qchem644521
QCSAVEDIR:   
workdirs:    ./qchem644521
workdir0:    ./qchem644521
partmpdirs =  
#
# parallel setting
#
QCRSH:           ssh
QCMPI:           mpich
QCMPIRUN:        /cm/shared/apps/spack/cpu/opt/spack/linux-centos8-zen2/gcc-10.2.0/qchem-5.4-akfmr7b3t57bfs6qan3padb2wnb2i7cl/bin/mpi/mpirun_qchem
QCMACHINEFILE:   ./qchem644521/hostfile
exp-7-23

#
# env setting
#
exported envs:   QC QCAUX QCSCRATCH QCRUNNAME QCFILEPREF QCPROG QCPROG_S GUIFILE

Running Job 1 of 1 Methylthiophene_Phi_30_Theta_190_Methylthiophene_Hydrogenated_Improper.qcin
qchem Methylthiophene_Phi_30_Theta_190_Methylthiophene_Hydrogenated_Improper.qcin_644521.0 ./qchem644521/ 1
/cm/shared/apps/spack/cpu/opt/spack/linux-centos8-zen2/gcc-10.2.0/qchem-5.4-akfmr7b3t57bfs6qan3padb2wnb2i7cl/bin/mpi/mpirun_qchem -machinefile ./qchem644521/hostfile -np 1 /cm/shared/apps/spack/cpu/opt/spack/linux-centos8-zen2/gcc-10.2.0/qchem-5.4-akfmr7b3t57bfs6qan3padb2wnb2i7cl/exe/qcprog.exe Methylthiophene_Phi_30_Theta_190_Methylthiophene_Hydrogenated_Improper.qcin_644521.0 ./qchem644521/

Process 0 of 1 is on exp-7-23 - thread support 0
initial socket setup ...start
initial socket setup ...done 
now start server 0 ... 
                  Welcome to Q-Chem
     A Quantum Leap Into The Future Of Chemistry


 Q-Chem 5.4, Q-Chem, Inc., Pleasanton, CA (2021)

 License issued to: University of California, San Diego (site)

 E. Epifanovsky,  A. T. B. Gilbert,  Xintian Feng,  Joonho Lee,  Yuezhi Mao,  
 N. Mardirossian,  P. Pokhilko,  A. White,  M. Wormit,  M. P. Coons,  
 A. L. Dempwolff,  Zhengting Gan,  D. Hait,  P. R. Horn,  L. D. Jacobson,  
 I. Kaliman,  J. Kussmann,  A. W. Lange,  Ka Un Lao,  D. S. Levine,  Jie Liu,  
 S. C. McKenzie,  A. F. Morrison,  K. Nanda,  F. Plasser,  D. R. Rehn,  
 M. L. Vidal,  Zhi-Qiang You,  Ying Zhu,  B. Alam,  B. Albrecht,  
 A. Aldossary,  E. Alguire,  J. H. Andersen,  D. Barton,  K. Begam,  A. Behn,  
 Y. A. Bernard,  E. J. Berquist,  H. Burton,  A. Carreras,  K. Carter-Fenk,  
 R. Chakraborty,  A. D. Chien,  K. D. Closser,  V. Cofer-Shabica,  
 S. Dasgupta,  Jia Deng,  M. de Wergifosse,  M. Diedenhofen,  Hainam Do,  
 S. Ehlert,  Po-Tung Fang,  S. Fatehi,  Qingguo Feng,  J. Gayvert,  
 Qinghui Ge,  G. Gidofalvi,  M. Goldey,  J. Gomes,  C. Gonzalez-Espinoza,  
 S. Gulania,  A. Gunina,  M. W. D. Hanson-Heine,  P. H. P. Harbach,  
 A. W. Hauser,  M. F. Herbst,  M. Hernandez Vera,  M. Hodecker,  
 Z. C. Holden,  S. Houck,  Xunkun Huang,  Kerwin Hui,  B. C. Huynh,  
 M. Ivanov,  Hyunjun Ji,  Hanjie Jiang,  B. Kaduk,  S. Kaehler,  
 K. Khistyaev,  Jaehoon Kim,  P. Klunzinger,  Z. Koczor-Benda,  
 Joong Hoon Koh,  D. Kosenkov,  L. Koulias,  T. Kowalczyk,  C. M. Krauter,  
 K. Kue,  A. Kunitsa,  T. Kus,  A. Landau,  K. V. Lawler,  D. Lefrancois,  
 S. Lehtola,  Rain Li,  Yi-Pei Li,  Jiashu Liang,  M. Liebenthal,  
 Hung-Hsuan Lin,  You-Sheng Lin,  Fenglai Liu,  Kuan-Yu Liu,  
 M. Loipersberger,  A. Luenser,  A. Manjanath,  P. Manohar,  E. Mansoor,  
 S. F. Manzer,  Shan-Ping Mao,  A. V. Marenich,  T. Markovich,  S. Mason,  
 S. A. Maurer,  P. F. McLaughlin,  M. F. S. J. Menger,  J.-M. Mewes,  
 S. A. Mewes,  P. Morgante,  J. W. Mullinax,  T. S. Nguyen-Beck,  
 K. J. Oosterbaan,  G. Paran,  Alexander C. Paul,  Suranjan K. Paul,  
 F. Pavosevic,  Zheng Pei,  S. Prager,  E. I. Proynov,  E. Ramos,  B. Rana,  
 A. E. Rask,  A. Rettig,  R. M. Richard,  F. Rob,  E. Rossomme,  T. Scheele,  
 M. Scheurer,  M. Schneider,  N. Sergueev,  S. M. Sharada,  W. Skomorowski,  
 D. W. Small,  C. J. Stein,  Yu-Chuan Su,  E. J. Sundstrom,  Zhen Tao,  
 J. Thirman,  T. Tsuchimochi,  N. M. Tubman,  S. P. Veccham,  O. Vydrov,  
 J. Wenzel,  J. Witte,  A. Yamada,  Kun Yao,  S. Yeganeh,  S. R. Yost,  
 A. Zech,  Igor Ying Zhang,  Xing Zhang,  Yu Zhang,  D. Zuev,  
 A. Aspuru-Guzik,  A. T. Bell,  N. A. Besley,  K. B. Bravaya,  B. R. Brooks,  
 D. Casanova,  Jeng-Da Chai,  S. Coriani,  C. J. Cramer,  
 A. E. DePrince, III,  R. A. DiStasio Jr.,  A. Dreuw,  B. D. Dunietz,  
 T. R. Furlani,  W. A. Goddard III,  S. Grimme,  S. Hammes-Schiffer,  
 T. Head-Gordon,  W. J. Hehre,  Chao-Ping Hsu,  T.-C. Jagau,  Yousung Jung,  
 A. Klamt,  Jing Kong,  D. S. Lambrecht,  WanZhen Liang,  N. J. Mayhall,  
 C. W. McCurdy,  J. B. Neaton,  C. Ochsenfeld,  J. A. Parkhill,  R. Peverati,  
 V. A. Rassolov,  Yihan Shao,  L. V. Slipchenko,  T. Stauch,  R. P. Steele,  
 J. E. Subotnik,  A. J. W. Thom,  A. Tkatchenko,  D. G. Truhlar,  
 T. Van Voorhis,  T. A. Wesolowski,  K. B. Whaley,  H. L. Woodcock III,  
 P. M. Zimmerman,  S. Faraji,  P. M. W. Gill,  M. Head-Gordon,  
 J. M. Herbert,  A. I. Krylov

 Contributors to earlier versions of Q-Chem not listed above: 
 R. D. Adamson,  B. Austin,  R. Baer,  J. Baker,  G. J. O. Beran,  
 K. Brandhorst,  S. T. Brown,  E. F. C. Byrd,  A. K. Chakraborty,  
 G. K. L. Chan,  Chun-Min Chang,  Yunqing Chen,  C.-L. Cheng,  
 Siu Hung Chien,  D. M. Chipman,  D. L. Crittenden,  H. Dachsel,  
 R. J. Doerksen,  A. D. Dutoi,  R. G. Edgar,  J. Fosso-Tande,  
 L. Fusti-Molnar,  D. Ghosh,  A. Ghysels,  A. Golubeva-Zadorozhnaya,  
 J. Gonthier,  M. S. Gordon,  S. R. Gwaltney,  G. Hawkins,  J. E. Herr,  
 A. Heyden,  S. Hirata,  E. G. Hohenstein,  G. Kedziora,  F. J. Keil,  
 C. Kelley,  Jihan Kim,  R. A. King,  R. Z. Khaliullin,  P. P. Korambath,  
 W. Kurlancheek,  A. Laurent,  A. M. Lee,  M. S. Lee,  S. V. Levchenko,  
 Ching Yeh Lin,  D. Liotard,  E. Livshits,  R. C. Lochan,  I. Lotan,  
 L. A. Martinez-Martinez,  P. E. Maslen,  N. Nair,  D. P. O'Neill,  
 D. Neuhauser,  E. Neuscamman,  C. M. Oana,  R. Olivares-Amaya,  R. Olson,  
 T. M. Perrine,  B. Peters,  P. A. Pieniazek,  A. Prociuk,  Y. M. Rhee,  
 J. Ritchie,  M. A. Rohrdanz,  E. Rosta,  N. J. Russ,  H. F. Schaefer III,  
 M. W. Schmidt,  N. E. Schultz,  S. Sharma,  N. Shenvi,  C. D. Sherrill,  
 A. C. Simmonett,  A. Sodt,  T. Stein,  D. Stuck,  K. S. Thanthiriwatte,  
 V. Vanovschi,  L. Vogt,  Tao Wang,  A. Warshel,  M. A. Watson,  
 C. F. Williams,  Q. Wu,  X. Xu,  Jun Yang,  W. Zhang,  Yan Zhao

 Please cite Q-Chem as follows:
 Y. Shao et al., Mol. Phys. 113, 184-215 (2015)
 DOI: 10.1080/00268976.2014.952696

 Q-Chem 5.4.0 for Intel X86 EM64T Linux

 Parts of Q-Chem use Armadillo 9.800.1 (Horizon Scraper).
 http://arma.sourceforge.net/

 Q-Chem begins on Fri Dec 15 14:00:27 2023  

 Host: 
0

     Scratch files written to ./qchem644521//
 May1621 |scratch|qcdevops|jenkins|workspace|build_RNUM    
 Parallel job on  1  processors
 Processing $rem in /cm/shared/apps/spack/cpu/opt/spack/linux-centos8-zen2/gcc-10.2.0/qchem-5.4-akfmr7b3t57bfs6qan3padb2wnb2i7cl/config/preferences:
 Processing $rem in /home/rramji/.qchemrc:
 Symmetry turned off for PCM/SM12/SMD calculation
 Core orbitals will be frozen

 Checking the input file for inconsistencies... 	...done.

 Q-Chem warning in module forms1/BasisType.C, line 2236:

 You are not using the predefined 5D/6D in this basis set.


--------------------------------------------------------------
User input:
--------------------------------------------------------------
$molecule
0 1
C	-0.332759	-0.486609	0.002537
C	0.086841	0.246391	1.115537
C	0.778341	1.453391	0.823137
H	-0.106059	-0.090409	2.145437
C	0.901841	1.668591	-0.561063
S	0.149341	0.355791	-1.462163
C	1.307541	2.377091	1.884937
H	1.084741	1.988491	2.897537
H	0.859241	3.389991	1.810637
H	2.407941	2.502691	1.810737
C	-0.332759	-1.936709	0.002537
H	-1.396359	-1.937209	-0.184963
H	-0.169659	-2.471809	-0.921363
H	-0.477159	-2.623909	0.823137
H	1.377941	2.499891	-1.094563
$end

$rem
JOBTYPE		SP
EXCHANGE	HF
CORRELATION	pRIMP2
BASIS		cc-pvtz
METHOD		rimp2
AUX_BASIS	rimp2-cc-pvtz
SOLVENT_METHOD	PCM
PURECART	11111
SYMMETRY	false
MEM_TOTAL	110000
SCF_CONVERGENCE = 6
THRESH=10
GUI = 2
$end



$solvent
dielectric 4.90
$end
--------------------------------------------------------------
 ----------------------------------------------------------------
             Standard Nuclear Orientation (Angstroms)
    I     Atom           X                Y                Z
 ----------------------------------------------------------------
    1      C      -0.3327590000    -0.4866090000     0.0025370000
    2      C       0.0868410000     0.2463910000     1.1155370000
    3      C       0.7783410000     1.4533910000     0.8231370000
    4      H      -0.1060590000    -0.0904090000     2.1454370000
    5      C       0.9018410000     1.6685910000    -0.5610630000
    6      S       0.1493410000     0.3557910000    -1.4621630000
    7      C       1.3075410000     2.3770910000     1.8849370000
    8      H       1.0847410000     1.9884910000     2.8975370000
    9      H       0.8592410000     3.3899910000     1.8106370000
   10      H       2.4079410000     2.5026910000     1.8107370000
   11      C      -0.3327590000    -1.9367090000     0.0025370000
   12      H      -1.3963590000    -1.9372090000    -0.1849630000
   13      H      -0.1696590000    -2.4718090000    -0.9213630000
   14      H      -0.4771590000    -2.6239090000     0.8231370000
   15      H       1.3779410000     2.4998910000    -1.0945630000
 ----------------------------------------------------------------
 Nuclear Repulsion Energy =         345.35216456 hartrees
 There are       30 alpha and       30 beta electrons
 Requested basis set is cc-pVTZ
 There are 120 shells and 326 basis functions

 Total QAlloc Memory Limit 110000 MB
 Mega-Array Size       188 MB
 MEM_STATIC part       192 MB
 Discretize the solute cavity surface with Lebedev spheres
	Using 110 Lebedev grid points for each H atom
	Using 194 Lebedev grid points for other atoms
	Atomic van der Waals radii will be scaled by 1.20
 Remove points where switching function is < 1.0e-08
 Keep 1052 surface tesserae and discard 1186 interior tesserae
 Molecular Surface Area = 158.443 Angst**2

                       Distance Matrix (Angstroms)
             C (  1)   C (  2)   C (  3)   H (  4)   C (  5)   S (  6)
   C (  2)  1.397184
   C (  3)  2.381497  1.421450
   H (  4)  2.190979  1.100608  2.216745
   C (  5)  2.546914  2.344753  1.406262  3.381580
   S (  6)  1.757101  2.580777  2.612080  3.644050  1.761159
   C (  7)  3.799315  2.573318  1.503560  2.855640  2.578659  4.078009
   H (  8)  4.064044  2.684444  2.164105  2.511072  3.478175  4.748438
   H (  9)  4.440509  3.310889  2.175344  3.627269  2.930869  4.519021
   H ( 10)  4.440376  3.310846  2.175312  3.627174  2.930784  4.519107
   C ( 11)  1.450100  2.486113  3.660697  2.837646  3.852281  2.762847
   H ( 12)  1.808492  2.942667  4.152319  3.241344  4.292431  3.046026
   H ( 13)  2.195726  3.406371  4.398770  3.883346  4.291951  2.896472
   H ( 14)  2.293968  2.939765  4.266223  2.881808  4.716270  3.807061
   H ( 15)  3.612382  3.410241  2.265448  4.405623  1.096519  2.498350
             C (  7)   H (  8)   H (  9)   H ( 10)   C ( 11)   H ( 12)
   H (  8)  1.107253
   H (  9)  1.110162  1.787849
   H ( 10)  1.110028  1.787846  1.784873
   C ( 11)  4.984264  5.079127  5.750115  5.521711
   H ( 12)  5.496248  5.573938  6.119576  6.178044  1.080001
   H ( 13)  5.793899  6.004315  6.548523  6.233301  1.080058  1.527375
   H ( 14)  5.415032  5.293099  6.239240  5.964997  1.080037  1.527335
   H ( 15)  2.982860  4.035388  3.082453  3.082479  4.879912  5.311494
             H ( 13)   H ( 14)
   H ( 14)  1.777912
   H ( 15)  5.209881  5.776876
 
 Requested basis set is rimp2-cc-pVTZ
 There are 250 shells and 848 basis functions
 A cutoff of  1.0D-10 yielded   6186 shell pairs
 There are     45364 function pairs (     58336 Cartesian)
 Smallest overlap matrix eigenvalue = 1.21E-04

 Scale SEOQF with 1.000000e-01/1.000000e-01/1.000000e-01

 Standard Electronic Orientation quadrupole field applied
 Nucleus-field energy     =     0.0000000010 hartrees
 Guess from superposition of atomic densities
 Warning:  Energy on first SCF cycle will be non-variational
 SAD guess density has 60.000000 electrons

 -----------------------------------------------------------------------
  General SCF calculation program by
  Eric Jon Sundstrom, Paul Horn, Yuezhi Mao, Dmitri Zuev, Alec White,
  David Stuck, Shaama M.S., Shane Yost, Joonho Lee, David Small,
  Daniel Levine, Susi Lehtola, Hugh Burton, Evgeny Epifanovsky,
  Bang C. Huynh
 -----------------------------------------------------------------------
 Hartree-Fock
 using 64 threads for integral computing
 -------------------------------------------------------
 OpenMP Integral computing Module                
 Release: version 1.0, May 2013, Q-Chem Inc. Pittsburgh 
 -------------------------------------------------------
 A restricted SCF calculation will be
 performed using DIIS
 SCF converges when DIIS error is below 1.0e-06
 ---------------------------------------
  Cycle       Energy         DIIS error
 ---------------------------------------
    1    -632.0943720678      2.91e-02  
    2    -629.3202057597      1.94e-03  
    3    -629.3905876151      6.95e-04  
    4    -629.3982756096      3.50e-04  
    5    -629.4004672438      6.48e-05  
    6    -629.4006044775      2.64e-05  
    7    -629.4006384704      1.18e-05  
    8    -629.4006479445      5.21e-06  
    9    -629.4006495983      1.83e-06  
   10    -629.4006498066      5.51e-07  Convergence criterion met
 ---------------------------------------
 SCF time:   CPU 667.05s  wall 14.00s 

************** Final PCM Free Energy Summary **************
 G_electrostatic  =      -0.00547672 hartree =      -3.43669538 kcal/mol
 G_cavitation     =       0.00000000 hartree =       0.00000000 kcal/mol
 G_dispersion     =       0.00000000 hartree =       0.00000000 kcal/mol
 G_repulsion      =       0.00000000 hartree =       0.00000000 kcal/mol
 --------------------------------------------------
 Non-electrostatic Free Energy =       0.00000000 hartree =       0.00000000 kcal/mol
 Total                         =      -0.00547672 hartree =      -3.43669538 kcal/mol
 --------------------------------------------------
 SCF Energy (H0 + V/2)                       =    -629.40064981 
 Solute Internal Energy (H0)                 =    -629.39517308 
 Total Free Energy (H0 + V/2 + non-elec)     =    -629.40064981 hartree
                                             = -394954.86880718 kcal/mol
***********************************************************

 SCF   energy in the final basis set =     -629.4006498066
 Total energy in the final basis set =     -629.4006498066


 --------------------------------------------------------------
  Generalized many-body perturbation theory program
  by Joonho Lee, Fazle Rob, Xintian Feng, Evgeny Epifanovsky

 No regularization used 
 (reg. param. = 0.0000e+00)
  (P|Q)^-1/2 Time:  CPU 7.19 s  wall 0.12 s

 In RI-MP2 calculation: 
 # of frozen core orbitals: 11

 Components of the RIMP2 correlation energy:
        aaaa    correlation energy =        -0.1459859084 a.u.
        abab    correlation energy =        -0.8890066621 a.u.
        bbbb    correlation energy =        -0.1459859084 a.u.
        non-Brillouin singles      =        -0.0000000000 a.u.
        total same-spin energy     =        -0.2919718168 a.u.
        total opposite-spin energy =        -0.8890066621 a.u.

 Total  RIMP2   correlation energy =        -1.1809784789 a.u.
        RIMP2         total energy =      -630.5816282854 a.u.

 RI-MP2 Energy Time:  CPU 36.23 s  wall 0.63 s
 
 --------------------------------------------------------------
 
                    Orbital Energies (a.u.)
 --------------------------------------------------------------
 
 Alpha MOs
 -- Occupied --
-91.9777 -11.2750 -11.2564 -11.2472 -11.2284 -11.2268 -11.2163  -8.9777
 -6.6586  -6.6580  -6.6574  -1.1614  -1.0531  -0.9958  -0.9420  -0.8832
 -0.7451  -0.7198  -0.6454  -0.5857  -0.5731  -0.5679  -0.5532  -0.5444
 -0.5111  -0.4938  -0.4569  -0.4524  -0.3373  -0.2880
 -- Virtual --
  0.0975   0.1450   0.1500   0.1756   0.1882   0.1943   0.2083   0.2133
  0.2244   0.2385   0.2478   0.2554   0.2952   0.3178   0.3426   0.3566
  0.3793   0.3902   0.4040   0.4238   0.4412   0.4611   0.4696   0.4808
  0.4928   0.5077   0.5151   0.5272   0.5352   0.5635   0.5777   0.5936
  0.5963   0.6101   0.6115   0.6226   0.6335   0.6374   0.6392   0.6479
  0.6650   0.6670   0.6730   0.6922   0.7170   0.7458   0.7750   0.7830
  0.8017   0.8216   0.8437   0.8492   0.8643   0.8992   0.9041   0.9224
  0.9359   0.9704   1.0010   1.0167   1.0342   1.0635   1.0686   1.0714
  1.0840   1.0967   1.1132   1.1246   1.1344   1.1671   1.1729   1.2054
  1.2332   1.2453   1.2571   1.2620   1.2752   1.2992   1.3242   1.3441
  1.3574   1.3795   1.3932   1.4069   1.4199   1.4387   1.4480   1.4652
  1.4848   1.4919   1.5142   1.5364   1.5421   1.5581   1.5704   1.5810
  1.6096   1.6246   1.6376   1.6723   1.6790   1.6989   1.7218   1.7491
  1.7708   1.7956   1.8039   1.8240   1.8729   1.9165   1.9418   1.9580
  2.0171   2.0419   2.0908   2.1275   2.1749   2.1859   2.2220   2.2378
  2.2704   2.2821   2.3085   2.4057   2.4311   2.4686   2.5352   2.5414
  2.5634   2.5966   2.6358   2.6619   2.6749   2.7014   2.7189   2.7328
  2.7529   2.7669   2.7853   2.7930   2.7954   2.8372   2.8604   2.8780
  2.8962   2.9371   2.9701   3.0011   3.0084   3.0365   3.0584   3.0740
  3.0896   3.1130   3.1180   3.1426   3.1551   3.1606   3.1660   3.1865
  3.1931   3.2420   3.2659   3.2725   3.2868   3.3061   3.3200   3.3255
  3.3390   3.3527   3.3713   3.3837   3.3957   3.4002   3.4225   3.4257
  3.4430   3.4638   3.4712   3.4904   3.4971   3.5229   3.5378   3.5503
  3.5661   3.6005   3.6117   3.6238   3.6395   3.6589   3.6659   3.6850
  3.7001   3.7097   3.7241   3.7401   3.7628   3.7836   3.7913   3.8028
  3.8152   3.8388   3.8637   3.8813   3.8948   3.9390   3.9508   3.9597
  3.9741   3.9970   4.0110   4.0308   4.0578   4.0772   4.0965   4.1153
  4.1300   4.1556   4.1855   4.1959   4.2139   4.2244   4.2567   4.2597
  4.2819   4.2970   4.3127   4.3303   4.3477   4.3643   4.3784   4.4026
  4.4087   4.4264   4.4299   4.4564   4.4613   4.5043   4.5428   4.5748
  4.6045   4.6312   4.6435   4.6696   4.7177   4.7241   4.7519   4.7880
  4.8100   4.8269   4.8523   4.8930   4.9237   4.9432   5.0695   5.0962
  5.1031   5.1262   5.1572   5.1831   5.2020   5.2632   5.2901   5.3208
  5.3660   5.4046   5.4170   5.4439   5.4715   5.5216   5.5473   5.5621
  5.5747   5.6238   5.6517   5.6842   5.7011   5.8133   5.8196   5.8463
  5.9524   5.9951   6.0168   6.1505   6.2282   6.2401   6.2829   6.3801
  6.4278   6.4831   9.1764  11.3782  12.8737  13.7556  14.1441  14.2673
 --------------------------------------------------------------
 
          Ground-State Mulliken Net Atomic Charges

     Atom                 Charge (a.u.)
  ----------------------------------------
      1 C                     0.008476
      2 C                    -0.262362
      3 C                     0.044044
      4 H                     0.178257
      5 C                    -0.262961
      6 S                     0.003220
      7 C                    -0.270751
      8 H                     0.101524
      9 H                     0.107075
     10 H                     0.106311
     11 C                    -0.379433
     12 H                     0.131054
     13 H                     0.142822
     14 H                     0.158280
     15 H                     0.194446
  ----------------------------------------
  Sum of atomic charges =     0.000000

 -----------------------------------------------------------------
                    Cartesian Multipole Moments
 -----------------------------------------------------------------
    Charge (ESU x 10^10)
                -0.0000
    Dipole Moment (Debye)
         X       0.0381      Y      -0.3787      Z       1.3801
       Tot       1.4317
    Quadrupole Moments (Debye-Ang)
        XX     -51.9911     XY       5.2938     YY     -44.3987
        XZ      -0.0034     YZ       0.3766     ZZ     -48.3415
    Octopole Moments (Debye-Ang^2)
       XXX     -51.2365    XXY     -21.7188    XYY     -12.7515
       YYY     -71.7741    XXZ      -3.1098    XYZ      -0.7790
       YYZ      -4.4731    XZZ     -15.0929    YZZ     -22.2052
       ZZZ      -0.4703
    Hexadecapole Moments (Debye-Ang^3)
      XXXX    -220.6511   XXXY    -139.7807   XXYY    -148.9669
      XYYY    -119.1121   YYYY    -675.0095   XXXZ     -47.4926
      XXYZ     -30.6408   XYYZ     -22.1943   YYYZ     -92.5366
      XXZZ    -122.2842   XYZZ     -38.5607   YYZZ    -189.5202
      XZZZ     -51.9925   YZZZ     -89.8109   ZZZZ    -490.8334
 -----------------------------------------------------------------
 Total job time:  15.74s(wall), 748.41s(cpu) 
 Fri Dec 15 14:00:42 2023

        *************************************************************
        *                                                           *
        *  Thank you very much for using Q-Chem.  Have a nice day.  *
        *                                                           *
        *************************************************************


0 sent ACK to 0 
now end server 0 ... 
cleanup process ... done
remove work dirs ./qchem644521.0 -- ./qchem644521.0
rm -rf ./qchem644521.0
rm -rf ./qchem644521
