You are running Q-Chem version: 5.4.0

#
# job setting
#
local host:  exp-7-20
current dir: /home/rramji/project-csd799/aromodel/p3ht-qchem/methylated-rotation-run
input file:  Methylthiophene_Phi_0_Theta_90_Methylthiophene_Hydrogenated_Improper.qcin
output file: 
nprocs     : 1
nthreads   : 64
#
# qchem installation setting
#
QC:          /cm/shared/apps/spack/cpu/opt/spack/linux-centos8-zen2/gcc-10.2.0/qchem-5.4-akfmr7b3t57bfs6qan3padb2wnb2i7cl
QCAUX:       /cm/shared/apps/spack/cpu/opt/spack/linux-centos8-zen2/gcc-10.2.0/qchem-5.4-akfmr7b3t57bfs6qan3padb2wnb2i7cl/qcaux
QCPROG:      /cm/shared/apps/spack/cpu/opt/spack/linux-centos8-zen2/gcc-10.2.0/qchem-5.4-akfmr7b3t57bfs6qan3padb2wnb2i7cl/exe/qcprog.exe
QCPROG_S:    /cm/shared/apps/spack/cpu/opt/spack/linux-centos8-zen2/gcc-10.2.0/qchem-5.4-akfmr7b3t57bfs6qan3padb2wnb2i7cl/exe/qcprog.exe_s
PARALLEL:    -DPARALLEL
QCMPI:       mpich
#
# qchem directory setting
#
qcrun:       qchem3255826
QCSCRATCH:   .
QCLOCALSCR:  
QCTMPDIR:    .
QCFILEPREF:  ./qchem3255826
QCSAVEDIR:   
workdirs:    ./qchem3255826
workdir0:    ./qchem3255826
partmpdirs =  
#
# parallel setting
#
QCRSH:           ssh
QCMPI:           mpich
QCMPIRUN:        /cm/shared/apps/spack/cpu/opt/spack/linux-centos8-zen2/gcc-10.2.0/qchem-5.4-akfmr7b3t57bfs6qan3padb2wnb2i7cl/bin/mpi/mpirun_qchem
QCMACHINEFILE:   ./qchem3255826/hostfile
exp-7-20

#
# env setting
#
exported envs:   QC QCAUX QCSCRATCH QCRUNNAME QCFILEPREF QCPROG QCPROG_S GUIFILE

Running Job 1 of 1 Methylthiophene_Phi_0_Theta_90_Methylthiophene_Hydrogenated_Improper.qcin
qchem Methylthiophene_Phi_0_Theta_90_Methylthiophene_Hydrogenated_Improper.qcin_3255826.0 ./qchem3255826/ 1
/cm/shared/apps/spack/cpu/opt/spack/linux-centos8-zen2/gcc-10.2.0/qchem-5.4-akfmr7b3t57bfs6qan3padb2wnb2i7cl/bin/mpi/mpirun_qchem -machinefile ./qchem3255826/hostfile -np 1 /cm/shared/apps/spack/cpu/opt/spack/linux-centos8-zen2/gcc-10.2.0/qchem-5.4-akfmr7b3t57bfs6qan3padb2wnb2i7cl/exe/qcprog.exe Methylthiophene_Phi_0_Theta_90_Methylthiophene_Hydrogenated_Improper.qcin_3255826.0 ./qchem3255826/

Process 0 of 1 is on exp-7-20 - thread support 0
initial socket setup ...start
initial socket setup ...done 
now start server 0 ... 
                  Welcome to Q-Chem
     A Quantum Leap Into The Future Of Chemistry


 Q-Chem 5.4, Q-Chem, Inc., Pleasanton, CA (2021)

 License issued to: University of California, San Diego (site)

 E. Epifanovsky,  A. T. B. Gilbert,  Xintian Feng,  Joonho Lee,  Yuezhi Mao,  
 N. Mardirossian,  P. Pokhilko,  A. White,  M. Wormit,  M. P. Coons,  
 A. L. Dempwolff,  Zhengting Gan,  D. Hait,  P. R. Horn,  L. D. Jacobson,  
 I. Kaliman,  J. Kussmann,  A. W. Lange,  Ka Un Lao,  D. S. Levine,  Jie Liu,  
 S. C. McKenzie,  A. F. Morrison,  K. Nanda,  F. Plasser,  D. R. Rehn,  
 M. L. Vidal,  Zhi-Qiang You,  Ying Zhu,  B. Alam,  B. Albrecht,  
 A. Aldossary,  E. Alguire,  J. H. Andersen,  D. Barton,  K. Begam,  A. Behn,  
 Y. A. Bernard,  E. J. Berquist,  H. Burton,  A. Carreras,  K. Carter-Fenk,  
 R. Chakraborty,  A. D. Chien,  K. D. Closser,  V. Cofer-Shabica,  
 S. Dasgupta,  Jia Deng,  M. de Wergifosse,  M. Diedenhofen,  Hainam Do,  
 S. Ehlert,  Po-Tung Fang,  S. Fatehi,  Qingguo Feng,  J. Gayvert,  
 Qinghui Ge,  G. Gidofalvi,  M. Goldey,  J. Gomes,  C. Gonzalez-Espinoza,  
 S. Gulania,  A. Gunina,  M. W. D. Hanson-Heine,  P. H. P. Harbach,  
 A. W. Hauser,  M. F. Herbst,  M. Hernandez Vera,  M. Hodecker,  
 Z. C. Holden,  S. Houck,  Xunkun Huang,  Kerwin Hui,  B. C. Huynh,  
 M. Ivanov,  Hyunjun Ji,  Hanjie Jiang,  B. Kaduk,  S. Kaehler,  
 K. Khistyaev,  Jaehoon Kim,  P. Klunzinger,  Z. Koczor-Benda,  
 Joong Hoon Koh,  D. Kosenkov,  L. Koulias,  T. Kowalczyk,  C. M. Krauter,  
 K. Kue,  A. Kunitsa,  T. Kus,  A. Landau,  K. V. Lawler,  D. Lefrancois,  
 S. Lehtola,  Rain Li,  Yi-Pei Li,  Jiashu Liang,  M. Liebenthal,  
 Hung-Hsuan Lin,  You-Sheng Lin,  Fenglai Liu,  Kuan-Yu Liu,  
 M. Loipersberger,  A. Luenser,  A. Manjanath,  P. Manohar,  E. Mansoor,  
 S. F. Manzer,  Shan-Ping Mao,  A. V. Marenich,  T. Markovich,  S. Mason,  
 S. A. Maurer,  P. F. McLaughlin,  M. F. S. J. Menger,  J.-M. Mewes,  
 S. A. Mewes,  P. Morgante,  J. W. Mullinax,  T. S. Nguyen-Beck,  
 K. J. Oosterbaan,  G. Paran,  Alexander C. Paul,  Suranjan K. Paul,  
 F. Pavosevic,  Zheng Pei,  S. Prager,  E. I. Proynov,  E. Ramos,  B. Rana,  
 A. E. Rask,  A. Rettig,  R. M. Richard,  F. Rob,  E. Rossomme,  T. Scheele,  
 M. Scheurer,  M. Schneider,  N. Sergueev,  S. M. Sharada,  W. Skomorowski,  
 D. W. Small,  C. J. Stein,  Yu-Chuan Su,  E. J. Sundstrom,  Zhen Tao,  
 J. Thirman,  T. Tsuchimochi,  N. M. Tubman,  S. P. Veccham,  O. Vydrov,  
 J. Wenzel,  J. Witte,  A. Yamada,  Kun Yao,  S. Yeganeh,  S. R. Yost,  
 A. Zech,  Igor Ying Zhang,  Xing Zhang,  Yu Zhang,  D. Zuev,  
 A. Aspuru-Guzik,  A. T. Bell,  N. A. Besley,  K. B. Bravaya,  B. R. Brooks,  
 D. Casanova,  Jeng-Da Chai,  S. Coriani,  C. J. Cramer,  
 A. E. DePrince, III,  R. A. DiStasio Jr.,  A. Dreuw,  B. D. Dunietz,  
 T. R. Furlani,  W. A. Goddard III,  S. Grimme,  S. Hammes-Schiffer,  
 T. Head-Gordon,  W. J. Hehre,  Chao-Ping Hsu,  T.-C. Jagau,  Yousung Jung,  
 A. Klamt,  Jing Kong,  D. S. Lambrecht,  WanZhen Liang,  N. J. Mayhall,  
 C. W. McCurdy,  J. B. Neaton,  C. Ochsenfeld,  J. A. Parkhill,  R. Peverati,  
 V. A. Rassolov,  Yihan Shao,  L. V. Slipchenko,  T. Stauch,  R. P. Steele,  
 J. E. Subotnik,  A. J. W. Thom,  A. Tkatchenko,  D. G. Truhlar,  
 T. Van Voorhis,  T. A. Wesolowski,  K. B. Whaley,  H. L. Woodcock III,  
 P. M. Zimmerman,  S. Faraji,  P. M. W. Gill,  M. Head-Gordon,  
 J. M. Herbert,  A. I. Krylov

 Contributors to earlier versions of Q-Chem not listed above: 
 R. D. Adamson,  B. Austin,  R. Baer,  J. Baker,  G. J. O. Beran,  
 K. Brandhorst,  S. T. Brown,  E. F. C. Byrd,  A. K. Chakraborty,  
 G. K. L. Chan,  Chun-Min Chang,  Yunqing Chen,  C.-L. Cheng,  
 Siu Hung Chien,  D. M. Chipman,  D. L. Crittenden,  H. Dachsel,  
 R. J. Doerksen,  A. D. Dutoi,  R. G. Edgar,  J. Fosso-Tande,  
 L. Fusti-Molnar,  D. Ghosh,  A. Ghysels,  A. Golubeva-Zadorozhnaya,  
 J. Gonthier,  M. S. Gordon,  S. R. Gwaltney,  G. Hawkins,  J. E. Herr,  
 A. Heyden,  S. Hirata,  E. G. Hohenstein,  G. Kedziora,  F. J. Keil,  
 C. Kelley,  Jihan Kim,  R. A. King,  R. Z. Khaliullin,  P. P. Korambath,  
 W. Kurlancheek,  A. Laurent,  A. M. Lee,  M. S. Lee,  S. V. Levchenko,  
 Ching Yeh Lin,  D. Liotard,  E. Livshits,  R. C. Lochan,  I. Lotan,  
 L. A. Martinez-Martinez,  P. E. Maslen,  N. Nair,  D. P. O'Neill,  
 D. Neuhauser,  E. Neuscamman,  C. M. Oana,  R. Olivares-Amaya,  R. Olson,  
 T. M. Perrine,  B. Peters,  P. A. Pieniazek,  A. Prociuk,  Y. M. Rhee,  
 J. Ritchie,  M. A. Rohrdanz,  E. Rosta,  N. J. Russ,  H. F. Schaefer III,  
 M. W. Schmidt,  N. E. Schultz,  S. Sharma,  N. Shenvi,  C. D. Sherrill,  
 A. C. Simmonett,  A. Sodt,  T. Stein,  D. Stuck,  K. S. Thanthiriwatte,  
 V. Vanovschi,  L. Vogt,  Tao Wang,  A. Warshel,  M. A. Watson,  
 C. F. Williams,  Q. Wu,  X. Xu,  Jun Yang,  W. Zhang,  Yan Zhao

 Please cite Q-Chem as follows:
 Y. Shao et al., Mol. Phys. 113, 184-215 (2015)
 DOI: 10.1080/00268976.2014.952696

 Q-Chem 5.4.0 for Intel X86 EM64T Linux

 Parts of Q-Chem use Armadillo 9.800.1 (Horizon Scraper).
 http://arma.sourceforge.net/

 Q-Chem begins on Fri Dec 15 13:57:26 2023  

 Host: 
0

     Scratch files written to ./qchem3255826//
 May1621 |scratch|qcdevops|jenkins|workspace|build_RNUM    
 Parallel job on  1  processors
 Processing $rem in /cm/shared/apps/spack/cpu/opt/spack/linux-centos8-zen2/gcc-10.2.0/qchem-5.4-akfmr7b3t57bfs6qan3padb2wnb2i7cl/config/preferences:
 Processing $rem in /home/rramji/.qchemrc:
 Symmetry turned off for PCM/SM12/SMD calculation
 Core orbitals will be frozen

 Checking the input file for inconsistencies... 	...done.

 Q-Chem warning in module forms1/BasisType.C, line 2236:

 You are not using the predefined 5D/6D in this basis set.


--------------------------------------------------------------
User input:
--------------------------------------------------------------
$molecule
0 1
C	0.002869	-0.576386	-0.003619
C	-0.000231	0.268214	1.109381
C	-0.004931	1.659214	0.816981
H	0.001169	-0.119886	2.139281
C	-0.005531	1.907314	-0.567219
S	-0.000831	0.394214	-1.468319
C	-0.008531	2.723814	1.878781
H	-0.007031	2.275814	2.891381
H	-0.903031	3.376814	1.804481
H	0.881769	3.382714	1.804581
C	0.002869	-2.026486	-0.003619
H	0.002869	-2.026986	1.076381
H	-0.935231	-2.561586	-0.003819
H	0.836069	-2.713686	-0.003919
H	-0.008831	2.865414	-1.100719
$end

$rem
JOBTYPE		SP
EXCHANGE	HF
CORRELATION	pRIMP2
BASIS		cc-pvtz
METHOD		rimp2
AUX_BASIS	rimp2-cc-pvtz
SOLVENT_METHOD	PCM
PURECART	11111
SYMMETRY	false
MEM_TOTAL	110000
SCF_CONVERGENCE = 6
THRESH=10
GUI = 2
$end



$solvent
dielectric 4.90
$end
--------------------------------------------------------------
 ----------------------------------------------------------------
             Standard Nuclear Orientation (Angstroms)
    I     Atom           X                Y                Z
 ----------------------------------------------------------------
    1      C       0.0028690000    -0.5763860000    -0.0036190000
    2      C      -0.0002310000     0.2682140000     1.1093810000
    3      C      -0.0049310000     1.6592140000     0.8169810000
    4      H       0.0011690000    -0.1198860000     2.1392810000
    5      C      -0.0055310000     1.9073140000    -0.5672190000
    6      S      -0.0008310000     0.3942140000    -1.4683190000
    7      C      -0.0085310000     2.7238140000     1.8787810000
    8      H      -0.0070310000     2.2758140000     2.8913810000
    9      H      -0.9030310000     3.3768140000     1.8044810000
   10      H       0.8817690000     3.3827140000     1.8045810000
   11      C       0.0028690000    -2.0264860000    -0.0036190000
   12      H       0.0028690000    -2.0269860000     1.0763810000
   13      H      -0.9352310000    -2.5615860000    -0.0038190000
   14      H       0.8360690000    -2.7136860000    -0.0039190000
   15      H      -0.0088310000     2.8654140000    -1.1007190000
 ----------------------------------------------------------------
 Nuclear Repulsion Energy =         343.99961175 hartrees
 There are       30 alpha and       30 beta electrons
 Requested basis set is cc-pVTZ
 There are 120 shells and 326 basis functions

 Total QAlloc Memory Limit 110000 MB
 Mega-Array Size       188 MB
 MEM_STATIC part       192 MB
 Discretize the solute cavity surface with Lebedev spheres
	Using 110 Lebedev grid points for each H atom
	Using 194 Lebedev grid points for other atoms
	Atomic van der Waals radii will be scaled by 1.20
 Remove points where switching function is < 1.0e-08
 Keep 1058 surface tesserae and discard 1180 interior tesserae
 Molecular Surface Area = 159.559 Angst**2

                       Distance Matrix (Angstroms)
             C (  1)   C (  2)   C (  3)   H (  4)   C (  5)   S (  6)
   C (  2)  1.397186
   C (  3)  2.381460  1.421408
   H (  4)  2.190985  1.100599  2.216689
   C (  5)  2.546857  2.344710  1.406259  3.381527
   S (  6)  1.757107  2.580778  2.612056  3.644047  1.761100
   C (  7)  3.799326  2.573328  1.503597  2.855623  2.578681  4.078011
   H (  8)  4.064009  2.684405  2.164102  2.510996  3.478176  4.748415
   H (  9)  4.440458  3.310832  2.175291  3.627200  2.930853  4.518970
   H ( 10)  4.440329  3.310791  2.175326  3.627077  2.930792  4.519070
   C ( 11)  1.450100  2.550378  3.775954  2.868300  3.973978  2.829337
   H ( 12)  1.808491  2.295439  3.695324  2.183298  4.263826  3.512509
   H ( 13)  2.195689  3.181384  4.399355  3.381068  4.599220  3.428501
   H ( 14)  2.293965  3.290982  4.528069  3.466722  4.730670  3.536087
   H ( 15)  3.612444  3.410288  2.265504  4.405646  1.096626  2.498404
             C (  7)   H (  8)   H (  9)   H ( 10)   C ( 11)   H ( 12)
   H (  8)  1.107278
   H (  9)  1.109982  1.787839
   H ( 10)  1.110085  1.787828  1.784810
   C ( 11)  5.109688  5.185644  5.769361  5.770745
   H ( 12)  4.818099  4.669948  5.527372  5.528797  1.080000
   H ( 13)  5.686687  5.713508  6.207703  6.473523  1.079983  1.527305
   H ( 14)  5.815867  5.829982  6.587030  6.359155  1.080031  1.527360
   H ( 15)  2.982863  4.035405  3.082420  3.082456  5.013427  5.354949
             H ( 13)   H ( 14)
   H ( 14)  1.777818
   H ( 15)  5.613710  5.748320
 
 Requested basis set is rimp2-cc-pVTZ
 There are 250 shells and 848 basis functions
 A cutoff of  1.0D-10 yielded   6200 shell pairs
 There are     45412 function pairs (     58400 Cartesian)
 Smallest overlap matrix eigenvalue = 1.01E-04

 Scale SEOQF with 1.000000e+00/1.000000e-01/1.000000e-01

 Standard Electronic Orientation quadrupole field applied
 Nucleus-field energy     =     0.0000000033 hartrees
 Guess from superposition of atomic densities
 Warning:  Energy on first SCF cycle will be non-variational
 SAD guess density has 60.000000 electrons

 -----------------------------------------------------------------------
  General SCF calculation program by
  Eric Jon Sundstrom, Paul Horn, Yuezhi Mao, Dmitri Zuev, Alec White,
  David Stuck, Shaama M.S., Shane Yost, Joonho Lee, David Small,
  Daniel Levine, Susi Lehtola, Hugh Burton, Evgeny Epifanovsky,
  Bang C. Huynh
 -----------------------------------------------------------------------
 Hartree-Fock
 using 64 threads for integral computing
 -------------------------------------------------------
 OpenMP Integral computing Module                
 Release: version 1.0, May 2013, Q-Chem Inc. Pittsburgh 
 -------------------------------------------------------
 A restricted SCF calculation will be
 performed using DIIS
 SCF converges when DIIS error is below 1.0e-06
 ---------------------------------------
  Cycle       Energy         DIIS error
 ---------------------------------------
    1    -632.0923298561      2.91e-02  
    2    -629.3480043374      1.91e-03  
    3    -629.4174891915      6.37e-04  
    4    -629.4244546090      3.26e-04  
    5    -629.4262939440      6.14e-05  
    6    -629.4264202160      2.44e-05  
    7    -629.4264510860      1.13e-05  
    8    -629.4264600698      4.74e-06  
    9    -629.4264614685      1.67e-06  
   10    -629.4264616176      4.84e-07  Convergence criterion met
 ---------------------------------------
 SCF time:   CPU 677.24s  wall 13.00s 

************** Final PCM Free Energy Summary **************
 G_electrostatic  =      -0.00549106 hartree =      -3.44569426 kcal/mol
 G_cavitation     =       0.00000000 hartree =       0.00000000 kcal/mol
 G_dispersion     =       0.00000000 hartree =       0.00000000 kcal/mol
 G_repulsion      =       0.00000000 hartree =       0.00000000 kcal/mol
 --------------------------------------------------
 Non-electrostatic Free Energy =       0.00000000 hartree =       0.00000000 kcal/mol
 Total                         =      -0.00549106 hartree =      -3.44569426 kcal/mol
 --------------------------------------------------
 SCF Energy (H0 + V/2)                       =    -629.42646162 
 Solute Internal Energy (H0)                 =    -629.42097055 
 Total Free Energy (H0 + V/2 + non-elec)     =    -629.42646162 hartree
                                             = -394971.06596307 kcal/mol
***********************************************************

 SCF   energy in the final basis set =     -629.4264616176
 Total energy in the final basis set =     -629.4264616176


 --------------------------------------------------------------
  Generalized many-body perturbation theory program
  by Joonho Lee, Fazle Rob, Xintian Feng, Evgeny Epifanovsky

 No regularization used 
 (reg. param. = 0.0000e+00)
  (P|Q)^-1/2 Time:  CPU 7.17 s  wall 0.12 s

 In RI-MP2 calculation: 
 # of frozen core orbitals: 11

 Components of the RIMP2 correlation energy:
        aaaa    correlation energy =        -0.1455382984 a.u.
        abab    correlation energy =        -0.8864183184 a.u.
        bbbb    correlation energy =        -0.1455382984 a.u.
        non-Brillouin singles      =        -0.0000000000 a.u.
        total same-spin energy     =        -0.2910765969 a.u.
        total opposite-spin energy =        -0.8864183184 a.u.

 Total  RIMP2   correlation energy =        -1.1774949152 a.u.
        RIMP2         total energy =      -630.6039565329 a.u.

 RI-MP2 Energy Time:  CPU 36.55 s  wall 0.62 s
 
 --------------------------------------------------------------
 
                    Orbital Energies (a.u.)
 --------------------------------------------------------------
 
 Alpha MOs
 -- Occupied --
-91.9754 -11.2779 -11.2580 -11.2472 -11.2340 -11.2276 -11.2173  -8.9755
 -6.6564  -6.6559  -6.6554  -1.1609  -1.0525  -0.9997  -0.9389  -0.8855
 -0.7424  -0.7238  -0.6478  -0.5911  -0.5779  -0.5664  -0.5592  -0.5410
 -0.5100  -0.4859  -0.4680  -0.4385  -0.3378  -0.3053
 -- Virtual --
  0.1049   0.1445   0.1504   0.1772   0.1880   0.1929   0.1974   0.2306
  0.2327   0.2450   0.2469   0.2704   0.3085   0.3157   0.3448   0.3587
  0.3717   0.3956   0.4112   0.4113   0.4415   0.4662   0.4698   0.4839
  0.4926   0.5020   0.5209   0.5264   0.5381   0.5442   0.5743   0.5884
  0.6035   0.6040   0.6217   0.6343   0.6409   0.6447   0.6463   0.6482
  0.6669   0.6748   0.6846   0.6912   0.7330   0.7486   0.7620   0.7744
  0.8011   0.8106   0.8437   0.8677   0.8739   0.8793   0.9043   0.9399
  0.9541   0.9695   0.9967   1.0147   1.0390   1.0478   1.0629   1.0766
  1.0831   1.0895   1.1123   1.1348   1.1625   1.1643   1.1941   1.2043
  1.2099   1.2366   1.2555   1.2563   1.2699   1.2805   1.3087   1.3337
  1.3458   1.3542   1.3910   1.4155   1.4366   1.4542   1.4643   1.4838
  1.4981   1.5023   1.5326   1.5361   1.5579   1.5634   1.5712   1.5822
  1.5997   1.6340   1.6455   1.6679   1.6851   1.6999   1.7147   1.7540
  1.7837   1.7939   1.8035   1.8262   1.9007   1.9047   1.9216   1.9560
  1.9953   2.0437   2.1001   2.1392   2.1864   2.1925   2.2158   2.2244
  2.2580   2.3075   2.3510   2.4149   2.4594   2.5106   2.5211   2.5707
  2.5751   2.6117   2.6306   2.6474   2.6594   2.6946   2.7138   2.7162
  2.7350   2.7553   2.7702   2.8059   2.8305   2.8426   2.8616   2.8731
  2.9069   2.9095   2.9402   2.9581   2.9936   3.0059   3.0392   3.0654
  3.0813   3.1122   3.1163   3.1399   3.1530   3.1547   3.1958   3.2138
  3.2200   3.2486   3.2631   3.2705   3.2782   3.3170   3.3198   3.3338
  3.3382   3.3458   3.3697   3.3795   3.3880   3.4193   3.4239   3.4320
  3.4338   3.4741   3.4761   3.4841   3.4960   3.5148   3.5357   3.5587
  3.5865   3.6039   3.6078   3.6123   3.6241   3.6598   3.6706   3.6845
  3.7023   3.7189   3.7202   3.7362   3.7606   3.7842   3.7866   3.7947
  3.8090   3.8441   3.8691   3.8858   3.8987   3.9051   3.9366   3.9539
  3.9680   3.9761   3.9944   4.0298   4.0347   4.0683   4.0858   4.1004
  4.1215   4.1454   4.1499   4.1620   4.1845   4.2107   4.2217   4.2268
  4.2677   4.2790   4.3075   4.3362   4.3407   4.3874   4.3956   4.4039
  4.4193   4.4310   4.4417   4.4606   4.4841   4.5193   4.5593   4.5783
  4.6028   4.6334   4.6564   4.6851   4.7182   4.7550   4.7780   4.7970
  4.8126   4.8217   4.8630   4.8939   4.9233   4.9346   5.0826   5.0985
  5.1059   5.1269   5.1931   5.2182   5.2556   5.2657   5.2991   5.3041
  5.3604   5.3975   5.4100   5.4474   5.4676   5.4929   5.5487   5.5735
  5.5985   5.6228   5.6347   5.6975   5.7261   5.8297   5.8482   5.8603
  5.9145   5.9724   6.0475   6.1476   6.2265   6.2495   6.2988   6.3500
  6.4163   6.4774   9.2147  11.4205  12.9422  13.8741  14.1909  14.4357
 --------------------------------------------------------------
 
          Ground-State Mulliken Net Atomic Charges

     Atom                 Charge (a.u.)
  ----------------------------------------
      1 C                     0.062032
      2 C                    -0.267430
      3 C                     0.029403
      4 H                     0.176528
      5 C                    -0.249272
      6 S                    -0.008092
      7 C                    -0.273705
      8 H                     0.101275
      9 H                     0.107324
     10 H                     0.107263
     11 C                    -0.369682
     12 H                     0.119767
     13 H                     0.128131
     14 H                     0.142559
     15 H                     0.193901
  ----------------------------------------
  Sum of atomic charges =     0.000000

 -----------------------------------------------------------------
                    Cartesian Multipole Moments
 -----------------------------------------------------------------
    Charge (ESU x 10^10)
                -0.0000
    Dipole Moment (Debye)
         X      -0.0187      Y      -0.0642      Z       2.1631
       Tot       2.1641
    Quadrupole Moments (Debye-Ang)
        XX     -53.6861     XY      -0.1193     YY     -42.1039
        XZ       0.0034     YZ      -1.0218     ZZ     -49.0024
    Octopole Moments (Debye-Ang^2)
       XXX       0.3460    XXY     -32.8894    XYY       0.7126
       YYY     -77.9706    XXZ      -2.8599    XYZ      -0.0146
       YYZ      -2.5709    XZZ       0.1675    YZZ     -23.7225
       ZZZ      -1.0554
    Hexadecapole Moments (Debye-Ang^3)
      XXXX     -78.3011   XXXY       1.1047   XXYY    -155.8308
      XYYY      -2.0194   YYYY    -807.9963   XXXZ       0.2813
      XXYZ     -29.9205   XYYZ       0.2493   YYYZ    -110.2703
      XXZZ    -103.0643   XYZZ       0.1621   YYZZ    -218.4753
      XZZZ       0.3334   YZZZ     -98.6479   ZZZZ    -490.2122
 -----------------------------------------------------------------
 Total job time:  19.11s(wall), 760.46s(cpu) 
 Fri Dec 15 13:57:45 2023

        *************************************************************
        *                                                           *
        *  Thank you very much for using Q-Chem.  Have a nice day.  *
        *                                                           *
        *************************************************************


0 sent ACK to 0 
now end server 0 ... 
cleanup process ... done
remove work dirs ./qchem3255826.0 -- ./qchem3255826.0
rm -rf ./qchem3255826.0
rm -rf ./qchem3255826
