You are running Q-Chem version: 5.4.0

#
# job setting
#
local host:  exp-7-21
current dir: /home/rramji/project-csd799/aromodel/p3ht-qchem/methylated-rotation-run
input file:  Methylthiophene_Phi_20_Theta_240_Methylthiophene_Hydrogenated_Improper.qcin
output file: 
nprocs     : 1
nthreads   : 64
#
# qchem installation setting
#
QC:          /cm/shared/apps/spack/cpu/opt/spack/linux-centos8-zen2/gcc-10.2.0/qchem-5.4-akfmr7b3t57bfs6qan3padb2wnb2i7cl
QCAUX:       /cm/shared/apps/spack/cpu/opt/spack/linux-centos8-zen2/gcc-10.2.0/qchem-5.4-akfmr7b3t57bfs6qan3padb2wnb2i7cl/qcaux
QCPROG:      /cm/shared/apps/spack/cpu/opt/spack/linux-centos8-zen2/gcc-10.2.0/qchem-5.4-akfmr7b3t57bfs6qan3padb2wnb2i7cl/exe/qcprog.exe
QCPROG_S:    /cm/shared/apps/spack/cpu/opt/spack/linux-centos8-zen2/gcc-10.2.0/qchem-5.4-akfmr7b3t57bfs6qan3padb2wnb2i7cl/exe/qcprog.exe_s
PARALLEL:    -DPARALLEL
QCMPI:       mpich
#
# qchem directory setting
#
qcrun:       qchem22882
QCSCRATCH:   .
QCLOCALSCR:  
QCTMPDIR:    .
QCFILEPREF:  ./qchem22882
QCSAVEDIR:   
workdirs:    ./qchem22882
workdir0:    ./qchem22882
partmpdirs =  
#
# parallel setting
#
QCRSH:           ssh
QCMPI:           mpich
QCMPIRUN:        /cm/shared/apps/spack/cpu/opt/spack/linux-centos8-zen2/gcc-10.2.0/qchem-5.4-akfmr7b3t57bfs6qan3padb2wnb2i7cl/bin/mpi/mpirun_qchem
QCMACHINEFILE:   ./qchem22882/hostfile
exp-7-21

#
# env setting
#
exported envs:   QC QCAUX QCSCRATCH QCRUNNAME QCFILEPREF QCPROG QCPROG_S GUIFILE

Running Job 1 of 1 Methylthiophene_Phi_20_Theta_240_Methylthiophene_Hydrogenated_Improper.qcin
qchem Methylthiophene_Phi_20_Theta_240_Methylthiophene_Hydrogenated_Improper.qcin_22882.0 ./qchem22882/ 1
/cm/shared/apps/spack/cpu/opt/spack/linux-centos8-zen2/gcc-10.2.0/qchem-5.4-akfmr7b3t57bfs6qan3padb2wnb2i7cl/bin/mpi/mpirun_qchem -machinefile ./qchem22882/hostfile -np 1 /cm/shared/apps/spack/cpu/opt/spack/linux-centos8-zen2/gcc-10.2.0/qchem-5.4-akfmr7b3t57bfs6qan3padb2wnb2i7cl/exe/qcprog.exe Methylthiophene_Phi_20_Theta_240_Methylthiophene_Hydrogenated_Improper.qcin_22882.0 ./qchem22882/

Process 0 of 1 is on exp-7-21 - thread support 0
initial socket setup ...start
initial socket setup ...done 
now start server 0 ... 
                  Welcome to Q-Chem
     A Quantum Leap Into The Future Of Chemistry


 Q-Chem 5.4, Q-Chem, Inc., Pleasanton, CA (2021)

 License issued to: University of California, San Diego (site)

 E. Epifanovsky,  A. T. B. Gilbert,  Xintian Feng,  Joonho Lee,  Yuezhi Mao,  
 N. Mardirossian,  P. Pokhilko,  A. White,  M. Wormit,  M. P. Coons,  
 A. L. Dempwolff,  Zhengting Gan,  D. Hait,  P. R. Horn,  L. D. Jacobson,  
 I. Kaliman,  J. Kussmann,  A. W. Lange,  Ka Un Lao,  D. S. Levine,  Jie Liu,  
 S. C. McKenzie,  A. F. Morrison,  K. Nanda,  F. Plasser,  D. R. Rehn,  
 M. L. Vidal,  Zhi-Qiang You,  Ying Zhu,  B. Alam,  B. Albrecht,  
 A. Aldossary,  E. Alguire,  J. H. Andersen,  D. Barton,  K. Begam,  A. Behn,  
 Y. A. Bernard,  E. J. Berquist,  H. Burton,  A. Carreras,  K. Carter-Fenk,  
 R. Chakraborty,  A. D. Chien,  K. D. Closser,  V. Cofer-Shabica,  
 S. Dasgupta,  Jia Deng,  M. de Wergifosse,  M. Diedenhofen,  Hainam Do,  
 S. Ehlert,  Po-Tung Fang,  S. Fatehi,  Qingguo Feng,  J. Gayvert,  
 Qinghui Ge,  G. Gidofalvi,  M. Goldey,  J. Gomes,  C. Gonzalez-Espinoza,  
 S. Gulania,  A. Gunina,  M. W. D. Hanson-Heine,  P. H. P. Harbach,  
 A. W. Hauser,  M. F. Herbst,  M. Hernandez Vera,  M. Hodecker,  
 Z. C. Holden,  S. Houck,  Xunkun Huang,  Kerwin Hui,  B. C. Huynh,  
 M. Ivanov,  Hyunjun Ji,  Hanjie Jiang,  B. Kaduk,  S. Kaehler,  
 K. Khistyaev,  Jaehoon Kim,  P. Klunzinger,  Z. Koczor-Benda,  
 Joong Hoon Koh,  D. Kosenkov,  L. Koulias,  T. Kowalczyk,  C. M. Krauter,  
 K. Kue,  A. Kunitsa,  T. Kus,  A. Landau,  K. V. Lawler,  D. Lefrancois,  
 S. Lehtola,  Rain Li,  Yi-Pei Li,  Jiashu Liang,  M. Liebenthal,  
 Hung-Hsuan Lin,  You-Sheng Lin,  Fenglai Liu,  Kuan-Yu Liu,  
 M. Loipersberger,  A. Luenser,  A. Manjanath,  P. Manohar,  E. Mansoor,  
 S. F. Manzer,  Shan-Ping Mao,  A. V. Marenich,  T. Markovich,  S. Mason,  
 S. A. Maurer,  P. F. McLaughlin,  M. F. S. J. Menger,  J.-M. Mewes,  
 S. A. Mewes,  P. Morgante,  J. W. Mullinax,  T. S. Nguyen-Beck,  
 K. J. Oosterbaan,  G. Paran,  Alexander C. Paul,  Suranjan K. Paul,  
 F. Pavosevic,  Zheng Pei,  S. Prager,  E. I. Proynov,  E. Ramos,  B. Rana,  
 A. E. Rask,  A. Rettig,  R. M. Richard,  F. Rob,  E. Rossomme,  T. Scheele,  
 M. Scheurer,  M. Schneider,  N. Sergueev,  S. M. Sharada,  W. Skomorowski,  
 D. W. Small,  C. J. Stein,  Yu-Chuan Su,  E. J. Sundstrom,  Zhen Tao,  
 J. Thirman,  T. Tsuchimochi,  N. M. Tubman,  S. P. Veccham,  O. Vydrov,  
 J. Wenzel,  J. Witte,  A. Yamada,  Kun Yao,  S. Yeganeh,  S. R. Yost,  
 A. Zech,  Igor Ying Zhang,  Xing Zhang,  Yu Zhang,  D. Zuev,  
 A. Aspuru-Guzik,  A. T. Bell,  N. A. Besley,  K. B. Bravaya,  B. R. Brooks,  
 D. Casanova,  Jeng-Da Chai,  S. Coriani,  C. J. Cramer,  
 A. E. DePrince, III,  R. A. DiStasio Jr.,  A. Dreuw,  B. D. Dunietz,  
 T. R. Furlani,  W. A. Goddard III,  S. Grimme,  S. Hammes-Schiffer,  
 T. Head-Gordon,  W. J. Hehre,  Chao-Ping Hsu,  T.-C. Jagau,  Yousung Jung,  
 A. Klamt,  Jing Kong,  D. S. Lambrecht,  WanZhen Liang,  N. J. Mayhall,  
 C. W. McCurdy,  J. B. Neaton,  C. Ochsenfeld,  J. A. Parkhill,  R. Peverati,  
 V. A. Rassolov,  Yihan Shao,  L. V. Slipchenko,  T. Stauch,  R. P. Steele,  
 J. E. Subotnik,  A. J. W. Thom,  A. Tkatchenko,  D. G. Truhlar,  
 T. Van Voorhis,  T. A. Wesolowski,  K. B. Whaley,  H. L. Woodcock III,  
 P. M. Zimmerman,  S. Faraji,  P. M. W. Gill,  M. Head-Gordon,  
 J. M. Herbert,  A. I. Krylov

 Contributors to earlier versions of Q-Chem not listed above: 
 R. D. Adamson,  B. Austin,  R. Baer,  J. Baker,  G. J. O. Beran,  
 K. Brandhorst,  S. T. Brown,  E. F. C. Byrd,  A. K. Chakraborty,  
 G. K. L. Chan,  Chun-Min Chang,  Yunqing Chen,  C.-L. Cheng,  
 Siu Hung Chien,  D. M. Chipman,  D. L. Crittenden,  H. Dachsel,  
 R. J. Doerksen,  A. D. Dutoi,  R. G. Edgar,  J. Fosso-Tande,  
 L. Fusti-Molnar,  D. Ghosh,  A. Ghysels,  A. Golubeva-Zadorozhnaya,  
 J. Gonthier,  M. S. Gordon,  S. R. Gwaltney,  G. Hawkins,  J. E. Herr,  
 A. Heyden,  S. Hirata,  E. G. Hohenstein,  G. Kedziora,  F. J. Keil,  
 C. Kelley,  Jihan Kim,  R. A. King,  R. Z. Khaliullin,  P. P. Korambath,  
 W. Kurlancheek,  A. Laurent,  A. M. Lee,  M. S. Lee,  S. V. Levchenko,  
 Ching Yeh Lin,  D. Liotard,  E. Livshits,  R. C. Lochan,  I. Lotan,  
 L. A. Martinez-Martinez,  P. E. Maslen,  N. Nair,  D. P. O'Neill,  
 D. Neuhauser,  E. Neuscamman,  C. M. Oana,  R. Olivares-Amaya,  R. Olson,  
 T. M. Perrine,  B. Peters,  P. A. Pieniazek,  A. Prociuk,  Y. M. Rhee,  
 J. Ritchie,  M. A. Rohrdanz,  E. Rosta,  N. J. Russ,  H. F. Schaefer III,  
 M. W. Schmidt,  N. E. Schultz,  S. Sharma,  N. Shenvi,  C. D. Sherrill,  
 A. C. Simmonett,  A. Sodt,  T. Stein,  D. Stuck,  K. S. Thanthiriwatte,  
 V. Vanovschi,  L. Vogt,  Tao Wang,  A. Warshel,  M. A. Watson,  
 C. F. Williams,  Q. Wu,  X. Xu,  Jun Yang,  W. Zhang,  Yan Zhao

 Please cite Q-Chem as follows:
 Y. Shao et al., Mol. Phys. 113, 184-215 (2015)
 DOI: 10.1080/00268976.2014.952696

 Q-Chem 5.4.0 for Intel X86 EM64T Linux

 Parts of Q-Chem use Armadillo 9.800.1 (Horizon Scraper).
 http://arma.sourceforge.net/

 Q-Chem begins on Fri Dec 15 14:02:50 2023  

 Host: 
0

     Scratch files written to ./qchem22882//
 May1621 |scratch|qcdevops|jenkins|workspace|build_RNUM    
 Parallel job on  1  processors
 Processing $rem in /cm/shared/apps/spack/cpu/opt/spack/linux-centos8-zen2/gcc-10.2.0/qchem-5.4-akfmr7b3t57bfs6qan3padb2wnb2i7cl/config/preferences:
 Processing $rem in /home/rramji/.qchemrc:
 Symmetry turned off for PCM/SM12/SMD calculation
 Core orbitals will be frozen

 Checking the input file for inconsistencies... 	...done.

 Q-Chem warning in module forms1/BasisType.C, line 2236:

 You are not using the predefined 5D/6D in this basis set.


--------------------------------------------------------------
User input:
--------------------------------------------------------------
$molecule
0 1
C	-0.227987	-0.536244	0.005666
C	0.058013	0.258456	1.118666
C	0.529313	1.567156	0.826266
H	-0.073487	-0.106644	2.148566
C	0.613613	1.800556	-0.557934
S	0.100513	0.377056	-1.459034
C	0.890113	2.568756	1.888066
H	0.738213	2.147356	2.900666
H	0.272813	3.488456	1.813766
H	1.952013	2.883556	1.813866
C	-0.227987	-1.986344	0.005666
H	-0.767987	-1.986844	-0.929634
H	0.584613	-2.521444	-0.463234
H	-0.949387	-2.673544	0.422566
H	0.938113	2.701956	-1.091434
$end

$rem
JOBTYPE		SP
EXCHANGE	HF
CORRELATION	pRIMP2
BASIS		cc-pvtz
METHOD		rimp2
AUX_BASIS	rimp2-cc-pvtz
SOLVENT_METHOD	PCM
PURECART	11111
SYMMETRY	false
MEM_TOTAL	110000
SCF_CONVERGENCE = 6
THRESH=10
GUI = 2
$end



$solvent
dielectric 4.90
$end
--------------------------------------------------------------
 ----------------------------------------------------------------
             Standard Nuclear Orientation (Angstroms)
    I     Atom           X                Y                Z
 ----------------------------------------------------------------
    1      C      -0.2279870000    -0.5362440000     0.0056660000
    2      C       0.0580130000     0.2584560000     1.1186660000
    3      C       0.5293130000     1.5671560000     0.8262660000
    4      H      -0.0734870000    -0.1066440000     2.1485660000
    5      C       0.6136130000     1.8005560000    -0.5579340000
    6      S       0.1005130000     0.3770560000    -1.4590340000
    7      C       0.8901130000     2.5687560000     1.8880660000
    8      H       0.7382130000     2.1473560000     2.9006660000
    9      H       0.2728130000     3.4884560000     1.8137660000
   10      H       1.9520130000     2.8835560000     1.8138660000
   11      C      -0.2279870000    -1.9863440000     0.0056660000
   12      H      -0.7679870000    -1.9868440000    -0.9296340000
   13      H       0.5846130000    -2.5214440000    -0.4632340000
   14      H      -0.9493870000    -2.6735440000     0.4225660000
   15      H       0.9381130000     2.7019560000    -1.0914340000
 ----------------------------------------------------------------
 Nuclear Repulsion Energy =         344.92204351 hartrees
 There are       30 alpha and       30 beta electrons
 Requested basis set is cc-pVTZ
 There are 120 shells and 326 basis functions

 Total QAlloc Memory Limit 110000 MB
 Mega-Array Size       188 MB
 MEM_STATIC part       192 MB
 Discretize the solute cavity surface with Lebedev spheres
	Using 110 Lebedev grid points for each H atom
	Using 194 Lebedev grid points for other atoms
	Atomic van der Waals radii will be scaled by 1.20
 Remove points where switching function is < 1.0e-08
 Keep 1072 surface tesserae and discard 1166 interior tesserae
 Molecular Surface Area = 157.998 Angst**2

                       Distance Matrix (Angstroms)
             C (  1)   C (  2)   C (  3)   H (  4)   C (  5)   S (  6)
   C (  2)  1.397180
   C (  3)  2.381424  1.421379
   H (  4)  2.190992  1.100584  2.216631
   C (  5)  2.546875  2.344728  1.406269  3.381517
   S (  6)  1.757093  2.580777  2.612050  3.644039  1.761137
   C (  7)  3.799290  2.573296  1.503595  2.855547  2.578662  4.078001
   H (  8)  4.064022  2.684425  2.164118  2.510981  3.478176  4.748432
   H (  9)  4.440522  3.310922  2.175395  3.627225  2.930889  4.519039
   H ( 10)  4.440385  3.310844  2.175394  3.627116  2.930809  4.519123
   C ( 11)  1.450100  2.521843  3.724815  2.854674  3.920019  2.799807
   H ( 12)  1.808487  3.149473  4.170982  3.673254  4.048627  2.573437
   H ( 13)  2.195724  3.241537  4.287484  3.617437  4.323135  3.102785
   H ( 14)  2.293965  3.177426  4.509220  3.214849  4.839620  3.734818
   H ( 15)  3.612389  3.410251  2.265494  4.405584  1.096560  2.498372
             C (  7)   H (  8)   H (  9)   H ( 10)   C ( 11)   H ( 12)
   H (  8)  1.107254
   H (  9)  1.110148  1.787875
   H ( 10)  1.110061  1.787858  1.784830
   C ( 11)  5.053960  5.138292  5.787354  5.633641
   H ( 12)  5.607336  5.833648  6.211958  6.216590  1.079994
   H ( 13)  5.615343  5.756484  6.434349  6.022374  1.080055  1.527368
   H ( 14)  5.745708  5.677152  6.434241  6.421464  1.080031  1.527386
   H ( 15)  2.982862  4.035394  3.082433  3.082489  4.954147  4.992174
             H ( 13)   H ( 14)
   H ( 14)  1.777901
   H ( 15)  5.272903  5.894985
 
 Requested basis set is rimp2-cc-pVTZ
 There are 250 shells and 848 basis functions
 A cutoff of  1.0D-10 yielded   6170 shell pairs
 There are     45188 function pairs (     58113 Cartesian)
 Smallest overlap matrix eigenvalue = 1.07E-04

 Scale SEOQF with 1.000000e-01/1.000000e-01/1.000000e-01

 Standard Electronic Orientation quadrupole field applied
 Nucleus-field energy     =     0.0000000017 hartrees
 Guess from superposition of atomic densities
 Warning:  Energy on first SCF cycle will be non-variational
 SAD guess density has 60.000000 electrons

 -----------------------------------------------------------------------
  General SCF calculation program by
  Eric Jon Sundstrom, Paul Horn, Yuezhi Mao, Dmitri Zuev, Alec White,
  David Stuck, Shaama M.S., Shane Yost, Joonho Lee, David Small,
  Daniel Levine, Susi Lehtola, Hugh Burton, Evgeny Epifanovsky,
  Bang C. Huynh
 -----------------------------------------------------------------------
 Hartree-Fock
 using 64 threads for integral computing
 -------------------------------------------------------
 OpenMP Integral computing Module                
 Release: version 1.0, May 2013, Q-Chem Inc. Pittsburgh 
 -------------------------------------------------------
 A restricted SCF calculation will be
 performed using DIIS
 SCF converges when DIIS error is below 1.0e-06
 ---------------------------------------
  Cycle       Energy         DIIS error
 ---------------------------------------
    1    -632.0927818532      2.91e-02  
    2    -629.3339303343      1.94e-03  
    3    -629.4045061504      6.91e-04  
    4    -629.4121779145      3.43e-04  
    5    -629.4143080509      6.43e-05  
    6    -629.4144448582      2.64e-05  
    7    -629.4144797120      1.19e-05  
    8    -629.4144894605      5.02e-06  
    9    -629.4144909674      1.82e-06  
   10    -629.4144911560      5.24e-07  Convergence criterion met
 ---------------------------------------
 SCF time:   CPU 688.76s  wall 14.00s 

************** Final PCM Free Energy Summary **************
 G_electrostatic  =      -0.00508799 hartree =      -3.19276345 kcal/mol
 G_cavitation     =       0.00000000 hartree =       0.00000000 kcal/mol
 G_dispersion     =       0.00000000 hartree =       0.00000000 kcal/mol
 G_repulsion      =       0.00000000 hartree =       0.00000000 kcal/mol
 --------------------------------------------------
 Non-electrostatic Free Energy =       0.00000000 hartree =       0.00000000 kcal/mol
 Total                         =      -0.00508799 hartree =      -3.19276345 kcal/mol
 --------------------------------------------------
 SCF Energy (H0 + V/2)                       =    -629.41449116 
 Solute Internal Energy (H0)                 =    -629.40940316 
 Total Free Energy (H0 + V/2 + non-elec)     =    -629.41449116 hartree
                                             = -394963.55438505 kcal/mol
***********************************************************

 SCF   energy in the final basis set =     -629.4144911560
 Total energy in the final basis set =     -629.4144911560


 --------------------------------------------------------------
  Generalized many-body perturbation theory program
  by Joonho Lee, Fazle Rob, Xintian Feng, Evgeny Epifanovsky

 No regularization used 
 (reg. param. = 0.0000e+00)
  (P|Q)^-1/2 Time:  CPU 9.13 s  wall 0.17 s

 In RI-MP2 calculation: 
 # of frozen core orbitals: 11

 Components of the RIMP2 correlation energy:
        aaaa    correlation energy =        -0.1456383274 a.u.
        abab    correlation energy =        -0.8874661932 a.u.
        bbbb    correlation energy =        -0.1456383274 a.u.
        non-Brillouin singles      =        -0.0000000000 a.u.
        total same-spin energy     =        -0.2912766549 a.u.
        total opposite-spin energy =        -0.8874661932 a.u.

 Total  RIMP2   correlation energy =        -1.1787428481 a.u.
        RIMP2         total energy =      -630.5932340041 a.u.

 RI-MP2 Energy Time:  CPU 49.77 s  wall 0.87 s
 
 --------------------------------------------------------------
 
                    Orbital Energies (a.u.)
 --------------------------------------------------------------
 
 Alpha MOs
 -- Occupied --
-91.9805 -11.2737 -11.2594 -11.2473 -11.2292 -11.2270 -11.2165  -8.9803
 -6.6613  -6.6608  -6.6602  -1.1613  -1.0533  -0.9952  -0.9450  -0.8828
 -0.7474  -0.7189  -0.6462  -0.5905  -0.5748  -0.5666  -0.5532  -0.5459
 -0.5100  -0.4846  -0.4642  -0.4474  -0.3381  -0.3006
 -- Virtual --
  0.0991   0.1422   0.1502   0.1758   0.1877   0.1924   0.1990   0.2273
  0.2339   0.2442   0.2476   0.2693   0.2913   0.3187   0.3386   0.3494
  0.3766   0.3959   0.3978   0.4172   0.4369   0.4668   0.4739   0.4784
  0.4932   0.4973   0.5181   0.5307   0.5424   0.5557   0.5840   0.5938
  0.6020   0.6085   0.6124   0.6150   0.6290   0.6373   0.6455   0.6477
  0.6549   0.6652   0.6878   0.7096   0.7378   0.7489   0.7495   0.7768
  0.8014   0.8356   0.8421   0.8582   0.8671   0.8835   0.9040   0.9184
  0.9398   0.9597   0.9945   1.0079   1.0280   1.0517   1.0660   1.0777
  1.0874   1.0922   1.1021   1.1476   1.1647   1.1773   1.2039   1.2184
  1.2303   1.2356   1.2532   1.2627   1.2738   1.2888   1.3079   1.3318
  1.3354   1.3637   1.3920   1.4069   1.4239   1.4325   1.4593   1.4792
  1.4941   1.5163   1.5264   1.5313   1.5531   1.5623   1.5771   1.5819
  1.6186   1.6244   1.6522   1.6657   1.6837   1.6901   1.7080   1.7404
  1.7597   1.7812   1.8184   1.8278   1.8762   1.9094   1.9289   1.9669
  1.9928   2.0394   2.0882   2.1231   2.1676   2.1883   2.2163   2.2277
  2.2579   2.2775   2.3458   2.4189   2.4536   2.4971   2.5436   2.5594
  2.5639   2.6045   2.6381   2.6662   2.6812   2.6926   2.7150   2.7412
  2.7502   2.7673   2.7704   2.7901   2.8244   2.8322   2.8478   2.8656
  2.9082   2.9306   2.9624   2.9770   2.9980   3.0090   3.0465   3.0494
  3.1025   3.1134   3.1191   3.1336   3.1394   3.1661   3.1680   3.2005
  3.2101   3.2401   3.2619   3.2740   3.2840   3.2933   3.3133   3.3302
  3.3457   3.3535   3.3748   3.3887   3.4073   3.4170   3.4268   3.4359
  3.4551   3.4580   3.4879   3.4968   3.5177   3.5265   3.5451   3.5571
  3.5789   3.5933   3.6141   3.6195   3.6242   3.6385   3.6619   3.6912
  3.6995   3.7077   3.7154   3.7508   3.7583   3.7752   3.7923   3.8038
  3.8057   3.8244   3.8674   3.8866   3.8991   3.9190   3.9356   3.9455
  3.9684   3.9820   4.0214   4.0311   4.0498   4.0567   4.0809   4.1045
  4.1221   4.1458   4.1703   4.1810   4.1862   4.2204   4.2385   4.2510
  4.2810   4.2918   4.3191   4.3392   4.3394   4.3672   4.3815   4.3925
  4.4022   4.4271   4.4380   4.4537   4.4807   4.4970   4.5177   4.5584
  4.5937   4.6144   4.6516   4.6712   4.7129   4.7308   4.7603   4.7781
  4.8029   4.8145   4.8292   4.8926   4.9277   4.9640   5.0805   5.0880
  5.1062   5.1456   5.1814   5.1918   5.2459   5.2726   5.2861   5.3152
  5.3628   5.4033   5.4133   5.4405   5.4527   5.4989   5.5450   5.5615
  5.5924   5.6115   5.6240   5.6913   5.7327   5.8186   5.8301   5.8687
  5.8907   6.0324   6.0349   6.1200   6.2274   6.2468   6.2981   6.3627
  6.4043   6.4737   9.1146  11.4528  12.9113  13.9056  14.1872  14.2961
 --------------------------------------------------------------
 
          Ground-State Mulliken Net Atomic Charges

     Atom                 Charge (a.u.)
  ----------------------------------------
      1 C                     0.013868
      2 C                    -0.246998
      3 C                     0.033298
      4 H                     0.179003
      5 C                    -0.250051
      6 S                    -0.001241
      7 C                    -0.272419
      8 H                     0.101915
      9 H                     0.106890
     10 H                     0.106650
     11 C                    -0.365101
     12 H                     0.113754
     13 H                     0.130603
     14 H                     0.154539
     15 H                     0.195292
  ----------------------------------------
  Sum of atomic charges =     0.000000

 -----------------------------------------------------------------
                    Cartesian Multipole Moments
 -----------------------------------------------------------------
    Charge (ESU x 10^10)
                -0.0000
    Dipole Moment (Debye)
         X       0.2254      Y      -0.0228      Z       0.9691
       Tot       0.9953
    Quadrupole Moments (Debye-Ang)
        XX     -52.7896     XY       3.6843     YY     -43.1529
        XZ      -0.1194     YZ       1.2501     ZZ     -48.7384
    Octopole Moments (Debye-Ang^2)
       XXX     -36.2229    XXY     -27.9761    XYY      -7.7853
       YYY     -74.6931    XXZ      -2.6171    XYZ      -0.1095
       YYZ      -7.0015    XZZ     -10.1474    YZZ     -22.0907
       ZZZ       0.5021
    Hexadecapole Moments (Debye-Ang^3)
      XXXX    -145.1923   XXXY    -102.2931   XXYY    -149.9458
      XYYY     -82.2314   YYYY    -747.0887   XXXZ     -32.4495
      XXYZ     -32.1697   XYYZ     -17.7680   YYYZ     -99.4448
      XXZZ    -111.3267   XYZZ     -28.6141   YYZZ    -206.9474
      XZZZ     -35.0444   YZZZ    -100.5666   ZZZZ    -490.1018
 -----------------------------------------------------------------
 Total job time:  16.36s(wall), 777.92s(cpu) 
 Fri Dec 15 14:03:06 2023

        *************************************************************
        *                                                           *
        *  Thank you very much for using Q-Chem.  Have a nice day.  *
        *                                                           *
        *************************************************************


0 sent ACK to 0 
now end server 0 ... 
cleanup process ... done
remove work dirs ./qchem22882.0 -- ./qchem22882.0
rm -rf ./qchem22882.0
rm -rf ./qchem22882
