You are running Q-Chem version: 5.4.0

#
# job setting
#
local host:  exp-1-16
current dir: /home/rramji/project-csd799/aromodel/ptb7fout-qchem/rotation-run
input file:  Dimethoxy_Benzodithiophene_Phi_30_Theta_190_Methylcarbonyl_3_Fluoro_Thienothiophene.qcin
output file: 
nprocs     : 1
nthreads   : 64
#
# qchem installation setting
#
QC:          /cm/shared/apps/spack/cpu/opt/spack/linux-centos8-zen2/gcc-10.2.0/qchem-5.4-akfmr7b3t57bfs6qan3padb2wnb2i7cl
QCAUX:       /cm/shared/apps/spack/cpu/opt/spack/linux-centos8-zen2/gcc-10.2.0/qchem-5.4-akfmr7b3t57bfs6qan3padb2wnb2i7cl/qcaux
QCPROG:      /cm/shared/apps/spack/cpu/opt/spack/linux-centos8-zen2/gcc-10.2.0/qchem-5.4-akfmr7b3t57bfs6qan3padb2wnb2i7cl/exe/qcprog.exe
QCPROG_S:    /cm/shared/apps/spack/cpu/opt/spack/linux-centos8-zen2/gcc-10.2.0/qchem-5.4-akfmr7b3t57bfs6qan3padb2wnb2i7cl/exe/qcprog.exe_s
PARALLEL:    -DPARALLEL
QCMPI:       mpich
#
# qchem directory setting
#
qcrun:       qchem262997
QCSCRATCH:   .
QCLOCALSCR:  
QCTMPDIR:    .
QCFILEPREF:  ./qchem262997
QCSAVEDIR:   
workdirs:    ./qchem262997
workdir0:    ./qchem262997
partmpdirs =  
#
# parallel setting
#
QCRSH:           ssh
QCMPI:           mpich
QCMPIRUN:        /cm/shared/apps/spack/cpu/opt/spack/linux-centos8-zen2/gcc-10.2.0/qchem-5.4-akfmr7b3t57bfs6qan3padb2wnb2i7cl/bin/mpi/mpirun_qchem
QCMACHINEFILE:   ./qchem262997/hostfile
exp-1-16

#
# env setting
#
exported envs:   QC QCAUX QCSCRATCH QCRUNNAME QCFILEPREF QCPROG QCPROG_S GUIFILE

Running Job 1 of 1 Dimethoxy_Benzodithiophene_Phi_30_Theta_190_Methylcarbonyl_3_Fluoro_Thienothiophene.qcin
qchem Dimethoxy_Benzodithiophene_Phi_30_Theta_190_Methylcarbonyl_3_Fluoro_Thienothiophene.qcin_262997.0 ./qchem262997/ 1
/cm/shared/apps/spack/cpu/opt/spack/linux-centos8-zen2/gcc-10.2.0/qchem-5.4-akfmr7b3t57bfs6qan3padb2wnb2i7cl/bin/mpi/mpirun_qchem -machinefile ./qchem262997/hostfile -np 1 /cm/shared/apps/spack/cpu/opt/spack/linux-centos8-zen2/gcc-10.2.0/qchem-5.4-akfmr7b3t57bfs6qan3padb2wnb2i7cl/exe/qcprog.exe Dimethoxy_Benzodithiophene_Phi_30_Theta_190_Methylcarbonyl_3_Fluoro_Thienothiophene.qcin_262997.0 ./qchem262997/

Process 0 of 1 is on exp-1-16 - thread support 0
initial socket setup ...start
initial socket setup ...done 
now start server 0 ... 
                  Welcome to Q-Chem
     A Quantum Leap Into The Future Of Chemistry


 Q-Chem 5.4, Q-Chem, Inc., Pleasanton, CA (2021)

 License issued to: University of California, San Diego (site)

 E. Epifanovsky,  A. T. B. Gilbert,  Xintian Feng,  Joonho Lee,  Yuezhi Mao,  
 N. Mardirossian,  P. Pokhilko,  A. White,  M. Wormit,  M. P. Coons,  
 A. L. Dempwolff,  Zhengting Gan,  D. Hait,  P. R. Horn,  L. D. Jacobson,  
 I. Kaliman,  J. Kussmann,  A. W. Lange,  Ka Un Lao,  D. S. Levine,  Jie Liu,  
 S. C. McKenzie,  A. F. Morrison,  K. Nanda,  F. Plasser,  D. R. Rehn,  
 M. L. Vidal,  Zhi-Qiang You,  Ying Zhu,  B. Alam,  B. Albrecht,  
 A. Aldossary,  E. Alguire,  J. H. Andersen,  D. Barton,  K. Begam,  A. Behn,  
 Y. A. Bernard,  E. J. Berquist,  H. Burton,  A. Carreras,  K. Carter-Fenk,  
 R. Chakraborty,  A. D. Chien,  K. D. Closser,  V. Cofer-Shabica,  
 S. Dasgupta,  Jia Deng,  M. de Wergifosse,  M. Diedenhofen,  Hainam Do,  
 S. Ehlert,  Po-Tung Fang,  S. Fatehi,  Qingguo Feng,  J. Gayvert,  
 Qinghui Ge,  G. Gidofalvi,  M. Goldey,  J. Gomes,  C. Gonzalez-Espinoza,  
 S. Gulania,  A. Gunina,  M. W. D. Hanson-Heine,  P. H. P. Harbach,  
 A. W. Hauser,  M. F. Herbst,  M. Hernandez Vera,  M. Hodecker,  
 Z. C. Holden,  S. Houck,  Xunkun Huang,  Kerwin Hui,  B. C. Huynh,  
 M. Ivanov,  Hyunjun Ji,  Hanjie Jiang,  B. Kaduk,  S. Kaehler,  
 K. Khistyaev,  Jaehoon Kim,  P. Klunzinger,  Z. Koczor-Benda,  
 Joong Hoon Koh,  D. Kosenkov,  L. Koulias,  T. Kowalczyk,  C. M. Krauter,  
 K. Kue,  A. Kunitsa,  T. Kus,  A. Landau,  K. V. Lawler,  D. Lefrancois,  
 S. Lehtola,  Rain Li,  Yi-Pei Li,  Jiashu Liang,  M. Liebenthal,  
 Hung-Hsuan Lin,  You-Sheng Lin,  Fenglai Liu,  Kuan-Yu Liu,  
 M. Loipersberger,  A. Luenser,  A. Manjanath,  P. Manohar,  E. Mansoor,  
 S. F. Manzer,  Shan-Ping Mao,  A. V. Marenich,  T. Markovich,  S. Mason,  
 S. A. Maurer,  P. F. McLaughlin,  M. F. S. J. Menger,  J.-M. Mewes,  
 S. A. Mewes,  P. Morgante,  J. W. Mullinax,  T. S. Nguyen-Beck,  
 K. J. Oosterbaan,  G. Paran,  Alexander C. Paul,  Suranjan K. Paul,  
 F. Pavosevic,  Zheng Pei,  S. Prager,  E. I. Proynov,  E. Ramos,  B. Rana,  
 A. E. Rask,  A. Rettig,  R. M. Richard,  F. Rob,  E. Rossomme,  T. Scheele,  
 M. Scheurer,  M. Schneider,  N. Sergueev,  S. M. Sharada,  W. Skomorowski,  
 D. W. Small,  C. J. Stein,  Yu-Chuan Su,  E. J. Sundstrom,  Zhen Tao,  
 J. Thirman,  T. Tsuchimochi,  N. M. Tubman,  S. P. Veccham,  O. Vydrov,  
 J. Wenzel,  J. Witte,  A. Yamada,  Kun Yao,  S. Yeganeh,  S. R. Yost,  
 A. Zech,  Igor Ying Zhang,  Xing Zhang,  Yu Zhang,  D. Zuev,  
 A. Aspuru-Guzik,  A. T. Bell,  N. A. Besley,  K. B. Bravaya,  B. R. Brooks,  
 D. Casanova,  Jeng-Da Chai,  S. Coriani,  C. J. Cramer,  
 A. E. DePrince, III,  R. A. DiStasio Jr.,  A. Dreuw,  B. D. Dunietz,  
 T. R. Furlani,  W. A. Goddard III,  S. Grimme,  S. Hammes-Schiffer,  
 T. Head-Gordon,  W. J. Hehre,  Chao-Ping Hsu,  T.-C. Jagau,  Yousung Jung,  
 A. Klamt,  Jing Kong,  D. S. Lambrecht,  WanZhen Liang,  N. J. Mayhall,  
 C. W. McCurdy,  J. B. Neaton,  C. Ochsenfeld,  J. A. Parkhill,  R. Peverati,  
 V. A. Rassolov,  Yihan Shao,  L. V. Slipchenko,  T. Stauch,  R. P. Steele,  
 J. E. Subotnik,  A. J. W. Thom,  A. Tkatchenko,  D. G. Truhlar,  
 T. Van Voorhis,  T. A. Wesolowski,  K. B. Whaley,  H. L. Woodcock III,  
 P. M. Zimmerman,  S. Faraji,  P. M. W. Gill,  M. Head-Gordon,  
 J. M. Herbert,  A. I. Krylov

 Contributors to earlier versions of Q-Chem not listed above: 
 R. D. Adamson,  B. Austin,  R. Baer,  J. Baker,  G. J. O. Beran,  
 K. Brandhorst,  S. T. Brown,  E. F. C. Byrd,  A. K. Chakraborty,  
 G. K. L. Chan,  Chun-Min Chang,  Yunqing Chen,  C.-L. Cheng,  
 Siu Hung Chien,  D. M. Chipman,  D. L. Crittenden,  H. Dachsel,  
 R. J. Doerksen,  A. D. Dutoi,  R. G. Edgar,  J. Fosso-Tande,  
 L. Fusti-Molnar,  D. Ghosh,  A. Ghysels,  A. Golubeva-Zadorozhnaya,  
 J. Gonthier,  M. S. Gordon,  S. R. Gwaltney,  G. Hawkins,  J. E. Herr,  
 A. Heyden,  S. Hirata,  E. G. Hohenstein,  G. Kedziora,  F. J. Keil,  
 C. Kelley,  Jihan Kim,  R. A. King,  R. Z. Khaliullin,  P. P. Korambath,  
 W. Kurlancheek,  A. Laurent,  A. M. Lee,  M. S. Lee,  S. V. Levchenko,  
 Ching Yeh Lin,  D. Liotard,  E. Livshits,  R. C. Lochan,  I. Lotan,  
 L. A. Martinez-Martinez,  P. E. Maslen,  N. Nair,  D. P. O'Neill,  
 D. Neuhauser,  E. Neuscamman,  C. M. Oana,  R. Olivares-Amaya,  R. Olson,  
 T. M. Perrine,  B. Peters,  P. A. Pieniazek,  A. Prociuk,  Y. M. Rhee,  
 J. Ritchie,  M. A. Rohrdanz,  E. Rosta,  N. J. Russ,  H. F. Schaefer III,  
 M. W. Schmidt,  N. E. Schultz,  S. Sharma,  N. Shenvi,  C. D. Sherrill,  
 A. C. Simmonett,  A. Sodt,  T. Stein,  D. Stuck,  K. S. Thanthiriwatte,  
 V. Vanovschi,  L. Vogt,  Tao Wang,  A. Warshel,  M. A. Watson,  
 C. F. Williams,  Q. Wu,  X. Xu,  Jun Yang,  W. Zhang,  Yan Zhao

 Please cite Q-Chem as follows:
 Y. Shao et al., Mol. Phys. 113, 184-215 (2015)
 DOI: 10.1080/00268976.2014.952696

 Q-Chem 5.4.0 for Intel X86 EM64T Linux

 Parts of Q-Chem use Armadillo 9.800.1 (Horizon Scraper).
 http://arma.sourceforge.net/

 Q-Chem begins on Mon Jan  8 20:23:20 2024  

 Host: 
0

     Scratch files written to ./qchem262997//
 May1621 |scratch|qcdevops|jenkins|workspace|build_RNUM    
 Parallel job on  1  processors
 Processing $rem in /cm/shared/apps/spack/cpu/opt/spack/linux-centos8-zen2/gcc-10.2.0/qchem-5.4-akfmr7b3t57bfs6qan3padb2wnb2i7cl/config/preferences:
 Processing $rem in /home/rramji/.qchemrc:
 Symmetry turned off for PCM/SM12/SMD calculation
 Core orbitals will be frozen

 Checking the input file for inconsistencies... 	...done.

 Q-Chem warning in module forms1/BasisType.C, line 2236:

 You are not using the predefined 5D/6D in this basis set.


--------------------------------------------------------------
User input:
--------------------------------------------------------------
$molecule
0 1
C	0.095966	-8.517702	-0.306235
C	-0.082807	-7.641575	0.754415
S	0.348635	-7.638634	-1.833702
C	-0.017401	-6.264785	0.383675
H	-0.259008	-7.966081	1.787757
C	0.231913	-6.072714	-1.020885
C	0.305044	-4.787049	-1.579097
C	-0.196549	-5.162801	1.268082
C	-0.127606	-3.874817	0.708796
C	0.124792	-3.683952	-0.696769
O	-0.397867	-5.499772	2.572378
O	0.506103	-4.459055	-2.889532
C	1.267335	-5.329063	-3.718420
H	1.502804	-4.755694	-4.635204
H	0.697471	-6.238095	-4.010790
H	2.215194	-5.637262	-3.226506
C	-0.999238	-4.572261	3.467415
H	-1.230649	-5.139743	4.388648
H	-1.940905	-4.153131	3.052323
H	-0.311543	-3.739531	3.730819
C	0.187323	-2.306654	-1.064366
S	-0.257128	-2.306501	1.521154
C	-0.000000	-1.435185	-0.000000
H	0.365903	-1.978138	-2.095939
H	0.092855	-9.614033	-0.309131
C	0.000000	0.000000	0.000000
S	0.452792	0.783312	1.507541
C	1.238397	2.145556	0.718873
C	0.452875	0.782898	-1.067872
C	1.145945	1.987956	-0.686410
S	0.333556	0.570531	-2.805516
C	1.204604	2.090290	-3.054530
C	1.556633	2.704929	-1.862551
F	2.220797	3.864903	-1.819088
C	1.430252	2.477345	-4.456084
O	1.052242	1.806648	-5.406510
O	2.099050	3.650663	-4.569225
C	2.351116	4.076808	-5.916207
H	2.895579	5.033821	-5.833064
H	1.401015	4.217390	-6.470168
H	2.962391	3.327969	-6.459293
H	1.699302	2.946693	1.306486
$end

$rem
JOBTYPE		SP
EXCHANGE	HF
CORRELATION	pRIMP2
BASIS		cc-pvtz
METHOD		rimp2
AUX_BASIS	rimp2-cc-pvtz
SOLVENT_METHOD	PCM
PURECART	11111
SYMMETRY	false
MEM_TOTAL	110000
SCF_CONVERGENCE = 6
THRESH=10
GUI = 2
$end



$solvent
dielectric 4.90
$end
--------------------------------------------------------------
 ----------------------------------------------------------------
             Standard Nuclear Orientation (Angstroms)
    I     Atom           X                Y                Z
 ----------------------------------------------------------------
    1      C       0.0959660000    -8.5177020000    -0.3062350000
    2      C      -0.0828070000    -7.6415750000     0.7544150000
    3      S       0.3486350000    -7.6386340000    -1.8337020000
    4      C      -0.0174010000    -6.2647850000     0.3836750000
    5      H      -0.2590080000    -7.9660810000     1.7877570000
    6      C       0.2319130000    -6.0727140000    -1.0208850000
    7      C       0.3050440000    -4.7870490000    -1.5790970000
    8      C      -0.1965490000    -5.1628010000     1.2680820000
    9      C      -0.1276060000    -3.8748170000     0.7087960000
   10      C       0.1247920000    -3.6839520000    -0.6967690000
   11      O      -0.3978670000    -5.4997720000     2.5723780000
   12      O       0.5061030000    -4.4590550000    -2.8895320000
   13      C       1.2673350000    -5.3290630000    -3.7184200000
   14      H       1.5028040000    -4.7556940000    -4.6352040000
   15      H       0.6974710000    -6.2380950000    -4.0107900000
   16      H       2.2151940000    -5.6372620000    -3.2265060000
   17      C      -0.9992380000    -4.5722610000     3.4674150000
   18      H      -1.2306490000    -5.1397430000     4.3886480000
   19      H      -1.9409050000    -4.1531310000     3.0523230000
   20      H      -0.3115430000    -3.7395310000     3.7308190000
   21      C       0.1873230000    -2.3066540000    -1.0643660000
   22      S      -0.2571280000    -2.3065010000     1.5211540000
   23      C       0.0000000000    -1.4351850000     0.0000000000
   24      H       0.3659030000    -1.9781380000    -2.0959390000
   25      H       0.0928550000    -9.6140330000    -0.3091310000
   26      C       0.0000000000     0.0000000000     0.0000000000
   27      S       0.4527920000     0.7833120000     1.5075410000
   28      C       1.2383970000     2.1455560000     0.7188730000
   29      C       0.4528750000     0.7828980000    -1.0678720000
   30      C       1.1459450000     1.9879560000    -0.6864100000
   31      S       0.3335560000     0.5705310000    -2.8055160000
   32      C       1.2046040000     2.0902900000    -3.0545300000
   33      C       1.5566330000     2.7049290000    -1.8625510000
   34      F       2.2207970000     3.8649030000    -1.8190880000
   35      C       1.4302520000     2.4773450000    -4.4560840000
   36      O       1.0522420000     1.8066480000    -5.4065100000
   37      O       2.0990500000     3.6506630000    -4.5692250000
   38      C       2.3511160000     4.0768080000    -5.9162070000
   39      H       2.8955790000     5.0338210000    -5.8330640000
   40      H       1.4010150000     4.2173900000    -6.4701680000
   41      H       2.9623910000     3.3279690000    -6.4592930000
   42      H       1.6993020000     2.9466930000     1.3064860000
 ----------------------------------------------------------------
 Nuclear Repulsion Energy =        3301.01582373 hartrees
 There are      119 alpha and      119 beta electrons
 Requested basis set is cc-pVTZ
 There are 376 shells and 1068 basis functions

 Total QAlloc Memory Limit 110000 MB
 Mega-Array Size       188 MB
 MEM_STATIC part       192 MB
 Discretize the solute cavity surface with Lebedev spheres
	Using 110 Lebedev grid points for each H atom
	Using 194 Lebedev grid points for other atoms
	Atomic van der Waals radii will be scaled by 1.20
 Remove points where switching function is < 1.0e-08
 Keep 2883 surface tesserae and discard 4173 interior tesserae
 Molecular Surface Area = 435.448 Angst**2
 Requested basis set is rimp2-cc-pVTZ
 There are 833 shells and 2903 basis functions
 A cutoff of  1.0D-10 yielded  31248 shell pairs
 There are    239634 function pairs (    311039 Cartesian)
 Smallest overlap matrix eigenvalue = 2.12E-05

 Scale SEOQF with 1.000000e-01/1.000000e-02/1.000000e-02

 Standard Electronic Orientation quadrupole field applied
 Nucleus-field energy     =     0.0000000223 hartrees
 Guess from superposition of atomic densities
 Warning:  Energy on first SCF cycle will be non-variational
 SAD guess density has 238.000000 electrons

 -----------------------------------------------------------------------
  General SCF calculation program by
  Eric Jon Sundstrom, Paul Horn, Yuezhi Mao, Dmitri Zuev, Alec White,
  David Stuck, Shaama M.S., Shane Yost, Joonho Lee, David Small,
  Daniel Levine, Susi Lehtola, Hugh Burton, Evgeny Epifanovsky,
  Bang C. Huynh
 -----------------------------------------------------------------------
 Hartree-Fock
 using 64 threads for integral computing
 -------------------------------------------------------
 OpenMP Integral computing Module                
 Release: version 1.0, May 2013, Q-Chem Inc. Pittsburgh 
 -------------------------------------------------------
 A restricted SCF calculation will be
 performed using DIIS
 SCF converges when DIIS error is below 1.0e-06
 ---------------------------------------
  Cycle       Energy         DIIS error
 ---------------------------------------
    1   -2765.2649766401      1.75e-02  
    2   -2753.8638314122      1.56e-03  
    3   -2754.2041668341      8.64e-04  
    4   -2754.2861913687      2.56e-04  
    5   -2754.2978508044      6.92e-05  
    6   -2754.2989283238      2.37e-05  
    7   -2754.2991598567      1.13e-05  
    8   -2754.2992353680      4.20e-06  
    9   -2754.2992493513      1.67e-06  
   10   -2754.2992510763      7.27e-07  Convergence criterion met
 ---------------------------------------
 SCF time:   CPU 6109.70s  wall 247.00s 

************** Final PCM Free Energy Summary **************
 G_electrostatic  =      -0.01872199 hartree =     -11.74822886 kcal/mol
 G_cavitation     =       0.00000000 hartree =       0.00000000 kcal/mol
 G_dispersion     =       0.00000000 hartree =       0.00000000 kcal/mol
 G_repulsion      =       0.00000000 hartree =       0.00000000 kcal/mol
 --------------------------------------------------
 Non-electrostatic Free Energy =       0.00000000 hartree =       0.00000000 kcal/mol
 Total                         =      -0.01872199 hartree =     -11.74822886 kcal/mol
 --------------------------------------------------
 SCF Energy (H0 + V/2)                       =   -2754.29925108 
 Solute Internal Energy (H0)                 =   -2754.28052908 
 Total Free Energy (H0 + V/2 + non-elec)     =   -2754.29925108 hartree
                                             = -1728348.86601861 kcal/mol
***********************************************************

 SCF   energy in the final basis set =    -2754.2992510763
 Total energy in the final basis set =    -2754.2992510763


 --------------------------------------------------------------
  Generalized many-body perturbation theory program
  by Joonho Lee, Fazle Rob, Xintian Feng, Evgeny Epifanovsky

 No regularization used 
 (reg. param. = 0.0000e+00)
  (P|Q)^-1/2 Time:  CPU 324.14 s  wall 5.75 s

 In RI-MP2 calculation: 
 # of frozen core orbitals: 45

 Components of the RIMP2 correlation energy:
        aaaa    correlation energy =        -0.6709398090 a.u.
        abab    correlation energy =        -3.7151583565 a.u.
        bbbb    correlation energy =        -0.6709398090 a.u.
        non-Brillouin singles      =        -0.0000000000 a.u.
        total same-spin energy     =        -1.3418796181 a.u.
        total opposite-spin energy =        -3.7151583565 a.u.

 Total  RIMP2   correlation energy =        -5.0570379745 a.u.
        RIMP2         total energy =     -2759.3562890509 a.u.

 RI-MP2 Energy Time:  CPU 3735.51 s  wall 62.72 s
 
 --------------------------------------------------------------
 
                    Orbital Energies (a.u.)
 --------------------------------------------------------------
 
 Alpha MOs
 -- Occupied --
-92.0162 -92.0029 -91.9887 -91.9853 -26.3446 -20.6153 -20.5923 -20.5894
-20.5618 -11.4101 -11.3844 -11.3190 -11.3175 -11.3149 -11.3056 -11.2984
-11.2975 -11.2951 -11.2891 -11.2873 -11.2873 -11.2846 -11.2845 -11.2831
-11.2778 -11.2607 -11.2565 -11.2496 -11.2491  -9.0151  -9.0028  -8.9895
 -8.9852  -6.6959  -6.6952  -6.6947  -6.6838  -6.6831  -6.6820  -6.6706
 -6.6699  -6.6689  -6.6661  -6.6655  -6.6647  -1.6616  -1.4678  -1.4163
 -1.4123  -1.3705  -1.2254  -1.1934  -1.1655  -1.1382  -1.0854  -1.0509
 -1.0435  -1.0252  -1.0003  -0.9882  -0.9646  -0.9594  -0.9499  -0.9397
 -0.8956  -0.8696  -0.8501  -0.8097  -0.7987  -0.7882  -0.7851  -0.7634
 -0.7558  -0.7332  -0.7264  -0.7114  -0.7013  -0.6862  -0.6827  -0.6816
 -0.6743  -0.6593  -0.6586  -0.6515  -0.6302  -0.6189  -0.6163  -0.6032
 -0.5999  -0.5818  -0.5803  -0.5710  -0.5646  -0.5608  -0.5573  -0.5474
 -0.5350  -0.5305  -0.5235  -0.5182  -0.5159  -0.5105  -0.5053  -0.4956
 -0.4869  -0.4819  -0.4772  -0.4745  -0.4697  -0.4639  -0.4589  -0.4267
 -0.3952  -0.3832  -0.3614  -0.3483  -0.3280  -0.2893  -0.2486
 -- Virtual --
  0.0220   0.0606   0.1064   0.1246   0.1279   0.1512   0.1548   0.1562
  0.1586   0.1615   0.1651   0.1721   0.1819   0.1847   0.1924   0.1959
  0.2022   0.2068   0.2149   0.2190   0.2233   0.2236   0.2242   0.2273
  0.2394   0.2452   0.2479   0.2528   0.2576   0.2656   0.2752   0.2899
  0.2915   0.3101   0.3197   0.3299   0.3372   0.3410   0.3469   0.3544
  0.3613   0.3621   0.3706   0.3796   0.3833   0.3834   0.3876   0.3890
  0.3910   0.3973   0.4008   0.4055   0.4106   0.4151   0.4238   0.4252
  0.4285   0.4359   0.4411   0.4430   0.4480   0.4497   0.4566   0.4588
  0.4658   0.4690   0.4713   0.4749   0.4797   0.4855   0.4876   0.4930
  0.4985   0.4986   0.5029   0.5067   0.5099   0.5160   0.5196   0.5226
  0.5279   0.5305   0.5328   0.5373   0.5410   0.5433   0.5458   0.5504
  0.5532   0.5571   0.5583   0.5622   0.5665   0.5706   0.5719   0.5845
  0.5882   0.5906   0.5963   0.6009   0.6038   0.6064   0.6100   0.6141
  0.6164   0.6169   0.6220   0.6231   0.6238   0.6278   0.6322   0.6366
  0.6385   0.6470   0.6477   0.6503   0.6539   0.6587   0.6687   0.6741
  0.6764   0.6821   0.6894   0.6941   0.6956   0.7011   0.7060   0.7094
  0.7121   0.7189   0.7226   0.7320   0.7335   0.7357   0.7401   0.7510
  0.7526   0.7601   0.7681   0.7735   0.7828   0.7877   0.7959   0.8031
  0.8075   0.8105   0.8164   0.8233   0.8271   0.8332   0.8456   0.8459
  0.8487   0.8533   0.8598   0.8667   0.8713   0.8733   0.8795   0.8876
  0.8899   0.8991   0.9033   0.9052   0.9102   0.9180   0.9219   0.9316
  0.9321   0.9408   0.9420   0.9465   0.9514   0.9584   0.9618   0.9658
  0.9709   0.9714   0.9814   0.9833   0.9896   0.9952   1.0017   1.0029
  1.0103   1.0121   1.0168   1.0197   1.0235   1.0322   1.0407   1.0429
  1.0475   1.0508   1.0581   1.0605   1.0646   1.0683   1.0733   1.0833
  1.0837   1.0891   1.0910   1.0972   1.1029   1.1049   1.1089   1.1153
  1.1179   1.1196   1.1275   1.1358   1.1396   1.1482   1.1540   1.1577
  1.1607   1.1699   1.1723   1.1821   1.1842   1.1879   1.1920   1.1943
  1.1977   1.2043   1.2125   1.2155   1.2220   1.2236   1.2279   1.2326
  1.2341   1.2435   1.2473   1.2537   1.2594   1.2645   1.2655   1.2709
  1.2733   1.2767   1.2894   1.2943   1.3039   1.3087   1.3127   1.3168
  1.3243   1.3299   1.3345   1.3436   1.3520   1.3552   1.3631   1.3715
  1.3734   1.3776   1.3832   1.3924   1.3980   1.4077   1.4133   1.4254
  1.4267   1.4372   1.4477   1.4506   1.4692   1.4779   1.4839   1.4849
  1.4949   1.5004   1.5011   1.5089   1.5125   1.5138   1.5246   1.5330
  1.5357   1.5362   1.5411   1.5424   1.5463   1.5535   1.5642   1.5737
  1.5743   1.5759   1.5856   1.5914   1.6008   1.6119   1.6240   1.6311
  1.6387   1.6443   1.6496   1.6542   1.6621   1.6651   1.6739   1.6837
  1.6851   1.6982   1.7012   1.7091   1.7216   1.7264   1.7358   1.7434
  1.7547   1.7680   1.7761   1.7801   1.7953   1.7993   1.8119   1.8175
  1.8226   1.8296   1.8403   1.8483   1.8532   1.8652   1.8687   1.8783
  1.8860   1.8937   1.8976   1.9109   1.9179   1.9288   1.9307   1.9340
  1.9347   1.9398   1.9516   1.9613   1.9671   1.9775   1.9853   1.9932
  1.9975   2.0008   2.0076   2.0244   2.0300   2.0400   2.0504   2.0667
  2.0801   2.0909   2.0928   2.1026   2.1079   2.1145   2.1206   2.1429
  2.1561   2.1623   2.1658   2.1717   2.1777   2.1828   2.1897   2.1925
  2.1988   2.2013   2.2101   2.2203   2.2262   2.2312   2.2318   2.2397
  2.2535   2.2572   2.2599   2.2642   2.2728   2.2753   2.2815   2.2855
  2.2925   2.3095   2.3169   2.3217   2.3335   2.3482   2.3545   2.3618
  2.3638   2.3693   2.3803   2.3858   2.3949   2.4139   2.4178   2.4246
  2.4298   2.4361   2.4406   2.4425   2.4575   2.4676   2.4823   2.4846
  2.4962   2.4969   2.5064   2.5247   2.5336   2.5422   2.5474   2.5574
  2.5607   2.5741   2.5798   2.5906   2.6007   2.6131   2.6163   2.6220
  2.6260   2.6274   2.6311   2.6383   2.6431   2.6513   2.6610   2.6648
  2.6725   2.6794   2.6862   2.6924   2.6991   2.7031   2.7056   2.7076
  2.7180   2.7270   2.7288   2.7435   2.7473   2.7530   2.7618   2.7784
  2.7823   2.7897   2.7916   2.8007   2.8024   2.8084   2.8117   2.8130
  2.8311   2.8386   2.8449   2.8514   2.8523   2.8564   2.8679   2.8740
  2.8768   2.8800   2.8855   2.8924   2.8970   2.9049   2.9219   2.9272
  2.9438   2.9553   2.9592   2.9634   2.9675   2.9836   2.9851   2.9876
  3.0024   3.0101   3.0138   3.0226   3.0280   3.0326   3.0354   3.0424
  3.0480   3.0517   3.0640   3.0736   3.0773   3.0829   3.0905   3.0985
  3.1024   3.1081   3.1109   3.1150   3.1187   3.1289   3.1310   3.1382
  3.1481   3.1523   3.1565   3.1582   3.1619   3.1688   3.1762   3.1825
  3.1963   3.2036   3.2082   3.2113   3.2160   3.2171   3.2254   3.2274
  3.2325   3.2338   3.2397   3.2532   3.2544   3.2621   3.2652   3.2698
  3.2718   3.2746   3.2792   3.2828   3.2891   3.2941   3.2995   3.3057
  3.3100   3.3210   3.3278   3.3323   3.3366   3.3405   3.3457   3.3488
  3.3526   3.3564   3.3615   3.3635   3.3660   3.3701   3.3751   3.3802
  3.3864   3.3906   3.3942   3.3983   3.3989   3.4044   3.4105   3.4152
  3.4224   3.4259   3.4310   3.4395   3.4446   3.4454   3.4504   3.4574
  3.4639   3.4660   3.4678   3.4735   3.4749   3.4797   3.4811   3.4843
  3.4909   3.5052   3.5097   3.5163   3.5187   3.5239   3.5302   3.5339
  3.5388   3.5423   3.5500   3.5519   3.5551   3.5640   3.5748   3.5824
  3.5846   3.5883   3.5917   3.5997   3.6008   3.6049   3.6081   3.6199
  3.6240   3.6277   3.6286   3.6350   3.6399   3.6520   3.6556   3.6629
  3.6664   3.6704   3.6760   3.6837   3.6865   3.6937   3.7000   3.7034
  3.7048   3.7059   3.7134   3.7222   3.7238   3.7321   3.7388   3.7416
  3.7481   3.7555   3.7671   3.7697   3.7759   3.7782   3.7837   3.7867
  3.7950   3.7958   3.8006   3.8066   3.8099   3.8117   3.8202   3.8240
  3.8315   3.8386   3.8464   3.8532   3.8557   3.8595   3.8622   3.8703
  3.8759   3.8800   3.8899   3.8964   3.8974   3.9042   3.9074   3.9148
  3.9267   3.9324   3.9372   3.9493   3.9514   3.9562   3.9690   3.9767
  3.9858   3.9918   3.9963   4.0118   4.0150   4.0300   4.0313   4.0322
  4.0415   4.0537   4.0607   4.0680   4.0705   4.0768   4.0851   4.0958
  4.1016   4.1170   4.1209   4.1257   4.1372   4.1427   4.1500   4.1548
  4.1575   4.1665   4.1698   4.1728   4.1837   4.1882   4.1906   4.2030
  4.2064   4.2133   4.2209   4.2387   4.2449   4.2474   4.2595   4.2677
  4.2747   4.2869   4.3043   4.3189   4.3259   4.3342   4.3364   4.3419
  4.3577   4.3596   4.3675   4.3692   4.3784   4.3823   4.3893   4.4015
  4.4074   4.4096   4.4154   4.4226   4.4286   4.4360   4.4391   4.4486
  4.4530   4.4713   4.4790   4.4961   4.5009   4.5055   4.5100   4.5219
  4.5366   4.5415   4.5468   4.5577   4.5606   4.5675   4.5798   4.5866
  4.5950   4.6130   4.6240   4.6268   4.6346   4.6419   4.6493   4.6523
  4.6668   4.6729   4.6817   4.6827   4.6894   4.7125   4.7268   4.7357
  4.7425   4.7545   4.7605   4.7687   4.7801   4.7958   4.8003   4.8218
  4.8311   4.8450   4.8487   4.8617   4.8680   4.8764   4.8865   4.8975
  4.9296   4.9428   4.9509   4.9582   4.9665   4.9707   4.9945   4.9982
  5.0044   5.0086   5.0194   5.0365   5.0385   5.0520   5.0643   5.0723
  5.0870   5.1049   5.1156   5.1305   5.1560   5.1662   5.1742   5.1978
  5.2043   5.2204   5.2442   5.2484   5.2521   5.2572   5.2594   5.2817
  5.2974   5.3086   5.3143   5.3261   5.3386   5.3498   5.3611   5.3711
  5.3793   5.3952   5.4014   5.4025   5.4170   5.4259   5.4389   5.4648
  5.4847   5.4879   5.5015   5.5071   5.5148   5.5274   5.5385   5.5724
  5.5779   5.5854   5.5897   5.6076   5.6197   5.6215   5.6520   5.6638
  5.7215   5.7310   5.7473   5.7786   5.8071   5.8158   5.8250   5.8553
  5.8744   5.8858   5.9077   5.9287   5.9392   5.9691   6.0016   6.0417
  6.0508   6.0868   6.1140   6.1488   6.1502   6.1710   6.1789   6.1835
  6.2416   6.2496   6.2610   6.2645   6.2759   6.2827   6.3164   6.3604
  6.4205   6.4496   6.4502   6.4862   6.5383   6.5494   6.5592   6.6022
  6.6569   6.6610   6.6708   6.7010   6.7449   6.8024   6.8292   6.8389
  6.8593   6.8947   6.9776   7.1220   7.1359   7.2035   7.2051   7.2162
  7.2368   7.3095   7.3231   7.3324   7.3620   7.3628   7.4048   7.4130
  7.4782   7.4845   7.4898   7.5214   7.5490   7.6159   7.7019   7.7717
  7.7892   7.7979   7.8925   7.9202   7.9417   7.9598   8.0677   8.1339
  8.4988   8.9209   9.0188   9.3619   9.4775   9.6561  10.0770  10.4957
 11.1611  11.3990  11.7749  11.9775  12.1326  12.1840  12.4176  12.5744
 12.6599  12.9754  13.0123  13.1316  13.3522  13.3879  13.7703  13.8491
 13.9041  14.0245  14.0408  14.6731  15.2130
 --------------------------------------------------------------
 
          Ground-State Mulliken Net Atomic Charges

     Atom                 Charge (a.u.)
  ----------------------------------------
      1 C                    -0.192899
      2 C                    -0.253949
      3 S                    -0.023673
      4 C                    -0.019706
      5 H                     0.195762
      6 C                    -0.026181
      7 C                     0.239961
      8 C                     0.245059
      9 C                    -0.042731
     10 C                    -0.018874
     11 O                    -0.333150
     12 O                    -0.341196
     13 C                    -0.086264
     14 H                     0.123145
     15 H                     0.091158
     16 H                     0.093238
     17 C                    -0.088307
     18 H                     0.125947
     19 H                     0.095012
     20 H                     0.089209
     21 C                    -0.242020
     22 S                    -0.042660
     23 C                    -0.010159
     24 H                     0.188115
     25 H                     0.205748
     26 C                     0.005488
     27 S                     0.100888
     28 C                    -0.184391
     29 C                    -0.018966
     30 C                    -0.100096
     31 S                     0.029908
     32 C                    -0.163087
     33 C                     0.406692
     34 F                    -0.205372
     35 C                     0.445562
     36 O                    -0.460834
     37 O                    -0.300978
     38 C                    -0.058368
     39 H                     0.121574
     40 H                     0.095279
     41 H                     0.095189
     42 H                     0.220927
  ----------------------------------------
  Sum of atomic charges =     0.000000

 -----------------------------------------------------------------
                    Cartesian Multipole Moments
 -----------------------------------------------------------------
    Charge (ESU x 10^10)
                -0.0000
    Dipole Moment (Debye)
         X       1.8558      Y       1.7176      Z       3.1000
       Tot       4.0005
    Quadrupole Moments (Debye-Ang)
        XX    -193.9809     XY       6.0061     YY    -166.5931
        XZ     -12.8396     YZ      -7.0253     ZZ    -184.6784
    Octopole Moments (Debye-Ang^2)
       XXX    -291.4235    XXY     401.6111    XYY     -67.3626
       YYY     932.3024    XXZ     172.6670    XYZ      18.1250
       YYZ     136.2869    XZZ     -47.5987    YZZ     385.4374
       ZZZ     602.1016
    Hexadecapole Moments (Debye-Ang^3)
      XXXX   -1258.4173   XXXY    -561.2627   XXYY   -3903.1424
      XYYY    -554.7525   YYYY  -18712.1893   XXXZ    1036.7771
      XXYZ     216.9992   XYYZ      -1.1390   YYYZ     697.5498
      XXZZ   -1298.6222   XYZZ      43.2919   YYZZ   -4070.4326
      XZZZ     678.7279   YZZZ     393.3780   ZZZZ   -7410.6302
 -----------------------------------------------------------------
 Total job time:  727.52s(wall), 10171.65s(cpu) 
 Mon Jan  8 20:35:27 2024

        *************************************************************
        *                                                           *
        *  Thank you very much for using Q-Chem.  Have a nice day.  *
        *                                                           *
        *************************************************************


0 sent ACK to 0 
now end server 0 ... 
cleanup process ... done
remove work dirs ./qchem262997.0 -- ./qchem262997.0
rm -rf ./qchem262997.0
rm -rf ./qchem262997
