You are running Q-Chem version: 5.4.0

#
# job setting
#
local host:  exp-9-41
current dir: /home/rramji/project-csd799/aromodel/ptb7fout-qchem/rotation-run
input file:  Dimethoxy_Benzodithiophene_Phi_25_Theta_190_Methylcarbonyl_3_Fluoro_Thienothiophene.qcin
output file: 
nprocs     : 1
nthreads   : 64
#
# qchem installation setting
#
QC:          /cm/shared/apps/spack/cpu/opt/spack/linux-centos8-zen2/gcc-10.2.0/qchem-5.4-akfmr7b3t57bfs6qan3padb2wnb2i7cl
QCAUX:       /cm/shared/apps/spack/cpu/opt/spack/linux-centos8-zen2/gcc-10.2.0/qchem-5.4-akfmr7b3t57bfs6qan3padb2wnb2i7cl/qcaux
QCPROG:      /cm/shared/apps/spack/cpu/opt/spack/linux-centos8-zen2/gcc-10.2.0/qchem-5.4-akfmr7b3t57bfs6qan3padb2wnb2i7cl/exe/qcprog.exe
QCPROG_S:    /cm/shared/apps/spack/cpu/opt/spack/linux-centos8-zen2/gcc-10.2.0/qchem-5.4-akfmr7b3t57bfs6qan3padb2wnb2i7cl/exe/qcprog.exe_s
PARALLEL:    -DPARALLEL
QCMPI:       mpich
#
# qchem directory setting
#
qcrun:       qchem2725450
QCSCRATCH:   .
QCLOCALSCR:  
QCTMPDIR:    .
QCFILEPREF:  ./qchem2725450
QCSAVEDIR:   
workdirs:    ./qchem2725450
workdir0:    ./qchem2725450
partmpdirs =  
#
# parallel setting
#
QCRSH:           ssh
QCMPI:           mpich
QCMPIRUN:        /cm/shared/apps/spack/cpu/opt/spack/linux-centos8-zen2/gcc-10.2.0/qchem-5.4-akfmr7b3t57bfs6qan3padb2wnb2i7cl/bin/mpi/mpirun_qchem
QCMACHINEFILE:   ./qchem2725450/hostfile
exp-9-41

#
# env setting
#
exported envs:   QC QCAUX QCSCRATCH QCRUNNAME QCFILEPREF QCPROG QCPROG_S GUIFILE

Running Job 1 of 1 Dimethoxy_Benzodithiophene_Phi_25_Theta_190_Methylcarbonyl_3_Fluoro_Thienothiophene.qcin
qchem Dimethoxy_Benzodithiophene_Phi_25_Theta_190_Methylcarbonyl_3_Fluoro_Thienothiophene.qcin_2725450.0 ./qchem2725450/ 1
/cm/shared/apps/spack/cpu/opt/spack/linux-centos8-zen2/gcc-10.2.0/qchem-5.4-akfmr7b3t57bfs6qan3padb2wnb2i7cl/bin/mpi/mpirun_qchem -machinefile ./qchem2725450/hostfile -np 1 /cm/shared/apps/spack/cpu/opt/spack/linux-centos8-zen2/gcc-10.2.0/qchem-5.4-akfmr7b3t57bfs6qan3padb2wnb2i7cl/exe/qcprog.exe Dimethoxy_Benzodithiophene_Phi_25_Theta_190_Methylcarbonyl_3_Fluoro_Thienothiophene.qcin_2725450.0 ./qchem2725450/

Process 0 of 1 is on exp-9-41 - thread support 0
initial socket setup ...start
initial socket setup ...done 
now start server 0 ... 
                  Welcome to Q-Chem
     A Quantum Leap Into The Future Of Chemistry


 Q-Chem 5.4, Q-Chem, Inc., Pleasanton, CA (2021)

 License issued to: University of California, San Diego (site)

 E. Epifanovsky,  A. T. B. Gilbert,  Xintian Feng,  Joonho Lee,  Yuezhi Mao,  
 N. Mardirossian,  P. Pokhilko,  A. White,  M. Wormit,  M. P. Coons,  
 A. L. Dempwolff,  Zhengting Gan,  D. Hait,  P. R. Horn,  L. D. Jacobson,  
 I. Kaliman,  J. Kussmann,  A. W. Lange,  Ka Un Lao,  D. S. Levine,  Jie Liu,  
 S. C. McKenzie,  A. F. Morrison,  K. Nanda,  F. Plasser,  D. R. Rehn,  
 M. L. Vidal,  Zhi-Qiang You,  Ying Zhu,  B. Alam,  B. Albrecht,  
 A. Aldossary,  E. Alguire,  J. H. Andersen,  D. Barton,  K. Begam,  A. Behn,  
 Y. A. Bernard,  E. J. Berquist,  H. Burton,  A. Carreras,  K. Carter-Fenk,  
 R. Chakraborty,  A. D. Chien,  K. D. Closser,  V. Cofer-Shabica,  
 S. Dasgupta,  Jia Deng,  M. de Wergifosse,  M. Diedenhofen,  Hainam Do,  
 S. Ehlert,  Po-Tung Fang,  S. Fatehi,  Qingguo Feng,  J. Gayvert,  
 Qinghui Ge,  G. Gidofalvi,  M. Goldey,  J. Gomes,  C. Gonzalez-Espinoza,  
 S. Gulania,  A. Gunina,  M. W. D. Hanson-Heine,  P. H. P. Harbach,  
 A. W. Hauser,  M. F. Herbst,  M. Hernandez Vera,  M. Hodecker,  
 Z. C. Holden,  S. Houck,  Xunkun Huang,  Kerwin Hui,  B. C. Huynh,  
 M. Ivanov,  Hyunjun Ji,  Hanjie Jiang,  B. Kaduk,  S. Kaehler,  
 K. Khistyaev,  Jaehoon Kim,  P. Klunzinger,  Z. Koczor-Benda,  
 Joong Hoon Koh,  D. Kosenkov,  L. Koulias,  T. Kowalczyk,  C. M. Krauter,  
 K. Kue,  A. Kunitsa,  T. Kus,  A. Landau,  K. V. Lawler,  D. Lefrancois,  
 S. Lehtola,  Rain Li,  Yi-Pei Li,  Jiashu Liang,  M. Liebenthal,  
 Hung-Hsuan Lin,  You-Sheng Lin,  Fenglai Liu,  Kuan-Yu Liu,  
 M. Loipersberger,  A. Luenser,  A. Manjanath,  P. Manohar,  E. Mansoor,  
 S. F. Manzer,  Shan-Ping Mao,  A. V. Marenich,  T. Markovich,  S. Mason,  
 S. A. Maurer,  P. F. McLaughlin,  M. F. S. J. Menger,  J.-M. Mewes,  
 S. A. Mewes,  P. Morgante,  J. W. Mullinax,  T. S. Nguyen-Beck,  
 K. J. Oosterbaan,  G. Paran,  Alexander C. Paul,  Suranjan K. Paul,  
 F. Pavosevic,  Zheng Pei,  S. Prager,  E. I. Proynov,  E. Ramos,  B. Rana,  
 A. E. Rask,  A. Rettig,  R. M. Richard,  F. Rob,  E. Rossomme,  T. Scheele,  
 M. Scheurer,  M. Schneider,  N. Sergueev,  S. M. Sharada,  W. Skomorowski,  
 D. W. Small,  C. J. Stein,  Yu-Chuan Su,  E. J. Sundstrom,  Zhen Tao,  
 J. Thirman,  T. Tsuchimochi,  N. M. Tubman,  S. P. Veccham,  O. Vydrov,  
 J. Wenzel,  J. Witte,  A. Yamada,  Kun Yao,  S. Yeganeh,  S. R. Yost,  
 A. Zech,  Igor Ying Zhang,  Xing Zhang,  Yu Zhang,  D. Zuev,  
 A. Aspuru-Guzik,  A. T. Bell,  N. A. Besley,  K. B. Bravaya,  B. R. Brooks,  
 D. Casanova,  Jeng-Da Chai,  S. Coriani,  C. J. Cramer,  
 A. E. DePrince, III,  R. A. DiStasio Jr.,  A. Dreuw,  B. D. Dunietz,  
 T. R. Furlani,  W. A. Goddard III,  S. Grimme,  S. Hammes-Schiffer,  
 T. Head-Gordon,  W. J. Hehre,  Chao-Ping Hsu,  T.-C. Jagau,  Yousung Jung,  
 A. Klamt,  Jing Kong,  D. S. Lambrecht,  WanZhen Liang,  N. J. Mayhall,  
 C. W. McCurdy,  J. B. Neaton,  C. Ochsenfeld,  J. A. Parkhill,  R. Peverati,  
 V. A. Rassolov,  Yihan Shao,  L. V. Slipchenko,  T. Stauch,  R. P. Steele,  
 J. E. Subotnik,  A. J. W. Thom,  A. Tkatchenko,  D. G. Truhlar,  
 T. Van Voorhis,  T. A. Wesolowski,  K. B. Whaley,  H. L. Woodcock III,  
 P. M. Zimmerman,  S. Faraji,  P. M. W. Gill,  M. Head-Gordon,  
 J. M. Herbert,  A. I. Krylov

 Contributors to earlier versions of Q-Chem not listed above: 
 R. D. Adamson,  B. Austin,  R. Baer,  J. Baker,  G. J. O. Beran,  
 K. Brandhorst,  S. T. Brown,  E. F. C. Byrd,  A. K. Chakraborty,  
 G. K. L. Chan,  Chun-Min Chang,  Yunqing Chen,  C.-L. Cheng,  
 Siu Hung Chien,  D. M. Chipman,  D. L. Crittenden,  H. Dachsel,  
 R. J. Doerksen,  A. D. Dutoi,  R. G. Edgar,  J. Fosso-Tande,  
 L. Fusti-Molnar,  D. Ghosh,  A. Ghysels,  A. Golubeva-Zadorozhnaya,  
 J. Gonthier,  M. S. Gordon,  S. R. Gwaltney,  G. Hawkins,  J. E. Herr,  
 A. Heyden,  S. Hirata,  E. G. Hohenstein,  G. Kedziora,  F. J. Keil,  
 C. Kelley,  Jihan Kim,  R. A. King,  R. Z. Khaliullin,  P. P. Korambath,  
 W. Kurlancheek,  A. Laurent,  A. M. Lee,  M. S. Lee,  S. V. Levchenko,  
 Ching Yeh Lin,  D. Liotard,  E. Livshits,  R. C. Lochan,  I. Lotan,  
 L. A. Martinez-Martinez,  P. E. Maslen,  N. Nair,  D. P. O'Neill,  
 D. Neuhauser,  E. Neuscamman,  C. M. Oana,  R. Olivares-Amaya,  R. Olson,  
 T. M. Perrine,  B. Peters,  P. A. Pieniazek,  A. Prociuk,  Y. M. Rhee,  
 J. Ritchie,  M. A. Rohrdanz,  E. Rosta,  N. J. Russ,  H. F. Schaefer III,  
 M. W. Schmidt,  N. E. Schultz,  S. Sharma,  N. Shenvi,  C. D. Sherrill,  
 A. C. Simmonett,  A. Sodt,  T. Stein,  D. Stuck,  K. S. Thanthiriwatte,  
 V. Vanovschi,  L. Vogt,  Tao Wang,  A. Warshel,  M. A. Watson,  
 C. F. Williams,  Q. Wu,  X. Xu,  Jun Yang,  W. Zhang,  Yan Zhao

 Please cite Q-Chem as follows:
 Y. Shao et al., Mol. Phys. 113, 184-215 (2015)
 DOI: 10.1080/00268976.2014.952696

 Q-Chem 5.4.0 for Intel X86 EM64T Linux

 Parts of Q-Chem use Armadillo 9.800.1 (Horizon Scraper).
 http://arma.sourceforge.net/

 Q-Chem begins on Mon Jan  8 20:33:04 2024  

 Host: 
0

     Scratch files written to ./qchem2725450//
 May1621 |scratch|qcdevops|jenkins|workspace|build_RNUM    
 Parallel job on  1  processors
 Processing $rem in /cm/shared/apps/spack/cpu/opt/spack/linux-centos8-zen2/gcc-10.2.0/qchem-5.4-akfmr7b3t57bfs6qan3padb2wnb2i7cl/config/preferences:
 Processing $rem in /home/rramji/.qchemrc:
 Symmetry turned off for PCM/SM12/SMD calculation
 Core orbitals will be frozen

 Checking the input file for inconsistencies... 	...done.

 Q-Chem warning in module forms1/BasisType.C, line 2236:

 You are not using the predefined 5D/6D in this basis set.


--------------------------------------------------------------
User input:
--------------------------------------------------------------
$molecule
0 1
C	0.095966	-8.517702	-0.306235
C	-0.082807	-7.641575	0.754415
S	0.348635	-7.638634	-1.833702
C	-0.017401	-6.264785	0.383675
H	-0.259008	-7.966081	1.787757
C	0.231913	-6.072714	-1.020885
C	0.305044	-4.787049	-1.579097
C	-0.196549	-5.162801	1.268082
C	-0.127606	-3.874817	0.708796
C	0.124792	-3.683952	-0.696769
O	-0.397867	-5.499772	2.572378
O	0.506103	-4.459055	-2.889532
C	1.267335	-5.329063	-3.718420
H	1.502804	-4.755694	-4.635204
H	0.697471	-6.238095	-4.010790
H	2.215194	-5.637262	-3.226506
C	-0.999238	-4.572261	3.467415
H	-1.230649	-5.139743	4.388648
H	-1.940905	-4.153131	3.052323
H	-0.311543	-3.739531	3.730819
C	0.187323	-2.306654	-1.064366
S	-0.257128	-2.306501	1.521154
C	-0.000000	-1.435185	-0.000000
H	0.365903	-1.978138	-2.095939
H	0.092855	-9.614033	-0.309131
C	0.000000	0.000000	0.000000
S	0.382799	0.819795	1.507541
C	1.046687	2.245325	0.718873
C	0.382918	0.819389	-1.067872
C	0.968323	2.080267	-0.686410
S	0.282561	0.597432	-2.805516
C	1.017839	2.187324	-3.054530
C	1.314960	2.830306	-1.862551
F	1.875498	4.043751	-1.819088
C	1.208895	2.592573	-4.456084
O	0.890778	1.891482	-5.406510
O	1.772886	3.819715	-4.569225
C	1.986852	4.266207	-5.916207
H	2.445834	5.267032	-5.833064
H	1.028114	4.323448	-6.470168
H	2.661066	3.573494	-6.459293
H	1.436015	3.083584	1.306486
$end

$rem
JOBTYPE		SP
EXCHANGE	HF
CORRELATION	pRIMP2
BASIS		cc-pvtz
METHOD		rimp2
AUX_BASIS	rimp2-cc-pvtz
SOLVENT_METHOD	PCM
PURECART	11111
SYMMETRY	false
MEM_TOTAL	110000
SCF_CONVERGENCE = 6
THRESH=10
GUI = 2
$end



$solvent
dielectric 4.90
$end
--------------------------------------------------------------
 ----------------------------------------------------------------
             Standard Nuclear Orientation (Angstroms)
    I     Atom           X                Y                Z
 ----------------------------------------------------------------
    1      C       0.0959660000    -8.5177020000    -0.3062350000
    2      C      -0.0828070000    -7.6415750000     0.7544150000
    3      S       0.3486350000    -7.6386340000    -1.8337020000
    4      C      -0.0174010000    -6.2647850000     0.3836750000
    5      H      -0.2590080000    -7.9660810000     1.7877570000
    6      C       0.2319130000    -6.0727140000    -1.0208850000
    7      C       0.3050440000    -4.7870490000    -1.5790970000
    8      C      -0.1965490000    -5.1628010000     1.2680820000
    9      C      -0.1276060000    -3.8748170000     0.7087960000
   10      C       0.1247920000    -3.6839520000    -0.6967690000
   11      O      -0.3978670000    -5.4997720000     2.5723780000
   12      O       0.5061030000    -4.4590550000    -2.8895320000
   13      C       1.2673350000    -5.3290630000    -3.7184200000
   14      H       1.5028040000    -4.7556940000    -4.6352040000
   15      H       0.6974710000    -6.2380950000    -4.0107900000
   16      H       2.2151940000    -5.6372620000    -3.2265060000
   17      C      -0.9992380000    -4.5722610000     3.4674150000
   18      H      -1.2306490000    -5.1397430000     4.3886480000
   19      H      -1.9409050000    -4.1531310000     3.0523230000
   20      H      -0.3115430000    -3.7395310000     3.7308190000
   21      C       0.1873230000    -2.3066540000    -1.0643660000
   22      S      -0.2571280000    -2.3065010000     1.5211540000
   23      C       0.0000000000    -1.4351850000     0.0000000000
   24      H       0.3659030000    -1.9781380000    -2.0959390000
   25      H       0.0928550000    -9.6140330000    -0.3091310000
   26      C       0.0000000000     0.0000000000     0.0000000000
   27      S       0.3827990000     0.8197950000     1.5075410000
   28      C       1.0466870000     2.2453250000     0.7188730000
   29      C       0.3829180000     0.8193890000    -1.0678720000
   30      C       0.9683230000     2.0802670000    -0.6864100000
   31      S       0.2825610000     0.5974320000    -2.8055160000
   32      C       1.0178390000     2.1873240000    -3.0545300000
   33      C       1.3149600000     2.8303060000    -1.8625510000
   34      F       1.8754980000     4.0437510000    -1.8190880000
   35      C       1.2088950000     2.5925730000    -4.4560840000
   36      O       0.8907780000     1.8914820000    -5.4065100000
   37      O       1.7728860000     3.8197150000    -4.5692250000
   38      C       1.9868520000     4.2662070000    -5.9162070000
   39      H       2.4458340000     5.2670320000    -5.8330640000
   40      H       1.0281140000     4.3234480000    -6.4701680000
   41      H       2.6610660000     3.5734940000    -6.4592930000
   42      H       1.4360150000     3.0835840000     1.3064860000
 ----------------------------------------------------------------
 Nuclear Repulsion Energy =        3294.73062183 hartrees
 There are      119 alpha and      119 beta electrons
 Requested basis set is cc-pVTZ
 There are 376 shells and 1068 basis functions

 Total QAlloc Memory Limit 110000 MB
 Mega-Array Size       188 MB
 MEM_STATIC part       192 MB
 Discretize the solute cavity surface with Lebedev spheres
	Using 110 Lebedev grid points for each H atom
	Using 194 Lebedev grid points for other atoms
	Atomic van der Waals radii will be scaled by 1.20
 Remove points where switching function is < 1.0e-08
 Keep 2888 surface tesserae and discard 4168 interior tesserae
 Molecular Surface Area = 436.152 Angst**2
 Requested basis set is rimp2-cc-pVTZ
 There are 833 shells and 2903 basis functions
 A cutoff of  1.0D-10 yielded  31134 shell pairs
 There are    238850 function pairs (    310050 Cartesian)
 Smallest overlap matrix eigenvalue = 2.12E-05

 Scale SEOQF with 1.000000e-01/1.000000e-02/1.000000e-02

 Standard Electronic Orientation quadrupole field applied
 Nucleus-field energy     =     0.0000000206 hartrees
 Guess from superposition of atomic densities
 Warning:  Energy on first SCF cycle will be non-variational
 SAD guess density has 238.000000 electrons

 -----------------------------------------------------------------------
  General SCF calculation program by
  Eric Jon Sundstrom, Paul Horn, Yuezhi Mao, Dmitri Zuev, Alec White,
  David Stuck, Shaama M.S., Shane Yost, Joonho Lee, David Small,
  Daniel Levine, Susi Lehtola, Hugh Burton, Evgeny Epifanovsky,
  Bang C. Huynh
 -----------------------------------------------------------------------
 Hartree-Fock
 using 64 threads for integral computing
 -------------------------------------------------------
 OpenMP Integral computing Module                
 Release: version 1.0, May 2013, Q-Chem Inc. Pittsburgh 
 -------------------------------------------------------
 A restricted SCF calculation will be
 performed using DIIS
 SCF converges when DIIS error is below 1.0e-06
 ---------------------------------------
  Cycle       Energy         DIIS error
 ---------------------------------------
    1   -2765.2552753292      1.75e-02  
    2   -2753.8696267880      1.56e-03  
    3   -2754.2097386608      8.63e-04  
    4   -2754.2915697067      2.56e-04  
    5   -2754.3032215253      6.92e-05  
    6   -2754.3043000283      2.37e-05  
    7   -2754.3045322083      1.13e-05  
    8   -2754.3046081538      4.21e-06  
    9   -2754.3046223229      1.69e-06  
   10   -2754.3046240881      7.32e-07  Convergence criterion met
 ---------------------------------------
 SCF time:   CPU 6363.28s  wall 243.00s 

************** Final PCM Free Energy Summary **************
 G_electrostatic  =      -0.01856725 hartree =     -11.65112795 kcal/mol
 G_cavitation     =       0.00000000 hartree =       0.00000000 kcal/mol
 G_dispersion     =       0.00000000 hartree =       0.00000000 kcal/mol
 G_repulsion      =       0.00000000 hartree =       0.00000000 kcal/mol
 --------------------------------------------------
 Non-electrostatic Free Energy =       0.00000000 hartree =       0.00000000 kcal/mol
 Total                         =      -0.01856725 hartree =     -11.65112795 kcal/mol
 --------------------------------------------------
 SCF Energy (H0 + V/2)                       =   -2754.30462409 
 Solute Internal Energy (H0)                 =   -2754.28605683 
 Total Free Energy (H0 + V/2 + non-elec)     =   -2754.30462409 hartree
                                             = -1728352.23763437 kcal/mol
***********************************************************

 SCF   energy in the final basis set =    -2754.3046240881
 Total energy in the final basis set =    -2754.3046240881


 --------------------------------------------------------------
  Generalized many-body perturbation theory program
  by Joonho Lee, Fazle Rob, Xintian Feng, Evgeny Epifanovsky

 No regularization used 
 (reg. param. = 0.0000e+00)
  (P|Q)^-1/2 Time:  CPU 339.70 s  wall 5.57 s

 In RI-MP2 calculation: 
 # of frozen core orbitals: 45

 Components of the RIMP2 correlation energy:
        aaaa    correlation energy =        -0.6706871647 a.u.
        abab    correlation energy =        -3.7143905707 a.u.
        bbbb    correlation energy =        -0.6706871647 a.u.
        non-Brillouin singles      =        -0.0000000000 a.u.
        total same-spin energy     =        -1.3413743294 a.u.
        total opposite-spin energy =        -3.7143905707 a.u.

 Total  RIMP2   correlation energy =        -5.0557649001 a.u.
        RIMP2         total energy =     -2759.3603889882 a.u.

 RI-MP2 Energy Time:  CPU 3704.72 s  wall 60.67 s
 
 --------------------------------------------------------------
 
                    Orbital Energies (a.u.)
 --------------------------------------------------------------
 
 Alpha MOs
 -- Occupied --
-92.0162 -92.0019 -91.9895 -91.9856 -26.3443 -20.6151 -20.5926 -20.5900
-20.5617 -11.4099 -11.3840 -11.3194 -11.3158 -11.3152 -11.3037 -11.2983
-11.2979 -11.2969 -11.2890 -11.2875 -11.2869 -11.2854 -11.2849 -11.2836
-11.2784 -11.2612 -11.2573 -11.2518 -11.2494  -9.0151  -9.0018  -8.9903
 -8.9856  -6.6958  -6.6952  -6.6947  -6.6828  -6.6821  -6.6810  -6.6713
 -6.6706  -6.6696  -6.6665  -6.6659  -6.6651  -1.6613  -1.4676  -1.4166
 -1.4128  -1.3703  -1.2244  -1.1940  -1.1658  -1.1378  -1.0855  -1.0514
 -1.0431  -1.0248  -1.0009  -0.9884  -0.9645  -0.9597  -0.9501  -0.9397
 -0.8960  -0.8692  -0.8509  -0.8093  -0.7989  -0.7883  -0.7855  -0.7637
 -0.7557  -0.7337  -0.7261  -0.7110  -0.7016  -0.6861  -0.6831  -0.6814
 -0.6742  -0.6592  -0.6589  -0.6518  -0.6305  -0.6193  -0.6166  -0.6029
 -0.5994  -0.5825  -0.5802  -0.5712  -0.5647  -0.5610  -0.5570  -0.5482
 -0.5353  -0.5305  -0.5238  -0.5186  -0.5162  -0.5106  -0.5055  -0.4957
 -0.4871  -0.4817  -0.4773  -0.4744  -0.4697  -0.4645  -0.4593  -0.4270
 -0.3957  -0.3837  -0.3613  -0.3485  -0.3280  -0.2893  -0.2492
 -- Virtual --
  0.0226   0.0602   0.1087   0.1241   0.1277   0.1509   0.1551   0.1561
  0.1590   0.1614   0.1666   0.1723   0.1819   0.1850   0.1922   0.1969
  0.2023   0.2065   0.2149   0.2189   0.2231   0.2234   0.2241   0.2275
  0.2397   0.2454   0.2472   0.2533   0.2579   0.2659   0.2750   0.2903
  0.2916   0.3110   0.3234   0.3293   0.3371   0.3415   0.3484   0.3543
  0.3614   0.3627   0.3712   0.3799   0.3831   0.3837   0.3875   0.3886
  0.3914   0.3976   0.4010   0.4062   0.4105   0.4149   0.4235   0.4251
  0.4297   0.4374   0.4418   0.4436   0.4484   0.4501   0.4574   0.4580
  0.4659   0.4694   0.4728   0.4748   0.4792   0.4857   0.4885   0.4926
  0.4989   0.4995   0.5024   0.5079   0.5107   0.5153   0.5195   0.5226
  0.5283   0.5310   0.5328   0.5376   0.5417   0.5434   0.5456   0.5504
  0.5527   0.5570   0.5587   0.5621   0.5661   0.5706   0.5715   0.5845
  0.5880   0.5907   0.5950   0.6011   0.6055   0.6063   0.6096   0.6136
  0.6161   0.6166   0.6216   0.6230   0.6239   0.6277   0.6321   0.6344
  0.6368   0.6464   0.6474   0.6499   0.6541   0.6580   0.6669   0.6731
  0.6752   0.6822   0.6908   0.6935   0.6948   0.7017   0.7093   0.7105
  0.7122   0.7182   0.7228   0.7324   0.7350   0.7366   0.7396   0.7504
  0.7532   0.7597   0.7678   0.7735   0.7825   0.7871   0.7977   0.8043
  0.8091   0.8126   0.8186   0.8235   0.8278   0.8352   0.8463   0.8477
  0.8489   0.8535   0.8609   0.8676   0.8727   0.8735   0.8778   0.8875
  0.8904   0.8991   0.9036   0.9056   0.9097   0.9177   0.9214   0.9322
  0.9337   0.9393   0.9421   0.9457   0.9533   0.9595   0.9607   0.9650
  0.9718   0.9742   0.9818   0.9828   0.9904   0.9959   1.0021   1.0034
  1.0101   1.0129   1.0153   1.0216   1.0257   1.0312   1.0400   1.0416
  1.0483   1.0516   1.0589   1.0607   1.0643   1.0719   1.0737   1.0817
  1.0838   1.0874   1.0902   1.0967   1.1016   1.1052   1.1082   1.1151
  1.1179   1.1200   1.1280   1.1370   1.1395   1.1498   1.1555   1.1596
  1.1621   1.1698   1.1726   1.1813   1.1854   1.1879   1.1936   1.1959
  1.1985   1.2073   1.2123   1.2160   1.2208   1.2239   1.2289   1.2324
  1.2338   1.2434   1.2463   1.2526   1.2586   1.2642   1.2653   1.2708
  1.2740   1.2770   1.2916   1.2931   1.3047   1.3087   1.3110   1.3176
  1.3247   1.3291   1.3334   1.3424   1.3517   1.3552   1.3640   1.3722
  1.3731   1.3784   1.3846   1.3919   1.3988   1.4071   1.4167   1.4255
  1.4273   1.4366   1.4454   1.4480   1.4690   1.4775   1.4834   1.4843
  1.4944   1.5002   1.5014   1.5089   1.5123   1.5129   1.5237   1.5328
  1.5346   1.5368   1.5407   1.5422   1.5461   1.5540   1.5650   1.5713
  1.5743   1.5774   1.5852   1.5916   1.6054   1.6126   1.6239   1.6311
  1.6380   1.6428   1.6505   1.6539   1.6629   1.6659   1.6717   1.6813
  1.6854   1.6983   1.7015   1.7096   1.7222   1.7245   1.7349   1.7459
  1.7558   1.7700   1.7782   1.7796   1.7956   1.7994   1.8134   1.8175
  1.8229   1.8299   1.8407   1.8481   1.8539   1.8662   1.8687   1.8795
  1.8858   1.8936   1.8962   1.9114   1.9193   1.9255   1.9295   1.9342
  1.9376   1.9400   1.9502   1.9620   1.9668   1.9760   1.9875   1.9934
  1.9959   2.0017   2.0070   2.0255   2.0304   2.0407   2.0521   2.0657
  2.0765   2.0910   2.0936   2.1054   2.1085   2.1123   2.1207   2.1429
  2.1537   2.1620   2.1646   2.1708   2.1778   2.1828   2.1901   2.1939
  2.1976   2.2015   2.2101   2.2218   2.2262   2.2296   2.2339   2.2407
  2.2524   2.2566   2.2600   2.2632   2.2719   2.2753   2.2816   2.2867
  2.2930   2.3083   2.3160   2.3213   2.3332   2.3477   2.3550   2.3585
  2.3613   2.3690   2.3816   2.3854   2.3954   2.4124   2.4156   2.4266
  2.4300   2.4369   2.4418   2.4487   2.4573   2.4677   2.4830   2.4855
  2.4967   2.4972   2.5067   2.5245   2.5361   2.5444   2.5452   2.5575
  2.5623   2.5742   2.5805   2.5927   2.6029   2.6122   2.6168   2.6217
  2.6263   2.6290   2.6302   2.6382   2.6434   2.6525   2.6597   2.6679
  2.6717   2.6806   2.6869   2.6913   2.6995   2.7031   2.7055   2.7084
  2.7218   2.7262   2.7291   2.7424   2.7454   2.7506   2.7618   2.7799
  2.7810   2.7904   2.7928   2.7999   2.8009   2.8083   2.8119   2.8131
  2.8307   2.8381   2.8451   2.8482   2.8513   2.8557   2.8677   2.8736
  2.8748   2.8806   2.8849   2.8896   2.8970   2.9039   2.9212   2.9276
  2.9445   2.9549   2.9581   2.9646   2.9696   2.9799   2.9828   2.9895
  3.0003   3.0101   3.0137   3.0218   3.0248   3.0297   3.0347   3.0421
  3.0505   3.0526   3.0625   3.0679   3.0773   3.0831   3.0897   3.0982
  3.1025   3.1087   3.1121   3.1150   3.1193   3.1302   3.1328   3.1409
  3.1478   3.1518   3.1558   3.1577   3.1618   3.1686   3.1756   3.1820
  3.1974   3.2030   3.2067   3.2111   3.2165   3.2186   3.2249   3.2261
  3.2308   3.2342   3.2396   3.2535   3.2542   3.2618   3.2665   3.2694
  3.2716   3.2767   3.2776   3.2829   3.2898   3.2931   3.2993   3.3048
  3.3094   3.3191   3.3283   3.3321   3.3354   3.3379   3.3441   3.3481
  3.3520   3.3572   3.3609   3.3619   3.3650   3.3692   3.3748   3.3799
  3.3869   3.3905   3.3930   3.3967   3.3995   3.4033   3.4067   3.4145
  3.4197   3.4254   3.4329   3.4397   3.4427   3.4456   3.4496   3.4570
  3.4642   3.4657   3.4670   3.4733   3.4760   3.4794   3.4803   3.4829
  3.4903   3.5067   3.5088   3.5141   3.5176   3.5222   3.5303   3.5343
  3.5387   3.5444   3.5501   3.5517   3.5544   3.5626   3.5748   3.5827
  3.5847   3.5891   3.5919   3.5985   3.6007   3.6037   3.6076   3.6196
  3.6226   3.6244   3.6296   3.6349   3.6402   3.6503   3.6554   3.6628
  3.6658   3.6697   3.6773   3.6828   3.6862   3.6932   3.6970   3.7038
  3.7046   3.7062   3.7139   3.7206   3.7214   3.7318   3.7353   3.7399
  3.7435   3.7534   3.7649   3.7686   3.7702   3.7768   3.7822   3.7835
  3.7947   3.7967   3.8022   3.8053   3.8085   3.8118   3.8174   3.8246
  3.8295   3.8383   3.8463   3.8481   3.8552   3.8592   3.8627   3.8695
  3.8751   3.8788   3.8897   3.8956   3.8981   3.9043   3.9111   3.9140
  3.9258   3.9320   3.9369   3.9507   3.9509   3.9552   3.9698   3.9755
  3.9875   3.9903   3.9942   4.0109   4.0150   4.0288   4.0312   4.0389
  4.0411   4.0540   4.0610   4.0683   4.0705   4.0765   4.0841   4.0961
  4.1005   4.1151   4.1206   4.1231   4.1367   4.1426   4.1487   4.1546
  4.1572   4.1665   4.1692   4.1718   4.1831   4.1871   4.1904   4.2026
  4.2058   4.2128   4.2220   4.2409   4.2445   4.2486   4.2585   4.2694
  4.2744   4.2857   4.3022   4.3180   4.3228   4.3265   4.3371   4.3418
  4.3578   4.3591   4.3671   4.3720   4.3780   4.3829   4.3893   4.4014
  4.4071   4.4091   4.4146   4.4227   4.4286   4.4354   4.4399   4.4493
  4.4534   4.4707   4.4797   4.4985   4.5019   4.5035   4.5092   4.5210
  4.5361   4.5415   4.5464   4.5565   4.5584   4.5684   4.5791   4.5846
  4.5953   4.6106   4.6242   4.6250   4.6363   4.6414   4.6480   4.6521
  4.6646   4.6723   4.6788   4.6844   4.6911   4.7108   4.7239   4.7353
  4.7418   4.7539   4.7639   4.7705   4.7810   4.7958   4.8001   4.8216
  4.8309   4.8465   4.8498   4.8648   4.8690   4.8758   4.8848   4.9010
  4.9311   4.9417   4.9510   4.9569   4.9673   4.9734   4.9940   4.9992
  5.0045   5.0087   5.0199   5.0365   5.0384   5.0540   5.0604   5.0730
  5.0876   5.1068   5.1155   5.1332   5.1530   5.1658   5.1738   5.1987
  5.2053   5.2204   5.2454   5.2494   5.2528   5.2573   5.2593   5.2826
  5.2971   5.3092   5.3139   5.3260   5.3381   5.3502   5.3602   5.3725
  5.3797   5.3949   5.4012   5.4022   5.4172   5.4260   5.4383   5.4644
  5.4848   5.4880   5.5040   5.5072   5.5148   5.5289   5.5393   5.5733
  5.5781   5.5867   5.5906   5.6076   5.6184   5.6215   5.6539   5.6652
  5.7208   5.7347   5.7496   5.7803   5.8073   5.8177   5.8273   5.8552
  5.8741   5.8855   5.9084   5.9288   5.9454   5.9696   6.0015   6.0420
  6.0534   6.0910   6.1164   6.1503   6.1517   6.1708   6.1789   6.1837
  6.2417   6.2503   6.2612   6.2679   6.2804   6.2835   6.3190   6.3721
  6.4235   6.4498   6.4525   6.4904   6.5385   6.5494   6.5592   6.6031
  6.6566   6.6612   6.6709   6.7009   6.7453   6.8024   6.8294   6.8394
  6.8594   6.8942   6.9778   7.1213   7.1358   7.2036   7.2055   7.2159
  7.2365   7.3096   7.3227   7.3323   7.3623   7.3632   7.4052   7.4131
  7.4780   7.4847   7.4897   7.5226   7.5494   7.6163   7.7020   7.7720
  7.7893   7.7976   7.8931   7.9196   7.9416   7.9603   8.0691   8.1344
  8.5215   8.9212   9.0185   9.3621   9.4774   9.6539  10.0698  10.5245
 11.1541  11.4096  11.7774  11.9762  12.1337  12.1906  12.4178  12.5703
 12.6600  12.9750  13.0228  13.1220  13.3501  13.3882  13.7703  13.8487
 13.9040  14.0242  14.0421  14.7120  15.2152
 --------------------------------------------------------------
 
          Ground-State Mulliken Net Atomic Charges

     Atom                 Charge (a.u.)
  ----------------------------------------
      1 C                    -0.191782
      2 C                    -0.254016
      3 S                    -0.022927
      4 C                    -0.018914
      5 H                     0.195908
      6 C                    -0.026459
      7 C                     0.241288
      8 C                     0.244563
      9 C                    -0.041530
     10 C                    -0.020518
     11 O                    -0.333096
     12 O                    -0.340933
     13 C                    -0.086294
     14 H                     0.123298
     15 H                     0.091280
     16 H                     0.093436
     17 C                    -0.088428
     18 H                     0.126052
     19 H                     0.095083
     20 H                     0.089275
     21 C                    -0.238249
     22 S                    -0.041749
     23 C                    -0.009900
     24 H                     0.188198
     25 H                     0.205963
     26 C                     0.018587
     27 S                     0.097889
     28 C                    -0.190578
     29 C                    -0.023401
     30 C                    -0.101562
     31 S                     0.023660
     32 C                    -0.163409
     33 C                     0.407778
     34 F                    -0.205630
     35 C                     0.444781
     36 O                    -0.460869
     37 O                    -0.300971
     38 C                    -0.058431
     39 H                     0.121532
     40 H                     0.095298
     41 H                     0.095166
     42 H                     0.220610
  ----------------------------------------
  Sum of atomic charges =     0.000000

 -----------------------------------------------------------------
                    Cartesian Multipole Moments
 -----------------------------------------------------------------
    Charge (ESU x 10^10)
                -0.0000
    Dipole Moment (Debye)
         X       1.5467      Y       1.5297      Z       3.1085
       Tot       3.7941
    Quadrupole Moments (Debye-Ang)
        XX    -195.2418     XY       5.0449     YY    -164.2685
        XZ     -12.3070     YZ      -7.2015     ZZ    -184.7550
    Octopole Moments (Debye-Ang^2)
       XXX    -251.5083    XXY     390.1577    XYY     -54.6517
       YYY     905.4424    XXZ     177.2088    XYZ      21.4270
       YYZ     130.8007    XZZ     -40.5478    YZZ     380.7454
       ZZZ     602.5393
    Hexadecapole Moments (Debye-Ang^3)
      XXXX   -1016.8764   XXXY    -485.1641   XXYY   -3913.4823
      XYYY    -471.6434   YYYY  -18859.2889   XXXZ     929.4746
      XXYZ     257.7005   XYYZ     -33.8108   YYYZ     734.7288
      XXZZ   -1301.6818   XYZZ      40.7297   YYZZ   -4063.5873
      XZZZ     597.5062   YZZZ     437.5573   ZZZZ   -7411.5640
 -----------------------------------------------------------------
 Total job time:  309.30s(wall), 10255.46s(cpu) 
 Mon Jan  8 20:38:13 2024

        *************************************************************
        *                                                           *
        *  Thank you very much for using Q-Chem.  Have a nice day.  *
        *                                                           *
        *************************************************************


0 sent ACK to 0 
now end server 0 ... 
cleanup process ... done
remove work dirs ./qchem2725450.0 -- ./qchem2725450.0
rm -rf ./qchem2725450.0
rm -rf ./qchem2725450
