You are running Q-Chem version: 5.4.0

#
# job setting
#
local host:  exp-3-46
current dir: /home/rramji/project-csd799/aromodel/ptb7fout-qchem/rotation-run
input file:  Dimethoxy_Benzodithiophene_Phi_60_Theta_250_Methylcarbonyl_3_Fluoro_Thienothiophene.qcin
output file: 
nprocs     : 1
nthreads   : 64
#
# qchem installation setting
#
QC:          /cm/shared/apps/spack/cpu/opt/spack/linux-centos8-zen2/gcc-10.2.0/qchem-5.4-akfmr7b3t57bfs6qan3padb2wnb2i7cl
QCAUX:       /cm/shared/apps/spack/cpu/opt/spack/linux-centos8-zen2/gcc-10.2.0/qchem-5.4-akfmr7b3t57bfs6qan3padb2wnb2i7cl/qcaux
QCPROG:      /cm/shared/apps/spack/cpu/opt/spack/linux-centos8-zen2/gcc-10.2.0/qchem-5.4-akfmr7b3t57bfs6qan3padb2wnb2i7cl/exe/qcprog.exe
QCPROG_S:    /cm/shared/apps/spack/cpu/opt/spack/linux-centos8-zen2/gcc-10.2.0/qchem-5.4-akfmr7b3t57bfs6qan3padb2wnb2i7cl/exe/qcprog.exe_s
PARALLEL:    -DPARALLEL
QCMPI:       mpich
#
# qchem directory setting
#
qcrun:       qchem1677218
QCSCRATCH:   .
QCLOCALSCR:  
QCTMPDIR:    .
QCFILEPREF:  ./qchem1677218
QCSAVEDIR:   
workdirs:    ./qchem1677218
workdir0:    ./qchem1677218
partmpdirs =  
#
# parallel setting
#
QCRSH:           ssh
QCMPI:           mpich
QCMPIRUN:        /cm/shared/apps/spack/cpu/opt/spack/linux-centos8-zen2/gcc-10.2.0/qchem-5.4-akfmr7b3t57bfs6qan3padb2wnb2i7cl/bin/mpi/mpirun_qchem
QCMACHINEFILE:   ./qchem1677218/hostfile
exp-3-46

#
# env setting
#
exported envs:   QC QCAUX QCSCRATCH QCRUNNAME QCFILEPREF QCPROG QCPROG_S GUIFILE

Running Job 1 of 1 Dimethoxy_Benzodithiophene_Phi_60_Theta_250_Methylcarbonyl_3_Fluoro_Thienothiophene.qcin
qchem Dimethoxy_Benzodithiophene_Phi_60_Theta_250_Methylcarbonyl_3_Fluoro_Thienothiophene.qcin_1677218.0 ./qchem1677218/ 1
/cm/shared/apps/spack/cpu/opt/spack/linux-centos8-zen2/gcc-10.2.0/qchem-5.4-akfmr7b3t57bfs6qan3padb2wnb2i7cl/bin/mpi/mpirun_qchem -machinefile ./qchem1677218/hostfile -np 1 /cm/shared/apps/spack/cpu/opt/spack/linux-centos8-zen2/gcc-10.2.0/qchem-5.4-akfmr7b3t57bfs6qan3padb2wnb2i7cl/exe/qcprog.exe Dimethoxy_Benzodithiophene_Phi_60_Theta_250_Methylcarbonyl_3_Fluoro_Thienothiophene.qcin_1677218.0 ./qchem1677218/

Process 0 of 1 is on exp-3-46 - thread support 0
initial socket setup ...start
initial socket setup ...done 
now start server 0 ... 
                  Welcome to Q-Chem
     A Quantum Leap Into The Future Of Chemistry


 Q-Chem 5.4, Q-Chem, Inc., Pleasanton, CA (2021)

 License issued to: University of California, San Diego (site)

 E. Epifanovsky,  A. T. B. Gilbert,  Xintian Feng,  Joonho Lee,  Yuezhi Mao,  
 N. Mardirossian,  P. Pokhilko,  A. White,  M. Wormit,  M. P. Coons,  
 A. L. Dempwolff,  Zhengting Gan,  D. Hait,  P. R. Horn,  L. D. Jacobson,  
 I. Kaliman,  J. Kussmann,  A. W. Lange,  Ka Un Lao,  D. S. Levine,  Jie Liu,  
 S. C. McKenzie,  A. F. Morrison,  K. Nanda,  F. Plasser,  D. R. Rehn,  
 M. L. Vidal,  Zhi-Qiang You,  Ying Zhu,  B. Alam,  B. Albrecht,  
 A. Aldossary,  E. Alguire,  J. H. Andersen,  D. Barton,  K. Begam,  A. Behn,  
 Y. A. Bernard,  E. J. Berquist,  H. Burton,  A. Carreras,  K. Carter-Fenk,  
 R. Chakraborty,  A. D. Chien,  K. D. Closser,  V. Cofer-Shabica,  
 S. Dasgupta,  Jia Deng,  M. de Wergifosse,  M. Diedenhofen,  Hainam Do,  
 S. Ehlert,  Po-Tung Fang,  S. Fatehi,  Qingguo Feng,  J. Gayvert,  
 Qinghui Ge,  G. Gidofalvi,  M. Goldey,  J. Gomes,  C. Gonzalez-Espinoza,  
 S. Gulania,  A. Gunina,  M. W. D. Hanson-Heine,  P. H. P. Harbach,  
 A. W. Hauser,  M. F. Herbst,  M. Hernandez Vera,  M. Hodecker,  
 Z. C. Holden,  S. Houck,  Xunkun Huang,  Kerwin Hui,  B. C. Huynh,  
 M. Ivanov,  Hyunjun Ji,  Hanjie Jiang,  B. Kaduk,  S. Kaehler,  
 K. Khistyaev,  Jaehoon Kim,  P. Klunzinger,  Z. Koczor-Benda,  
 Joong Hoon Koh,  D. Kosenkov,  L. Koulias,  T. Kowalczyk,  C. M. Krauter,  
 K. Kue,  A. Kunitsa,  T. Kus,  A. Landau,  K. V. Lawler,  D. Lefrancois,  
 S. Lehtola,  Rain Li,  Yi-Pei Li,  Jiashu Liang,  M. Liebenthal,  
 Hung-Hsuan Lin,  You-Sheng Lin,  Fenglai Liu,  Kuan-Yu Liu,  
 M. Loipersberger,  A. Luenser,  A. Manjanath,  P. Manohar,  E. Mansoor,  
 S. F. Manzer,  Shan-Ping Mao,  A. V. Marenich,  T. Markovich,  S. Mason,  
 S. A. Maurer,  P. F. McLaughlin,  M. F. S. J. Menger,  J.-M. Mewes,  
 S. A. Mewes,  P. Morgante,  J. W. Mullinax,  T. S. Nguyen-Beck,  
 K. J. Oosterbaan,  G. Paran,  Alexander C. Paul,  Suranjan K. Paul,  
 F. Pavosevic,  Zheng Pei,  S. Prager,  E. I. Proynov,  E. Ramos,  B. Rana,  
 A. E. Rask,  A. Rettig,  R. M. Richard,  F. Rob,  E. Rossomme,  T. Scheele,  
 M. Scheurer,  M. Schneider,  N. Sergueev,  S. M. Sharada,  W. Skomorowski,  
 D. W. Small,  C. J. Stein,  Yu-Chuan Su,  E. J. Sundstrom,  Zhen Tao,  
 J. Thirman,  T. Tsuchimochi,  N. M. Tubman,  S. P. Veccham,  O. Vydrov,  
 J. Wenzel,  J. Witte,  A. Yamada,  Kun Yao,  S. Yeganeh,  S. R. Yost,  
 A. Zech,  Igor Ying Zhang,  Xing Zhang,  Yu Zhang,  D. Zuev,  
 A. Aspuru-Guzik,  A. T. Bell,  N. A. Besley,  K. B. Bravaya,  B. R. Brooks,  
 D. Casanova,  Jeng-Da Chai,  S. Coriani,  C. J. Cramer,  
 A. E. DePrince, III,  R. A. DiStasio Jr.,  A. Dreuw,  B. D. Dunietz,  
 T. R. Furlani,  W. A. Goddard III,  S. Grimme,  S. Hammes-Schiffer,  
 T. Head-Gordon,  W. J. Hehre,  Chao-Ping Hsu,  T.-C. Jagau,  Yousung Jung,  
 A. Klamt,  Jing Kong,  D. S. Lambrecht,  WanZhen Liang,  N. J. Mayhall,  
 C. W. McCurdy,  J. B. Neaton,  C. Ochsenfeld,  J. A. Parkhill,  R. Peverati,  
 V. A. Rassolov,  Yihan Shao,  L. V. Slipchenko,  T. Stauch,  R. P. Steele,  
 J. E. Subotnik,  A. J. W. Thom,  A. Tkatchenko,  D. G. Truhlar,  
 T. Van Voorhis,  T. A. Wesolowski,  K. B. Whaley,  H. L. Woodcock III,  
 P. M. Zimmerman,  S. Faraji,  P. M. W. Gill,  M. Head-Gordon,  
 J. M. Herbert,  A. I. Krylov

 Contributors to earlier versions of Q-Chem not listed above: 
 R. D. Adamson,  B. Austin,  R. Baer,  J. Baker,  G. J. O. Beran,  
 K. Brandhorst,  S. T. Brown,  E. F. C. Byrd,  A. K. Chakraborty,  
 G. K. L. Chan,  Chun-Min Chang,  Yunqing Chen,  C.-L. Cheng,  
 Siu Hung Chien,  D. M. Chipman,  D. L. Crittenden,  H. Dachsel,  
 R. J. Doerksen,  A. D. Dutoi,  R. G. Edgar,  J. Fosso-Tande,  
 L. Fusti-Molnar,  D. Ghosh,  A. Ghysels,  A. Golubeva-Zadorozhnaya,  
 J. Gonthier,  M. S. Gordon,  S. R. Gwaltney,  G. Hawkins,  J. E. Herr,  
 A. Heyden,  S. Hirata,  E. G. Hohenstein,  G. Kedziora,  F. J. Keil,  
 C. Kelley,  Jihan Kim,  R. A. King,  R. Z. Khaliullin,  P. P. Korambath,  
 W. Kurlancheek,  A. Laurent,  A. M. Lee,  M. S. Lee,  S. V. Levchenko,  
 Ching Yeh Lin,  D. Liotard,  E. Livshits,  R. C. Lochan,  I. Lotan,  
 L. A. Martinez-Martinez,  P. E. Maslen,  N. Nair,  D. P. O'Neill,  
 D. Neuhauser,  E. Neuscamman,  C. M. Oana,  R. Olivares-Amaya,  R. Olson,  
 T. M. Perrine,  B. Peters,  P. A. Pieniazek,  A. Prociuk,  Y. M. Rhee,  
 J. Ritchie,  M. A. Rohrdanz,  E. Rosta,  N. J. Russ,  H. F. Schaefer III,  
 M. W. Schmidt,  N. E. Schultz,  S. Sharma,  N. Shenvi,  C. D. Sherrill,  
 A. C. Simmonett,  A. Sodt,  T. Stein,  D. Stuck,  K. S. Thanthiriwatte,  
 V. Vanovschi,  L. Vogt,  Tao Wang,  A. Warshel,  M. A. Watson,  
 C. F. Williams,  Q. Wu,  X. Xu,  Jun Yang,  W. Zhang,  Yan Zhao

 Please cite Q-Chem as follows:
 Y. Shao et al., Mol. Phys. 113, 184-215 (2015)
 DOI: 10.1080/00268976.2014.952696

 Q-Chem 5.4.0 for Intel X86 EM64T Linux

 Parts of Q-Chem use Armadillo 9.800.1 (Horizon Scraper).
 http://arma.sourceforge.net/

 Q-Chem begins on Tue Jan  9 01:39:05 2024  

 Host: 
0

     Scratch files written to ./qchem1677218//
 May1621 |scratch|qcdevops|jenkins|workspace|build_RNUM    
 Parallel job on  1  processors
 Processing $rem in /cm/shared/apps/spack/cpu/opt/spack/linux-centos8-zen2/gcc-10.2.0/qchem-5.4-akfmr7b3t57bfs6qan3padb2wnb2i7cl/config/preferences:
 Processing $rem in /home/rramji/.qchemrc:
 Symmetry turned off for PCM/SM12/SMD calculation
 Core orbitals will be frozen

 Checking the input file for inconsistencies... 	...done.

 Q-Chem warning in module forms1/BasisType.C, line 2236:

 You are not using the predefined 5D/6D in this basis set.


--------------------------------------------------------------
User input:
--------------------------------------------------------------
$molecule
0 1
C	0.313191	-8.517702	-0.070009
C	-0.694746	-7.641575	0.305494
S	1.762350	-7.638634	-0.614924
C	-0.340973	-6.264785	0.176768
H	-1.677747	-7.966081	0.669571
C	1.000069	-6.072714	-0.309600
C	1.520060	-4.787049	-0.525372
C	-1.196466	-5.162801	0.463825
C	-0.677639	-3.874817	0.243888
C	0.665815	-3.683952	-0.240312
O	-2.426678	-5.499772	0.941626
O	2.755460	-4.459055	-1.006468
C	3.853913	-5.329063	-0.761666
H	4.765607	-4.755694	-1.016135
H	3.822182	-6.238095	-1.401368
H	3.901833	-5.637262	0.305161
C	-3.502489	-4.572261	0.868342
H	-4.416005	-5.139743	1.128551
H	-3.613841	-4.153131	-0.154712
H	-3.386756	-3.739531	1.595605
C	1.015430	-2.306654	-0.369957
S	-1.445922	-2.306501	0.537898
C	-0.000000	-1.435185	-0.000000
H	1.998088	-1.978138	-0.731088
H	0.314143	-9.614033	-0.074151
C	0.000000	0.000000	0.000000
S	0.783786	0.451972	1.507541
C	2.145261	1.238908	0.718873
C	0.783650	0.451572	-1.067872
C	1.986396	1.148648	-0.686410
S	0.574133	0.327317	-2.805516
C	2.088363	1.207943	-3.054530
C	2.700548	1.564221	-1.862551
F	3.855718	2.236706	-1.819088
C	2.477307	1.430318	-4.456084
O	1.814592	1.038482	-5.406510
O	3.643162	2.112042	-4.569225
C	4.074530	2.355061	-5.916207
H	5.024556	2.911627	-5.833064
H	3.322010	2.951860	-6.470168
H	4.229490	1.400910	-6.459293
H	2.944986	1.702260	1.306486
$end

$rem
JOBTYPE		SP
EXCHANGE	HF
CORRELATION	pRIMP2
BASIS		cc-pvtz
METHOD		rimp2
AUX_BASIS	rimp2-cc-pvtz
SOLVENT_METHOD	PCM
PURECART	11111
SYMMETRY	false
MEM_TOTAL	110000
SCF_CONVERGENCE = 6
THRESH=10
GUI = 2
$end



$solvent
dielectric 4.90
$end
--------------------------------------------------------------
 ----------------------------------------------------------------
             Standard Nuclear Orientation (Angstroms)
    I     Atom           X                Y                Z
 ----------------------------------------------------------------
    1      C       0.3131910000    -8.5177020000    -0.0700090000
    2      C      -0.6947460000    -7.6415750000     0.3054940000
    3      S       1.7623500000    -7.6386340000    -0.6149240000
    4      C      -0.3409730000    -6.2647850000     0.1767680000
    5      H      -1.6777470000    -7.9660810000     0.6695710000
    6      C       1.0000690000    -6.0727140000    -0.3096000000
    7      C       1.5200600000    -4.7870490000    -0.5253720000
    8      C      -1.1964660000    -5.1628010000     0.4638250000
    9      C      -0.6776390000    -3.8748170000     0.2438880000
   10      C       0.6658150000    -3.6839520000    -0.2403120000
   11      O      -2.4266780000    -5.4997720000     0.9416260000
   12      O       2.7554600000    -4.4590550000    -1.0064680000
   13      C       3.8539130000    -5.3290630000    -0.7616660000
   14      H       4.7656070000    -4.7556940000    -1.0161350000
   15      H       3.8221820000    -6.2380950000    -1.4013680000
   16      H       3.9018330000    -5.6372620000     0.3051610000
   17      C      -3.5024890000    -4.5722610000     0.8683420000
   18      H      -4.4160050000    -5.1397430000     1.1285510000
   19      H      -3.6138410000    -4.1531310000    -0.1547120000
   20      H      -3.3867560000    -3.7395310000     1.5956050000
   21      C       1.0154300000    -2.3066540000    -0.3699570000
   22      S      -1.4459220000    -2.3065010000     0.5378980000
   23      C       0.0000000000    -1.4351850000     0.0000000000
   24      H       1.9980880000    -1.9781380000    -0.7310880000
   25      H       0.3141430000    -9.6140330000    -0.0741510000
   26      C       0.0000000000     0.0000000000     0.0000000000
   27      S       0.7837860000     0.4519720000     1.5075410000
   28      C       2.1452610000     1.2389080000     0.7188730000
   29      C       0.7836500000     0.4515720000    -1.0678720000
   30      C       1.9863960000     1.1486480000    -0.6864100000
   31      S       0.5741330000     0.3273170000    -2.8055160000
   32      C       2.0883630000     1.2079430000    -3.0545300000
   33      C       2.7005480000     1.5642210000    -1.8625510000
   34      F       3.8557180000     2.2367060000    -1.8190880000
   35      C       2.4773070000     1.4303180000    -4.4560840000
   36      O       1.8145920000     1.0384820000    -5.4065100000
   37      O       3.6431620000     2.1120420000    -4.5692250000
   38      C       4.0745300000     2.3550610000    -5.9162070000
   39      H       5.0245560000     2.9116270000    -5.8330640000
   40      H       3.3220100000     2.9518600000    -6.4701680000
   41      H       4.2294900000     1.4009100000    -6.4592930000
   42      H       2.9449860000     1.7022600000     1.3064860000
 ----------------------------------------------------------------
 Nuclear Repulsion Energy =        3351.45845355 hartrees
 There are      119 alpha and      119 beta electrons
 Requested basis set is cc-pVTZ
 There are 376 shells and 1068 basis functions

 Total QAlloc Memory Limit 110000 MB
 Mega-Array Size       188 MB
 MEM_STATIC part       192 MB
 Discretize the solute cavity surface with Lebedev spheres
	Using 110 Lebedev grid points for each H atom
	Using 194 Lebedev grid points for other atoms
	Atomic van der Waals radii will be scaled by 1.20
 Remove points where switching function is < 1.0e-08
 Keep 2869 surface tesserae and discard 4187 interior tesserae
 Molecular Surface Area = 438.723 Angst**2
 Requested basis set is rimp2-cc-pVTZ
 There are 833 shells and 2903 basis functions
 A cutoff of  1.0D-10 yielded  32304 shell pairs
 There are    246654 function pairs (    319724 Cartesian)
 Smallest overlap matrix eigenvalue = 2.20E-05

 Scale SEOQF with 1.000000e-01/1.000000e-02/1.000000e-02

 Standard Electronic Orientation quadrupole field applied
 Nucleus-field energy     =     0.0000000554 hartrees
 Guess from superposition of atomic densities
 Warning:  Energy on first SCF cycle will be non-variational
 SAD guess density has 238.000000 electrons

 -----------------------------------------------------------------------
  General SCF calculation program by
  Eric Jon Sundstrom, Paul Horn, Yuezhi Mao, Dmitri Zuev, Alec White,
  David Stuck, Shaama M.S., Shane Yost, Joonho Lee, David Small,
  Daniel Levine, Susi Lehtola, Hugh Burton, Evgeny Epifanovsky,
  Bang C. Huynh
 -----------------------------------------------------------------------
 Hartree-Fock
 using 64 threads for integral computing
 -------------------------------------------------------
 OpenMP Integral computing Module                
 Release: version 1.0, May 2013, Q-Chem Inc. Pittsburgh 
 -------------------------------------------------------
 A restricted SCF calculation will be
 performed using DIIS
 SCF converges when DIIS error is below 1.0e-06
 ---------------------------------------
  Cycle       Energy         DIIS error
 ---------------------------------------
    1   -2765.3174169172      1.76e-02  
    2   -2753.8156343093      1.57e-03  
    3   -2754.1559863477      8.68e-04  
    4   -2754.2389635671      2.57e-04  
    5   -2754.2507888419      7.05e-05  
    6   -2754.2519237330      2.51e-05  
    7   -2754.2521777484      1.18e-05  
    8   -2754.2522642619      4.94e-06  
    9   -2754.2522814012      2.12e-06  
   10   -2754.2522842347      1.09e-06  
   11   -2754.2522849876      4.21e-07  Convergence criterion met
 ---------------------------------------
 SCF time:   CPU 7267.40s  wall 263.00s 

************** Final PCM Free Energy Summary **************
 G_electrostatic  =      -0.02089519 hartree =     -13.11193078 kcal/mol
 G_cavitation     =       0.00000000 hartree =       0.00000000 kcal/mol
 G_dispersion     =       0.00000000 hartree =       0.00000000 kcal/mol
 G_repulsion      =       0.00000000 hartree =       0.00000000 kcal/mol
 --------------------------------------------------
 Non-electrostatic Free Energy =       0.00000000 hartree =       0.00000000 kcal/mol
 Total                         =      -0.02089519 hartree =     -13.11193078 kcal/mol
 --------------------------------------------------
 SCF Energy (H0 + V/2)                       =   -2754.25228499 
 Solute Internal Energy (H0)                 =   -2754.23138980 
 Total Free Energy (H0 + V/2 + non-elec)     =   -2754.25228499 hartree
                                             = -1728319.39435312 kcal/mol
***********************************************************

 SCF   energy in the final basis set =    -2754.2522849876
 Total energy in the final basis set =    -2754.2522849876


 --------------------------------------------------------------
  Generalized many-body perturbation theory program
  by Joonho Lee, Fazle Rob, Xintian Feng, Evgeny Epifanovsky

 No regularization used 
 (reg. param. = 0.0000e+00)
  (P|Q)^-1/2 Time:  CPU 154.17 s  wall 2.78 s

 In RI-MP2 calculation: 
 # of frozen core orbitals: 45

 Components of the RIMP2 correlation energy:
        aaaa    correlation energy =        -0.6718026837 a.u.
        abab    correlation energy =        -3.7188862427 a.u.
        bbbb    correlation energy =        -0.6718026837 a.u.
        non-Brillouin singles      =        -0.0000000000 a.u.
        total same-spin energy     =        -1.3436053675 a.u.
        total opposite-spin energy =        -3.7188862427 a.u.

 Total  RIMP2   correlation energy =        -5.0624916102 a.u.
        RIMP2         total energy =     -2759.3147765978 a.u.

 RI-MP2 Energy Time:  CPU 2787.19 s  wall 47.03 s
 
 --------------------------------------------------------------
 
                    Orbital Energies (a.u.)
 --------------------------------------------------------------
 
 Alpha MOs
 -- Occupied --
-92.0135 -92.0078 -91.9836 -91.9799 -26.3463 -20.6155 -20.5903 -20.5884
-20.5618 -11.4104 -11.3869 -11.3358 -11.3209 -11.3159 -11.3121 -11.2984
-11.2920 -11.2893 -11.2879 -11.2852 -11.2848 -11.2811 -11.2790 -11.2761
-11.2660 -11.2568 -11.2537 -11.2479 -11.2433  -9.0128  -9.0075  -8.9836
 -8.9807  -6.6934  -6.6925  -6.6922  -6.6883  -6.6876  -6.6866  -6.6646
 -6.6639  -6.6631  -6.6617  -6.6609  -6.6601  -1.6633  -1.4680  -1.4142
 -1.4112  -1.3707  -1.2333  -1.1899  -1.1642  -1.1395  -1.0844  -1.0480
 -1.0453  -1.0262  -0.9969  -0.9869  -0.9642  -0.9578  -0.9483  -0.9397
 -0.8921  -0.8713  -0.8425  -0.8123  -0.7968  -0.7876  -0.7829  -0.7625
 -0.7558  -0.7308  -0.7280  -0.7131  -0.7000  -0.6861  -0.6824  -0.6796
 -0.6747  -0.6598  -0.6568  -0.6505  -0.6285  -0.6180  -0.6159  -0.6091
 -0.6004  -0.5871  -0.5729  -0.5695  -0.5655  -0.5616  -0.5532  -0.5455
 -0.5316  -0.5232  -0.5195  -0.5172  -0.5118  -0.5085  -0.5037  -0.4935
 -0.4867  -0.4842  -0.4755  -0.4734  -0.4664  -0.4616  -0.4579  -0.4041
 -0.3911  -0.3839  -0.3605  -0.3446  -0.3201  -0.2988  -0.2517
 -- Virtual --
  0.0234   0.0605   0.0846   0.1274   0.1379   0.1428   0.1514   0.1524
  0.1567   0.1573   0.1616   0.1704   0.1794   0.1847   0.1900   0.1929
  0.1965   0.2056   0.2117   0.2145   0.2206   0.2225   0.2250   0.2274
  0.2326   0.2367   0.2469   0.2469   0.2546   0.2635   0.2664   0.2783
  0.2841   0.2934   0.3062   0.3284   0.3321   0.3346   0.3397   0.3461
  0.3502   0.3539   0.3637   0.3719   0.3741   0.3831   0.3845   0.3878
  0.3886   0.3910   0.3947   0.4028   0.4077   0.4135   0.4188   0.4217
  0.4279   0.4305   0.4344   0.4414   0.4472   0.4485   0.4526   0.4567
  0.4620   0.4654   0.4706   0.4716   0.4755   0.4799   0.4882   0.4905
  0.4937   0.5005   0.5055   0.5069   0.5105   0.5171   0.5195   0.5250
  0.5269   0.5278   0.5343   0.5386   0.5392   0.5409   0.5422   0.5506
  0.5520   0.5556   0.5567   0.5601   0.5688   0.5705   0.5759   0.5802
  0.5817   0.5920   0.5949   0.5953   0.5974   0.6054   0.6086   0.6135
  0.6153   0.6190   0.6201   0.6221   0.6245   0.6296   0.6338   0.6371
  0.6417   0.6434   0.6476   0.6514   0.6524   0.6604   0.6621   0.6703
  0.6767   0.6842   0.6861   0.6905   0.6940   0.6979   0.7060   0.7086
  0.7140   0.7169   0.7202   0.7287   0.7363   0.7401   0.7486   0.7502
  0.7536   0.7606   0.7625   0.7711   0.7762   0.7838   0.7878   0.7984
  0.8020   0.8077   0.8137   0.8157   0.8254   0.8310   0.8359   0.8420
  0.8486   0.8533   0.8551   0.8610   0.8679   0.8722   0.8802   0.8860
  0.8915   0.8938   0.9008   0.9028   0.9112   0.9188   0.9206   0.9223
  0.9337   0.9384   0.9417   0.9454   0.9538   0.9577   0.9607   0.9689
  0.9760   0.9775   0.9796   0.9841   0.9853   0.9921   0.9966   1.0047
  1.0106   1.0170   1.0221   1.0260   1.0287   1.0313   1.0384   1.0417
  1.0453   1.0491   1.0624   1.0636   1.0682   1.0715   1.0770   1.0847
  1.0891   1.0900   1.0953   1.1003   1.1048   1.1099   1.1172   1.1187
  1.1228   1.1239   1.1305   1.1422   1.1465   1.1528   1.1563   1.1625
  1.1643   1.1754   1.1776   1.1783   1.1870   1.1890   1.1912   1.1971
  1.1977   1.2098   1.2148   1.2179   1.2223   1.2237   1.2284   1.2314
  1.2365   1.2407   1.2460   1.2507   1.2579   1.2646   1.2679   1.2755
  1.2793   1.2823   1.2864   1.2953   1.2997   1.3056   1.3118   1.3152
  1.3240   1.3254   1.3373   1.3449   1.3531   1.3604   1.3720   1.3741
  1.3813   1.3842   1.3917   1.4022   1.4049   1.4101   1.4214   1.4259
  1.4321   1.4379   1.4450   1.4587   1.4751   1.4812   1.4850   1.4899
  1.4967   1.5001   1.5073   1.5090   1.5120   1.5161   1.5225   1.5332
  1.5364   1.5390   1.5403   1.5466   1.5496   1.5519   1.5577   1.5673
  1.5751   1.5819   1.5898   1.5925   1.6005   1.6077   1.6215   1.6324
  1.6380   1.6425   1.6545   1.6644   1.6670   1.6725   1.6783   1.6850
  1.6882   1.6915   1.7004   1.7064   1.7107   1.7239   1.7340   1.7407
  1.7580   1.7615   1.7696   1.7832   1.7870   1.7979   1.8044   1.8174
  1.8216   1.8273   1.8445   1.8472   1.8538   1.8599   1.8708   1.8732
  1.8854   1.8960   1.9003   1.9087   1.9170   1.9243   1.9292   1.9407
  1.9426   1.9507   1.9561   1.9613   1.9656   1.9712   1.9803   1.9838
  1.9918   1.9956   2.0075   2.0096   2.0136   2.0305   2.0417   2.0621
  2.0746   2.0797   2.0892   2.0990   2.0997   2.1185   2.1280   2.1313
  2.1519   2.1582   2.1621   2.1656   2.1720   2.1792   2.1832   2.1922
  2.1960   2.1996   2.2027   2.2119   2.2208   2.2263   2.2297   2.2401
  2.2430   2.2565   2.2598   2.2698   2.2736   2.2795   2.2843   2.2985
  2.3074   2.3097   2.3183   2.3253   2.3422   2.3488   2.3585   2.3643
  2.3670   2.3712   2.3870   2.3883   2.4017   2.4094   2.4143   2.4281
  2.4344   2.4394   2.4459   2.4512   2.4537   2.4623   2.4812   2.4917
  2.4932   2.4960   2.5052   2.5173   2.5287   2.5343   2.5537   2.5551
  2.5630   2.5684   2.5767   2.5893   2.6020   2.6078   2.6167   2.6234
  2.6275   2.6301   2.6374   2.6425   2.6494   2.6566   2.6659   2.6718
  2.6818   2.6829   2.6918   2.7002   2.7046   2.7062   2.7106   2.7198
  2.7219   2.7287   2.7429   2.7452   2.7501   2.7697   2.7753   2.7776
  2.7824   2.7923   2.7971   2.8067   2.8118   2.8131   2.8145   2.8186
  2.8327   2.8404   2.8443   2.8514   2.8559   2.8639   2.8733   2.8758
  2.8819   2.8882   2.8910   2.8946   2.8998   2.9139   2.9284   2.9334
  2.9447   2.9524   2.9591   2.9637   2.9820   2.9842   2.9881   2.9979
  3.0100   3.0146   3.0228   3.0246   3.0305   3.0364   3.0417   3.0454
  3.0523   3.0573   3.0656   3.0733   3.0796   3.0853   3.0928   3.0987
  3.1037   3.1061   3.1115   3.1186   3.1206   3.1263   3.1281   3.1411
  3.1496   3.1525   3.1576   3.1623   3.1679   3.1746   3.1819   3.1829
  3.1857   3.1955   3.2026   3.2101   3.2152   3.2163   3.2190   3.2265
  3.2292   3.2417   3.2463   3.2494   3.2552   3.2630   3.2685   3.2687
  3.2747   3.2776   3.2813   3.2901   3.2956   3.2988   3.3050   3.3098
  3.3161   3.3213   3.3240   3.3296   3.3393   3.3461   3.3519   3.3541
  3.3572   3.3616   3.3626   3.3654   3.3677   3.3733   3.3797   3.3875
  3.3890   3.3948   3.3960   3.4061   3.4075   3.4105   3.4139   3.4183
  3.4193   3.4283   3.4325   3.4352   3.4436   3.4482   3.4553   3.4560
  3.4637   3.4661   3.4692   3.4742   3.4802   3.4828   3.4887   3.4956
  3.5024   3.5114   3.5161   3.5253   3.5284   3.5320   3.5344   3.5383
  3.5430   3.5451   3.5534   3.5578   3.5692   3.5765   3.5790   3.5816
  3.5895   3.5938   3.5982   3.6011   3.6055   3.6103   3.6200   3.6226
  3.6302   3.6327   3.6345   3.6430   3.6473   3.6524   3.6629   3.6700
  3.6728   3.6781   3.6835   3.6887   3.6914   3.6969   3.6994   3.7055
  3.7088   3.7136   3.7148   3.7254   3.7341   3.7371   3.7468   3.7500
  3.7554   3.7597   3.7658   3.7742   3.7770   3.7850   3.7871   3.7907
  3.7967   3.8018   3.8035   3.8092   3.8113   3.8199   3.8233   3.8382
  3.8389   3.8407   3.8471   3.8584   3.8657   3.8693   3.8700   3.8748
  3.8783   3.8865   3.8896   3.8952   3.9059   3.9125   3.9210   3.9241
  3.9359   3.9389   3.9402   3.9493   3.9679   3.9733   3.9800   3.9849
  4.0003   4.0051   4.0084   4.0205   4.0218   4.0323   4.0423   4.0482
  4.0545   4.0606   4.0634   4.0679   4.0706   4.0886   4.0934   4.1032
  4.1194   4.1229   4.1304   4.1433   4.1491   4.1535   4.1548   4.1582
  4.1648   4.1658   4.1694   4.1815   4.1852   4.1903   4.1955   4.1998
  4.2092   4.2170   4.2269   4.2361   4.2429   4.2455   4.2640   4.2789
  4.2820   4.3009   4.3089   4.3276   4.3384   4.3420   4.3521   4.3558
  4.3583   4.3682   4.3715   4.3742   4.3853   4.3944   4.3985   4.4051
  4.4106   4.4129   4.4199   4.4274   4.4311   4.4368   4.4391   4.4599
  4.4612   4.4814   4.4889   4.4916   4.5060   4.5092   4.5179   4.5258
  4.5390   4.5476   4.5528   4.5603   4.5641   4.5780   4.5818   4.5972
  4.6064   4.6144   4.6162   4.6266   4.6387   4.6430   4.6487   4.6576
  4.6593   4.6729   4.6776   4.6914   4.6988   4.7152   4.7312   4.7383
  4.7543   4.7595   4.7697   4.7722   4.7847   4.7897   4.7970   4.8207
  4.8325   4.8417   4.8476   4.8533   4.8667   4.8692   4.8801   4.9204
  4.9425   4.9472   4.9494   4.9592   4.9710   4.9760   4.9855   4.9912
  5.0084   5.0110   5.0179   5.0299   5.0393   5.0491   5.0675   5.0737
  5.0832   5.0954   5.1060   5.1362   5.1628   5.1697   5.1767   5.1990
  5.2158   5.2276   5.2306   5.2436   5.2509   5.2555   5.2570   5.2810
  5.2991   5.3097   5.3167   5.3246   5.3312   5.3487   5.3535   5.3637
  5.3809   5.3942   5.4017   5.4053   5.4199   5.4257   5.4386   5.4661
  5.4747   5.4846   5.5035   5.5094   5.5136   5.5235   5.5360   5.5606
  5.5797   5.5811   5.5913   5.6074   5.6211   5.6387   5.6453   5.6602
  5.7197   5.7250   5.7459   5.7675   5.8069   5.8172   5.8476   5.8569
  5.8736   5.8848   5.9083   5.9286   5.9550   5.9752   5.9953   6.0260
  6.0409   6.0727   6.1015   6.1451   6.1500   6.1728   6.1789   6.1826
  6.2248   6.2438   6.2585   6.2609   6.2733   6.2838   6.3108   6.3316
  6.4152   6.4471   6.4494   6.4794   6.5381   6.5504   6.5590   6.5980
  6.6568   6.6605   6.6707   6.7032   6.7438   6.8033   6.8285   6.8376
  6.8589   6.8965   6.9775   7.1250   7.1372   7.2033   7.2036   7.2178
  7.2366   7.3094   7.3233   7.3322   7.3605   7.3612   7.4043   7.4127
  7.4802   7.4828   7.4885   7.5178   7.5488   7.6133   7.7021   7.7702
  7.7887   7.7991   7.8904   7.9230   7.9423   7.9594   8.0618   8.1327
  8.4455   8.9193   9.0295   9.3604   9.4830   9.6639  10.2007  10.5898
 11.2596  11.4651  11.7749  12.0801  12.1322  12.1930  12.4458  12.5930
 12.7088  12.9327  13.0037  13.2704  13.3874  13.4692  13.7865  13.8488
 13.9041  14.0233  14.0427  14.4947  15.2021
 --------------------------------------------------------------
 
          Ground-State Mulliken Net Atomic Charges

     Atom                 Charge (a.u.)
  ----------------------------------------
      1 C                    -0.195399
      2 C                    -0.254393
      3 S                    -0.028201
      4 C                    -0.020046
      5 H                     0.195369
      6 C                    -0.025123
      7 C                     0.231385
      8 C                     0.244186
      9 C                    -0.047964
     10 C                    -0.020674
     11 O                    -0.333907
     12 O                    -0.342214
     13 C                    -0.085836
     14 H                     0.121072
     15 H                     0.090973
     16 H                     0.092705
     17 C                    -0.086819
     18 H                     0.124463
     19 H                     0.094136
     20 H                     0.089564
     21 C                    -0.262794
     22 S                    -0.031707
     23 C                     0.022418
     24 H                     0.192561
     25 H                     0.204959
     26 C                    -0.180882
     27 S                     0.128425
     28 C                    -0.115336
     29 C                     0.043687
     30 C                    -0.117129
     31 S                     0.068076
     32 C                    -0.151929
     33 C                     0.400433
     34 F                    -0.204650
     35 C                     0.448361
     36 O                    -0.461955
     37 O                    -0.301341
     38 C                    -0.058147
     39 H                     0.121412
     40 H                     0.095324
     41 H                     0.095360
     42 H                     0.221579
  ----------------------------------------
  Sum of atomic charges =     0.000000

 -----------------------------------------------------------------
                    Cartesian Multipole Moments
 -----------------------------------------------------------------
    Charge (ESU x 10^10)
                 0.0000
    Dipole Moment (Debye)
         X       3.6420      Y       1.7070      Z       2.8625
       Tot       4.9368
    Quadrupole Moments (Debye-Ang)
        XX    -164.5963     XY       8.0160     YY    -179.8966
        XZ      -8.5767     YZ      -4.9942     ZZ    -204.1552
    Octopole Moments (Debye-Ang^2)
       XXX    -483.8492    XXY     382.4367    XYY    -157.3946
       YYY    1144.0499    XXZ     131.8511    XYZ     -13.9656
       YYZ     165.3640    XZZ     -99.6674    YZZ     523.5533
       ZZZ     558.0580
    Hexadecapole Moments (Debye-Ang^3)
      XXXX   -4611.2766   XXXY    -170.0260   XXYY   -3724.3895
      XYYY    -242.6721   YYYY  -17371.9925   XXXZ    1422.2931
      XXYZ      98.0416   XYYZ     417.4075   YYYZ     622.3837
      XXZZ   -1307.2146   XYZZ     211.8365   YYZZ   -4301.3784
      XZZZ    1250.2389   YZZZ     388.6239   ZZZZ   -5607.1339
 -----------------------------------------------------------------
 Total job time:  318.87s(wall), 10398.46s(cpu) 
 Tue Jan  9 01:44:24 2024

        *************************************************************
        *                                                           *
        *  Thank you very much for using Q-Chem.  Have a nice day.  *
        *                                                           *
        *************************************************************


0 sent ACK to 0 
now end server 0 ... 
cleanup process ... done
remove work dirs ./qchem1677218.0 -- ./qchem1677218.0
rm -rf ./qchem1677218.0
rm -rf ./qchem1677218
