You are running Q-Chem version: 5.4.0

#
# job setting
#
local host:  exp-9-41
current dir: /home/rramji/project-csd799/aromodel/ptb7fout-qchem/rotation-run
input file:  Dimethoxy_Benzodithiophene_Phi_25_Theta_170_Methylcarbonyl_3_Fluoro_Thienothiophene.qcin
output file: 
nprocs     : 1
nthreads   : 64
#
# qchem installation setting
#
QC:          /cm/shared/apps/spack/cpu/opt/spack/linux-centos8-zen2/gcc-10.2.0/qchem-5.4-akfmr7b3t57bfs6qan3padb2wnb2i7cl
QCAUX:       /cm/shared/apps/spack/cpu/opt/spack/linux-centos8-zen2/gcc-10.2.0/qchem-5.4-akfmr7b3t57bfs6qan3padb2wnb2i7cl/qcaux
QCPROG:      /cm/shared/apps/spack/cpu/opt/spack/linux-centos8-zen2/gcc-10.2.0/qchem-5.4-akfmr7b3t57bfs6qan3padb2wnb2i7cl/exe/qcprog.exe
QCPROG_S:    /cm/shared/apps/spack/cpu/opt/spack/linux-centos8-zen2/gcc-10.2.0/qchem-5.4-akfmr7b3t57bfs6qan3padb2wnb2i7cl/exe/qcprog.exe_s
PARALLEL:    -DPARALLEL
QCMPI:       mpich
#
# qchem directory setting
#
qcrun:       qchem2722868
QCSCRATCH:   .
QCLOCALSCR:  
QCTMPDIR:    .
QCFILEPREF:  ./qchem2722868
QCSAVEDIR:   
workdirs:    ./qchem2722868
workdir0:    ./qchem2722868
partmpdirs =  
#
# parallel setting
#
QCRSH:           ssh
QCMPI:           mpich
QCMPIRUN:        /cm/shared/apps/spack/cpu/opt/spack/linux-centos8-zen2/gcc-10.2.0/qchem-5.4-akfmr7b3t57bfs6qan3padb2wnb2i7cl/bin/mpi/mpirun_qchem
QCMACHINEFILE:   ./qchem2722868/hostfile
exp-9-41

#
# env setting
#
exported envs:   QC QCAUX QCSCRATCH QCRUNNAME QCFILEPREF QCPROG QCPROG_S GUIFILE

Running Job 1 of 1 Dimethoxy_Benzodithiophene_Phi_25_Theta_170_Methylcarbonyl_3_Fluoro_Thienothiophene.qcin
qchem Dimethoxy_Benzodithiophene_Phi_25_Theta_170_Methylcarbonyl_3_Fluoro_Thienothiophene.qcin_2722868.0 ./qchem2722868/ 1
/cm/shared/apps/spack/cpu/opt/spack/linux-centos8-zen2/gcc-10.2.0/qchem-5.4-akfmr7b3t57bfs6qan3padb2wnb2i7cl/bin/mpi/mpirun_qchem -machinefile ./qchem2722868/hostfile -np 1 /cm/shared/apps/spack/cpu/opt/spack/linux-centos8-zen2/gcc-10.2.0/qchem-5.4-akfmr7b3t57bfs6qan3padb2wnb2i7cl/exe/qcprog.exe Dimethoxy_Benzodithiophene_Phi_25_Theta_170_Methylcarbonyl_3_Fluoro_Thienothiophene.qcin_2722868.0 ./qchem2722868/

Process 0 of 1 is on exp-9-41 - thread support 0
initial socket setup ...start
initial socket setup ...done 
now start server 0 ... 
                  Welcome to Q-Chem
     A Quantum Leap Into The Future Of Chemistry


 Q-Chem 5.4, Q-Chem, Inc., Pleasanton, CA (2021)

 License issued to: University of California, San Diego (site)

 E. Epifanovsky,  A. T. B. Gilbert,  Xintian Feng,  Joonho Lee,  Yuezhi Mao,  
 N. Mardirossian,  P. Pokhilko,  A. White,  M. Wormit,  M. P. Coons,  
 A. L. Dempwolff,  Zhengting Gan,  D. Hait,  P. R. Horn,  L. D. Jacobson,  
 I. Kaliman,  J. Kussmann,  A. W. Lange,  Ka Un Lao,  D. S. Levine,  Jie Liu,  
 S. C. McKenzie,  A. F. Morrison,  K. Nanda,  F. Plasser,  D. R. Rehn,  
 M. L. Vidal,  Zhi-Qiang You,  Ying Zhu,  B. Alam,  B. Albrecht,  
 A. Aldossary,  E. Alguire,  J. H. Andersen,  D. Barton,  K. Begam,  A. Behn,  
 Y. A. Bernard,  E. J. Berquist,  H. Burton,  A. Carreras,  K. Carter-Fenk,  
 R. Chakraborty,  A. D. Chien,  K. D. Closser,  V. Cofer-Shabica,  
 S. Dasgupta,  Jia Deng,  M. de Wergifosse,  M. Diedenhofen,  Hainam Do,  
 S. Ehlert,  Po-Tung Fang,  S. Fatehi,  Qingguo Feng,  J. Gayvert,  
 Qinghui Ge,  G. Gidofalvi,  M. Goldey,  J. Gomes,  C. Gonzalez-Espinoza,  
 S. Gulania,  A. Gunina,  M. W. D. Hanson-Heine,  P. H. P. Harbach,  
 A. W. Hauser,  M. F. Herbst,  M. Hernandez Vera,  M. Hodecker,  
 Z. C. Holden,  S. Houck,  Xunkun Huang,  Kerwin Hui,  B. C. Huynh,  
 M. Ivanov,  Hyunjun Ji,  Hanjie Jiang,  B. Kaduk,  S. Kaehler,  
 K. Khistyaev,  Jaehoon Kim,  P. Klunzinger,  Z. Koczor-Benda,  
 Joong Hoon Koh,  D. Kosenkov,  L. Koulias,  T. Kowalczyk,  C. M. Krauter,  
 K. Kue,  A. Kunitsa,  T. Kus,  A. Landau,  K. V. Lawler,  D. Lefrancois,  
 S. Lehtola,  Rain Li,  Yi-Pei Li,  Jiashu Liang,  M. Liebenthal,  
 Hung-Hsuan Lin,  You-Sheng Lin,  Fenglai Liu,  Kuan-Yu Liu,  
 M. Loipersberger,  A. Luenser,  A. Manjanath,  P. Manohar,  E. Mansoor,  
 S. F. Manzer,  Shan-Ping Mao,  A. V. Marenich,  T. Markovich,  S. Mason,  
 S. A. Maurer,  P. F. McLaughlin,  M. F. S. J. Menger,  J.-M. Mewes,  
 S. A. Mewes,  P. Morgante,  J. W. Mullinax,  T. S. Nguyen-Beck,  
 K. J. Oosterbaan,  G. Paran,  Alexander C. Paul,  Suranjan K. Paul,  
 F. Pavosevic,  Zheng Pei,  S. Prager,  E. I. Proynov,  E. Ramos,  B. Rana,  
 A. E. Rask,  A. Rettig,  R. M. Richard,  F. Rob,  E. Rossomme,  T. Scheele,  
 M. Scheurer,  M. Schneider,  N. Sergueev,  S. M. Sharada,  W. Skomorowski,  
 D. W. Small,  C. J. Stein,  Yu-Chuan Su,  E. J. Sundstrom,  Zhen Tao,  
 J. Thirman,  T. Tsuchimochi,  N. M. Tubman,  S. P. Veccham,  O. Vydrov,  
 J. Wenzel,  J. Witte,  A. Yamada,  Kun Yao,  S. Yeganeh,  S. R. Yost,  
 A. Zech,  Igor Ying Zhang,  Xing Zhang,  Yu Zhang,  D. Zuev,  
 A. Aspuru-Guzik,  A. T. Bell,  N. A. Besley,  K. B. Bravaya,  B. R. Brooks,  
 D. Casanova,  Jeng-Da Chai,  S. Coriani,  C. J. Cramer,  
 A. E. DePrince, III,  R. A. DiStasio Jr.,  A. Dreuw,  B. D. Dunietz,  
 T. R. Furlani,  W. A. Goddard III,  S. Grimme,  S. Hammes-Schiffer,  
 T. Head-Gordon,  W. J. Hehre,  Chao-Ping Hsu,  T.-C. Jagau,  Yousung Jung,  
 A. Klamt,  Jing Kong,  D. S. Lambrecht,  WanZhen Liang,  N. J. Mayhall,  
 C. W. McCurdy,  J. B. Neaton,  C. Ochsenfeld,  J. A. Parkhill,  R. Peverati,  
 V. A. Rassolov,  Yihan Shao,  L. V. Slipchenko,  T. Stauch,  R. P. Steele,  
 J. E. Subotnik,  A. J. W. Thom,  A. Tkatchenko,  D. G. Truhlar,  
 T. Van Voorhis,  T. A. Wesolowski,  K. B. Whaley,  H. L. Woodcock III,  
 P. M. Zimmerman,  S. Faraji,  P. M. W. Gill,  M. Head-Gordon,  
 J. M. Herbert,  A. I. Krylov

 Contributors to earlier versions of Q-Chem not listed above: 
 R. D. Adamson,  B. Austin,  R. Baer,  J. Baker,  G. J. O. Beran,  
 K. Brandhorst,  S. T. Brown,  E. F. C. Byrd,  A. K. Chakraborty,  
 G. K. L. Chan,  Chun-Min Chang,  Yunqing Chen,  C.-L. Cheng,  
 Siu Hung Chien,  D. M. Chipman,  D. L. Crittenden,  H. Dachsel,  
 R. J. Doerksen,  A. D. Dutoi,  R. G. Edgar,  J. Fosso-Tande,  
 L. Fusti-Molnar,  D. Ghosh,  A. Ghysels,  A. Golubeva-Zadorozhnaya,  
 J. Gonthier,  M. S. Gordon,  S. R. Gwaltney,  G. Hawkins,  J. E. Herr,  
 A. Heyden,  S. Hirata,  E. G. Hohenstein,  G. Kedziora,  F. J. Keil,  
 C. Kelley,  Jihan Kim,  R. A. King,  R. Z. Khaliullin,  P. P. Korambath,  
 W. Kurlancheek,  A. Laurent,  A. M. Lee,  M. S. Lee,  S. V. Levchenko,  
 Ching Yeh Lin,  D. Liotard,  E. Livshits,  R. C. Lochan,  I. Lotan,  
 L. A. Martinez-Martinez,  P. E. Maslen,  N. Nair,  D. P. O'Neill,  
 D. Neuhauser,  E. Neuscamman,  C. M. Oana,  R. Olivares-Amaya,  R. Olson,  
 T. M. Perrine,  B. Peters,  P. A. Pieniazek,  A. Prociuk,  Y. M. Rhee,  
 J. Ritchie,  M. A. Rohrdanz,  E. Rosta,  N. J. Russ,  H. F. Schaefer III,  
 M. W. Schmidt,  N. E. Schultz,  S. Sharma,  N. Shenvi,  C. D. Sherrill,  
 A. C. Simmonett,  A. Sodt,  T. Stein,  D. Stuck,  K. S. Thanthiriwatte,  
 V. Vanovschi,  L. Vogt,  Tao Wang,  A. Warshel,  M. A. Watson,  
 C. F. Williams,  Q. Wu,  X. Xu,  Jun Yang,  W. Zhang,  Yan Zhao

 Please cite Q-Chem as follows:
 Y. Shao et al., Mol. Phys. 113, 184-215 (2015)
 DOI: 10.1080/00268976.2014.952696

 Q-Chem 5.4.0 for Intel X86 EM64T Linux

 Parts of Q-Chem use Armadillo 9.800.1 (Horizon Scraper).
 http://arma.sourceforge.net/

 Q-Chem begins on Mon Jan  8 20:15:35 2024  

 Host: 
0

     Scratch files written to ./qchem2722868//
 May1621 |scratch|qcdevops|jenkins|workspace|build_RNUM    
 Parallel job on  1  processors
 Processing $rem in /cm/shared/apps/spack/cpu/opt/spack/linux-centos8-zen2/gcc-10.2.0/qchem-5.4-akfmr7b3t57bfs6qan3padb2wnb2i7cl/config/preferences:
 Processing $rem in /home/rramji/.qchemrc:
 Symmetry turned off for PCM/SM12/SMD calculation
 Core orbitals will be frozen

 Checking the input file for inconsistencies... 	...done.

 Q-Chem warning in module forms1/BasisType.C, line 2236:

 You are not using the predefined 5D/6D in this basis set.


--------------------------------------------------------------
User input:
--------------------------------------------------------------
$molecule
0 1
C	-0.014560	-8.517702	-0.320589
C	0.180211	-7.641575	0.737240
S	-0.299553	-7.638634	-1.842356
C	0.114873	-6.264785	0.366488
H	0.368061	-7.966081	1.768528
C	-0.131236	-6.072714	-1.038637
C	-0.253435	-4.787049	-1.588197
C	0.249014	-5.162801	1.258831
C	0.122513	-3.874817	0.709695
C	-0.121043	-3.683952	-0.697430
O	0.505933	-5.499772	2.553323
O	-0.512697	-4.459055	-2.888369
C	-0.080869	-5.329063	-3.927625
H	-0.173159	-4.755694	-4.869656
H	-0.716363	-6.238095	-4.007459
H	0.978072	-5.637262	-3.789565
C	0.246949	-4.572261	3.600064
H	0.344574	-5.139743	4.544887
H	-0.779898	-4.153131	3.532074
H	0.983261	-3.739531	3.612378
C	-0.188009	-2.306654	-1.064246
S	0.278644	-2.306501	1.517360
C	-0.000000	-1.435185	-0.000000
H	-0.373017	-1.978138	-2.094685
H	-0.018474	-9.614033	-0.322246
C	0.000000	0.000000	0.000000
S	0.382799	0.819795	1.507541
C	1.046687	2.245325	0.718873
C	0.382918	0.819389	-1.067872
C	0.968323	2.080267	-0.686410
S	0.282561	0.597432	-2.805516
C	1.017839	2.187324	-3.054530
C	1.314960	2.830306	-1.862551
F	1.875498	4.043751	-1.819088
C	1.208895	2.592573	-4.456084
O	0.890778	1.891482	-5.406510
O	1.772886	3.819715	-4.569225
C	1.986852	4.266207	-5.916207
H	2.445834	5.267032	-5.833064
H	1.028114	4.323448	-6.470168
H	2.661066	3.573494	-6.459293
H	1.436015	3.083584	1.306486
$end

$rem
JOBTYPE		SP
EXCHANGE	HF
CORRELATION	pRIMP2
BASIS		cc-pvtz
METHOD		rimp2
AUX_BASIS	rimp2-cc-pvtz
SOLVENT_METHOD	PCM
PURECART	11111
SYMMETRY	false
MEM_TOTAL	110000
SCF_CONVERGENCE = 6
THRESH=10
GUI = 2
$end



$solvent
dielectric 4.90
$end
--------------------------------------------------------------
 ----------------------------------------------------------------
             Standard Nuclear Orientation (Angstroms)
    I     Atom           X                Y                Z
 ----------------------------------------------------------------
    1      C      -0.0145600000    -8.5177020000    -0.3205890000
    2      C       0.1802110000    -7.6415750000     0.7372400000
    3      S      -0.2995530000    -7.6386340000    -1.8423560000
    4      C       0.1148730000    -6.2647850000     0.3664880000
    5      H       0.3680610000    -7.9660810000     1.7685280000
    6      C      -0.1312360000    -6.0727140000    -1.0386370000
    7      C      -0.2534350000    -4.7870490000    -1.5881970000
    8      C       0.2490140000    -5.1628010000     1.2588310000
    9      C       0.1225130000    -3.8748170000     0.7096950000
   10      C      -0.1210430000    -3.6839520000    -0.6974300000
   11      O       0.5059330000    -5.4997720000     2.5533230000
   12      O      -0.5126970000    -4.4590550000    -2.8883690000
   13      C      -0.0808690000    -5.3290630000    -3.9276250000
   14      H      -0.1731590000    -4.7556940000    -4.8696560000
   15      H      -0.7163630000    -6.2380950000    -4.0074590000
   16      H       0.9780720000    -5.6372620000    -3.7895650000
   17      C       0.2469490000    -4.5722610000     3.6000640000
   18      H       0.3445740000    -5.1397430000     4.5448870000
   19      H      -0.7798980000    -4.1531310000     3.5320740000
   20      H       0.9832610000    -3.7395310000     3.6123780000
   21      C      -0.1880090000    -2.3066540000    -1.0642460000
   22      S       0.2786440000    -2.3065010000     1.5173600000
   23      C       0.0000000000    -1.4351850000     0.0000000000
   24      H      -0.3730170000    -1.9781380000    -2.0946850000
   25      H      -0.0184740000    -9.6140330000    -0.3222460000
   26      C       0.0000000000     0.0000000000     0.0000000000
   27      S       0.3827990000     0.8197950000     1.5075410000
   28      C       1.0466870000     2.2453250000     0.7188730000
   29      C       0.3829180000     0.8193890000    -1.0678720000
   30      C       0.9683230000     2.0802670000    -0.6864100000
   31      S       0.2825610000     0.5974320000    -2.8055160000
   32      C       1.0178390000     2.1873240000    -3.0545300000
   33      C       1.3149600000     2.8303060000    -1.8625510000
   34      F       1.8754980000     4.0437510000    -1.8190880000
   35      C       1.2088950000     2.5925730000    -4.4560840000
   36      O       0.8907780000     1.8914820000    -5.4065100000
   37      O       1.7728860000     3.8197150000    -4.5692250000
   38      C       1.9868520000     4.2662070000    -5.9162070000
   39      H       2.4458340000     5.2670320000    -5.8330640000
   40      H       1.0281140000     4.3234480000    -6.4701680000
   41      H       2.6610660000     3.5734940000    -6.4592930000
   42      H       1.4360150000     3.0835840000     1.3064860000
 ----------------------------------------------------------------
 Nuclear Repulsion Energy =        3294.92598170 hartrees
 There are      119 alpha and      119 beta electrons
 Requested basis set is cc-pVTZ
 There are 376 shells and 1068 basis functions

 Total QAlloc Memory Limit 110000 MB
 Mega-Array Size       188 MB
 MEM_STATIC part       192 MB
 Discretize the solute cavity surface with Lebedev spheres
	Using 110 Lebedev grid points for each H atom
	Using 194 Lebedev grid points for other atoms
	Atomic van der Waals radii will be scaled by 1.20
 Remove points where switching function is < 1.0e-08
 Keep 2864 surface tesserae and discard 4192 interior tesserae
 Molecular Surface Area = 436.843 Angst**2
 Requested basis set is rimp2-cc-pVTZ
 There are 833 shells and 2903 basis functions
 A cutoff of  1.0D-10 yielded  31100 shell pairs
 There are    238564 function pairs (    309653 Cartesian)
 Smallest overlap matrix eigenvalue = 2.17E-05

 Scale SEOQF with 1.000000e-01/1.000000e-02/1.000000e-02

 Standard Electronic Orientation quadrupole field applied
 Nucleus-field energy     =     0.0000000195 hartrees
 Guess from superposition of atomic densities
 Warning:  Energy on first SCF cycle will be non-variational
 SAD guess density has 238.000000 electrons

 -----------------------------------------------------------------------
  General SCF calculation program by
  Eric Jon Sundstrom, Paul Horn, Yuezhi Mao, Dmitri Zuev, Alec White,
  David Stuck, Shaama M.S., Shane Yost, Joonho Lee, David Small,
  Daniel Levine, Susi Lehtola, Hugh Burton, Evgeny Epifanovsky,
  Bang C. Huynh
 -----------------------------------------------------------------------
 Hartree-Fock
 using 64 threads for integral computing
 -------------------------------------------------------
 OpenMP Integral computing Module                
 Release: version 1.0, May 2013, Q-Chem Inc. Pittsburgh 
 -------------------------------------------------------
 A restricted SCF calculation will be
 performed using DIIS
 SCF converges when DIIS error is below 1.0e-06
 ---------------------------------------
  Cycle       Energy         DIIS error
 ---------------------------------------
    1   -2765.2554610212      1.75e-02  
    2   -2753.8695881198      1.56e-03  
    3   -2754.2097458746      8.63e-04  
    4   -2754.2916236889      2.56e-04  
    5   -2754.3032891365      6.92e-05  
    6   -2754.3043671349      2.37e-05  
    7   -2754.3045989151      1.13e-05  
    8   -2754.3046745733      4.20e-06  
    9   -2754.3046887139      1.68e-06  
   10   -2754.3046904626      7.19e-07  Convergence criterion met
 ---------------------------------------
 SCF time:   CPU 6400.45s  wall 248.00s 

************** Final PCM Free Energy Summary **************
 G_electrostatic  =      -0.01875954 hartree =     -11.77178833 kcal/mol
 G_cavitation     =       0.00000000 hartree =       0.00000000 kcal/mol
 G_dispersion     =       0.00000000 hartree =       0.00000000 kcal/mol
 G_repulsion      =       0.00000000 hartree =       0.00000000 kcal/mol
 --------------------------------------------------
 Non-electrostatic Free Energy =       0.00000000 hartree =       0.00000000 kcal/mol
 Total                         =      -0.01875954 hartree =     -11.77178833 kcal/mol
 --------------------------------------------------
 SCF Energy (H0 + V/2)                       =   -2754.30469046 
 Solute Internal Energy (H0)                 =   -2754.28593092 
 Total Free Energy (H0 + V/2 + non-elec)     =   -2754.30469046 hartree
                                             = -1728352.27928501 kcal/mol
***********************************************************

 SCF   energy in the final basis set =    -2754.3046904626
 Total energy in the final basis set =    -2754.3046904626


 --------------------------------------------------------------
  Generalized many-body perturbation theory program
  by Joonho Lee, Fazle Rob, Xintian Feng, Evgeny Epifanovsky

 No regularization used 
 (reg. param. = 0.0000e+00)
  (P|Q)^-1/2 Time:  CPU 252.12 s  wall 4.22 s

 In RI-MP2 calculation: 
 # of frozen core orbitals: 45

 Components of the RIMP2 correlation energy:
        aaaa    correlation energy =        -0.6706787959 a.u.
        abab    correlation energy =        -3.7143608777 a.u.
        bbbb    correlation energy =        -0.6706787959 a.u.
        non-Brillouin singles      =        -0.0000000000 a.u.
        total same-spin energy     =        -1.3413575919 a.u.
        total opposite-spin energy =        -3.7143608777 a.u.

 Total  RIMP2   correlation energy =        -5.0557184695 a.u.
        RIMP2         total energy =     -2759.3604089321 a.u.

 RI-MP2 Energy Time:  CPU 3389.78 s  wall 55.87 s
 
 --------------------------------------------------------------
 
                    Orbital Energies (a.u.)
 --------------------------------------------------------------
 
 Alpha MOs
 -- Occupied --
-92.0163 -92.0021 -91.9903 -91.9855 -26.3444 -20.6151 -20.5926 -20.5897
-20.5617 -11.4100 -11.3842 -11.3194 -11.3154 -11.3153 -11.3042 -11.2983
-11.2980 -11.2971 -11.2890 -11.2875 -11.2871 -11.2848 -11.2847 -11.2834
-11.2781 -11.2612 -11.2569 -11.2513 -11.2493  -9.0152  -9.0020  -8.9910
 -8.9854  -6.6959  -6.6953  -6.6948  -6.6830  -6.6823  -6.6812  -6.6720
 -6.6713  -6.6703  -6.6664  -6.6657  -6.6649  -1.6614  -1.4677  -1.4165
 -1.4125  -1.3704  -1.2246  -1.1939  -1.1658  -1.1380  -1.0854  -1.0513
 -1.0431  -1.0249  -1.0009  -0.9883  -0.9646  -0.9596  -0.9500  -0.9395
 -0.8960  -0.8693  -0.8510  -0.8095  -0.7988  -0.7882  -0.7854  -0.7636
 -0.7558  -0.7335  -0.7262  -0.7111  -0.7015  -0.6861  -0.6829  -0.6815
 -0.6742  -0.6591  -0.6588  -0.6517  -0.6303  -0.6191  -0.6165  -0.6022
 -0.5997  -0.5857  -0.5792  -0.5710  -0.5648  -0.5605  -0.5568  -0.5474
 -0.5354  -0.5306  -0.5228  -0.5188  -0.5169  -0.5116  -0.5050  -0.4952
 -0.4871  -0.4818  -0.4770  -0.4746  -0.4697  -0.4640  -0.4599  -0.4272
 -0.3960  -0.3833  -0.3613  -0.3481  -0.3279  -0.2898  -0.2490
 -- Virtual --
  0.0217   0.0619   0.1082   0.1256   0.1284   0.1492   0.1556   0.1560
  0.1585   0.1620   0.1689   0.1715   0.1818   0.1860   0.1895   0.1970
  0.2010   0.2069   0.2149   0.2197   0.2230   0.2235   0.2246   0.2274
  0.2394   0.2438   0.2468   0.2521   0.2599   0.2650   0.2744   0.2885
  0.2942   0.3139   0.3230   0.3310   0.3396   0.3423   0.3462   0.3536
  0.3589   0.3662   0.3709   0.3824   0.3832   0.3853   0.3867   0.3910
  0.3921   0.3965   0.4018   0.4069   0.4101   0.4164   0.4193   0.4253
  0.4289   0.4368   0.4422   0.4429   0.4486   0.4489   0.4549   0.4567
  0.4674   0.4689   0.4740   0.4744   0.4793   0.4841   0.4887   0.4935
  0.4962   0.4999   0.5005   0.5113   0.5119   0.5144   0.5168   0.5201
  0.5314   0.5328   0.5350   0.5365   0.5425   0.5427   0.5489   0.5509
  0.5543   0.5588   0.5592   0.5609   0.5654   0.5693   0.5739   0.5806
  0.5843   0.5895   0.5959   0.5991   0.6026   0.6057   0.6115   0.6142
  0.6159   0.6186   0.6199   0.6221   0.6235   0.6275   0.6319   0.6336
  0.6376   0.6450   0.6468   0.6549   0.6555   0.6629   0.6636   0.6681
  0.6760   0.6810   0.6858   0.6911   0.6924   0.6997   0.7071   0.7092
  0.7141   0.7217   0.7239   0.7305   0.7340   0.7402   0.7431   0.7513
  0.7542   0.7619   0.7653   0.7699   0.7825   0.7862   0.7969   0.8029
  0.8064   0.8133   0.8206   0.8243   0.8280   0.8318   0.8446   0.8473
  0.8519   0.8547   0.8664   0.8688   0.8705   0.8756   0.8780   0.8841
  0.8899   0.8951   0.8972   0.9024   0.9126   0.9183   0.9220   0.9273
  0.9326   0.9330   0.9421   0.9462   0.9518   0.9602   0.9609   0.9676
  0.9717   0.9782   0.9821   0.9873   0.9909   0.9939   1.0008   1.0036
  1.0065   1.0113   1.0148   1.0203   1.0227   1.0350   1.0406   1.0463
  1.0523   1.0527   1.0581   1.0594   1.0642   1.0725   1.0749   1.0793
  1.0841   1.0896   1.0926   1.0968   1.1049   1.1073   1.1087   1.1147
  1.1187   1.1197   1.1308   1.1351   1.1435   1.1443   1.1565   1.1616
  1.1622   1.1733   1.1745   1.1799   1.1870   1.1884   1.1899   1.1964
  1.1998   1.2011   1.2134   1.2175   1.2210   1.2229   1.2277   1.2336
  1.2354   1.2435   1.2462   1.2552   1.2554   1.2607   1.2637   1.2711
  1.2732   1.2806   1.2872   1.2967   1.3016   1.3075   1.3137   1.3181
  1.3256   1.3297   1.3367   1.3395   1.3491   1.3537   1.3620   1.3672
  1.3725   1.3771   1.3862   1.3897   1.3988   1.4012   1.4153   1.4228
  1.4261   1.4335   1.4406   1.4476   1.4712   1.4758   1.4782   1.4878
  1.4908   1.5012   1.5027   1.5093   1.5128   1.5140   1.5244   1.5320
  1.5361   1.5387   1.5413   1.5440   1.5453   1.5531   1.5568   1.5720
  1.5794   1.5814   1.5875   1.5908   1.6033   1.6119   1.6253   1.6317
  1.6365   1.6463   1.6531   1.6583   1.6591   1.6622   1.6716   1.6815
  1.6857   1.6998   1.7009   1.7080   1.7197   1.7304   1.7359   1.7429
  1.7644   1.7697   1.7753   1.7821   1.7930   1.8027   1.8121   1.8155
  1.8185   1.8268   1.8365   1.8503   1.8566   1.8633   1.8690   1.8723
  1.8838   1.8955   1.9038   1.9106   1.9206   1.9219   1.9246   1.9306
  1.9354   1.9452   1.9530   1.9585   1.9656   1.9753   1.9821   1.9906
  2.0004   2.0046   2.0063   2.0167   2.0291   2.0300   2.0475   2.0608
  2.0676   2.0878   2.0943   2.1053   2.1116   2.1144   2.1236   2.1418
  2.1586   2.1616   2.1652   2.1731   2.1789   2.1810   2.1919   2.1929
  2.1984   2.2036   2.2103   2.2190   2.2223   2.2281   2.2375   2.2410
  2.2481   2.2511   2.2572   2.2618   2.2670   2.2734   2.2787   2.2849
  2.2941   2.3095   2.3124   2.3186   2.3327   2.3471   2.3493   2.3565
  2.3610   2.3687   2.3813   2.3859   2.4001   2.4032   2.4173   2.4260
  2.4294   2.4361   2.4420   2.4543   2.4662   2.4681   2.4813   2.4896
  2.4925   2.5002   2.5084   2.5247   2.5380   2.5416   2.5464   2.5537
  2.5591   2.5795   2.5810   2.5947   2.6028   2.6096   2.6157   2.6222
  2.6241   2.6302   2.6304   2.6379   2.6424   2.6437   2.6613   2.6678
  2.6784   2.6808   2.6839   2.6893   2.7012   2.7013   2.7053   2.7087
  2.7178   2.7246   2.7311   2.7335   2.7465   2.7495   2.7621   2.7814
  2.7843   2.7878   2.7920   2.7984   2.8040   2.8077   2.8109   2.8168
  2.8358   2.8407   2.8442   2.8478   2.8514   2.8602   2.8638   2.8732
  2.8771   2.8818   2.8873   2.8890   2.8977   2.9048   2.9198   2.9291
  2.9467   2.9544   2.9578   2.9585   2.9672   2.9797   2.9833   2.9922
  2.9982   3.0107   3.0192   3.0230   3.0291   3.0350   3.0355   3.0433
  3.0502   3.0541   3.0582   3.0698   3.0793   3.0830   3.0920   3.0985
  3.1012   3.1066   3.1130   3.1162   3.1196   3.1306   3.1370   3.1428
  3.1459   3.1530   3.1554   3.1570   3.1640   3.1703   3.1783   3.1837
  3.1919   3.2010   3.2052   3.2116   3.2164   3.2212   3.2230   3.2303
  3.2333   3.2417   3.2443   3.2549   3.2579   3.2619   3.2666   3.2711
  3.2741   3.2774   3.2802   3.2870   3.2897   3.2953   3.3004   3.3086
  3.3127   3.3184   3.3265   3.3309   3.3340   3.3401   3.3482   3.3528
  3.3541   3.3584   3.3610   3.3647   3.3661   3.3706   3.3765   3.3792
  3.3858   3.3898   3.3939   3.3955   3.3972   3.4071   3.4121   3.4163
  3.4198   3.4238   3.4301   3.4368   3.4420   3.4482   3.4500   3.4556
  3.4593   3.4640   3.4655   3.4736   3.4752   3.4812   3.4852   3.4860
  3.4991   3.5094   3.5143   3.5179   3.5241   3.5272   3.5285   3.5315
  3.5388   3.5438   3.5532   3.5552   3.5608   3.5643   3.5745   3.5792
  3.5821   3.5884   3.5922   3.5985   3.6001   3.6033   3.6132   3.6199
  3.6231   3.6269   3.6290   3.6353   3.6399   3.6494   3.6545   3.6600
  3.6646   3.6680   3.6779   3.6805   3.6845   3.6925   3.6982   3.7039
  3.7055   3.7095   3.7137   3.7205   3.7223   3.7308   3.7342   3.7418
  3.7464   3.7537   3.7608   3.7629   3.7698   3.7808   3.7832   3.7843
  3.7946   3.8016   3.8026   3.8066   3.8088   3.8135   3.8199   3.8227
  3.8370   3.8402   3.8462   3.8524   3.8536   3.8590   3.8637   3.8705
  3.8757   3.8810   3.8855   3.8919   3.8960   3.9054   3.9145   3.9246
  3.9274   3.9287   3.9384   3.9432   3.9511   3.9545   3.9697   3.9764
  3.9889   3.9900   3.9938   4.0102   4.0150   4.0262   4.0317   4.0382
  4.0467   4.0547   4.0616   4.0682   4.0734   4.0756   4.0859   4.0976
  4.1028   4.1141   4.1187   4.1243   4.1333   4.1384   4.1483   4.1536
  4.1573   4.1663   4.1672   4.1717   4.1827   4.1834   4.1903   4.2017
  4.2056   4.2153   4.2263   4.2405   4.2432   4.2454   4.2609   4.2728
  4.2817   4.2875   4.3102   4.3145   4.3237   4.3310   4.3417   4.3434
  4.3588   4.3596   4.3672   4.3689   4.3795   4.3853   4.3884   4.4025
  4.4087   4.4095   4.4159   4.4254   4.4293   4.4364   4.4396   4.4438
  4.4539   4.4707   4.4819   4.4958   4.4989   4.5015   4.5069   4.5225
  4.5344   4.5423   4.5456   4.5564   4.5613   4.5644   4.5782   4.5834
  4.5973   4.6154   4.6164   4.6257   4.6297   4.6443   4.6493   4.6542
  4.6681   4.6715   4.6802   4.6888   4.6989   4.7119   4.7268   4.7325
  4.7456   4.7494   4.7576   4.7748   4.7801   4.7976   4.8031   4.8214
  4.8247   4.8362   4.8505   4.8583   4.8686   4.8771   4.8922   4.9041
  4.9289   4.9426   4.9529   4.9600   4.9679   4.9761   4.9941   5.0017
  5.0041   5.0087   5.0171   5.0359   5.0409   5.0534   5.0651   5.0732
  5.0931   5.1083   5.1193   5.1305   5.1538   5.1661   5.1743   5.1998
  5.2077   5.2225   5.2427   5.2496   5.2527   5.2575   5.2618   5.2838
  5.2966   5.3114   5.3147   5.3253   5.3350   5.3501   5.3602   5.3659
  5.3810   5.4004   5.4010   5.4046   5.4224   5.4260   5.4352   5.4645
  5.4848   5.4862   5.5031   5.5066   5.5151   5.5290   5.5412   5.5720
  5.5771   5.5837   5.5922   5.6079   5.6212   5.6243   5.6502   5.6639
  5.7204   5.7323   5.7518   5.7699   5.8072   5.8121   5.8285   5.8546
  5.8742   5.8824   5.9054   5.9288   5.9399   5.9683   5.9996   6.0419
  6.0545   6.0893   6.1199   6.1493   6.1503   6.1707   6.1787   6.1831
  6.2412   6.2529   6.2611   6.2677   6.2789   6.2824   6.3181   6.3654
  6.4258   6.4497   6.4508   6.4888   6.5388   6.5491   6.5595   6.6027
  6.6564   6.6622   6.6708   6.6991   6.7458   6.8020   6.8299   6.8400
  6.8591   6.8942   6.9775   7.1219   7.1362   7.2036   7.2054   7.2161
  7.2367   7.3095   7.3228   7.3321   7.3622   7.3633   7.4053   7.4130
  7.4785   7.4846   7.4897   7.5224   7.5499   7.6180   7.7025   7.7719
  7.7889   7.7974   7.8909   7.9192   7.9402   7.9627   8.0685   8.1361
  8.5065   8.9209   9.0176   9.3620   9.4813   9.6527  10.0823  10.5350
 11.1592  11.4164  11.7833  11.9876  12.1337  12.1893  12.4244  12.5745
 12.6734  12.9704  13.0329  13.1434  13.3351  13.3864  13.7721  13.8490
 13.9058  14.0237  14.0392  14.6308  15.2111
 --------------------------------------------------------------
 
          Ground-State Mulliken Net Atomic Charges

     Atom                 Charge (a.u.)
  ----------------------------------------
      1 C                    -0.192194
      2 C                    -0.254111
      3 S                    -0.023158
      4 C                    -0.018574
      5 H                     0.195833
      6 C                    -0.026083
      7 C                     0.241217
      8 C                     0.242776
      9 C                    -0.043447
     10 C                    -0.019529
     11 O                    -0.332924
     12 O                    -0.341493
     13 C                    -0.086292
     14 H                     0.123306
     15 H                     0.091253
     16 H                     0.093514
     17 C                    -0.088795
     18 H                     0.125927
     19 H                     0.094919
     20 H                     0.089479
     21 C                    -0.242559
     22 S                    -0.038226
     23 C                    -0.022173
     24 H                     0.189411
     25 H                     0.205867
     26 C                     0.012183
     27 S                     0.085168
     28 C                    -0.176566
     29 C                     0.016988
     30 C                    -0.113222
     31 S                     0.015328
     32 C                    -0.161178
     33 C                     0.403793
     34 F                    -0.205281
     35 C                     0.446269
     36 O                    -0.460997
     37 O                    -0.301095
     38 C                    -0.058446
     39 H                     0.121530
     40 H                     0.095260
     41 H                     0.095215
     42 H                     0.221107
  ----------------------------------------
  Sum of atomic charges =     0.000000

 -----------------------------------------------------------------
                    Cartesian Multipole Moments
 -----------------------------------------------------------------
    Charge (ESU x 10^10)
                -0.0000
    Dipole Moment (Debye)
         X       1.6351      Y       1.6196      Z       3.0684
       Tot       3.8356
    Quadrupole Moments (Debye-Ang)
        XX    -199.1428     XY       5.0146     YY    -164.7184
        XZ      -4.6814     YZ      -6.8923     ZZ    -180.8180
    Octopole Moments (Debye-Ang^2)
       XXX    -233.2433    XXY     409.8017    XYY     -51.1102
       YYY     909.3311    XXZ     182.1609    XYZ     -16.9963
       YYZ     129.9821    XZZ     -35.5905    YZZ     361.5116
       ZZZ     601.2953
    Hexadecapole Moments (Debye-Ang^3)
      XXXX    -910.5919   XXXY    -680.9308   XXYY   -3990.2376
      XYYY    -638.3424   YYYY  -18889.2218   XXXZ     512.2587
      XXYZ     231.7638   XYYZ      35.2599   YYYZ     721.1862
      XXZZ   -1349.0565   XYZZ      -7.8365   YYZZ   -3988.3614
      XZZZ     317.7640   YZZZ     436.7345   ZZZZ   -7422.1635
 -----------------------------------------------------------------
 Total job time:  356.86s(wall), 9983.38s(cpu) 
 Mon Jan  8 20:21:32 2024

        *************************************************************
        *                                                           *
        *  Thank you very much for using Q-Chem.  Have a nice day.  *
        *                                                           *
        *************************************************************


0 sent ACK to 0 
now end server 0 ... 
cleanup process ... done
remove work dirs ./qchem2722868.0 -- ./qchem2722868.0
rm -rf ./qchem2722868.0
rm -rf ./qchem2722868
