You are running Q-Chem version: 5.4.0

#
# job setting
#
local host:  exp-6-14
current dir: /home/rramji/project-csd799/aromodel/ptb7fout-qchem/rotation-run
input file:  Dimethoxy_Benzodithiophene_Phi_0_Theta_310_Methylcarbonyl_3_Fluoro_Thienothiophene.qcin
output file: 
nprocs     : 1
nthreads   : 64
#
# qchem installation setting
#
QC:          /cm/shared/apps/spack/cpu/opt/spack/linux-centos8-zen2/gcc-10.2.0/qchem-5.4-akfmr7b3t57bfs6qan3padb2wnb2i7cl
QCAUX:       /cm/shared/apps/spack/cpu/opt/spack/linux-centos8-zen2/gcc-10.2.0/qchem-5.4-akfmr7b3t57bfs6qan3padb2wnb2i7cl/qcaux
QCPROG:      /cm/shared/apps/spack/cpu/opt/spack/linux-centos8-zen2/gcc-10.2.0/qchem-5.4-akfmr7b3t57bfs6qan3padb2wnb2i7cl/exe/qcprog.exe
QCPROG_S:    /cm/shared/apps/spack/cpu/opt/spack/linux-centos8-zen2/gcc-10.2.0/qchem-5.4-akfmr7b3t57bfs6qan3padb2wnb2i7cl/exe/qcprog.exe_s
PARALLEL:    -DPARALLEL
QCMPI:       mpich
#
# qchem directory setting
#
qcrun:       qchem1734883
QCSCRATCH:   .
QCLOCALSCR:  
QCTMPDIR:    .
QCFILEPREF:  ./qchem1734883
QCSAVEDIR:   
workdirs:    ./qchem1734883
workdir0:    ./qchem1734883
partmpdirs =  
#
# parallel setting
#
QCRSH:           ssh
QCMPI:           mpich
QCMPIRUN:        /cm/shared/apps/spack/cpu/opt/spack/linux-centos8-zen2/gcc-10.2.0/qchem-5.4-akfmr7b3t57bfs6qan3padb2wnb2i7cl/bin/mpi/mpirun_qchem
QCMACHINEFILE:   ./qchem1734883/hostfile
exp-6-14

#
# env setting
#
exported envs:   QC QCAUX QCSCRATCH QCRUNNAME QCFILEPREF QCPROG QCPROG_S GUIFILE

Running Job 1 of 1 Dimethoxy_Benzodithiophene_Phi_0_Theta_310_Methylcarbonyl_3_Fluoro_Thienothiophene.qcin
qchem Dimethoxy_Benzodithiophene_Phi_0_Theta_310_Methylcarbonyl_3_Fluoro_Thienothiophene.qcin_1734883.0 ./qchem1734883/ 1
/cm/shared/apps/spack/cpu/opt/spack/linux-centos8-zen2/gcc-10.2.0/qchem-5.4-akfmr7b3t57bfs6qan3padb2wnb2i7cl/bin/mpi/mpirun_qchem -machinefile ./qchem1734883/hostfile -np 1 /cm/shared/apps/spack/cpu/opt/spack/linux-centos8-zen2/gcc-10.2.0/qchem-5.4-akfmr7b3t57bfs6qan3padb2wnb2i7cl/exe/qcprog.exe Dimethoxy_Benzodithiophene_Phi_0_Theta_310_Methylcarbonyl_3_Fluoro_Thienothiophene.qcin_1734883.0 ./qchem1734883/

Process 0 of 1 is on exp-6-14 - thread support 0
initial socket setup ...start
initial socket setup ...done 
now start server 0 ... 
                  Welcome to Q-Chem
     A Quantum Leap Into The Future Of Chemistry


 Q-Chem 5.4, Q-Chem, Inc., Pleasanton, CA (2021)

 License issued to: University of California, San Diego (site)

 E. Epifanovsky,  A. T. B. Gilbert,  Xintian Feng,  Joonho Lee,  Yuezhi Mao,  
 N. Mardirossian,  P. Pokhilko,  A. White,  M. Wormit,  M. P. Coons,  
 A. L. Dempwolff,  Zhengting Gan,  D. Hait,  P. R. Horn,  L. D. Jacobson,  
 I. Kaliman,  J. Kussmann,  A. W. Lange,  Ka Un Lao,  D. S. Levine,  Jie Liu,  
 S. C. McKenzie,  A. F. Morrison,  K. Nanda,  F. Plasser,  D. R. Rehn,  
 M. L. Vidal,  Zhi-Qiang You,  Ying Zhu,  B. Alam,  B. Albrecht,  
 A. Aldossary,  E. Alguire,  J. H. Andersen,  D. Barton,  K. Begam,  A. Behn,  
 Y. A. Bernard,  E. J. Berquist,  H. Burton,  A. Carreras,  K. Carter-Fenk,  
 R. Chakraborty,  A. D. Chien,  K. D. Closser,  V. Cofer-Shabica,  
 S. Dasgupta,  Jia Deng,  M. de Wergifosse,  M. Diedenhofen,  Hainam Do,  
 S. Ehlert,  Po-Tung Fang,  S. Fatehi,  Qingguo Feng,  J. Gayvert,  
 Qinghui Ge,  G. Gidofalvi,  M. Goldey,  J. Gomes,  C. Gonzalez-Espinoza,  
 S. Gulania,  A. Gunina,  M. W. D. Hanson-Heine,  P. H. P. Harbach,  
 A. W. Hauser,  M. F. Herbst,  M. Hernandez Vera,  M. Hodecker,  
 Z. C. Holden,  S. Houck,  Xunkun Huang,  Kerwin Hui,  B. C. Huynh,  
 M. Ivanov,  Hyunjun Ji,  Hanjie Jiang,  B. Kaduk,  S. Kaehler,  
 K. Khistyaev,  Jaehoon Kim,  P. Klunzinger,  Z. Koczor-Benda,  
 Joong Hoon Koh,  D. Kosenkov,  L. Koulias,  T. Kowalczyk,  C. M. Krauter,  
 K. Kue,  A. Kunitsa,  T. Kus,  A. Landau,  K. V. Lawler,  D. Lefrancois,  
 S. Lehtola,  Rain Li,  Yi-Pei Li,  Jiashu Liang,  M. Liebenthal,  
 Hung-Hsuan Lin,  You-Sheng Lin,  Fenglai Liu,  Kuan-Yu Liu,  
 M. Loipersberger,  A. Luenser,  A. Manjanath,  P. Manohar,  E. Mansoor,  
 S. F. Manzer,  Shan-Ping Mao,  A. V. Marenich,  T. Markovich,  S. Mason,  
 S. A. Maurer,  P. F. McLaughlin,  M. F. S. J. Menger,  J.-M. Mewes,  
 S. A. Mewes,  P. Morgante,  J. W. Mullinax,  T. S. Nguyen-Beck,  
 K. J. Oosterbaan,  G. Paran,  Alexander C. Paul,  Suranjan K. Paul,  
 F. Pavosevic,  Zheng Pei,  S. Prager,  E. I. Proynov,  E. Ramos,  B. Rana,  
 A. E. Rask,  A. Rettig,  R. M. Richard,  F. Rob,  E. Rossomme,  T. Scheele,  
 M. Scheurer,  M. Schneider,  N. Sergueev,  S. M. Sharada,  W. Skomorowski,  
 D. W. Small,  C. J. Stein,  Yu-Chuan Su,  E. J. Sundstrom,  Zhen Tao,  
 J. Thirman,  T. Tsuchimochi,  N. M. Tubman,  S. P. Veccham,  O. Vydrov,  
 J. Wenzel,  J. Witte,  A. Yamada,  Kun Yao,  S. Yeganeh,  S. R. Yost,  
 A. Zech,  Igor Ying Zhang,  Xing Zhang,  Yu Zhang,  D. Zuev,  
 A. Aspuru-Guzik,  A. T. Bell,  N. A. Besley,  K. B. Bravaya,  B. R. Brooks,  
 D. Casanova,  Jeng-Da Chai,  S. Coriani,  C. J. Cramer,  
 A. E. DePrince, III,  R. A. DiStasio Jr.,  A. Dreuw,  B. D. Dunietz,  
 T. R. Furlani,  W. A. Goddard III,  S. Grimme,  S. Hammes-Schiffer,  
 T. Head-Gordon,  W. J. Hehre,  Chao-Ping Hsu,  T.-C. Jagau,  Yousung Jung,  
 A. Klamt,  Jing Kong,  D. S. Lambrecht,  WanZhen Liang,  N. J. Mayhall,  
 C. W. McCurdy,  J. B. Neaton,  C. Ochsenfeld,  J. A. Parkhill,  R. Peverati,  
 V. A. Rassolov,  Yihan Shao,  L. V. Slipchenko,  T. Stauch,  R. P. Steele,  
 J. E. Subotnik,  A. J. W. Thom,  A. Tkatchenko,  D. G. Truhlar,  
 T. Van Voorhis,  T. A. Wesolowski,  K. B. Whaley,  H. L. Woodcock III,  
 P. M. Zimmerman,  S. Faraji,  P. M. W. Gill,  M. Head-Gordon,  
 J. M. Herbert,  A. I. Krylov

 Contributors to earlier versions of Q-Chem not listed above: 
 R. D. Adamson,  B. Austin,  R. Baer,  J. Baker,  G. J. O. Beran,  
 K. Brandhorst,  S. T. Brown,  E. F. C. Byrd,  A. K. Chakraborty,  
 G. K. L. Chan,  Chun-Min Chang,  Yunqing Chen,  C.-L. Cheng,  
 Siu Hung Chien,  D. M. Chipman,  D. L. Crittenden,  H. Dachsel,  
 R. J. Doerksen,  A. D. Dutoi,  R. G. Edgar,  J. Fosso-Tande,  
 L. Fusti-Molnar,  D. Ghosh,  A. Ghysels,  A. Golubeva-Zadorozhnaya,  
 J. Gonthier,  M. S. Gordon,  S. R. Gwaltney,  G. Hawkins,  J. E. Herr,  
 A. Heyden,  S. Hirata,  E. G. Hohenstein,  G. Kedziora,  F. J. Keil,  
 C. Kelley,  Jihan Kim,  R. A. King,  R. Z. Khaliullin,  P. P. Korambath,  
 W. Kurlancheek,  A. Laurent,  A. M. Lee,  M. S. Lee,  S. V. Levchenko,  
 Ching Yeh Lin,  D. Liotard,  E. Livshits,  R. C. Lochan,  I. Lotan,  
 L. A. Martinez-Martinez,  P. E. Maslen,  N. Nair,  D. P. O'Neill,  
 D. Neuhauser,  E. Neuscamman,  C. M. Oana,  R. Olivares-Amaya,  R. Olson,  
 T. M. Perrine,  B. Peters,  P. A. Pieniazek,  A. Prociuk,  Y. M. Rhee,  
 J. Ritchie,  M. A. Rohrdanz,  E. Rosta,  N. J. Russ,  H. F. Schaefer III,  
 M. W. Schmidt,  N. E. Schultz,  S. Sharma,  N. Shenvi,  C. D. Sherrill,  
 A. C. Simmonett,  A. Sodt,  T. Stein,  D. Stuck,  K. S. Thanthiriwatte,  
 V. Vanovschi,  L. Vogt,  Tao Wang,  A. Warshel,  M. A. Watson,  
 C. F. Williams,  Q. Wu,  X. Xu,  Jun Yang,  W. Zhang,  Yan Zhao

 Please cite Q-Chem as follows:
 Y. Shao et al., Mol. Phys. 113, 184-215 (2015)
 DOI: 10.1080/00268976.2014.952696

 Q-Chem 5.4.0 for Intel X86 EM64T Linux

 Parts of Q-Chem use Armadillo 9.800.1 (Horizon Scraper).
 http://arma.sourceforge.net/

 Q-Chem begins on Tue Jan  9 02:17:37 2024  

 Host: 
0

     Scratch files written to ./qchem1734883//
 May1621 |scratch|qcdevops|jenkins|workspace|build_RNUM    
 Parallel job on  1  processors
 Processing $rem in /cm/shared/apps/spack/cpu/opt/spack/linux-centos8-zen2/gcc-10.2.0/qchem-5.4-akfmr7b3t57bfs6qan3padb2wnb2i7cl/config/preferences:
 Processing $rem in /home/rramji/.qchemrc:
 Symmetry turned off for PCM/SM12/SMD calculation
 Core orbitals will be frozen

 Checking the input file for inconsistencies... 	...done.

 Q-Chem warning in module forms1/BasisType.C, line 2236:

 You are not using the predefined 5D/6D in this basis set.


--------------------------------------------------------------
User input:
--------------------------------------------------------------
$molecule
0 1
C	0.217225	-8.517702	0.236226
C	-0.611939	-7.641575	-0.448921
S	1.413715	-7.638634	1.218777
C	-0.323572	-6.264785	-0.206907
H	-1.418739	-7.966081	-1.118185
C	0.768156	-6.072714	0.711285
C	1.215016	-4.787049	1.053725
C	-0.999917	-5.162801	-0.804258
C	-0.550033	-3.874817	-0.464908
C	0.541024	-3.683952	0.456457
O	-2.028811	-5.499772	-1.630752
O	2.249357	-4.459055	1.883064
C	2.586579	-5.329063	2.956754
H	3.262802	-4.755694	3.619069
H	3.124711	-6.238095	2.609423
H	1.686639	-5.637262	3.531667
C	-2.503251	-4.572261	-2.599073
H	-3.185356	-5.139743	-3.260097
H	-1.672937	-4.153131	-3.207034
H	-3.075213	-3.739531	-2.135214
C	0.828107	-2.306654	0.694410
S	-1.188794	-2.306501	-0.983256
C	0.000000	-1.435185	0.000000
H	1.632185	-1.978138	1.364851
H	0.221288	-9.614033	0.234980
C	0.000000	0.000000	0.000000
S	0.000474	0.904764	1.507541
C	-0.000295	2.477305	0.718873
C	0.000752	0.904447	-1.067872
C	-0.001560	2.294593	-0.686410
S	0.003602	0.660872	-2.805516
C	-0.001928	2.412546	-3.054530
C	-0.004381	3.120854	-1.862551
F	-0.009185	4.457503	-1.819088
C	-0.000038	2.860570	-4.456084
O	0.007944	2.090724	-5.406510
O	-0.007501	4.211092	-4.569225
C	-0.002278	4.706177	-5.916207
H	-0.009265	5.807207	-5.833064
H	-0.895381	4.352875	-6.470168
H	0.901521	4.363301	-6.459293
H	-0.001708	3.401562	1.306486
$end

$rem
JOBTYPE		SP
EXCHANGE	HF
CORRELATION	pRIMP2
BASIS		cc-pvtz
METHOD		rimp2
AUX_BASIS	rimp2-cc-pvtz
SOLVENT_METHOD	PCM
PURECART	11111
SYMMETRY	false
MEM_TOTAL	110000
SCF_CONVERGENCE = 6
THRESH=10
GUI = 2
$end



$solvent
dielectric 4.90
$end
--------------------------------------------------------------
 ----------------------------------------------------------------
             Standard Nuclear Orientation (Angstroms)
    I     Atom           X                Y                Z
 ----------------------------------------------------------------
    1      C       0.2172250000    -8.5177020000     0.2362260000
    2      C      -0.6119390000    -7.6415750000    -0.4489210000
    3      S       1.4137150000    -7.6386340000     1.2187770000
    4      C      -0.3235720000    -6.2647850000    -0.2069070000
    5      H      -1.4187390000    -7.9660810000    -1.1181850000
    6      C       0.7681560000    -6.0727140000     0.7112850000
    7      C       1.2150160000    -4.7870490000     1.0537250000
    8      C      -0.9999170000    -5.1628010000    -0.8042580000
    9      C      -0.5500330000    -3.8748170000    -0.4649080000
   10      C       0.5410240000    -3.6839520000     0.4564570000
   11      O      -2.0288110000    -5.4997720000    -1.6307520000
   12      O       2.2493570000    -4.4590550000     1.8830640000
   13      C       2.5865790000    -5.3290630000     2.9567540000
   14      H       3.2628020000    -4.7556940000     3.6190690000
   15      H       3.1247110000    -6.2380950000     2.6094230000
   16      H       1.6866390000    -5.6372620000     3.5316670000
   17      C      -2.5032510000    -4.5722610000    -2.5990730000
   18      H      -3.1853560000    -5.1397430000    -3.2600970000
   19      H      -1.6729370000    -4.1531310000    -3.2070340000
   20      H      -3.0752130000    -3.7395310000    -2.1352140000
   21      C       0.8281070000    -2.3066540000     0.6944100000
   22      S      -1.1887940000    -2.3065010000    -0.9832560000
   23      C       0.0000000000    -1.4351850000     0.0000000000
   24      H       1.6321850000    -1.9781380000     1.3648510000
   25      H       0.2212880000    -9.6140330000     0.2349800000
   26      C       0.0000000000     0.0000000000     0.0000000000
   27      S       0.0004740000     0.9047640000     1.5075410000
   28      C      -0.0002950000     2.4773050000     0.7188730000
   29      C       0.0007520000     0.9044470000    -1.0678720000
   30      C      -0.0015600000     2.2945930000    -0.6864100000
   31      S       0.0036020000     0.6608720000    -2.8055160000
   32      C      -0.0019280000     2.4125460000    -3.0545300000
   33      C      -0.0043810000     3.1208540000    -1.8625510000
   34      F      -0.0091850000     4.4575030000    -1.8190880000
   35      C      -0.0000380000     2.8605700000    -4.4560840000
   36      O       0.0079440000     2.0907240000    -5.4065100000
   37      O      -0.0075010000     4.2110920000    -4.5692250000
   38      C      -0.0022780000     4.7061770000    -5.9162070000
   39      H      -0.0092650000     5.8072070000    -5.8330640000
   40      H      -0.8953810000     4.3528750000    -6.4701680000
   41      H       0.9015210000     4.3633010000    -6.4592930000
   42      H      -0.0017080000     3.4015620000     1.3064860000
 ----------------------------------------------------------------
 Nuclear Repulsion Energy =        3277.30125030 hartrees
 There are      119 alpha and      119 beta electrons
 Requested basis set is cc-pVTZ
 There are 376 shells and 1068 basis functions

 Total QAlloc Memory Limit 110000 MB
 Mega-Array Size       188 MB
 MEM_STATIC part       192 MB
 Discretize the solute cavity surface with Lebedev spheres
	Using 110 Lebedev grid points for each H atom
	Using 194 Lebedev grid points for other atoms
	Atomic van der Waals radii will be scaled by 1.20
 Remove points where switching function is < 1.0e-08
 Keep 2895 surface tesserae and discard 4161 interior tesserae
 Molecular Surface Area = 441.328 Angst**2
 Requested basis set is rimp2-cc-pVTZ
 There are 833 shells and 2903 basis functions
 A cutoff of  1.0D-10 yielded  30728 shell pairs
 There are    236432 function pairs (    307192 Cartesian)
 Smallest overlap matrix eigenvalue = 2.22E-05

 Scale SEOQF with 1.000000e-01/1.000000e-02/1.000000e-02

 Standard Electronic Orientation quadrupole field applied
 Nucleus-field energy     =     0.0000000281 hartrees
 Guess from superposition of atomic densities
 Warning:  Energy on first SCF cycle will be non-variational
 SAD guess density has 238.000000 electrons

 -----------------------------------------------------------------------
  General SCF calculation program by
  Eric Jon Sundstrom, Paul Horn, Yuezhi Mao, Dmitri Zuev, Alec White,
  David Stuck, Shaama M.S., Shane Yost, Joonho Lee, David Small,
  Daniel Levine, Susi Lehtola, Hugh Burton, Evgeny Epifanovsky,
  Bang C. Huynh
 -----------------------------------------------------------------------
 Hartree-Fock
 using 64 threads for integral computing
 -------------------------------------------------------
 OpenMP Integral computing Module                
 Release: version 1.0, May 2013, Q-Chem Inc. Pittsburgh 
 -------------------------------------------------------
 A restricted SCF calculation will be
 performed using DIIS
 SCF converges when DIIS error is below 1.0e-06
 ---------------------------------------
  Cycle       Energy         DIIS error
 ---------------------------------------
    1   -2765.2076905386      1.75e-02  
    2   -2753.8841529825      1.56e-03  
    3   -2754.2221905037      8.60e-04  
    4   -2754.3032455409      2.56e-04  
    5   -2754.3148865498      6.94e-05  
    6   -2754.3159772090      2.37e-05  
    7   -2754.3162178622      1.15e-05  
    8   -2754.3162974963      4.32e-06  
    9   -2754.3163126614      1.70e-06  
   10   -2754.3163145032      7.13e-07  Convergence criterion met
 ---------------------------------------
 SCF time:   CPU 6287.47s  wall 247.00s 

************** Final PCM Free Energy Summary **************
 G_electrostatic  =      -0.01854644 hartree =     -11.63806634 kcal/mol
 G_cavitation     =       0.00000000 hartree =       0.00000000 kcal/mol
 G_dispersion     =       0.00000000 hartree =       0.00000000 kcal/mol
 G_repulsion      =       0.00000000 hartree =       0.00000000 kcal/mol
 --------------------------------------------------
 Non-electrostatic Free Energy =       0.00000000 hartree =       0.00000000 kcal/mol
 Total                         =      -0.01854644 hartree =     -11.63806634 kcal/mol
 --------------------------------------------------
 SCF Energy (H0 + V/2)                       =   -2754.31631450 
 Solute Internal Energy (H0)                 =   -2754.29776806 
 Total Free Energy (H0 + V/2 + non-elec)     =   -2754.31631450 hartree
                                             = -1728359.57348056 kcal/mol
***********************************************************

 SCF   energy in the final basis set =    -2754.3163145032
 Total energy in the final basis set =    -2754.3163145032


 --------------------------------------------------------------
  Generalized many-body perturbation theory program
  by Joonho Lee, Fazle Rob, Xintian Feng, Evgeny Epifanovsky

 No regularization used 
 (reg. param. = 0.0000e+00)
  (P|Q)^-1/2 Time:  CPU 305.92 s  wall 5.53 s

 In RI-MP2 calculation: 
 # of frozen core orbitals: 45

 Components of the RIMP2 correlation energy:
        aaaa    correlation energy =        -0.6694287013 a.u.
        abab    correlation energy =        -3.7117745111 a.u.
        bbbb    correlation energy =        -0.6694287013 a.u.
        non-Brillouin singles      =        -0.0000000000 a.u.
        total same-spin energy     =        -1.3388574026 a.u.
        total opposite-spin energy =        -3.7117745111 a.u.

 Total  RIMP2   correlation energy =        -5.0506319138 a.u.
        RIMP2         total energy =     -2759.3669464169 a.u.

 RI-MP2 Energy Time:  CPU 6368.09 s  wall 108.72 s
 
 --------------------------------------------------------------
 
                    Orbital Energies (a.u.)
 --------------------------------------------------------------
 
 Alpha MOs
 -- Occupied --
-92.0155 -91.9970 -91.9903 -91.9866 -26.3426 -20.6144 -20.5924 -20.5919
-20.5608 -11.4089 -11.3815 -11.3196 -11.3183 -11.3081 -11.3000 -11.2988
-11.2967 -11.2947 -11.2886 -11.2867 -11.2866 -11.2865 -11.2843 -11.2843
-11.2800 -11.2614 -11.2593 -11.2575 -11.2502  -9.0138  -8.9970  -8.9907
 -8.9865  -6.6945  -6.6939  -6.6934  -6.6780  -6.6773  -6.6761  -6.6716
 -6.6710  -6.6700  -6.6675  -6.6669  -6.6660  -1.6597  -1.4668  -1.4165
 -1.4146  -1.3695  -1.2205  -1.1948  -1.1658  -1.1353  -1.0852  -1.0523
 -1.0408  -1.0225  -1.0021  -0.9881  -0.9632  -0.9591  -0.9502  -0.9395
 -0.8960  -0.8670  -0.8518  -0.8124  -0.7916  -0.7879  -0.7870  -0.7653
 -0.7550  -0.7342  -0.7246  -0.7095  -0.6995  -0.6850  -0.6836  -0.6807
 -0.6735  -0.6593  -0.6574  -0.6528  -0.6307  -0.6202  -0.6170  -0.6041
 -0.5970  -0.5852  -0.5774  -0.5695  -0.5671  -0.5620  -0.5560  -0.5520
 -0.5316  -0.5300  -0.5230  -0.5173  -0.5161  -0.5095  -0.5053  -0.4946
 -0.4891  -0.4779  -0.4773  -0.4732  -0.4708  -0.4658  -0.4608  -0.4144
 -0.3972  -0.3860  -0.3582  -0.3491  -0.3224  -0.2917  -0.2555
 -- Virtual --
  0.0323   0.0589   0.1118   0.1242   0.1368   0.1485   0.1520   0.1540
  0.1564   0.1576   0.1619   0.1770   0.1810   0.1829   0.1862   0.1930
  0.2023   0.2028   0.2140   0.2153   0.2188   0.2220   0.2262   0.2286
  0.2342   0.2381   0.2443   0.2504   0.2571   0.2634   0.2711   0.2777
  0.2876   0.3067   0.3269   0.3280   0.3364   0.3425   0.3456   0.3478
  0.3514   0.3531   0.3736   0.3791   0.3845   0.3856   0.3866   0.3873
  0.3896   0.3979   0.4023   0.4070   0.4089   0.4154   0.4213   0.4249
  0.4268   0.4323   0.4366   0.4444   0.4484   0.4491   0.4571   0.4597
  0.4625   0.4648   0.4698   0.4738   0.4757   0.4815   0.4866   0.4888
  0.4938   0.5023   0.5046   0.5065   0.5110   0.5147   0.5170   0.5243
  0.5261   0.5295   0.5348   0.5374   0.5407   0.5431   0.5446   0.5478
  0.5530   0.5547   0.5584   0.5606   0.5641   0.5697   0.5764   0.5788
  0.5836   0.5881   0.5919   0.5960   0.5980   0.6052   0.6065   0.6115
  0.6151   0.6178   0.6222   0.6225   0.6245   0.6260   0.6281   0.6328
  0.6389   0.6426   0.6469   0.6499   0.6528   0.6612   0.6634   0.6663
  0.6677   0.6779   0.6870   0.6908   0.6921   0.6956   0.7012   0.7070
  0.7120   0.7143   0.7177   0.7223   0.7269   0.7313   0.7418   0.7521
  0.7552   0.7592   0.7654   0.7677   0.7741   0.7832   0.8012   0.8041
  0.8064   0.8087   0.8149   0.8200   0.8251   0.8276   0.8370   0.8387
  0.8475   0.8537   0.8591   0.8658   0.8691   0.8751   0.8789   0.8864
  0.8952   0.8977   0.9032   0.9093   0.9096   0.9126   0.9174   0.9178
  0.9291   0.9328   0.9402   0.9434   0.9482   0.9589   0.9630   0.9650
  0.9728   0.9768   0.9791   0.9842   0.9913   0.9950   0.9959   1.0009
  1.0040   1.0132   1.0198   1.0221   1.0296   1.0342   1.0387   1.0414
  1.0491   1.0535   1.0581   1.0617   1.0649   1.0717   1.0751   1.0800
  1.0817   1.0869   1.0921   1.0944   1.1022   1.1057   1.1095   1.1099
  1.1129   1.1168   1.1242   1.1288   1.1381   1.1455   1.1528   1.1565
  1.1653   1.1660   1.1728   1.1804   1.1826   1.1906   1.1913   1.2003
  1.2032   1.2079   1.2136   1.2173   1.2185   1.2218   1.2259   1.2298
  1.2346   1.2389   1.2435   1.2466   1.2545   1.2645   1.2652   1.2732
  1.2750   1.2830   1.2869   1.2902   1.2985   1.3066   1.3105   1.3129
  1.3236   1.3271   1.3360   1.3451   1.3495   1.3580   1.3619   1.3694
  1.3782   1.3844   1.3894   1.3988   1.4081   1.4141   1.4196   1.4262
  1.4287   1.4350   1.4462   1.4625   1.4716   1.4764   1.4831   1.4903
  1.5001   1.5028   1.5052   1.5071   1.5134   1.5155   1.5218   1.5301
  1.5305   1.5382   1.5399   1.5434   1.5466   1.5521   1.5544   1.5646
  1.5716   1.5766   1.5841   1.5973   1.6012   1.6174   1.6247   1.6303
  1.6443   1.6451   1.6503   1.6607   1.6643   1.6664   1.6757   1.6780
  1.6877   1.6906   1.7012   1.7122   1.7148   1.7281   1.7302   1.7548
  1.7588   1.7753   1.7775   1.7880   1.7923   1.7997   1.8112   1.8184
  1.8193   1.8254   1.8300   1.8460   1.8549   1.8623   1.8700   1.8735
  1.8860   1.8889   1.8975   1.9037   1.9085   1.9224   1.9291   1.9301
  1.9386   1.9506   1.9562   1.9640   1.9707   1.9715   1.9814   1.9902
  1.9952   2.0023   2.0053   2.0114   2.0190   2.0284   2.0444   2.0536
  2.0631   2.0785   2.0890   2.0966   2.1055   2.1156   2.1200   2.1422
  2.1506   2.1599   2.1616   2.1676   2.1753   2.1851   2.1943   2.1961
  2.1989   2.2000   2.2084   2.2169   2.2235   2.2359   2.2372   2.2394
  2.2483   2.2574   2.2602   2.2650   2.2730   2.2788   2.2845   2.3003
  2.3066   2.3126   2.3183   2.3337   2.3351   2.3415   2.3516   2.3556
  2.3700   2.3735   2.3757   2.3918   2.3927   2.4032   2.4141   2.4249
  2.4297   2.4319   2.4431   2.4559   2.4641   2.4674   2.4769   2.4872
  2.4975   2.5014   2.5044   2.5251   2.5318   2.5465   2.5556   2.5609
  2.5638   2.5775   2.5808   2.5954   2.6090   2.6115   2.6172   2.6260
  2.6288   2.6313   2.6345   2.6395   2.6439   2.6526   2.6605   2.6728
  2.6806   2.6831   2.6914   2.6948   2.6985   2.7050   2.7071   2.7113
  2.7178   2.7274   2.7305   2.7349   2.7436   2.7569   2.7579   2.7668
  2.7751   2.7800   2.7882   2.7930   2.8019   2.8066   2.8136   2.8205
  2.8272   2.8334   2.8381   2.8425   2.8473   2.8505   2.8598   2.8734
  2.8774   2.8848   2.8862   2.8956   2.8967   2.9071   2.9243   2.9286
  2.9311   2.9470   2.9554   2.9673   2.9682   2.9757   2.9863   2.9877
  2.9940   3.0062   3.0145   3.0184   3.0236   3.0303   3.0355   3.0415
  3.0489   3.0520   3.0606   3.0720   3.0788   3.0892   3.0952   3.0995
  3.1015   3.1065   3.1101   3.1200   3.1219   3.1289   3.1334   3.1426
  3.1464   3.1534   3.1576   3.1615   3.1652   3.1658   3.1752   3.1842
  3.1852   3.1912   3.2021   3.2103   3.2166   3.2190   3.2226   3.2281
  3.2334   3.2395   3.2442   3.2483   3.2518   3.2603   3.2662   3.2694
  3.2723   3.2780   3.2793   3.2886   3.2901   3.2949   3.2996   3.3050
  3.3107   3.3160   3.3251   3.3258   3.3297   3.3337   3.3394   3.3443
  3.3509   3.3545   3.3592   3.3634   3.3669   3.3682   3.3727   3.3808
  3.3831   3.3861   3.3942   3.3986   3.4021   3.4060   3.4064   3.4128
  3.4200   3.4287   3.4347   3.4363   3.4376   3.4407   3.4464   3.4515
  3.4597   3.4622   3.4631   3.4700   3.4730   3.4765   3.4826   3.4866
  3.4883   3.5042   3.5100   3.5125   3.5145   3.5229   3.5289   3.5306
  3.5347   3.5447   3.5500   3.5562   3.5620   3.5647   3.5744   3.5781
  3.5812   3.5841   3.5881   3.5959   3.5982   3.6018   3.6055   3.6128
  3.6163   3.6218   3.6307   3.6320   3.6384   3.6456   3.6540   3.6551
  3.6612   3.6659   3.6774   3.6827   3.6864   3.6891   3.6971   3.6989
  3.7008   3.7057   3.7075   3.7116   3.7236   3.7329   3.7343   3.7373
  3.7494   3.7513   3.7553   3.7633   3.7694   3.7714   3.7868   3.7875
  3.7929   3.7951   3.7975   3.8054   3.8078   3.8109   3.8162   3.8210
  3.8239   3.8352   3.8427   3.8488   3.8558   3.8664   3.8698   3.8720
  3.8752   3.8856   3.8937   3.8960   3.9016   3.9085   3.9142   3.9234
  3.9266   3.9321   3.9428   3.9501   3.9563   3.9639   3.9716   3.9748
  3.9892   3.9983   4.0032   4.0084   4.0139   4.0160   4.0247   4.0276
  4.0521   4.0600   4.0639   4.0682   4.0740   4.0771   4.0858   4.0938
  4.0995   4.1180   4.1245   4.1292   4.1357   4.1433   4.1464   4.1533
  4.1619   4.1648   4.1674   4.1731   4.1761   4.1875   4.1900   4.1980
  4.2064   4.2115   4.2198   4.2357   4.2435   4.2554   4.2593   4.2661
  4.2801   4.2822   4.2914   4.3118   4.3232   4.3256   4.3304   4.3421
  4.3526   4.3588   4.3622   4.3652   4.3740   4.3792   4.3859   4.3940
  4.4056   4.4094   4.4127   4.4238   4.4298   4.4318   4.4423   4.4502
  4.4550   4.4667   4.4806   4.4878   4.5004   4.5073   4.5184   4.5250
  4.5320   4.5360   4.5486   4.5562   4.5578   4.5714   4.5734   4.5825
  4.5893   4.6028   4.6075   4.6228   4.6314   4.6403   4.6502   4.6518
  4.6545   4.6704   4.6758   4.6815   4.6972   4.7188   4.7330   4.7377
  4.7433   4.7660   4.7703   4.7739   4.7801   4.7878   4.8159   4.8199
  4.8268   4.8356   4.8454   4.8579   4.8623   4.8895   4.9123   4.9214
  4.9308   4.9438   4.9507   4.9546   4.9648   4.9722   4.9846   4.9950
  5.0061   5.0092   5.0116   5.0141   5.0396   5.0469   5.0665   5.0730
  5.0808   5.1009   5.1215   5.1262   5.1619   5.1658   5.1787   5.1989
  5.2083   5.2234   5.2480   5.2503   5.2530   5.2586   5.2642   5.2789
  5.2932   5.3081   5.3126   5.3293   5.3389   5.3468   5.3519   5.3656
  5.3763   5.3965   5.3992   5.4121   5.4265   5.4359   5.4487   5.4634
  5.4813   5.4852   5.5068   5.5076   5.5178   5.5280   5.5454   5.5573
  5.5767   5.5816   5.5851   5.6056   5.6221   5.6242   5.6409   5.6662
  5.7181   5.7297   5.7616   5.7867   5.8079   5.8151   5.8494   5.8559
  5.8727   5.8818   5.9141   5.9296   5.9484   5.9797   5.9933   6.0426
  6.0675   6.0704   6.0948   6.1508   6.1703   6.1713   6.1774   6.1954
  6.2386   6.2525   6.2618   6.2702   6.2821   6.2881   6.3065   6.3335
  6.4199   6.4427   6.4506   6.4758   6.5387   6.5479   6.5558   6.6038
  6.6527   6.6616   6.6716   6.6959   6.7464   6.7997   6.8303   6.8404
  6.8600   6.8917   6.9786   7.1190   7.1379   7.2044   7.2075   7.2157
  7.2333   7.3103   7.3187   7.3318   7.3638   7.3642   7.4069   7.4137
  7.4793   7.4862   7.4887   7.5252   7.5518   7.6163   7.7173   7.7736
  7.7894   7.7960   7.8966   7.9165   7.9438   7.9610   8.1175   8.1356
  8.4935   8.9225   9.0182   9.3635   9.4715   9.6486  10.0981  10.6758
 11.1426  11.5129  11.7861  11.9129  12.1261  12.2020  12.4134  12.5829
 12.7203  12.9541  13.0651  13.2178  13.2829  13.3884  13.7766  13.8468
 13.9036  14.0176  14.0325  14.4346  15.1953
 --------------------------------------------------------------
 
          Ground-State Mulliken Net Atomic Charges

     Atom                 Charge (a.u.)
  ----------------------------------------
      1 C                    -0.188256
      2 C                    -0.253697
      3 S                    -0.022150
      4 C                    -0.014531
      5 H                     0.196585
      6 C                    -0.027402
      7 C                     0.242520
      8 C                     0.240516
      9 C                    -0.043788
     10 C                    -0.026151
     11 O                    -0.333265
     12 O                    -0.340186
     13 C                    -0.085873
     14 H                     0.122596
     15 H                     0.091324
     16 H                     0.093957
     17 C                    -0.087751
     18 H                     0.124947
     19 H                     0.095942
     20 H                     0.089923
     21 C                    -0.243621
     22 S                    -0.006769
     23 C                    -0.021055
     24 H                     0.198040
     25 H                     0.206499
     26 C                     0.000482
     27 S                     0.103491
     28 C                    -0.189228
     29 C                    -0.006921
     30 C                    -0.111081
     31 S                     0.007777
     32 C                    -0.153218
     33 C                     0.394548
     34 F                    -0.207218
     35 C                     0.444370
     36 O                    -0.461097
     37 O                    -0.300552
     38 C                    -0.058668
     39 H                     0.121296
     40 H                     0.094984
     41 H                     0.095055
     42 H                     0.217624
  ----------------------------------------
  Sum of atomic charges =     0.000000

 -----------------------------------------------------------------
                    Cartesian Multipole Moments
 -----------------------------------------------------------------
    Charge (ESU x 10^10)
                -0.0000
    Dipole Moment (Debye)
         X      -0.2690      Y       0.8580      Z       3.1429
       Tot       3.2690
    Quadrupole Moments (Debye-Ang)
        XX    -193.1912     XY       0.7971     YY    -159.2685
        XZ      12.2628     YZ      -8.5319     ZZ    -190.3108
    Octopole Moments (Debye-Ang^2)
       XXX     -36.8391    XXY     336.2952    XYY      -8.7665
       YYY     843.1008    XXZ     160.5870    XYZ     -60.6804
       YYZ     107.6207    XZZ      -7.3697    YZZ     393.7280
       ZZZ     521.0949
    Hexadecapole Moments (Debye-Ang^3)
      XXXX   -1498.6317   XXXY     392.9987   XXYY   -3986.3421
      XYYY     342.7553   YYYY  -19228.4521   XXXZ    -524.3625
      XXYZ     661.0822   XYYZ     120.3289   YYYZ    1588.4848
      XXZZ   -1228.6393   XYZZ     100.0434   YYZZ   -4021.9305
      XZZZ    -488.7357   YZZZ    1434.3010   ZZZZ   -6488.7778
 -----------------------------------------------------------------
 Total job time:  361.66s(wall), 12898.23s(cpu) 
 Tue Jan  9 02:23:39 2024

        *************************************************************
        *                                                           *
        *  Thank you very much for using Q-Chem.  Have a nice day.  *
        *                                                           *
        *************************************************************


0 sent ACK to 0 
now end server 0 ... 
cleanup process ... done
remove work dirs ./qchem1734883.0 -- ./qchem1734883.0
rm -rf ./qchem1734883.0
rm -rf ./qchem1734883
