You are running Q-Chem version: 5.4.0

#
# job setting
#
local host:  exp-3-46
current dir: /home/rramji/project-csd799/aromodel/ptb7fout-qchem/rotation-run
input file:  Dimethoxy_Benzodithiophene_Phi_60_Theta_350_Methylcarbonyl_3_Fluoro_Thienothiophene.qcin
output file: 
nprocs     : 1
nthreads   : 64
#
# qchem installation setting
#
QC:          /cm/shared/apps/spack/cpu/opt/spack/linux-centos8-zen2/gcc-10.2.0/qchem-5.4-akfmr7b3t57bfs6qan3padb2wnb2i7cl
QCAUX:       /cm/shared/apps/spack/cpu/opt/spack/linux-centos8-zen2/gcc-10.2.0/qchem-5.4-akfmr7b3t57bfs6qan3padb2wnb2i7cl/qcaux
QCPROG:      /cm/shared/apps/spack/cpu/opt/spack/linux-centos8-zen2/gcc-10.2.0/qchem-5.4-akfmr7b3t57bfs6qan3padb2wnb2i7cl/exe/qcprog.exe
QCPROG_S:    /cm/shared/apps/spack/cpu/opt/spack/linux-centos8-zen2/gcc-10.2.0/qchem-5.4-akfmr7b3t57bfs6qan3padb2wnb2i7cl/exe/qcprog.exe_s
PARALLEL:    -DPARALLEL
QCMPI:       mpich
#
# qchem directory setting
#
qcrun:       qchem1686296
QCSCRATCH:   .
QCLOCALSCR:  
QCTMPDIR:    .
QCFILEPREF:  ./qchem1686296
QCSAVEDIR:   
workdirs:    ./qchem1686296
workdir0:    ./qchem1686296
partmpdirs =  
#
# parallel setting
#
QCRSH:           ssh
QCMPI:           mpich
QCMPIRUN:        /cm/shared/apps/spack/cpu/opt/spack/linux-centos8-zen2/gcc-10.2.0/qchem-5.4-akfmr7b3t57bfs6qan3padb2wnb2i7cl/bin/mpi/mpirun_qchem
QCMACHINEFILE:   ./qchem1686296/hostfile
exp-3-46

#
# env setting
#
exported envs:   QC QCAUX QCSCRATCH QCRUNNAME QCFILEPREF QCPROG QCPROG_S GUIFILE

Running Job 1 of 1 Dimethoxy_Benzodithiophene_Phi_60_Theta_350_Methylcarbonyl_3_Fluoro_Thienothiophene.qcin
qchem Dimethoxy_Benzodithiophene_Phi_60_Theta_350_Methylcarbonyl_3_Fluoro_Thienothiophene.qcin_1686296.0 ./qchem1686296/ 1
/cm/shared/apps/spack/cpu/opt/spack/linux-centos8-zen2/gcc-10.2.0/qchem-5.4-akfmr7b3t57bfs6qan3padb2wnb2i7cl/bin/mpi/mpirun_qchem -machinefile ./qchem1686296/hostfile -np 1 /cm/shared/apps/spack/cpu/opt/spack/linux-centos8-zen2/gcc-10.2.0/qchem-5.4-akfmr7b3t57bfs6qan3padb2wnb2i7cl/exe/qcprog.exe Dimethoxy_Benzodithiophene_Phi_60_Theta_350_Methylcarbonyl_3_Fluoro_Thienothiophene.qcin_1686296.0 ./qchem1686296/

Process 0 of 1 is on exp-3-46 - thread support 0
initial socket setup ...start
initial socket setup ...done 
now start server 0 ... 
                  Welcome to Q-Chem
     A Quantum Leap Into The Future Of Chemistry


 Q-Chem 5.4, Q-Chem, Inc., Pleasanton, CA (2021)

 License issued to: University of California, San Diego (site)

 E. Epifanovsky,  A. T. B. Gilbert,  Xintian Feng,  Joonho Lee,  Yuezhi Mao,  
 N. Mardirossian,  P. Pokhilko,  A. White,  M. Wormit,  M. P. Coons,  
 A. L. Dempwolff,  Zhengting Gan,  D. Hait,  P. R. Horn,  L. D. Jacobson,  
 I. Kaliman,  J. Kussmann,  A. W. Lange,  Ka Un Lao,  D. S. Levine,  Jie Liu,  
 S. C. McKenzie,  A. F. Morrison,  K. Nanda,  F. Plasser,  D. R. Rehn,  
 M. L. Vidal,  Zhi-Qiang You,  Ying Zhu,  B. Alam,  B. Albrecht,  
 A. Aldossary,  E. Alguire,  J. H. Andersen,  D. Barton,  K. Begam,  A. Behn,  
 Y. A. Bernard,  E. J. Berquist,  H. Burton,  A. Carreras,  K. Carter-Fenk,  
 R. Chakraborty,  A. D. Chien,  K. D. Closser,  V. Cofer-Shabica,  
 S. Dasgupta,  Jia Deng,  M. de Wergifosse,  M. Diedenhofen,  Hainam Do,  
 S. Ehlert,  Po-Tung Fang,  S. Fatehi,  Qingguo Feng,  J. Gayvert,  
 Qinghui Ge,  G. Gidofalvi,  M. Goldey,  J. Gomes,  C. Gonzalez-Espinoza,  
 S. Gulania,  A. Gunina,  M. W. D. Hanson-Heine,  P. H. P. Harbach,  
 A. W. Hauser,  M. F. Herbst,  M. Hernandez Vera,  M. Hodecker,  
 Z. C. Holden,  S. Houck,  Xunkun Huang,  Kerwin Hui,  B. C. Huynh,  
 M. Ivanov,  Hyunjun Ji,  Hanjie Jiang,  B. Kaduk,  S. Kaehler,  
 K. Khistyaev,  Jaehoon Kim,  P. Klunzinger,  Z. Koczor-Benda,  
 Joong Hoon Koh,  D. Kosenkov,  L. Koulias,  T. Kowalczyk,  C. M. Krauter,  
 K. Kue,  A. Kunitsa,  T. Kus,  A. Landau,  K. V. Lawler,  D. Lefrancois,  
 S. Lehtola,  Rain Li,  Yi-Pei Li,  Jiashu Liang,  M. Liebenthal,  
 Hung-Hsuan Lin,  You-Sheng Lin,  Fenglai Liu,  Kuan-Yu Liu,  
 M. Loipersberger,  A. Luenser,  A. Manjanath,  P. Manohar,  E. Mansoor,  
 S. F. Manzer,  Shan-Ping Mao,  A. V. Marenich,  T. Markovich,  S. Mason,  
 S. A. Maurer,  P. F. McLaughlin,  M. F. S. J. Menger,  J.-M. Mewes,  
 S. A. Mewes,  P. Morgante,  J. W. Mullinax,  T. S. Nguyen-Beck,  
 K. J. Oosterbaan,  G. Paran,  Alexander C. Paul,  Suranjan K. Paul,  
 F. Pavosevic,  Zheng Pei,  S. Prager,  E. I. Proynov,  E. Ramos,  B. Rana,  
 A. E. Rask,  A. Rettig,  R. M. Richard,  F. Rob,  E. Rossomme,  T. Scheele,  
 M. Scheurer,  M. Schneider,  N. Sergueev,  S. M. Sharada,  W. Skomorowski,  
 D. W. Small,  C. J. Stein,  Yu-Chuan Su,  E. J. Sundstrom,  Zhen Tao,  
 J. Thirman,  T. Tsuchimochi,  N. M. Tubman,  S. P. Veccham,  O. Vydrov,  
 J. Wenzel,  J. Witte,  A. Yamada,  Kun Yao,  S. Yeganeh,  S. R. Yost,  
 A. Zech,  Igor Ying Zhang,  Xing Zhang,  Yu Zhang,  D. Zuev,  
 A. Aspuru-Guzik,  A. T. Bell,  N. A. Besley,  K. B. Bravaya,  B. R. Brooks,  
 D. Casanova,  Jeng-Da Chai,  S. Coriani,  C. J. Cramer,  
 A. E. DePrince, III,  R. A. DiStasio Jr.,  A. Dreuw,  B. D. Dunietz,  
 T. R. Furlani,  W. A. Goddard III,  S. Grimme,  S. Hammes-Schiffer,  
 T. Head-Gordon,  W. J. Hehre,  Chao-Ping Hsu,  T.-C. Jagau,  Yousung Jung,  
 A. Klamt,  Jing Kong,  D. S. Lambrecht,  WanZhen Liang,  N. J. Mayhall,  
 C. W. McCurdy,  J. B. Neaton,  C. Ochsenfeld,  J. A. Parkhill,  R. Peverati,  
 V. A. Rassolov,  Yihan Shao,  L. V. Slipchenko,  T. Stauch,  R. P. Steele,  
 J. E. Subotnik,  A. J. W. Thom,  A. Tkatchenko,  D. G. Truhlar,  
 T. Van Voorhis,  T. A. Wesolowski,  K. B. Whaley,  H. L. Woodcock III,  
 P. M. Zimmerman,  S. Faraji,  P. M. W. Gill,  M. Head-Gordon,  
 J. M. Herbert,  A. I. Krylov

 Contributors to earlier versions of Q-Chem not listed above: 
 R. D. Adamson,  B. Austin,  R. Baer,  J. Baker,  G. J. O. Beran,  
 K. Brandhorst,  S. T. Brown,  E. F. C. Byrd,  A. K. Chakraborty,  
 G. K. L. Chan,  Chun-Min Chang,  Yunqing Chen,  C.-L. Cheng,  
 Siu Hung Chien,  D. M. Chipman,  D. L. Crittenden,  H. Dachsel,  
 R. J. Doerksen,  A. D. Dutoi,  R. G. Edgar,  J. Fosso-Tande,  
 L. Fusti-Molnar,  D. Ghosh,  A. Ghysels,  A. Golubeva-Zadorozhnaya,  
 J. Gonthier,  M. S. Gordon,  S. R. Gwaltney,  G. Hawkins,  J. E. Herr,  
 A. Heyden,  S. Hirata,  E. G. Hohenstein,  G. Kedziora,  F. J. Keil,  
 C. Kelley,  Jihan Kim,  R. A. King,  R. Z. Khaliullin,  P. P. Korambath,  
 W. Kurlancheek,  A. Laurent,  A. M. Lee,  M. S. Lee,  S. V. Levchenko,  
 Ching Yeh Lin,  D. Liotard,  E. Livshits,  R. C. Lochan,  I. Lotan,  
 L. A. Martinez-Martinez,  P. E. Maslen,  N. Nair,  D. P. O'Neill,  
 D. Neuhauser,  E. Neuscamman,  C. M. Oana,  R. Olivares-Amaya,  R. Olson,  
 T. M. Perrine,  B. Peters,  P. A. Pieniazek,  A. Prociuk,  Y. M. Rhee,  
 J. Ritchie,  M. A. Rohrdanz,  E. Rosta,  N. J. Russ,  H. F. Schaefer III,  
 M. W. Schmidt,  N. E. Schultz,  S. Sharma,  N. Shenvi,  C. D. Sherrill,  
 A. C. Simmonett,  A. Sodt,  T. Stein,  D. Stuck,  K. S. Thanthiriwatte,  
 V. Vanovschi,  L. Vogt,  Tao Wang,  A. Warshel,  M. A. Watson,  
 C. F. Williams,  Q. Wu,  X. Xu,  Jun Yang,  W. Zhang,  Yan Zhao

 Please cite Q-Chem as follows:
 Y. Shao et al., Mol. Phys. 113, 184-215 (2015)
 DOI: 10.1080/00268976.2014.952696

 Q-Chem 5.4.0 for Intel X86 EM64T Linux

 Parts of Q-Chem use Armadillo 9.800.1 (Horizon Scraper).
 http://arma.sourceforge.net/

 Q-Chem begins on Tue Jan  9 02:32:50 2024  

 Host: 
0

     Scratch files written to ./qchem1686296//
 May1621 |scratch|qcdevops|jenkins|workspace|build_RNUM    
 Parallel job on  1  processors
 Processing $rem in /cm/shared/apps/spack/cpu/opt/spack/linux-centos8-zen2/gcc-10.2.0/qchem-5.4-akfmr7b3t57bfs6qan3padb2wnb2i7cl/config/preferences:
 Processing $rem in /home/rramji/.qchemrc:
 Symmetry turned off for PCM/SM12/SMD calculation
 Core orbitals will be frozen

 Checking the input file for inconsistencies... 	...done.

 Q-Chem warning in module forms1/BasisType.C, line 2236:

 You are not using the predefined 5D/6D in this basis set.


--------------------------------------------------------------
User input:
--------------------------------------------------------------
$molecule
0 1
C	0.014560	-8.517702	0.320589
C	-0.180211	-7.641575	-0.737240
S	0.299553	-7.638634	1.842356
C	-0.114873	-6.264785	-0.366488
H	-0.368061	-7.966081	-1.768528
C	0.131236	-6.072714	1.038637
C	0.253435	-4.787049	1.588197
C	-0.249014	-5.162801	-1.258831
C	-0.122513	-3.874817	-0.709695
C	0.121043	-3.683952	0.697430
O	-0.505933	-5.499772	-2.553323
O	0.512697	-4.459055	2.888369
C	0.080869	-5.329063	3.927625
H	0.173159	-4.755694	4.869656
H	0.716363	-6.238095	4.007459
H	-0.978072	-5.637262	3.789565
C	-0.246949	-4.572261	-3.600064
H	-0.344574	-5.139743	-4.544887
H	0.779898	-4.153131	-3.532074
H	-0.983261	-3.739531	-3.612378
C	0.188009	-2.306654	1.064246
S	-0.278644	-2.306501	-1.517360
C	-0.000000	-1.435185	-0.000000
H	0.373017	-1.978138	2.094685
H	0.018474	-9.614033	0.322246
C	0.000000	0.000000	0.000000
S	0.783786	0.451972	1.507541
C	2.145261	1.238908	0.718873
C	0.783650	0.451572	-1.067872
C	1.986396	1.148648	-0.686410
S	0.574133	0.327317	-2.805516
C	2.088363	1.207943	-3.054530
C	2.700548	1.564221	-1.862551
F	3.855718	2.236706	-1.819088
C	2.477307	1.430318	-4.456084
O	1.814592	1.038482	-5.406510
O	3.643162	2.112042	-4.569225
C	4.074530	2.355061	-5.916207
H	5.024556	2.911627	-5.833064
H	3.322010	2.951860	-6.470168
H	4.229490	1.400910	-6.459293
H	2.944986	1.702260	1.306486
$end

$rem
JOBTYPE		SP
EXCHANGE	HF
CORRELATION	pRIMP2
BASIS		cc-pvtz
METHOD		rimp2
AUX_BASIS	rimp2-cc-pvtz
SOLVENT_METHOD	PCM
PURECART	11111
SYMMETRY	false
MEM_TOTAL	110000
SCF_CONVERGENCE = 6
THRESH=10
GUI = 2
$end



$solvent
dielectric 4.90
$end
--------------------------------------------------------------
 ----------------------------------------------------------------
             Standard Nuclear Orientation (Angstroms)
    I     Atom           X                Y                Z
 ----------------------------------------------------------------
    1      C       0.0145600000    -8.5177020000     0.3205890000
    2      C      -0.1802110000    -7.6415750000    -0.7372400000
    3      S       0.2995530000    -7.6386340000     1.8423560000
    4      C      -0.1148730000    -6.2647850000    -0.3664880000
    5      H      -0.3680610000    -7.9660810000    -1.7685280000
    6      C       0.1312360000    -6.0727140000     1.0386370000
    7      C       0.2534350000    -4.7870490000     1.5881970000
    8      C      -0.2490140000    -5.1628010000    -1.2588310000
    9      C      -0.1225130000    -3.8748170000    -0.7096950000
   10      C       0.1210430000    -3.6839520000     0.6974300000
   11      O      -0.5059330000    -5.4997720000    -2.5533230000
   12      O       0.5126970000    -4.4590550000     2.8883690000
   13      C       0.0808690000    -5.3290630000     3.9276250000
   14      H       0.1731590000    -4.7556940000     4.8696560000
   15      H       0.7163630000    -6.2380950000     4.0074590000
   16      H      -0.9780720000    -5.6372620000     3.7895650000
   17      C      -0.2469490000    -4.5722610000    -3.6000640000
   18      H      -0.3445740000    -5.1397430000    -4.5448870000
   19      H       0.7798980000    -4.1531310000    -3.5320740000
   20      H      -0.9832610000    -3.7395310000    -3.6123780000
   21      C       0.1880090000    -2.3066540000     1.0642460000
   22      S      -0.2786440000    -2.3065010000    -1.5173600000
   23      C       0.0000000000    -1.4351850000     0.0000000000
   24      H       0.3730170000    -1.9781380000     2.0946850000
   25      H       0.0184740000    -9.6140330000     0.3222460000
   26      C       0.0000000000     0.0000000000     0.0000000000
   27      S       0.7837860000     0.4519720000     1.5075410000
   28      C       2.1452610000     1.2389080000     0.7188730000
   29      C       0.7836500000     0.4515720000    -1.0678720000
   30      C       1.9863960000     1.1486480000    -0.6864100000
   31      S       0.5741330000     0.3273170000    -2.8055160000
   32      C       2.0883630000     1.2079430000    -3.0545300000
   33      C       2.7005480000     1.5642210000    -1.8625510000
   34      F       3.8557180000     2.2367060000    -1.8190880000
   35      C       2.4773070000     1.4303180000    -4.4560840000
   36      O       1.8145920000     1.0384820000    -5.4065100000
   37      O       3.6431620000     2.1120420000    -4.5692250000
   38      C       4.0745300000     2.3550610000    -5.9162070000
   39      H       5.0245560000     2.9116270000    -5.8330640000
   40      H       3.3220100000     2.9518600000    -6.4701680000
   41      H       4.2294900000     1.4009100000    -6.4592930000
   42      H       2.9449860000     1.7022600000     1.3064860000
 ----------------------------------------------------------------
 Nuclear Repulsion Energy =        3367.85773516 hartrees
 There are      119 alpha and      119 beta electrons
 Requested basis set is cc-pVTZ
 There are 376 shells and 1068 basis functions

 Total QAlloc Memory Limit 110000 MB
 Mega-Array Size       188 MB
 MEM_STATIC part       192 MB
 Discretize the solute cavity surface with Lebedev spheres
	Using 110 Lebedev grid points for each H atom
	Using 194 Lebedev grid points for other atoms
	Atomic van der Waals radii will be scaled by 1.20
 Remove points where switching function is < 1.0e-08
 Keep 2843 surface tesserae and discard 4213 interior tesserae
 Molecular Surface Area = 430.940 Angst**2
 Requested basis set is rimp2-cc-pVTZ
 There are 833 shells and 2903 basis functions
 A cutoff of  1.0D-10 yielded  32278 shell pairs
 There are    246222 function pairs (    319094 Cartesian)
 Smallest overlap matrix eigenvalue = 2.20E-05

 Scale SEOQF with 1.000000e-01/1.000000e-02/1.000000e-02

 Standard Electronic Orientation quadrupole field applied
 Nucleus-field energy     =     0.0000000327 hartrees
 Guess from superposition of atomic densities
 Warning:  Energy on first SCF cycle will be non-variational
 SAD guess density has 238.000000 electrons

 -----------------------------------------------------------------------
  General SCF calculation program by
  Eric Jon Sundstrom, Paul Horn, Yuezhi Mao, Dmitri Zuev, Alec White,
  David Stuck, Shaama M.S., Shane Yost, Joonho Lee, David Small,
  Daniel Levine, Susi Lehtola, Hugh Burton, Evgeny Epifanovsky,
  Bang C. Huynh
 -----------------------------------------------------------------------
 Hartree-Fock
 using 64 threads for integral computing
 -------------------------------------------------------
 OpenMP Integral computing Module                
 Release: version 1.0, May 2013, Q-Chem Inc. Pittsburgh 
 -------------------------------------------------------
 A restricted SCF calculation will be
 performed using DIIS
 SCF converges when DIIS error is below 1.0e-06
 ---------------------------------------
  Cycle       Energy         DIIS error
 ---------------------------------------
    1   -2765.3902271363      1.76e-02  
    2   -2753.7996862792      1.58e-03  
    3   -2754.1433110017      8.82e-04  
    4   -2754.2297665707      2.58e-04  
    5   -2754.2417558474      6.99e-05  
    6   -2754.2428641906      2.41e-05  
    7   -2754.2431028572      1.15e-05  
    8   -2754.2431808784      4.33e-06  
    9   -2754.2431958997      1.77e-06  
   10   -2754.2431980010      7.91e-07  Convergence criterion met
 ---------------------------------------
 SCF time:   CPU 6867.54s  wall 250.00s 

************** Final PCM Free Energy Summary **************
 G_electrostatic  =      -0.02108438 hartree =     -13.23064801 kcal/mol
 G_cavitation     =       0.00000000 hartree =       0.00000000 kcal/mol
 G_dispersion     =       0.00000000 hartree =       0.00000000 kcal/mol
 G_repulsion      =       0.00000000 hartree =       0.00000000 kcal/mol
 --------------------------------------------------
 Non-electrostatic Free Energy =       0.00000000 hartree =       0.00000000 kcal/mol
 Total                         =      -0.02108438 hartree =     -13.23064801 kcal/mol
 --------------------------------------------------
 SCF Energy (H0 + V/2)                       =   -2754.24319800 
 Solute Internal Energy (H0)                 =   -2754.22211362 
 Total Free Energy (H0 + V/2 + non-elec)     =   -2754.24319800 hartree
                                             = -1728313.69218293 kcal/mol
***********************************************************

 SCF   energy in the final basis set =    -2754.2431980010
 Total energy in the final basis set =    -2754.2431980010


 --------------------------------------------------------------
  Generalized many-body perturbation theory program
  by Joonho Lee, Fazle Rob, Xintian Feng, Evgeny Epifanovsky

 No regularization used 
 (reg. param. = 0.0000e+00)
  (P|Q)^-1/2 Time:  CPU 187.37 s  wall 3.01 s

 In RI-MP2 calculation: 
 # of frozen core orbitals: 45

 Components of the RIMP2 correlation energy:
        aaaa    correlation energy =        -0.6730329284 a.u.
        abab    correlation energy =        -3.7204319792 a.u.
        bbbb    correlation energy =        -0.6730329284 a.u.
        non-Brillouin singles      =        -0.0000000000 a.u.
        total same-spin energy     =        -1.3460658567 a.u.
        total opposite-spin energy =        -3.7204319792 a.u.

 Total  RIMP2   correlation energy =        -5.0664978359 a.u.
        RIMP2         total energy =     -2759.3096958369 a.u.

 RI-MP2 Energy Time:  CPU 2853.23 s  wall 47.94 s
 
 --------------------------------------------------------------
 
                    Orbital Energies (a.u.)
 --------------------------------------------------------------
 
 Alpha MOs
 -- Occupied --
-92.0141 -92.0120 -91.9815 -91.9814 -26.3477 -20.6165 -20.5897 -20.5853
-20.5632 -11.4119 -11.3889 -11.3409 -11.3270 -11.3156 -11.3061 -11.3000
-11.3000 -11.2912 -11.2901 -11.2849 -11.2831 -11.2794 -11.2757 -11.2754
-11.2722 -11.2556 -11.2489 -11.2462 -11.2309  -9.0139  -9.0119  -8.9829
 -8.9815  -6.6945  -6.6936  -6.6934  -6.6927  -6.6920  -6.6910  -6.6638
 -6.6631  -6.6625  -6.6621  -6.6619  -6.6610  -1.6646  -1.4692  -1.4135
 -1.4082  -1.3720  -1.2382  -1.1885  -1.1647  -1.1410  -1.0871  -1.0476
 -1.0443  -1.0304  -0.9965  -0.9874  -0.9678  -0.9545  -0.9468  -0.9418
 -0.8911  -0.8742  -0.8429  -0.8210  -0.7959  -0.7839  -0.7801  -0.7629
 -0.7558  -0.7293  -0.7288  -0.7144  -0.6974  -0.6876  -0.6842  -0.6787
 -0.6757  -0.6618  -0.6557  -0.6488  -0.6304  -0.6161  -0.6149  -0.6058
 -0.6030  -0.5852  -0.5810  -0.5697  -0.5647  -0.5605  -0.5523  -0.5473
 -0.5338  -0.5289  -0.5234  -0.5169  -0.5119  -0.5099  -0.5034  -0.4928
 -0.4846  -0.4823  -0.4780  -0.4741  -0.4656  -0.4593  -0.4543  -0.4261
 -0.3856  -0.3793  -0.3592  -0.3545  -0.3231  -0.2920  -0.2433
 -- Virtual --
  0.0172   0.0708   0.0862   0.1282   0.1335   0.1400   0.1521   0.1559
  0.1567   0.1585   0.1624   0.1772   0.1803   0.1824   0.1899   0.1999
  0.2012   0.2057   0.2114   0.2141   0.2211   0.2231   0.2248   0.2259
  0.2327   0.2401   0.2476   0.2540   0.2574   0.2633   0.2748   0.2866
  0.2955   0.3006   0.3112   0.3253   0.3347   0.3390   0.3447   0.3514
  0.3559   0.3651   0.3690   0.3792   0.3823   0.3838   0.3848   0.3864
  0.3894   0.3922   0.3996   0.4068   0.4079   0.4155   0.4165   0.4254
  0.4265   0.4305   0.4367   0.4442   0.4484   0.4493   0.4513   0.4520
  0.4644   0.4681   0.4735   0.4748   0.4847   0.4852   0.4896   0.4935
  0.4974   0.4977   0.5024   0.5080   0.5116   0.5153   0.5179   0.5256
  0.5273   0.5303   0.5327   0.5381   0.5385   0.5404   0.5461   0.5515
  0.5532   0.5553   0.5604   0.5626   0.5667   0.5724   0.5754   0.5800
  0.5871   0.5932   0.5957   0.6013   0.6052   0.6078   0.6114   0.6128
  0.6167   0.6193   0.6212   0.6230   0.6289   0.6310   0.6341   0.6395
  0.6440   0.6484   0.6508   0.6547   0.6592   0.6611   0.6673   0.6741
  0.6805   0.6823   0.6881   0.6893   0.6985   0.7023   0.7052   0.7086
  0.7149   0.7177   0.7219   0.7260   0.7394   0.7409   0.7450   0.7464
  0.7522   0.7587   0.7660   0.7727   0.7817   0.7906   0.7928   0.7993
  0.8079   0.8149   0.8175   0.8225   0.8267   0.8298   0.8363   0.8442
  0.8457   0.8485   0.8628   0.8642   0.8668   0.8776   0.8828   0.8880
  0.8941   0.8975   0.8988   0.9111   0.9147   0.9187   0.9206   0.9268
  0.9323   0.9386   0.9402   0.9460   0.9501   0.9542   0.9618   0.9650
  0.9679   0.9722   0.9802   0.9871   0.9915   0.9970   1.0018   1.0059
  1.0082   1.0146   1.0191   1.0238   1.0303   1.0338   1.0390   1.0426
  1.0450   1.0528   1.0580   1.0679   1.0725   1.0729   1.0773   1.0816
  1.0878   1.0919   1.0945   1.0997   1.1027   1.1084   1.1101   1.1147
  1.1184   1.1192   1.1268   1.1363   1.1391   1.1424   1.1534   1.1608
  1.1643   1.1701   1.1778   1.1837   1.1859   1.1908   1.1921   1.1967
  1.2033   1.2040   1.2103   1.2136   1.2239   1.2247   1.2297   1.2378
  1.2408   1.2429   1.2480   1.2519   1.2579   1.2654   1.2678   1.2780
  1.2792   1.2853   1.2873   1.2890   1.3027   1.3083   1.3167   1.3180
  1.3236   1.3311   1.3346   1.3423   1.3506   1.3582   1.3649   1.3670
  1.3774   1.3786   1.3867   1.3923   1.3995   1.4108   1.4161   1.4186
  1.4255   1.4349   1.4403   1.4521   1.4643   1.4761   1.4828   1.4868
  1.4905   1.4960   1.4990   1.5034   1.5099   1.5131   1.5281   1.5342
  1.5364   1.5393   1.5424   1.5472   1.5501   1.5513   1.5593   1.5676
  1.5725   1.5822   1.5896   1.5916   1.6008   1.6165   1.6227   1.6258
  1.6385   1.6435   1.6510   1.6579   1.6635   1.6669   1.6730   1.6848
  1.6896   1.6956   1.7037   1.7138   1.7161   1.7241   1.7340   1.7431
  1.7497   1.7559   1.7642   1.7823   1.7862   1.7971   1.8022   1.8150
  1.8183   1.8245   1.8365   1.8412   1.8567   1.8587   1.8699   1.8771
  1.8842   1.8966   1.8989   1.9125   1.9157   1.9184   1.9287   1.9320
  1.9409   1.9480   1.9622   1.9700   1.9773   1.9783   1.9817   1.9951
  1.9998   2.0121   2.0215   2.0306   2.0352   2.0426   2.0493   2.0624
  2.0764   2.0837   2.0885   2.1009   2.1035   2.1154   2.1329   2.1367
  2.1559   2.1576   2.1668   2.1730   2.1756   2.1835   2.1867   2.1904
  2.2034   2.2107   2.2159   2.2200   2.2287   2.2347   2.2417   2.2485
  2.2526   2.2595   2.2640   2.2646   2.2787   2.2805   2.2903   2.2930
  2.2992   2.3104   2.3128   2.3261   2.3323   2.3408   2.3569   2.3624
  2.3645   2.3718   2.3779   2.3888   2.3942   2.4053   2.4154   2.4229
  2.4307   2.4361   2.4415   2.4499   2.4602   2.4627   2.4834   2.4900
  2.4982   2.4988   2.5081   2.5178   2.5305   2.5341   2.5439   2.5527
  2.5652   2.5686   2.5694   2.5892   2.6069   2.6148   2.6209   2.6242
  2.6295   2.6342   2.6403   2.6413   2.6446   2.6494   2.6521   2.6644
  2.6776   2.6880   2.6897   2.6967   2.7023   2.7046   2.7082   2.7184
  2.7235   2.7359   2.7402   2.7425   2.7517   2.7598   2.7688   2.7759
  2.7784   2.7891   2.7932   2.7992   2.8039   2.8090   2.8126   2.8177
  2.8274   2.8358   2.8437   2.8503   2.8521   2.8583   2.8621   2.8730
  2.8804   2.8847   2.8921   2.8928   2.9103   2.9191   2.9260   2.9391
  2.9483   2.9527   2.9552   2.9680   2.9742   2.9837   2.9898   2.9940
  3.0020   3.0197   3.0226   3.0313   3.0334   3.0379   3.0432   3.0478
  3.0539   3.0614   3.0671   3.0719   3.0803   3.0904   3.0971   3.1005
  3.1055   3.1108   3.1142   3.1182   3.1215   3.1298   3.1395   3.1467
  3.1489   3.1537   3.1612   3.1672   3.1726   3.1747   3.1838   3.1879
  3.1938   3.1962   3.2039   3.2131   3.2158   3.2176   3.2241   3.2303
  3.2343   3.2425   3.2476   3.2507   3.2550   3.2608   3.2659   3.2695
  3.2718   3.2763   3.2851   3.2871   3.2887   3.2989   3.3036   3.3110
  3.3124   3.3212   3.3311   3.3334   3.3412   3.3444   3.3481   3.3516
  3.3566   3.3580   3.3645   3.3679   3.3722   3.3769   3.3798   3.3867
  3.3916   3.3936   3.3981   3.4043   3.4077   3.4133   3.4152   3.4174
  3.4202   3.4277   3.4290   3.4370   3.4401   3.4459   3.4514   3.4588
  3.4646   3.4662   3.4688   3.4745   3.4763   3.4799   3.4861   3.4948
  3.4980   3.5170   3.5174   3.5238   3.5283   3.5316   3.5379   3.5388
  3.5472   3.5501   3.5583   3.5678   3.5707   3.5772   3.5780   3.5819
  3.5875   3.5914   3.5982   3.6003   3.6031   3.6087   3.6178   3.6231
  3.6256   3.6302   3.6384   3.6438   3.6460   3.6557   3.6597   3.6626
  3.6763   3.6778   3.6814   3.6889   3.6905   3.6970   3.7033   3.7052
  3.7091   3.7109   3.7170   3.7252   3.7316   3.7376   3.7443   3.7519
  3.7585   3.7611   3.7649   3.7713   3.7839   3.7871   3.7894   3.7929
  3.7988   3.8037   3.8048   3.8131   3.8150   3.8172   3.8252   3.8309
  3.8428   3.8488   3.8514   3.8536   3.8635   3.8677   3.8703   3.8801
  3.8867   3.8887   3.8943   3.8994   3.9070   3.9091   3.9193   3.9216
  3.9279   3.9381   3.9396   3.9428   3.9549   3.9603   3.9897   3.9940
  3.9979   4.0023   4.0141   4.0191   4.0255   4.0297   4.0392   4.0433
  4.0518   4.0627   4.0677   4.0738   4.0784   4.0864   4.0913   4.0959
  4.1072   4.1172   4.1330   4.1360   4.1378   4.1482   4.1533   4.1580
  4.1598   4.1646   4.1660   4.1720   4.1868   4.1887   4.1938   4.2066
  4.2081   4.2170   4.2367   4.2391   4.2472   4.2488   4.2631   4.2677
  4.2795   4.3037   4.3100   4.3164   4.3316   4.3407   4.3427   4.3548
  4.3573   4.3588   4.3720   4.3740   4.3751   4.3922   4.3960   4.4033
  4.4103   4.4130   4.4197   4.4250   4.4285   4.4349   4.4427   4.4551
  4.4638   4.4711   4.4837   4.4859   4.5017   4.5059   4.5209   4.5257
  4.5346   4.5378   4.5482   4.5650   4.5664   4.5820   4.5887   4.5957
  4.6103   4.6144   4.6195   4.6278   4.6384   4.6476   4.6560   4.6580
  4.6648   4.6693   4.6781   4.6835   4.6944   4.7191   4.7343   4.7364
  4.7515   4.7571   4.7650   4.7728   4.7813   4.7939   4.8072   4.8119
  4.8313   4.8358   4.8405   4.8568   4.8612   4.8786   4.8890   4.8967
  4.9384   4.9427   4.9532   4.9564   4.9684   4.9749   4.9863   4.9916
  5.0077   5.0113   5.0228   5.0376   5.0445   5.0462   5.0657   5.0747
  5.0884   5.1035   5.1168   5.1343   5.1650   5.1738   5.1792   5.1913
  5.1999   5.2188   5.2256   5.2384   5.2487   5.2559   5.2566   5.2849
  5.2970   5.3115   5.3152   5.3221   5.3326   5.3485   5.3536   5.3655
  5.3834   5.3919   5.4030   5.4032   5.4189   5.4250   5.4425   5.4676
  5.4695   5.4839   5.5007   5.5093   5.5117   5.5165   5.5330   5.5606
  5.5779   5.5832   5.5880   5.6085   5.6199   5.6269   5.6418   5.6595
  5.7171   5.7209   5.7459   5.7624   5.8059   5.8189   5.8311   5.8572
  5.8757   5.8835   5.9045   5.9273   5.9491   5.9863   5.9996   6.0331
  6.0399   6.0737   6.0960   6.1492   6.1561   6.1737   6.1803   6.1836
  6.2240   6.2450   6.2585   6.2600   6.2789   6.2812   6.3249   6.3318
  6.4308   6.4483   6.4569   6.4790   6.5364   6.5531   6.5627   6.5947
  6.6590   6.6608   6.6694   6.7100   6.7433   6.8054   6.8281   6.8456
  6.8580   6.8992   6.9763   7.1277   7.1408   7.2020   7.2024   7.2191
  7.2403   7.3082   7.3247   7.3364   7.3592   7.3600   7.4029   7.4117
  7.4815   7.4832   7.4935   7.5140   7.5476   7.6142   7.7258   7.7687
  7.7863   7.8007   7.8862   7.9231   7.9470   7.9612   8.1061   8.1331
  8.3540   8.9181   9.0210   9.3591   9.4764   9.6579  10.1211  10.5021
 11.2144  11.3949  11.7782  12.0175  12.1296  12.1920  12.4333  12.5930
 12.6995  12.9738  13.0075  13.2783  13.3842  13.5348  13.8000  13.8506
 13.9095  14.0196  14.0496  14.4687  15.2144
 --------------------------------------------------------------
 
          Ground-State Mulliken Net Atomic Charges

     Atom                 Charge (a.u.)
  ----------------------------------------
      1 C                    -0.204373
      2 C                    -0.251822
      3 S                    -0.031982
      4 C                    -0.028583
      5 H                     0.194682
      6 C                    -0.019974
      7 C                     0.219269
      8 C                     0.245952
      9 C                    -0.045073
     10 C                     0.002169
     11 O                    -0.333443
     12 O                    -0.343734
     13 C                    -0.085546
     14 H                     0.120085
     15 H                     0.089822
     16 H                     0.092188
     17 C                    -0.087592
     18 H                     0.124713
     19 H                     0.093980
     20 H                     0.089534
     21 C                    -0.320623
     22 S                    -0.046661
     23 C                     0.026830
     24 H                     0.180588
     25 H                     0.203639
     26 C                    -0.145665
     27 S                     0.111808
     28 C                    -0.102339
     29 C                     0.110625
     30 C                    -0.131211
     31 S                     0.069412
     32 C                    -0.160567
     33 C                     0.401847
     34 F                    -0.203327
     35 C                     0.449908
     36 O                    -0.462024
     37 O                    -0.301125
     38 C                    -0.058106
     39 H                     0.121834
     40 H                     0.095416
     41 H                     0.095374
     42 H                     0.224096
  ----------------------------------------
  Sum of atomic charges =     0.000000

 -----------------------------------------------------------------
                    Cartesian Multipole Moments
 -----------------------------------------------------------------
    Charge (ESU x 10^10)
                -0.0000
    Dipole Moment (Debye)
         X       3.7419      Y       3.0794      Z       1.6472
       Tot       5.1184
    Quadrupole Moments (Debye-Ang)
        XX    -187.6944     XY       9.8949     YY    -187.3613
        XZ      -8.0119     YZ      -1.4911     ZZ    -179.5910
    Octopole Moments (Debye-Ang^2)
       XXX    -434.1079    XXY     504.2720    XYY    -152.7310
       YYY    1202.5595    XXZ     106.5906    XYZ     -18.4666
       YYZ     137.2676    XZZ     -81.3559    YZZ     407.7081
       ZZZ     493.9487
    Hexadecapole Moments (Debye-Ang^3)
      XXXX   -2746.2328   XXXY    -633.3573   XXYY   -3989.5734
      XYYY    -664.8688   YYYY  -17833.7970   XXXZ    1027.0522
      XXYZ     338.3135   XYYZ     315.0073   YYYZ    1309.4023
      XXZZ   -1320.2070   XYZZ      43.9291   YYZZ   -4057.5193
      XZZZ     773.4760   YZZZ    1048.2908   ZZZZ   -7409.8082
 -----------------------------------------------------------------
 Total job time:  329.47s(wall), 10351.55s(cpu) 
 Tue Jan  9 02:38:19 2024

        *************************************************************
        *                                                           *
        *  Thank you very much for using Q-Chem.  Have a nice day.  *
        *                                                           *
        *************************************************************


0 sent ACK to 0 
now end server 0 ... 
cleanup process ... done
remove work dirs ./qchem1686296.0 -- ./qchem1686296.0
rm -rf ./qchem1686296.0
rm -rf ./qchem1686296
