You are running Q-Chem version: 5.4.0

#
# job setting
#
local host:  exp-1-18
current dir: /home/rramji/project-csd799/aromodel/ptb7fout-qchem/rotation-run
input file:  Dimethoxy_Benzodithiophene_Phi_40_Theta_200_Methylcarbonyl_3_Fluoro_Thienothiophene.qcin
output file: 
nprocs     : 1
nthreads   : 64
#
# qchem installation setting
#
QC:          /cm/shared/apps/spack/cpu/opt/spack/linux-centos8-zen2/gcc-10.2.0/qchem-5.4-akfmr7b3t57bfs6qan3padb2wnb2i7cl
QCAUX:       /cm/shared/apps/spack/cpu/opt/spack/linux-centos8-zen2/gcc-10.2.0/qchem-5.4-akfmr7b3t57bfs6qan3padb2wnb2i7cl/qcaux
QCPROG:      /cm/shared/apps/spack/cpu/opt/spack/linux-centos8-zen2/gcc-10.2.0/qchem-5.4-akfmr7b3t57bfs6qan3padb2wnb2i7cl/exe/qcprog.exe
QCPROG_S:    /cm/shared/apps/spack/cpu/opt/spack/linux-centos8-zen2/gcc-10.2.0/qchem-5.4-akfmr7b3t57bfs6qan3padb2wnb2i7cl/exe/qcprog.exe_s
PARALLEL:    -DPARALLEL
QCMPI:       mpich
#
# qchem directory setting
#
qcrun:       qchem1925473
QCSCRATCH:   .
QCLOCALSCR:  
QCTMPDIR:    .
QCFILEPREF:  ./qchem1925473
QCSAVEDIR:   
workdirs:    ./qchem1925473
workdir0:    ./qchem1925473
partmpdirs =  
#
# parallel setting
#
QCRSH:           ssh
QCMPI:           mpich
QCMPIRUN:        /cm/shared/apps/spack/cpu/opt/spack/linux-centos8-zen2/gcc-10.2.0/qchem-5.4-akfmr7b3t57bfs6qan3padb2wnb2i7cl/bin/mpi/mpirun_qchem
QCMACHINEFILE:   ./qchem1925473/hostfile
exp-1-18

#
# env setting
#
exported envs:   QC QCAUX QCSCRATCH QCRUNNAME QCFILEPREF QCPROG QCPROG_S GUIFILE

Running Job 1 of 1 Dimethoxy_Benzodithiophene_Phi_40_Theta_200_Methylcarbonyl_3_Fluoro_Thienothiophene.qcin
qchem Dimethoxy_Benzodithiophene_Phi_40_Theta_200_Methylcarbonyl_3_Fluoro_Thienothiophene.qcin_1925473.0 ./qchem1925473/ 1
/cm/shared/apps/spack/cpu/opt/spack/linux-centos8-zen2/gcc-10.2.0/qchem-5.4-akfmr7b3t57bfs6qan3padb2wnb2i7cl/bin/mpi/mpirun_qchem -machinefile ./qchem1925473/hostfile -np 1 /cm/shared/apps/spack/cpu/opt/spack/linux-centos8-zen2/gcc-10.2.0/qchem-5.4-akfmr7b3t57bfs6qan3padb2wnb2i7cl/exe/qcprog.exe Dimethoxy_Benzodithiophene_Phi_40_Theta_200_Methylcarbonyl_3_Fluoro_Thienothiophene.qcin_1925473.0 ./qchem1925473/

Process 0 of 1 is on exp-1-18 - thread support 0
initial socket setup ...start
initial socket setup ...done 
now start server 0 ... 
                  Welcome to Q-Chem
     A Quantum Leap Into The Future Of Chemistry


 Q-Chem 5.4, Q-Chem, Inc., Pleasanton, CA (2021)

 License issued to: University of California, San Diego (site)

 E. Epifanovsky,  A. T. B. Gilbert,  Xintian Feng,  Joonho Lee,  Yuezhi Mao,  
 N. Mardirossian,  P. Pokhilko,  A. White,  M. Wormit,  M. P. Coons,  
 A. L. Dempwolff,  Zhengting Gan,  D. Hait,  P. R. Horn,  L. D. Jacobson,  
 I. Kaliman,  J. Kussmann,  A. W. Lange,  Ka Un Lao,  D. S. Levine,  Jie Liu,  
 S. C. McKenzie,  A. F. Morrison,  K. Nanda,  F. Plasser,  D. R. Rehn,  
 M. L. Vidal,  Zhi-Qiang You,  Ying Zhu,  B. Alam,  B. Albrecht,  
 A. Aldossary,  E. Alguire,  J. H. Andersen,  D. Barton,  K. Begam,  A. Behn,  
 Y. A. Bernard,  E. J. Berquist,  H. Burton,  A. Carreras,  K. Carter-Fenk,  
 R. Chakraborty,  A. D. Chien,  K. D. Closser,  V. Cofer-Shabica,  
 S. Dasgupta,  Jia Deng,  M. de Wergifosse,  M. Diedenhofen,  Hainam Do,  
 S. Ehlert,  Po-Tung Fang,  S. Fatehi,  Qingguo Feng,  J. Gayvert,  
 Qinghui Ge,  G. Gidofalvi,  M. Goldey,  J. Gomes,  C. Gonzalez-Espinoza,  
 S. Gulania,  A. Gunina,  M. W. D. Hanson-Heine,  P. H. P. Harbach,  
 A. W. Hauser,  M. F. Herbst,  M. Hernandez Vera,  M. Hodecker,  
 Z. C. Holden,  S. Houck,  Xunkun Huang,  Kerwin Hui,  B. C. Huynh,  
 M. Ivanov,  Hyunjun Ji,  Hanjie Jiang,  B. Kaduk,  S. Kaehler,  
 K. Khistyaev,  Jaehoon Kim,  P. Klunzinger,  Z. Koczor-Benda,  
 Joong Hoon Koh,  D. Kosenkov,  L. Koulias,  T. Kowalczyk,  C. M. Krauter,  
 K. Kue,  A. Kunitsa,  T. Kus,  A. Landau,  K. V. Lawler,  D. Lefrancois,  
 S. Lehtola,  Rain Li,  Yi-Pei Li,  Jiashu Liang,  M. Liebenthal,  
 Hung-Hsuan Lin,  You-Sheng Lin,  Fenglai Liu,  Kuan-Yu Liu,  
 M. Loipersberger,  A. Luenser,  A. Manjanath,  P. Manohar,  E. Mansoor,  
 S. F. Manzer,  Shan-Ping Mao,  A. V. Marenich,  T. Markovich,  S. Mason,  
 S. A. Maurer,  P. F. McLaughlin,  M. F. S. J. Menger,  J.-M. Mewes,  
 S. A. Mewes,  P. Morgante,  J. W. Mullinax,  T. S. Nguyen-Beck,  
 K. J. Oosterbaan,  G. Paran,  Alexander C. Paul,  Suranjan K. Paul,  
 F. Pavosevic,  Zheng Pei,  S. Prager,  E. I. Proynov,  E. Ramos,  B. Rana,  
 A. E. Rask,  A. Rettig,  R. M. Richard,  F. Rob,  E. Rossomme,  T. Scheele,  
 M. Scheurer,  M. Schneider,  N. Sergueev,  S. M. Sharada,  W. Skomorowski,  
 D. W. Small,  C. J. Stein,  Yu-Chuan Su,  E. J. Sundstrom,  Zhen Tao,  
 J. Thirman,  T. Tsuchimochi,  N. M. Tubman,  S. P. Veccham,  O. Vydrov,  
 J. Wenzel,  J. Witte,  A. Yamada,  Kun Yao,  S. Yeganeh,  S. R. Yost,  
 A. Zech,  Igor Ying Zhang,  Xing Zhang,  Yu Zhang,  D. Zuev,  
 A. Aspuru-Guzik,  A. T. Bell,  N. A. Besley,  K. B. Bravaya,  B. R. Brooks,  
 D. Casanova,  Jeng-Da Chai,  S. Coriani,  C. J. Cramer,  
 A. E. DePrince, III,  R. A. DiStasio Jr.,  A. Dreuw,  B. D. Dunietz,  
 T. R. Furlani,  W. A. Goddard III,  S. Grimme,  S. Hammes-Schiffer,  
 T. Head-Gordon,  W. J. Hehre,  Chao-Ping Hsu,  T.-C. Jagau,  Yousung Jung,  
 A. Klamt,  Jing Kong,  D. S. Lambrecht,  WanZhen Liang,  N. J. Mayhall,  
 C. W. McCurdy,  J. B. Neaton,  C. Ochsenfeld,  J. A. Parkhill,  R. Peverati,  
 V. A. Rassolov,  Yihan Shao,  L. V. Slipchenko,  T. Stauch,  R. P. Steele,  
 J. E. Subotnik,  A. J. W. Thom,  A. Tkatchenko,  D. G. Truhlar,  
 T. Van Voorhis,  T. A. Wesolowski,  K. B. Whaley,  H. L. Woodcock III,  
 P. M. Zimmerman,  S. Faraji,  P. M. W. Gill,  M. Head-Gordon,  
 J. M. Herbert,  A. I. Krylov

 Contributors to earlier versions of Q-Chem not listed above: 
 R. D. Adamson,  B. Austin,  R. Baer,  J. Baker,  G. J. O. Beran,  
 K. Brandhorst,  S. T. Brown,  E. F. C. Byrd,  A. K. Chakraborty,  
 G. K. L. Chan,  Chun-Min Chang,  Yunqing Chen,  C.-L. Cheng,  
 Siu Hung Chien,  D. M. Chipman,  D. L. Crittenden,  H. Dachsel,  
 R. J. Doerksen,  A. D. Dutoi,  R. G. Edgar,  J. Fosso-Tande,  
 L. Fusti-Molnar,  D. Ghosh,  A. Ghysels,  A. Golubeva-Zadorozhnaya,  
 J. Gonthier,  M. S. Gordon,  S. R. Gwaltney,  G. Hawkins,  J. E. Herr,  
 A. Heyden,  S. Hirata,  E. G. Hohenstein,  G. Kedziora,  F. J. Keil,  
 C. Kelley,  Jihan Kim,  R. A. King,  R. Z. Khaliullin,  P. P. Korambath,  
 W. Kurlancheek,  A. Laurent,  A. M. Lee,  M. S. Lee,  S. V. Levchenko,  
 Ching Yeh Lin,  D. Liotard,  E. Livshits,  R. C. Lochan,  I. Lotan,  
 L. A. Martinez-Martinez,  P. E. Maslen,  N. Nair,  D. P. O'Neill,  
 D. Neuhauser,  E. Neuscamman,  C. M. Oana,  R. Olivares-Amaya,  R. Olson,  
 T. M. Perrine,  B. Peters,  P. A. Pieniazek,  A. Prociuk,  Y. M. Rhee,  
 J. Ritchie,  M. A. Rohrdanz,  E. Rosta,  N. J. Russ,  H. F. Schaefer III,  
 M. W. Schmidt,  N. E. Schultz,  S. Sharma,  N. Shenvi,  C. D. Sherrill,  
 A. C. Simmonett,  A. Sodt,  T. Stein,  D. Stuck,  K. S. Thanthiriwatte,  
 V. Vanovschi,  L. Vogt,  Tao Wang,  A. Warshel,  M. A. Watson,  
 C. F. Williams,  Q. Wu,  X. Xu,  Jun Yang,  W. Zhang,  Yan Zhao

 Please cite Q-Chem as follows:
 Y. Shao et al., Mol. Phys. 113, 184-215 (2015)
 DOI: 10.1080/00268976.2014.952696

 Q-Chem 5.4.0 for Intel X86 EM64T Linux

 Parts of Q-Chem use Armadillo 9.800.1 (Horizon Scraper).
 http://arma.sourceforge.net/

 Q-Chem begins on Mon Jan  8 21:02:41 2024  

 Host: 
0

     Scratch files written to ./qchem1925473//
 May1621 |scratch|qcdevops|jenkins|workspace|build_RNUM    
 Parallel job on  1  processors
 Processing $rem in /cm/shared/apps/spack/cpu/opt/spack/linux-centos8-zen2/gcc-10.2.0/qchem-5.4-akfmr7b3t57bfs6qan3padb2wnb2i7cl/config/preferences:
 Processing $rem in /home/rramji/.qchemrc:
 Symmetry turned off for PCM/SM12/SMD calculation
 Core orbitals will be frozen

 Checking the input file for inconsistencies... 	...done.

 Q-Chem warning in module forms1/BasisType.C, line 2236:

 You are not using the predefined 5D/6D in this basis set.


--------------------------------------------------------------
User input:
--------------------------------------------------------------
$molecule
0 1
C	0.147685	-8.517702	-0.284919
C	-0.212552	-7.641575	0.728574
S	0.661757	-7.638634	-1.745304
C	-0.083761	-6.264785	0.374824
H	-0.565513	-7.966081	1.715621
C	0.405665	-6.072714	-0.965104
C	0.574617	-4.787049	-1.502136
C	-0.413763	-5.162801	1.214687
C	-0.248748	-3.874817	0.675870
C	0.243888	-3.683952	-0.664513
O	-0.838511	-5.499772	2.464209
O	1.000176	-4.459055	-2.757750
C	1.893778	-5.329063	-3.441858
H	2.284868	-4.755694	-4.303826
H	1.383341	-6.238095	-3.828743
H	2.741817	-5.637262	-2.792824
C	-1.586168	-4.572261	3.241222
H	-1.974033	-5.139743	4.108274
H	-2.441448	-4.153131	2.668916
H	-0.954660	-3.739531	3.620041
C	0.369302	-2.306654	-1.015668
S	-0.517367	-2.306501	1.453394
C	-0.000000	-1.435185	-0.000000
H	0.724300	-1.978138	-2.000559
H	0.145124	-9.614033	-0.288311
C	0.000000	0.000000	0.000000
S	0.581934	0.692785	1.507541
C	1.592155	1.897915	0.718873
C	0.581944	0.692363	-1.067872
C	1.473741	1.758764	-0.686410
S	0.427560	0.503942	-2.805516
C	1.549278	1.849357	-3.054530
C	2.002690	2.393529	-1.862551
F	2.858191	3.420549	-1.819088
C	1.838710	2.191348	-4.456084
O	1.349977	1.596481	-5.406510
O	2.701091	3.230705	-4.569225
C	3.023327	3.606605	-5.916207
H	3.725703	4.454534	-5.833064
H	2.112072	3.910035	-6.470168
H	3.495281	2.762996	-6.459293
H	2.185174	2.606846	1.306486
$end

$rem
JOBTYPE		SP
EXCHANGE	HF
CORRELATION	pRIMP2
BASIS		cc-pvtz
METHOD		rimp2
AUX_BASIS	rimp2-cc-pvtz
SOLVENT_METHOD	PCM
PURECART	11111
SYMMETRY	false
MEM_TOTAL	110000
SCF_CONVERGENCE = 6
THRESH=10
GUI = 2
$end



$solvent
dielectric 4.90
$end
--------------------------------------------------------------
 ----------------------------------------------------------------
             Standard Nuclear Orientation (Angstroms)
    I     Atom           X                Y                Z
 ----------------------------------------------------------------
    1      C       0.1476850000    -8.5177020000    -0.2849190000
    2      C      -0.2125520000    -7.6415750000     0.7285740000
    3      S       0.6617570000    -7.6386340000    -1.7453040000
    4      C      -0.0837610000    -6.2647850000     0.3748240000
    5      H      -0.5655130000    -7.9660810000     1.7156210000
    6      C       0.4056650000    -6.0727140000    -0.9651040000
    7      C       0.5746170000    -4.7870490000    -1.5021360000
    8      C      -0.4137630000    -5.1628010000     1.2146870000
    9      C      -0.2487480000    -3.8748170000     0.6758700000
   10      C       0.2438880000    -3.6839520000    -0.6645130000
   11      O      -0.8385110000    -5.4997720000     2.4642090000
   12      O       1.0001760000    -4.4590550000    -2.7577500000
   13      C       1.8937780000    -5.3290630000    -3.4418580000
   14      H       2.2848680000    -4.7556940000    -4.3038260000
   15      H       1.3833410000    -6.2380950000    -3.8287430000
   16      H       2.7418170000    -5.6372620000    -2.7928240000
   17      C      -1.5861680000    -4.5722610000     3.2412220000
   18      H      -1.9740330000    -5.1397430000     4.1082740000
   19      H      -2.4414480000    -4.1531310000     2.6689160000
   20      H      -0.9546600000    -3.7395310000     3.6200410000
   21      C       0.3693020000    -2.3066540000    -1.0156680000
   22      S      -0.5173670000    -2.3065010000     1.4533940000
   23      C       0.0000000000    -1.4351850000     0.0000000000
   24      H       0.7243000000    -1.9781380000    -2.0005590000
   25      H       0.1451240000    -9.6140330000    -0.2883110000
   26      C       0.0000000000     0.0000000000     0.0000000000
   27      S       0.5819340000     0.6927850000     1.5075410000
   28      C       1.5921550000     1.8979150000     0.7188730000
   29      C       0.5819440000     0.6923630000    -1.0678720000
   30      C       1.4737410000     1.7587640000    -0.6864100000
   31      S       0.4275600000     0.5039420000    -2.8055160000
   32      C       1.5492780000     1.8493570000    -3.0545300000
   33      C       2.0026900000     2.3935290000    -1.8625510000
   34      F       2.8581910000     3.4205490000    -1.8190880000
   35      C       1.8387100000     2.1913480000    -4.4560840000
   36      O       1.3499770000     1.5964810000    -5.4065100000
   37      O       2.7010910000     3.2307050000    -4.5692250000
   38      C       3.0233270000     3.6066050000    -5.9162070000
   39      H       3.7257030000     4.4545340000    -5.8330640000
   40      H       2.1120720000     3.9100350000    -6.4701680000
   41      H       3.4952810000     2.7629960000    -6.4592930000
   42      H       2.1851740000     2.6068460000     1.3064860000
 ----------------------------------------------------------------
 Nuclear Repulsion Energy =        3315.97368222 hartrees
 There are      119 alpha and      119 beta electrons
 Requested basis set is cc-pVTZ
 There are 376 shells and 1068 basis functions

 Total QAlloc Memory Limit 110000 MB
 Mega-Array Size       188 MB
 MEM_STATIC part       192 MB
 Discretize the solute cavity surface with Lebedev spheres
	Using 110 Lebedev grid points for each H atom
	Using 194 Lebedev grid points for other atoms
	Atomic van der Waals radii will be scaled by 1.20
 Remove points where switching function is < 1.0e-08
 Keep 2859 surface tesserae and discard 4197 interior tesserae
 Molecular Surface Area = 435.230 Angst**2
 Requested basis set is rimp2-cc-pVTZ
 There are 833 shells and 2903 basis functions
 A cutoff of  1.0D-10 yielded  31571 shell pairs
 There are    241675 function pairs (    313538 Cartesian)
 Smallest overlap matrix eigenvalue = 2.13E-05

 Scale SEOQF with 1.000000e-01/1.000000e-02/1.000000e-02

 Standard Electronic Orientation quadrupole field applied
 Nucleus-field energy     =     0.0000000287 hartrees
 Guess from superposition of atomic densities
 Warning:  Energy on first SCF cycle will be non-variational
 SAD guess density has 238.000000 electrons

 -----------------------------------------------------------------------
  General SCF calculation program by
  Eric Jon Sundstrom, Paul Horn, Yuezhi Mao, Dmitri Zuev, Alec White,
  David Stuck, Shaama M.S., Shane Yost, Joonho Lee, David Small,
  Daniel Levine, Susi Lehtola, Hugh Burton, Evgeny Epifanovsky,
  Bang C. Huynh
 -----------------------------------------------------------------------
 Hartree-Fock
 using 64 threads for integral computing
 -------------------------------------------------------
 OpenMP Integral computing Module                
 Release: version 1.0, May 2013, Q-Chem Inc. Pittsburgh 
 -------------------------------------------------------
 A restricted SCF calculation will be
 performed using DIIS
 SCF converges when DIIS error is below 1.0e-06
 ---------------------------------------
  Cycle       Energy         DIIS error
 ---------------------------------------
    1   -2765.2839320648      1.75e-02  
    2   -2753.8501636134      1.57e-03  
    3   -2754.1909058105      8.66e-04  
    4   -2754.2733054156      2.56e-04  
    5   -2754.2849734360      6.93e-05  
    6   -2754.2860540951      2.39e-05  
    7   -2754.2862871665      1.13e-05  
    8   -2754.2863633474      4.25e-06  
    9   -2754.2863773948      1.68e-06  
   10   -2754.2863791561      7.70e-07  Convergence criterion met
 ---------------------------------------
 SCF time:   CPU 6169.11s  wall 237.00s 

************** Final PCM Free Energy Summary **************
 G_electrostatic  =      -0.01917039 hartree =     -12.02960267 kcal/mol
 G_cavitation     =       0.00000000 hartree =       0.00000000 kcal/mol
 G_dispersion     =       0.00000000 hartree =       0.00000000 kcal/mol
 G_repulsion      =       0.00000000 hartree =       0.00000000 kcal/mol
 --------------------------------------------------
 Non-electrostatic Free Energy =       0.00000000 hartree =       0.00000000 kcal/mol
 Total                         =      -0.01917039 hartree =     -12.02960267 kcal/mol
 --------------------------------------------------
 SCF Energy (H0 + V/2)                       =   -2754.28637916 
 Solute Internal Energy (H0)                 =   -2754.26720876 
 Total Free Energy (H0 + V/2 + non-elec)     =   -2754.28637916 hartree
                                             = -1728340.78876675 kcal/mol
***********************************************************

 SCF   energy in the final basis set =    -2754.2863791561
 Total energy in the final basis set =    -2754.2863791561


 --------------------------------------------------------------
  Generalized many-body perturbation theory program
  by Joonho Lee, Fazle Rob, Xintian Feng, Evgeny Epifanovsky

 No regularization used 
 (reg. param. = 0.0000e+00)
  (P|Q)^-1/2 Time:  CPU 199.02 s  wall 3.90 s

 In RI-MP2 calculation: 
 # of frozen core orbitals: 45

 Components of the RIMP2 correlation energy:
        aaaa    correlation energy =        -0.6713726198 a.u.
        abab    correlation energy =        -3.7166417190 a.u.
        bbbb    correlation energy =        -0.6713726198 a.u.
        non-Brillouin singles      =        -0.0000000000 a.u.
        total same-spin energy     =        -1.3427452395 a.u.
        total opposite-spin energy =        -3.7166417190 a.u.

 Total  RIMP2   correlation energy =        -5.0593869586 a.u.
        RIMP2         total energy =     -2759.3457661147 a.u.

 RI-MP2 Energy Time:  CPU 2992.94 s  wall 52.64 s
 
 --------------------------------------------------------------
 
                    Orbital Energies (a.u.)
 --------------------------------------------------------------
 
 Alpha MOs
 -- Occupied --
-92.0159 -92.0046 -91.9863 -91.9845 -26.3451 -20.6155 -20.5917 -20.5885
-20.5620 -11.4104 -11.3850 -11.3228 -11.3181 -11.3132 -11.3099 -11.2987
-11.2968 -11.2893 -11.2890 -11.2881 -11.2868 -11.2843 -11.2826 -11.2823
-11.2767 -11.2592 -11.2550 -11.2485 -11.2451  -9.0150  -9.0045  -8.9872
 -8.9844  -6.6957  -6.6950  -6.6945  -6.6854  -6.6847  -6.6836  -6.6683
 -6.6676  -6.6666  -6.6654  -6.6648  -6.6639  -1.6621  -1.4680  -1.4156
 -1.4113  -1.3707  -1.2277  -1.1921  -1.1649  -1.1388  -1.0851  -1.0498
 -1.0442  -1.0259  -0.9989  -0.9877  -0.9648  -0.9588  -0.9493  -0.9397
 -0.8945  -0.8703  -0.8481  -0.8101  -0.7984  -0.7878  -0.7842  -0.7627
 -0.7559  -0.7322  -0.7269  -0.7121  -0.7007  -0.6863  -0.6821  -0.6815
 -0.6746  -0.6594  -0.6580  -0.6509  -0.6297  -0.6182  -0.6160  -0.6047
 -0.6005  -0.5813  -0.5784  -0.5706  -0.5647  -0.5607  -0.5574  -0.5461
 -0.5335  -0.5304  -0.5228  -0.5168  -0.5148  -0.5092  -0.5056  -0.4956
 -0.4868  -0.4822  -0.4768  -0.4744  -0.4692  -0.4634  -0.4581  -0.4239
 -0.3936  -0.3828  -0.3607  -0.3488  -0.3272  -0.2895  -0.2482
 -- Virtual --
  0.0222   0.0602   0.0998   0.1248   0.1302   0.1514   0.1530   0.1566
  0.1571   0.1606   0.1625   0.1711   0.1826   0.1839   0.1930   0.1954
  0.2029   0.2065   0.2147   0.2189   0.2233   0.2238   0.2250   0.2272
  0.2362   0.2447   0.2481   0.2507   0.2563   0.2641   0.2758   0.2805
  0.2918   0.3030   0.3141   0.3318   0.3336   0.3385   0.3457   0.3550
  0.3562   0.3616   0.3665   0.3796   0.3824   0.3835   0.3865   0.3891
  0.3906   0.3942   0.3999   0.4045   0.4114   0.4157   0.4219   0.4242
  0.4307   0.4345   0.4389   0.4430   0.4471   0.4501   0.4545   0.4608
  0.4620   0.4667   0.4711   0.4759   0.4803   0.4842   0.4861   0.4927
  0.4969   0.5011   0.5024   0.5049   0.5080   0.5175   0.5191   0.5235
  0.5250   0.5294   0.5335   0.5379   0.5405   0.5427   0.5447   0.5519
  0.5546   0.5562   0.5579   0.5615   0.5671   0.5696   0.5748   0.5844
  0.5893   0.5904   0.5971   0.5990   0.6050   0.6079   0.6093   0.6138
  0.6167   0.6182   0.6208   0.6242   0.6251   0.6274   0.6329   0.6408
  0.6416   0.6447   0.6491   0.6517   0.6527   0.6597   0.6715   0.6741
  0.6795   0.6840   0.6856   0.6938   0.6945   0.6986   0.7011   0.7055
  0.7136   0.7167   0.7213   0.7256   0.7330   0.7387   0.7397   0.7495
  0.7518   0.7603   0.7690   0.7743   0.7817   0.7831   0.7982   0.8018
  0.8031   0.8045   0.8131   0.8215   0.8227   0.8280   0.8417   0.8427
  0.8480   0.8536   0.8566   0.8652   0.8693   0.8741   0.8812   0.8873
  0.8907   0.8993   0.9029   0.9070   0.9120   0.9188   0.9219   0.9295
  0.9311   0.9381   0.9429   0.9445   0.9481   0.9573   0.9641   0.9654
  0.9723   0.9750   0.9806   0.9848   0.9890   0.9926   0.9973   1.0026
  1.0042   1.0124   1.0177   1.0223   1.0241   1.0318   1.0357   1.0456
  1.0503   1.0545   1.0570   1.0620   1.0659   1.0689   1.0748   1.0843
  1.0882   1.0887   1.0937   1.1008   1.1017   1.1051   1.1103   1.1151
  1.1183   1.1209   1.1293   1.1318   1.1388   1.1455   1.1510   1.1523
  1.1605   1.1673   1.1725   1.1815   1.1834   1.1873   1.1910   1.1945
  1.2028   1.2055   1.2093   1.2166   1.2208   1.2229   1.2284   1.2329
  1.2353   1.2423   1.2466   1.2557   1.2599   1.2644   1.2686   1.2701
  1.2729   1.2781   1.2842   1.2963   1.3012   1.3082   1.3146   1.3188
  1.3266   1.3360   1.3386   1.3449   1.3494   1.3572   1.3646   1.3673
  1.3729   1.3823   1.3870   1.3955   1.3993   1.4079   1.4128   1.4249
  1.4293   1.4397   1.4509   1.4602   1.4682   1.4816   1.4850   1.4906
  1.4971   1.4986   1.5006   1.5065   1.5112   1.5141   1.5254   1.5336
  1.5348   1.5370   1.5403   1.5439   1.5452   1.5473   1.5576   1.5701
  1.5748   1.5790   1.5856   1.5894   1.5990   1.6120   1.6224   1.6302
  1.6374   1.6439   1.6532   1.6557   1.6635   1.6681   1.6764   1.6861
  1.6870   1.6974   1.6997   1.7081   1.7176   1.7238   1.7377   1.7412
  1.7546   1.7612   1.7752   1.7816   1.7943   1.8036   1.8072   1.8174
  1.8220   1.8305   1.8391   1.8459   1.8534   1.8643   1.8696   1.8717
  1.8860   1.8947   1.8986   1.9060   1.9149   1.9192   1.9315   1.9334
  1.9398   1.9444   1.9468   1.9618   1.9686   1.9776   1.9792   1.9890
  1.9973   1.9988   2.0143   2.0262   2.0336   2.0395   2.0518   2.0629
  2.0821   2.0905   2.0945   2.1010   2.1045   2.1104   2.1216   2.1396
  2.1563   2.1632   2.1659   2.1668   2.1788   2.1847   2.1882   2.1894
  2.2002   2.2047   2.2102   2.2127   2.2276   2.2298   2.2343   2.2371
  2.2541   2.2581   2.2604   2.2680   2.2747   2.2765   2.2817   2.2890
  2.2919   2.3126   2.3191   2.3285   2.3369   2.3475   2.3558   2.3604
  2.3637   2.3699   2.3783   2.3879   2.3931   2.4134   2.4159   2.4185
  2.4278   2.4319   2.4379   2.4409   2.4582   2.4699   2.4800   2.4816
  2.4960   2.4978   2.5068   2.5195   2.5290   2.5403   2.5463   2.5586
  2.5631   2.5680   2.5769   2.5845   2.5937   2.6144   2.6175   2.6209
  2.6233   2.6282   2.6341   2.6385   2.6427   2.6523   2.6571   2.6694
  2.6760   2.6796   2.6827   2.6969   2.6995   2.7035   2.7060   2.7106
  2.7130   2.7276   2.7327   2.7436   2.7499   2.7555   2.7644   2.7798
  2.7873   2.7879   2.7920   2.8025   2.8055   2.8093   2.8144   2.8152
  2.8320   2.8339   2.8452   2.8508   2.8522   2.8576   2.8683   2.8756
  2.8765   2.8807   2.8862   2.8925   2.8978   2.9095   2.9228   2.9291
  2.9471   2.9555   2.9579   2.9642   2.9659   2.9840   2.9870   2.9986
  3.0080   3.0103   3.0114   3.0228   3.0286   3.0353   3.0371   3.0432
  3.0448   3.0526   3.0678   3.0683   3.0823   3.0873   3.0922   3.0992
  3.1026   3.1049   3.1091   3.1145   3.1190   3.1220   3.1303   3.1348
  3.1479   3.1541   3.1591   3.1599   3.1637   3.1714   3.1781   3.1830
  3.1933   3.2038   3.2096   3.2100   3.2129   3.2190   3.2272   3.2273
  3.2324   3.2355   3.2404   3.2508   3.2551   3.2592   3.2618   3.2708
  3.2730   3.2785   3.2798   3.2830   3.2902   3.2955   3.2991   3.3066
  3.3091   3.3213   3.3284   3.3317   3.3373   3.3456   3.3470   3.3510
  3.3548   3.3591   3.3633   3.3657   3.3680   3.3719   3.3738   3.3809
  3.3876   3.3882   3.3937   3.3964   3.4013   3.4042   3.4137   3.4186
  3.4259   3.4269   3.4323   3.4366   3.4418   3.4478   3.4500   3.4552
  3.4643   3.4657   3.4698   3.4735   3.4782   3.4810   3.4829   3.4907
  3.4922   3.5053   3.5115   3.5162   3.5194   3.5245   3.5300   3.5361
  3.5384   3.5398   3.5503   3.5562   3.5586   3.5662   3.5749   3.5787
  3.5835   3.5856   3.5931   3.5988   3.6016   3.6050   3.6074   3.6166
  3.6230   3.6277   3.6292   3.6355   3.6422   3.6525   3.6554   3.6604
  3.6621   3.6736   3.6756   3.6829   3.6866   3.6953   3.7013   3.7051
  3.7066   3.7113   3.7137   3.7273   3.7284   3.7331   3.7370   3.7483
  3.7520   3.7572   3.7627   3.7724   3.7769   3.7844   3.7859   3.7900
  3.7964   3.7975   3.8028   3.8093   3.8103   3.8211   3.8212   3.8272
  3.8337   3.8410   3.8452   3.8559   3.8580   3.8649   3.8686   3.8725
  3.8792   3.8830   3.8869   3.8972   3.9008   3.9066   3.9093   3.9203
  3.9260   3.9282   3.9448   3.9500   3.9558   3.9573   3.9733   3.9835
  3.9860   3.9983   4.0059   4.0076   4.0138   4.0295   4.0338   4.0421
  4.0452   4.0547   4.0653   4.0680   4.0698   4.0763   4.0863   4.0897
  4.1021   4.1189   4.1223   4.1300   4.1416   4.1431   4.1499   4.1554
  4.1605   4.1666   4.1712   4.1729   4.1858   4.1910   4.1973   4.2018
  4.2032   4.2143   4.2230   4.2356   4.2444   4.2478   4.2559   4.2651
  4.2753   4.2887   4.3058   4.3259   4.3287   4.3364   4.3415   4.3510
  4.3570   4.3646   4.3666   4.3724   4.3816   4.3833   4.3893   4.4032
  4.4090   4.4124   4.4161   4.4208   4.4281   4.4355   4.4382   4.4520
  4.4546   4.4730   4.4780   4.4908   4.5021   4.5077   4.5166   4.5263
  4.5376   4.5446   4.5491   4.5598   4.5649   4.5712   4.5877   4.5901
  4.5922   4.6138   4.6234   4.6322   4.6351   4.6446   4.6506   4.6525
  4.6707   4.6739   4.6752   4.6840   4.6885   4.7142   4.7305   4.7370
  4.7448   4.7549   4.7573   4.7629   4.7766   4.7904   4.8015   4.8200
  4.8322   4.8429   4.8475   4.8578   4.8665   4.8749   4.8883   4.8990
  4.9301   4.9432   4.9502   4.9607   4.9620   4.9686   4.9887   4.9950
  5.0050   5.0085   5.0158   5.0318   5.0389   5.0476   5.0681   5.0711
  5.0859   5.0987   5.1165   5.1244   5.1619   5.1687   5.1750   5.1964
  5.2043   5.2200   5.2441   5.2471   5.2509   5.2570   5.2583   5.2812
  5.2989   5.3090   5.3153   5.3271   5.3396   5.3491   5.3612   5.3699
  5.3790   5.3929   5.4018   5.4034   5.4187   5.4257   5.4411   5.4655
  5.4845   5.4870   5.5009   5.5077   5.5141   5.5224   5.5359   5.5675
  5.5788   5.5834   5.5891   5.6073   5.6209   5.6238   5.6494   5.6614
  5.7237   5.7249   5.7428   5.7797   5.8069   5.8175   5.8266   5.8558
  5.8744   5.8867   5.9109   5.9285   5.9429   5.9741   6.0053   6.0408
  6.0430   6.0795   6.1077   6.1500   6.1569   6.1716   6.1795   6.1851
  6.2411   6.2491   6.2607   6.2634   6.2722   6.2825   6.3126   6.3465
  6.4146   6.4484   6.4494   6.4816   6.5392   6.5498   6.5595   6.6019
  6.6572   6.6614   6.6706   6.7033   6.7447   6.8029   6.8292   6.8387
  6.8591   6.8954   6.9776   7.1232   7.1364   7.2033   7.2045   7.2167
  7.2372   7.3094   7.3239   7.3331   7.3616   7.3622   7.4043   7.4127
  7.4788   7.4840   7.4899   7.5196   7.5487   7.6149   7.7040   7.7713
  7.7889   7.7987   7.8918   7.9213   7.9432   7.9608   8.0673   8.1325
  8.4598   8.9206   9.0215   9.3617   9.4742   9.6608  10.0821  10.4652
 11.1832  11.3830  11.7725  11.9849  12.1305  12.1724  12.4190  12.5743
 12.6578  12.9638  12.9903  13.1609  13.3556  13.3861  13.7710  13.8494
 13.9034  14.0249  14.0403  14.6329  15.2077
 --------------------------------------------------------------
 
          Ground-State Mulliken Net Atomic Charges

     Atom                 Charge (a.u.)
  ----------------------------------------
      1 C                    -0.194921
      2 C                    -0.253885
      3 S                    -0.025188
      4 C                    -0.021173
      5 H                     0.195460
      6 C                    -0.025716
      7 C                     0.236660
      8 C                     0.246264
      9 C                    -0.044023
     10 C                    -0.019568
     11 O                    -0.333432
     12 O                    -0.341187
     13 C                    -0.086124
     14 H                     0.122606
     15 H                     0.090838
     16 H                     0.092830
     17 C                    -0.087684
     18 H                     0.125572
     19 H                     0.094926
     20 H                     0.089002
     21 C                    -0.247300
     22 S                    -0.044400
     23 C                    -0.001535
     24 H                     0.192954
     25 H                     0.205312
     26 C                    -0.048120
     27 S                     0.113713
     28 C                    -0.170275
     29 C                    -0.007449
     30 C                    -0.094483
     31 S                     0.044304
     32 C                    -0.160567
     33 C                     0.402380
     34 F                    -0.205373
     35 C                     0.446770
     36 O                    -0.460957
     37 O                    -0.300990
     38 C                    -0.058284
     39 H                     0.121548
     40 H                     0.095381
     41 H                     0.095173
     42 H                     0.220942
  ----------------------------------------
  Sum of atomic charges =     0.000000

 -----------------------------------------------------------------
                    Cartesian Multipole Moments
 -----------------------------------------------------------------
    Charge (ESU x 10^10)
                -0.0000
    Dipole Moment (Debye)
         X       2.4544      Y       1.9995      Z       3.0690
       Tot       4.4092
    Quadrupole Moments (Debye-Ang)
        XX    -187.4250     XY       7.4393     YY    -171.6908
        XZ     -16.0708     YZ      -6.5905     ZZ    -188.1270
    Octopole Moments (Debye-Ang^2)
       XXX    -368.4659    XXY     409.5508    XYY     -96.1080
       YYY     995.8568    XXZ     159.4487    XYZ      25.8345
       YYZ     148.4551    XZZ     -64.4290    YZZ     414.6212
       ZZZ     599.0930
    Hexadecapole Moments (Debye-Ang^3)
      XXXX   -2046.3393   XXXY    -553.0744   XXYY   -3840.4055
      XYYY    -583.5314   YYYY  -18344.1568   XXXZ    1360.7378
      XXYZ     151.3009   XYYZ      67.4524   YYYZ     624.3893
      XXZZ   -1247.8017   XYZZ      78.0184   YYZZ   -4136.3269
      XZZZ     978.4638   YZZZ     307.7613   ZZZZ   -7250.1512
 -----------------------------------------------------------------
 Total job time:  303.66s(wall), 9301.62s(cpu) 
 Mon Jan  8 21:07:45 2024

        *************************************************************
        *                                                           *
        *  Thank you very much for using Q-Chem.  Have a nice day.  *
        *                                                           *
        *************************************************************


0 sent ACK to 0 
now end server 0 ... 
cleanup process ... done
remove work dirs ./qchem1925473.0 -- ./qchem1925473.0
rm -rf ./qchem1925473.0
rm -rf ./qchem1925473
