You are running Q-Chem version: 5.4.0

#
# job setting
#
local host:  exp-1-20
current dir: /home/rramji/project-csd799/aromodel/ptb7fout-qchem/rotation-run
input file:  Dimethoxy_Benzodithiophene_Phi_50_Theta_130_Methylcarbonyl_3_Fluoro_Thienothiophene.qcin
output file: 
nprocs     : 1
nthreads   : 64
#
# qchem installation setting
#
QC:          /cm/shared/apps/spack/cpu/opt/spack/linux-centos8-zen2/gcc-10.2.0/qchem-5.4-akfmr7b3t57bfs6qan3padb2wnb2i7cl
QCAUX:       /cm/shared/apps/spack/cpu/opt/spack/linux-centos8-zen2/gcc-10.2.0/qchem-5.4-akfmr7b3t57bfs6qan3padb2wnb2i7cl/qcaux
QCPROG:      /cm/shared/apps/spack/cpu/opt/spack/linux-centos8-zen2/gcc-10.2.0/qchem-5.4-akfmr7b3t57bfs6qan3padb2wnb2i7cl/exe/qcprog.exe
QCPROG_S:    /cm/shared/apps/spack/cpu/opt/spack/linux-centos8-zen2/gcc-10.2.0/qchem-5.4-akfmr7b3t57bfs6qan3padb2wnb2i7cl/exe/qcprog.exe_s
PARALLEL:    -DPARALLEL
QCMPI:       mpich
#
# qchem directory setting
#
qcrun:       qchem3306930
QCSCRATCH:   .
QCLOCALSCR:  
QCTMPDIR:    .
QCFILEPREF:  ./qchem3306930
QCSAVEDIR:   
workdirs:    ./qchem3306930
workdir0:    ./qchem3306930
partmpdirs =  
#
# parallel setting
#
QCRSH:           ssh
QCMPI:           mpich
QCMPIRUN:        /cm/shared/apps/spack/cpu/opt/spack/linux-centos8-zen2/gcc-10.2.0/qchem-5.4-akfmr7b3t57bfs6qan3padb2wnb2i7cl/bin/mpi/mpirun_qchem
QCMACHINEFILE:   ./qchem3306930/hostfile
exp-1-20

#
# env setting
#
exported envs:   QC QCAUX QCSCRATCH QCRUNNAME QCFILEPREF QCPROG QCPROG_S GUIFILE

Running Job 1 of 1 Dimethoxy_Benzodithiophene_Phi_50_Theta_130_Methylcarbonyl_3_Fluoro_Thienothiophene.qcin
qchem Dimethoxy_Benzodithiophene_Phi_50_Theta_130_Methylcarbonyl_3_Fluoro_Thienothiophene.qcin_3306930.0 ./qchem3306930/ 1
/cm/shared/apps/spack/cpu/opt/spack/linux-centos8-zen2/gcc-10.2.0/qchem-5.4-akfmr7b3t57bfs6qan3padb2wnb2i7cl/bin/mpi/mpirun_qchem -machinefile ./qchem3306930/hostfile -np 1 /cm/shared/apps/spack/cpu/opt/spack/linux-centos8-zen2/gcc-10.2.0/qchem-5.4-akfmr7b3t57bfs6qan3padb2wnb2i7cl/exe/qcprog.exe Dimethoxy_Benzodithiophene_Phi_50_Theta_130_Methylcarbonyl_3_Fluoro_Thienothiophene.qcin_3306930.0 ./qchem3306930/

Process 0 of 1 is on exp-1-20 - thread support 0
initial socket setup ...start
initial socket setup ...done 
now start server 0 ... 
                  Welcome to Q-Chem
     A Quantum Leap Into The Future Of Chemistry


 Q-Chem 5.4, Q-Chem, Inc., Pleasanton, CA (2021)

 License issued to: University of California, San Diego (site)

 E. Epifanovsky,  A. T. B. Gilbert,  Xintian Feng,  Joonho Lee,  Yuezhi Mao,  
 N. Mardirossian,  P. Pokhilko,  A. White,  M. Wormit,  M. P. Coons,  
 A. L. Dempwolff,  Zhengting Gan,  D. Hait,  P. R. Horn,  L. D. Jacobson,  
 I. Kaliman,  J. Kussmann,  A. W. Lange,  Ka Un Lao,  D. S. Levine,  Jie Liu,  
 S. C. McKenzie,  A. F. Morrison,  K. Nanda,  F. Plasser,  D. R. Rehn,  
 M. L. Vidal,  Zhi-Qiang You,  Ying Zhu,  B. Alam,  B. Albrecht,  
 A. Aldossary,  E. Alguire,  J. H. Andersen,  D. Barton,  K. Begam,  A. Behn,  
 Y. A. Bernard,  E. J. Berquist,  H. Burton,  A. Carreras,  K. Carter-Fenk,  
 R. Chakraborty,  A. D. Chien,  K. D. Closser,  V. Cofer-Shabica,  
 S. Dasgupta,  Jia Deng,  M. de Wergifosse,  M. Diedenhofen,  Hainam Do,  
 S. Ehlert,  Po-Tung Fang,  S. Fatehi,  Qingguo Feng,  J. Gayvert,  
 Qinghui Ge,  G. Gidofalvi,  M. Goldey,  J. Gomes,  C. Gonzalez-Espinoza,  
 S. Gulania,  A. Gunina,  M. W. D. Hanson-Heine,  P. H. P. Harbach,  
 A. W. Hauser,  M. F. Herbst,  M. Hernandez Vera,  M. Hodecker,  
 Z. C. Holden,  S. Houck,  Xunkun Huang,  Kerwin Hui,  B. C. Huynh,  
 M. Ivanov,  Hyunjun Ji,  Hanjie Jiang,  B. Kaduk,  S. Kaehler,  
 K. Khistyaev,  Jaehoon Kim,  P. Klunzinger,  Z. Koczor-Benda,  
 Joong Hoon Koh,  D. Kosenkov,  L. Koulias,  T. Kowalczyk,  C. M. Krauter,  
 K. Kue,  A. Kunitsa,  T. Kus,  A. Landau,  K. V. Lawler,  D. Lefrancois,  
 S. Lehtola,  Rain Li,  Yi-Pei Li,  Jiashu Liang,  M. Liebenthal,  
 Hung-Hsuan Lin,  You-Sheng Lin,  Fenglai Liu,  Kuan-Yu Liu,  
 M. Loipersberger,  A. Luenser,  A. Manjanath,  P. Manohar,  E. Mansoor,  
 S. F. Manzer,  Shan-Ping Mao,  A. V. Marenich,  T. Markovich,  S. Mason,  
 S. A. Maurer,  P. F. McLaughlin,  M. F. S. J. Menger,  J.-M. Mewes,  
 S. A. Mewes,  P. Morgante,  J. W. Mullinax,  T. S. Nguyen-Beck,  
 K. J. Oosterbaan,  G. Paran,  Alexander C. Paul,  Suranjan K. Paul,  
 F. Pavosevic,  Zheng Pei,  S. Prager,  E. I. Proynov,  E. Ramos,  B. Rana,  
 A. E. Rask,  A. Rettig,  R. M. Richard,  F. Rob,  E. Rossomme,  T. Scheele,  
 M. Scheurer,  M. Schneider,  N. Sergueev,  S. M. Sharada,  W. Skomorowski,  
 D. W. Small,  C. J. Stein,  Yu-Chuan Su,  E. J. Sundstrom,  Zhen Tao,  
 J. Thirman,  T. Tsuchimochi,  N. M. Tubman,  S. P. Veccham,  O. Vydrov,  
 J. Wenzel,  J. Witte,  A. Yamada,  Kun Yao,  S. Yeganeh,  S. R. Yost,  
 A. Zech,  Igor Ying Zhang,  Xing Zhang,  Yu Zhang,  D. Zuev,  
 A. Aspuru-Guzik,  A. T. Bell,  N. A. Besley,  K. B. Bravaya,  B. R. Brooks,  
 D. Casanova,  Jeng-Da Chai,  S. Coriani,  C. J. Cramer,  
 A. E. DePrince, III,  R. A. DiStasio Jr.,  A. Dreuw,  B. D. Dunietz,  
 T. R. Furlani,  W. A. Goddard III,  S. Grimme,  S. Hammes-Schiffer,  
 T. Head-Gordon,  W. J. Hehre,  Chao-Ping Hsu,  T.-C. Jagau,  Yousung Jung,  
 A. Klamt,  Jing Kong,  D. S. Lambrecht,  WanZhen Liang,  N. J. Mayhall,  
 C. W. McCurdy,  J. B. Neaton,  C. Ochsenfeld,  J. A. Parkhill,  R. Peverati,  
 V. A. Rassolov,  Yihan Shao,  L. V. Slipchenko,  T. Stauch,  R. P. Steele,  
 J. E. Subotnik,  A. J. W. Thom,  A. Tkatchenko,  D. G. Truhlar,  
 T. Van Voorhis,  T. A. Wesolowski,  K. B. Whaley,  H. L. Woodcock III,  
 P. M. Zimmerman,  S. Faraji,  P. M. W. Gill,  M. Head-Gordon,  
 J. M. Herbert,  A. I. Krylov

 Contributors to earlier versions of Q-Chem not listed above: 
 R. D. Adamson,  B. Austin,  R. Baer,  J. Baker,  G. J. O. Beran,  
 K. Brandhorst,  S. T. Brown,  E. F. C. Byrd,  A. K. Chakraborty,  
 G. K. L. Chan,  Chun-Min Chang,  Yunqing Chen,  C.-L. Cheng,  
 Siu Hung Chien,  D. M. Chipman,  D. L. Crittenden,  H. Dachsel,  
 R. J. Doerksen,  A. D. Dutoi,  R. G. Edgar,  J. Fosso-Tande,  
 L. Fusti-Molnar,  D. Ghosh,  A. Ghysels,  A. Golubeva-Zadorozhnaya,  
 J. Gonthier,  M. S. Gordon,  S. R. Gwaltney,  G. Hawkins,  J. E. Herr,  
 A. Heyden,  S. Hirata,  E. G. Hohenstein,  G. Kedziora,  F. J. Keil,  
 C. Kelley,  Jihan Kim,  R. A. King,  R. Z. Khaliullin,  P. P. Korambath,  
 W. Kurlancheek,  A. Laurent,  A. M. Lee,  M. S. Lee,  S. V. Levchenko,  
 Ching Yeh Lin,  D. Liotard,  E. Livshits,  R. C. Lochan,  I. Lotan,  
 L. A. Martinez-Martinez,  P. E. Maslen,  N. Nair,  D. P. O'Neill,  
 D. Neuhauser,  E. Neuscamman,  C. M. Oana,  R. Olivares-Amaya,  R. Olson,  
 T. M. Perrine,  B. Peters,  P. A. Pieniazek,  A. Prociuk,  Y. M. Rhee,  
 J. Ritchie,  M. A. Rohrdanz,  E. Rosta,  N. J. Russ,  H. F. Schaefer III,  
 M. W. Schmidt,  N. E. Schultz,  S. Sharma,  N. Shenvi,  C. D. Sherrill,  
 A. C. Simmonett,  A. Sodt,  T. Stein,  D. Stuck,  K. S. Thanthiriwatte,  
 V. Vanovschi,  L. Vogt,  Tao Wang,  A. Warshel,  M. A. Watson,  
 C. F. Williams,  Q. Wu,  X. Xu,  Jun Yang,  W. Zhang,  Yan Zhao

 Please cite Q-Chem as follows:
 Y. Shao et al., Mol. Phys. 113, 184-215 (2015)
 DOI: 10.1080/00268976.2014.952696

 Q-Chem 5.4.0 for Intel X86 EM64T Linux

 Parts of Q-Chem use Armadillo 9.800.1 (Horizon Scraper).
 http://arma.sourceforge.net/

 Q-Chem begins on Mon Jan  8 20:02:52 2024  

 Host: 
0

     Scratch files written to ./qchem3306930//
 May1621 |scratch|qcdevops|jenkins|workspace|build_RNUM    
 Parallel job on  1  processors
 Processing $rem in /cm/shared/apps/spack/cpu/opt/spack/linux-centos8-zen2/gcc-10.2.0/qchem-5.4-akfmr7b3t57bfs6qan3padb2wnb2i7cl/config/preferences:
 Processing $rem in /home/rramji/.qchemrc:
 Symmetry turned off for PCM/SM12/SMD calculation
 Core orbitals will be frozen

 Checking the input file for inconsistencies... 	...done.

 Q-Chem warning in module forms1/BasisType.C, line 2236:

 You are not using the predefined 5D/6D in this basis set.


--------------------------------------------------------------
User input:
--------------------------------------------------------------
$molecule
0 1
C	-0.217225	-8.517702	-0.236226
C	0.611939	-7.641575	0.448921
S	-1.413715	-7.638634	-1.218777
C	0.323572	-6.264785	0.206907
H	1.418739	-7.966081	1.118185
C	-0.768156	-6.072714	-0.711285
C	-1.215016	-4.787049	-1.053725
C	0.999917	-5.162801	0.804258
C	0.550033	-3.874817	0.464908
C	-0.541024	-3.683952	-0.456457
O	2.028811	-5.499772	1.630752
O	-2.249357	-4.459055	-1.883064
C	-2.586579	-5.329063	-2.956754
H	-3.262802	-4.755694	-3.619069
H	-3.124711	-6.238095	-2.609423
H	-1.686639	-5.637262	-3.531667
C	2.503251	-4.572261	2.599073
H	3.185356	-5.139743	3.260097
H	1.672937	-4.153131	3.207034
H	3.075213	-3.739531	2.135214
C	-0.828107	-2.306654	-0.694410
S	1.188794	-2.306501	0.983256
C	0.000000	-1.435185	0.000000
H	-1.632185	-1.978138	-1.364851
H	-0.221288	-9.614033	-0.234980
C	0.000000	0.000000	0.000000
S	0.693394	0.581209	1.507541
C	1.897536	1.592607	0.718873
C	0.693330	0.580791	-1.067872
C	1.756758	1.476132	-0.686410
S	0.508573	0.422041	-2.805516
C	1.846879	1.552232	-3.054530
C	2.387897	2.009402	-1.862551
F	3.408741	2.872264	-1.819088
C	2.191300	1.838768	-4.456084
O	1.606694	1.337806	-5.406510
O	3.221062	2.712584	-4.569225
C	3.603677	3.026817	-5.916207
H	4.442623	3.739898	-5.833064
H	2.758956	3.483875	-6.470168
H	3.921969	2.114070	-6.459293
H	2.604650	2.187790	1.306486
$end

$rem
JOBTYPE		SP
EXCHANGE	HF
CORRELATION	pRIMP2
BASIS		cc-pvtz
METHOD		rimp2
AUX_BASIS	rimp2-cc-pvtz
SOLVENT_METHOD	PCM
PURECART	11111
SYMMETRY	false
MEM_TOTAL	110000
SCF_CONVERGENCE = 6
THRESH=10
GUI = 2
$end



$solvent
dielectric 4.90
$end
--------------------------------------------------------------
 ----------------------------------------------------------------
             Standard Nuclear Orientation (Angstroms)
    I     Atom           X                Y                Z
 ----------------------------------------------------------------
    1      C      -0.2172250000    -8.5177020000    -0.2362260000
    2      C       0.6119390000    -7.6415750000     0.4489210000
    3      S      -1.4137150000    -7.6386340000    -1.2187770000
    4      C       0.3235720000    -6.2647850000     0.2069070000
    5      H       1.4187390000    -7.9660810000     1.1181850000
    6      C      -0.7681560000    -6.0727140000    -0.7112850000
    7      C      -1.2150160000    -4.7870490000    -1.0537250000
    8      C       0.9999170000    -5.1628010000     0.8042580000
    9      C       0.5500330000    -3.8748170000     0.4649080000
   10      C      -0.5410240000    -3.6839520000    -0.4564570000
   11      O       2.0288110000    -5.4997720000     1.6307520000
   12      O      -2.2493570000    -4.4590550000    -1.8830640000
   13      C      -2.5865790000    -5.3290630000    -2.9567540000
   14      H      -3.2628020000    -4.7556940000    -3.6190690000
   15      H      -3.1247110000    -6.2380950000    -2.6094230000
   16      H      -1.6866390000    -5.6372620000    -3.5316670000
   17      C       2.5032510000    -4.5722610000     2.5990730000
   18      H       3.1853560000    -5.1397430000     3.2600970000
   19      H       1.6729370000    -4.1531310000     3.2070340000
   20      H       3.0752130000    -3.7395310000     2.1352140000
   21      C      -0.8281070000    -2.3066540000    -0.6944100000
   22      S       1.1887940000    -2.3065010000     0.9832560000
   23      C       0.0000000000    -1.4351850000     0.0000000000
   24      H      -1.6321850000    -1.9781380000    -1.3648510000
   25      H      -0.2212880000    -9.6140330000    -0.2349800000
   26      C       0.0000000000     0.0000000000     0.0000000000
   27      S       0.6933940000     0.5812090000     1.5075410000
   28      C       1.8975360000     1.5926070000     0.7188730000
   29      C       0.6933300000     0.5807910000    -1.0678720000
   30      C       1.7567580000     1.4761320000    -0.6864100000
   31      S       0.5085730000     0.4220410000    -2.8055160000
   32      C       1.8468790000     1.5522320000    -3.0545300000
   33      C       2.3878970000     2.0094020000    -1.8625510000
   34      F       3.4087410000     2.8722640000    -1.8190880000
   35      C       2.1913000000     1.8387680000    -4.4560840000
   36      O       1.6066940000     1.3378060000    -5.4065100000
   37      O       3.2210620000     2.7125840000    -4.5692250000
   38      C       3.6036770000     3.0268170000    -5.9162070000
   39      H       4.4426230000     3.7398980000    -5.8330640000
   40      H       2.7589560000     3.4838750000    -6.4701680000
   41      H       3.9219690000     2.1140700000    -6.4592930000
   42      H       2.6046500000     2.1877900000     1.3064860000
 ----------------------------------------------------------------
 Nuclear Repulsion Energy =        3332.74124995 hartrees
 There are      119 alpha and      119 beta electrons
 Requested basis set is cc-pVTZ
 There are 376 shells and 1068 basis functions

 Total QAlloc Memory Limit 110000 MB
 Mega-Array Size       188 MB
 MEM_STATIC part       192 MB
 Discretize the solute cavity surface with Lebedev spheres
	Using 110 Lebedev grid points for each H atom
	Using 194 Lebedev grid points for other atoms
	Atomic van der Waals radii will be scaled by 1.20
 Remove points where switching function is < 1.0e-08
 Keep 2875 surface tesserae and discard 4181 interior tesserae
 Molecular Surface Area = 437.091 Angst**2
 Requested basis set is rimp2-cc-pVTZ
 There are 833 shells and 2903 basis functions
 A cutoff of  1.0D-10 yielded  31586 shell pairs
 There are    242084 function pairs (    314122 Cartesian)
 Smallest overlap matrix eigenvalue = 2.19E-05

 Scale SEOQF with 1.000000e-01/1.000000e-02/1.000000e-02

 Standard Electronic Orientation quadrupole field applied
 Nucleus-field energy     =     0.0000000416 hartrees
 Guess from superposition of atomic densities
 Warning:  Energy on first SCF cycle will be non-variational
 SAD guess density has 238.000000 electrons

 -----------------------------------------------------------------------
  General SCF calculation program by
  Eric Jon Sundstrom, Paul Horn, Yuezhi Mao, Dmitri Zuev, Alec White,
  David Stuck, Shaama M.S., Shane Yost, Joonho Lee, David Small,
  Daniel Levine, Susi Lehtola, Hugh Burton, Evgeny Epifanovsky,
  Bang C. Huynh
 -----------------------------------------------------------------------
 Hartree-Fock
 using 64 threads for integral computing
 -------------------------------------------------------
 OpenMP Integral computing Module                
 Release: version 1.0, May 2013, Q-Chem Inc. Pittsburgh 
 -------------------------------------------------------
 A restricted SCF calculation will be
 performed using DIIS
 SCF converges when DIIS error is below 1.0e-06
 ---------------------------------------
  Cycle       Energy         DIIS error
 ---------------------------------------
    1   -2765.3020696774      1.75e-02  
    2   -2753.8314597676      1.57e-03  
    3   -2754.1722131302      8.69e-04  
    4   -2754.2556216735      2.56e-04  
    5   -2754.2674016501      6.95e-05  
    6   -2754.2684920612      2.40e-05  
    7   -2754.2687307876      1.14e-05  
    8   -2754.2688096155      4.36e-06  
    9   -2754.2688250724      1.74e-06  
   10   -2754.2688270988      8.00e-07  Convergence criterion met
 ---------------------------------------
 SCF time:   CPU 6178.52s  wall 245.00s 

************** Final PCM Free Energy Summary **************
 G_electrostatic  =      -0.02022400 hartree =     -12.69075374 kcal/mol
 G_cavitation     =       0.00000000 hartree =       0.00000000 kcal/mol
 G_dispersion     =       0.00000000 hartree =       0.00000000 kcal/mol
 G_repulsion      =       0.00000000 hartree =       0.00000000 kcal/mol
 --------------------------------------------------
 Non-electrostatic Free Energy =       0.00000000 hartree =       0.00000000 kcal/mol
 Total                         =      -0.02022400 hartree =     -12.69075374 kcal/mol
 --------------------------------------------------
 SCF Energy (H0 + V/2)                       =   -2754.26882710 
 Solute Internal Energy (H0)                 =   -2754.24860310 
 Total Free Energy (H0 + V/2 + non-elec)     =   -2754.26882710 hartree
                                             = -1728329.77468453 kcal/mol
***********************************************************

 SCF   energy in the final basis set =    -2754.2688270988
 Total energy in the final basis set =    -2754.2688270988


 --------------------------------------------------------------
  Generalized many-body perturbation theory program
  by Joonho Lee, Fazle Rob, Xintian Feng, Evgeny Epifanovsky

 No regularization used 
 (reg. param. = 0.0000e+00)
  (P|Q)^-1/2 Time:  CPU 327.39 s  wall 5.60 s

 In RI-MP2 calculation: 
 # of frozen core orbitals: 45

 Components of the RIMP2 correlation energy:
        aaaa    correlation energy =        -0.6716516287 a.u.
        abab    correlation energy =        -3.7179302150 a.u.
        bbbb    correlation energy =        -0.6716516287 a.u.
        non-Brillouin singles      =        -0.0000000000 a.u.
        total same-spin energy     =        -1.3433032574 a.u.
        total opposite-spin energy =        -3.7179302150 a.u.

 Total  RIMP2   correlation energy =        -5.0612334724 a.u.
        RIMP2         total energy =     -2759.3300605712 a.u.

 RI-MP2 Energy Time:  CPU 3436.33 s  wall 57.57 s
 
 --------------------------------------------------------------
 
                    Orbital Energies (a.u.)
 --------------------------------------------------------------
 
 Alpha MOs
 -- Occupied --
-92.0142 -92.0067 -91.9866 -91.9834 -26.3457 -20.6154 -20.5911 -20.5872
-20.5619 -11.4104 -11.3861 -11.3289 -11.3174 -11.3169 -11.3108 -11.2984
-11.2933 -11.2893 -11.2881 -11.2867 -11.2836 -11.2811 -11.2798 -11.2787
-11.2756 -11.2568 -11.2532 -11.2478 -11.2402  -9.0137  -9.0064  -8.9873
 -8.9833  -6.6944  -6.6936  -6.6933  -6.6873  -6.6865  -6.6855  -6.6681
 -6.6674  -6.6664  -6.6643  -6.6637  -6.6628  -1.6627  -1.4680  -1.4150
 -1.4102  -1.3707  -1.2308  -1.1904  -1.1646  -1.1391  -1.0838  -1.0481
 -1.0447  -1.0264  -0.9979  -0.9867  -0.9649  -0.9585  -0.9486  -0.9384
 -0.8935  -0.8710  -0.8460  -0.8116  -0.7965  -0.7851  -0.7839  -0.7623
 -0.7559  -0.7305  -0.7275  -0.7127  -0.6996  -0.6861  -0.6826  -0.6790
 -0.6746  -0.6594  -0.6573  -0.6501  -0.6287  -0.6174  -0.6153  -0.6063
 -0.6000  -0.5904  -0.5764  -0.5704  -0.5637  -0.5625  -0.5532  -0.5366
 -0.5331  -0.5310  -0.5199  -0.5161  -0.5128  -0.5120  -0.5028  -0.4926
 -0.4871  -0.4843  -0.4757  -0.4741  -0.4705  -0.4600  -0.4589  -0.4150
 -0.3957  -0.3812  -0.3554  -0.3501  -0.3193  -0.2962  -0.2506
 -- Virtual --
  0.0223   0.0713   0.0832   0.1267   0.1406   0.1415   0.1503   0.1535
  0.1567   0.1578   0.1641   0.1725   0.1820   0.1845   0.1878   0.1912
  0.2037   0.2049   0.2120   0.2146   0.2207   0.2239   0.2252   0.2279
  0.2310   0.2355   0.2438   0.2490   0.2576   0.2606   0.2710   0.2770
  0.2961   0.2999   0.3040   0.3289   0.3333   0.3386   0.3423   0.3441
  0.3539   0.3548   0.3642   0.3741   0.3770   0.3829   0.3848   0.3874
  0.3891   0.3900   0.3956   0.4054   0.4090   0.4121   0.4155   0.4214
  0.4265   0.4295   0.4363   0.4414   0.4449   0.4485   0.4526   0.4547
  0.4627   0.4649   0.4700   0.4743   0.4804   0.4858   0.4873   0.4916
  0.4937   0.4978   0.5035   0.5037   0.5117   0.5146   0.5218   0.5252
  0.5257   0.5332   0.5356   0.5372   0.5400   0.5434   0.5460   0.5475
  0.5523   0.5573   0.5592   0.5630   0.5647   0.5705   0.5778   0.5832
  0.5875   0.5954   0.5967   0.5996   0.6032   0.6064   0.6106   0.6121
  0.6135   0.6179   0.6196   0.6215   0.6250   0.6298   0.6338   0.6368
  0.6421   0.6447   0.6463   0.6533   0.6550   0.6617   0.6646   0.6649
  0.6768   0.6800   0.6823   0.6853   0.6873   0.6975   0.7021   0.7101
  0.7114   0.7173   0.7212   0.7234   0.7270   0.7400   0.7414   0.7498
  0.7548   0.7607   0.7656   0.7695   0.7772   0.7822   0.7890   0.8035
  0.8059   0.8114   0.8120   0.8182   0.8214   0.8314   0.8344   0.8414
  0.8453   0.8504   0.8565   0.8608   0.8639   0.8695   0.8739   0.8820
  0.8872   0.8917   0.9003   0.9060   0.9112   0.9191   0.9225   0.9255
  0.9352   0.9375   0.9396   0.9475   0.9526   0.9563   0.9582   0.9672
  0.9721   0.9772   0.9800   0.9837   0.9880   0.9967   1.0036   1.0050
  1.0066   1.0113   1.0201   1.0219   1.0279   1.0309   1.0360   1.0405
  1.0456   1.0493   1.0579   1.0604   1.0655   1.0752   1.0788   1.0810
  1.0862   1.0919   1.0980   1.1023   1.1055   1.1065   1.1110   1.1143
  1.1179   1.1238   1.1258   1.1303   1.1391   1.1434   1.1511   1.1588
  1.1604   1.1680   1.1732   1.1793   1.1829   1.1873   1.1901   1.1930
  1.1956   1.2083   1.2110   1.2144   1.2173   1.2228   1.2240   1.2345
  1.2355   1.2435   1.2456   1.2490   1.2611   1.2664   1.2679   1.2741
  1.2767   1.2805   1.2845   1.2915   1.2925   1.3032   1.3114   1.3205
  1.3255   1.3282   1.3330   1.3447   1.3518   1.3571   1.3652   1.3741
  1.3776   1.3872   1.3905   1.3941   1.4000   1.4068   1.4158   1.4287
  1.4340   1.4368   1.4451   1.4492   1.4649   1.4673   1.4843   1.4894
  1.4961   1.5001   1.5031   1.5092   1.5125   1.5136   1.5287   1.5305
  1.5344   1.5373   1.5386   1.5442   1.5474   1.5545   1.5550   1.5715
  1.5737   1.5805   1.5867   1.5929   1.5987   1.6005   1.6204   1.6311
  1.6387   1.6478   1.6534   1.6576   1.6655   1.6666   1.6769   1.6849
  1.6917   1.6935   1.6977   1.7055   1.7117   1.7217   1.7346   1.7460
  1.7592   1.7620   1.7705   1.7777   1.7961   1.8009   1.8039   1.8147
  1.8181   1.8306   1.8354   1.8438   1.8524   1.8607   1.8715   1.8771
  1.8854   1.8910   1.8967   1.9042   1.9139   1.9217   1.9238   1.9299
  1.9409   1.9464   1.9546   1.9603   1.9657   1.9731   1.9755   1.9818
  1.9938   2.0018   2.0067   2.0187   2.0258   2.0392   2.0429   2.0575
  2.0699   2.0801   2.0881   2.0913   2.1149   2.1214   2.1327   2.1407
  2.1505   2.1597   2.1638   2.1700   2.1729   2.1791   2.1829   2.1919
  2.1948   2.2011   2.2184   2.2228   2.2285   2.2313   2.2357   2.2401
  2.2472   2.2507   2.2591   2.2678   2.2716   2.2800   2.2851   2.2907
  2.2941   2.3078   2.3186   2.3229   2.3356   2.3425   2.3534   2.3603
  2.3672   2.3754   2.3853   2.3900   2.4016   2.4075   2.4203   2.4270
  2.4349   2.4363   2.4427   2.4562   2.4632   2.4747   2.4826   2.4879
  2.4989   2.4999   2.5177   2.5215   2.5272   2.5419   2.5457   2.5551
  2.5634   2.5686   2.5781   2.5839   2.5871   2.6164   2.6178   2.6224
  2.6270   2.6317   2.6363   2.6409   2.6432   2.6544   2.6593   2.6644
  2.6709   2.6763   2.6891   2.6985   2.7014   2.7058   2.7062   2.7138
  2.7214   2.7241   2.7336   2.7421   2.7522   2.7609   2.7631   2.7737
  2.7824   2.7840   2.7937   2.7983   2.8041   2.8063   2.8098   2.8136
  2.8310   2.8332   2.8454   2.8474   2.8545   2.8570   2.8736   2.8765
  2.8784   2.8808   2.8885   2.8938   2.9033   2.9210   2.9280   2.9362
  2.9403   2.9476   2.9563   2.9659   2.9670   2.9770   2.9839   2.9873
  3.0104   3.0182   3.0217   3.0236   3.0270   3.0353   3.0399   3.0450
  3.0482   3.0575   3.0650   3.0700   3.0762   3.0878   3.0965   3.0994
  3.1028   3.1070   3.1138   3.1188   3.1215   3.1269   3.1370   3.1473
  3.1506   3.1526   3.1583   3.1639   3.1706   3.1777   3.1829   3.1848
  3.1930   3.2003   3.2056   3.2086   3.2137   3.2174   3.2252   3.2278
  3.2340   3.2381   3.2505   3.2511   3.2535   3.2604   3.2634   3.2671
  3.2733   3.2782   3.2887   3.2914   3.2957   3.3013   3.3055   3.3119
  3.3143   3.3199   3.3242   3.3327   3.3379   3.3441   3.3459   3.3488
  3.3540   3.3604   3.3607   3.3647   3.3697   3.3738   3.3769   3.3790
  3.3871   3.3925   3.3951   3.3977   3.4025   3.4092   3.4154   3.4190
  3.4227   3.4273   3.4309   3.4338   3.4470   3.4488   3.4522   3.4569
  3.4601   3.4628   3.4661   3.4718   3.4755   3.4801   3.4844   3.4856
  3.4973   3.5105   3.5142   3.5227   3.5264   3.5310   3.5329   3.5385
  3.5412   3.5443   3.5500   3.5566   3.5648   3.5741   3.5754   3.5853
  3.5876   3.5932   3.5949   3.5988   3.6014   3.6065   3.6114   3.6213
  3.6255   3.6329   3.6361   3.6383   3.6480   3.6541   3.6570   3.6588
  3.6669   3.6726   3.6843   3.6857   3.6898   3.6918   3.6978   3.7048
  3.7057   3.7095   3.7161   3.7226   3.7342   3.7357   3.7460   3.7475
  3.7525   3.7574   3.7640   3.7729   3.7817   3.7823   3.7845   3.7914
  3.7961   3.8005   3.8027   3.8049   3.8110   3.8168   3.8205   3.8270
  3.8319   3.8417   3.8499   3.8548   3.8617   3.8683   3.8701   3.8715
  3.8756   3.8884   3.8923   3.9018   3.9089   3.9122   3.9181   3.9248
  3.9297   3.9316   3.9394   3.9442   3.9479   3.9643   3.9732   3.9862
  3.9948   4.0008   4.0075   4.0139   4.0199   4.0228   4.0330   4.0428
  4.0515   4.0562   4.0611   4.0689   4.0735   4.0770   4.0889   4.0914
  4.0982   4.1181   4.1253   4.1290   4.1377   4.1459   4.1486   4.1544
  4.1630   4.1661   4.1678   4.1732   4.1820   4.1902   4.1956   4.2018
  4.2064   4.2135   4.2224   4.2286   4.2455   4.2518   4.2591   4.2655
  4.2824   4.3030   4.3068   4.3226   4.3237   4.3380   4.3414   4.3514
  4.3574   4.3591   4.3667   4.3725   4.3794   4.3860   4.3937   4.4026
  4.4073   4.4109   4.4132   4.4274   4.4303   4.4320   4.4365   4.4475
  4.4516   4.4738   4.4872   4.4889   4.5017   4.5035   4.5147   4.5260
  4.5294   4.5443   4.5500   4.5614   4.5711   4.5779   4.5849   4.5862
  4.6058   4.6112   4.6223   4.6291   4.6339   4.6450   4.6507   4.6522
  4.6644   4.6735   4.6799   4.6839   4.6930   4.7033   4.7294   4.7403
  4.7453   4.7540   4.7598   4.7661   4.7806   4.7881   4.7932   4.8204
  4.8330   4.8359   4.8449   4.8549   4.8636   4.8749   4.9021   4.9271
  4.9384   4.9451   4.9521   4.9588   4.9667   4.9710   4.9904   5.0054
  5.0084   5.0115   5.0137   5.0246   5.0449   5.0482   5.0696   5.0744
  5.0855   5.0932   5.1152   5.1306   5.1616   5.1725   5.1789   5.1919
  5.2001   5.2167   5.2258   5.2429   5.2503   5.2565   5.2590   5.2700
  5.2962   5.3046   5.3156   5.3276   5.3322   5.3499   5.3532   5.3698
  5.3805   5.4002   5.4007   5.4053   5.4257   5.4260   5.4306   5.4662
  5.4707   5.4846   5.5012   5.5079   5.5112   5.5157   5.5340   5.5588
  5.5778   5.5811   5.5861   5.6073   5.6210   5.6253   5.6387   5.6595
  5.7144   5.7233   5.7465   5.7585   5.8069   5.8154   5.8357   5.8552
  5.8749   5.8845   5.9037   5.9285   5.9635   5.9849   6.0134   6.0322
  6.0417   6.0730   6.1076   6.1313   6.1500   6.1717   6.1789   6.1817
  6.2307   6.2404   6.2499   6.2609   6.2724   6.2794   6.3029   6.3273
  6.4091   6.4451   6.4495   6.4759   6.5368   6.5498   6.5593   6.5967
  6.6572   6.6603   6.6705   6.6971   6.7439   6.8017   6.8286   6.8374
  6.8588   6.8952   6.9773   7.1244   7.1375   7.2032   7.2035   7.2174
  7.2369   7.3093   7.3231   7.3317   7.3610   7.3615   7.4040   7.4127
  7.4806   7.4834   7.4894   7.5170   7.5494   7.6144   7.7075   7.7707
  7.7877   7.7988   7.8848   7.9217   7.9424   7.9576   8.0708   8.1325
  8.3463   8.9198   9.0231   9.3607   9.4783   9.6595  10.1278  10.5629
 11.2334  11.4675  11.7788  12.0418  12.1335  12.1733  12.4316  12.5766
 12.6993  12.9505  13.0066  13.2760  13.3838  13.4509  13.7907  13.8488
 13.9056  14.0164  14.0425  14.4268  15.2052
 --------------------------------------------------------------
 
          Ground-State Mulliken Net Atomic Charges

     Atom                 Charge (a.u.)
  ----------------------------------------
      1 C                    -0.196956
      2 C                    -0.253558
      3 S                    -0.027207
      4 C                    -0.022874
      5 H                     0.195118
      6 C                    -0.024698
      7 C                     0.229849
      8 C                     0.241623
      9 C                    -0.052876
     10 C                    -0.011134
     11 O                    -0.333368
     12 O                    -0.341274
     13 C                    -0.085665
     14 H                     0.121696
     15 H                     0.090030
     16 H                     0.092947
     17 C                    -0.086967
     18 H                     0.125009
     19 H                     0.093991
     20 H                     0.088698
     21 C                    -0.283612
     22 S                    -0.019200
     23 C                    -0.005574
     24 H                     0.194614
     25 H                     0.204804
     26 C                    -0.095937
     27 S                     0.099559
     28 C                    -0.137592
     29 C                     0.067882
     30 C                    -0.106461
     31 S                     0.044237
     32 C                    -0.151841
     33 C                     0.391368
     34 F                    -0.204431
     35 C                     0.448184
     36 O                    -0.461628
     37 O                    -0.301237
     38 C                    -0.058230
     39 H                     0.121446
     40 H                     0.095220
     41 H                     0.095372
     42 H                     0.220674
  ----------------------------------------
  Sum of atomic charges =     0.000000

 -----------------------------------------------------------------
                    Cartesian Multipole Moments
 -----------------------------------------------------------------
    Charge (ESU x 10^10)
                 0.0000
    Dipole Moment (Debye)
         X       3.5393      Y       2.2214      Z       2.7741
       Tot       5.0157
    Quadrupole Moments (Debye-Ang)
        XX    -183.2583     XY       7.1320     YY    -177.5736
        XZ       6.1416     YZ      -4.3522     ZZ    -188.7345
    Octopole Moments (Debye-Ang^2)
       XXX    -359.1990    XXY     432.7513    XYY    -108.4742
       YYY    1076.7557    XXZ     151.1164    XYZ     -89.1204
       YYZ     153.7966    XZZ     -62.6142    YZZ     432.6992
       ZZZ     588.2876
    Hexadecapole Moments (Debye-Ang^3)
      XXXX   -3459.9672   XXXY   -1177.6361   XXYY   -3938.7968
      XYYY   -1177.0438   YYYY  -17954.7212   XXXZ     548.0294
      XXYZ      86.2983   XYYZ     410.3898   YYYZ     591.4062
      XXZZ   -1205.4650   XYZZ     -82.4731   YYZZ   -4061.7831
      XZZZ     308.8103   YZZZ     283.2659   ZZZZ   -6464.3172
 -----------------------------------------------------------------
 Total job time:  319.57s(wall), 9769.37s(cpu) 
 Mon Jan  8 20:08:11 2024

        *************************************************************
        *                                                           *
        *  Thank you very much for using Q-Chem.  Have a nice day.  *
        *                                                           *
        *************************************************************


0 sent ACK to 0 
now end server 0 ... 
cleanup process ... done
remove work dirs ./qchem3306930.0 -- ./qchem3306930.0
rm -rf ./qchem3306930.0
rm -rf ./qchem3306930
