You are running Q-Chem version: 5.4.0

#
# job setting
#
local host:  exp-6-14
current dir: /home/rramji/project-csd799/aromodel/ptb7fout-qchem/rotation-run
input file:  Dimethoxy_Benzodithiophene_Phi_0_Theta_80_Methylcarbonyl_3_Fluoro_Thienothiophene.qcin
output file: 
nprocs     : 1
nthreads   : 64
#
# qchem installation setting
#
QC:          /cm/shared/apps/spack/cpu/opt/spack/linux-centos8-zen2/gcc-10.2.0/qchem-5.4-akfmr7b3t57bfs6qan3padb2wnb2i7cl
QCAUX:       /cm/shared/apps/spack/cpu/opt/spack/linux-centos8-zen2/gcc-10.2.0/qchem-5.4-akfmr7b3t57bfs6qan3padb2wnb2i7cl/qcaux
QCPROG:      /cm/shared/apps/spack/cpu/opt/spack/linux-centos8-zen2/gcc-10.2.0/qchem-5.4-akfmr7b3t57bfs6qan3padb2wnb2i7cl/exe/qcprog.exe
QCPROG_S:    /cm/shared/apps/spack/cpu/opt/spack/linux-centos8-zen2/gcc-10.2.0/qchem-5.4-akfmr7b3t57bfs6qan3padb2wnb2i7cl/exe/qcprog.exe_s
PARALLEL:    -DPARALLEL
QCMPI:       mpich
#
# qchem directory setting
#
qcrun:       qchem1674074
QCSCRATCH:   .
QCLOCALSCR:  
QCTMPDIR:    .
QCFILEPREF:  ./qchem1674074
QCSAVEDIR:   
workdirs:    ./qchem1674074
workdir0:    ./qchem1674074
partmpdirs =  
#
# parallel setting
#
QCRSH:           ssh
QCMPI:           mpich
QCMPIRUN:        /cm/shared/apps/spack/cpu/opt/spack/linux-centos8-zen2/gcc-10.2.0/qchem-5.4-akfmr7b3t57bfs6qan3padb2wnb2i7cl/bin/mpi/mpirun_qchem
QCMACHINEFILE:   ./qchem1674074/hostfile
exp-6-14

#
# env setting
#
exported envs:   QC QCAUX QCSCRATCH QCRUNNAME QCFILEPREF QCPROG QCPROG_S GUIFILE

Running Job 1 of 1 Dimethoxy_Benzodithiophene_Phi_0_Theta_80_Methylcarbonyl_3_Fluoro_Thienothiophene.qcin
qchem Dimethoxy_Benzodithiophene_Phi_0_Theta_80_Methylcarbonyl_3_Fluoro_Thienothiophene.qcin_1674074.0 ./qchem1674074/ 1
/cm/shared/apps/spack/cpu/opt/spack/linux-centos8-zen2/gcc-10.2.0/qchem-5.4-akfmr7b3t57bfs6qan3padb2wnb2i7cl/bin/mpi/mpirun_qchem -machinefile ./qchem1674074/hostfile -np 1 /cm/shared/apps/spack/cpu/opt/spack/linux-centos8-zen2/gcc-10.2.0/qchem-5.4-akfmr7b3t57bfs6qan3padb2wnb2i7cl/exe/qcprog.exe Dimethoxy_Benzodithiophene_Phi_0_Theta_80_Methylcarbonyl_3_Fluoro_Thienothiophene.qcin_1674074.0 ./qchem1674074/

Process 0 of 1 is on exp-6-14 - thread support 0
initial socket setup ...start
initial socket setup ...done 
now start server 0 ... 
                  Welcome to Q-Chem
     A Quantum Leap Into The Future Of Chemistry


 Q-Chem 5.4, Q-Chem, Inc., Pleasanton, CA (2021)

 License issued to: University of California, San Diego (site)

 E. Epifanovsky,  A. T. B. Gilbert,  Xintian Feng,  Joonho Lee,  Yuezhi Mao,  
 N. Mardirossian,  P. Pokhilko,  A. White,  M. Wormit,  M. P. Coons,  
 A. L. Dempwolff,  Zhengting Gan,  D. Hait,  P. R. Horn,  L. D. Jacobson,  
 I. Kaliman,  J. Kussmann,  A. W. Lange,  Ka Un Lao,  D. S. Levine,  Jie Liu,  
 S. C. McKenzie,  A. F. Morrison,  K. Nanda,  F. Plasser,  D. R. Rehn,  
 M. L. Vidal,  Zhi-Qiang You,  Ying Zhu,  B. Alam,  B. Albrecht,  
 A. Aldossary,  E. Alguire,  J. H. Andersen,  D. Barton,  K. Begam,  A. Behn,  
 Y. A. Bernard,  E. J. Berquist,  H. Burton,  A. Carreras,  K. Carter-Fenk,  
 R. Chakraborty,  A. D. Chien,  K. D. Closser,  V. Cofer-Shabica,  
 S. Dasgupta,  Jia Deng,  M. de Wergifosse,  M. Diedenhofen,  Hainam Do,  
 S. Ehlert,  Po-Tung Fang,  S. Fatehi,  Qingguo Feng,  J. Gayvert,  
 Qinghui Ge,  G. Gidofalvi,  M. Goldey,  J. Gomes,  C. Gonzalez-Espinoza,  
 S. Gulania,  A. Gunina,  M. W. D. Hanson-Heine,  P. H. P. Harbach,  
 A. W. Hauser,  M. F. Herbst,  M. Hernandez Vera,  M. Hodecker,  
 Z. C. Holden,  S. Houck,  Xunkun Huang,  Kerwin Hui,  B. C. Huynh,  
 M. Ivanov,  Hyunjun Ji,  Hanjie Jiang,  B. Kaduk,  S. Kaehler,  
 K. Khistyaev,  Jaehoon Kim,  P. Klunzinger,  Z. Koczor-Benda,  
 Joong Hoon Koh,  D. Kosenkov,  L. Koulias,  T. Kowalczyk,  C. M. Krauter,  
 K. Kue,  A. Kunitsa,  T. Kus,  A. Landau,  K. V. Lawler,  D. Lefrancois,  
 S. Lehtola,  Rain Li,  Yi-Pei Li,  Jiashu Liang,  M. Liebenthal,  
 Hung-Hsuan Lin,  You-Sheng Lin,  Fenglai Liu,  Kuan-Yu Liu,  
 M. Loipersberger,  A. Luenser,  A. Manjanath,  P. Manohar,  E. Mansoor,  
 S. F. Manzer,  Shan-Ping Mao,  A. V. Marenich,  T. Markovich,  S. Mason,  
 S. A. Maurer,  P. F. McLaughlin,  M. F. S. J. Menger,  J.-M. Mewes,  
 S. A. Mewes,  P. Morgante,  J. W. Mullinax,  T. S. Nguyen-Beck,  
 K. J. Oosterbaan,  G. Paran,  Alexander C. Paul,  Suranjan K. Paul,  
 F. Pavosevic,  Zheng Pei,  S. Prager,  E. I. Proynov,  E. Ramos,  B. Rana,  
 A. E. Rask,  A. Rettig,  R. M. Richard,  F. Rob,  E. Rossomme,  T. Scheele,  
 M. Scheurer,  M. Schneider,  N. Sergueev,  S. M. Sharada,  W. Skomorowski,  
 D. W. Small,  C. J. Stein,  Yu-Chuan Su,  E. J. Sundstrom,  Zhen Tao,  
 J. Thirman,  T. Tsuchimochi,  N. M. Tubman,  S. P. Veccham,  O. Vydrov,  
 J. Wenzel,  J. Witte,  A. Yamada,  Kun Yao,  S. Yeganeh,  S. R. Yost,  
 A. Zech,  Igor Ying Zhang,  Xing Zhang,  Yu Zhang,  D. Zuev,  
 A. Aspuru-Guzik,  A. T. Bell,  N. A. Besley,  K. B. Bravaya,  B. R. Brooks,  
 D. Casanova,  Jeng-Da Chai,  S. Coriani,  C. J. Cramer,  
 A. E. DePrince, III,  R. A. DiStasio Jr.,  A. Dreuw,  B. D. Dunietz,  
 T. R. Furlani,  W. A. Goddard III,  S. Grimme,  S. Hammes-Schiffer,  
 T. Head-Gordon,  W. J. Hehre,  Chao-Ping Hsu,  T.-C. Jagau,  Yousung Jung,  
 A. Klamt,  Jing Kong,  D. S. Lambrecht,  WanZhen Liang,  N. J. Mayhall,  
 C. W. McCurdy,  J. B. Neaton,  C. Ochsenfeld,  J. A. Parkhill,  R. Peverati,  
 V. A. Rassolov,  Yihan Shao,  L. V. Slipchenko,  T. Stauch,  R. P. Steele,  
 J. E. Subotnik,  A. J. W. Thom,  A. Tkatchenko,  D. G. Truhlar,  
 T. Van Voorhis,  T. A. Wesolowski,  K. B. Whaley,  H. L. Woodcock III,  
 P. M. Zimmerman,  S. Faraji,  P. M. W. Gill,  M. Head-Gordon,  
 J. M. Herbert,  A. I. Krylov

 Contributors to earlier versions of Q-Chem not listed above: 
 R. D. Adamson,  B. Austin,  R. Baer,  J. Baker,  G. J. O. Beran,  
 K. Brandhorst,  S. T. Brown,  E. F. C. Byrd,  A. K. Chakraborty,  
 G. K. L. Chan,  Chun-Min Chang,  Yunqing Chen,  C.-L. Cheng,  
 Siu Hung Chien,  D. M. Chipman,  D. L. Crittenden,  H. Dachsel,  
 R. J. Doerksen,  A. D. Dutoi,  R. G. Edgar,  J. Fosso-Tande,  
 L. Fusti-Molnar,  D. Ghosh,  A. Ghysels,  A. Golubeva-Zadorozhnaya,  
 J. Gonthier,  M. S. Gordon,  S. R. Gwaltney,  G. Hawkins,  J. E. Herr,  
 A. Heyden,  S. Hirata,  E. G. Hohenstein,  G. Kedziora,  F. J. Keil,  
 C. Kelley,  Jihan Kim,  R. A. King,  R. Z. Khaliullin,  P. P. Korambath,  
 W. Kurlancheek,  A. Laurent,  A. M. Lee,  M. S. Lee,  S. V. Levchenko,  
 Ching Yeh Lin,  D. Liotard,  E. Livshits,  R. C. Lochan,  I. Lotan,  
 L. A. Martinez-Martinez,  P. E. Maslen,  N. Nair,  D. P. O'Neill,  
 D. Neuhauser,  E. Neuscamman,  C. M. Oana,  R. Olivares-Amaya,  R. Olson,  
 T. M. Perrine,  B. Peters,  P. A. Pieniazek,  A. Prociuk,  Y. M. Rhee,  
 J. Ritchie,  M. A. Rohrdanz,  E. Rosta,  N. J. Russ,  H. F. Schaefer III,  
 M. W. Schmidt,  N. E. Schultz,  S. Sharma,  N. Shenvi,  C. D. Sherrill,  
 A. C. Simmonett,  A. Sodt,  T. Stein,  D. Stuck,  K. S. Thanthiriwatte,  
 V. Vanovschi,  L. Vogt,  Tao Wang,  A. Warshel,  M. A. Watson,  
 C. F. Williams,  Q. Wu,  X. Xu,  Jun Yang,  W. Zhang,  Yan Zhao

 Please cite Q-Chem as follows:
 Y. Shao et al., Mol. Phys. 113, 184-215 (2015)
 DOI: 10.1080/00268976.2014.952696

 Q-Chem 5.4.0 for Intel X86 EM64T Linux

 Parts of Q-Chem use Armadillo 9.800.1 (Horizon Scraper).
 http://arma.sourceforge.net/

 Q-Chem begins on Mon Jan  8 19:33:19 2024  

 Host: 
0

     Scratch files written to ./qchem1674074//
 May1621 |scratch|qcdevops|jenkins|workspace|build_RNUM    
 Parallel job on  1  processors
 Processing $rem in /cm/shared/apps/spack/cpu/opt/spack/linux-centos8-zen2/gcc-10.2.0/qchem-5.4-akfmr7b3t57bfs6qan3padb2wnb2i7cl/config/preferences:
 Processing $rem in /home/rramji/.qchemrc:
 Symmetry turned off for PCM/SM12/SMD calculation
 Core orbitals will be frozen

 Checking the input file for inconsistencies... 	...done.

 Q-Chem warning in module forms1/BasisType.C, line 2236:

 You are not using the predefined 5D/6D in this basis set.


--------------------------------------------------------------
User input:
--------------------------------------------------------------
$molecule
0 1
C	-0.320589	-8.517702	0.014560
C	0.737240	-7.641575	-0.180211
S	-1.842356	-7.638634	0.299553
C	0.366488	-6.264785	-0.114873
H	1.768528	-7.966081	-0.368061
C	-1.038637	-6.072714	0.131236
C	-1.588197	-4.787049	0.253435
C	1.258831	-5.162801	-0.249014
C	0.709695	-3.874817	-0.122513
C	-0.697430	-3.683952	0.121043
O	2.553323	-5.499772	-0.505933
O	-2.888369	-4.459055	0.512697
C	-3.927625	-5.329063	0.080869
H	-4.869656	-4.755694	0.173159
H	-4.007459	-6.238095	0.716363
H	-3.789565	-5.637262	-0.978072
C	3.600064	-4.572261	-0.246949
H	4.544887	-5.139743	-0.344574
H	3.532074	-4.153131	0.779898
H	3.612378	-3.739531	-0.983261
C	-1.064246	-2.306654	0.188009
S	1.517360	-2.306501	-0.278644
C	0.000000	-1.435185	0.000000
H	-2.094685	-1.978138	0.373017
H	-0.322246	-9.614033	0.018474
C	0.000000	0.000000	0.000000
S	0.000474	0.904764	1.507541
C	-0.000295	2.477305	0.718873
C	0.000752	0.904447	-1.067872
C	-0.001560	2.294593	-0.686410
S	0.003602	0.660872	-2.805516
C	-0.001928	2.412546	-3.054530
C	-0.004381	3.120854	-1.862551
F	-0.009185	4.457503	-1.819088
C	-0.000038	2.860570	-4.456084
O	0.007944	2.090724	-5.406510
O	-0.007501	4.211092	-4.569225
C	-0.002278	4.706177	-5.916207
H	-0.009265	5.807207	-5.833064
H	-0.895381	4.352875	-6.470168
H	0.901521	4.363301	-6.459293
H	-0.001708	3.401562	1.306486
$end

$rem
JOBTYPE		SP
EXCHANGE	HF
CORRELATION	pRIMP2
BASIS		cc-pvtz
METHOD		rimp2
AUX_BASIS	rimp2-cc-pvtz
SOLVENT_METHOD	PCM
PURECART	11111
SYMMETRY	false
MEM_TOTAL	110000
SCF_CONVERGENCE = 6
THRESH=10
GUI = 2
$end



$solvent
dielectric 4.90
$end
--------------------------------------------------------------
 ----------------------------------------------------------------
             Standard Nuclear Orientation (Angstroms)
    I     Atom           X                Y                Z
 ----------------------------------------------------------------
    1      C      -0.3205890000    -8.5177020000     0.0145600000
    2      C       0.7372400000    -7.6415750000    -0.1802110000
    3      S      -1.8423560000    -7.6386340000     0.2995530000
    4      C       0.3664880000    -6.2647850000    -0.1148730000
    5      H       1.7685280000    -7.9660810000    -0.3680610000
    6      C      -1.0386370000    -6.0727140000     0.1312360000
    7      C      -1.5881970000    -4.7870490000     0.2534350000
    8      C       1.2588310000    -5.1628010000    -0.2490140000
    9      C       0.7096950000    -3.8748170000    -0.1225130000
   10      C      -0.6974300000    -3.6839520000     0.1210430000
   11      O       2.5533230000    -5.4997720000    -0.5059330000
   12      O      -2.8883690000    -4.4590550000     0.5126970000
   13      C      -3.9276250000    -5.3290630000     0.0808690000
   14      H      -4.8696560000    -4.7556940000     0.1731590000
   15      H      -4.0074590000    -6.2380950000     0.7163630000
   16      H      -3.7895650000    -5.6372620000    -0.9780720000
   17      C       3.6000640000    -4.5722610000    -0.2469490000
   18      H       4.5448870000    -5.1397430000    -0.3445740000
   19      H       3.5320740000    -4.1531310000     0.7798980000
   20      H       3.6123780000    -3.7395310000    -0.9832610000
   21      C      -1.0642460000    -2.3066540000     0.1880090000
   22      S       1.5173600000    -2.3065010000    -0.2786440000
   23      C       0.0000000000    -1.4351850000     0.0000000000
   24      H      -2.0946850000    -1.9781380000     0.3730170000
   25      H      -0.3222460000    -9.6140330000     0.0184740000
   26      C       0.0000000000     0.0000000000     0.0000000000
   27      S       0.0004740000     0.9047640000     1.5075410000
   28      C      -0.0002950000     2.4773050000     0.7188730000
   29      C       0.0007520000     0.9044470000    -1.0678720000
   30      C      -0.0015600000     2.2945930000    -0.6864100000
   31      S       0.0036020000     0.6608720000    -2.8055160000
   32      C      -0.0019280000     2.4125460000    -3.0545300000
   33      C      -0.0043810000     3.1208540000    -1.8625510000
   34      F      -0.0091850000     4.4575030000    -1.8190880000
   35      C      -0.0000380000     2.8605700000    -4.4560840000
   36      O       0.0079440000     2.0907240000    -5.4065100000
   37      O      -0.0075010000     4.2110920000    -4.5692250000
   38      C      -0.0022780000     4.7061770000    -5.9162070000
   39      H      -0.0092650000     5.8072070000    -5.8330640000
   40      H      -0.8953810000     4.3528750000    -6.4701680000
   41      H       0.9015210000     4.3633010000    -6.4592930000
   42      H      -0.0017080000     3.4015620000     1.3064860000
 ----------------------------------------------------------------
 Nuclear Repulsion Energy =        3270.46180012 hartrees
 There are      119 alpha and      119 beta electrons
 Requested basis set is cc-pVTZ
 There are 376 shells and 1068 basis functions

 Total QAlloc Memory Limit 110000 MB
 Mega-Array Size       188 MB
 MEM_STATIC part       192 MB
 Discretize the solute cavity surface with Lebedev spheres
	Using 110 Lebedev grid points for each H atom
	Using 194 Lebedev grid points for other atoms
	Atomic van der Waals radii will be scaled by 1.20
 Remove points where switching function is < 1.0e-08
 Keep 2906 surface tesserae and discard 4150 interior tesserae
 Molecular Surface Area = 445.965 Angst**2
 Requested basis set is rimp2-cc-pVTZ
 There are 833 shells and 2903 basis functions
 A cutoff of  1.0D-10 yielded  30681 shell pairs
 There are    236105 function pairs (    306863 Cartesian)
 Smallest overlap matrix eigenvalue = 2.23E-05

 Scale SEOQF with 1.000000e-01/1.000000e-02/1.000000e-02

 Standard Electronic Orientation quadrupole field applied
 Nucleus-field energy     =     0.0000000398 hartrees
 Guess from superposition of atomic densities
 Warning:  Energy on first SCF cycle will be non-variational
 SAD guess density has 238.000000 electrons

 -----------------------------------------------------------------------
  General SCF calculation program by
  Eric Jon Sundstrom, Paul Horn, Yuezhi Mao, Dmitri Zuev, Alec White,
  David Stuck, Shaama M.S., Shane Yost, Joonho Lee, David Small,
  Daniel Levine, Susi Lehtola, Hugh Burton, Evgeny Epifanovsky,
  Bang C. Huynh
 -----------------------------------------------------------------------
 Hartree-Fock
 using 64 threads for integral computing
 -------------------------------------------------------
 OpenMP Integral computing Module                
 Release: version 1.0, May 2013, Q-Chem Inc. Pittsburgh 
 -------------------------------------------------------
 A restricted SCF calculation will be
 performed using DIIS
 SCF converges when DIIS error is below 1.0e-06
 ---------------------------------------
  Cycle       Energy         DIIS error
 ---------------------------------------
    1   -2765.1973425022      1.75e-02  
    2   -2753.8831866401      1.56e-03  
    3   -2754.2205969688      8.59e-04  
    4   -2754.3012739808      2.56e-04  
    5   -2754.3128863650      6.94e-05  
    6   -2754.3139687852      2.36e-05  
    7   -2754.3142050652      1.14e-05  
    8   -2754.3142823180      4.28e-06  
    9   -2754.3142968563      1.66e-06  
   10   -2754.3142985593      6.92e-07  Convergence criterion met
 ---------------------------------------
 SCF time:   CPU 6570.58s  wall 256.00s 

************** Final PCM Free Energy Summary **************
 G_electrostatic  =      -0.01868954 hartree =     -11.72786139 kcal/mol
 G_cavitation     =       0.00000000 hartree =       0.00000000 kcal/mol
 G_dispersion     =       0.00000000 hartree =       0.00000000 kcal/mol
 G_repulsion      =       0.00000000 hartree =       0.00000000 kcal/mol
 --------------------------------------------------
 Non-electrostatic Free Energy =       0.00000000 hartree =       0.00000000 kcal/mol
 Total                         =      -0.01868954 hartree =     -11.72786139 kcal/mol
 --------------------------------------------------
 SCF Energy (H0 + V/2)                       =   -2754.31429856 
 Solute Internal Energy (H0)                 =   -2754.29560902 
 Total Free Energy (H0 + V/2 + non-elec)     =   -2754.31429856 hartree
                                             = -1728358.30845666 kcal/mol
***********************************************************

 SCF   energy in the final basis set =    -2754.3142985593
 Total energy in the final basis set =    -2754.3142985593


 --------------------------------------------------------------
  Generalized many-body perturbation theory program
  by Joonho Lee, Fazle Rob, Xintian Feng, Evgeny Epifanovsky

 No regularization used 
 (reg. param. = 0.0000e+00)
  (P|Q)^-1/2 Time:  CPU 195.59 s  wall 3.73 s

 In RI-MP2 calculation: 
 # of frozen core orbitals: 45

 Components of the RIMP2 correlation energy:
        aaaa    correlation energy =        -0.6689579693 a.u.
        abab    correlation energy =        -3.7113393732 a.u.
        bbbb    correlation energy =        -0.6689579693 a.u.
        non-Brillouin singles      =        -0.0000000000 a.u.
        total same-spin energy     =        -1.3379159386 a.u.
        total opposite-spin energy =        -3.7113393732 a.u.

 Total  RIMP2   correlation energy =        -5.0492553118 a.u.
        RIMP2         total energy =     -2759.3635538710 a.u.

 RI-MP2 Energy Time:  CPU 2752.40 s  wall 46.51 s
 
 --------------------------------------------------------------
 
                    Orbital Energies (a.u.)
 --------------------------------------------------------------
 
 Alpha MOs
 -- Occupied --
-92.0146 -91.9964 -91.9889 -91.9866 -26.3424 -20.6142 -20.5923 -20.5919
-20.5604 -11.4085 -11.3812 -11.3192 -11.3188 -11.3082 -11.2997 -11.2968
-11.2962 -11.2916 -11.2884 -11.2869 -11.2864 -11.2863 -11.2841 -11.2833
-11.2804 -11.2606 -11.2596 -11.2587 -11.2501  -9.0130  -8.9964  -8.9893
 -8.9865  -6.6937  -6.6931  -6.6926  -6.6774  -6.6767  -6.6756  -6.6702
 -6.6695  -6.6686  -6.6675  -6.6669  -6.6660  -1.6595  -1.4666  -1.4165
 -1.4147  -1.3692  -1.2196  -1.1945  -1.1653  -1.1347  -1.0844  -1.0521
 -1.0403  -1.0215  -1.0018  -0.9877  -0.9618  -0.9600  -0.9503  -0.9386
 -0.8958  -0.8665  -0.8514  -0.8100  -0.7924  -0.7889  -0.7865  -0.7650
 -0.7548  -0.7340  -0.7244  -0.7089  -0.7003  -0.6845  -0.6834  -0.6800
 -0.6733  -0.6592  -0.6570  -0.6528  -0.6305  -0.6203  -0.6172  -0.6048
 -0.5967  -0.5852  -0.5772  -0.5696  -0.5666  -0.5594  -0.5557  -0.5518
 -0.5315  -0.5304  -0.5240  -0.5161  -0.5149  -0.5086  -0.5039  -0.4950
 -0.4897  -0.4791  -0.4752  -0.4727  -0.4695  -0.4661  -0.4607  -0.4057
 -0.3982  -0.3868  -0.3575  -0.3479  -0.3155  -0.2973  -0.2594
 -- Virtual --
  0.0366   0.0604   0.1116   0.1243   0.1346   0.1449   0.1503   0.1553
  0.1557   0.1585   0.1605   0.1722   0.1810   0.1830   0.1882   0.1902
  0.1995   0.2040   0.2151   0.2168   0.2201   0.2212   0.2241   0.2284
  0.2324   0.2350   0.2423   0.2474   0.2551   0.2650   0.2698   0.2800
  0.2815   0.3015   0.3273   0.3301   0.3349   0.3355   0.3421   0.3452
  0.3504   0.3529   0.3674   0.3764   0.3835   0.3843   0.3850   0.3882
  0.3893   0.3963   0.3984   0.4024   0.4069   0.4103   0.4205   0.4211
  0.4261   0.4284   0.4348   0.4421   0.4472   0.4497   0.4568   0.4586
  0.4611   0.4618   0.4671   0.4715   0.4739   0.4764   0.4809   0.4846
  0.4960   0.4999   0.5027   0.5057   0.5130   0.5167   0.5188   0.5243
  0.5253   0.5329   0.5370   0.5408   0.5416   0.5438   0.5475   0.5504
  0.5534   0.5549   0.5573   0.5614   0.5677   0.5709   0.5745   0.5753
  0.5836   0.5866   0.5929   0.5946   0.5984   0.6034   0.6066   0.6109
  0.6149   0.6167   0.6185   0.6222   0.6234   0.6282   0.6310   0.6346
  0.6372   0.6391   0.6447   0.6470   0.6520   0.6529   0.6600   0.6645
  0.6700   0.6805   0.6826   0.6852   0.6903   0.6980   0.6988   0.7056
  0.7111   0.7148   0.7168   0.7212   0.7250   0.7275   0.7440   0.7490
  0.7523   0.7576   0.7598   0.7648   0.7753   0.7836   0.7935   0.8003
  0.8112   0.8148   0.8158   0.8196   0.8216   0.8282   0.8317   0.8405
  0.8429   0.8518   0.8616   0.8633   0.8700   0.8727   0.8816   0.8820
  0.8861   0.8940   0.8991   0.9038   0.9080   0.9123   0.9185   0.9302
  0.9323   0.9390   0.9416   0.9484   0.9496   0.9554   0.9634   0.9668
  0.9686   0.9719   0.9777   0.9823   0.9849   0.9954   0.9993   1.0006
  1.0095   1.0132   1.0167   1.0193   1.0252   1.0285   1.0322   1.0404
  1.0415   1.0506   1.0544   1.0612   1.0667   1.0726   1.0772   1.0789
  1.0805   1.0862   1.0922   1.0964   1.1014   1.1029   1.1040   1.1114
  1.1142   1.1156   1.1230   1.1350   1.1396   1.1448   1.1493   1.1522
  1.1653   1.1686   1.1739   1.1757   1.1815   1.1840   1.1885   1.1963
  1.2023   1.2072   1.2084   1.2131   1.2169   1.2240   1.2284   1.2324
  1.2361   1.2408   1.2441   1.2522   1.2594   1.2632   1.2666   1.2695
  1.2747   1.2773   1.2810   1.2952   1.2984   1.3064   1.3096   1.3149
  1.3185   1.3264   1.3337   1.3431   1.3521   1.3595   1.3664   1.3733
  1.3782   1.3876   1.3924   1.3998   1.4027   1.4126   1.4143   1.4198
  1.4283   1.4366   1.4376   1.4611   1.4645   1.4712   1.4860   1.4905
  1.4950   1.4990   1.5023   1.5070   1.5100   1.5144   1.5286   1.5292
  1.5309   1.5374   1.5401   1.5454   1.5476   1.5516   1.5584   1.5685
  1.5739   1.5816   1.5835   1.5947   1.6049   1.6167   1.6278   1.6290
  1.6373   1.6420   1.6549   1.6589   1.6650   1.6682   1.6692   1.6826
  1.6874   1.6973   1.7000   1.7091   1.7154   1.7217   1.7336   1.7523
  1.7627   1.7757   1.7773   1.7835   1.7875   1.8053   1.8145   1.8162
  1.8202   1.8259   1.8305   1.8478   1.8542   1.8636   1.8690   1.8710
  1.8805   1.8870   1.8927   1.9076   1.9117   1.9216   1.9233   1.9307
  1.9393   1.9508   1.9586   1.9641   1.9663   1.9731   1.9790   1.9892
  1.9988   2.0041   2.0083   2.0154   2.0258   2.0333   2.0363   2.0530
  2.0702   2.0842   2.0895   2.0971   2.0997   2.1145   2.1278   2.1290
  2.1412   2.1589   2.1625   2.1689   2.1768   2.1873   2.1902   2.1957
  2.1992   2.2050   2.2080   2.2139   2.2243   2.2297   2.2350   2.2421
  2.2465   2.2555   2.2592   2.2691   2.2725   2.2777   2.2857   2.2982
  2.3062   2.3103   2.3172   2.3300   2.3359   2.3402   2.3510   2.3598
  2.3628   2.3703   2.3849   2.3915   2.3988   2.4087   2.4118   2.4227
  2.4285   2.4330   2.4418   2.4510   2.4681   2.4733   2.4821   2.4880
  2.4955   2.5037   2.5190   2.5258   2.5332   2.5414   2.5517   2.5557
  2.5645   2.5781   2.5815   2.6023   2.6099   2.6118   2.6202   2.6210
  2.6228   2.6288   2.6353   2.6371   2.6438   2.6554   2.6622   2.6716
  2.6762   2.6792   2.6860   2.6963   2.6990   2.7012   2.7059   2.7097
  2.7164   2.7253   2.7276   2.7392   2.7418   2.7547   2.7571   2.7663
  2.7785   2.7809   2.7845   2.7996   2.8004   2.8043   2.8103   2.8190
  2.8274   2.8375   2.8389   2.8429   2.8484   2.8567   2.8645   2.8714
  2.8760   2.8785   2.8820   2.8916   2.9027   2.9048   2.9190   2.9296
  2.9376   2.9499   2.9534   2.9622   2.9767   2.9794   2.9829   2.9870
  3.0053   3.0092   3.0152   3.0216   3.0240   3.0309   3.0372   3.0439
  3.0467   3.0604   3.0676   3.0806   3.0842   3.0906   3.0930   3.1007
  3.1011   3.1053   3.1078   3.1170   3.1221   3.1261   3.1335   3.1449
  3.1496   3.1529   3.1561   3.1652   3.1676   3.1741   3.1789   3.1833
  3.1855   3.1947   3.2023   3.2129   3.2176   3.2207   3.2218   3.2279
  3.2341   3.2410   3.2478   3.2504   3.2542   3.2561   3.2628   3.2682
  3.2701   3.2749   3.2812   3.2877   3.2905   3.2949   3.2960   3.3070
  3.3108   3.3213   3.3251   3.3293   3.3314   3.3371   3.3422   3.3461
  3.3490   3.3523   3.3577   3.3611   3.3662   3.3732   3.3738   3.3807
  3.3830   3.3907   3.3926   3.3963   3.3987   3.4048   3.4095   3.4185
  3.4194   3.4270   3.4340   3.4375   3.4389   3.4412   3.4480   3.4506
  3.4571   3.4621   3.4663   3.4689   3.4742   3.4814   3.4840   3.4879
  3.4912   3.5012   3.5094   3.5155   3.5196   3.5274   3.5322   3.5375
  3.5439   3.5508   3.5554   3.5580   3.5608   3.5638   3.5675   3.5791
  3.5803   3.5819   3.5890   3.5963   3.5985   3.6056   3.6112   3.6181
  3.6206   3.6242   3.6278   3.6331   3.6424   3.6492   3.6560   3.6612
  3.6623   3.6684   3.6770   3.6823   3.6837   3.6921   3.6963   3.7001
  3.7036   3.7063   3.7090   3.7105   3.7238   3.7281   3.7339   3.7390
  3.7446   3.7486   3.7508   3.7601   3.7679   3.7719   3.7772   3.7862
  3.7913   3.7969   3.8045   3.8078   3.8116   3.8127   3.8167   3.8204
  3.8278   3.8329   3.8415   3.8467   3.8525   3.8546   3.8659   3.8733
  3.8754   3.8837   3.8893   3.8926   3.8993   3.9012   3.9102   3.9170
  3.9255   3.9325   3.9433   3.9503   3.9596   3.9676   3.9774   3.9837
  3.9890   3.9961   4.0049   4.0099   4.0132   4.0202   4.0266   4.0348
  4.0472   4.0567   4.0651   4.0680   4.0741   4.0784   4.0808   4.0895
  4.1118   4.1160   4.1269   4.1348   4.1377   4.1398   4.1449   4.1520
  4.1590   4.1617   4.1673   4.1716   4.1794   4.1841   4.1893   4.2011
  4.2073   4.2097   4.2194   4.2345   4.2397   4.2529   4.2548   4.2609
  4.2757   4.2790   4.2934   4.3105   4.3187   4.3277   4.3301   4.3422
  4.3500   4.3534   4.3600   4.3643   4.3748   4.3807   4.3873   4.3924
  4.4049   4.4082   4.4135   4.4238   4.4309   4.4315   4.4370   4.4472
  4.4632   4.4672   4.4832   4.4848   4.4982   4.5031   4.5174   4.5253
  4.5342   4.5368   4.5489   4.5535   4.5614   4.5689   4.5779   4.5825
  4.5919   4.6052   4.6115   4.6265   4.6335   4.6485   4.6519   4.6544
  4.6678   4.6754   4.6775   4.6844   4.6893   4.6999   4.7282   4.7350
  4.7410   4.7490   4.7703   4.7732   4.7764   4.7848   4.8115   4.8270
  4.8285   4.8429   4.8475   4.8584   4.8654   4.8935   4.9186   4.9286
  4.9306   4.9405   4.9506   4.9589   4.9670   4.9764   4.9883   4.9942
  5.0091   5.0093   5.0108   5.0189   5.0424   5.0503   5.0637   5.0715
  5.0833   5.1090   5.1210   5.1262   5.1603   5.1693   5.1786   5.1945
  5.2098   5.2228   5.2503   5.2517   5.2558   5.2589   5.2620   5.2824
  5.2918   5.3044   5.3128   5.3304   5.3372   5.3500   5.3516   5.3657
  5.3745   5.3972   5.3986   5.4166   5.4266   5.4337   5.4545   5.4632
  5.4854   5.4899   5.5062   5.5129   5.5150   5.5302   5.5556   5.5625
  5.5770   5.5808   5.5854   5.6056   5.6224   5.6280   5.6351   5.6662
  5.7137   5.7314   5.7607   5.7728   5.8081   5.8137   5.8467   5.8543
  5.8716   5.8786   5.9100   5.9299   5.9370   5.9760   5.9928   6.0425
  6.0608   6.0757   6.0868   6.1510   6.1698   6.1722   6.1758   6.1928
  6.2323   6.2455   6.2620   6.2672   6.2800   6.2879   6.2995   6.3312
  6.4095   6.4404   6.4508   6.4749   6.5385   6.5476   6.5550   6.6023
  6.6521   6.6617   6.6719   6.6943   6.7464   6.7990   6.8303   6.8375
  6.8602   6.8916   6.9788   7.1194   7.1363   7.2046   7.2074   7.2155
  7.2334   7.3106   7.3188   7.3308   7.3639   7.3642   7.4072   7.4139
  7.4787   7.4864   7.4877   7.5245   7.5515   7.6161   7.7083   7.7738
  7.7896   7.7962   7.8951   7.9188   7.9440   7.9594   8.0996   8.1351
  8.4666   8.9227   9.0195   9.3636   9.4745   9.6528  10.1228  10.6989
 11.1607  11.5855  11.7851  11.9185  12.1247  12.1841  12.4116  12.5777
 12.7346  12.9367  13.0359  13.1821  13.2785  13.3872  13.7704  13.8466
 13.9009  14.0149  14.0307  14.3943  15.1912
 --------------------------------------------------------------
 
          Ground-State Mulliken Net Atomic Charges

     Atom                 Charge (a.u.)
  ----------------------------------------
      1 C                    -0.187295
      2 C                    -0.254153
      3 S                    -0.021850
      4 C                    -0.013174
      5 H                     0.196535
      6 C                    -0.027849
      7 C                     0.245483
      8 C                     0.238276
      9 C                    -0.046324
     10 C                    -0.031629
     11 O                    -0.333263
     12 O                    -0.339850
     13 C                    -0.085798
     14 H                     0.122724
     15 H                     0.091012
     16 H                     0.094537
     17 C                    -0.086124
     18 H                     0.124678
     19 H                     0.094202
     20 H                     0.090448
     21 C                    -0.215275
     22 S                     0.002136
     23 C                    -0.052481
     24 H                     0.197448
     25 H                     0.206602
     26 C                    -0.025459
     27 S                     0.109017
     28 C                    -0.187530
     29 C                     0.013349
     30 C                    -0.109570
     31 S                     0.007071
     32 C                    -0.154513
     33 C                     0.392797
     34 F                    -0.207229
     35 C                     0.445245
     36 O                    -0.461318
     37 O                    -0.300613
     38 C                    -0.058649
     39 H                     0.121189
     40 H                     0.095010
     41 H                     0.094962
     42 H                     0.217228
  ----------------------------------------
  Sum of atomic charges =     0.000000

 -----------------------------------------------------------------
                    Cartesian Multipole Moments
 -----------------------------------------------------------------
    Charge (ESU x 10^10)
                -0.0000
    Dipole Moment (Debye)
         X      -0.0136      Y       0.7831      Z       2.8151
       Tot       2.9220
    Quadrupole Moments (Debye-Ang)
        XX    -176.8960     XY       0.7903     YY    -158.9977
        XZ       1.5435     YZ      -5.9591     ZZ    -206.7743
    Octopole Moments (Debye-Ang^2)
       XXX      45.8968    XXY     255.2217    XYY       6.0317
       YYY     839.4032    XXZ     170.6523    XYZ      -7.5461
       YYZ     104.3559    XZZ      18.9873    YZZ     474.4266
       ZZZ     559.6611
    Hexadecapole Moments (Debye-Ang^3)
      XXXX   -2262.6854   XXXY    -502.1908   XXYY   -3759.3489
      XYYY    -458.3444   YYYY  -19200.7047   XXXZ     127.3546
      XXYZ     559.4680   XYYZ      69.9834   YYYZ    1320.0471
      XXZZ   -1357.3572   XYZZ    -196.4771   YYZZ   -4251.0034
      XZZZ     142.6905   YZZZ    1082.3224   ZZZZ   -5472.9457
 -----------------------------------------------------------------
 Total job time:  308.59s(wall), 9485.88s(cpu) 
 Mon Jan  8 19:38:28 2024

        *************************************************************
        *                                                           *
        *  Thank you very much for using Q-Chem.  Have a nice day.  *
        *                                                           *
        *************************************************************


0 sent ACK to 0 
now end server 0 ... 
cleanup process ... done
remove work dirs ./qchem1674074.0 -- ./qchem1674074.0
rm -rf ./qchem1674074.0
rm -rf ./qchem1674074
