You are running Q-Chem version: 5.4.0

#
# job setting
#
local host:  exp-9-41
current dir: /home/rramji/project-csd799/aromodel/ptb7fout-qchem/rotation-run
input file:  Dimethoxy_Benzodithiophene_Phi_25_Theta_340_Methylcarbonyl_3_Fluoro_Thienothiophene.qcin
output file: 
nprocs     : 1
nthreads   : 64
#
# qchem installation setting
#
QC:          /cm/shared/apps/spack/cpu/opt/spack/linux-centos8-zen2/gcc-10.2.0/qchem-5.4-akfmr7b3t57bfs6qan3padb2wnb2i7cl
QCAUX:       /cm/shared/apps/spack/cpu/opt/spack/linux-centos8-zen2/gcc-10.2.0/qchem-5.4-akfmr7b3t57bfs6qan3padb2wnb2i7cl/qcaux
QCPROG:      /cm/shared/apps/spack/cpu/opt/spack/linux-centos8-zen2/gcc-10.2.0/qchem-5.4-akfmr7b3t57bfs6qan3padb2wnb2i7cl/exe/qcprog.exe
QCPROG_S:    /cm/shared/apps/spack/cpu/opt/spack/linux-centos8-zen2/gcc-10.2.0/qchem-5.4-akfmr7b3t57bfs6qan3padb2wnb2i7cl/exe/qcprog.exe_s
PARALLEL:    -DPARALLEL
QCMPI:       mpich
#
# qchem directory setting
#
qcrun:       qchem2776275
QCSCRATCH:   .
QCLOCALSCR:  
QCTMPDIR:    .
QCFILEPREF:  ./qchem2776275
QCSAVEDIR:   
workdirs:    ./qchem2776275
workdir0:    ./qchem2776275
partmpdirs =  
#
# parallel setting
#
QCRSH:           ssh
QCMPI:           mpich
QCMPIRUN:        /cm/shared/apps/spack/cpu/opt/spack/linux-centos8-zen2/gcc-10.2.0/qchem-5.4-akfmr7b3t57bfs6qan3padb2wnb2i7cl/bin/mpi/mpirun_qchem
QCMACHINEFILE:   ./qchem2776275/hostfile
exp-9-41

#
# env setting
#
exported envs:   QC QCAUX QCSCRATCH QCRUNNAME QCFILEPREF QCPROG QCPROG_S GUIFILE

Running Job 1 of 1 Dimethoxy_Benzodithiophene_Phi_25_Theta_340_Methylcarbonyl_3_Fluoro_Thienothiophene.qcin
qchem Dimethoxy_Benzodithiophene_Phi_25_Theta_340_Methylcarbonyl_3_Fluoro_Thienothiophene.qcin_2776275.0 ./qchem2776275/ 1
/cm/shared/apps/spack/cpu/opt/spack/linux-centos8-zen2/gcc-10.2.0/qchem-5.4-akfmr7b3t57bfs6qan3padb2wnb2i7cl/bin/mpi/mpirun_qchem -machinefile ./qchem2776275/hostfile -np 1 /cm/shared/apps/spack/cpu/opt/spack/linux-centos8-zen2/gcc-10.2.0/qchem-5.4-akfmr7b3t57bfs6qan3padb2wnb2i7cl/exe/qcprog.exe Dimethoxy_Benzodithiophene_Phi_25_Theta_340_Methylcarbonyl_3_Fluoro_Thienothiophene.qcin_2776275.0 ./qchem2776275/

Process 0 of 1 is on exp-9-41 - thread support 0
initial socket setup ...start
initial socket setup ...done 
now start server 0 ... 
                  Welcome to Q-Chem
     A Quantum Leap Into The Future Of Chemistry


 Q-Chem 5.4, Q-Chem, Inc., Pleasanton, CA (2021)

 License issued to: University of California, San Diego (site)

 E. Epifanovsky,  A. T. B. Gilbert,  Xintian Feng,  Joonho Lee,  Yuezhi Mao,  
 N. Mardirossian,  P. Pokhilko,  A. White,  M. Wormit,  M. P. Coons,  
 A. L. Dempwolff,  Zhengting Gan,  D. Hait,  P. R. Horn,  L. D. Jacobson,  
 I. Kaliman,  J. Kussmann,  A. W. Lange,  Ka Un Lao,  D. S. Levine,  Jie Liu,  
 S. C. McKenzie,  A. F. Morrison,  K. Nanda,  F. Plasser,  D. R. Rehn,  
 M. L. Vidal,  Zhi-Qiang You,  Ying Zhu,  B. Alam,  B. Albrecht,  
 A. Aldossary,  E. Alguire,  J. H. Andersen,  D. Barton,  K. Begam,  A. Behn,  
 Y. A. Bernard,  E. J. Berquist,  H. Burton,  A. Carreras,  K. Carter-Fenk,  
 R. Chakraborty,  A. D. Chien,  K. D. Closser,  V. Cofer-Shabica,  
 S. Dasgupta,  Jia Deng,  M. de Wergifosse,  M. Diedenhofen,  Hainam Do,  
 S. Ehlert,  Po-Tung Fang,  S. Fatehi,  Qingguo Feng,  J. Gayvert,  
 Qinghui Ge,  G. Gidofalvi,  M. Goldey,  J. Gomes,  C. Gonzalez-Espinoza,  
 S. Gulania,  A. Gunina,  M. W. D. Hanson-Heine,  P. H. P. Harbach,  
 A. W. Hauser,  M. F. Herbst,  M. Hernandez Vera,  M. Hodecker,  
 Z. C. Holden,  S. Houck,  Xunkun Huang,  Kerwin Hui,  B. C. Huynh,  
 M. Ivanov,  Hyunjun Ji,  Hanjie Jiang,  B. Kaduk,  S. Kaehler,  
 K. Khistyaev,  Jaehoon Kim,  P. Klunzinger,  Z. Koczor-Benda,  
 Joong Hoon Koh,  D. Kosenkov,  L. Koulias,  T. Kowalczyk,  C. M. Krauter,  
 K. Kue,  A. Kunitsa,  T. Kus,  A. Landau,  K. V. Lawler,  D. Lefrancois,  
 S. Lehtola,  Rain Li,  Yi-Pei Li,  Jiashu Liang,  M. Liebenthal,  
 Hung-Hsuan Lin,  You-Sheng Lin,  Fenglai Liu,  Kuan-Yu Liu,  
 M. Loipersberger,  A. Luenser,  A. Manjanath,  P. Manohar,  E. Mansoor,  
 S. F. Manzer,  Shan-Ping Mao,  A. V. Marenich,  T. Markovich,  S. Mason,  
 S. A. Maurer,  P. F. McLaughlin,  M. F. S. J. Menger,  J.-M. Mewes,  
 S. A. Mewes,  P. Morgante,  J. W. Mullinax,  T. S. Nguyen-Beck,  
 K. J. Oosterbaan,  G. Paran,  Alexander C. Paul,  Suranjan K. Paul,  
 F. Pavosevic,  Zheng Pei,  S. Prager,  E. I. Proynov,  E. Ramos,  B. Rana,  
 A. E. Rask,  A. Rettig,  R. M. Richard,  F. Rob,  E. Rossomme,  T. Scheele,  
 M. Scheurer,  M. Schneider,  N. Sergueev,  S. M. Sharada,  W. Skomorowski,  
 D. W. Small,  C. J. Stein,  Yu-Chuan Su,  E. J. Sundstrom,  Zhen Tao,  
 J. Thirman,  T. Tsuchimochi,  N. M. Tubman,  S. P. Veccham,  O. Vydrov,  
 J. Wenzel,  J. Witte,  A. Yamada,  Kun Yao,  S. Yeganeh,  S. R. Yost,  
 A. Zech,  Igor Ying Zhang,  Xing Zhang,  Yu Zhang,  D. Zuev,  
 A. Aspuru-Guzik,  A. T. Bell,  N. A. Besley,  K. B. Bravaya,  B. R. Brooks,  
 D. Casanova,  Jeng-Da Chai,  S. Coriani,  C. J. Cramer,  
 A. E. DePrince, III,  R. A. DiStasio Jr.,  A. Dreuw,  B. D. Dunietz,  
 T. R. Furlani,  W. A. Goddard III,  S. Grimme,  S. Hammes-Schiffer,  
 T. Head-Gordon,  W. J. Hehre,  Chao-Ping Hsu,  T.-C. Jagau,  Yousung Jung,  
 A. Klamt,  Jing Kong,  D. S. Lambrecht,  WanZhen Liang,  N. J. Mayhall,  
 C. W. McCurdy,  J. B. Neaton,  C. Ochsenfeld,  J. A. Parkhill,  R. Peverati,  
 V. A. Rassolov,  Yihan Shao,  L. V. Slipchenko,  T. Stauch,  R. P. Steele,  
 J. E. Subotnik,  A. J. W. Thom,  A. Tkatchenko,  D. G. Truhlar,  
 T. Van Voorhis,  T. A. Wesolowski,  K. B. Whaley,  H. L. Woodcock III,  
 P. M. Zimmerman,  S. Faraji,  P. M. W. Gill,  M. Head-Gordon,  
 J. M. Herbert,  A. I. Krylov

 Contributors to earlier versions of Q-Chem not listed above: 
 R. D. Adamson,  B. Austin,  R. Baer,  J. Baker,  G. J. O. Beran,  
 K. Brandhorst,  S. T. Brown,  E. F. C. Byrd,  A. K. Chakraborty,  
 G. K. L. Chan,  Chun-Min Chang,  Yunqing Chen,  C.-L. Cheng,  
 Siu Hung Chien,  D. M. Chipman,  D. L. Crittenden,  H. Dachsel,  
 R. J. Doerksen,  A. D. Dutoi,  R. G. Edgar,  J. Fosso-Tande,  
 L. Fusti-Molnar,  D. Ghosh,  A. Ghysels,  A. Golubeva-Zadorozhnaya,  
 J. Gonthier,  M. S. Gordon,  S. R. Gwaltney,  G. Hawkins,  J. E. Herr,  
 A. Heyden,  S. Hirata,  E. G. Hohenstein,  G. Kedziora,  F. J. Keil,  
 C. Kelley,  Jihan Kim,  R. A. King,  R. Z. Khaliullin,  P. P. Korambath,  
 W. Kurlancheek,  A. Laurent,  A. M. Lee,  M. S. Lee,  S. V. Levchenko,  
 Ching Yeh Lin,  D. Liotard,  E. Livshits,  R. C. Lochan,  I. Lotan,  
 L. A. Martinez-Martinez,  P. E. Maslen,  N. Nair,  D. P. O'Neill,  
 D. Neuhauser,  E. Neuscamman,  C. M. Oana,  R. Olivares-Amaya,  R. Olson,  
 T. M. Perrine,  B. Peters,  P. A. Pieniazek,  A. Prociuk,  Y. M. Rhee,  
 J. Ritchie,  M. A. Rohrdanz,  E. Rosta,  N. J. Russ,  H. F. Schaefer III,  
 M. W. Schmidt,  N. E. Schultz,  S. Sharma,  N. Shenvi,  C. D. Sherrill,  
 A. C. Simmonett,  A. Sodt,  T. Stein,  D. Stuck,  K. S. Thanthiriwatte,  
 V. Vanovschi,  L. Vogt,  Tao Wang,  A. Warshel,  M. A. Watson,  
 C. F. Williams,  Q. Wu,  X. Xu,  Jun Yang,  W. Zhang,  Yan Zhao

 Please cite Q-Chem as follows:
 Y. Shao et al., Mol. Phys. 113, 184-215 (2015)
 DOI: 10.1080/00268976.2014.952696

 Q-Chem 5.4.0 for Intel X86 EM64T Linux

 Parts of Q-Chem use Armadillo 9.800.1 (Horizon Scraper).
 http://arma.sourceforge.net/

 Q-Chem begins on Tue Jan  9 02:11:37 2024  

 Host: 
0

     Scratch files written to ./qchem2776275//
 May1621 |scratch|qcdevops|jenkins|workspace|build_RNUM    
 Parallel job on  1  processors
 Processing $rem in /cm/shared/apps/spack/cpu/opt/spack/linux-centos8-zen2/gcc-10.2.0/qchem-5.4-akfmr7b3t57bfs6qan3padb2wnb2i7cl/config/preferences:
 Processing $rem in /home/rramji/.qchemrc:
 Symmetry turned off for PCM/SM12/SMD calculation
 Core orbitals will be frozen

 Checking the input file for inconsistencies... 	...done.

 Q-Chem warning in module forms1/BasisType.C, line 2236:

 You are not using the predefined 5D/6D in this basis set.


--------------------------------------------------------------
User input:
--------------------------------------------------------------
$molecule
0 1
C	0.070009	-8.517702	0.313191
C	-0.305494	-7.641575	-0.694746
S	0.614924	-7.638634	1.762350
C	-0.176768	-6.264785	-0.340973
H	-0.669571	-7.966081	-1.677747
C	0.309600	-6.072714	1.000069
C	0.525372	-4.787049	1.520060
C	-0.463825	-5.162801	-1.196466
C	-0.243888	-3.874817	-0.677639
C	0.240312	-3.683952	0.665815
O	-0.941626	-5.499772	-2.426678
O	1.006468	-4.459055	2.755460
C	0.761666	-5.329063	3.853913
H	1.016135	-4.755694	4.765607
H	1.401368	-6.238095	3.822182
H	-0.305161	-5.637262	3.901833
C	-0.868342	-4.572261	-3.502489
H	-1.128551	-5.139743	-4.416005
H	0.154712	-4.153131	-3.613841
H	-1.595605	-3.739531	-3.386756
C	0.369957	-2.306654	1.015430
S	-0.537898	-2.306501	-1.445922
C	-0.000000	-1.435185	-0.000000
H	0.731088	-1.978138	1.998088
H	0.074151	-9.614033	0.314143
C	0.000000	0.000000	0.000000
S	0.382799	0.819795	1.507541
C	1.046687	2.245325	0.718873
C	0.382918	0.819389	-1.067872
C	0.968323	2.080267	-0.686410
S	0.282561	0.597432	-2.805516
C	1.017839	2.187324	-3.054530
C	1.314960	2.830306	-1.862551
F	1.875498	4.043751	-1.819088
C	1.208895	2.592573	-4.456084
O	0.890778	1.891482	-5.406510
O	1.772886	3.819715	-4.569225
C	1.986852	4.266207	-5.916207
H	2.445834	5.267032	-5.833064
H	1.028114	4.323448	-6.470168
H	2.661066	3.573494	-6.459293
H	1.436015	3.083584	1.306486
$end

$rem
JOBTYPE		SP
EXCHANGE	HF
CORRELATION	pRIMP2
BASIS		cc-pvtz
METHOD		rimp2
AUX_BASIS	rimp2-cc-pvtz
SOLVENT_METHOD	PCM
PURECART	11111
SYMMETRY	false
MEM_TOTAL	110000
SCF_CONVERGENCE = 6
THRESH=10
GUI = 2
$end



$solvent
dielectric 4.90
$end
--------------------------------------------------------------
 ----------------------------------------------------------------
             Standard Nuclear Orientation (Angstroms)
    I     Atom           X                Y                Z
 ----------------------------------------------------------------
    1      C       0.0700090000    -8.5177020000     0.3131910000
    2      C      -0.3054940000    -7.6415750000    -0.6947460000
    3      S       0.6149240000    -7.6386340000     1.7623500000
    4      C      -0.1767680000    -6.2647850000    -0.3409730000
    5      H      -0.6695710000    -7.9660810000    -1.6777470000
    6      C       0.3096000000    -6.0727140000     1.0000690000
    7      C       0.5253720000    -4.7870490000     1.5200600000
    8      C      -0.4638250000    -5.1628010000    -1.1964660000
    9      C      -0.2438880000    -3.8748170000    -0.6776390000
   10      C       0.2403120000    -3.6839520000     0.6658150000
   11      O      -0.9416260000    -5.4997720000    -2.4266780000
   12      O       1.0064680000    -4.4590550000     2.7554600000
   13      C       0.7616660000    -5.3290630000     3.8539130000
   14      H       1.0161350000    -4.7556940000     4.7656070000
   15      H       1.4013680000    -6.2380950000     3.8221820000
   16      H      -0.3051610000    -5.6372620000     3.9018330000
   17      C      -0.8683420000    -4.5722610000    -3.5024890000
   18      H      -1.1285510000    -5.1397430000    -4.4160050000
   19      H       0.1547120000    -4.1531310000    -3.6138410000
   20      H      -1.5956050000    -3.7395310000    -3.3867560000
   21      C       0.3699570000    -2.3066540000     1.0154300000
   22      S      -0.5378980000    -2.3065010000    -1.4459220000
   23      C       0.0000000000    -1.4351850000     0.0000000000
   24      H       0.7310880000    -1.9781380000     1.9980880000
   25      H       0.0741510000    -9.6140330000     0.3141430000
   26      C       0.0000000000     0.0000000000     0.0000000000
   27      S       0.3827990000     0.8197950000     1.5075410000
   28      C       1.0466870000     2.2453250000     0.7188730000
   29      C       0.3829180000     0.8193890000    -1.0678720000
   30      C       0.9683230000     2.0802670000    -0.6864100000
   31      S       0.2825610000     0.5974320000    -2.8055160000
   32      C       1.0178390000     2.1873240000    -3.0545300000
   33      C       1.3149600000     2.8303060000    -1.8625510000
   34      F       1.8754980000     4.0437510000    -1.8190880000
   35      C       1.2088950000     2.5925730000    -4.4560840000
   36      O       0.8907780000     1.8914820000    -5.4065100000
   37      O       1.7728860000     3.8197150000    -4.5692250000
   38      C       1.9868520000     4.2662070000    -5.9162070000
   39      H       2.4458340000     5.2670320000    -5.8330640000
   40      H       1.0281140000     4.3234480000    -6.4701680000
   41      H       2.6610660000     3.5734940000    -6.4592930000
   42      H       1.4360150000     3.0835840000     1.3064860000
 ----------------------------------------------------------------
 Nuclear Repulsion Energy =        3297.54736683 hartrees
 There are      119 alpha and      119 beta electrons
 Requested basis set is cc-pVTZ
 There are 376 shells and 1068 basis functions

 Total QAlloc Memory Limit 110000 MB
 Mega-Array Size       188 MB
 MEM_STATIC part       192 MB
 Discretize the solute cavity surface with Lebedev spheres
	Using 110 Lebedev grid points for each H atom
	Using 194 Lebedev grid points for other atoms
	Atomic van der Waals radii will be scaled by 1.20
 Remove points where switching function is < 1.0e-08
 Keep 2866 surface tesserae and discard 4190 interior tesserae
 Molecular Surface Area = 435.893 Angst**2
 Requested basis set is rimp2-cc-pVTZ
 There are 833 shells and 2903 basis functions
 A cutoff of  1.0D-10 yielded  31046 shell pairs
 There are    238490 function pairs (    309641 Cartesian)
 Smallest overlap matrix eigenvalue = 2.17E-05

 Scale SEOQF with 1.000000e-01/1.000000e-02/1.000000e-02

 Standard Electronic Orientation quadrupole field applied
 Nucleus-field energy     =     0.0000000211 hartrees
 Guess from superposition of atomic densities
 Warning:  Energy on first SCF cycle will be non-variational
 SAD guess density has 238.000000 electrons

 -----------------------------------------------------------------------
  General SCF calculation program by
  Eric Jon Sundstrom, Paul Horn, Yuezhi Mao, Dmitri Zuev, Alec White,
  David Stuck, Shaama M.S., Shane Yost, Joonho Lee, David Small,
  Daniel Levine, Susi Lehtola, Hugh Burton, Evgeny Epifanovsky,
  Bang C. Huynh
 -----------------------------------------------------------------------
 Hartree-Fock
 using 64 threads for integral computing
 -------------------------------------------------------
 OpenMP Integral computing Module                
 Release: version 1.0, May 2013, Q-Chem Inc. Pittsburgh 
 -------------------------------------------------------
 A restricted SCF calculation will be
 performed using DIIS
 SCF converges when DIIS error is below 1.0e-06
 ---------------------------------------
  Cycle       Energy         DIIS error
 ---------------------------------------
    1   -2765.2480125797      1.75e-02  
    2   -2753.8703313661      1.56e-03  
    3   -2754.2100264894      8.64e-04  
    4   -2754.2921687469      2.56e-04  
    5   -2754.3038799019      6.94e-05  
    6   -2754.3049736501      2.38e-05  
    7   -2754.3052131970      1.14e-05  
    8   -2754.3052922228      4.27e-06  
    9   -2754.3053070736      1.67e-06  
   10   -2754.3053088687      7.04e-07  Convergence criterion met
 ---------------------------------------
 SCF time:   CPU 6300.83s  wall 236.00s 

************** Final PCM Free Energy Summary **************
 G_electrostatic  =      -0.01879602 hartree =     -11.79468001 kcal/mol
 G_cavitation     =       0.00000000 hartree =       0.00000000 kcal/mol
 G_dispersion     =       0.00000000 hartree =       0.00000000 kcal/mol
 G_repulsion      =       0.00000000 hartree =       0.00000000 kcal/mol
 --------------------------------------------------
 Non-electrostatic Free Energy =       0.00000000 hartree =       0.00000000 kcal/mol
 Total                         =      -0.01879602 hartree =     -11.79468001 kcal/mol
 --------------------------------------------------
 SCF Energy (H0 + V/2)                       =   -2754.30530887 
 Solute Internal Energy (H0)                 =   -2754.28651285 
 Total Free Energy (H0 + V/2 + non-elec)     =   -2754.30530887 hartree
                                             = -1728352.66734068 kcal/mol
***********************************************************

 SCF   energy in the final basis set =    -2754.3053088687
 Total energy in the final basis set =    -2754.3053088687


 --------------------------------------------------------------
  Generalized many-body perturbation theory program
  by Joonho Lee, Fazle Rob, Xintian Feng, Evgeny Epifanovsky

 No regularization used 
 (reg. param. = 0.0000e+00)
  (P|Q)^-1/2 Time:  CPU 224.86 s  wall 4.29 s

 In RI-MP2 calculation: 
 # of frozen core orbitals: 45

 Components of the RIMP2 correlation energy:
        aaaa    correlation energy =        -0.6705640974 a.u.
        abab    correlation energy =        -3.7142822802 a.u.
        bbbb    correlation energy =        -0.6705640974 a.u.
        non-Brillouin singles      =        -0.0000000000 a.u.
        total same-spin energy     =        -1.3411281948 a.u.
        total opposite-spin energy =        -3.7142822802 a.u.

 Total  RIMP2   correlation energy =        -5.0554104750 a.u.
        RIMP2         total energy =     -2759.3607193437 a.u.

 RI-MP2 Energy Time:  CPU 4241.95 s  wall 69.77 s
 
 --------------------------------------------------------------
 
                    Orbital Energies (a.u.)
 --------------------------------------------------------------
 
 Alpha MOs
 -- Occupied --
-92.0151 -92.0008 -91.9898 -91.9854 -26.3441 -20.6150 -20.5921 -20.5902
-20.5615 -11.4098 -11.3836 -11.3194 -11.3156 -11.3151 -11.3055 -11.2986
-11.2977 -11.2971 -11.2890 -11.2866 -11.2864 -11.2857 -11.2849 -11.2835
-11.2779 -11.2612 -11.2566 -11.2507 -11.2493  -9.0138  -9.0008  -8.9905
 -8.9853  -6.6946  -6.6940  -6.6935  -6.6818  -6.6810  -6.6799  -6.6715
 -6.6708  -6.6698  -6.6663  -6.6657  -6.6648  -1.6611  -1.4675  -1.4161
 -1.4130  -1.3702  -1.2245  -1.1938  -1.1654  -1.1374  -1.0857  -1.0512
 -1.0425  -1.0250  -1.0011  -0.9879  -0.9647  -0.9581  -0.9494  -0.9413
 -0.8950  -0.8690  -0.8503  -0.8159  -0.7925  -0.7872  -0.7853  -0.7646
 -0.7557  -0.7331  -0.7259  -0.7109  -0.6987  -0.6859  -0.6830  -0.6820
 -0.6741  -0.6591  -0.6582  -0.6520  -0.6303  -0.6192  -0.6162  -0.6033
 -0.5992  -0.5871  -0.5777  -0.5685  -0.5676  -0.5630  -0.5552  -0.5527
 -0.5321  -0.5285  -0.5224  -0.5191  -0.5171  -0.5112  -0.5058  -0.4942
 -0.4872  -0.4795  -0.4769  -0.4742  -0.4697  -0.4645  -0.4590  -0.4258
 -0.3921  -0.3856  -0.3611  -0.3516  -0.3237  -0.2921  -0.2485
 -- Virtual --
  0.0236   0.0629   0.1077   0.1261   0.1348   0.1432   0.1518   0.1554
  0.1569   0.1603   0.1672   0.1786   0.1822   0.1837   0.1910   0.1966
  0.2017   0.2044   0.2117   0.2149   0.2199   0.2230   0.2237   0.2278
  0.2354   0.2402   0.2489   0.2524   0.2589   0.2630   0.2735   0.2883
  0.2978   0.3139   0.3269   0.3304   0.3402   0.3420   0.3482   0.3532
  0.3549   0.3628   0.3743   0.3800   0.3827   0.3847   0.3876   0.3884
  0.3899   0.3961   0.4046   0.4073   0.4123   0.4132   0.4193   0.4206
  0.4277   0.4338   0.4395   0.4444   0.4506   0.4520   0.4533   0.4597
  0.4631   0.4680   0.4714   0.4768   0.4788   0.4839   0.4879   0.4917
  0.4955   0.4975   0.5043   0.5058   0.5088   0.5162   0.5224   0.5245
  0.5274   0.5304   0.5365   0.5380   0.5385   0.5412   0.5431   0.5476
  0.5495   0.5578   0.5607   0.5635   0.5647   0.5693   0.5799   0.5856
  0.5868   0.5925   0.5974   0.6003   0.6028   0.6045   0.6123   0.6152
  0.6160   0.6178   0.6204   0.6232   0.6261   0.6283   0.6321   0.6375
  0.6415   0.6428   0.6469   0.6510   0.6549   0.6621   0.6657   0.6690
  0.6728   0.6789   0.6847   0.6873   0.6918   0.6937   0.7008   0.7080
  0.7120   0.7134   0.7237   0.7285   0.7306   0.7352   0.7448   0.7531
  0.7571   0.7615   0.7667   0.7718   0.7737   0.7847   0.7953   0.8024
  0.8091   0.8168   0.8183   0.8237   0.8256   0.8360   0.8413   0.8420
  0.8492   0.8586   0.8670   0.8680   0.8722   0.8785   0.8843   0.8854
  0.8892   0.8964   0.8999   0.9034   0.9078   0.9105   0.9227   0.9244
  0.9304   0.9344   0.9417   0.9462   0.9479   0.9558   0.9593   0.9677
  0.9733   0.9775   0.9788   0.9860   0.9888   0.9956   0.9992   0.9996
  1.0070   1.0098   1.0202   1.0225   1.0275   1.0291   1.0375   1.0410
  1.0457   1.0542   1.0575   1.0642   1.0707   1.0732   1.0748   1.0810
  1.0847   1.0901   1.0919   1.0968   1.1002   1.1074   1.1088   1.1111
  1.1147   1.1195   1.1250   1.1292   1.1407   1.1428   1.1468   1.1582
  1.1671   1.1721   1.1737   1.1779   1.1819   1.1859   1.1936   1.1982
  1.1986   1.2062   1.2134   1.2185   1.2208   1.2268   1.2289   1.2350
  1.2393   1.2416   1.2442   1.2509   1.2545   1.2627   1.2651   1.2721
  1.2776   1.2844   1.2877   1.2916   1.3025   1.3106   1.3121   1.3200
  1.3236   1.3281   1.3379   1.3389   1.3481   1.3520   1.3588   1.3647
  1.3756   1.3814   1.3892   1.4009   1.4031   1.4085   1.4149   1.4210
  1.4287   1.4312   1.4412   1.4525   1.4648   1.4759   1.4822   1.4869
  1.4914   1.4969   1.5025   1.5091   1.5109   1.5142   1.5284   1.5311
  1.5347   1.5389   1.5427   1.5446   1.5505   1.5574   1.5622   1.5631
  1.5740   1.5794   1.5913   1.5983   1.6022   1.6051   1.6217   1.6322
  1.6350   1.6394   1.6418   1.6526   1.6634   1.6712   1.6786   1.6823
  1.6877   1.6929   1.6958   1.7111   1.7134   1.7283   1.7315   1.7528
  1.7655   1.7664   1.7732   1.7830   1.7927   1.8031   1.8114   1.8170
  1.8204   1.8252   1.8279   1.8474   1.8539   1.8633   1.8715   1.8728
  1.8848   1.8963   1.8970   1.9091   1.9169   1.9185   1.9208   1.9285
  1.9374   1.9443   1.9534   1.9609   1.9722   1.9784   1.9818   1.9869
  1.9996   2.0048   2.0103   2.0164   2.0212   2.0331   2.0470   2.0515
  2.0678   2.0797   2.0932   2.0983   2.1122   2.1166   2.1388   2.1466
  2.1511   2.1616   2.1655   2.1732   2.1792   2.1850   2.1870   2.1921
  2.2036   2.2067   2.2076   2.2233   2.2274   2.2283   2.2326   2.2432
  2.2497   2.2504   2.2601   2.2640   2.2741   2.2779   2.2792   2.2895
  2.3044   2.3088   2.3161   2.3237   2.3263   2.3332   2.3440   2.3540
  2.3634   2.3696   2.3797   2.3852   2.3937   2.4020   2.4139   2.4227
  2.4295   2.4340   2.4407   2.4510   2.4541   2.4690   2.4766   2.4907
  2.4939   2.5044   2.5084   2.5244   2.5336   2.5434   2.5496   2.5507
  2.5591   2.5790   2.5853   2.5935   2.5993   2.6082   2.6167   2.6200
  2.6265   2.6302   2.6331   2.6398   2.6420   2.6485   2.6565   2.6643
  2.6752   2.6781   2.6847   2.6906   2.7004   2.7012   2.7080   2.7149
  2.7179   2.7269   2.7317   2.7351   2.7442   2.7573   2.7610   2.7704
  2.7845   2.7871   2.7912   2.7959   2.7977   2.8068   2.8150   2.8209
  2.8303   2.8378   2.8459   2.8504   2.8522   2.8606   2.8627   2.8735
  2.8792   2.8815   2.8885   2.8963   2.9126   2.9152   2.9205   2.9367
  2.9434   2.9481   2.9547   2.9568   2.9711   2.9765   2.9819   2.9871
  2.9928   3.0099   3.0128   3.0160   3.0232   3.0319   3.0334   3.0386
  3.0460   3.0526   3.0555   3.0648   3.0833   3.0857   3.0934   3.0996
  3.1015   3.1076   3.1109   3.1196   3.1221   3.1263   3.1390   3.1413
  3.1488   3.1533   3.1566   3.1616   3.1654   3.1682   3.1754   3.1823
  3.1884   3.1964   3.2006   3.2102   3.2145   3.2167   3.2227   3.2283
  3.2360   3.2385   3.2435   3.2504   3.2553   3.2624   3.2673   3.2695
  3.2713   3.2770   3.2777   3.2880   3.2920   3.2970   3.3001   3.3083
  3.3162   3.3198   3.3250   3.3282   3.3397   3.3417   3.3450   3.3511
  3.3530   3.3580   3.3608   3.3640   3.3690   3.3745   3.3799   3.3824
  3.3862   3.3905   3.3929   3.3975   3.3999   3.4023   3.4109   3.4156
  3.4181   3.4296   3.4331   3.4345   3.4420   3.4471   3.4498   3.4557
  3.4591   3.4623   3.4678   3.4696   3.4732   3.4810   3.4843   3.4853
  3.4918   3.5040   3.5145   3.5203   3.5243   3.5265   3.5303   3.5352
  3.5359   3.5488   3.5527   3.5604   3.5626   3.5723   3.5743   3.5780
  3.5840   3.5870   3.5916   3.5972   3.5990   3.6050   3.6091   3.6144
  3.6199   3.6252   3.6313   3.6343   3.6395   3.6458   3.6509   3.6609
  3.6628   3.6734   3.6749   3.6790   3.6851   3.6916   3.6939   3.7011
  3.7026   3.7056   3.7121   3.7197   3.7207   3.7330   3.7387   3.7444
  3.7489   3.7515   3.7571   3.7576   3.7730   3.7741   3.7796   3.7862
  3.7935   3.7975   3.8023   3.8079   3.8104   3.8152   3.8210   3.8246
  3.8283   3.8345   3.8402   3.8478   3.8585   3.8678   3.8684   3.8731
  3.8769   3.8788   3.8869   3.8904   3.8940   3.9089   3.9129   3.9254
  3.9316   3.9364   3.9384   3.9492   3.9518   3.9627   3.9659   3.9716
  3.9860   3.9919   4.0050   4.0107   4.0180   4.0236   4.0323   4.0444
  4.0473   4.0575   4.0650   4.0685   4.0741   4.0791   4.0856   4.0900
  4.1012   4.1129   4.1186   4.1236   4.1345   4.1380   4.1473   4.1539
  4.1601   4.1637   4.1664   4.1688   4.1780   4.1892   4.1901   4.1999
  4.2050   4.2136   4.2195   4.2358   4.2386   4.2456   4.2550   4.2634
  4.2756   4.2836   4.2975   4.3054   4.3195   4.3263   4.3355   4.3411
  4.3422   4.3586   4.3651   4.3714   4.3782   4.3834   4.3920   4.3949
  4.4048   4.4091   4.4141   4.4250   4.4299   4.4323   4.4396   4.4503
  4.4535   4.4680   4.4800   4.4881   4.4919   4.5058   4.5121   4.5271
  4.5316   4.5397   4.5519   4.5564   4.5605   4.5644   4.5809   4.5820
  4.5944   4.5997   4.6133   4.6252   4.6283   4.6449   4.6487   4.6550
  4.6596   4.6718   4.6799   4.6841   4.6955   4.7180   4.7366   4.7394
  4.7419   4.7603   4.7674   4.7780   4.7838   4.7917   4.8170   4.8237
  4.8300   4.8376   4.8481   4.8548   4.8598   4.8757   4.8916   4.9102
  4.9185   4.9481   4.9500   4.9552   4.9584   4.9716   4.9823   4.9983
  5.0059   5.0088   5.0135   5.0270   5.0362   5.0404   5.0686   5.0823
  5.0867   5.1014   5.1197   5.1391   5.1619   5.1651   5.1773   5.1949
  5.2033   5.2199   5.2462   5.2497   5.2506   5.2575   5.2593   5.2805
  5.2961   5.3087   5.3133   5.3288   5.3412   5.3504   5.3537   5.3633
  5.3840   5.3968   5.3996   5.4036   5.4261   5.4298   5.4537   5.4646
  5.4717   5.4849   5.4984   5.5084   5.5152   5.5240   5.5401   5.5554
  5.5742   5.5822   5.5858   5.6062   5.6135   5.6215   5.6421   5.6647
  5.7193   5.7298   5.7582   5.7797   5.8073   5.8169   5.8323   5.8552
  5.8738   5.8815   5.9062   5.9259   5.9289   5.9816   5.9861   6.0416
  6.0521   6.0715   6.0993   6.1503   6.1699   6.1720   6.1773   6.1901
  6.2357   6.2506   6.2613   6.2674   6.2763   6.2781   6.3201   6.3331
  6.4237   6.4499   6.4515   6.4759   6.5382   6.5498   6.5578   6.6017
  6.6541   6.6612   6.6709   6.6987   6.7457   6.8012   6.8299   6.8402
  6.8593   6.8939   6.9777   7.1207   7.1368   7.2037   7.2057   7.2163
  7.2350   7.3096   7.3209   7.3323   7.3625   7.3636   7.4054   7.4131
  7.4806   7.4849   7.4900   7.5220   7.5505   7.6181   7.7149   7.7722
  7.7881   7.7971   7.8929   7.9184   7.9437   7.9682   8.0963   8.1357
  8.4112   8.9212   9.0153   9.3623   9.4743   9.6509  10.0650  10.5555
 11.1601  11.4370  11.7784  11.9344  12.1276  12.1936  12.4190  12.5914
 12.7143  12.9544  13.0197  13.2452  13.2969  13.3872  13.7780  13.8478
 13.9057  14.0243  14.0315  14.5103  15.2065
 --------------------------------------------------------------
 
          Ground-State Mulliken Net Atomic Charges

     Atom                 Charge (a.u.)
  ----------------------------------------
      1 C                    -0.192824
      2 C                    -0.252986
      3 S                    -0.024422
      4 C                    -0.018658
      5 H                     0.196086
      6 C                    -0.025859
      7 C                     0.234635
      8 C                     0.245008
      9 C                    -0.039290
     10 C                    -0.016859
     11 O                    -0.333042
     12 O                    -0.341333
     13 C                    -0.085593
     14 H                     0.121858
     15 H                     0.090989
     16 H                     0.093539
     17 C                    -0.088449
     18 H                     0.125476
     19 H                     0.095680
     20 H                     0.089992
     21 C                    -0.267126
     22 S                    -0.031231
     23 C                     0.001150
     24 H                     0.189171
     25 H                     0.205760
     26 C                    -0.008446
     27 S                     0.086625
     28 C                    -0.166053
     29 C                     0.027949
     30 C                    -0.119826
     31 S                     0.015692
     32 C                    -0.163396
     33 C                     0.404116
     34 F                    -0.205744
     35 C                     0.446229
     36 O                    -0.461147
     37 O                    -0.301038
     38 C                    -0.058495
     39 H                     0.121453
     40 H                     0.095169
     41 H                     0.095160
     42 H                     0.220080
  ----------------------------------------
  Sum of atomic charges =     0.000000

 -----------------------------------------------------------------
                    Cartesian Multipole Moments
 -----------------------------------------------------------------
    Charge (ESU x 10^10)
                 0.0000
    Dipole Moment (Debye)
         X       1.0266      Y       1.6426      Z       2.6441
       Tot       3.2777
    Quadrupole Moments (Debye-Ang)
        XX    -198.9328     XY       7.8631     YY    -165.4823
        XZ      -0.3098     YZ      -6.5457     ZZ    -181.1592
    Octopole Moments (Debye-Ang^2)
       XXX    -240.5767    XXY     408.6602    XYY     -64.8528
       YYY     914.2576    XXZ     141.9982    XYZ     -38.4983
       YYZ     111.0306    XZZ     -44.0914    YZZ     362.3134
       ZZZ     507.8646
    Hexadecapole Moments (Debye-Ang^3)
      XXXX   -1080.8015   XXXY    -522.0467   XXYY   -4007.5747
      XYYY    -445.9851   YYYY  -18931.2680   XXXZ     311.5905
      XXYZ     624.6739   XYYZ      84.7481   YYYZ    1674.2788
      XXZZ   -1330.3116   XYZZ      58.6663   YYZZ   -3976.9349
      XZZZ     197.8242   YZZZ    1447.2277   ZZZZ   -7294.6951
 -----------------------------------------------------------------
 Total job time:  311.49s(wall), 10741.28s(cpu) 
 Tue Jan  9 02:16:48 2024

        *************************************************************
        *                                                           *
        *  Thank you very much for using Q-Chem.  Have a nice day.  *
        *                                                           *
        *************************************************************


0 sent ACK to 0 
now end server 0 ... 
cleanup process ... done
remove work dirs ./qchem2776275.0 -- ./qchem2776275.0
rm -rf ./qchem2776275.0
rm -rf ./qchem2776275
