You are running Q-Chem version: 5.4.0

#
# job setting
#
local host:  exp-8-43
current dir: /home/rramji/project-csd799/aromodel/ptb7fout-qchem/rotation-run
input file:  Dimethoxy_Benzodithiophene_Phi_20_Theta_240_Methylcarbonyl_3_Fluoro_Thienothiophene.qcin
output file: 
nprocs     : 1
nthreads   : 64
#
# qchem installation setting
#
QC:          /cm/shared/apps/spack/cpu/opt/spack/linux-centos8-zen2/gcc-10.2.0/qchem-5.4-akfmr7b3t57bfs6qan3padb2wnb2i7cl
QCAUX:       /cm/shared/apps/spack/cpu/opt/spack/linux-centos8-zen2/gcc-10.2.0/qchem-5.4-akfmr7b3t57bfs6qan3padb2wnb2i7cl/qcaux
QCPROG:      /cm/shared/apps/spack/cpu/opt/spack/linux-centos8-zen2/gcc-10.2.0/qchem-5.4-akfmr7b3t57bfs6qan3padb2wnb2i7cl/exe/qcprog.exe
QCPROG_S:    /cm/shared/apps/spack/cpu/opt/spack/linux-centos8-zen2/gcc-10.2.0/qchem-5.4-akfmr7b3t57bfs6qan3padb2wnb2i7cl/exe/qcprog.exe_s
PARALLEL:    -DPARALLEL
QCMPI:       mpich
#
# qchem directory setting
#
qcrun:       qchem2294332
QCSCRATCH:   .
QCLOCALSCR:  
QCTMPDIR:    .
QCFILEPREF:  ./qchem2294332
QCSAVEDIR:   
workdirs:    ./qchem2294332
workdir0:    ./qchem2294332
partmpdirs =  
#
# parallel setting
#
QCRSH:           ssh
QCMPI:           mpich
QCMPIRUN:        /cm/shared/apps/spack/cpu/opt/spack/linux-centos8-zen2/gcc-10.2.0/qchem-5.4-akfmr7b3t57bfs6qan3padb2wnb2i7cl/bin/mpi/mpirun_qchem
QCMACHINEFILE:   ./qchem2294332/hostfile
exp-8-43

#
# env setting
#
exported envs:   QC QCAUX QCSCRATCH QCRUNNAME QCFILEPREF QCPROG QCPROG_S GUIFILE

Running Job 1 of 1 Dimethoxy_Benzodithiophene_Phi_20_Theta_240_Methylcarbonyl_3_Fluoro_Thienothiophene.qcin
qchem Dimethoxy_Benzodithiophene_Phi_20_Theta_240_Methylcarbonyl_3_Fluoro_Thienothiophene.qcin_2294332.0 ./qchem2294332/ 1
/cm/shared/apps/spack/cpu/opt/spack/linux-centos8-zen2/gcc-10.2.0/qchem-5.4-akfmr7b3t57bfs6qan3padb2wnb2i7cl/bin/mpi/mpirun_qchem -machinefile ./qchem2294332/hostfile -np 1 /cm/shared/apps/spack/cpu/opt/spack/linux-centos8-zen2/gcc-10.2.0/qchem-5.4-akfmr7b3t57bfs6qan3padb2wnb2i7cl/exe/qcprog.exe Dimethoxy_Benzodithiophene_Phi_20_Theta_240_Methylcarbonyl_3_Fluoro_Thienothiophene.qcin_2294332.0 ./qchem2294332/

Process 0 of 1 is on exp-8-43 - thread support 0
initial socket setup ...start
initial socket setup ...done 
now start server 0 ... 
                  Welcome to Q-Chem
     A Quantum Leap Into The Future Of Chemistry


 Q-Chem 5.4, Q-Chem, Inc., Pleasanton, CA (2021)

 License issued to: University of California, San Diego (site)

 E. Epifanovsky,  A. T. B. Gilbert,  Xintian Feng,  Joonho Lee,  Yuezhi Mao,  
 N. Mardirossian,  P. Pokhilko,  A. White,  M. Wormit,  M. P. Coons,  
 A. L. Dempwolff,  Zhengting Gan,  D. Hait,  P. R. Horn,  L. D. Jacobson,  
 I. Kaliman,  J. Kussmann,  A. W. Lange,  Ka Un Lao,  D. S. Levine,  Jie Liu,  
 S. C. McKenzie,  A. F. Morrison,  K. Nanda,  F. Plasser,  D. R. Rehn,  
 M. L. Vidal,  Zhi-Qiang You,  Ying Zhu,  B. Alam,  B. Albrecht,  
 A. Aldossary,  E. Alguire,  J. H. Andersen,  D. Barton,  K. Begam,  A. Behn,  
 Y. A. Bernard,  E. J. Berquist,  H. Burton,  A. Carreras,  K. Carter-Fenk,  
 R. Chakraborty,  A. D. Chien,  K. D. Closser,  V. Cofer-Shabica,  
 S. Dasgupta,  Jia Deng,  M. de Wergifosse,  M. Diedenhofen,  Hainam Do,  
 S. Ehlert,  Po-Tung Fang,  S. Fatehi,  Qingguo Feng,  J. Gayvert,  
 Qinghui Ge,  G. Gidofalvi,  M. Goldey,  J. Gomes,  C. Gonzalez-Espinoza,  
 S. Gulania,  A. Gunina,  M. W. D. Hanson-Heine,  P. H. P. Harbach,  
 A. W. Hauser,  M. F. Herbst,  M. Hernandez Vera,  M. Hodecker,  
 Z. C. Holden,  S. Houck,  Xunkun Huang,  Kerwin Hui,  B. C. Huynh,  
 M. Ivanov,  Hyunjun Ji,  Hanjie Jiang,  B. Kaduk,  S. Kaehler,  
 K. Khistyaev,  Jaehoon Kim,  P. Klunzinger,  Z. Koczor-Benda,  
 Joong Hoon Koh,  D. Kosenkov,  L. Koulias,  T. Kowalczyk,  C. M. Krauter,  
 K. Kue,  A. Kunitsa,  T. Kus,  A. Landau,  K. V. Lawler,  D. Lefrancois,  
 S. Lehtola,  Rain Li,  Yi-Pei Li,  Jiashu Liang,  M. Liebenthal,  
 Hung-Hsuan Lin,  You-Sheng Lin,  Fenglai Liu,  Kuan-Yu Liu,  
 M. Loipersberger,  A. Luenser,  A. Manjanath,  P. Manohar,  E. Mansoor,  
 S. F. Manzer,  Shan-Ping Mao,  A. V. Marenich,  T. Markovich,  S. Mason,  
 S. A. Maurer,  P. F. McLaughlin,  M. F. S. J. Menger,  J.-M. Mewes,  
 S. A. Mewes,  P. Morgante,  J. W. Mullinax,  T. S. Nguyen-Beck,  
 K. J. Oosterbaan,  G. Paran,  Alexander C. Paul,  Suranjan K. Paul,  
 F. Pavosevic,  Zheng Pei,  S. Prager,  E. I. Proynov,  E. Ramos,  B. Rana,  
 A. E. Rask,  A. Rettig,  R. M. Richard,  F. Rob,  E. Rossomme,  T. Scheele,  
 M. Scheurer,  M. Schneider,  N. Sergueev,  S. M. Sharada,  W. Skomorowski,  
 D. W. Small,  C. J. Stein,  Yu-Chuan Su,  E. J. Sundstrom,  Zhen Tao,  
 J. Thirman,  T. Tsuchimochi,  N. M. Tubman,  S. P. Veccham,  O. Vydrov,  
 J. Wenzel,  J. Witte,  A. Yamada,  Kun Yao,  S. Yeganeh,  S. R. Yost,  
 A. Zech,  Igor Ying Zhang,  Xing Zhang,  Yu Zhang,  D. Zuev,  
 A. Aspuru-Guzik,  A. T. Bell,  N. A. Besley,  K. B. Bravaya,  B. R. Brooks,  
 D. Casanova,  Jeng-Da Chai,  S. Coriani,  C. J. Cramer,  
 A. E. DePrince, III,  R. A. DiStasio Jr.,  A. Dreuw,  B. D. Dunietz,  
 T. R. Furlani,  W. A. Goddard III,  S. Grimme,  S. Hammes-Schiffer,  
 T. Head-Gordon,  W. J. Hehre,  Chao-Ping Hsu,  T.-C. Jagau,  Yousung Jung,  
 A. Klamt,  Jing Kong,  D. S. Lambrecht,  WanZhen Liang,  N. J. Mayhall,  
 C. W. McCurdy,  J. B. Neaton,  C. Ochsenfeld,  J. A. Parkhill,  R. Peverati,  
 V. A. Rassolov,  Yihan Shao,  L. V. Slipchenko,  T. Stauch,  R. P. Steele,  
 J. E. Subotnik,  A. J. W. Thom,  A. Tkatchenko,  D. G. Truhlar,  
 T. Van Voorhis,  T. A. Wesolowski,  K. B. Whaley,  H. L. Woodcock III,  
 P. M. Zimmerman,  S. Faraji,  P. M. W. Gill,  M. Head-Gordon,  
 J. M. Herbert,  A. I. Krylov

 Contributors to earlier versions of Q-Chem not listed above: 
 R. D. Adamson,  B. Austin,  R. Baer,  J. Baker,  G. J. O. Beran,  
 K. Brandhorst,  S. T. Brown,  E. F. C. Byrd,  A. K. Chakraborty,  
 G. K. L. Chan,  Chun-Min Chang,  Yunqing Chen,  C.-L. Cheng,  
 Siu Hung Chien,  D. M. Chipman,  D. L. Crittenden,  H. Dachsel,  
 R. J. Doerksen,  A. D. Dutoi,  R. G. Edgar,  J. Fosso-Tande,  
 L. Fusti-Molnar,  D. Ghosh,  A. Ghysels,  A. Golubeva-Zadorozhnaya,  
 J. Gonthier,  M. S. Gordon,  S. R. Gwaltney,  G. Hawkins,  J. E. Herr,  
 A. Heyden,  S. Hirata,  E. G. Hohenstein,  G. Kedziora,  F. J. Keil,  
 C. Kelley,  Jihan Kim,  R. A. King,  R. Z. Khaliullin,  P. P. Korambath,  
 W. Kurlancheek,  A. Laurent,  A. M. Lee,  M. S. Lee,  S. V. Levchenko,  
 Ching Yeh Lin,  D. Liotard,  E. Livshits,  R. C. Lochan,  I. Lotan,  
 L. A. Martinez-Martinez,  P. E. Maslen,  N. Nair,  D. P. O'Neill,  
 D. Neuhauser,  E. Neuscamman,  C. M. Oana,  R. Olivares-Amaya,  R. Olson,  
 T. M. Perrine,  B. Peters,  P. A. Pieniazek,  A. Prociuk,  Y. M. Rhee,  
 J. Ritchie,  M. A. Rohrdanz,  E. Rosta,  N. J. Russ,  H. F. Schaefer III,  
 M. W. Schmidt,  N. E. Schultz,  S. Sharma,  N. Shenvi,  C. D. Sherrill,  
 A. C. Simmonett,  A. Sodt,  T. Stein,  D. Stuck,  K. S. Thanthiriwatte,  
 V. Vanovschi,  L. Vogt,  Tao Wang,  A. Warshel,  M. A. Watson,  
 C. F. Williams,  Q. Wu,  X. Xu,  Jun Yang,  W. Zhang,  Yan Zhao

 Please cite Q-Chem as follows:
 Y. Shao et al., Mol. Phys. 113, 184-215 (2015)
 DOI: 10.1080/00268976.2014.952696

 Q-Chem 5.4.0 for Intel X86 EM64T Linux

 Parts of Q-Chem use Armadillo 9.800.1 (Horizon Scraper).
 http://arma.sourceforge.net/

 Q-Chem begins on Tue Jan  9 01:43:23 2024  

 Host: 
0

     Scratch files written to ./qchem2294332//
 May1621 |scratch|qcdevops|jenkins|workspace|build_RNUM    
 Parallel job on  1  processors
 Processing $rem in /cm/shared/apps/spack/cpu/opt/spack/linux-centos8-zen2/gcc-10.2.0/qchem-5.4-akfmr7b3t57bfs6qan3padb2wnb2i7cl/config/preferences:
 Processing $rem in /home/rramji/.qchemrc:
 Symmetry turned off for PCM/SM12/SMD calculation
 Core orbitals will be frozen

 Checking the input file for inconsistencies... 	...done.

 Q-Chem warning in module forms1/BasisType.C, line 2236:

 You are not using the predefined 5D/6D in this basis set.


--------------------------------------------------------------
User input:
--------------------------------------------------------------
$molecule
0 1
C	0.296276	-8.517702	-0.123330
C	-0.631143	-7.641575	0.421494
S	1.628795	-7.638634	-0.911611
C	-0.305097	-6.264785	0.233291
H	-1.535988	-7.966081	0.950737
C	0.931114	-6.072714	-0.478557
C	1.405737	-4.787049	-0.781346
C	-1.097747	-5.162801	0.664542
C	-0.624993	-3.874817	0.357854
C	0.613970	-3.683952	-0.352278
O	-2.226300	-5.499772	1.348709
O	2.538827	-4.459055	-1.469658
C	3.663102	-5.329063	-1.419319
H	4.516756	-4.755694	-1.828237
H	3.520769	-6.238095	-2.043793
H	3.895546	-5.637262	-0.377021
C	-3.298492	-4.572261	1.463351
H	-4.152945	-5.139743	1.878237
H	-3.585804	-4.153131	0.475176
H	-3.058230	-3.739531	2.159469
C	0.935761	-2.306654	-0.540664
S	-1.330550	-2.306501	0.780808
C	-0.000000	-1.435185	-0.000000
H	1.840780	-1.978138	-1.066946
H	0.296494	-9.614033	-0.127575
C	0.000000	0.000000	0.000000
S	0.309893	0.850039	1.507541
C	0.847011	2.328006	0.718873
C	0.310046	0.849645	-1.067872
C	0.783331	2.156746	-0.686410
S	0.229416	0.619785	-2.805516
C	0.823328	2.267711	-3.054530
C	1.063278	2.934142	-1.862551
F	1.515925	4.191824	-1.819088
C	0.978337	2.688069	-4.456084
O	0.722535	1.961921	-5.406510
O	1.433229	3.959697	-4.569225
C	1.607467	4.423139	-5.916207
H	1.977475	5.460158	-5.833064
H	0.647388	4.396602	-6.470168
H	2.339490	3.791823	-6.459293
H	1.161798	3.197007	1.306486
$end

$rem
JOBTYPE		SP
EXCHANGE	HF
CORRELATION	pRIMP2
BASIS		cc-pvtz
METHOD		rimp2
AUX_BASIS	rimp2-cc-pvtz
SOLVENT_METHOD	PCM
PURECART	11111
SYMMETRY	false
MEM_TOTAL	110000
SCF_CONVERGENCE = 6
THRESH=10
GUI = 2
$end



$solvent
dielectric 4.90
$end
--------------------------------------------------------------
 ----------------------------------------------------------------
             Standard Nuclear Orientation (Angstroms)
    I     Atom           X                Y                Z
 ----------------------------------------------------------------
    1      C       0.2962760000    -8.5177020000    -0.1233300000
    2      C      -0.6311430000    -7.6415750000     0.4214940000
    3      S       1.6287950000    -7.6386340000    -0.9116110000
    4      C      -0.3050970000    -6.2647850000     0.2332910000
    5      H      -1.5359880000    -7.9660810000     0.9507370000
    6      C       0.9311140000    -6.0727140000    -0.4785570000
    7      C       1.4057370000    -4.7870490000    -0.7813460000
    8      C      -1.0977470000    -5.1628010000     0.6645420000
    9      C      -0.6249930000    -3.8748170000     0.3578540000
   10      C       0.6139700000    -3.6839520000    -0.3522780000
   11      O      -2.2263000000    -5.4997720000     1.3487090000
   12      O       2.5388270000    -4.4590550000    -1.4696580000
   13      C       3.6631020000    -5.3290630000    -1.4193190000
   14      H       4.5167560000    -4.7556940000    -1.8282370000
   15      H       3.5207690000    -6.2380950000    -2.0437930000
   16      H       3.8955460000    -5.6372620000    -0.3770210000
   17      C      -3.2984920000    -4.5722610000     1.4633510000
   18      H      -4.1529450000    -5.1397430000     1.8782370000
   19      H      -3.5858040000    -4.1531310000     0.4751760000
   20      H      -3.0582300000    -3.7395310000     2.1594690000
   21      C       0.9357610000    -2.3066540000    -0.5406640000
   22      S      -1.3305500000    -2.3065010000     0.7808080000
   23      C       0.0000000000    -1.4351850000     0.0000000000
   24      H       1.8407800000    -1.9781380000    -1.0669460000
   25      H       0.2964940000    -9.6140330000    -0.1275750000
   26      C       0.0000000000     0.0000000000     0.0000000000
   27      S       0.3098930000     0.8500390000     1.5075410000
   28      C       0.8470110000     2.3280060000     0.7188730000
   29      C       0.3100460000     0.8496450000    -1.0678720000
   30      C       0.7833310000     2.1567460000    -0.6864100000
   31      S       0.2294160000     0.6197850000    -2.8055160000
   32      C       0.8233280000     2.2677110000    -3.0545300000
   33      C       1.0632780000     2.9341420000    -1.8625510000
   34      F       1.5159250000     4.1918240000    -1.8190880000
   35      C       0.9783370000     2.6880690000    -4.4560840000
   36      O       0.7225350000     1.9619210000    -5.4065100000
   37      O       1.4332290000     3.9596970000    -4.5692250000
   38      C       1.6074670000     4.4231390000    -5.9162070000
   39      H       1.9774750000     5.4601580000    -5.8330640000
   40      H       0.6473880000     4.3966020000    -6.4701680000
   41      H       2.3394900000     3.7918230000    -6.4592930000
   42      H       1.1617980000     3.1970070000     1.3064860000
 ----------------------------------------------------------------
 Nuclear Repulsion Energy =        3278.95628267 hartrees
 There are      119 alpha and      119 beta electrons
 Requested basis set is cc-pVTZ
 There are 376 shells and 1068 basis functions

 Total QAlloc Memory Limit 110000 MB
 Mega-Array Size       188 MB
 MEM_STATIC part       192 MB
 Discretize the solute cavity surface with Lebedev spheres
	Using 110 Lebedev grid points for each H atom
	Using 194 Lebedev grid points for other atoms
	Atomic van der Waals radii will be scaled by 1.20
 Remove points where switching function is < 1.0e-08
 Keep 2908 surface tesserae and discard 4148 interior tesserae
 Molecular Surface Area = 442.634 Angst**2
 Requested basis set is rimp2-cc-pVTZ
 There are 833 shells and 2903 basis functions
 A cutoff of  1.0D-10 yielded  30884 shell pairs
 There are    237468 function pairs (    308425 Cartesian)
 Smallest overlap matrix eigenvalue = 2.17E-05

 Scale SEOQF with 1.000000e-01/1.000000e-02/1.000000e-02

 Standard Electronic Orientation quadrupole field applied
 Nucleus-field energy     =     0.0000000379 hartrees
 Guess from superposition of atomic densities
 Warning:  Energy on first SCF cycle will be non-variational
 SAD guess density has 238.000000 electrons

 -----------------------------------------------------------------------
  General SCF calculation program by
  Eric Jon Sundstrom, Paul Horn, Yuezhi Mao, Dmitri Zuev, Alec White,
  David Stuck, Shaama M.S., Shane Yost, Joonho Lee, David Small,
  Daniel Levine, Susi Lehtola, Hugh Burton, Evgeny Epifanovsky,
  Bang C. Huynh
 -----------------------------------------------------------------------
 Hartree-Fock
 using 64 threads for integral computing
 -------------------------------------------------------
 OpenMP Integral computing Module                
 Release: version 1.0, May 2013, Q-Chem Inc. Pittsburgh 
 -------------------------------------------------------
 A restricted SCF calculation will be
 performed using DIIS
 SCF converges when DIIS error is below 1.0e-06
 ---------------------------------------
  Cycle       Energy         DIIS error
 ---------------------------------------
    1   -2765.2111534090      1.75e-02  
    2   -2753.8768314073      1.56e-03  
    3   -2754.2149028684      8.59e-04  
    4   -2754.2957314700      2.56e-04  
    5   -2754.3073390494      6.95e-05  
    6   -2754.3084225075      2.37e-05  
    7   -2754.3086579486      1.14e-05  
    8   -2754.3087350604      4.29e-06  
    9   -2754.3087494986      1.67e-06  
   10   -2754.3087512495      7.33e-07  Convergence criterion met
 ---------------------------------------
 SCF time:   CPU 6149.17s  wall 258.00s 

************** Final PCM Free Energy Summary **************
 G_electrostatic  =      -0.01873041 hartree =     -11.75351150 kcal/mol
 G_cavitation     =       0.00000000 hartree =       0.00000000 kcal/mol
 G_dispersion     =       0.00000000 hartree =       0.00000000 kcal/mol
 G_repulsion      =       0.00000000 hartree =       0.00000000 kcal/mol
 --------------------------------------------------
 Non-electrostatic Free Energy =       0.00000000 hartree =       0.00000000 kcal/mol
 Total                         =      -0.01873041 hartree =     -11.75351150 kcal/mol
 --------------------------------------------------
 SCF Energy (H0 + V/2)                       =   -2754.30875125 
 Solute Internal Energy (H0)                 =   -2754.29002084 
 Total Free Energy (H0 + V/2 + non-elec)     =   -2754.30875125 hartree
                                             = -1728354.82746724 kcal/mol
***********************************************************

 SCF   energy in the final basis set =    -2754.3087512495
 Total energy in the final basis set =    -2754.3087512495


 --------------------------------------------------------------
  Generalized many-body perturbation theory program
  by Joonho Lee, Fazle Rob, Xintian Feng, Evgeny Epifanovsky

 No regularization used 
 (reg. param. = 0.0000e+00)
  (P|Q)^-1/2 Time:  CPU 259.74 s  wall 5.01 s

 In RI-MP2 calculation: 
 # of frozen core orbitals: 45

 Components of the RIMP2 correlation energy:
        aaaa    correlation energy =        -0.6694722277 a.u.
        abab    correlation energy =        -3.7125481843 a.u.
        bbbb    correlation energy =        -0.6694722277 a.u.
        non-Brillouin singles      =        -0.0000000000 a.u.
        total same-spin energy     =        -1.3389444553 a.u.
        total opposite-spin energy =        -3.7125481843 a.u.

 Total  RIMP2   correlation energy =        -5.0514926396 a.u.
        RIMP2         total energy =     -2759.3602438891 a.u.

 RI-MP2 Energy Time:  CPU 2704.85 s  wall 44.46 s
 
 --------------------------------------------------------------
 
                    Orbital Energies (a.u.)
 --------------------------------------------------------------
 
 Alpha MOs
 -- Occupied --
-92.0143 -91.9976 -91.9882 -91.9862 -26.3429 -20.6144 -20.5923 -20.5912
-20.5607 -11.4088 -11.3818 -11.3190 -11.3177 -11.3117 -11.3020 -11.2967
-11.2947 -11.2929 -11.2886 -11.2870 -11.2859 -11.2856 -11.2843 -11.2838
-11.2797 -11.2606 -11.2587 -11.2565 -11.2499  -9.0129  -8.9976  -8.9887
 -8.9861  -6.6936  -6.6930  -6.6925  -6.6786  -6.6779  -6.6768  -6.6696
 -6.6689  -6.6680  -6.6671  -6.6665  -6.6656  -1.6600  -1.4668  -1.4164
 -1.4140  -1.3695  -1.2212  -1.1941  -1.1652  -1.1356  -1.0844  -1.0517
 -1.0413  -1.0223  -1.0011  -0.9876  -0.9620  -0.9601  -0.9502  -0.9389
 -0.8955  -0.8672  -0.8504  -0.8082  -0.7965  -0.7877  -0.7863  -0.7643
 -0.7549  -0.7336  -0.7249  -0.7093  -0.7014  -0.6847  -0.6828  -0.6802
 -0.6735  -0.6591  -0.6574  -0.6524  -0.6301  -0.6199  -0.6170  -0.6048
 -0.5975  -0.5837  -0.5768  -0.5707  -0.5661  -0.5615  -0.5535  -0.5508
 -0.5313  -0.5302  -0.5240  -0.5160  -0.5149  -0.5080  -0.5049  -0.4953
 -0.4885  -0.4798  -0.4751  -0.4732  -0.4688  -0.4667  -0.4605  -0.4112
 -0.3954  -0.3865  -0.3576  -0.3495  -0.3200  -0.2940  -0.2560
 -- Virtual --
  0.0336   0.0586   0.1077   0.1245   0.1385   0.1450   0.1499   0.1556
  0.1559   0.1595   0.1607   0.1697   0.1818   0.1865   0.1883   0.1924
  0.2000   0.2041   0.2150   0.2163   0.2202   0.2213   0.2243   0.2282
  0.2340   0.2368   0.2434   0.2477   0.2537   0.2638   0.2712   0.2788
  0.2854   0.3019   0.3250   0.3322   0.3348   0.3393   0.3435   0.3488
  0.3526   0.3574   0.3670   0.3754   0.3806   0.3830   0.3853   0.3858
  0.3910   0.3952   0.4002   0.4062   0.4087   0.4150   0.4212   0.4248
  0.4287   0.4329   0.4353   0.4447   0.4473   0.4489   0.4532   0.4577
  0.4588   0.4629   0.4670   0.4737   0.4778   0.4827   0.4862   0.4886
  0.4931   0.4984   0.5010   0.5065   0.5121   0.5143   0.5165   0.5226
  0.5292   0.5296   0.5327   0.5356   0.5415   0.5447   0.5469   0.5495
  0.5517   0.5540   0.5554   0.5612   0.5659   0.5703   0.5731   0.5819
  0.5864   0.5903   0.5924   0.5941   0.6010   0.6047   0.6089   0.6114
  0.6149   0.6171   0.6213   0.6219   0.6233   0.6252   0.6315   0.6355
  0.6363   0.6434   0.6441   0.6475   0.6527   0.6551   0.6631   0.6681
  0.6707   0.6754   0.6793   0.6850   0.6870   0.6970   0.7014   0.7081
  0.7112   0.7149   0.7198   0.7226   0.7262   0.7320   0.7413   0.7525
  0.7534   0.7563   0.7617   0.7640   0.7751   0.7826   0.7898   0.7957
  0.8040   0.8063   0.8174   0.8186   0.8279   0.8354   0.8373   0.8415
  0.8448   0.8518   0.8565   0.8657   0.8699   0.8738   0.8771   0.8809
  0.8920   0.8976   0.8997   0.9052   0.9093   0.9157   0.9175   0.9225
  0.9300   0.9348   0.9393   0.9484   0.9498   0.9509   0.9595   0.9661
  0.9720   0.9738   0.9782   0.9823   0.9871   0.9937   0.9984   1.0028
  1.0061   1.0151   1.0183   1.0226   1.0284   1.0306   1.0340   1.0419
  1.0482   1.0545   1.0560   1.0654   1.0678   1.0741   1.0763   1.0780
  1.0840   1.0857   1.0911   1.0945   1.0999   1.1070   1.1096   1.1131
  1.1167   1.1197   1.1215   1.1320   1.1409   1.1430   1.1509   1.1558
  1.1612   1.1637   1.1713   1.1812   1.1830   1.1888   1.1905   1.1974
  1.1994   1.2082   1.2105   1.2146   1.2166   1.2222   1.2258   1.2262
  1.2350   1.2405   1.2426   1.2498   1.2597   1.2648   1.2678   1.2690
  1.2721   1.2759   1.2812   1.2893   1.3014   1.3038   1.3151   1.3180
  1.3244   1.3284   1.3347   1.3415   1.3453   1.3596   1.3646   1.3696
  1.3718   1.3830   1.3891   1.3962   1.4067   1.4114   1.4175   1.4202
  1.4309   1.4413   1.4488   1.4529   1.4709   1.4729   1.4847   1.4905
  1.4967   1.4993   1.5034   1.5076   1.5135   1.5162   1.5243   1.5336
  1.5365   1.5382   1.5396   1.5450   1.5469   1.5537   1.5595   1.5672
  1.5724   1.5763   1.5870   1.5976   1.6049   1.6062   1.6210   1.6243
  1.6338   1.6472   1.6516   1.6567   1.6628   1.6661   1.6764   1.6825
  1.6857   1.6891   1.6943   1.7031   1.7165   1.7197   1.7304   1.7521
  1.7635   1.7654   1.7798   1.7820   1.7896   1.7984   1.8104   1.8190
  1.8242   1.8277   1.8319   1.8450   1.8647   1.8669   1.8729   1.8783
  1.8880   1.8917   1.8999   1.9063   1.9138   1.9208   1.9249   1.9309
  1.9454   1.9511   1.9553   1.9582   1.9690   1.9726   1.9770   1.9859
  1.9904   1.9979   2.0063   2.0111   2.0341   2.0387   2.0509   2.0569
  2.0684   2.0785   2.0857   2.0947   2.1041   2.1078   2.1234   2.1408
  2.1533   2.1591   2.1643   2.1678   2.1727   2.1817   2.1936   2.1989
  2.2007   2.2017   2.2046   2.2119   2.2235   2.2298   2.2356   2.2418
  2.2487   2.2516   2.2565   2.2650   2.2739   2.2804   2.2851   2.2924
  2.3011   2.3051   2.3168   2.3189   2.3322   2.3462   2.3536   2.3577
  2.3675   2.3745   2.3842   2.3918   2.3959   2.4015   2.4093   2.4190
  2.4295   2.4354   2.4377   2.4509   2.4641   2.4798   2.4814   2.4863
  2.4924   2.5018   2.5196   2.5233   2.5272   2.5485   2.5519   2.5617
  2.5643   2.5723   2.5860   2.5958   2.6097   2.6132   2.6139   2.6227
  2.6289   2.6336   2.6361   2.6393   2.6431   2.6533   2.6646   2.6733
  2.6751   2.6823   2.6886   2.6913   2.6986   2.7022   2.7066   2.7126
  2.7224   2.7295   2.7321   2.7389   2.7516   2.7586   2.7619   2.7759
  2.7782   2.7885   2.7930   2.7973   2.8003   2.8096   2.8133   2.8182
  2.8242   2.8338   2.8395   2.8493   2.8516   2.8572   2.8643   2.8696
  2.8740   2.8786   2.8848   2.8880   2.8968   2.9041   2.9191   2.9233
  2.9337   2.9511   2.9522   2.9660   2.9710   2.9782   2.9807   2.9869
  3.0015   3.0094   3.0152   3.0193   3.0233   3.0239   3.0334   3.0409
  3.0450   3.0552   3.0669   3.0740   3.0755   3.0864   3.0887   3.0962
  3.0991   3.1018   3.1083   3.1150   3.1184   3.1225   3.1350   3.1444
  3.1498   3.1522   3.1536   3.1600   3.1655   3.1702   3.1779   3.1834
  3.1860   3.1944   3.2043   3.2102   3.2170   3.2178   3.2250   3.2264
  3.2353   3.2374   3.2458   3.2467   3.2537   3.2544   3.2593   3.2693
  3.2701   3.2786   3.2829   3.2871   3.2888   3.2936   3.2998   3.3057
  3.3099   3.3181   3.3238   3.3284   3.3313   3.3372   3.3453   3.3477
  3.3521   3.3566   3.3602   3.3636   3.3685   3.3714   3.3743   3.3877
  3.3886   3.3929   3.3940   3.3973   3.4027   3.4049   3.4090   3.4147
  3.4212   3.4281   3.4304   3.4340   3.4410   3.4480   3.4518   3.4554
  3.4586   3.4618   3.4671   3.4684   3.4729   3.4786   3.4841   3.4909
  3.4981   3.5031   3.5101   3.5190   3.5258   3.5279   3.5341   3.5385
  3.5435   3.5461   3.5522   3.5566   3.5595   3.5632   3.5725   3.5777
  3.5809   3.5875   3.5893   3.5929   3.5959   3.6037   3.6094   3.6150
  3.6202   3.6258   3.6332   3.6338   3.6365   3.6487   3.6562   3.6584
  3.6692   3.6711   3.6773   3.6858   3.6889   3.6925   3.6966   3.6998
  3.7039   3.7058   3.7099   3.7137   3.7217   3.7278   3.7367   3.7434
  3.7452   3.7529   3.7555   3.7632   3.7732   3.7785   3.7800   3.7816
  3.7880   3.7969   3.7991   3.8072   3.8103   3.8161   3.8168   3.8220
  3.8258   3.8335   3.8406   3.8471   3.8514   3.8599   3.8675   3.8708
  3.8810   3.8858   3.8870   3.8912   3.9025   3.9098   3.9135   3.9206
  3.9271   3.9361   3.9431   3.9480   3.9569   3.9572   3.9665   3.9779
  3.9861   3.9909   3.9964   4.0048   4.0111   4.0288   4.0306   4.0332
  4.0411   4.0527   4.0624   4.0681   4.0702   4.0788   4.0834   4.0865
  4.1021   4.1173   4.1214   4.1272   4.1314   4.1421   4.1470   4.1554
  4.1591   4.1633   4.1677   4.1707   4.1748   4.1821   4.1888   4.1939
  4.2041   4.2063   4.2319   4.2359   4.2427   4.2446   4.2566   4.2633
  4.2756   4.2868   4.2983   4.3144   4.3212   4.3256   4.3414   4.3424
  4.3526   4.3586   4.3608   4.3722   4.3758   4.3816   4.3866   4.3941
  4.4028   4.4077   4.4131   4.4221   4.4293   4.4338   4.4386   4.4453
  4.4576   4.4672   4.4858   4.4865   4.5016   4.5031   4.5176   4.5277
  4.5343   4.5413   4.5486   4.5562   4.5600   4.5722   4.5842   4.5932
  4.5999   4.6030   4.6133   4.6277   4.6337   4.6422   4.6473   4.6579
  4.6657   4.6713   4.6794   4.6864   4.6906   4.7004   4.7328   4.7375
  4.7391   4.7586   4.7636   4.7712   4.7820   4.7880   4.7914   4.8245
  4.8303   4.8332   4.8480   4.8530   4.8671   4.8791   4.8880   4.9194
  4.9354   4.9425   4.9508   4.9579   4.9672   4.9702   4.9772   4.9975
  5.0037   5.0092   5.0132   5.0185   5.0305   5.0480   5.0586   5.0723
  5.0823   5.1030   5.1170   5.1204   5.1512   5.1620   5.1731   5.1920
  5.1991   5.2148   5.2426   5.2513   5.2528   5.2546   5.2587   5.2796
  5.2980   5.3096   5.3129   5.3249   5.3406   5.3468   5.3528   5.3637
  5.3830   5.3938   5.3990   5.4102   5.4265   5.4266   5.4326   5.4634
  5.4852   5.4865   5.5063   5.5073   5.5129   5.5298   5.5423   5.5691
  5.5725   5.5838   5.5856   5.6061   5.6207   5.6222   5.6481   5.6654
  5.7132   5.7321   5.7493   5.7693   5.8079   5.8140   5.8366   5.8555
  5.8729   5.8808   5.9121   5.9254   5.9297   5.9747   5.9995   6.0420
  6.0469   6.0819   6.0976   6.1508   6.1643   6.1711   6.1778   6.1890
  6.2380   6.2437   6.2618   6.2691   6.2818   6.2891   6.3035   6.3509
  6.4115   6.4422   6.4506   6.4856   6.5393   6.5483   6.5560   6.6032
  6.6548   6.6616   6.6717   6.6949   6.7462   6.8001   6.8304   6.8362
  6.8600   6.8925   6.9787   7.1197   7.1363   7.2044   7.2065   7.2156
  7.2339   7.3104   7.3196   7.3302   7.3636   7.3638   7.4065   7.4137
  7.4788   7.4860   7.4877   7.5241   7.5512   7.6150   7.7049   7.7734
  7.7891   7.7966   7.8948   7.9182   7.9437   7.9608   8.0890   8.1339
  8.4471   8.9224   9.0223   9.3633   9.4750   9.6550  10.1136  10.5905
 11.1799  11.4801  11.7703  11.9484  12.1292  12.1505  12.4126  12.5692
 12.6747  12.9352  12.9792  13.1860  13.3030  13.3859  13.7709  13.8469
 13.9013  14.0239  14.0372  14.5416  15.1966
 --------------------------------------------------------------
 
          Ground-State Mulliken Net Atomic Charges

     Atom                 Charge (a.u.)
  ----------------------------------------
      1 C                    -0.188743
      2 C                    -0.253962
      3 S                    -0.022056
      4 C                    -0.016022
      5 H                     0.196249
      6 C                    -0.028827
      7 C                     0.240881
      8 C                     0.243611
      9 C                    -0.050546
     10 C                    -0.020251
     11 O                    -0.333525
     12 O                    -0.339525
     13 C                    -0.085701
     14 H                     0.122755
     15 H                     0.091111
     16 H                     0.093665
     17 C                    -0.086657
     18 H                     0.124911
     19 H                     0.094997
     20 H                     0.089281
     21 C                    -0.215580
     22 S                    -0.008401
     23 C                    -0.016630
     24 H                     0.201762
     25 H                     0.206361
     26 C                    -0.044770
     27 S                     0.109387
     28 C                    -0.184884
     29 C                    -0.035732
     30 C                    -0.088358
     31 S                     0.019109
     32 C                    -0.153887
     33 C                     0.392632
     34 F                    -0.207077
     35 C                     0.445502
     36 O                    -0.461094
     37 O                    -0.300839
     38 C                    -0.058413
     39 H                     0.121211
     40 H                     0.095122
     41 H                     0.094996
     42 H                     0.217933
  ----------------------------------------
  Sum of atomic charges =     0.000000

 -----------------------------------------------------------------
                    Cartesian Multipole Moments
 -----------------------------------------------------------------
    Charge (ESU x 10^10)
                 0.0000
    Dipole Moment (Debye)
         X       1.1010      Y       0.9926      Z       3.2089
       Tot       3.5347
    Quadrupole Moments (Debye-Ang)
        XX    -177.0997     XY       4.0796     YY    -161.8236
        XZ      -9.3271     YZ      -7.8521     ZZ    -204.5385
    Octopole Moments (Debye-Ang^2)
       XXX    -230.6067    XXY     283.9102    XYY     -49.7800
       YYY     873.7539    XXZ     171.4888    XYZ      14.0012
       YYZ     124.8381    XZZ     -51.6421    YZZ     471.1925
       ZZZ     575.4845
    Hexadecapole Moments (Debye-Ang^3)
      XXXX   -2327.6632   XXXY     -92.6477   XXYY   -3720.2032
      XYYY     -68.2304   YYYY  -18924.4436   XXXZ     889.7929
      XXYZ     407.0939   XYYZ      47.5722   YYYZ    1020.0352
      XXZZ   -1293.5438   XYZZ     190.8501   YYZZ   -4268.9367
      XZZZ     848.0317   YZZZ     759.7033   ZZZZ   -5928.8278
 -----------------------------------------------------------------
 Total job time:  307.76s(wall), 9019.49s(cpu) 
 Tue Jan  9 01:48:30 2024

        *************************************************************
        *                                                           *
        *  Thank you very much for using Q-Chem.  Have a nice day.  *
        *                                                           *
        *************************************************************


0 sent ACK to 0 
now end server 0 ... 
cleanup process ... done
remove work dirs ./qchem2294332.0 -- ./qchem2294332.0
rm -rf ./qchem2294332.0
rm -rf ./qchem2294332
