You are running Q-Chem version: 5.4.0

#
# job setting
#
local host:  exp-1-16
current dir: /home/rramji/project-csd799/aromodel/ptb7fout-qchem/rotation-run
input file:  Dimethoxy_Benzodithiophene_Phi_30_Theta_260_Methylcarbonyl_3_Fluoro_Thienothiophene.qcin
output file: 
nprocs     : 1
nthreads   : 64
#
# qchem installation setting
#
QC:          /cm/shared/apps/spack/cpu/opt/spack/linux-centos8-zen2/gcc-10.2.0/qchem-5.4-akfmr7b3t57bfs6qan3padb2wnb2i7cl
QCAUX:       /cm/shared/apps/spack/cpu/opt/spack/linux-centos8-zen2/gcc-10.2.0/qchem-5.4-akfmr7b3t57bfs6qan3padb2wnb2i7cl/qcaux
QCPROG:      /cm/shared/apps/spack/cpu/opt/spack/linux-centos8-zen2/gcc-10.2.0/qchem-5.4-akfmr7b3t57bfs6qan3padb2wnb2i7cl/exe/qcprog.exe
QCPROG_S:    /cm/shared/apps/spack/cpu/opt/spack/linux-centos8-zen2/gcc-10.2.0/qchem-5.4-akfmr7b3t57bfs6qan3padb2wnb2i7cl/exe/qcprog.exe_s
PARALLEL:    -DPARALLEL
QCMPI:       mpich
#
# qchem directory setting
#
qcrun:       qchem532538
QCSCRATCH:   .
QCLOCALSCR:  
QCTMPDIR:    .
QCFILEPREF:  ./qchem532538
QCSAVEDIR:   
workdirs:    ./qchem532538
workdir0:    ./qchem532538
partmpdirs =  
#
# parallel setting
#
QCRSH:           ssh
QCMPI:           mpich
QCMPIRUN:        /cm/shared/apps/spack/cpu/opt/spack/linux-centos8-zen2/gcc-10.2.0/qchem-5.4-akfmr7b3t57bfs6qan3padb2wnb2i7cl/bin/mpi/mpirun_qchem
QCMACHINEFILE:   ./qchem532538/hostfile
exp-1-16

#
# env setting
#
exported envs:   QC QCAUX QCSCRATCH QCRUNNAME QCFILEPREF QCPROG QCPROG_S GUIFILE

Running Job 1 of 1 Dimethoxy_Benzodithiophene_Phi_30_Theta_260_Methylcarbonyl_3_Fluoro_Thienothiophene.qcin
qchem Dimethoxy_Benzodithiophene_Phi_30_Theta_260_Methylcarbonyl_3_Fluoro_Thienothiophene.qcin_532538.0 ./qchem532538/ 1
/cm/shared/apps/spack/cpu/opt/spack/linux-centos8-zen2/gcc-10.2.0/qchem-5.4-akfmr7b3t57bfs6qan3padb2wnb2i7cl/bin/mpi/mpirun_qchem -machinefile ./qchem532538/hostfile -np 1 /cm/shared/apps/spack/cpu/opt/spack/linux-centos8-zen2/gcc-10.2.0/qchem-5.4-akfmr7b3t57bfs6qan3padb2wnb2i7cl/exe/qcprog.exe Dimethoxy_Benzodithiophene_Phi_30_Theta_260_Methylcarbonyl_3_Fluoro_Thienothiophene.qcin_532538.0 ./qchem532538/

Process 0 of 1 is on exp-1-16 - thread support 0
initial socket setup ...start
initial socket setup ...done 
now start server 0 ... 
                  Welcome to Q-Chem
     A Quantum Leap Into The Future Of Chemistry


 Q-Chem 5.4, Q-Chem, Inc., Pleasanton, CA (2021)

 License issued to: University of California, San Diego (site)

 E. Epifanovsky,  A. T. B. Gilbert,  Xintian Feng,  Joonho Lee,  Yuezhi Mao,  
 N. Mardirossian,  P. Pokhilko,  A. White,  M. Wormit,  M. P. Coons,  
 A. L. Dempwolff,  Zhengting Gan,  D. Hait,  P. R. Horn,  L. D. Jacobson,  
 I. Kaliman,  J. Kussmann,  A. W. Lange,  Ka Un Lao,  D. S. Levine,  Jie Liu,  
 S. C. McKenzie,  A. F. Morrison,  K. Nanda,  F. Plasser,  D. R. Rehn,  
 M. L. Vidal,  Zhi-Qiang You,  Ying Zhu,  B. Alam,  B. Albrecht,  
 A. Aldossary,  E. Alguire,  J. H. Andersen,  D. Barton,  K. Begam,  A. Behn,  
 Y. A. Bernard,  E. J. Berquist,  H. Burton,  A. Carreras,  K. Carter-Fenk,  
 R. Chakraborty,  A. D. Chien,  K. D. Closser,  V. Cofer-Shabica,  
 S. Dasgupta,  Jia Deng,  M. de Wergifosse,  M. Diedenhofen,  Hainam Do,  
 S. Ehlert,  Po-Tung Fang,  S. Fatehi,  Qingguo Feng,  J. Gayvert,  
 Qinghui Ge,  G. Gidofalvi,  M. Goldey,  J. Gomes,  C. Gonzalez-Espinoza,  
 S. Gulania,  A. Gunina,  M. W. D. Hanson-Heine,  P. H. P. Harbach,  
 A. W. Hauser,  M. F. Herbst,  M. Hernandez Vera,  M. Hodecker,  
 Z. C. Holden,  S. Houck,  Xunkun Huang,  Kerwin Hui,  B. C. Huynh,  
 M. Ivanov,  Hyunjun Ji,  Hanjie Jiang,  B. Kaduk,  S. Kaehler,  
 K. Khistyaev,  Jaehoon Kim,  P. Klunzinger,  Z. Koczor-Benda,  
 Joong Hoon Koh,  D. Kosenkov,  L. Koulias,  T. Kowalczyk,  C. M. Krauter,  
 K. Kue,  A. Kunitsa,  T. Kus,  A. Landau,  K. V. Lawler,  D. Lefrancois,  
 S. Lehtola,  Rain Li,  Yi-Pei Li,  Jiashu Liang,  M. Liebenthal,  
 Hung-Hsuan Lin,  You-Sheng Lin,  Fenglai Liu,  Kuan-Yu Liu,  
 M. Loipersberger,  A. Luenser,  A. Manjanath,  P. Manohar,  E. Mansoor,  
 S. F. Manzer,  Shan-Ping Mao,  A. V. Marenich,  T. Markovich,  S. Mason,  
 S. A. Maurer,  P. F. McLaughlin,  M. F. S. J. Menger,  J.-M. Mewes,  
 S. A. Mewes,  P. Morgante,  J. W. Mullinax,  T. S. Nguyen-Beck,  
 K. J. Oosterbaan,  G. Paran,  Alexander C. Paul,  Suranjan K. Paul,  
 F. Pavosevic,  Zheng Pei,  S. Prager,  E. I. Proynov,  E. Ramos,  B. Rana,  
 A. E. Rask,  A. Rettig,  R. M. Richard,  F. Rob,  E. Rossomme,  T. Scheele,  
 M. Scheurer,  M. Schneider,  N. Sergueev,  S. M. Sharada,  W. Skomorowski,  
 D. W. Small,  C. J. Stein,  Yu-Chuan Su,  E. J. Sundstrom,  Zhen Tao,  
 J. Thirman,  T. Tsuchimochi,  N. M. Tubman,  S. P. Veccham,  O. Vydrov,  
 J. Wenzel,  J. Witte,  A. Yamada,  Kun Yao,  S. Yeganeh,  S. R. Yost,  
 A. Zech,  Igor Ying Zhang,  Xing Zhang,  Yu Zhang,  D. Zuev,  
 A. Aspuru-Guzik,  A. T. Bell,  N. A. Besley,  K. B. Bravaya,  B. R. Brooks,  
 D. Casanova,  Jeng-Da Chai,  S. Coriani,  C. J. Cramer,  
 A. E. DePrince, III,  R. A. DiStasio Jr.,  A. Dreuw,  B. D. Dunietz,  
 T. R. Furlani,  W. A. Goddard III,  S. Grimme,  S. Hammes-Schiffer,  
 T. Head-Gordon,  W. J. Hehre,  Chao-Ping Hsu,  T.-C. Jagau,  Yousung Jung,  
 A. Klamt,  Jing Kong,  D. S. Lambrecht,  WanZhen Liang,  N. J. Mayhall,  
 C. W. McCurdy,  J. B. Neaton,  C. Ochsenfeld,  J. A. Parkhill,  R. Peverati,  
 V. A. Rassolov,  Yihan Shao,  L. V. Slipchenko,  T. Stauch,  R. P. Steele,  
 J. E. Subotnik,  A. J. W. Thom,  A. Tkatchenko,  D. G. Truhlar,  
 T. Van Voorhis,  T. A. Wesolowski,  K. B. Whaley,  H. L. Woodcock III,  
 P. M. Zimmerman,  S. Faraji,  P. M. W. Gill,  M. Head-Gordon,  
 J. M. Herbert,  A. I. Krylov

 Contributors to earlier versions of Q-Chem not listed above: 
 R. D. Adamson,  B. Austin,  R. Baer,  J. Baker,  G. J. O. Beran,  
 K. Brandhorst,  S. T. Brown,  E. F. C. Byrd,  A. K. Chakraborty,  
 G. K. L. Chan,  Chun-Min Chang,  Yunqing Chen,  C.-L. Cheng,  
 Siu Hung Chien,  D. M. Chipman,  D. L. Crittenden,  H. Dachsel,  
 R. J. Doerksen,  A. D. Dutoi,  R. G. Edgar,  J. Fosso-Tande,  
 L. Fusti-Molnar,  D. Ghosh,  A. Ghysels,  A. Golubeva-Zadorozhnaya,  
 J. Gonthier,  M. S. Gordon,  S. R. Gwaltney,  G. Hawkins,  J. E. Herr,  
 A. Heyden,  S. Hirata,  E. G. Hohenstein,  G. Kedziora,  F. J. Keil,  
 C. Kelley,  Jihan Kim,  R. A. King,  R. Z. Khaliullin,  P. P. Korambath,  
 W. Kurlancheek,  A. Laurent,  A. M. Lee,  M. S. Lee,  S. V. Levchenko,  
 Ching Yeh Lin,  D. Liotard,  E. Livshits,  R. C. Lochan,  I. Lotan,  
 L. A. Martinez-Martinez,  P. E. Maslen,  N. Nair,  D. P. O'Neill,  
 D. Neuhauser,  E. Neuscamman,  C. M. Oana,  R. Olivares-Amaya,  R. Olson,  
 T. M. Perrine,  B. Peters,  P. A. Pieniazek,  A. Prociuk,  Y. M. Rhee,  
 J. Ritchie,  M. A. Rohrdanz,  E. Rosta,  N. J. Russ,  H. F. Schaefer III,  
 M. W. Schmidt,  N. E. Schultz,  S. Sharma,  N. Shenvi,  C. D. Sherrill,  
 A. C. Simmonett,  A. Sodt,  T. Stein,  D. Stuck,  K. S. Thanthiriwatte,  
 V. Vanovschi,  L. Vogt,  Tao Wang,  A. Warshel,  M. A. Watson,  
 C. F. Williams,  Q. Wu,  X. Xu,  Jun Yang,  W. Zhang,  Yan Zhao

 Please cite Q-Chem as follows:
 Y. Shao et al., Mol. Phys. 113, 184-215 (2015)
 DOI: 10.1080/00268976.2014.952696

 Q-Chem 5.4.0 for Intel X86 EM64T Linux

 Parts of Q-Chem use Armadillo 9.800.1 (Horizon Scraper).
 http://arma.sourceforge.net/

 Q-Chem begins on Tue Jan  9 01:24:46 2024  

 Host: 
0

     Scratch files written to ./qchem532538//
 May1621 |scratch|qcdevops|jenkins|workspace|build_RNUM    
 Parallel job on  1  processors
 Processing $rem in /cm/shared/apps/spack/cpu/opt/spack/linux-centos8-zen2/gcc-10.2.0/qchem-5.4-akfmr7b3t57bfs6qan3padb2wnb2i7cl/config/preferences:
 Processing $rem in /home/rramji/.qchemrc:
 Symmetry turned off for PCM/SM12/SMD calculation
 Core orbitals will be frozen

 Checking the input file for inconsistencies... 	...done.

 Q-Chem warning in module forms1/BasisType.C, line 2236:

 You are not using the predefined 5D/6D in this basis set.


--------------------------------------------------------------
User input:
--------------------------------------------------------------
$molecule
0 1
C	0.320589	-8.517702	-0.014560
C	-0.737240	-7.641575	0.180211
S	1.842356	-7.638634	-0.299553
C	-0.366488	-6.264785	0.114873
H	-1.768528	-7.966081	0.368061
C	1.038637	-6.072714	-0.131236
C	1.588197	-4.787049	-0.253435
C	-1.258831	-5.162801	0.249014
C	-0.709695	-3.874817	0.122513
C	0.697430	-3.683952	-0.121043
O	-2.553323	-5.499772	0.505933
O	2.888369	-4.459055	-0.512697
C	3.927625	-5.329063	-0.080869
H	4.869656	-4.755694	-0.173159
H	4.007459	-6.238095	-0.716363
H	3.789565	-5.637262	0.978072
C	-3.600064	-4.572261	0.246949
H	-4.544887	-5.139743	0.344574
H	-3.532074	-4.153131	-0.779898
H	-3.612378	-3.739531	0.983261
C	1.064246	-2.306654	-0.188009
S	-1.517360	-2.306501	0.278644
C	-0.000000	-1.435185	-0.000000
H	2.094685	-1.978138	-0.373017
H	0.322246	-9.614033	-0.018474
C	0.000000	0.000000	0.000000
S	0.452792	0.783312	1.507541
C	1.238397	2.145556	0.718873
C	0.452875	0.782898	-1.067872
C	1.145945	1.987956	-0.686410
S	0.333556	0.570531	-2.805516
C	1.204604	2.090290	-3.054530
C	1.556633	2.704929	-1.862551
F	2.220797	3.864903	-1.819088
C	1.430252	2.477345	-4.456084
O	1.052242	1.806648	-5.406510
O	2.099050	3.650663	-4.569225
C	2.351116	4.076808	-5.916207
H	2.895579	5.033821	-5.833064
H	1.401015	4.217390	-6.470168
H	2.962391	3.327969	-6.459293
H	1.699302	2.946693	1.306486
$end

$rem
JOBTYPE		SP
EXCHANGE	HF
CORRELATION	pRIMP2
BASIS		cc-pvtz
METHOD		rimp2
AUX_BASIS	rimp2-cc-pvtz
SOLVENT_METHOD	PCM
PURECART	11111
SYMMETRY	false
MEM_TOTAL	110000
SCF_CONVERGENCE = 6
THRESH=10
GUI = 2
$end



$solvent
dielectric 4.90
$end
--------------------------------------------------------------
 ----------------------------------------------------------------
             Standard Nuclear Orientation (Angstroms)
    I     Atom           X                Y                Z
 ----------------------------------------------------------------
    1      C       0.3205890000    -8.5177020000    -0.0145600000
    2      C      -0.7372400000    -7.6415750000     0.1802110000
    3      S       1.8423560000    -7.6386340000    -0.2995530000
    4      C      -0.3664880000    -6.2647850000     0.1148730000
    5      H      -1.7685280000    -7.9660810000     0.3680610000
    6      C       1.0386370000    -6.0727140000    -0.1312360000
    7      C       1.5881970000    -4.7870490000    -0.2534350000
    8      C      -1.2588310000    -5.1628010000     0.2490140000
    9      C      -0.7096950000    -3.8748170000     0.1225130000
   10      C       0.6974300000    -3.6839520000    -0.1210430000
   11      O      -2.5533230000    -5.4997720000     0.5059330000
   12      O       2.8883690000    -4.4590550000    -0.5126970000
   13      C       3.9276250000    -5.3290630000    -0.0808690000
   14      H       4.8696560000    -4.7556940000    -0.1731590000
   15      H       4.0074590000    -6.2380950000    -0.7163630000
   16      H       3.7895650000    -5.6372620000     0.9780720000
   17      C      -3.6000640000    -4.5722610000     0.2469490000
   18      H      -4.5448870000    -5.1397430000     0.3445740000
   19      H      -3.5320740000    -4.1531310000    -0.7798980000
   20      H      -3.6123780000    -3.7395310000     0.9832610000
   21      C       1.0642460000    -2.3066540000    -0.1880090000
   22      S      -1.5173600000    -2.3065010000     0.2786440000
   23      C       0.0000000000    -1.4351850000     0.0000000000
   24      H       2.0946850000    -1.9781380000    -0.3730170000
   25      H       0.3222460000    -9.6140330000    -0.0184740000
   26      C       0.0000000000     0.0000000000     0.0000000000
   27      S       0.4527920000     0.7833120000     1.5075410000
   28      C       1.2383970000     2.1455560000     0.7188730000
   29      C       0.4528750000     0.7828980000    -1.0678720000
   30      C       1.1459450000     1.9879560000    -0.6864100000
   31      S       0.3335560000     0.5705310000    -2.8055160000
   32      C       1.2046040000     2.0902900000    -3.0545300000
   33      C       1.5566330000     2.7049290000    -1.8625510000
   34      F       2.2207970000     3.8649030000    -1.8190880000
   35      C       1.4302520000     2.4773450000    -4.4560840000
   36      O       1.0522420000     1.8066480000    -5.4065100000
   37      O       2.0990500000     3.6506630000    -4.5692250000
   38      C       2.3511160000     4.0768080000    -5.9162070000
   39      H       2.8955790000     5.0338210000    -5.8330640000
   40      H       1.4010150000     4.2173900000    -6.4701680000
   41      H       2.9623910000     3.3279690000    -6.4592930000
   42      H       1.6993020000     2.9466930000     1.3064860000
 ----------------------------------------------------------------
 Nuclear Repulsion Energy =        3286.71513007 hartrees
 There are      119 alpha and      119 beta electrons
 Requested basis set is cc-pVTZ
 There are 376 shells and 1068 basis functions

 Total QAlloc Memory Limit 110000 MB
 Mega-Array Size       188 MB
 MEM_STATIC part       192 MB
 Discretize the solute cavity surface with Lebedev spheres
	Using 110 Lebedev grid points for each H atom
	Using 194 Lebedev grid points for other atoms
	Atomic van der Waals radii will be scaled by 1.20
 Remove points where switching function is < 1.0e-08
 Keep 2901 surface tesserae and discard 4155 interior tesserae
 Molecular Surface Area = 444.174 Angst**2
 Requested basis set is rimp2-cc-pVTZ
 There are 833 shells and 2903 basis functions
 A cutoff of  1.0D-10 yielded  31030 shell pairs
 There are    238492 function pairs (    309728 Cartesian)
 Smallest overlap matrix eigenvalue = 2.18E-05

 Scale SEOQF with 1.000000e-01/1.000000e-02/1.000000e-02

 Standard Electronic Orientation quadrupole field applied
 Nucleus-field energy     =     0.0000000455 hartrees
 Guess from superposition of atomic densities
 Warning:  Energy on first SCF cycle will be non-variational
 SAD guess density has 238.000000 electrons

 -----------------------------------------------------------------------
  General SCF calculation program by
  Eric Jon Sundstrom, Paul Horn, Yuezhi Mao, Dmitri Zuev, Alec White,
  David Stuck, Shaama M.S., Shane Yost, Joonho Lee, David Small,
  Daniel Levine, Susi Lehtola, Hugh Burton, Evgeny Epifanovsky,
  Bang C. Huynh
 -----------------------------------------------------------------------
 Hartree-Fock
 using 64 threads for integral computing
 -------------------------------------------------------
 OpenMP Integral computing Module                
 Release: version 1.0, May 2013, Q-Chem Inc. Pittsburgh 
 -------------------------------------------------------
 A restricted SCF calculation will be
 performed using DIIS
 SCF converges when DIIS error is below 1.0e-06
 ---------------------------------------
  Cycle       Energy         DIIS error
 ---------------------------------------
    1   -2765.2178396248      1.75e-02  
    2   -2753.8672242617      1.56e-03  
    3   -2754.2049064804      8.58e-04  
    4   -2754.2854959756      2.56e-04  
    5   -2754.2971247789      6.95e-05  
    6   -2754.2982111055      2.39e-05  
    7   -2754.2984479174      1.14e-05  
    8   -2754.2985255684      4.38e-06  
    9   -2754.2985402102      1.71e-06  
   10   -2754.2985420367      8.22e-07  Convergence criterion met
 ---------------------------------------
 SCF time:   CPU 6019.52s  wall 251.00s 

************** Final PCM Free Energy Summary **************
 G_electrostatic  =      -0.01908811 hartree =     -11.97797121 kcal/mol
 G_cavitation     =       0.00000000 hartree =       0.00000000 kcal/mol
 G_dispersion     =       0.00000000 hartree =       0.00000000 kcal/mol
 G_repulsion      =       0.00000000 hartree =       0.00000000 kcal/mol
 --------------------------------------------------
 Non-electrostatic Free Energy =       0.00000000 hartree =       0.00000000 kcal/mol
 Total                         =      -0.01908811 hartree =     -11.97797121 kcal/mol
 --------------------------------------------------
 SCF Energy (H0 + V/2)                       =   -2754.29854204 
 Solute Internal Energy (H0)                 =   -2754.27945392 
 Total Free Energy (H0 + V/2 + non-elec)     =   -2754.29854204 hartree
                                             = -1728348.42108952 kcal/mol
***********************************************************

 SCF   energy in the final basis set =    -2754.2985420367
 Total energy in the final basis set =    -2754.2985420367


 --------------------------------------------------------------
  Generalized many-body perturbation theory program
  by Joonho Lee, Fazle Rob, Xintian Feng, Evgeny Epifanovsky

 No regularization used 
 (reg. param. = 0.0000e+00)
  (P|Q)^-1/2 Time:  CPU 199.69 s  wall 3.84 s

 In RI-MP2 calculation: 
 # of frozen core orbitals: 45

 Components of the RIMP2 correlation energy:
        aaaa    correlation energy =        -0.6697048599 a.u.
        abab    correlation energy =        -3.7138446929 a.u.
        bbbb    correlation energy =        -0.6697048599 a.u.
        non-Brillouin singles      =        -0.0000000000 a.u.
        total same-spin energy     =        -1.3394097198 a.u.
        total opposite-spin energy =        -3.7138446929 a.u.

 Total  RIMP2   correlation energy =        -5.0532544127 a.u.
        RIMP2         total energy =     -2759.3517964494 a.u.

 RI-MP2 Energy Time:  CPU 14963.98 s  wall 251.72 s
 
 --------------------------------------------------------------
 
                    Orbital Energies (a.u.)
 --------------------------------------------------------------
 
 Alpha MOs
 -- Occupied --
-92.0137 -91.9991 -91.9857 -91.9857 -26.3433 -20.6144 -20.5917 -20.5908
-20.5607 -11.4089 -11.3825 -11.3181 -11.3169 -11.3155 -11.3052 -11.2965
-11.2910 -11.2886 -11.2883 -11.2863 -11.2858 -11.2842 -11.2841 -11.2832
-11.2791 -11.2596 -11.2579 -11.2550 -11.2494  -9.0123  -8.9990  -8.9862
 -8.9856  -6.6930  -6.6924  -6.6919  -6.6800  -6.6793  -6.6782  -6.6671
 -6.6666  -6.6664  -6.6660  -6.6655  -6.6651  -1.6604  -1.4668  -1.4157
 -1.4136  -1.3695  -1.2222  -1.1931  -1.1644  -1.1358  -1.0837  -1.0508
 -1.0417  -1.0224  -1.0001  -0.9870  -0.9615  -0.9599  -0.9496  -0.9389
 -0.8945  -0.8675  -0.8486  -0.8096  -0.7944  -0.7882  -0.7855  -0.7640
 -0.7550  -0.7329  -0.7253  -0.7097  -0.7005  -0.6847  -0.6823  -0.6803
 -0.6735  -0.6586  -0.6572  -0.6521  -0.6293  -0.6195  -0.6165  -0.6055
 -0.5979  -0.5853  -0.5749  -0.5702  -0.5662  -0.5617  -0.5533  -0.5516
 -0.5306  -0.5273  -0.5228  -0.5156  -0.5140  -0.5085  -0.5036  -0.4941
 -0.4885  -0.4803  -0.4745  -0.4732  -0.4689  -0.4650  -0.4601  -0.4044
 -0.3962  -0.3863  -0.3583  -0.3467  -0.3144  -0.2997  -0.2571
 -- Virtual --
  0.0339   0.0614   0.0993   0.1254   0.1374   0.1423   0.1501   0.1552
  0.1558   0.1586   0.1608   0.1717   0.1810   0.1846   0.1869   0.1924
  0.1949   0.2045   0.2149   0.2163   0.2201   0.2214   0.2244   0.2283
  0.2346   0.2370   0.2414   0.2474   0.2543   0.2637   0.2685   0.2786
  0.2835   0.3021   0.3211   0.3305   0.3328   0.3368   0.3425   0.3464
  0.3526   0.3557   0.3666   0.3728   0.3781   0.3823   0.3856   0.3862
  0.3895   0.3931   0.3979   0.4035   0.4104   0.4137   0.4193   0.4250
  0.4276   0.4292   0.4338   0.4413   0.4476   0.4482   0.4536   0.4558
  0.4592   0.4626   0.4676   0.4708   0.4738   0.4806   0.4841   0.4871
  0.4904   0.4977   0.5032   0.5067   0.5108   0.5182   0.5235   0.5256
  0.5270   0.5272   0.5321   0.5377   0.5411   0.5432   0.5471   0.5499
  0.5517   0.5537   0.5554   0.5586   0.5665   0.5683   0.5734   0.5779
  0.5812   0.5889   0.5944   0.5965   0.5991   0.6039   0.6099   0.6138
  0.6144   0.6171   0.6200   0.6212   0.6231   0.6285   0.6309   0.6358
  0.6366   0.6440   0.6450   0.6473   0.6520   0.6556   0.6597   0.6642
  0.6704   0.6795   0.6829   0.6837   0.6885   0.6954   0.6997   0.7080
  0.7094   0.7120   0.7202   0.7222   0.7252   0.7317   0.7456   0.7491
  0.7514   0.7567   0.7623   0.7638   0.7750   0.7816   0.7909   0.7975
  0.8083   0.8089   0.8117   0.8189   0.8243   0.8341   0.8359   0.8409
  0.8477   0.8498   0.8574   0.8630   0.8688   0.8763   0.8783   0.8831
  0.8904   0.8924   0.9012   0.9064   0.9066   0.9152   0.9190   0.9233
  0.9318   0.9352   0.9452   0.9476   0.9517   0.9531   0.9583   0.9589
  0.9725   0.9739   0.9773   0.9814   0.9857   0.9952   0.9998   1.0018
  1.0028   1.0094   1.0185   1.0200   1.0242   1.0295   1.0358   1.0380
  1.0426   1.0523   1.0571   1.0609   1.0667   1.0719   1.0744   1.0775
  1.0811   1.0870   1.0922   1.0926   1.0985   1.1026   1.1103   1.1118
  1.1141   1.1187   1.1208   1.1332   1.1385   1.1474   1.1514   1.1566
  1.1610   1.1684   1.1704   1.1775   1.1814   1.1887   1.1900   1.1924
  1.1948   1.2064   1.2109   1.2117   1.2140   1.2203   1.2239   1.2289
  1.2332   1.2414   1.2429   1.2552   1.2572   1.2621   1.2675   1.2717
  1.2754   1.2777   1.2814   1.2859   1.2935   1.3039   1.3090   1.3129
  1.3234   1.3278   1.3322   1.3416   1.3507   1.3606   1.3691   1.3716
  1.3783   1.3849   1.3899   1.3925   1.4040   1.4087   1.4148   1.4245
  1.4301   1.4309   1.4481   1.4569   1.4686   1.4723   1.4829   1.4910
  1.4933   1.4965   1.5029   1.5061   1.5120   1.5138   1.5235   1.5341
  1.5356   1.5383   1.5393   1.5445   1.5472   1.5517   1.5658   1.5677
  1.5753   1.5785   1.5878   1.5976   1.5982   1.6044   1.6202   1.6244
  1.6373   1.6431   1.6505   1.6591   1.6600   1.6648   1.6767   1.6801
  1.6850   1.6876   1.6914   1.7024   1.7130   1.7212   1.7304   1.7491
  1.7569   1.7690   1.7767   1.7807   1.7897   1.7960   1.8101   1.8187
  1.8218   1.8241   1.8338   1.8475   1.8579   1.8674   1.8715   1.8772
  1.8820   1.8951   1.8977   1.9055   1.9120   1.9177   1.9306   1.9327
  1.9372   1.9486   1.9542   1.9594   1.9692   1.9711   1.9786   1.9845
  1.9927   1.9990   2.0031   2.0195   2.0244   2.0302   2.0456   2.0612
  2.0668   2.0784   2.0947   2.0979   2.1015   2.1179   2.1289   2.1343
  2.1576   2.1589   2.1636   2.1671   2.1727   2.1784   2.1888   2.1922
  2.1964   2.2021   2.2091   2.2135   2.2269   2.2343   2.2376   2.2423
  2.2448   2.2477   2.2595   2.2655   2.2741   2.2803   2.2900   2.2943
  2.3020   2.3084   2.3166   2.3207   2.3380   2.3455   2.3549   2.3592
  2.3676   2.3711   2.3832   2.3859   2.3977   2.4035   2.4124   2.4189
  2.4267   2.4337   2.4384   2.4506   2.4656   2.4746   2.4835   2.4879
  2.4925   2.5017   2.5130   2.5262   2.5277   2.5477   2.5525   2.5589
  2.5606   2.5732   2.5840   2.5930   2.6013   2.6081   2.6144   2.6209
  2.6264   2.6327   2.6358   2.6420   2.6436   2.6515   2.6608   2.6713
  2.6796   2.6808   2.6867   2.6876   2.6987   2.7020   2.7066   2.7136
  2.7199   2.7298   2.7331   2.7338   2.7430   2.7492   2.7618   2.7740
  2.7814   2.7846   2.7938   2.7960   2.8002   2.8116   2.8154   2.8176
  2.8252   2.8394   2.8432   2.8476   2.8558   2.8603   2.8637   2.8690
  2.8753   2.8852   2.8866   2.8890   2.9022   2.9084   2.9161   2.9304
  2.9323   2.9482   2.9505   2.9630   2.9638   2.9730   2.9818   2.9866
  3.0055   3.0114   3.0127   3.0210   3.0240   3.0278   3.0347   3.0418
  3.0449   3.0550   3.0643   3.0706   3.0788   3.0851   3.0913   3.0973
  3.1006   3.1054   3.1089   3.1166   3.1192   3.1284   3.1313   3.1446
  3.1484   3.1532   3.1558   3.1601   3.1651   3.1688   3.1784   3.1812
  3.1883   3.1925   3.2083   3.2112   3.2166   3.2184   3.2194   3.2228
  3.2327   3.2393   3.2436   3.2487   3.2522   3.2548   3.2565   3.2676
  3.2703   3.2779   3.2826   3.2877   3.2894   3.2944   3.3057   3.3093
  3.3110   3.3201   3.3246   3.3277   3.3355   3.3414   3.3486   3.3499
  3.3539   3.3570   3.3584   3.3625   3.3683   3.3709   3.3772   3.3842
  3.3888   3.3919   3.3952   3.3994   3.4009   3.4080   3.4112   3.4142
  3.4222   3.4285   3.4295   3.4348   3.4440   3.4508   3.4543   3.4589
  3.4611   3.4643   3.4661   3.4713   3.4732   3.4823   3.4857   3.4893
  3.4948   3.5092   3.5130   3.5164   3.5236   3.5291   3.5322   3.5384
  3.5426   3.5489   3.5550   3.5587   3.5628   3.5647   3.5707   3.5781
  3.5803   3.5858   3.5916   3.5953   3.5971   3.6033   3.6122   3.6155
  3.6269   3.6278   3.6368   3.6383   3.6423   3.6501   3.6552   3.6613
  3.6689   3.6696   3.6798   3.6847   3.6851   3.6880   3.6932   3.7041
  3.7058   3.7090   3.7115   3.7253   3.7306   3.7331   3.7405   3.7481
  3.7504   3.7576   3.7579   3.7671   3.7725   3.7783   3.7899   3.7918
  3.7944   3.7989   3.8070   3.8075   3.8098   3.8128   3.8152   3.8190
  3.8294   3.8390   3.8428   3.8468   3.8530   3.8572   3.8613   3.8711
  3.8732   3.8828   3.8877   3.8924   3.8955   3.9037   3.9104   3.9132
  3.9259   3.9302   3.9365   3.9535   3.9546   3.9564   3.9642   3.9711
  3.9854   3.9885   3.9996   4.0052   4.0157   4.0233   4.0317   4.0335
  4.0415   4.0544   4.0600   4.0648   4.0684   4.0770   4.0857   4.0907
  4.1079   4.1180   4.1283   4.1323   4.1355   4.1437   4.1479   4.1499
  4.1590   4.1608   4.1673   4.1716   4.1764   4.1876   4.1916   4.1936
  4.2053   4.2083   4.2281   4.2344   4.2389   4.2437   4.2545   4.2684
  4.2790   4.2872   4.2927   4.3110   4.3262   4.3304   4.3421   4.3494
  4.3558   4.3596   4.3605   4.3724   4.3763   4.3807   4.3902   4.3939
  4.4050   4.4069   4.4151   4.4223   4.4284   4.4343   4.4404   4.4426
  4.4574   4.4682   4.4818   4.4835   4.5002   4.5044   4.5135   4.5235
  4.5405   4.5431   4.5504   4.5563   4.5614   4.5737   4.5883   4.5923
  4.5988   4.5999   4.6130   4.6277   4.6336   4.6438   4.6474   4.6601
  4.6642   4.6703   4.6756   4.6851   4.6944   4.7068   4.7340   4.7388
  4.7408   4.7540   4.7681   4.7730   4.7826   4.7862   4.7982   4.8254
  4.8298   4.8366   4.8466   4.8564   4.8582   4.8782   4.8872   4.9129
  4.9392   4.9413   4.9509   4.9585   4.9630   4.9744   4.9791   4.9965
  5.0038   5.0092   5.0158   5.0232   5.0290   5.0409   5.0606   5.0700
  5.0826   5.0967   5.1115   5.1213   5.1579   5.1614   5.1746   5.1962
  5.2000   5.2148   5.2439   5.2510   5.2524   5.2550   5.2583   5.2768
  5.2994   5.3061   5.3159   5.3240   5.3363   5.3441   5.3516   5.3647
  5.3881   5.3963   5.3993   5.4095   5.4265   5.4270   5.4409   5.4637
  5.4852   5.4880   5.4995   5.5082   5.5130   5.5271   5.5404   5.5634
  5.5706   5.5824   5.5872   5.6063   5.6222   5.6265   5.6430   5.6637
  5.7139   5.7276   5.7465   5.7640   5.8079   5.8136   5.8336   5.8556
  5.8722   5.8791   5.9030   5.9123   5.9296   5.9704   5.9980   6.0395
  6.0433   6.0783   6.0902   6.1508   6.1548   6.1716   6.1776   6.1859
  6.2361   6.2387   6.2618   6.2687   6.2693   6.2851   6.2977   6.3363
  6.4040   6.4419   6.4506   6.4793   6.5387   6.5484   6.5560   6.6012
  6.6541   6.6613   6.6717   6.6942   6.7455   6.7998   6.8301   6.8346
  6.8600   6.8932   6.9785   7.1209   7.1358   7.2043   7.2055   7.2162
  7.2339   7.3104   7.3199   7.3298   7.3631   7.3632   7.4061   7.4137
  7.4792   7.4856   7.4872   7.5220   7.5501   7.6148   7.6999   7.7729
  7.7890   7.7971   7.8904   7.9197   7.9419   7.9567   8.0680   8.1338
  8.4004   8.9219   9.0212   9.3629   9.4768   9.6576  10.1418  10.5646
 11.1992  11.4871  11.7641  11.9610  12.1220  12.1406  12.4102  12.5805
 12.6963  12.9322  12.9660  13.1992  13.2961  13.3857  13.7688  13.8472
 13.9014  14.0236  14.0314  14.4873  15.1935
 --------------------------------------------------------------
 
          Ground-State Mulliken Net Atomic Charges

     Atom                 Charge (a.u.)
  ----------------------------------------
      1 C                    -0.189625
      2 C                    -0.254189
      3 S                    -0.023403
      4 C                    -0.016316
      5 H                     0.196165
      6 C                    -0.029007
      7 C                     0.240374
      8 C                     0.244128
      9 C                    -0.051894
     10 C                    -0.016990
     11 O                    -0.333702
     12 O                    -0.340155
     13 C                    -0.085661
     14 H                     0.122298
     15 H                     0.091167
     16 H                     0.093581
     17 C                    -0.086203
     18 H                     0.124432
     19 H                     0.094693
     20 H                     0.089408
     21 C                    -0.205954
     22 S                    -0.004218
     23 C                    -0.035126
     24 H                     0.198655
     25 H                     0.206144
     26 C                    -0.060041
     27 S                     0.112056
     28 C                    -0.176210
     29 C                    -0.032440
     30 C                    -0.079655
     31 S                     0.023212
     32 C                    -0.154577
     33 C                     0.390143
     34 F                    -0.206360
     35 C                     0.446908
     36 O                    -0.461575
     37 O                    -0.301053
     38 C                    -0.058399
     39 H                     0.121224
     40 H                     0.095068
     41 H                     0.095043
     42 H                     0.218054
  ----------------------------------------
  Sum of atomic charges =     0.000000

 -----------------------------------------------------------------
                    Cartesian Multipole Moments
 -----------------------------------------------------------------
    Charge (ESU x 10^10)
                 0.0000
    Dipole Moment (Debye)
         X       1.5853      Y       1.1800      Z       3.1920
       Tot       3.7542
    Quadrupole Moments (Debye-Ang)
        XX    -173.1765     XY       6.4696     YY    -165.2905
        XZ      -1.9882     YZ      -7.5576     ZZ    -206.2581
    Octopole Moments (Debye-Ang^2)
       XXX    -317.9660    XXY     296.2129    XYY     -77.5609
       YYY     916.1718    XXZ     161.6390    XYZ     -35.0047
       YYZ     131.7826    XZZ     -66.5572    YZZ     487.9641
       ZZZ     554.3095
    Hexadecapole Moments (Debye-Ang^3)
      XXXX   -3128.6125   XXXY    -225.5323   XXYY   -3718.5501
      XYYY    -201.6614   YYYY  -18596.4210   XXXZ     888.6274
      XXYZ     367.2641   XYYZ     210.5557   YYYZ    1120.0342
      XXZZ   -1348.4418   XYZZ     211.4157   YYZZ   -4261.8290
      XZZZ     670.3503   YZZZ     883.1812   ZZZZ   -5465.9036
 -----------------------------------------------------------------
 Total job time:  506.36s(wall), 21104.42s(cpu) 
 Tue Jan  9 01:33:13 2024

        *************************************************************
        *                                                           *
        *  Thank you very much for using Q-Chem.  Have a nice day.  *
        *                                                           *
        *************************************************************


0 sent ACK to 0 
now end server 0 ... 
cleanup process ... done
remove work dirs ./qchem532538.0 -- ./qchem532538.0
rm -rf ./qchem532538.0
rm -rf ./qchem532538
