You are running Q-Chem version: 5.4.0

#
# job setting
#
local host:  exp-7-09
current dir: /home/rramji/project-csd799/aromodel/ptb7fout-qchem/rotation-run
input file:  Dimethoxy_Benzodithiophene_Phi_10_Theta_220_Methylcarbonyl_3_Fluoro_Thienothiophene.qcin
output file: 
nprocs     : 1
nthreads   : 64
#
# qchem installation setting
#
QC:          /cm/shared/apps/spack/cpu/opt/spack/linux-centos8-zen2/gcc-10.2.0/qchem-5.4-akfmr7b3t57bfs6qan3padb2wnb2i7cl
QCAUX:       /cm/shared/apps/spack/cpu/opt/spack/linux-centos8-zen2/gcc-10.2.0/qchem-5.4-akfmr7b3t57bfs6qan3padb2wnb2i7cl/qcaux
QCPROG:      /cm/shared/apps/spack/cpu/opt/spack/linux-centos8-zen2/gcc-10.2.0/qchem-5.4-akfmr7b3t57bfs6qan3padb2wnb2i7cl/exe/qcprog.exe
QCPROG_S:    /cm/shared/apps/spack/cpu/opt/spack/linux-centos8-zen2/gcc-10.2.0/qchem-5.4-akfmr7b3t57bfs6qan3padb2wnb2i7cl/exe/qcprog.exe_s
PARALLEL:    -DPARALLEL
QCMPI:       mpich
#
# qchem directory setting
#
qcrun:       qchem32453
QCSCRATCH:   .
QCLOCALSCR:  
QCTMPDIR:    .
QCFILEPREF:  ./qchem32453
QCSAVEDIR:   
workdirs:    ./qchem32453
workdir0:    ./qchem32453
partmpdirs =  
#
# parallel setting
#
QCRSH:           ssh
QCMPI:           mpich
QCMPIRUN:        /cm/shared/apps/spack/cpu/opt/spack/linux-centos8-zen2/gcc-10.2.0/qchem-5.4-akfmr7b3t57bfs6qan3padb2wnb2i7cl/bin/mpi/mpirun_qchem
QCMACHINEFILE:   ./qchem32453/hostfile
exp-7-09

#
# env setting
#
exported envs:   QC QCAUX QCSCRATCH QCRUNNAME QCFILEPREF QCPROG QCPROG_S GUIFILE

Running Job 1 of 1 Dimethoxy_Benzodithiophene_Phi_10_Theta_220_Methylcarbonyl_3_Fluoro_Thienothiophene.qcin
qchem Dimethoxy_Benzodithiophene_Phi_10_Theta_220_Methylcarbonyl_3_Fluoro_Thienothiophene.qcin_32453.0 ./qchem32453/ 1
/cm/shared/apps/spack/cpu/opt/spack/linux-centos8-zen2/gcc-10.2.0/qchem-5.4-akfmr7b3t57bfs6qan3padb2wnb2i7cl/bin/mpi/mpirun_qchem -machinefile ./qchem32453/hostfile -np 1 /cm/shared/apps/spack/cpu/opt/spack/linux-centos8-zen2/gcc-10.2.0/qchem-5.4-akfmr7b3t57bfs6qan3padb2wnb2i7cl/exe/qcprog.exe Dimethoxy_Benzodithiophene_Phi_10_Theta_220_Methylcarbonyl_3_Fluoro_Thienothiophene.qcin_32453.0 ./qchem32453/

Process 0 of 1 is on exp-7-09 - thread support 0
initial socket setup ...start
initial socket setup ...done 
now start server 0 ... 
                  Welcome to Q-Chem
     A Quantum Leap Into The Future Of Chemistry


 Q-Chem 5.4, Q-Chem, Inc., Pleasanton, CA (2021)

 License issued to: University of California, San Diego (site)

 E. Epifanovsky,  A. T. B. Gilbert,  Xintian Feng,  Joonho Lee,  Yuezhi Mao,  
 N. Mardirossian,  P. Pokhilko,  A. White,  M. Wormit,  M. P. Coons,  
 A. L. Dempwolff,  Zhengting Gan,  D. Hait,  P. R. Horn,  L. D. Jacobson,  
 I. Kaliman,  J. Kussmann,  A. W. Lange,  Ka Un Lao,  D. S. Levine,  Jie Liu,  
 S. C. McKenzie,  A. F. Morrison,  K. Nanda,  F. Plasser,  D. R. Rehn,  
 M. L. Vidal,  Zhi-Qiang You,  Ying Zhu,  B. Alam,  B. Albrecht,  
 A. Aldossary,  E. Alguire,  J. H. Andersen,  D. Barton,  K. Begam,  A. Behn,  
 Y. A. Bernard,  E. J. Berquist,  H. Burton,  A. Carreras,  K. Carter-Fenk,  
 R. Chakraborty,  A. D. Chien,  K. D. Closser,  V. Cofer-Shabica,  
 S. Dasgupta,  Jia Deng,  M. de Wergifosse,  M. Diedenhofen,  Hainam Do,  
 S. Ehlert,  Po-Tung Fang,  S. Fatehi,  Qingguo Feng,  J. Gayvert,  
 Qinghui Ge,  G. Gidofalvi,  M. Goldey,  J. Gomes,  C. Gonzalez-Espinoza,  
 S. Gulania,  A. Gunina,  M. W. D. Hanson-Heine,  P. H. P. Harbach,  
 A. W. Hauser,  M. F. Herbst,  M. Hernandez Vera,  M. Hodecker,  
 Z. C. Holden,  S. Houck,  Xunkun Huang,  Kerwin Hui,  B. C. Huynh,  
 M. Ivanov,  Hyunjun Ji,  Hanjie Jiang,  B. Kaduk,  S. Kaehler,  
 K. Khistyaev,  Jaehoon Kim,  P. Klunzinger,  Z. Koczor-Benda,  
 Joong Hoon Koh,  D. Kosenkov,  L. Koulias,  T. Kowalczyk,  C. M. Krauter,  
 K. Kue,  A. Kunitsa,  T. Kus,  A. Landau,  K. V. Lawler,  D. Lefrancois,  
 S. Lehtola,  Rain Li,  Yi-Pei Li,  Jiashu Liang,  M. Liebenthal,  
 Hung-Hsuan Lin,  You-Sheng Lin,  Fenglai Liu,  Kuan-Yu Liu,  
 M. Loipersberger,  A. Luenser,  A. Manjanath,  P. Manohar,  E. Mansoor,  
 S. F. Manzer,  Shan-Ping Mao,  A. V. Marenich,  T. Markovich,  S. Mason,  
 S. A. Maurer,  P. F. McLaughlin,  M. F. S. J. Menger,  J.-M. Mewes,  
 S. A. Mewes,  P. Morgante,  J. W. Mullinax,  T. S. Nguyen-Beck,  
 K. J. Oosterbaan,  G. Paran,  Alexander C. Paul,  Suranjan K. Paul,  
 F. Pavosevic,  Zheng Pei,  S. Prager,  E. I. Proynov,  E. Ramos,  B. Rana,  
 A. E. Rask,  A. Rettig,  R. M. Richard,  F. Rob,  E. Rossomme,  T. Scheele,  
 M. Scheurer,  M. Schneider,  N. Sergueev,  S. M. Sharada,  W. Skomorowski,  
 D. W. Small,  C. J. Stein,  Yu-Chuan Su,  E. J. Sundstrom,  Zhen Tao,  
 J. Thirman,  T. Tsuchimochi,  N. M. Tubman,  S. P. Veccham,  O. Vydrov,  
 J. Wenzel,  J. Witte,  A. Yamada,  Kun Yao,  S. Yeganeh,  S. R. Yost,  
 A. Zech,  Igor Ying Zhang,  Xing Zhang,  Yu Zhang,  D. Zuev,  
 A. Aspuru-Guzik,  A. T. Bell,  N. A. Besley,  K. B. Bravaya,  B. R. Brooks,  
 D. Casanova,  Jeng-Da Chai,  S. Coriani,  C. J. Cramer,  
 A. E. DePrince, III,  R. A. DiStasio Jr.,  A. Dreuw,  B. D. Dunietz,  
 T. R. Furlani,  W. A. Goddard III,  S. Grimme,  S. Hammes-Schiffer,  
 T. Head-Gordon,  W. J. Hehre,  Chao-Ping Hsu,  T.-C. Jagau,  Yousung Jung,  
 A. Klamt,  Jing Kong,  D. S. Lambrecht,  WanZhen Liang,  N. J. Mayhall,  
 C. W. McCurdy,  J. B. Neaton,  C. Ochsenfeld,  J. A. Parkhill,  R. Peverati,  
 V. A. Rassolov,  Yihan Shao,  L. V. Slipchenko,  T. Stauch,  R. P. Steele,  
 J. E. Subotnik,  A. J. W. Thom,  A. Tkatchenko,  D. G. Truhlar,  
 T. Van Voorhis,  T. A. Wesolowski,  K. B. Whaley,  H. L. Woodcock III,  
 P. M. Zimmerman,  S. Faraji,  P. M. W. Gill,  M. Head-Gordon,  
 J. M. Herbert,  A. I. Krylov

 Contributors to earlier versions of Q-Chem not listed above: 
 R. D. Adamson,  B. Austin,  R. Baer,  J. Baker,  G. J. O. Beran,  
 K. Brandhorst,  S. T. Brown,  E. F. C. Byrd,  A. K. Chakraborty,  
 G. K. L. Chan,  Chun-Min Chang,  Yunqing Chen,  C.-L. Cheng,  
 Siu Hung Chien,  D. M. Chipman,  D. L. Crittenden,  H. Dachsel,  
 R. J. Doerksen,  A. D. Dutoi,  R. G. Edgar,  J. Fosso-Tande,  
 L. Fusti-Molnar,  D. Ghosh,  A. Ghysels,  A. Golubeva-Zadorozhnaya,  
 J. Gonthier,  M. S. Gordon,  S. R. Gwaltney,  G. Hawkins,  J. E. Herr,  
 A. Heyden,  S. Hirata,  E. G. Hohenstein,  G. Kedziora,  F. J. Keil,  
 C. Kelley,  Jihan Kim,  R. A. King,  R. Z. Khaliullin,  P. P. Korambath,  
 W. Kurlancheek,  A. Laurent,  A. M. Lee,  M. S. Lee,  S. V. Levchenko,  
 Ching Yeh Lin,  D. Liotard,  E. Livshits,  R. C. Lochan,  I. Lotan,  
 L. A. Martinez-Martinez,  P. E. Maslen,  N. Nair,  D. P. O'Neill,  
 D. Neuhauser,  E. Neuscamman,  C. M. Oana,  R. Olivares-Amaya,  R. Olson,  
 T. M. Perrine,  B. Peters,  P. A. Pieniazek,  A. Prociuk,  Y. M. Rhee,  
 J. Ritchie,  M. A. Rohrdanz,  E. Rosta,  N. J. Russ,  H. F. Schaefer III,  
 M. W. Schmidt,  N. E. Schultz,  S. Sharma,  N. Shenvi,  C. D. Sherrill,  
 A. C. Simmonett,  A. Sodt,  T. Stein,  D. Stuck,  K. S. Thanthiriwatte,  
 V. Vanovschi,  L. Vogt,  Tao Wang,  A. Warshel,  M. A. Watson,  
 C. F. Williams,  Q. Wu,  X. Xu,  Jun Yang,  W. Zhang,  Yan Zhao

 Please cite Q-Chem as follows:
 Y. Shao et al., Mol. Phys. 113, 184-215 (2015)
 DOI: 10.1080/00268976.2014.952696

 Q-Chem 5.4.0 for Intel X86 EM64T Linux

 Parts of Q-Chem use Armadillo 9.800.1 (Horizon Scraper).
 http://arma.sourceforge.net/

 Q-Chem begins on Tue Jan  9 01:20:31 2024  

 Host: 
0

     Scratch files written to ./qchem32453//
 May1621 |scratch|qcdevops|jenkins|workspace|build_RNUM    
 Parallel job on  1  processors
 Processing $rem in /cm/shared/apps/spack/cpu/opt/spack/linux-centos8-zen2/gcc-10.2.0/qchem-5.4-akfmr7b3t57bfs6qan3padb2wnb2i7cl/config/preferences:
 Processing $rem in /home/rramji/.qchemrc:
 Symmetry turned off for PCM/SM12/SMD calculation
 Core orbitals will be frozen

 Checking the input file for inconsistencies... 	...done.

 Q-Chem warning in module forms1/BasisType.C, line 2236:

 You are not using the predefined 5D/6D in this basis set.


--------------------------------------------------------------
User input:
--------------------------------------------------------------
$molecule
0 1
C	0.236226	-8.517702	-0.217225
C	-0.448921	-7.641575	0.611939
S	1.218777	-7.638634	-1.413715
C	-0.206907	-6.264785	0.323572
H	-1.118185	-7.966081	1.418739
C	0.711285	-6.072714	-0.768156
C	1.053725	-4.787049	-1.215016
C	-0.804258	-5.162801	0.999917
C	-0.464908	-3.874817	0.550033
C	0.456457	-3.683952	-0.541024
O	-1.630752	-5.499772	2.028811
O	1.883064	-4.459055	-2.249357
C	2.956754	-5.329063	-2.586579
H	3.619069	-4.755694	-3.262802
H	2.609423	-6.238095	-3.124711
H	3.531667	-5.637262	-1.686639
C	-2.599073	-4.572261	2.503251
H	-3.260097	-5.139743	3.185356
H	-3.207034	-4.153131	1.672937
H	-2.135214	-3.739531	3.075213
C	0.694410	-2.306654	-0.828107
S	-0.983256	-2.306501	1.188794
C	-0.000000	-1.435185	-0.000000
H	1.364851	-1.978138	-1.632185
H	0.234980	-9.614033	-0.221288
C	0.000000	0.000000	0.000000
S	0.157577	0.890937	1.507541
C	0.429889	2.439720	0.718873
C	0.157797	0.890576	-1.067872
C	0.396915	2.260004	-0.686410
S	0.118307	0.650207	-2.805516
C	0.417036	2.376229	-3.054530
C	0.537616	3.074202	-1.862551
F	0.764992	4.391378	-1.819088
C	0.496696	2.817118	-4.456084
O	0.370874	2.057582	-5.406510
O	0.723861	4.148418	-4.569225
C	0.814976	4.635075	-5.916207
H	0.999286	5.720591	-5.833064
H	-0.125909	4.442226	-6.470168
H	1.645504	4.140465	-6.459293
H	0.588993	3.350182	1.306486
$end

$rem
JOBTYPE		SP
EXCHANGE	HF
CORRELATION	pRIMP2
BASIS		cc-pvtz
METHOD		rimp2
AUX_BASIS	rimp2-cc-pvtz
SOLVENT_METHOD	PCM
PURECART	11111
SYMMETRY	false
MEM_TOTAL	110000
SCF_CONVERGENCE = 6
THRESH=10
GUI = 2
$end



$solvent
dielectric 4.90
$end
--------------------------------------------------------------
 ----------------------------------------------------------------
             Standard Nuclear Orientation (Angstroms)
    I     Atom           X                Y                Z
 ----------------------------------------------------------------
    1      C       0.2362260000    -8.5177020000    -0.2172250000
    2      C      -0.4489210000    -7.6415750000     0.6119390000
    3      S       1.2187770000    -7.6386340000    -1.4137150000
    4      C      -0.2069070000    -6.2647850000     0.3235720000
    5      H      -1.1181850000    -7.9660810000     1.4187390000
    6      C       0.7112850000    -6.0727140000    -0.7681560000
    7      C       1.0537250000    -4.7870490000    -1.2150160000
    8      C      -0.8042580000    -5.1628010000     0.9999170000
    9      C      -0.4649080000    -3.8748170000     0.5500330000
   10      C       0.4564570000    -3.6839520000    -0.5410240000
   11      O      -1.6307520000    -5.4997720000     2.0288110000
   12      O       1.8830640000    -4.4590550000    -2.2493570000
   13      C       2.9567540000    -5.3290630000    -2.5865790000
   14      H       3.6190690000    -4.7556940000    -3.2628020000
   15      H       2.6094230000    -6.2380950000    -3.1247110000
   16      H       3.5316670000    -5.6372620000    -1.6866390000
   17      C      -2.5990730000    -4.5722610000     2.5032510000
   18      H      -3.2600970000    -5.1397430000     3.1853560000
   19      H      -3.2070340000    -4.1531310000     1.6729370000
   20      H      -2.1352140000    -3.7395310000     3.0752130000
   21      C       0.6944100000    -2.3066540000    -0.8281070000
   22      S      -0.9832560000    -2.3065010000     1.1887940000
   23      C       0.0000000000    -1.4351850000     0.0000000000
   24      H       1.3648510000    -1.9781380000    -1.6321850000
   25      H       0.2349800000    -9.6140330000    -0.2212880000
   26      C       0.0000000000     0.0000000000     0.0000000000
   27      S       0.1575770000     0.8909370000     1.5075410000
   28      C       0.4298890000     2.4397200000     0.7188730000
   29      C       0.1577970000     0.8905760000    -1.0678720000
   30      C       0.3969150000     2.2600040000    -0.6864100000
   31      S       0.1183070000     0.6502070000    -2.8055160000
   32      C       0.4170360000     2.3762290000    -3.0545300000
   33      C       0.5376160000     3.0742020000    -1.8625510000
   34      F       0.7649920000     4.3913780000    -1.8190880000
   35      C       0.4966960000     2.8171180000    -4.4560840000
   36      O       0.3708740000     2.0575820000    -5.4065100000
   37      O       0.7238610000     4.1484180000    -4.5692250000
   38      C       0.8149760000     4.6350750000    -5.9162070000
   39      H       0.9992860000     5.7205910000    -5.8330640000
   40      H      -0.1259090000     4.4422260000    -6.4701680000
   41      H       1.6455040000     4.1404650000    -6.4592930000
   42      H       0.5889930000     3.3501820000     1.3064860000
 ----------------------------------------------------------------
 Nuclear Repulsion Energy =        3276.92163321 hartrees
 There are      119 alpha and      119 beta electrons
 Requested basis set is cc-pVTZ
 There are 376 shells and 1068 basis functions

 Total QAlloc Memory Limit 110000 MB
 Mega-Array Size       188 MB
 MEM_STATIC part       192 MB
 Discretize the solute cavity surface with Lebedev spheres
	Using 110 Lebedev grid points for each H atom
	Using 194 Lebedev grid points for other atoms
	Atomic van der Waals radii will be scaled by 1.20
 Remove points where switching function is < 1.0e-08
 Keep 2908 surface tesserae and discard 4148 interior tesserae
 Molecular Surface Area = 439.732 Angst**2
 Requested basis set is rimp2-cc-pVTZ
 There are 833 shells and 2903 basis functions
 A cutoff of  1.0D-10 yielded  30807 shell pairs
 There are    236811 function pairs (    307569 Cartesian)
 Smallest overlap matrix eigenvalue = 2.17E-05

 Scale SEOQF with 1.000000e-01/1.000000e-02/1.000000e-02

 Standard Electronic Orientation quadrupole field applied
 Nucleus-field energy     =     0.0000000278 hartrees
 Guess from superposition of atomic densities
 Warning:  Energy on first SCF cycle will be non-variational
 SAD guess density has 238.000000 electrons

 -----------------------------------------------------------------------
  General SCF calculation program by
  Eric Jon Sundstrom, Paul Horn, Yuezhi Mao, Dmitri Zuev, Alec White,
  David Stuck, Shaama M.S., Shane Yost, Joonho Lee, David Small,
  Daniel Levine, Susi Lehtola, Hugh Burton, Evgeny Epifanovsky,
  Bang C. Huynh
 -----------------------------------------------------------------------
 Hartree-Fock
 using 64 threads for integral computing
 -------------------------------------------------------
 OpenMP Integral computing Module                
 Release: version 1.0, May 2013, Q-Chem Inc. Pittsburgh 
 -------------------------------------------------------
 A restricted SCF calculation will be
 performed using DIIS
 SCF converges when DIIS error is below 1.0e-06
 ---------------------------------------
  Cycle       Energy         DIIS error
 ---------------------------------------
    1   -2765.2159615541      1.75e-02  
    2   -2753.8821617333      1.56e-03  
    3   -2754.2208960220      8.61e-04  
    4   -2754.3021406181      2.56e-04  
    5   -2754.3137620806      6.94e-05  
    6   -2754.3148467354      2.37e-05  
    7   -2754.3150828969      1.14e-05  
    8   -2754.3151607555      4.27e-06  
    9   -2754.3151754671      1.70e-06  
   10   -2754.3151772955      7.27e-07  Convergence criterion met
 ---------------------------------------
 SCF time:   CPU 6068.24s  wall 228.00s 

************** Final PCM Free Energy Summary **************
 G_electrostatic  =      -0.01850909 hartree =     -11.61462975 kcal/mol
 G_cavitation     =       0.00000000 hartree =       0.00000000 kcal/mol
 G_dispersion     =       0.00000000 hartree =       0.00000000 kcal/mol
 G_repulsion      =       0.00000000 hartree =       0.00000000 kcal/mol
 --------------------------------------------------
 Non-electrostatic Free Energy =       0.00000000 hartree =       0.00000000 kcal/mol
 Total                         =      -0.01850909 hartree =     -11.61462975 kcal/mol
 --------------------------------------------------
 SCF Energy (H0 + V/2)                       =   -2754.31517730 
 Solute Internal Energy (H0)                 =   -2754.29666820 
 Total Free Energy (H0 + V/2 + non-elec)     =   -2754.31517730 hartree
                                             = -1728358.85987195 kcal/mol
***********************************************************

 SCF   energy in the final basis set =    -2754.3151772955
 Total energy in the final basis set =    -2754.3151772955


 --------------------------------------------------------------
  Generalized many-body perturbation theory program
  by Joonho Lee, Fazle Rob, Xintian Feng, Evgeny Epifanovsky

 No regularization used 
 (reg. param. = 0.0000e+00)
  (P|Q)^-1/2 Time:  CPU 259.62 s  wall 4.90 s

 In RI-MP2 calculation: 
 # of frozen core orbitals: 45

 Components of the RIMP2 correlation energy:
        aaaa    correlation energy =        -0.6696204904 a.u.
        abab    correlation energy =        -3.7120473506 a.u.
        bbbb    correlation energy =        -0.6696204904 a.u.
        non-Brillouin singles      =        -0.0000000000 a.u.
        total same-spin energy     =        -1.3392409807 a.u.
        total opposite-spin energy =        -3.7120473506 a.u.

 Total  RIMP2   correlation energy =        -5.0512883313 a.u.
        RIMP2         total energy =     -2759.3664656268 a.u.

 RI-MP2 Energy Time:  CPU 2733.33 s  wall 45.49 s
 
 --------------------------------------------------------------
 
                    Orbital Energies (a.u.)
 --------------------------------------------------------------
 
 Alpha MOs
 -- Occupied --
-92.0154 -91.9977 -91.9905 -91.9865 -26.3429 -20.6145 -20.5928 -20.5912
-20.5610 -11.4091 -11.3818 -11.3198 -11.3179 -11.3095 -11.3004 -11.2991
-11.2972 -11.2956 -11.2886 -11.2875 -11.2867 -11.2858 -11.2849 -11.2843
-11.2798 -11.2617 -11.2591 -11.2567 -11.2501  -9.0140  -8.9977  -8.9910
 -8.9864  -6.6947  -6.6941  -6.6936  -6.6787  -6.6780  -6.6768  -6.6719
 -6.6713  -6.6703  -6.6674  -6.6668  -6.6659  -1.6600  -1.4670  -1.4169
 -1.4140  -1.3697  -1.2212  -1.1949  -1.1660  -1.1360  -1.0852  -1.0523
 -1.0414  -1.0228  -1.0019  -0.9882  -0.9632  -0.9599  -0.9505  -0.9391
 -0.8963  -0.8674  -0.8519  -0.8078  -0.7982  -0.7874  -0.7869  -0.7646
 -0.7551  -0.7343  -0.7249  -0.7094  -0.7019  -0.6850  -0.6834  -0.6804
 -0.6736  -0.6594  -0.6579  -0.6526  -0.6306  -0.6200  -0.6172  -0.6037
 -0.5976  -0.5835  -0.5786  -0.5708  -0.5656  -0.5619  -0.5538  -0.5500
 -0.5343  -0.5304  -0.5247  -0.5166  -0.5163  -0.5077  -0.5068  -0.4961
 -0.4883  -0.4804  -0.4759  -0.4735  -0.4686  -0.4676  -0.4606  -0.4195
 -0.3959  -0.3857  -0.3590  -0.3499  -0.3242  -0.2908  -0.2535
 -- Virtual --
  0.0297   0.0582   0.1112   0.1243   0.1344   0.1501   0.1542   0.1560
  0.1576   0.1600   0.1611   0.1710   0.1820   0.1870   0.1901   0.1967
  0.2038   0.2045   0.2152   0.2168   0.2207   0.2213   0.2245   0.2280
  0.2345   0.2396   0.2444   0.2485   0.2547   0.2644   0.2746   0.2790
  0.2932   0.2988   0.3254   0.3330   0.3372   0.3416   0.3446   0.3521
  0.3566   0.3591   0.3665   0.3782   0.3805   0.3845   0.3857   0.3866
  0.3921   0.3956   0.4037   0.4067   0.4089   0.4165   0.4212   0.4246
  0.4307   0.4355   0.4416   0.4464   0.4475   0.4524   0.4554   0.4578
  0.4619   0.4654   0.4707   0.4760   0.4827   0.4867   0.4880   0.4921
  0.4974   0.4999   0.5035   0.5102   0.5119   0.5143   0.5166   0.5215
  0.5281   0.5301   0.5324   0.5333   0.5412   0.5428   0.5472   0.5505
  0.5533   0.5539   0.5568   0.5615   0.5676   0.5703   0.5723   0.5791
  0.5890   0.5899   0.5919   0.5983   0.6004   0.6068   0.6105   0.6137
  0.6152   0.6182   0.6200   0.6220   0.6235   0.6246   0.6302   0.6342
  0.6358   0.6410   0.6428   0.6465   0.6508   0.6558   0.6635   0.6676
  0.6746   0.6788   0.6825   0.6847   0.6912   0.6989   0.7034   0.7101
  0.7122   0.7156   0.7187   0.7262   0.7314   0.7359   0.7426   0.7505
  0.7561   0.7588   0.7634   0.7717   0.7793   0.7829   0.7930   0.8014
  0.8042   0.8085   0.8151   0.8213   0.8262   0.8287   0.8428   0.8471
  0.8501   0.8525   0.8566   0.8673   0.8675   0.8735   0.8782   0.8903
  0.8936   0.8969   0.9004   0.9037   0.9085   0.9129   0.9207   0.9223
  0.9305   0.9365   0.9388   0.9476   0.9515   0.9537   0.9618   0.9700
  0.9733   0.9793   0.9808   0.9820   0.9867   0.9964   1.0003   1.0040
  1.0112   1.0133   1.0146   1.0247   1.0279   1.0324   1.0352   1.0424
  1.0459   1.0541   1.0555   1.0654   1.0682   1.0750   1.0781   1.0808
  1.0820   1.0868   1.0903   1.1006   1.1019   1.1028   1.1102   1.1148
  1.1191   1.1211   1.1251   1.1339   1.1403   1.1453   1.1513   1.1536
  1.1602   1.1652   1.1746   1.1802   1.1837   1.1865   1.1877   1.1984
  1.2041   1.2104   1.2153   1.2177   1.2204   1.2219   1.2283   1.2299
  1.2355   1.2379   1.2435   1.2472   1.2597   1.2650   1.2678   1.2715
  1.2733   1.2742   1.2805   1.2969   1.3049   1.3109   1.3128   1.3199
  1.3244   1.3317   1.3338   1.3446   1.3492   1.3590   1.3665   1.3692
  1.3746   1.3815   1.3910   1.4022   1.4042   1.4115   1.4203   1.4260
  1.4341   1.4377   1.4468   1.4555   1.4728   1.4775   1.4847   1.4877
  1.4991   1.5026   1.5031   1.5069   1.5131   1.5155   1.5231   1.5310
  1.5322   1.5396   1.5402   1.5416   1.5453   1.5487   1.5555   1.5664
  1.5732   1.5786   1.5854   1.5994   1.6061   1.6117   1.6247   1.6295
  1.6327   1.6451   1.6530   1.6571   1.6613   1.6621   1.6721   1.6849
  1.6876   1.6947   1.7023   1.7055   1.7176   1.7236   1.7280   1.7490
  1.7601   1.7703   1.7787   1.7868   1.7922   1.8025   1.8099   1.8185
  1.8219   1.8287   1.8363   1.8451   1.8639   1.8655   1.8697   1.8717
  1.8839   1.8851   1.8994   1.9050   1.9152   1.9183   1.9240   1.9347
  1.9409   1.9494   1.9518   1.9610   1.9644   1.9728   1.9766   1.9881
  1.9976   2.0002   2.0040   2.0176   2.0269   2.0351   2.0405   2.0568
  2.0711   2.0796   2.0863   2.0951   2.1083   2.1097   2.1277   2.1430
  2.1558   2.1597   2.1667   2.1698   2.1757   2.1852   2.1924   2.1962
  2.2004   2.2043   2.2059   2.2114   2.2247   2.2297   2.2331   2.2432
  2.2511   2.2528   2.2567   2.2617   2.2726   2.2735   2.2839   2.2934
  2.3027   2.3090   2.3157   2.3244   2.3356   2.3432   2.3519   2.3532
  2.3682   2.3750   2.3833   2.3878   2.3971   2.4072   2.4186   2.4224
  2.4279   2.4321   2.4389   2.4500   2.4590   2.4734   2.4807   2.4855
  2.4964   2.5026   2.5117   2.5236   2.5265   2.5432   2.5467   2.5612
  2.5645   2.5678   2.5846   2.5997   2.6066   2.6132   2.6186   2.6217
  2.6278   2.6324   2.6376   2.6385   2.6435   2.6550   2.6620   2.6709
  2.6799   2.6843   2.6904   2.6915   2.7006   2.7015   2.7086   2.7130
  2.7208   2.7263   2.7306   2.7405   2.7496   2.7532   2.7584   2.7720
  2.7817   2.7889   2.7909   2.7984   2.7995   2.8083   2.8134   2.8165
  2.8253   2.8299   2.8385   2.8443   2.8514   2.8537   2.8627   2.8728
  2.8736   2.8821   2.8858   2.8899   2.8999   2.9037   2.9202   2.9246
  2.9336   2.9526   2.9541   2.9657   2.9714   2.9769   2.9869   2.9895
  2.9981   3.0086   3.0107   3.0138   3.0211   3.0237   3.0313   3.0396
  3.0455   3.0567   3.0644   3.0666   3.0822   3.0869   3.0907   3.0964
  3.1006   3.1024   3.1074   3.1124   3.1193   3.1214   3.1326   3.1465
  3.1485   3.1508   3.1571   3.1594   3.1650   3.1719   3.1791   3.1819
  3.1859   3.1988   3.1999   3.2084   3.2175   3.2179   3.2254   3.2312
  3.2350   3.2393   3.2416   3.2457   3.2544   3.2571   3.2667   3.2683
  3.2711   3.2788   3.2797   3.2883   3.2896   3.2924   3.3008   3.3057
  3.3094   3.3183   3.3261   3.3294   3.3313   3.3345   3.3394   3.3433
  3.3458   3.3557   3.3578   3.3591   3.3642   3.3661   3.3728   3.3766
  3.3802   3.3878   3.3918   3.3937   3.3993   3.4021   3.4088   3.4107
  3.4209   3.4291   3.4339   3.4356   3.4393   3.4441   3.4484   3.4567
  3.4587   3.4635   3.4673   3.4728   3.4764   3.4791   3.4798   3.4850
  3.4967   3.4986   3.5070   3.5119   3.5218   3.5268   3.5280   3.5349
  3.5429   3.5463   3.5526   3.5558   3.5587   3.5619   3.5723   3.5776
  3.5805   3.5860   3.5896   3.5928   3.6003   3.6011   3.6026   3.6124
  3.6183   3.6236   3.6301   3.6344   3.6369   3.6439   3.6532   3.6562
  3.6661   3.6681   3.6780   3.6806   3.6844   3.6899   3.6905   3.6943
  3.7001   3.7061   3.7101   3.7114   3.7203   3.7250   3.7350   3.7395
  3.7447   3.7451   3.7545   3.7626   3.7690   3.7764   3.7797   3.7842
  3.7915   3.7952   3.7984   3.8074   3.8090   3.8145   3.8186   3.8203
  3.8252   3.8312   3.8391   3.8465   3.8484   3.8610   3.8700   3.8741
  3.8770   3.8807   3.8857   3.8925   3.9018   3.9101   3.9133   3.9256
  3.9293   3.9365   3.9434   3.9509   3.9552   3.9674   3.9718   3.9796
  3.9913   3.9920   3.9976   4.0050   4.0126   4.0275   4.0303   4.0395
  4.0513   4.0582   4.0628   4.0688   4.0735   4.0765   4.0803   4.0872
  4.1024   4.1075   4.1141   4.1223   4.1317   4.1414   4.1459   4.1567
  4.1607   4.1632   4.1678   4.1694   4.1763   4.1795   4.1889   4.1977
  4.2039   4.2107   4.2268   4.2356   4.2441   4.2513   4.2578   4.2600
  4.2735   4.2851   4.2987   4.3100   4.3150   4.3280   4.3380   4.3421
  4.3556   4.3588   4.3637   4.3756   4.3765   4.3838   4.3872   4.4012
  4.4035   4.4090   4.4117   4.4228   4.4287   4.4329   4.4394   4.4500
  4.4564   4.4681   4.4859   4.4883   4.5019   4.5036   4.5158   4.5277
  4.5362   4.5395   4.5421   4.5554   4.5601   4.5761   4.5798   4.5906
  4.5960   4.6030   4.6122   4.6264   4.6296   4.6412   4.6463   4.6556
  4.6612   4.6678   4.6800   4.6864   4.6942   4.6982   4.7212   4.7319
  4.7437   4.7559   4.7640   4.7710   4.7812   4.7909   4.7951   4.8239
  4.8315   4.8338   4.8505   4.8519   4.8697   4.8796   4.8958   4.9243
  4.9328   4.9441   4.9489   4.9571   4.9654   4.9714   4.9878   5.0002
  5.0061   5.0091   5.0114   5.0178   5.0331   5.0499   5.0603   5.0722
  5.0832   5.1076   5.1190   5.1274   5.1488   5.1627   5.1726   5.1966
  5.2046   5.2183   5.2471   5.2499   5.2531   5.2541   5.2586   5.2833
  5.2975   5.3110   5.3154   5.3256   5.3385   5.3505   5.3553   5.3664
  5.3778   5.3931   5.3988   5.4104   5.4264   5.4290   5.4319   5.4635
  5.4851   5.4860   5.5065   5.5109   5.5135   5.5312   5.5422   5.5691
  5.5742   5.5843   5.5864   5.6054   5.6194   5.6220   5.6540   5.6668
  5.7156   5.7387   5.7517   5.7765   5.8078   5.8176   5.8409   5.8554
  5.8732   5.8834   5.9130   5.9294   5.9605   5.9815   6.0024   6.0426
  6.0517   6.0870   6.1064   6.1507   6.1638   6.1705   6.1780   6.1871
  6.2388   6.2458   6.2617   6.2693   6.2840   6.3030   6.3054   6.3678
  6.4216   6.4432   6.4504   6.4952   6.5393   6.5485   6.5567   6.6042
  6.6554   6.6614   6.6715   6.6975   6.7464   6.8012   6.8302   6.8394
  6.8599   6.8919   6.9787   7.1190   7.1366   7.2042   7.2069   7.2152
  7.2343   7.3102   7.3199   7.3313   7.3636   7.3640   7.4065   7.4136
  7.4780   7.4860   7.4887   7.5251   7.5519   7.6157   7.7073   7.7734
  7.7892   7.7962   7.8952   7.9179   7.9431   7.9626   8.0928   8.1341
  8.5104   8.9223   9.0229   9.3633   9.4710   9.6493  10.0683  10.6284
 11.1638  11.4721  11.7819  11.9578  12.1314  12.1915  12.4159  12.5606
 12.6712  12.9341  13.0240  13.1549  13.3090  13.3864  13.7713  13.8469
 13.9013  14.0231  14.0421  14.6337  15.2015
 --------------------------------------------------------------
 
          Ground-State Mulliken Net Atomic Charges

     Atom                 Charge (a.u.)
  ----------------------------------------
      1 C                    -0.188772
      2 C                    -0.253737
      3 S                    -0.021383
      4 C                    -0.016145
      5 H                     0.196315
      6 C                    -0.028680
      7 C                     0.242234
      8 C                     0.241845
      9 C                    -0.045843
     10 C                    -0.025228
     11 O                    -0.333241
     12 O                    -0.339169
     13 C                    -0.085973
     14 H                     0.123130
     15 H                     0.091186
     16 H                     0.093713
     17 C                    -0.087233
     18 H                     0.125431
     19 H                     0.095307
     20 H                     0.089269
     21 C                    -0.227845
     22 S                    -0.019963
     23 C                    -0.005279
     24 H                     0.201047
     25 H                     0.206436
     26 C                    -0.016969
     27 S                     0.101304
     28 C                    -0.194296
     29 C                    -0.016962
     30 C                    -0.102573
     31 S                     0.012694
     32 C                    -0.155165
     33 C                     0.397925
     34 F                    -0.207272
     35 C                     0.443952
     36 O                    -0.460812
     37 O                    -0.300606
     38 C                    -0.058599
     39 H                     0.121322
     40 H                     0.095198
     41 H                     0.095020
     42 H                     0.218421
  ----------------------------------------
  Sum of atomic charges =     0.000000

 -----------------------------------------------------------------
                    Cartesian Multipole Moments
 -----------------------------------------------------------------
    Charge (ESU x 10^10)
                 0.0000
    Dipole Moment (Debye)
         X       0.6273      Y       0.9423      Z       3.1999
       Tot       3.3942
    Quadrupole Moments (Debye-Ang)
        XX    -185.3709     XY       1.4526     YY    -159.7234
        XZ     -13.3814     YZ      -7.9670     ZZ    -197.5538
    Octopole Moments (Debye-Ang^2)
       XXX    -132.7888    XXY     304.3878    XYY     -23.7143
       YYY     850.9196    XXZ     178.9842    XYZ      49.8511
       YYZ     119.9369    XZZ     -30.0048    YZZ     432.4323
       ZZZ     593.0158
    Hexadecapole Moments (Debye-Ang^3)
      XXXX   -1418.6132   XXXY      81.8907   XXYY   -3792.8447
      XYYY      68.1551   YYYY  -19150.2770   XXXZ     767.9975
      XXYZ     417.9972   XYYZ     -86.8504   YYYZ     916.8091
      XXZZ   -1227.4375   XYZZ     130.5440   YYZZ   -4205.8903
      XZZZ     710.4971   YZZZ     643.6715   ZZZZ   -6669.3780
 -----------------------------------------------------------------
 Total job time:  282.70s(wall), 9205.34s(cpu) 
 Tue Jan  9 01:25:14 2024

        *************************************************************
        *                                                           *
        *  Thank you very much for using Q-Chem.  Have a nice day.  *
        *                                                           *
        *************************************************************


0 sent ACK to 0 
now end server 0 ... 
cleanup process ... done
remove work dirs ./qchem32453.0 -- ./qchem32453.0
rm -rf ./qchem32453.0
rm -rf ./qchem32453
