You are running Q-Chem version: 5.4.0

#
# job setting
#
local host:  exp-6-14
current dir: /home/rramji/project-csd799/aromodel/ptb7fout-qchem/rotation-run
input file:  Dimethoxy_Benzodithiophene_Phi_0_Theta_140_Methylcarbonyl_3_Fluoro_Thienothiophene.qcin
output file: 
nprocs     : 1
nthreads   : 64
#
# qchem installation setting
#
QC:          /cm/shared/apps/spack/cpu/opt/spack/linux-centos8-zen2/gcc-10.2.0/qchem-5.4-akfmr7b3t57bfs6qan3padb2wnb2i7cl
QCAUX:       /cm/shared/apps/spack/cpu/opt/spack/linux-centos8-zen2/gcc-10.2.0/qchem-5.4-akfmr7b3t57bfs6qan3padb2wnb2i7cl/qcaux
QCPROG:      /cm/shared/apps/spack/cpu/opt/spack/linux-centos8-zen2/gcc-10.2.0/qchem-5.4-akfmr7b3t57bfs6qan3padb2wnb2i7cl/exe/qcprog.exe
QCPROG_S:    /cm/shared/apps/spack/cpu/opt/spack/linux-centos8-zen2/gcc-10.2.0/qchem-5.4-akfmr7b3t57bfs6qan3padb2wnb2i7cl/exe/qcprog.exe_s
PARALLEL:    -DPARALLEL
QCMPI:       mpich
#
# qchem directory setting
#
qcrun:       qchem1680083
QCSCRATCH:   .
QCLOCALSCR:  
QCTMPDIR:    .
QCFILEPREF:  ./qchem1680083
QCSAVEDIR:   
workdirs:    ./qchem1680083
workdir0:    ./qchem1680083
partmpdirs =  
#
# parallel setting
#
QCRSH:           ssh
QCMPI:           mpich
QCMPIRUN:        /cm/shared/apps/spack/cpu/opt/spack/linux-centos8-zen2/gcc-10.2.0/qchem-5.4-akfmr7b3t57bfs6qan3padb2wnb2i7cl/bin/mpi/mpirun_qchem
QCMACHINEFILE:   ./qchem1680083/hostfile
exp-6-14

#
# env setting
#
exported envs:   QC QCAUX QCSCRATCH QCRUNNAME QCFILEPREF QCPROG QCPROG_S GUIFILE

Running Job 1 of 1 Dimethoxy_Benzodithiophene_Phi_0_Theta_140_Methylcarbonyl_3_Fluoro_Thienothiophene.qcin
qchem Dimethoxy_Benzodithiophene_Phi_0_Theta_140_Methylcarbonyl_3_Fluoro_Thienothiophene.qcin_1680083.0 ./qchem1680083/ 1
/cm/shared/apps/spack/cpu/opt/spack/linux-centos8-zen2/gcc-10.2.0/qchem-5.4-akfmr7b3t57bfs6qan3padb2wnb2i7cl/bin/mpi/mpirun_qchem -machinefile ./qchem1680083/hostfile -np 1 /cm/shared/apps/spack/cpu/opt/spack/linux-centos8-zen2/gcc-10.2.0/qchem-5.4-akfmr7b3t57bfs6qan3padb2wnb2i7cl/exe/qcprog.exe Dimethoxy_Benzodithiophene_Phi_0_Theta_140_Methylcarbonyl_3_Fluoro_Thienothiophene.qcin_1680083.0 ./qchem1680083/

Process 0 of 1 is on exp-6-14 - thread support 0
initial socket setup ...start
initial socket setup ...done 
now start server 0 ... 
                  Welcome to Q-Chem
     A Quantum Leap Into The Future Of Chemistry


 Q-Chem 5.4, Q-Chem, Inc., Pleasanton, CA (2021)

 License issued to: University of California, San Diego (site)

 E. Epifanovsky,  A. T. B. Gilbert,  Xintian Feng,  Joonho Lee,  Yuezhi Mao,  
 N. Mardirossian,  P. Pokhilko,  A. White,  M. Wormit,  M. P. Coons,  
 A. L. Dempwolff,  Zhengting Gan,  D. Hait,  P. R. Horn,  L. D. Jacobson,  
 I. Kaliman,  J. Kussmann,  A. W. Lange,  Ka Un Lao,  D. S. Levine,  Jie Liu,  
 S. C. McKenzie,  A. F. Morrison,  K. Nanda,  F. Plasser,  D. R. Rehn,  
 M. L. Vidal,  Zhi-Qiang You,  Ying Zhu,  B. Alam,  B. Albrecht,  
 A. Aldossary,  E. Alguire,  J. H. Andersen,  D. Barton,  K. Begam,  A. Behn,  
 Y. A. Bernard,  E. J. Berquist,  H. Burton,  A. Carreras,  K. Carter-Fenk,  
 R. Chakraborty,  A. D. Chien,  K. D. Closser,  V. Cofer-Shabica,  
 S. Dasgupta,  Jia Deng,  M. de Wergifosse,  M. Diedenhofen,  Hainam Do,  
 S. Ehlert,  Po-Tung Fang,  S. Fatehi,  Qingguo Feng,  J. Gayvert,  
 Qinghui Ge,  G. Gidofalvi,  M. Goldey,  J. Gomes,  C. Gonzalez-Espinoza,  
 S. Gulania,  A. Gunina,  M. W. D. Hanson-Heine,  P. H. P. Harbach,  
 A. W. Hauser,  M. F. Herbst,  M. Hernandez Vera,  M. Hodecker,  
 Z. C. Holden,  S. Houck,  Xunkun Huang,  Kerwin Hui,  B. C. Huynh,  
 M. Ivanov,  Hyunjun Ji,  Hanjie Jiang,  B. Kaduk,  S. Kaehler,  
 K. Khistyaev,  Jaehoon Kim,  P. Klunzinger,  Z. Koczor-Benda,  
 Joong Hoon Koh,  D. Kosenkov,  L. Koulias,  T. Kowalczyk,  C. M. Krauter,  
 K. Kue,  A. Kunitsa,  T. Kus,  A. Landau,  K. V. Lawler,  D. Lefrancois,  
 S. Lehtola,  Rain Li,  Yi-Pei Li,  Jiashu Liang,  M. Liebenthal,  
 Hung-Hsuan Lin,  You-Sheng Lin,  Fenglai Liu,  Kuan-Yu Liu,  
 M. Loipersberger,  A. Luenser,  A. Manjanath,  P. Manohar,  E. Mansoor,  
 S. F. Manzer,  Shan-Ping Mao,  A. V. Marenich,  T. Markovich,  S. Mason,  
 S. A. Maurer,  P. F. McLaughlin,  M. F. S. J. Menger,  J.-M. Mewes,  
 S. A. Mewes,  P. Morgante,  J. W. Mullinax,  T. S. Nguyen-Beck,  
 K. J. Oosterbaan,  G. Paran,  Alexander C. Paul,  Suranjan K. Paul,  
 F. Pavosevic,  Zheng Pei,  S. Prager,  E. I. Proynov,  E. Ramos,  B. Rana,  
 A. E. Rask,  A. Rettig,  R. M. Richard,  F. Rob,  E. Rossomme,  T. Scheele,  
 M. Scheurer,  M. Schneider,  N. Sergueev,  S. M. Sharada,  W. Skomorowski,  
 D. W. Small,  C. J. Stein,  Yu-Chuan Su,  E. J. Sundstrom,  Zhen Tao,  
 J. Thirman,  T. Tsuchimochi,  N. M. Tubman,  S. P. Veccham,  O. Vydrov,  
 J. Wenzel,  J. Witte,  A. Yamada,  Kun Yao,  S. Yeganeh,  S. R. Yost,  
 A. Zech,  Igor Ying Zhang,  Xing Zhang,  Yu Zhang,  D. Zuev,  
 A. Aspuru-Guzik,  A. T. Bell,  N. A. Besley,  K. B. Bravaya,  B. R. Brooks,  
 D. Casanova,  Jeng-Da Chai,  S. Coriani,  C. J. Cramer,  
 A. E. DePrince, III,  R. A. DiStasio Jr.,  A. Dreuw,  B. D. Dunietz,  
 T. R. Furlani,  W. A. Goddard III,  S. Grimme,  S. Hammes-Schiffer,  
 T. Head-Gordon,  W. J. Hehre,  Chao-Ping Hsu,  T.-C. Jagau,  Yousung Jung,  
 A. Klamt,  Jing Kong,  D. S. Lambrecht,  WanZhen Liang,  N. J. Mayhall,  
 C. W. McCurdy,  J. B. Neaton,  C. Ochsenfeld,  J. A. Parkhill,  R. Peverati,  
 V. A. Rassolov,  Yihan Shao,  L. V. Slipchenko,  T. Stauch,  R. P. Steele,  
 J. E. Subotnik,  A. J. W. Thom,  A. Tkatchenko,  D. G. Truhlar,  
 T. Van Voorhis,  T. A. Wesolowski,  K. B. Whaley,  H. L. Woodcock III,  
 P. M. Zimmerman,  S. Faraji,  P. M. W. Gill,  M. Head-Gordon,  
 J. M. Herbert,  A. I. Krylov

 Contributors to earlier versions of Q-Chem not listed above: 
 R. D. Adamson,  B. Austin,  R. Baer,  J. Baker,  G. J. O. Beran,  
 K. Brandhorst,  S. T. Brown,  E. F. C. Byrd,  A. K. Chakraborty,  
 G. K. L. Chan,  Chun-Min Chang,  Yunqing Chen,  C.-L. Cheng,  
 Siu Hung Chien,  D. M. Chipman,  D. L. Crittenden,  H. Dachsel,  
 R. J. Doerksen,  A. D. Dutoi,  R. G. Edgar,  J. Fosso-Tande,  
 L. Fusti-Molnar,  D. Ghosh,  A. Ghysels,  A. Golubeva-Zadorozhnaya,  
 J. Gonthier,  M. S. Gordon,  S. R. Gwaltney,  G. Hawkins,  J. E. Herr,  
 A. Heyden,  S. Hirata,  E. G. Hohenstein,  G. Kedziora,  F. J. Keil,  
 C. Kelley,  Jihan Kim,  R. A. King,  R. Z. Khaliullin,  P. P. Korambath,  
 W. Kurlancheek,  A. Laurent,  A. M. Lee,  M. S. Lee,  S. V. Levchenko,  
 Ching Yeh Lin,  D. Liotard,  E. Livshits,  R. C. Lochan,  I. Lotan,  
 L. A. Martinez-Martinez,  P. E. Maslen,  N. Nair,  D. P. O'Neill,  
 D. Neuhauser,  E. Neuscamman,  C. M. Oana,  R. Olivares-Amaya,  R. Olson,  
 T. M. Perrine,  B. Peters,  P. A. Pieniazek,  A. Prociuk,  Y. M. Rhee,  
 J. Ritchie,  M. A. Rohrdanz,  E. Rosta,  N. J. Russ,  H. F. Schaefer III,  
 M. W. Schmidt,  N. E. Schultz,  S. Sharma,  N. Shenvi,  C. D. Sherrill,  
 A. C. Simmonett,  A. Sodt,  T. Stein,  D. Stuck,  K. S. Thanthiriwatte,  
 V. Vanovschi,  L. Vogt,  Tao Wang,  A. Warshel,  M. A. Watson,  
 C. F. Williams,  Q. Wu,  X. Xu,  Jun Yang,  W. Zhang,  Yan Zhao

 Please cite Q-Chem as follows:
 Y. Shao et al., Mol. Phys. 113, 184-215 (2015)
 DOI: 10.1080/00268976.2014.952696

 Q-Chem 5.4.0 for Intel X86 EM64T Linux

 Parts of Q-Chem use Armadillo 9.800.1 (Horizon Scraper).
 http://arma.sourceforge.net/

 Q-Chem begins on Mon Jan  8 20:04:43 2024  

 Host: 
0

     Scratch files written to ./qchem1680083//
 May1621 |scratch|qcdevops|jenkins|workspace|build_RNUM    
 Parallel job on  1  processors
 Processing $rem in /cm/shared/apps/spack/cpu/opt/spack/linux-centos8-zen2/gcc-10.2.0/qchem-5.4-akfmr7b3t57bfs6qan3padb2wnb2i7cl/config/preferences:
 Processing $rem in /home/rramji/.qchemrc:
 Symmetry turned off for PCM/SM12/SMD calculation
 Core orbitals will be frozen

 Checking the input file for inconsistencies... 	...done.

 Q-Chem warning in module forms1/BasisType.C, line 2236:

 You are not using the predefined 5D/6D in this basis set.


--------------------------------------------------------------
User input:
--------------------------------------------------------------
$molecule
0 1
C	-0.172904	-8.517702	-0.270358
C	0.524688	-7.641575	0.548363
S	-1.180599	-7.638634	-1.445750
C	0.282727	-6.264785	0.259951
H	1.203014	-7.966081	1.347559
C	-0.632972	-6.072714	-0.833868
C	-1.013580	-4.787049	-1.248701
C	0.845068	-5.162801	0.965673
C	0.460946	-3.874817	0.553357
C	-0.453541	-3.683952	-0.543470
O	1.714812	-5.499772	1.958276
O	-1.888193	-4.459055	-2.245053
C	-2.033848	-5.329063	-3.360989
H	-2.584788	-4.755694	-4.130667
H	-2.624118	-6.238095	-3.112380
H	-1.047748	-5.637262	-3.770895
C	2.013896	-4.572261	2.994272
H	2.570853	-5.139743	3.763700
H	1.090625	-4.153131	3.448815
H	2.657717	-3.739531	2.636780
C	-0.694943	-2.306654	-0.827659
S	0.999993	-2.306501	1.174750
C	0.000000	-1.435185	0.000000
H	-1.370385	-1.978138	-1.627541
H	-0.177122	-9.614033	-0.269836
C	0.000000	0.000000	0.000000
S	0.000474	0.904764	1.507541
C	-0.000295	2.477305	0.718873
C	0.000752	0.904447	-1.067872
C	-0.001560	2.294593	-0.686410
S	0.003602	0.660872	-2.805516
C	-0.001928	2.412546	-3.054530
C	-0.004381	3.120854	-1.862551
F	-0.009185	4.457503	-1.819088
C	-0.000038	2.860570	-4.456084
O	0.007944	2.090724	-5.406510
O	-0.007501	4.211092	-4.569225
C	-0.002278	4.706177	-5.916207
H	-0.009265	5.807207	-5.833064
H	-0.895381	4.352875	-6.470168
H	0.901521	4.363301	-6.459293
H	-0.001708	3.401562	1.306486
$end

$rem
JOBTYPE		SP
EXCHANGE	HF
CORRELATION	pRIMP2
BASIS		cc-pvtz
METHOD		rimp2
AUX_BASIS	rimp2-cc-pvtz
SOLVENT_METHOD	PCM
PURECART	11111
SYMMETRY	false
MEM_TOTAL	110000
SCF_CONVERGENCE = 6
THRESH=10
GUI = 2
$end



$solvent
dielectric 4.90
$end
--------------------------------------------------------------
 ----------------------------------------------------------------
             Standard Nuclear Orientation (Angstroms)
    I     Atom           X                Y                Z
 ----------------------------------------------------------------
    1      C      -0.1729040000    -8.5177020000    -0.2703580000
    2      C       0.5246880000    -7.6415750000     0.5483630000
    3      S      -1.1805990000    -7.6386340000    -1.4457500000
    4      C       0.2827270000    -6.2647850000     0.2599510000
    5      H       1.2030140000    -7.9660810000     1.3475590000
    6      C      -0.6329720000    -6.0727140000    -0.8338680000
    7      C      -1.0135800000    -4.7870490000    -1.2487010000
    8      C       0.8450680000    -5.1628010000     0.9656730000
    9      C       0.4609460000    -3.8748170000     0.5533570000
   10      C      -0.4535410000    -3.6839520000    -0.5434700000
   11      O       1.7148120000    -5.4997720000     1.9582760000
   12      O      -1.8881930000    -4.4590550000    -2.2450530000
   13      C      -2.0338480000    -5.3290630000    -3.3609890000
   14      H      -2.5847880000    -4.7556940000    -4.1306670000
   15      H      -2.6241180000    -6.2380950000    -3.1123800000
   16      H      -1.0477480000    -5.6372620000    -3.7708950000
   17      C       2.0138960000    -4.5722610000     2.9942720000
   18      H       2.5708530000    -5.1397430000     3.7637000000
   19      H       1.0906250000    -4.1531310000     3.4488150000
   20      H       2.6577170000    -3.7395310000     2.6367800000
   21      C      -0.6949430000    -2.3066540000    -0.8276590000
   22      S       0.9999930000    -2.3065010000     1.1747500000
   23      C       0.0000000000    -1.4351850000     0.0000000000
   24      H      -1.3703850000    -1.9781380000    -1.6275410000
   25      H      -0.1771220000    -9.6140330000    -0.2698360000
   26      C       0.0000000000     0.0000000000     0.0000000000
   27      S       0.0004740000     0.9047640000     1.5075410000
   28      C      -0.0002950000     2.4773050000     0.7188730000
   29      C       0.0007520000     0.9044470000    -1.0678720000
   30      C      -0.0015600000     2.2945930000    -0.6864100000
   31      S       0.0036020000     0.6608720000    -2.8055160000
   32      C      -0.0019280000     2.4125460000    -3.0545300000
   33      C      -0.0043810000     3.1208540000    -1.8625510000
   34      F      -0.0091850000     4.4575030000    -1.8190880000
   35      C      -0.0000380000     2.8605700000    -4.4560840000
   36      O       0.0079440000     2.0907240000    -5.4065100000
   37      O      -0.0075010000     4.2110920000    -4.5692250000
   38      C      -0.0022780000     4.7061770000    -5.9162070000
   39      H      -0.0092650000     5.8072070000    -5.8330640000
   40      H      -0.8953810000     4.3528750000    -6.4701680000
   41      H       0.9015210000     4.3633010000    -6.4592930000
   42      H      -0.0017080000     3.4015620000     1.3064860000
 ----------------------------------------------------------------
 Nuclear Repulsion Energy =        3276.12770999 hartrees
 There are      119 alpha and      119 beta electrons
 Requested basis set is cc-pVTZ
 There are 376 shells and 1068 basis functions

 Total QAlloc Memory Limit 110000 MB
 Mega-Array Size       188 MB
 MEM_STATIC part       192 MB
 Discretize the solute cavity surface with Lebedev spheres
	Using 110 Lebedev grid points for each H atom
	Using 194 Lebedev grid points for other atoms
	Atomic van der Waals radii will be scaled by 1.20
 Remove points where switching function is < 1.0e-08
 Keep 2887 surface tesserae and discard 4169 interior tesserae
 Molecular Surface Area = 440.961 Angst**2
 Requested basis set is rimp2-cc-pVTZ
 There are 833 shells and 2903 basis functions
 A cutoff of  1.0D-10 yielded  30812 shell pairs
 There are    236818 function pairs (    307579 Cartesian)
 Smallest overlap matrix eigenvalue = 2.21E-05

 Scale SEOQF with 1.000000e-01/1.000000e-02/1.000000e-02

 Standard Electronic Orientation quadrupole field applied
 Nucleus-field energy     =     0.0000000238 hartrees
 Guess from superposition of atomic densities
 Warning:  Energy on first SCF cycle will be non-variational
 SAD guess density has 238.000000 electrons

 -----------------------------------------------------------------------
  General SCF calculation program by
  Eric Jon Sundstrom, Paul Horn, Yuezhi Mao, Dmitri Zuev, Alec White,
  David Stuck, Shaama M.S., Shane Yost, Joonho Lee, David Small,
  Daniel Levine, Susi Lehtola, Hugh Burton, Evgeny Epifanovsky,
  Bang C. Huynh
 -----------------------------------------------------------------------
 Hartree-Fock
 using 64 threads for integral computing
 -------------------------------------------------------
 OpenMP Integral computing Module                
 Release: version 1.0, May 2013, Q-Chem Inc. Pittsburgh 
 -------------------------------------------------------
 A restricted SCF calculation will be
 performed using DIIS
 SCF converges when DIIS error is below 1.0e-06
 ---------------------------------------
  Cycle       Energy         DIIS error
 ---------------------------------------
    1   -2765.2135951092      1.75e-02  
    2   -2753.8839082855      1.56e-03  
    3   -2754.2226404776      8.61e-04  
    4   -2754.3038751999      2.56e-04  
    5   -2754.3155013365      6.94e-05  
    6   -2754.3165863700      2.37e-05  
    7   -2754.3168229103      1.14e-05  
    8   -2754.3169008975      4.27e-06  
    9   -2754.3169156735      1.70e-06  
   10   -2754.3169175145      7.23e-07  Convergence criterion met
 ---------------------------------------
 SCF time:   CPU 6397.15s  wall 252.00s 

************** Final PCM Free Energy Summary **************
 G_electrostatic  =      -0.01843057 hartree =     -11.56535771 kcal/mol
 G_cavitation     =       0.00000000 hartree =       0.00000000 kcal/mol
 G_dispersion     =       0.00000000 hartree =       0.00000000 kcal/mol
 G_repulsion      =       0.00000000 hartree =       0.00000000 kcal/mol
 --------------------------------------------------
 Non-electrostatic Free Energy =       0.00000000 hartree =       0.00000000 kcal/mol
 Total                         =      -0.01843057 hartree =     -11.56535771 kcal/mol
 --------------------------------------------------
 SCF Energy (H0 + V/2)                       =   -2754.31691751 
 Solute Internal Energy (H0)                 =   -2754.29848694 
 Total Free Energy (H0 + V/2 + non-elec)     =   -2754.31691751 hartree
                                             = -1728359.95187587 kcal/mol
***********************************************************

 SCF   energy in the final basis set =    -2754.3169175145
 Total energy in the final basis set =    -2754.3169175145


 --------------------------------------------------------------
  Generalized many-body perturbation theory program
  by Joonho Lee, Fazle Rob, Xintian Feng, Evgeny Epifanovsky

 No regularization used 
 (reg. param. = 0.0000e+00)
  (P|Q)^-1/2 Time:  CPU 280.21 s  wall 4.99 s

 In RI-MP2 calculation: 
 # of frozen core orbitals: 45

 Components of the RIMP2 correlation energy:
        aaaa    correlation energy =        -0.6695334635 a.u.
        abab    correlation energy =        -3.7117515930 a.u.
        bbbb    correlation energy =        -0.6695334635 a.u.
        non-Brillouin singles      =        -0.0000000000 a.u.
        total same-spin energy     =        -1.3390669271 a.u.
        total opposite-spin energy =        -3.7117515930 a.u.

 Total  RIMP2   correlation energy =        -5.0508185201 a.u.
        RIMP2         total energy =     -2759.3677360346 a.u.

 RI-MP2 Energy Time:  CPU 2861.59 s  wall 47.48 s
 
 --------------------------------------------------------------
 
                    Orbital Energies (a.u.)
 --------------------------------------------------------------
 
 Alpha MOs
 -- Occupied --
-92.0155 -91.9975 -91.9912 -91.9865 -26.3428 -20.6146 -20.5930 -20.5912
-20.5610 -11.4091 -11.3818 -11.3200 -11.3180 -11.3088 -11.3008 -11.2993
-11.2972 -11.2957 -11.2887 -11.2877 -11.2869 -11.2856 -11.2848 -11.2843
-11.2799 -11.2617 -11.2592 -11.2569 -11.2501  -9.0140  -8.9975  -8.9916
 -8.9864  -6.6948  -6.6942  -6.6937  -6.6785  -6.6778  -6.6767  -6.6726
 -6.6719  -6.6710  -6.6674  -6.6668  -6.6659  -1.6599  -1.4670  -1.4170
 -1.4140  -1.3697  -1.2210  -1.1950  -1.1661  -1.1359  -1.0853  -1.0524
 -1.0413  -1.0227  -1.0021  -0.9883  -0.9632  -0.9600  -0.9506  -0.9390
 -0.8965  -0.8674  -0.8522  -0.8078  -0.7981  -0.7875  -0.7870  -0.7646
 -0.7551  -0.7343  -0.7248  -0.7093  -0.7020  -0.6851  -0.6834  -0.6804
 -0.6736  -0.6595  -0.6579  -0.6526  -0.6307  -0.6201  -0.6173  -0.6038
 -0.5975  -0.5852  -0.5782  -0.5702  -0.5662  -0.5595  -0.5548  -0.5506
 -0.5351  -0.5306  -0.5227  -0.5176  -0.5166  -0.5106  -0.5049  -0.4951
 -0.4880  -0.4796  -0.4764  -0.4738  -0.4696  -0.4679  -0.4615  -0.4186
 -0.3962  -0.3859  -0.3589  -0.3500  -0.3238  -0.2913  -0.2535
 -- Virtual --
  0.0296   0.0590   0.1113   0.1249   0.1354   0.1482   0.1544   0.1560
  0.1575   0.1592   0.1645   0.1717   0.1823   0.1874   0.1884   0.1955
  0.2019   0.2038   0.2151   0.2193   0.2205   0.2221   0.2251   0.2278
  0.2348   0.2372   0.2429   0.2494   0.2585   0.2628   0.2737   0.2759
  0.2972   0.2984   0.3250   0.3339   0.3365   0.3410   0.3445   0.3516
  0.3558   0.3589   0.3684   0.3740   0.3842   0.3848   0.3864   0.3883
  0.3901   0.3940   0.4021   0.4049   0.4084   0.4163   0.4204   0.4236
  0.4326   0.4380   0.4402   0.4460   0.4476   0.4503   0.4571   0.4577
  0.4624   0.4650   0.4705   0.4754   0.4764   0.4832   0.4887   0.4946
  0.4996   0.5010   0.5040   0.5074   0.5111   0.5155   0.5170   0.5207
  0.5231   0.5297   0.5319   0.5352   0.5419   0.5435   0.5493   0.5531
  0.5535   0.5538   0.5597   0.5622   0.5670   0.5682   0.5729   0.5804
  0.5865   0.5891   0.5917   0.5940   0.6007   0.6090   0.6127   0.6143
  0.6145   0.6179   0.6192   0.6215   0.6233   0.6240   0.6308   0.6328
  0.6377   0.6416   0.6465   0.6489   0.6529   0.6548   0.6602   0.6675
  0.6738   0.6778   0.6838   0.6867   0.6895   0.6979   0.7048   0.7098
  0.7128   0.7160   0.7186   0.7243   0.7330   0.7352   0.7446   0.7486
  0.7522   0.7579   0.7643   0.7693   0.7768   0.7820   0.7920   0.7993
  0.8067   0.8126   0.8171   0.8189   0.8218   0.8295   0.8412   0.8460
  0.8502   0.8586   0.8600   0.8621   0.8715   0.8737   0.8797   0.8860
  0.8888   0.8944   0.8980   0.9057   0.9117   0.9192   0.9211   0.9246
  0.9310   0.9346   0.9416   0.9478   0.9504   0.9532   0.9635   0.9675
  0.9721   0.9759   0.9793   0.9843   0.9914   0.9978   1.0001   1.0043
  1.0101   1.0151   1.0187   1.0196   1.0251   1.0291   1.0370   1.0392
  1.0430   1.0535   1.0591   1.0635   1.0688   1.0743   1.0790   1.0804
  1.0846   1.0870   1.0900   1.0959   1.1013   1.1036   1.1084   1.1126
  1.1158   1.1233   1.1267   1.1311   1.1388   1.1439   1.1510   1.1568
  1.1604   1.1677   1.1781   1.1803   1.1822   1.1854   1.1877   1.1940
  1.2051   1.2092   1.2123   1.2152   1.2192   1.2206   1.2264   1.2327
  1.2370   1.2420   1.2447   1.2494   1.2581   1.2629   1.2649   1.2717
  1.2737   1.2790   1.2877   1.2917   1.3019   1.3068   1.3101   1.3183
  1.3253   1.3307   1.3368   1.3448   1.3519   1.3571   1.3650   1.3700
  1.3754   1.3804   1.3916   1.3986   1.4041   1.4175   1.4204   1.4226
  1.4266   1.4392   1.4489   1.4602   1.4664   1.4746   1.4813   1.4911
  1.4977   1.5015   1.5036   1.5096   1.5113   1.5151   1.5237   1.5299
  1.5323   1.5335   1.5391   1.5399   1.5435   1.5519   1.5595   1.5674
  1.5751   1.5779   1.5857   1.5907   1.6106   1.6118   1.6234   1.6281
  1.6420   1.6476   1.6513   1.6561   1.6608   1.6638   1.6725   1.6810
  1.6899   1.6952   1.7030   1.7106   1.7172   1.7234   1.7362   1.7475
  1.7610   1.7732   1.7782   1.7880   1.7960   1.7999   1.8104   1.8165
  1.8190   1.8284   1.8372   1.8453   1.8478   1.8615   1.8677   1.8738
  1.8819   1.8933   1.8988   1.9036   1.9140   1.9181   1.9264   1.9325
  1.9414   1.9473   1.9556   1.9560   1.9633   1.9793   1.9845   1.9875
  1.9893   2.0034   2.0075   2.0169   2.0262   2.0357   2.0438   2.0559
  2.0665   2.0776   2.0861   2.0971   2.1052   2.1109   2.1299   2.1415
  2.1585   2.1603   2.1631   2.1710   2.1782   2.1884   2.1911   2.1919
  2.1989   2.2028   2.2064   2.2153   2.2206   2.2315   2.2360   2.2384
  2.2479   2.2523   2.2622   2.2638   2.2654   2.2750   2.2874   2.2953
  2.3028   2.3075   2.3174   2.3211   2.3347   2.3418   2.3514   2.3560
  2.3698   2.3726   2.3819   2.3850   2.3982   2.4053   2.4163   2.4273
  2.4322   2.4343   2.4425   2.4550   2.4593   2.4715   2.4798   2.4857
  2.4968   2.5043   2.5054   2.5241   2.5296   2.5405   2.5509   2.5556
  2.5608   2.5700   2.5834   2.6012   2.6048   2.6158   2.6177   2.6249
  2.6274   2.6297   2.6385   2.6419   2.6458   2.6502   2.6581   2.6681
  2.6806   2.6867   2.6901   2.6964   2.7010   2.7025   2.7077   2.7111
  2.7176   2.7241   2.7368   2.7407   2.7470   2.7508   2.7530   2.7685
  2.7827   2.7864   2.7886   2.7976   2.8041   2.8099   2.8173   2.8179
  2.8238   2.8305   2.8399   2.8417   2.8483   2.8560   2.8634   2.8695
  2.8759   2.8808   2.8854   2.8899   2.9014   2.9055   2.9209   2.9317
  2.9390   2.9481   2.9512   2.9639   2.9706   2.9785   2.9823   2.9881
  2.9995   3.0087   3.0126   3.0134   3.0235   3.0248   3.0327   3.0374
  3.0468   3.0534   3.0605   3.0637   3.0799   3.0898   3.0954   3.1006
  3.1029   3.1035   3.1066   3.1124   3.1179   3.1275   3.1327   3.1461
  3.1479   3.1526   3.1563   3.1633   3.1641   3.1690   3.1767   3.1805
  3.1909   3.1949   3.2015   3.2090   3.2149   3.2176   3.2249   3.2307
  3.2353   3.2417   3.2469   3.2519   3.2541   3.2603   3.2626   3.2659
  3.2723   3.2763   3.2777   3.2871   3.2929   3.2970   3.3006   3.3041
  3.3088   3.3175   3.3244   3.3268   3.3297   3.3347   3.3409   3.3447
  3.3462   3.3513   3.3558   3.3638   3.3642   3.3696   3.3724   3.3740
  3.3779   3.3868   3.3889   3.3919   3.3976   3.4036   3.4081   3.4140
  3.4207   3.4234   3.4316   3.4379   3.4403   3.4467   3.4483   3.4527
  3.4562   3.4640   3.4665   3.4691   3.4760   3.4783   3.4821   3.4911
  3.4936   3.5042   3.5067   3.5150   3.5211   3.5269   3.5320   3.5349
  3.5371   3.5482   3.5503   3.5542   3.5557   3.5615   3.5718   3.5789
  3.5805   3.5862   3.5894   3.5932   3.5987   3.6010   3.6048   3.6135
  3.6212   3.6265   3.6295   3.6360   3.6390   3.6425   3.6483   3.6572
  3.6604   3.6694   3.6716   3.6791   3.6845   3.6854   3.6959   3.6969
  3.7019   3.7060   3.7071   3.7091   3.7222   3.7257   3.7327   3.7411
  3.7434   3.7505   3.7520   3.7591   3.7649   3.7724   3.7790   3.7864
  3.7903   3.7915   3.8006   3.8069   3.8097   3.8142   3.8181   3.8211
  3.8246   3.8330   3.8391   3.8473   3.8562   3.8618   3.8685   3.8756
  3.8788   3.8804   3.8862   3.8881   3.9006   3.9062   3.9145   3.9230
  3.9294   3.9348   3.9399   3.9508   3.9575   3.9671   3.9707   3.9809
  3.9916   3.9921   4.0008   4.0108   4.0139   4.0184   4.0232   4.0410
  4.0483   4.0615   4.0661   4.0686   4.0752   4.0794   4.0837   4.0977
  4.1039   4.1049   4.1150   4.1263   4.1358   4.1363   4.1449   4.1497
  4.1574   4.1647   4.1668   4.1722   4.1737   4.1817   4.1892   4.1982
  4.2073   4.2155   4.2238   4.2343   4.2391   4.2547   4.2563   4.2645
  4.2758   4.2844   4.2951   4.3086   4.3182   4.3245   4.3418   4.3422
  4.3576   4.3587   4.3680   4.3702   4.3779   4.3850   4.3878   4.4020
  4.4079   4.4100   4.4121   4.4257   4.4308   4.4335   4.4374   4.4454
  4.4537   4.4678   4.4866   4.4909   4.4980   4.5048   4.5161   4.5278
  4.5355   4.5405   4.5436   4.5506   4.5571   4.5750   4.5793   4.5890
  4.5983   4.6012   4.6125   4.6202   4.6276   4.6473   4.6488   4.6559
  4.6629   4.6701   4.6736   4.6847   4.6938   4.7128   4.7239   4.7314
  4.7380   4.7438   4.7577   4.7706   4.7808   4.7921   4.7998   4.8190
  4.8273   4.8371   4.8511   4.8589   4.8680   4.8867   4.9028   4.9253
  4.9318   4.9363   4.9532   4.9573   4.9662   4.9730   4.9900   5.0003
  5.0089   5.0091   5.0105   5.0216   5.0355   5.0543   5.0624   5.0727
  5.0871   5.1058   5.1221   5.1274   5.1493   5.1645   5.1729   5.1987
  5.2084   5.2247   5.2468   5.2513   5.2535   5.2579   5.2606   5.2870
  5.2967   5.3118   5.3199   5.3305   5.3334   5.3510   5.3536   5.3615
  5.3747   5.3967   5.3994   5.4132   5.4264   5.4342   5.4403   5.4634
  5.4851   5.4855   5.5062   5.5093   5.5144   5.5312   5.5444   5.5706
  5.5755   5.5848   5.5857   5.6055   5.6219   5.6224   5.6529   5.6662
  5.7172   5.7404   5.7540   5.7719   5.8077   5.8159   5.8427   5.8543
  5.8726   5.8823   5.9131   5.9294   5.9633   5.9853   6.0009   6.0424
  6.0545   6.0879   6.1084   6.1507   6.1643   6.1706   6.1776   6.1863
  6.2406   6.2451   6.2616   6.2694   6.2826   6.3006   6.3082   6.3661
  6.4244   6.4429   6.4504   6.4929   6.5393   6.5478   6.5568   6.6039
  6.6551   6.6614   6.6714   6.6982   6.7465   6.8007   6.8302   6.8410
  6.8597   6.8917   6.9784   7.1195   7.1368   7.2042   7.2074   7.2152
  7.2340   7.3101   7.3195   7.3317   7.3636   7.3641   7.4066   7.4135
  7.4784   7.4860   7.4887   7.5254   7.5522   7.6162   7.7120   7.7734
  7.7892   7.7960   7.8952   7.9180   7.9428   7.9621   8.0985   8.1347
  8.5156   8.9223   9.0211   9.3633   9.4702   9.6475  10.0694  10.6664
 11.1677  11.4976  11.7853  11.9704  12.1297  12.2000  12.4173  12.5642
 12.6834  12.9366  13.0532  13.1663  13.2983  13.3866  13.7726  13.8473
 13.9010  14.0215  14.0408  14.6004  15.2008
 --------------------------------------------------------------
 
          Ground-State Mulliken Net Atomic Charges

     Atom                 Charge (a.u.)
  ----------------------------------------
      1 C                    -0.188484
      2 C                    -0.254187
      3 S                    -0.021206
      4 C                    -0.014913
      5 H                     0.196326
      6 C                    -0.027053
      7 C                     0.242654
      8 C                     0.240168
      9 C                    -0.045340
     10 C                    -0.026376
     11 O                    -0.332938
     12 O                    -0.339876
     13 C                    -0.086042
     14 H                     0.123272
     15 H                     0.091086
     16 H                     0.094198
     17 C                    -0.087515
     18 H                     0.125350
     19 H                     0.094524
     20 H                     0.089994
     21 C                    -0.236071
     22 S                    -0.018000
     23 C                    -0.020025
     24 H                     0.200534
     25 H                     0.206441
     26 C                    -0.008438
     27 S                     0.093160
     28 C                    -0.188901
     29 C                     0.014259
     30 C                    -0.112702
     31 S                     0.006939
     32 C                    -0.152888
     33 C                     0.394798
     34 F                    -0.207149
     35 C                     0.444390
     36 O                    -0.460955
     37 O                    -0.300499
     38 C                    -0.058659
     39 H                     0.121370
     40 H                     0.095052
     41 H                     0.095086
     42 H                     0.218614
  ----------------------------------------
  Sum of atomic charges =     0.000000

 -----------------------------------------------------------------
                    Cartesian Multipole Moments
 -----------------------------------------------------------------
    Charge (ESU x 10^10)
                 0.0000
    Dipole Moment (Debye)
         X       0.2256      Y       0.9099      Z       2.9174
       Tot       3.0643
    Quadrupole Moments (Debye-Ang)
        XX    -197.1350     XY      -0.8626     YY    -159.0505
        XZ      10.2433     YZ      -6.2831     ZZ    -186.3210
    Octopole Moments (Debye-Ang^2)
       XXX      28.9374    XXY     355.8237    XYY       8.3542
       YYY     843.6178    XXZ     191.2278    XYZ     -50.9503
       YYZ     112.2978    XZZ       5.1563    YZZ     374.4071
       ZZZ     595.6915
    Hexadecapole Moments (Debye-Ang^3)
      XXXX   -1120.2396   XXXY    -316.0878   XXYY   -4021.1411
      XYYY    -275.4372   YYYY  -19229.2028   XXXZ    -546.3413
      XXYZ     379.1689   XYYZ      82.5663   YYYZ     889.0790
      XXZZ   -1253.8295   XYZZ     -77.4984   YYZZ   -3983.0157
      XZZZ    -437.1529   YZZZ     625.4785   ZZZZ   -6813.2781
 -----------------------------------------------------------------
 Total job time:  307.92s(wall), 9422.44s(cpu) 
 Mon Jan  8 20:09:51 2024

        *************************************************************
        *                                                           *
        *  Thank you very much for using Q-Chem.  Have a nice day.  *
        *                                                           *
        *************************************************************


0 sent ACK to 0 
now end server 0 ... 
cleanup process ... done
remove work dirs ./qchem1680083.0 -- ./qchem1680083.0
rm -rf ./qchem1680083.0
rm -rf ./qchem1680083
