You are running Q-Chem version: 5.4.0

#
# job setting
#
local host:  exp-8-43
current dir: /home/rramji/project-csd799/aromodel/ptb7fout-qchem/rotation-run
input file:  Dimethoxy_Benzodithiophene_Phi_20_Theta_150_Methylcarbonyl_3_Fluoro_Thienothiophene.qcin
output file: 
nprocs     : 1
nthreads   : 64
#
# qchem installation setting
#
QC:          /cm/shared/apps/spack/cpu/opt/spack/linux-centos8-zen2/gcc-10.2.0/qchem-5.4-akfmr7b3t57bfs6qan3padb2wnb2i7cl
QCAUX:       /cm/shared/apps/spack/cpu/opt/spack/linux-centos8-zen2/gcc-10.2.0/qchem-5.4-akfmr7b3t57bfs6qan3padb2wnb2i7cl/qcaux
QCPROG:      /cm/shared/apps/spack/cpu/opt/spack/linux-centos8-zen2/gcc-10.2.0/qchem-5.4-akfmr7b3t57bfs6qan3padb2wnb2i7cl/exe/qcprog.exe
QCPROG_S:    /cm/shared/apps/spack/cpu/opt/spack/linux-centos8-zen2/gcc-10.2.0/qchem-5.4-akfmr7b3t57bfs6qan3padb2wnb2i7cl/exe/qcprog.exe_s
PARALLEL:    -DPARALLEL
QCMPI:       mpich
#
# qchem directory setting
#
qcrun:       qchem2228329
QCSCRATCH:   .
QCLOCALSCR:  
QCTMPDIR:    .
QCFILEPREF:  ./qchem2228329
QCSAVEDIR:   
workdirs:    ./qchem2228329
workdir0:    ./qchem2228329
partmpdirs =  
#
# parallel setting
#
QCRSH:           ssh
QCMPI:           mpich
QCMPIRUN:        /cm/shared/apps/spack/cpu/opt/spack/linux-centos8-zen2/gcc-10.2.0/qchem-5.4-akfmr7b3t57bfs6qan3padb2wnb2i7cl/bin/mpi/mpirun_qchem
QCMACHINEFILE:   ./qchem2228329/hostfile
exp-8-43

#
# env setting
#
exported envs:   QC QCAUX QCSCRATCH QCRUNNAME QCFILEPREF QCPROG QCPROG_S GUIFILE

Running Job 1 of 1 Dimethoxy_Benzodithiophene_Phi_20_Theta_150_Methylcarbonyl_3_Fluoro_Thienothiophene.qcin
qchem Dimethoxy_Benzodithiophene_Phi_20_Theta_150_Methylcarbonyl_3_Fluoro_Thienothiophene.qcin_2228329.0 ./qchem2228329/ 1
/cm/shared/apps/spack/cpu/opt/spack/linux-centos8-zen2/gcc-10.2.0/qchem-5.4-akfmr7b3t57bfs6qan3padb2wnb2i7cl/bin/mpi/mpirun_qchem -machinefile ./qchem2228329/hostfile -np 1 /cm/shared/apps/spack/cpu/opt/spack/linux-centos8-zen2/gcc-10.2.0/qchem-5.4-akfmr7b3t57bfs6qan3padb2wnb2i7cl/exe/qcprog.exe Dimethoxy_Benzodithiophene_Phi_20_Theta_150_Methylcarbonyl_3_Fluoro_Thienothiophene.qcin_2228329.0 ./qchem2228329/

Process 0 of 1 is on exp-8-43 - thread support 0
initial socket setup ...start
initial socket setup ...done 
now start server 0 ... 
                  Welcome to Q-Chem
     A Quantum Leap Into The Future Of Chemistry


 Q-Chem 5.4, Q-Chem, Inc., Pleasanton, CA (2021)

 License issued to: University of California, San Diego (site)

 E. Epifanovsky,  A. T. B. Gilbert,  Xintian Feng,  Joonho Lee,  Yuezhi Mao,  
 N. Mardirossian,  P. Pokhilko,  A. White,  M. Wormit,  M. P. Coons,  
 A. L. Dempwolff,  Zhengting Gan,  D. Hait,  P. R. Horn,  L. D. Jacobson,  
 I. Kaliman,  J. Kussmann,  A. W. Lange,  Ka Un Lao,  D. S. Levine,  Jie Liu,  
 S. C. McKenzie,  A. F. Morrison,  K. Nanda,  F. Plasser,  D. R. Rehn,  
 M. L. Vidal,  Zhi-Qiang You,  Ying Zhu,  B. Alam,  B. Albrecht,  
 A. Aldossary,  E. Alguire,  J. H. Andersen,  D. Barton,  K. Begam,  A. Behn,  
 Y. A. Bernard,  E. J. Berquist,  H. Burton,  A. Carreras,  K. Carter-Fenk,  
 R. Chakraborty,  A. D. Chien,  K. D. Closser,  V. Cofer-Shabica,  
 S. Dasgupta,  Jia Deng,  M. de Wergifosse,  M. Diedenhofen,  Hainam Do,  
 S. Ehlert,  Po-Tung Fang,  S. Fatehi,  Qingguo Feng,  J. Gayvert,  
 Qinghui Ge,  G. Gidofalvi,  M. Goldey,  J. Gomes,  C. Gonzalez-Espinoza,  
 S. Gulania,  A. Gunina,  M. W. D. Hanson-Heine,  P. H. P. Harbach,  
 A. W. Hauser,  M. F. Herbst,  M. Hernandez Vera,  M. Hodecker,  
 Z. C. Holden,  S. Houck,  Xunkun Huang,  Kerwin Hui,  B. C. Huynh,  
 M. Ivanov,  Hyunjun Ji,  Hanjie Jiang,  B. Kaduk,  S. Kaehler,  
 K. Khistyaev,  Jaehoon Kim,  P. Klunzinger,  Z. Koczor-Benda,  
 Joong Hoon Koh,  D. Kosenkov,  L. Koulias,  T. Kowalczyk,  C. M. Krauter,  
 K. Kue,  A. Kunitsa,  T. Kus,  A. Landau,  K. V. Lawler,  D. Lefrancois,  
 S. Lehtola,  Rain Li,  Yi-Pei Li,  Jiashu Liang,  M. Liebenthal,  
 Hung-Hsuan Lin,  You-Sheng Lin,  Fenglai Liu,  Kuan-Yu Liu,  
 M. Loipersberger,  A. Luenser,  A. Manjanath,  P. Manohar,  E. Mansoor,  
 S. F. Manzer,  Shan-Ping Mao,  A. V. Marenich,  T. Markovich,  S. Mason,  
 S. A. Maurer,  P. F. McLaughlin,  M. F. S. J. Menger,  J.-M. Mewes,  
 S. A. Mewes,  P. Morgante,  J. W. Mullinax,  T. S. Nguyen-Beck,  
 K. J. Oosterbaan,  G. Paran,  Alexander C. Paul,  Suranjan K. Paul,  
 F. Pavosevic,  Zheng Pei,  S. Prager,  E. I. Proynov,  E. Ramos,  B. Rana,  
 A. E. Rask,  A. Rettig,  R. M. Richard,  F. Rob,  E. Rossomme,  T. Scheele,  
 M. Scheurer,  M. Schneider,  N. Sergueev,  S. M. Sharada,  W. Skomorowski,  
 D. W. Small,  C. J. Stein,  Yu-Chuan Su,  E. J. Sundstrom,  Zhen Tao,  
 J. Thirman,  T. Tsuchimochi,  N. M. Tubman,  S. P. Veccham,  O. Vydrov,  
 J. Wenzel,  J. Witte,  A. Yamada,  Kun Yao,  S. Yeganeh,  S. R. Yost,  
 A. Zech,  Igor Ying Zhang,  Xing Zhang,  Yu Zhang,  D. Zuev,  
 A. Aspuru-Guzik,  A. T. Bell,  N. A. Besley,  K. B. Bravaya,  B. R. Brooks,  
 D. Casanova,  Jeng-Da Chai,  S. Coriani,  C. J. Cramer,  
 A. E. DePrince, III,  R. A. DiStasio Jr.,  A. Dreuw,  B. D. Dunietz,  
 T. R. Furlani,  W. A. Goddard III,  S. Grimme,  S. Hammes-Schiffer,  
 T. Head-Gordon,  W. J. Hehre,  Chao-Ping Hsu,  T.-C. Jagau,  Yousung Jung,  
 A. Klamt,  Jing Kong,  D. S. Lambrecht,  WanZhen Liang,  N. J. Mayhall,  
 C. W. McCurdy,  J. B. Neaton,  C. Ochsenfeld,  J. A. Parkhill,  R. Peverati,  
 V. A. Rassolov,  Yihan Shao,  L. V. Slipchenko,  T. Stauch,  R. P. Steele,  
 J. E. Subotnik,  A. J. W. Thom,  A. Tkatchenko,  D. G. Truhlar,  
 T. Van Voorhis,  T. A. Wesolowski,  K. B. Whaley,  H. L. Woodcock III,  
 P. M. Zimmerman,  S. Faraji,  P. M. W. Gill,  M. Head-Gordon,  
 J. M. Herbert,  A. I. Krylov

 Contributors to earlier versions of Q-Chem not listed above: 
 R. D. Adamson,  B. Austin,  R. Baer,  J. Baker,  G. J. O. Beran,  
 K. Brandhorst,  S. T. Brown,  E. F. C. Byrd,  A. K. Chakraborty,  
 G. K. L. Chan,  Chun-Min Chang,  Yunqing Chen,  C.-L. Cheng,  
 Siu Hung Chien,  D. M. Chipman,  D. L. Crittenden,  H. Dachsel,  
 R. J. Doerksen,  A. D. Dutoi,  R. G. Edgar,  J. Fosso-Tande,  
 L. Fusti-Molnar,  D. Ghosh,  A. Ghysels,  A. Golubeva-Zadorozhnaya,  
 J. Gonthier,  M. S. Gordon,  S. R. Gwaltney,  G. Hawkins,  J. E. Herr,  
 A. Heyden,  S. Hirata,  E. G. Hohenstein,  G. Kedziora,  F. J. Keil,  
 C. Kelley,  Jihan Kim,  R. A. King,  R. Z. Khaliullin,  P. P. Korambath,  
 W. Kurlancheek,  A. Laurent,  A. M. Lee,  M. S. Lee,  S. V. Levchenko,  
 Ching Yeh Lin,  D. Liotard,  E. Livshits,  R. C. Lochan,  I. Lotan,  
 L. A. Martinez-Martinez,  P. E. Maslen,  N. Nair,  D. P. O'Neill,  
 D. Neuhauser,  E. Neuscamman,  C. M. Oana,  R. Olivares-Amaya,  R. Olson,  
 T. M. Perrine,  B. Peters,  P. A. Pieniazek,  A. Prociuk,  Y. M. Rhee,  
 J. Ritchie,  M. A. Rohrdanz,  E. Rosta,  N. J. Russ,  H. F. Schaefer III,  
 M. W. Schmidt,  N. E. Schultz,  S. Sharma,  N. Shenvi,  C. D. Sherrill,  
 A. C. Simmonett,  A. Sodt,  T. Stein,  D. Stuck,  K. S. Thanthiriwatte,  
 V. Vanovschi,  L. Vogt,  Tao Wang,  A. Warshel,  M. A. Watson,  
 C. F. Williams,  Q. Wu,  X. Xu,  Jun Yang,  W. Zhang,  Yan Zhao

 Please cite Q-Chem as follows:
 Y. Shao et al., Mol. Phys. 113, 184-215 (2015)
 DOI: 10.1080/00268976.2014.952696

 Q-Chem 5.4.0 for Intel X86 EM64T Linux

 Parts of Q-Chem use Armadillo 9.800.1 (Horizon Scraper).
 http://arma.sourceforge.net/

 Q-Chem begins on Mon Jan  8 20:03:43 2024  

 Host: 
0

     Scratch files written to ./qchem2228329//
 May1621 |scratch|qcdevops|jenkins|workspace|build_RNUM    
 Parallel job on  1  processors
 Processing $rem in /cm/shared/apps/spack/cpu/opt/spack/linux-centos8-zen2/gcc-10.2.0/qchem-5.4-akfmr7b3t57bfs6qan3padb2wnb2i7cl/config/preferences:
 Processing $rem in /home/rramji/.qchemrc:
 Symmetry turned off for PCM/SM12/SMD calculation
 Core orbitals will be frozen

 Checking the input file for inconsistencies... 	...done.

 Q-Chem warning in module forms1/BasisType.C, line 2236:

 You are not using the predefined 5D/6D in this basis set.


--------------------------------------------------------------
User input:
--------------------------------------------------------------
$molecule
0 1
C	-0.123330	-8.517702	-0.296276
C	0.421494	-7.641575	0.631143
S	-0.911611	-7.638634	-1.628795
C	0.233291	-6.264785	0.305097
H	0.950737	-7.966081	1.535988
C	-0.478557	-6.072714	-0.931114
C	-0.781346	-4.787049	-1.405737
C	0.664542	-5.162801	1.097747
C	0.357854	-3.874817	0.624993
C	-0.352278	-3.683952	-0.613970
O	1.348709	-5.499772	2.226300
O	-1.469658	-4.459055	-2.538827
C	-1.419319	-5.329063	-3.663102
H	-1.828237	-4.755694	-4.516756
H	-2.043793	-6.238095	-3.520769
H	-0.377021	-5.637262	-3.895546
C	1.463351	-4.572261	3.298492
H	1.878237	-5.139743	4.152945
H	0.475176	-4.153131	3.585804
H	2.159469	-3.739531	3.058230
C	-0.540664	-2.306654	-0.935761
S	0.780808	-2.306501	1.330550
C	-0.000000	-1.435185	-0.000000
H	-1.066946	-1.978138	-1.840780
H	-0.127575	-9.614033	-0.296494
C	0.000000	0.000000	0.000000
S	0.309893	0.850039	1.507541
C	0.847011	2.328006	0.718873
C	0.310046	0.849645	-1.067872
C	0.783331	2.156746	-0.686410
S	0.229416	0.619785	-2.805516
C	0.823328	2.267711	-3.054530
C	1.063278	2.934142	-1.862551
F	1.515925	4.191824	-1.819088
C	0.978337	2.688069	-4.456084
O	0.722535	1.961921	-5.406510
O	1.433229	3.959697	-4.569225
C	1.607467	4.423139	-5.916207
H	1.977475	5.460158	-5.833064
H	0.647388	4.396602	-6.470168
H	2.339490	3.791823	-6.459293
H	1.161798	3.197007	1.306486
$end

$rem
JOBTYPE		SP
EXCHANGE	HF
CORRELATION	pRIMP2
BASIS		cc-pvtz
METHOD		rimp2
AUX_BASIS	rimp2-cc-pvtz
SOLVENT_METHOD	PCM
PURECART	11111
SYMMETRY	false
MEM_TOTAL	110000
SCF_CONVERGENCE = 6
THRESH=10
GUI = 2
$end



$solvent
dielectric 4.90
$end
--------------------------------------------------------------
 ----------------------------------------------------------------
             Standard Nuclear Orientation (Angstroms)
    I     Atom           X                Y                Z
 ----------------------------------------------------------------
    1      C      -0.1233300000    -8.5177020000    -0.2962760000
    2      C       0.4214940000    -7.6415750000     0.6311430000
    3      S      -0.9116110000    -7.6386340000    -1.6287950000
    4      C       0.2332910000    -6.2647850000     0.3050970000
    5      H       0.9507370000    -7.9660810000     1.5359880000
    6      C      -0.4785570000    -6.0727140000    -0.9311140000
    7      C      -0.7813460000    -4.7870490000    -1.4057370000
    8      C       0.6645420000    -5.1628010000     1.0977470000
    9      C       0.3578540000    -3.8748170000     0.6249930000
   10      C      -0.3522780000    -3.6839520000    -0.6139700000
   11      O       1.3487090000    -5.4997720000     2.2263000000
   12      O      -1.4696580000    -4.4590550000    -2.5388270000
   13      C      -1.4193190000    -5.3290630000    -3.6631020000
   14      H      -1.8282370000    -4.7556940000    -4.5167560000
   15      H      -2.0437930000    -6.2380950000    -3.5207690000
   16      H      -0.3770210000    -5.6372620000    -3.8955460000
   17      C       1.4633510000    -4.5722610000     3.2984920000
   18      H       1.8782370000    -5.1397430000     4.1529450000
   19      H       0.4751760000    -4.1531310000     3.5858040000
   20      H       2.1594690000    -3.7395310000     3.0582300000
   21      C      -0.5406640000    -2.3066540000    -0.9357610000
   22      S       0.7808080000    -2.3065010000     1.3305500000
   23      C       0.0000000000    -1.4351850000     0.0000000000
   24      H      -1.0669460000    -1.9781380000    -1.8407800000
   25      H      -0.1275750000    -9.6140330000    -0.2964940000
   26      C       0.0000000000     0.0000000000     0.0000000000
   27      S       0.3098930000     0.8500390000     1.5075410000
   28      C       0.8470110000     2.3280060000     0.7188730000
   29      C       0.3100460000     0.8496450000    -1.0678720000
   30      C       0.7833310000     2.1567460000    -0.6864100000
   31      S       0.2294160000     0.6197850000    -2.8055160000
   32      C       0.8233280000     2.2677110000    -3.0545300000
   33      C       1.0632780000     2.9341420000    -1.8625510000
   34      F       1.5159250000     4.1918240000    -1.8190880000
   35      C       0.9783370000     2.6880690000    -4.4560840000
   36      O       0.7225350000     1.9619210000    -5.4065100000
   37      O       1.4332290000     3.9596970000    -4.5692250000
   38      C       1.6074670000     4.4231390000    -5.9162070000
   39      H       1.9774750000     5.4601580000    -5.8330640000
   40      H       0.6473880000     4.3966020000    -6.4701680000
   41      H       2.3394900000     3.7918230000    -6.4592930000
   42      H       1.1617980000     3.1970070000     1.3064860000
 ----------------------------------------------------------------
 Nuclear Repulsion Energy =        3287.16944252 hartrees
 There are      119 alpha and      119 beta electrons
 Requested basis set is cc-pVTZ
 There are 376 shells and 1068 basis functions

 Total QAlloc Memory Limit 110000 MB
 Mega-Array Size       188 MB
 MEM_STATIC part       192 MB
 Discretize the solute cavity surface with Lebedev spheres
	Using 110 Lebedev grid points for each H atom
	Using 194 Lebedev grid points for other atoms
	Atomic van der Waals radii will be scaled by 1.20
 Remove points where switching function is < 1.0e-08
 Keep 2892 surface tesserae and discard 4164 interior tesserae
 Molecular Surface Area = 438.183 Angst**2
 Requested basis set is rimp2-cc-pVTZ
 There are 833 shells and 2903 basis functions
 A cutoff of  1.0D-10 yielded  30947 shell pairs
 There are    237653 function pairs (    308576 Cartesian)
 Smallest overlap matrix eigenvalue = 2.20E-05

 Scale SEOQF with 1.000000e-01/1.000000e-02/1.000000e-02

 Standard Electronic Orientation quadrupole field applied
 Nucleus-field energy     =     0.0000000226 hartrees
 Guess from superposition of atomic densities
 Warning:  Energy on first SCF cycle will be non-variational
 SAD guess density has 238.000000 electrons

 -----------------------------------------------------------------------
  General SCF calculation program by
  Eric Jon Sundstrom, Paul Horn, Yuezhi Mao, Dmitri Zuev, Alec White,
  David Stuck, Shaama M.S., Shane Yost, Joonho Lee, David Small,
  Daniel Levine, Susi Lehtola, Hugh Burton, Evgeny Epifanovsky,
  Bang C. Huynh
 -----------------------------------------------------------------------
 Hartree-Fock
 using 64 threads for integral computing
 -------------------------------------------------------
 OpenMP Integral computing Module                
 Release: version 1.0, May 2013, Q-Chem Inc. Pittsburgh 
 -------------------------------------------------------
 A restricted SCF calculation will be
 performed using DIIS
 SCF converges when DIIS error is below 1.0e-06
 ---------------------------------------
  Cycle       Energy         DIIS error
 ---------------------------------------
    1   -2765.2343744909      1.75e-02  
    2   -2753.8754518491      1.56e-03  
    3   -2754.2148807568      8.62e-04  
    4   -2754.2965446029      2.56e-04  
    5   -2754.3081971002      6.93e-05  
    6   -2754.3092784892      2.37e-05  
    7   -2754.3095127468      1.14e-05  
    8   -2754.3095895906      4.23e-06  
    9   -2754.3096040726      1.69e-06  
   10   -2754.3096058605      7.13e-07  Convergence criterion met
 ---------------------------------------
 SCF time:   CPU 6145.57s  wall 247.00s 

************** Final PCM Free Energy Summary **************
 G_electrostatic  =      -0.01869882 hartree =     -11.73368392 kcal/mol
 G_cavitation     =       0.00000000 hartree =       0.00000000 kcal/mol
 G_dispersion     =       0.00000000 hartree =       0.00000000 kcal/mol
 G_repulsion      =       0.00000000 hartree =       0.00000000 kcal/mol
 --------------------------------------------------
 Non-electrostatic Free Energy =       0.00000000 hartree =       0.00000000 kcal/mol
 Total                         =      -0.01869882 hartree =     -11.73368392 kcal/mol
 --------------------------------------------------
 SCF Energy (H0 + V/2)                       =   -2754.30960586 
 Solute Internal Energy (H0)                 =   -2754.29090704 
 Total Free Energy (H0 + V/2 + non-elec)     =   -2754.30960586 hartree
                                             = -1728355.36374373 kcal/mol
***********************************************************

 SCF   energy in the final basis set =    -2754.3096058605
 Total energy in the final basis set =    -2754.3096058605


 --------------------------------------------------------------
  Generalized many-body perturbation theory program
  by Joonho Lee, Fazle Rob, Xintian Feng, Evgeny Epifanovsky

 No regularization used 
 (reg. param. = 0.0000e+00)
  (P|Q)^-1/2 Time:  CPU 211.27 s  wall 3.94 s

 In RI-MP2 calculation: 
 # of frozen core orbitals: 45

 Components of the RIMP2 correlation energy:
        aaaa    correlation energy =        -0.6701489309 a.u.
        abab    correlation energy =        -3.7132304897 a.u.
        bbbb    correlation energy =        -0.6701489309 a.u.
        non-Brillouin singles      =        -0.0000000000 a.u.
        total same-spin energy     =        -1.3402978619 a.u.
        total opposite-spin energy =        -3.7132304897 a.u.

 Total  RIMP2   correlation energy =        -5.0535283516 a.u.
        RIMP2         total energy =     -2759.3631342121 a.u.

 RI-MP2 Energy Time:  CPU 8058.25 s  wall 138.70 s
 
 --------------------------------------------------------------
 
                    Orbital Energies (a.u.)
 --------------------------------------------------------------
 
 Alpha MOs
 -- Occupied --
-92.0159 -92.0000 -91.9913 -91.9858 -26.3437 -20.6149 -20.5928 -20.5903
-20.5614 -11.4096 -11.3831 -11.3196 -11.3162 -11.3126 -11.3028 -11.2985
-11.2978 -11.2965 -11.2889 -11.2876 -11.2861 -11.2853 -11.2851 -11.2838
-11.2788 -11.2612 -11.2577 -11.2530 -11.2496  -9.0146  -8.9999  -8.9918
 -8.9857  -6.6954  -6.6948  -6.6943  -6.6809  -6.6802  -6.6791  -6.6727
 -6.6720  -6.6710  -6.6667  -6.6661  -6.6652  -1.6608  -1.4674  -1.4168
 -1.4131  -1.3701  -1.2231  -1.1943  -1.1659  -1.1371  -1.0851  -1.0516
 -1.0423  -1.0240  -1.0014  -0.9882  -0.9639  -0.9598  -0.9502  -0.9392
 -0.8961  -0.8685  -0.8514  -0.8088  -0.7982  -0.7876  -0.7861  -0.7640
 -0.7555  -0.7337  -0.7256  -0.7103  -0.7016  -0.6855  -0.6829  -0.6810
 -0.6739  -0.6591  -0.6584  -0.6520  -0.6303  -0.6195  -0.6168  -0.6030
 -0.5988  -0.5870  -0.5781  -0.5706  -0.5653  -0.5604  -0.5557  -0.5470
 -0.5354  -0.5307  -0.5220  -0.5180  -0.5167  -0.5114  -0.5050  -0.4950
 -0.4876  -0.4813  -0.4760  -0.4744  -0.4690  -0.4667  -0.4612  -0.4226
 -0.3962  -0.3842  -0.3595  -0.3495  -0.3253  -0.2910  -0.2513
 -- Virtual --
  0.0252   0.0617   0.1077   0.1253   0.1339   0.1479   0.1553   0.1561
  0.1582   0.1601   0.1644   0.1731   0.1824   0.1871   0.1884   0.1962
  0.2015   0.2059   0.2150   0.2197   0.2216   0.2222   0.2245   0.2273
  0.2359   0.2382   0.2439   0.2499   0.2609   0.2621   0.2738   0.2811
  0.2957   0.3054   0.3246   0.3314   0.3378   0.3418   0.3455   0.3507
  0.3534   0.3587   0.3680   0.3773   0.3834   0.3846   0.3865   0.3895
  0.3930   0.3945   0.3997   0.4070   0.4090   0.4149   0.4189   0.4250
  0.4309   0.4360   0.4399   0.4445   0.4479   0.4487   0.4538   0.4571
  0.4635   0.4655   0.4708   0.4742   0.4761   0.4853   0.4885   0.4937
  0.4977   0.5000   0.5028   0.5090   0.5123   0.5138   0.5173   0.5190
  0.5292   0.5298   0.5340   0.5362   0.5419   0.5463   0.5486   0.5513
  0.5546   0.5566   0.5588   0.5615   0.5674   0.5700   0.5734   0.5816
  0.5836   0.5879   0.5932   0.5985   0.6028   0.6068   0.6126   0.6134
  0.6164   0.6166   0.6175   0.6213   0.6230   0.6265   0.6327   0.6339
  0.6360   0.6417   0.6469   0.6519   0.6549   0.6566   0.6652   0.6672
  0.6755   0.6798   0.6818   0.6839   0.6896   0.6989   0.7038   0.7087
  0.7116   0.7192   0.7230   0.7235   0.7342   0.7366   0.7424   0.7482
  0.7531   0.7570   0.7649   0.7713   0.7792   0.7872   0.7925   0.7997
  0.8038   0.8050   0.8157   0.8192   0.8244   0.8286   0.8424   0.8497
  0.8516   0.8576   0.8613   0.8653   0.8690   0.8734   0.8781   0.8843
  0.8862   0.8953   0.8984   0.9073   0.9102   0.9174   0.9215   0.9248
  0.9292   0.9376   0.9384   0.9448   0.9512   0.9548   0.9630   0.9692
  0.9712   0.9760   0.9809   0.9848   0.9929   0.9970   1.0000   1.0003
  1.0043   1.0106   1.0169   1.0195   1.0241   1.0308   1.0392   1.0413
  1.0460   1.0484   1.0571   1.0626   1.0653   1.0729   1.0742   1.0807
  1.0826   1.0885   1.0936   1.0942   1.1012   1.1048   1.1081   1.1132
  1.1179   1.1192   1.1273   1.1339   1.1379   1.1484   1.1532   1.1542
  1.1676   1.1701   1.1719   1.1808   1.1821   1.1872   1.1888   1.1921
  1.1995   1.2038   1.2123   1.2128   1.2189   1.2203   1.2244   1.2320
  1.2340   1.2391   1.2435   1.2492   1.2552   1.2620   1.2656   1.2722
  1.2764   1.2856   1.2869   1.2886   1.2961   1.3054   1.3094   1.3153
  1.3232   1.3253   1.3347   1.3416   1.3476   1.3600   1.3620   1.3645
  1.3728   1.3808   1.3873   1.3911   1.4016   1.4077   1.4128   1.4226
  1.4274   1.4374   1.4426   1.4523   1.4646   1.4708   1.4831   1.4917
  1.4926   1.5013   1.5039   1.5088   1.5118   1.5144   1.5278   1.5294
  1.5325   1.5370   1.5390   1.5417   1.5454   1.5522   1.5596   1.5630
  1.5738   1.5792   1.5859   1.5914   1.6027   1.6104   1.6250   1.6298
  1.6392   1.6448   1.6489   1.6578   1.6608   1.6663   1.6717   1.6829
  1.6856   1.6955   1.7003   1.7107   1.7153   1.7277   1.7350   1.7478
  1.7594   1.7700   1.7720   1.7864   1.7913   1.8014   1.8094   1.8105
  1.8173   1.8281   1.8355   1.8442   1.8610   1.8637   1.8714   1.8750
  1.8776   1.8962   1.9081   1.9127   1.9148   1.9192   1.9268   1.9324
  1.9381   1.9444   1.9493   1.9570   1.9597   1.9744   1.9824   1.9905
  1.9965   1.9979   2.0041   2.0139   2.0220   2.0372   2.0493   2.0576
  2.0684   2.0843   2.0917   2.1011   2.1089   2.1188   2.1270   2.1462
  2.1531   2.1619   2.1657   2.1686   2.1776   2.1864   2.1902   2.1938
  2.1952   2.2000   2.2099   2.2166   2.2186   2.2311   2.2351   2.2409
  2.2453   2.2490   2.2530   2.2625   2.2695   2.2730   2.2836   2.2860
  2.3009   2.3055   2.3134   2.3173   2.3323   2.3460   2.3482   2.3523
  2.3621   2.3706   2.3814   2.3841   2.3972   2.4030   2.4195   2.4246
  2.4296   2.4349   2.4439   2.4562   2.4664   2.4687   2.4810   2.4871
  2.4949   2.5010   2.5087   2.5248   2.5374   2.5466   2.5513   2.5527
  2.5546   2.5743   2.5821   2.5949   2.5986   2.6119   2.6163   2.6214
  2.6226   2.6281   2.6367   2.6384   2.6418   2.6438   2.6636   2.6670
  2.6751   2.6815   2.6871   2.6924   2.6992   2.7053   2.7079   2.7122
  2.7194   2.7277   2.7313   2.7335   2.7461   2.7514   2.7640   2.7707
  2.7826   2.7864   2.7902   2.7948   2.7997   2.8096   2.8135   2.8169
  2.8351   2.8380   2.8426   2.8448   2.8500   2.8582   2.8660   2.8724
  2.8760   2.8786   2.8857   2.8887   2.8944   2.9118   2.9176   2.9398
  2.9492   2.9522   2.9569   2.9604   2.9712   2.9821   2.9838   2.9922
  3.0025   3.0107   3.0168   3.0220   3.0240   3.0312   3.0339   3.0384
  3.0495   3.0523   3.0578   3.0658   3.0810   3.0842   3.0939   3.0993
  3.1044   3.1055   3.1118   3.1146   3.1175   3.1260   3.1355   3.1411
  3.1461   3.1530   3.1534   3.1640   3.1641   3.1669   3.1804   3.1832
  3.1921   3.1936   3.2044   3.2116   3.2169   3.2202   3.2225   3.2291
  3.2313   3.2421   3.2482   3.2567   3.2582   3.2602   3.2648   3.2727
  3.2741   3.2775   3.2821   3.2867   3.2904   3.2972   3.3014   3.3069
  3.3173   3.3179   3.3230   3.3275   3.3337   3.3423   3.3466   3.3509
  3.3521   3.3552   3.3599   3.3651   3.3685   3.3690   3.3704   3.3776
  3.3812   3.3877   3.3909   3.3921   3.3987   3.4079   3.4120   3.4134
  3.4170   3.4229   3.4333   3.4407   3.4421   3.4480   3.4498   3.4544
  3.4548   3.4609   3.4659   3.4703   3.4735   3.4780   3.4797   3.4914
  3.4996   3.5091   3.5131   3.5172   3.5231   3.5284   3.5300   3.5327
  3.5405   3.5424   3.5523   3.5549   3.5593   3.5628   3.5725   3.5749
  3.5784   3.5865   3.5892   3.5965   3.6005   3.6039   3.6088   3.6159
  3.6218   3.6245   3.6330   3.6351   3.6427   3.6502   3.6538   3.6571
  3.6667   3.6692   3.6721   3.6801   3.6837   3.6925   3.6964   3.7008
  3.7050   3.7070   3.7081   3.7149   3.7198   3.7276   3.7310   3.7370
  3.7469   3.7514   3.7530   3.7580   3.7663   3.7760   3.7799   3.7880
  3.7923   3.7946   3.8026   3.8042   3.8083   3.8146   3.8200   3.8228
  3.8356   3.8387   3.8428   3.8486   3.8565   3.8622   3.8679   3.8718
  3.8768   3.8787   3.8863   3.8886   3.8930   3.9062   3.9145   3.9200
  3.9287   3.9325   3.9398   3.9486   3.9508   3.9623   3.9671   3.9739
  3.9829   3.9896   3.9928   4.0052   4.0137   4.0197   4.0321   4.0384
  4.0530   4.0565   4.0637   4.0683   4.0747   4.0759   4.0799   4.0918
  4.0973   4.1140   4.1167   4.1237   4.1354   4.1384   4.1448   4.1512
  4.1561   4.1642   4.1669   4.1712   4.1767   4.1838   4.1897   4.1957
  4.2067   4.2178   4.2247   4.2272   4.2390   4.2478   4.2577   4.2720
  4.2806   4.2882   4.2977   4.3114   4.3261   4.3274   4.3404   4.3420
  4.3587   4.3632   4.3671   4.3717   4.3781   4.3870   4.3882   4.4027
  4.4057   4.4086   4.4131   4.4275   4.4306   4.4325   4.4385   4.4435
  4.4584   4.4685   4.4821   4.4920   4.4947   4.5009   4.5069   4.5230
  4.5333   4.5423   4.5460   4.5524   4.5605   4.5669   4.5808   4.5833
  4.5990   4.6079   4.6146   4.6245   4.6267   4.6463   4.6499   4.6554
  4.6650   4.6700   4.6782   4.6895   4.6954   4.7140   4.7231   4.7286
  4.7383   4.7452   4.7515   4.7702   4.7796   4.7909   4.8018   4.8190
  4.8273   4.8346   4.8499   4.8583   4.8701   4.8811   4.8950   4.9061
  4.9291   4.9445   4.9519   4.9639   4.9673   4.9807   4.9943   4.9997
  5.0046   5.0090   5.0109   5.0267   5.0391   5.0535   5.0622   5.0712
  5.0889   5.1013   5.1179   5.1292   5.1565   5.1658   5.1744   5.1977
  5.2040   5.2232   5.2425   5.2513   5.2536   5.2583   5.2603   5.2826
  5.2961   5.3116   5.3132   5.3246   5.3322   5.3507   5.3557   5.3664
  5.3729   5.3984   5.3998   5.4089   5.4262   5.4328   5.4407   5.4641
  5.4850   5.4866   5.5034   5.5065   5.5141   5.5295   5.5455   5.5682
  5.5769   5.5822   5.5868   5.6064   5.6216   5.6258   5.6429   5.6638
  5.7160   5.7305   5.7532   5.7671   5.8075   5.8137   5.8325   5.8543
  5.8730   5.8818   5.9082   5.9291   5.9593   5.9669   5.9977   6.0418
  6.0537   6.0848   6.1151   6.1504   6.1578   6.1704   6.1783   6.1839
  6.2408   6.2500   6.2614   6.2711   6.2783   6.2845   6.3107   6.3511
  6.4230   6.4449   6.4500   6.4850   6.5392   6.5482   6.5579   6.6027
  6.6551   6.6614   6.6711   6.6986   6.7459   6.8008   6.8300   6.8401
  6.8594   6.8927   6.9776   7.1211   7.1364   7.2039   7.2057   7.2157
  7.2349   7.3098   7.3210   7.3317   7.3628   7.3635   7.4055   7.4132
  7.4787   7.4853   7.4886   7.5231   7.5506   7.6169   7.7089   7.7726
  7.7884   7.7965   7.8892   7.9184   7.9397   7.9594   8.0773   8.1352
  8.4523   8.9215   9.0171   9.3626   9.4746   9.6510  10.0809  10.6081
 11.1786  11.4561  11.7812  11.9788  12.1311  12.1728  12.4204  12.5687
 12.6811  12.9453  13.0444  13.1708  13.2962  13.3855  13.7719  13.8480
 13.9030  14.0204  14.0379  14.5700  15.2004
 --------------------------------------------------------------
 
          Ground-State Mulliken Net Atomic Charges

     Atom                 Charge (a.u.)
  ----------------------------------------
      1 C                    -0.190739
      2 C                    -0.254211
      3 S                    -0.022580
      4 C                    -0.016825
      5 H                     0.195971
      6 C                    -0.026319
      7 C                     0.239529
      8 C                     0.240716
      9 C                    -0.045812
     10 C                    -0.020646
     11 O                    -0.332866
     12 O                    -0.340576
     13 C                    -0.085865
     14 H                     0.123121
     15 H                     0.090887
     16 H                     0.093839
     17 C                    -0.088094
     18 H                     0.125550
     19 H                     0.094684
     20 H                     0.089590
     21 C                    -0.249061
     22 S                    -0.022714
     23 C                    -0.028598
     24 H                     0.196080
     25 H                     0.206069
     26 C                     0.000031
     27 S                     0.081137
     28 C                    -0.173830
     29 C                     0.030284
     30 C                    -0.112609
     31 S                     0.011443
     32 C                    -0.155112
     33 C                     0.396212
     34 F                    -0.206007
     35 C                     0.445949
     36 O                    -0.460686
     37 O                    -0.300913
     38 C                    -0.058392
     39 H                     0.121393
     40 H                     0.095139
     41 H                     0.095159
     42 H                     0.219673
  ----------------------------------------
  Sum of atomic charges =     0.000000

 -----------------------------------------------------------------
                    Cartesian Multipole Moments
 -----------------------------------------------------------------
    Charge (ESU x 10^10)
                 0.0000
    Dipole Moment (Debye)
         X       1.3456      Y       1.3528      Z       2.9804
       Tot       3.5388
    Quadrupole Moments (Debye-Ang)
        XX    -198.2754     XY       3.9997     YY    -162.8276
        XZ       4.3563     YZ      -6.4758     ZZ    -182.9468
    Octopole Moments (Debye-Ang^2)
       XXX    -169.5382    XXY     389.9804    XYY     -36.6055
       YYY     885.8210    XXZ     186.1669    XYZ     -55.1385
       YYZ     122.9822    XZZ     -26.7711    YZZ     366.9216
       ZZZ     597.4161
    Hexadecapole Moments (Debye-Ang^3)
      XXXX   -1162.0139   XXXY    -783.5699   XXYY   -4015.6965
      XYYY    -699.0734   YYYY  -19010.1564   XXXZ      50.9840
      XXYZ     283.7629   XYYZ     110.5923   YYYZ     797.7808
      XXZZ   -1292.1945   XYZZ     -47.2192   YYZZ   -3970.6759
      XZZZ       7.3678   YZZZ     519.5060   ZZZZ   -7083.7794
 -----------------------------------------------------------------
 Total job time:  956.37s(wall), 32252.47s(cpu) 
 Mon Jan  8 20:19:39 2024

        *************************************************************
        *                                                           *
        *  Thank you very much for using Q-Chem.  Have a nice day.  *
        *                                                           *
        *************************************************************


0 sent ACK to 0 
now end server 0 ... 
cleanup process ... done
remove work dirs ./qchem2228329.0 -- ./qchem2228329.0
rm -rf ./qchem2228329.0
rm -rf ./qchem2228329
