You are running Q-Chem version: 5.4.0

#
# job setting
#
local host:  exp-1-18
current dir: /home/rramji/project-csd799/aromodel/ptb7fout-qchem/rotation-run
input file:  Dimethoxy_Benzodithiophene_Phi_40_Theta_220_Methylcarbonyl_3_Fluoro_Thienothiophene.qcin
output file: 
nprocs     : 1
nthreads   : 64
#
# qchem installation setting
#
QC:          /cm/shared/apps/spack/cpu/opt/spack/linux-centos8-zen2/gcc-10.2.0/qchem-5.4-akfmr7b3t57bfs6qan3padb2wnb2i7cl
QCAUX:       /cm/shared/apps/spack/cpu/opt/spack/linux-centos8-zen2/gcc-10.2.0/qchem-5.4-akfmr7b3t57bfs6qan3padb2wnb2i7cl/qcaux
QCPROG:      /cm/shared/apps/spack/cpu/opt/spack/linux-centos8-zen2/gcc-10.2.0/qchem-5.4-akfmr7b3t57bfs6qan3padb2wnb2i7cl/exe/qcprog.exe
QCPROG_S:    /cm/shared/apps/spack/cpu/opt/spack/linux-centos8-zen2/gcc-10.2.0/qchem-5.4-akfmr7b3t57bfs6qan3padb2wnb2i7cl/exe/qcprog.exe_s
PARALLEL:    -DPARALLEL
QCMPI:       mpich
#
# qchem directory setting
#
qcrun:       qchem1959313
QCSCRATCH:   .
QCLOCALSCR:  
QCTMPDIR:    .
QCFILEPREF:  ./qchem1959313
QCSAVEDIR:   
workdirs:    ./qchem1959313
workdir0:    ./qchem1959313
partmpdirs =  
#
# parallel setting
#
QCRSH:           ssh
QCMPI:           mpich
QCMPIRUN:        /cm/shared/apps/spack/cpu/opt/spack/linux-centos8-zen2/gcc-10.2.0/qchem-5.4-akfmr7b3t57bfs6qan3padb2wnb2i7cl/bin/mpi/mpirun_qchem
QCMACHINEFILE:   ./qchem1959313/hostfile
exp-1-18

#
# env setting
#
exported envs:   QC QCAUX QCSCRATCH QCRUNNAME QCFILEPREF QCPROG QCPROG_S GUIFILE

Running Job 1 of 1 Dimethoxy_Benzodithiophene_Phi_40_Theta_220_Methylcarbonyl_3_Fluoro_Thienothiophene.qcin
qchem Dimethoxy_Benzodithiophene_Phi_40_Theta_220_Methylcarbonyl_3_Fluoro_Thienothiophene.qcin_1959313.0 ./qchem1959313/ 1
/cm/shared/apps/spack/cpu/opt/spack/linux-centos8-zen2/gcc-10.2.0/qchem-5.4-akfmr7b3t57bfs6qan3padb2wnb2i7cl/bin/mpi/mpirun_qchem -machinefile ./qchem1959313/hostfile -np 1 /cm/shared/apps/spack/cpu/opt/spack/linux-centos8-zen2/gcc-10.2.0/qchem-5.4-akfmr7b3t57bfs6qan3padb2wnb2i7cl/exe/qcprog.exe Dimethoxy_Benzodithiophene_Phi_40_Theta_220_Methylcarbonyl_3_Fluoro_Thienothiophene.qcin_1959313.0 ./qchem1959313/

Process 0 of 1 is on exp-1-18 - thread support 0
initial socket setup ...start
initial socket setup ...done 
now start server 0 ... 
                  Welcome to Q-Chem
     A Quantum Leap Into The Future Of Chemistry


 Q-Chem 5.4, Q-Chem, Inc., Pleasanton, CA (2021)

 License issued to: University of California, San Diego (site)

 E. Epifanovsky,  A. T. B. Gilbert,  Xintian Feng,  Joonho Lee,  Yuezhi Mao,  
 N. Mardirossian,  P. Pokhilko,  A. White,  M. Wormit,  M. P. Coons,  
 A. L. Dempwolff,  Zhengting Gan,  D. Hait,  P. R. Horn,  L. D. Jacobson,  
 I. Kaliman,  J. Kussmann,  A. W. Lange,  Ka Un Lao,  D. S. Levine,  Jie Liu,  
 S. C. McKenzie,  A. F. Morrison,  K. Nanda,  F. Plasser,  D. R. Rehn,  
 M. L. Vidal,  Zhi-Qiang You,  Ying Zhu,  B. Alam,  B. Albrecht,  
 A. Aldossary,  E. Alguire,  J. H. Andersen,  D. Barton,  K. Begam,  A. Behn,  
 Y. A. Bernard,  E. J. Berquist,  H. Burton,  A. Carreras,  K. Carter-Fenk,  
 R. Chakraborty,  A. D. Chien,  K. D. Closser,  V. Cofer-Shabica,  
 S. Dasgupta,  Jia Deng,  M. de Wergifosse,  M. Diedenhofen,  Hainam Do,  
 S. Ehlert,  Po-Tung Fang,  S. Fatehi,  Qingguo Feng,  J. Gayvert,  
 Qinghui Ge,  G. Gidofalvi,  M. Goldey,  J. Gomes,  C. Gonzalez-Espinoza,  
 S. Gulania,  A. Gunina,  M. W. D. Hanson-Heine,  P. H. P. Harbach,  
 A. W. Hauser,  M. F. Herbst,  M. Hernandez Vera,  M. Hodecker,  
 Z. C. Holden,  S. Houck,  Xunkun Huang,  Kerwin Hui,  B. C. Huynh,  
 M. Ivanov,  Hyunjun Ji,  Hanjie Jiang,  B. Kaduk,  S. Kaehler,  
 K. Khistyaev,  Jaehoon Kim,  P. Klunzinger,  Z. Koczor-Benda,  
 Joong Hoon Koh,  D. Kosenkov,  L. Koulias,  T. Kowalczyk,  C. M. Krauter,  
 K. Kue,  A. Kunitsa,  T. Kus,  A. Landau,  K. V. Lawler,  D. Lefrancois,  
 S. Lehtola,  Rain Li,  Yi-Pei Li,  Jiashu Liang,  M. Liebenthal,  
 Hung-Hsuan Lin,  You-Sheng Lin,  Fenglai Liu,  Kuan-Yu Liu,  
 M. Loipersberger,  A. Luenser,  A. Manjanath,  P. Manohar,  E. Mansoor,  
 S. F. Manzer,  Shan-Ping Mao,  A. V. Marenich,  T. Markovich,  S. Mason,  
 S. A. Maurer,  P. F. McLaughlin,  M. F. S. J. Menger,  J.-M. Mewes,  
 S. A. Mewes,  P. Morgante,  J. W. Mullinax,  T. S. Nguyen-Beck,  
 K. J. Oosterbaan,  G. Paran,  Alexander C. Paul,  Suranjan K. Paul,  
 F. Pavosevic,  Zheng Pei,  S. Prager,  E. I. Proynov,  E. Ramos,  B. Rana,  
 A. E. Rask,  A. Rettig,  R. M. Richard,  F. Rob,  E. Rossomme,  T. Scheele,  
 M. Scheurer,  M. Schneider,  N. Sergueev,  S. M. Sharada,  W. Skomorowski,  
 D. W. Small,  C. J. Stein,  Yu-Chuan Su,  E. J. Sundstrom,  Zhen Tao,  
 J. Thirman,  T. Tsuchimochi,  N. M. Tubman,  S. P. Veccham,  O. Vydrov,  
 J. Wenzel,  J. Witte,  A. Yamada,  Kun Yao,  S. Yeganeh,  S. R. Yost,  
 A. Zech,  Igor Ying Zhang,  Xing Zhang,  Yu Zhang,  D. Zuev,  
 A. Aspuru-Guzik,  A. T. Bell,  N. A. Besley,  K. B. Bravaya,  B. R. Brooks,  
 D. Casanova,  Jeng-Da Chai,  S. Coriani,  C. J. Cramer,  
 A. E. DePrince, III,  R. A. DiStasio Jr.,  A. Dreuw,  B. D. Dunietz,  
 T. R. Furlani,  W. A. Goddard III,  S. Grimme,  S. Hammes-Schiffer,  
 T. Head-Gordon,  W. J. Hehre,  Chao-Ping Hsu,  T.-C. Jagau,  Yousung Jung,  
 A. Klamt,  Jing Kong,  D. S. Lambrecht,  WanZhen Liang,  N. J. Mayhall,  
 C. W. McCurdy,  J. B. Neaton,  C. Ochsenfeld,  J. A. Parkhill,  R. Peverati,  
 V. A. Rassolov,  Yihan Shao,  L. V. Slipchenko,  T. Stauch,  R. P. Steele,  
 J. E. Subotnik,  A. J. W. Thom,  A. Tkatchenko,  D. G. Truhlar,  
 T. Van Voorhis,  T. A. Wesolowski,  K. B. Whaley,  H. L. Woodcock III,  
 P. M. Zimmerman,  S. Faraji,  P. M. W. Gill,  M. Head-Gordon,  
 J. M. Herbert,  A. I. Krylov

 Contributors to earlier versions of Q-Chem not listed above: 
 R. D. Adamson,  B. Austin,  R. Baer,  J. Baker,  G. J. O. Beran,  
 K. Brandhorst,  S. T. Brown,  E. F. C. Byrd,  A. K. Chakraborty,  
 G. K. L. Chan,  Chun-Min Chang,  Yunqing Chen,  C.-L. Cheng,  
 Siu Hung Chien,  D. M. Chipman,  D. L. Crittenden,  H. Dachsel,  
 R. J. Doerksen,  A. D. Dutoi,  R. G. Edgar,  J. Fosso-Tande,  
 L. Fusti-Molnar,  D. Ghosh,  A. Ghysels,  A. Golubeva-Zadorozhnaya,  
 J. Gonthier,  M. S. Gordon,  S. R. Gwaltney,  G. Hawkins,  J. E. Herr,  
 A. Heyden,  S. Hirata,  E. G. Hohenstein,  G. Kedziora,  F. J. Keil,  
 C. Kelley,  Jihan Kim,  R. A. King,  R. Z. Khaliullin,  P. P. Korambath,  
 W. Kurlancheek,  A. Laurent,  A. M. Lee,  M. S. Lee,  S. V. Levchenko,  
 Ching Yeh Lin,  D. Liotard,  E. Livshits,  R. C. Lochan,  I. Lotan,  
 L. A. Martinez-Martinez,  P. E. Maslen,  N. Nair,  D. P. O'Neill,  
 D. Neuhauser,  E. Neuscamman,  C. M. Oana,  R. Olivares-Amaya,  R. Olson,  
 T. M. Perrine,  B. Peters,  P. A. Pieniazek,  A. Prociuk,  Y. M. Rhee,  
 J. Ritchie,  M. A. Rohrdanz,  E. Rosta,  N. J. Russ,  H. F. Schaefer III,  
 M. W. Schmidt,  N. E. Schultz,  S. Sharma,  N. Shenvi,  C. D. Sherrill,  
 A. C. Simmonett,  A. Sodt,  T. Stein,  D. Stuck,  K. S. Thanthiriwatte,  
 V. Vanovschi,  L. Vogt,  Tao Wang,  A. Warshel,  M. A. Watson,  
 C. F. Williams,  Q. Wu,  X. Xu,  Jun Yang,  W. Zhang,  Yan Zhao

 Please cite Q-Chem as follows:
 Y. Shao et al., Mol. Phys. 113, 184-215 (2015)
 DOI: 10.1080/00268976.2014.952696

 Q-Chem 5.4.0 for Intel X86 EM64T Linux

 Parts of Q-Chem use Armadillo 9.800.1 (Horizon Scraper).
 http://arma.sourceforge.net/

 Q-Chem begins on Tue Jan  9 01:11:54 2024  

 Host: 
0

     Scratch files written to ./qchem1959313//
 May1621 |scratch|qcdevops|jenkins|workspace|build_RNUM    
 Parallel job on  1  processors
 Processing $rem in /cm/shared/apps/spack/cpu/opt/spack/linux-centos8-zen2/gcc-10.2.0/qchem-5.4-akfmr7b3t57bfs6qan3padb2wnb2i7cl/config/preferences:
 Processing $rem in /home/rramji/.qchemrc:
 Symmetry turned off for PCM/SM12/SMD calculation
 Core orbitals will be frozen

 Checking the input file for inconsistencies... 	...done.

 Q-Chem warning in module forms1/BasisType.C, line 2236:

 You are not using the predefined 5D/6D in this basis set.


--------------------------------------------------------------
User input:
--------------------------------------------------------------
$molecule
0 1
C	0.236226	-8.517702	-0.217225
C	-0.448921	-7.641575	0.611939
S	1.218777	-7.638634	-1.413715
C	-0.206907	-6.264785	0.323572
H	-1.118185	-7.966081	1.418739
C	0.711285	-6.072714	-0.768156
C	1.053725	-4.787049	-1.215016
C	-0.804258	-5.162801	0.999917
C	-0.464908	-3.874817	0.550033
C	0.456457	-3.683952	-0.541024
O	-1.630752	-5.499772	2.028811
O	1.883064	-4.459055	-2.249357
C	2.956754	-5.329063	-2.586579
H	3.619069	-4.755694	-3.262802
H	2.609423	-6.238095	-3.124711
H	3.531667	-5.637262	-1.686639
C	-2.599073	-4.572261	2.503251
H	-3.260097	-5.139743	3.185356
H	-3.207034	-4.153131	1.672937
H	-2.135214	-3.739531	3.075213
C	0.694410	-2.306654	-0.828107
S	-0.983256	-2.306501	1.188794
C	-0.000000	-1.435185	-0.000000
H	1.364851	-1.978138	-1.632185
H	0.234980	-9.614033	-0.221288
C	0.000000	0.000000	0.000000
S	0.581934	0.692785	1.507541
C	1.592155	1.897915	0.718873
C	0.581944	0.692363	-1.067872
C	1.473741	1.758764	-0.686410
S	0.427560	0.503942	-2.805516
C	1.549278	1.849357	-3.054530
C	2.002690	2.393529	-1.862551
F	2.858191	3.420549	-1.819088
C	1.838710	2.191348	-4.456084
O	1.349977	1.596481	-5.406510
O	2.701091	3.230705	-4.569225
C	3.023327	3.606605	-5.916207
H	3.725703	4.454534	-5.833064
H	2.112072	3.910035	-6.470168
H	3.495281	2.762996	-6.459293
H	2.185174	2.606846	1.306486
$end

$rem
JOBTYPE		SP
EXCHANGE	HF
CORRELATION	pRIMP2
BASIS		cc-pvtz
METHOD		rimp2
AUX_BASIS	rimp2-cc-pvtz
SOLVENT_METHOD	PCM
PURECART	11111
SYMMETRY	false
MEM_TOTAL	110000
SCF_CONVERGENCE = 6
THRESH=10
GUI = 2
$end



$solvent
dielectric 4.90
$end
--------------------------------------------------------------
 ----------------------------------------------------------------
             Standard Nuclear Orientation (Angstroms)
    I     Atom           X                Y                Z
 ----------------------------------------------------------------
    1      C       0.2362260000    -8.5177020000    -0.2172250000
    2      C      -0.4489210000    -7.6415750000     0.6119390000
    3      S       1.2187770000    -7.6386340000    -1.4137150000
    4      C      -0.2069070000    -6.2647850000     0.3235720000
    5      H      -1.1181850000    -7.9660810000     1.4187390000
    6      C       0.7112850000    -6.0727140000    -0.7681560000
    7      C       1.0537250000    -4.7870490000    -1.2150160000
    8      C      -0.8042580000    -5.1628010000     0.9999170000
    9      C      -0.4649080000    -3.8748170000     0.5500330000
   10      C       0.4564570000    -3.6839520000    -0.5410240000
   11      O      -1.6307520000    -5.4997720000     2.0288110000
   12      O       1.8830640000    -4.4590550000    -2.2493570000
   13      C       2.9567540000    -5.3290630000    -2.5865790000
   14      H       3.6190690000    -4.7556940000    -3.2628020000
   15      H       2.6094230000    -6.2380950000    -3.1247110000
   16      H       3.5316670000    -5.6372620000    -1.6866390000
   17      C      -2.5990730000    -4.5722610000     2.5032510000
   18      H      -3.2600970000    -5.1397430000     3.1853560000
   19      H      -3.2070340000    -4.1531310000     1.6729370000
   20      H      -2.1352140000    -3.7395310000     3.0752130000
   21      C       0.6944100000    -2.3066540000    -0.8281070000
   22      S      -0.9832560000    -2.3065010000     1.1887940000
   23      C       0.0000000000    -1.4351850000     0.0000000000
   24      H       1.3648510000    -1.9781380000    -1.6321850000
   25      H       0.2349800000    -9.6140330000    -0.2212880000
   26      C       0.0000000000     0.0000000000     0.0000000000
   27      S       0.5819340000     0.6927850000     1.5075410000
   28      C       1.5921550000     1.8979150000     0.7188730000
   29      C       0.5819440000     0.6923630000    -1.0678720000
   30      C       1.4737410000     1.7587640000    -0.6864100000
   31      S       0.4275600000     0.5039420000    -2.8055160000
   32      C       1.5492780000     1.8493570000    -3.0545300000
   33      C       2.0026900000     2.3935290000    -1.8625510000
   34      F       2.8581910000     3.4205490000    -1.8190880000
   35      C       1.8387100000     2.1913480000    -4.4560840000
   36      O       1.3499770000     1.5964810000    -5.4065100000
   37      O       2.7010910000     3.2307050000    -4.5692250000
   38      C       3.0233270000     3.6066050000    -5.9162070000
   39      H       3.7257030000     4.4545340000    -5.8330640000
   40      H       2.1120720000     3.9100350000    -6.4701680000
   41      H       3.4952810000     2.7629960000    -6.4592930000
   42      H       2.1851740000     2.6068460000     1.3064860000
 ----------------------------------------------------------------
 Nuclear Repulsion Energy =        3311.55513892 hartrees
 There are      119 alpha and      119 beta electrons
 Requested basis set is cc-pVTZ
 There are 376 shells and 1068 basis functions

 Total QAlloc Memory Limit 110000 MB
 Mega-Array Size       188 MB
 MEM_STATIC part       192 MB
 Discretize the solute cavity surface with Lebedev spheres
	Using 110 Lebedev grid points for each H atom
	Using 194 Lebedev grid points for other atoms
	Atomic van der Waals radii will be scaled by 1.20
 Remove points where switching function is < 1.0e-08
 Keep 2863 surface tesserae and discard 4193 interior tesserae
 Molecular Surface Area = 437.687 Angst**2
 Requested basis set is rimp2-cc-pVTZ
 There are 833 shells and 2903 basis functions
 A cutoff of  1.0D-10 yielded  31517 shell pairs
 There are    241343 function pairs (    313115 Cartesian)
 Smallest overlap matrix eigenvalue = 2.15E-05

 Scale SEOQF with 1.000000e-01/1.000000e-02/1.000000e-02

 Standard Electronic Orientation quadrupole field applied
 Nucleus-field energy     =     0.0000000366 hartrees
 Guess from superposition of atomic densities
 Warning:  Energy on first SCF cycle will be non-variational
 SAD guess density has 238.000000 electrons

 -----------------------------------------------------------------------
  General SCF calculation program by
  Eric Jon Sundstrom, Paul Horn, Yuezhi Mao, Dmitri Zuev, Alec White,
  David Stuck, Shaama M.S., Shane Yost, Joonho Lee, David Small,
  Daniel Levine, Susi Lehtola, Hugh Burton, Evgeny Epifanovsky,
  Bang C. Huynh
 -----------------------------------------------------------------------
 Hartree-Fock
 using 64 threads for integral computing
 -------------------------------------------------------
 OpenMP Integral computing Module                
 Release: version 1.0, May 2013, Q-Chem Inc. Pittsburgh 
 -------------------------------------------------------
 A restricted SCF calculation will be
 performed using DIIS
 SCF converges when DIIS error is below 1.0e-06
 ---------------------------------------
  Cycle       Energy         DIIS error
 ---------------------------------------
    1   -2765.2613281926      1.75e-02  
    2   -2753.8540570705      1.56e-03  
    3   -2754.1937003811      8.63e-04  
    4   -2754.2754515728      2.56e-04  
    5   -2754.2870909036      6.95e-05  
    6   -2754.2881772358      2.40e-05  
    7   -2754.2884130615      1.14e-05  
    8   -2754.2884905804      4.35e-06  
    9   -2754.2885049894      1.72e-06  
   10   -2754.2885068542      8.30e-07  Convergence criterion met
 ---------------------------------------
 SCF time:   CPU 5972.45s  wall 225.00s 

************** Final PCM Free Energy Summary **************
 G_electrostatic  =      -0.01922897 hartree =     -12.06636008 kcal/mol
 G_cavitation     =       0.00000000 hartree =       0.00000000 kcal/mol
 G_dispersion     =       0.00000000 hartree =       0.00000000 kcal/mol
 G_repulsion      =       0.00000000 hartree =       0.00000000 kcal/mol
 --------------------------------------------------
 Non-electrostatic Free Energy =       0.00000000 hartree =       0.00000000 kcal/mol
 Total                         =      -0.01922897 hartree =     -12.06636008 kcal/mol
 --------------------------------------------------
 SCF Energy (H0 + V/2)                       =   -2754.28850685 
 Solute Internal Energy (H0)                 =   -2754.26927789 
 Total Free Energy (H0 + V/2 + non-elec)     =   -2754.28850685 hartree
                                             = -1728342.12391746 kcal/mol
***********************************************************

 SCF   energy in the final basis set =    -2754.2885068542
 Total energy in the final basis set =    -2754.2885068542


 --------------------------------------------------------------
  Generalized many-body perturbation theory program
  by Joonho Lee, Fazle Rob, Xintian Feng, Evgeny Epifanovsky

 No regularization used 
 (reg. param. = 0.0000e+00)
  (P|Q)^-1/2 Time:  CPU 280.68 s  wall 4.90 s

 In RI-MP2 calculation: 
 # of frozen core orbitals: 45

 Components of the RIMP2 correlation energy:
        aaaa    correlation energy =        -0.6708494138 a.u.
        abab    correlation energy =        -3.7158849820 a.u.
        bbbb    correlation energy =        -0.6708494138 a.u.
        non-Brillouin singles      =        -0.0000000000 a.u.
        total same-spin energy     =        -1.3416988276 a.u.
        total opposite-spin energy =        -3.7158849820 a.u.

 Total  RIMP2   correlation energy =        -5.0575838097 a.u.
        RIMP2         total energy =     -2759.3460906639 a.u.

 RI-MP2 Energy Time:  CPU 2712.13 s  wall 46.78 s
 
 --------------------------------------------------------------
 
                    Orbital Energies (a.u.)
 --------------------------------------------------------------
 
 Alpha MOs
 -- Occupied --
-92.0150 -92.0026 -91.9855 -91.9849 -26.3444 -20.6152 -20.5916 -20.5892
-20.5617 -11.4100 -11.3840 -11.3217 -11.3180 -11.3143 -11.3091 -11.2981
-11.2950 -11.2891 -11.2872 -11.2868 -11.2865 -11.2848 -11.2829 -11.2826
-11.2775 -11.2591 -11.2559 -11.2488 -11.2481  -9.0139  -9.0024  -8.9863
 -8.9848  -6.6946  -6.6939  -6.6935  -6.6834  -6.6826  -6.6816  -6.6673
 -6.6666  -6.6658  -6.6657  -6.6652  -6.6643  -1.6615  -1.4677  -1.4156
 -1.4121  -1.3704  -1.2265  -1.1922  -1.1646  -1.1380  -1.0846  -1.0500
 -1.0436  -1.0248  -0.9991  -0.9872  -0.9638  -0.9589  -0.9493  -0.9396
 -0.8943  -0.8695  -0.8476  -0.8094  -0.7978  -0.7875  -0.7847  -0.7630
 -0.7556  -0.7323  -0.7264  -0.7113  -0.7008  -0.6857  -0.6817  -0.6812
 -0.6743  -0.6588  -0.6580  -0.6512  -0.6293  -0.6186  -0.6163  -0.6058
 -0.5998  -0.5828  -0.5756  -0.5704  -0.5650  -0.5613  -0.5557  -0.5473
 -0.5316  -0.5293  -0.5227  -0.5157  -0.5144  -0.5074  -0.5068  -0.4953
 -0.4868  -0.4822  -0.4759  -0.4739  -0.4685  -0.4649  -0.4587  -0.4170
 -0.3931  -0.3844  -0.3579  -0.3512  -0.3245  -0.2912  -0.2509
 -- Virtual --
  0.0265   0.0584   0.0976   0.1245   0.1350   0.1504   0.1519   0.1552
  0.1563   0.1588   0.1614   0.1693   0.1827   0.1849   0.1919   0.1953
  0.2032   0.2047   0.2147   0.2164   0.2221   0.2224   0.2247   0.2276
  0.2328   0.2389   0.2467   0.2496   0.2542   0.2633   0.2722   0.2769
  0.2891   0.2987   0.3160   0.3322   0.3352   0.3361   0.3462   0.3501
  0.3543   0.3597   0.3651   0.3778   0.3800   0.3840   0.3854   0.3873
  0.3907   0.3936   0.4004   0.4067   0.4113   0.4170   0.4233   0.4265
  0.4274   0.4351   0.4364   0.4426   0.4466   0.4501   0.4519   0.4571
  0.4613   0.4621   0.4695   0.4736   0.4794   0.4842   0.4876   0.4920
  0.4941   0.4996   0.5037   0.5060   0.5095   0.5106   0.5173   0.5224
  0.5236   0.5316   0.5352   0.5378   0.5412   0.5434   0.5438   0.5504
  0.5545   0.5550   0.5580   0.5593   0.5665   0.5713   0.5763   0.5860
  0.5875   0.5903   0.5953   0.5990   0.6029   0.6076   0.6109   0.6133
  0.6168   0.6179   0.6210   0.6225   0.6238   0.6275   0.6326   0.6401
  0.6406   0.6441   0.6455   0.6500   0.6539   0.6562   0.6652   0.6698
  0.6765   0.6813   0.6841   0.6892   0.6918   0.6951   0.7026   0.7053
  0.7125   0.7132   0.7183   0.7231   0.7340   0.7346   0.7423   0.7478
  0.7541   0.7605   0.7662   0.7714   0.7757   0.7861   0.7950   0.7981
  0.8008   0.8053   0.8158   0.8181   0.8210   0.8296   0.8387   0.8437
  0.8454   0.8508   0.8572   0.8658   0.8683   0.8757   0.8814   0.8850
  0.8857   0.8999   0.9014   0.9047   0.9094   0.9144   0.9190   0.9239
  0.9301   0.9398   0.9422   0.9436   0.9482   0.9559   0.9609   0.9683
  0.9693   0.9790   0.9803   0.9833   0.9872   0.9917   0.9958   1.0036
  1.0038   1.0166   1.0199   1.0235   1.0291   1.0342   1.0393   1.0455
  1.0474   1.0502   1.0578   1.0612   1.0641   1.0695   1.0765   1.0855
  1.0881   1.0922   1.0930   1.0960   1.1029   1.1106   1.1137   1.1162
  1.1189   1.1198   1.1276   1.1314   1.1407   1.1439   1.1511   1.1561
  1.1634   1.1696   1.1711   1.1805   1.1830   1.1865   1.1935   1.1970
  1.2024   1.2082   1.2131   1.2133   1.2197   1.2217   1.2306   1.2323
  1.2348   1.2398   1.2441   1.2522   1.2587   1.2641   1.2682   1.2713
  1.2775   1.2789   1.2815   1.2871   1.3006   1.3103   1.3130   1.3220
  1.3284   1.3310   1.3369   1.3474   1.3503   1.3560   1.3649   1.3686
  1.3725   1.3876   1.3925   1.3997   1.4035   1.4135   1.4170   1.4228
  1.4315   1.4450   1.4474   1.4565   1.4717   1.4822   1.4846   1.4932
  1.4974   1.5024   1.5027   1.5067   1.5108   1.5162   1.5231   1.5324
  1.5342   1.5382   1.5396   1.5434   1.5451   1.5460   1.5609   1.5654
  1.5731   1.5793   1.5837   1.5960   1.6020   1.6105   1.6195   1.6267
  1.6321   1.6471   1.6549   1.6619   1.6697   1.6715   1.6743   1.6792
  1.6868   1.6906   1.6971   1.7012   1.7128   1.7264   1.7276   1.7417
  1.7553   1.7626   1.7791   1.7837   1.7943   1.8036   1.8123   1.8187
  1.8232   1.8273   1.8379   1.8480   1.8513   1.8676   1.8694   1.8727
  1.8889   1.8983   1.9005   1.9107   1.9123   1.9189   1.9246   1.9316
  1.9408   1.9458   1.9509   1.9573   1.9727   1.9744   1.9802   1.9834
  1.9904   2.0011   2.0157   2.0220   2.0312   2.0354   2.0489   2.0563
  2.0712   2.0808   2.0879   2.1004   2.1021   2.1127   2.1234   2.1349
  2.1489   2.1603   2.1636   2.1668   2.1792   2.1844   2.1877   2.1911
  2.2001   2.2015   2.2068   2.2157   2.2231   2.2340   2.2352   2.2401
  2.2451   2.2520   2.2581   2.2613   2.2762   2.2786   2.2873   2.2897
  2.2939   2.3102   2.3175   2.3238   2.3256   2.3397   2.3526   2.3557
  2.3635   2.3700   2.3798   2.3905   2.3920   2.4059   2.4105   2.4162
  2.4297   2.4343   2.4392   2.4471   2.4575   2.4763   2.4805   2.4826
  2.4930   2.5027   2.5093   2.5141   2.5273   2.5406   2.5469   2.5592
  2.5622   2.5681   2.5785   2.5836   2.5960   2.6125   2.6192   2.6208
  2.6255   2.6287   2.6350   2.6395   2.6435   2.6518   2.6623   2.6702
  2.6773   2.6789   2.6865   2.6949   2.7017   2.7037   2.7074   2.7119
  2.7197   2.7268   2.7364   2.7430   2.7477   2.7573   2.7670   2.7828
  2.7837   2.7901   2.8005   2.8033   2.8067   2.8099   2.8116   2.8211
  2.8269   2.8322   2.8450   2.8484   2.8538   2.8559   2.8673   2.8746
  2.8757   2.8814   2.8857   2.8926   2.8970   2.9055   2.9211   2.9262
  2.9493   2.9540   2.9568   2.9609   2.9669   2.9835   2.9862   2.9999
  3.0046   3.0118   3.0188   3.0229   3.0286   3.0311   3.0352   3.0451
  3.0470   3.0506   3.0624   3.0688   3.0804   3.0852   3.0890   3.0984
  3.1017   3.1046   3.1103   3.1141   3.1194   3.1269   3.1281   3.1402
  3.1489   3.1523   3.1582   3.1623   3.1677   3.1690   3.1805   3.1827
  3.1878   3.1974   3.2068   3.2102   3.2143   3.2182   3.2263   3.2280
  3.2306   3.2381   3.2422   3.2469   3.2535   3.2575   3.2595   3.2705
  3.2735   3.2774   3.2826   3.2867   3.2893   3.2962   3.2980   3.3003
  3.3104   3.3203   3.3275   3.3313   3.3352   3.3429   3.3463   3.3527
  3.3550   3.3565   3.3635   3.3656   3.3698   3.3710   3.3763   3.3835
  3.3866   3.3903   3.3913   3.3985   3.3999   3.4061   3.4154   3.4180
  3.4224   3.4269   3.4312   3.4385   3.4414   3.4495   3.4506   3.4534
  3.4622   3.4645   3.4684   3.4726   3.4756   3.4784   3.4886   3.4898
  3.4954   3.5014   3.5136   3.5157   3.5172   3.5251   3.5289   3.5360
  3.5442   3.5446   3.5466   3.5575   3.5621   3.5697   3.5725   3.5768
  3.5827   3.5831   3.5922   3.5971   3.6018   3.6048   3.6055   3.6191
  3.6230   3.6281   3.6292   3.6352   3.6417   3.6504   3.6559   3.6575
  3.6647   3.6732   3.6763   3.6832   3.6857   3.6906   3.6998   3.7050
  3.7056   3.7112   3.7155   3.7230   3.7285   3.7334   3.7386   3.7495
  3.7549   3.7593   3.7636   3.7710   3.7755   3.7827   3.7861   3.7904
  3.7946   3.8010   3.8039   3.8081   3.8107   3.8196   3.8220   3.8251
  3.8355   3.8407   3.8463   3.8493   3.8594   3.8666   3.8688   3.8727
  3.8795   3.8829   3.8883   3.8916   3.9012   3.9055   3.9109   3.9232
  3.9276   3.9289   3.9442   3.9510   3.9559   3.9607   3.9714   3.9818
  3.9898   3.9976   4.0026   4.0094   4.0149   4.0283   4.0348   4.0414
  4.0504   4.0611   4.0634   4.0698   4.0743   4.0782   4.0886   4.0895
  4.1046   4.1141   4.1240   4.1345   4.1370   4.1457   4.1505   4.1536
  4.1631   4.1654   4.1664   4.1707   4.1829   4.1903   4.1927   4.2012
  4.2036   4.2128   4.2258   4.2279   4.2402   4.2475   4.2554   4.2664
  4.2720   4.2876   4.3058   4.3220   4.3317   4.3383   4.3417   4.3432
  4.3576   4.3630   4.3656   4.3771   4.3812   4.3852   4.3913   4.3988
  4.4092   4.4105   4.4143   4.4224   4.4285   4.4344   4.4367   4.4548
  4.4588   4.4731   4.4784   4.4973   4.4990   4.5044   4.5195   4.5253
  4.5384   4.5467   4.5519   4.5594   4.5639   4.5798   4.5843   4.5923
  4.5984   4.6090   4.6182   4.6287   4.6371   4.6446   4.6506   4.6561
  4.6648   4.6687   4.6741   4.6856   4.6933   4.7156   4.7186   4.7373
  4.7418   4.7529   4.7622   4.7649   4.7801   4.7862   4.8038   4.8210
  4.8321   4.8397   4.8483   4.8595   4.8669   4.8739   4.8789   4.9043
  4.9332   4.9393   4.9558   4.9578   4.9604   4.9691   4.9806   4.9926
  5.0059   5.0087   5.0193   5.0211   5.0388   5.0430   5.0616   5.0707
  5.0853   5.0967   5.1108   5.1227   5.1618   5.1634   5.1730   5.1964
  5.2044   5.2169   5.2453   5.2466   5.2535   5.2565   5.2581   5.2805
  5.2992   5.3093   5.3137   5.3272   5.3414   5.3501   5.3607   5.3644
  5.3826   5.3900   5.4010   5.4044   5.4245   5.4259   5.4373   5.4650
  5.4847   5.4876   5.4994   5.5081   5.5129   5.5223   5.5360   5.5660
  5.5769   5.5823   5.5873   5.6067   5.6212   5.6234   5.6476   5.6611
  5.7210   5.7232   5.7417   5.7787   5.8072   5.8174   5.8305   5.8558
  5.8733   5.8841   5.9126   5.9288   5.9414   5.9804   6.0056   6.0364
  6.0421   6.0789   6.1034   6.1502   6.1603   6.1717   6.1794   6.1860
  6.2368   6.2505   6.2611   6.2705   6.2723   6.2858   6.3127   6.3473
  6.4127   6.4483   6.4497   6.4817   6.5400   6.5496   6.5589   6.6023
  6.6561   6.6615   6.6709   6.7023   6.7451   6.8028   6.8295   6.8376
  6.8592   6.8943   6.9780   7.1218   7.1364   7.2036   7.2049   7.2166
  7.2360   7.3097   7.3227   7.3321   7.3622   7.3626   7.4048   7.4129
  7.4791   7.4846   7.4887   7.5206   7.5496   7.6142   7.7045   7.7719
  7.7889   7.7981   7.8936   7.9198   7.9436   7.9634   8.0738   8.1328
  8.4418   8.9211   9.0243   9.3623   9.4751   9.6633  10.1042  10.4814
 11.1983  11.3859  11.7681  11.9936  12.1242  12.1483  12.4183  12.5641
 12.6529  12.9331  12.9649  13.1746  13.3397  13.3847  13.7712  13.8484
 13.9025  14.0235  14.0412  14.6038  15.2025
 --------------------------------------------------------------
 
          Ground-State Mulliken Net Atomic Charges

     Atom                 Charge (a.u.)
  ----------------------------------------
      1 C                    -0.193226
      2 C                    -0.253757
      3 S                    -0.024871
      4 C                    -0.019693
      5 H                     0.195745
      6 C                    -0.026380
      7 C                     0.236898
      8 C                     0.245160
      9 C                    -0.042311
     10 C                    -0.023418
     11 O                    -0.333573
     12 O                    -0.340384
     13 C                    -0.085850
     14 H                     0.122296
     15 H                     0.090883
     16 H                     0.092996
     17 C                    -0.087258
     18 H                     0.125302
     19 H                     0.094880
     20 H                     0.089050
     21 C                    -0.243573
     22 S                    -0.037121
     23 C                     0.012134
     24 H                     0.200968
     25 H                     0.205565
     26 C                    -0.078175
     27 S                     0.120662
     28 C                    -0.170415
     29 C                    -0.022094
     30 C                    -0.085936
     31 S                     0.041209
     32 C                    -0.155202
     33 C                     0.399381
     34 F                    -0.206250
     35 C                     0.445600
     36 O                    -0.461129
     37 O                    -0.300995
     38 C                    -0.058315
     39 H                     0.121442
     40 H                     0.095354
     41 H                     0.095129
     42 H                     0.219272
  ----------------------------------------
  Sum of atomic charges =     0.000000

 -----------------------------------------------------------------
                    Cartesian Multipole Moments
 -----------------------------------------------------------------
    Charge (ESU x 10^10)
                -0.0000
    Dipole Moment (Debye)
         X       2.3404      Y       1.6754      Z       3.0526
       Tot       4.1956
    Quadrupole Moments (Debye-Ang)
        XX    -179.0625     XY       7.5109     YY    -170.4517
        XZ     -16.4686     YZ      -6.5603     ZZ    -196.8461
    Octopole Moments (Debye-Ang^2)
       XXX    -378.3067    XXY     366.5321    XYY     -99.8893
       YYY     984.7412    XXZ     154.8571    XYZ      28.1312
       YYZ     146.8356    XZZ     -73.1190    YZZ     456.0000
       ZZZ     589.5378
    Hexadecapole Moments (Debye-Ang^3)
      XXXX   -2717.3516   XXXY    -424.0056   XXYY   -3744.8979
      XYYY    -446.2860   YYYY  -18260.4688   XXXZ    1435.1279
      XXYZ     201.0510   XYYZ     100.5339   YYYZ     725.4727
      XXZZ   -1213.3721   XYZZ     145.2543   YYZZ   -4230.7708
      XZZZ    1203.6470   YZZZ     407.6965   ZZZZ   -6657.1650
 -----------------------------------------------------------------
 Total job time:  278.10s(wall), 8852.53s(cpu) 
 Tue Jan  9 01:16:32 2024

        *************************************************************
        *                                                           *
        *  Thank you very much for using Q-Chem.  Have a nice day.  *
        *                                                           *
        *************************************************************


0 sent ACK to 0 
now end server 0 ... 
cleanup process ... done
remove work dirs ./qchem1959313.0 -- ./qchem1959313.0
rm -rf ./qchem1959313.0
rm -rf ./qchem1959313
