You are running Q-Chem version: 5.4.0

#
# job setting
#
local host:  exp-7-31
current dir: /home/rramji/project-csd799/aromodel/ptb7fout-qchem/rotation-run
input file:  Dimethoxy_Benzodithiophene_Phi_15_Theta_190_Methylcarbonyl_3_Fluoro_Thienothiophene.qcin
output file: 
nprocs     : 1
nthreads   : 64
#
# qchem installation setting
#
QC:          /cm/shared/apps/spack/cpu/opt/spack/linux-centos8-zen2/gcc-10.2.0/qchem-5.4-akfmr7b3t57bfs6qan3padb2wnb2i7cl
QCAUX:       /cm/shared/apps/spack/cpu/opt/spack/linux-centos8-zen2/gcc-10.2.0/qchem-5.4-akfmr7b3t57bfs6qan3padb2wnb2i7cl/qcaux
QCPROG:      /cm/shared/apps/spack/cpu/opt/spack/linux-centos8-zen2/gcc-10.2.0/qchem-5.4-akfmr7b3t57bfs6qan3padb2wnb2i7cl/exe/qcprog.exe
QCPROG_S:    /cm/shared/apps/spack/cpu/opt/spack/linux-centos8-zen2/gcc-10.2.0/qchem-5.4-akfmr7b3t57bfs6qan3padb2wnb2i7cl/exe/qcprog.exe_s
PARALLEL:    -DPARALLEL
QCMPI:       mpich
#
# qchem directory setting
#
qcrun:       qchem4014620
QCSCRATCH:   .
QCLOCALSCR:  
QCTMPDIR:    .
QCFILEPREF:  ./qchem4014620
QCSAVEDIR:   
workdirs:    ./qchem4014620
workdir0:    ./qchem4014620
partmpdirs =  
#
# parallel setting
#
QCRSH:           ssh
QCMPI:           mpich
QCMPIRUN:        /cm/shared/apps/spack/cpu/opt/spack/linux-centos8-zen2/gcc-10.2.0/qchem-5.4-akfmr7b3t57bfs6qan3padb2wnb2i7cl/bin/mpi/mpirun_qchem
QCMACHINEFILE:   ./qchem4014620/hostfile
exp-7-31

#
# env setting
#
exported envs:   QC QCAUX QCSCRATCH QCRUNNAME QCFILEPREF QCPROG QCPROG_S GUIFILE

Running Job 1 of 1 Dimethoxy_Benzodithiophene_Phi_15_Theta_190_Methylcarbonyl_3_Fluoro_Thienothiophene.qcin
qchem Dimethoxy_Benzodithiophene_Phi_15_Theta_190_Methylcarbonyl_3_Fluoro_Thienothiophene.qcin_4014620.0 ./qchem4014620/ 1
/cm/shared/apps/spack/cpu/opt/spack/linux-centos8-zen2/gcc-10.2.0/qchem-5.4-akfmr7b3t57bfs6qan3padb2wnb2i7cl/bin/mpi/mpirun_qchem -machinefile ./qchem4014620/hostfile -np 1 /cm/shared/apps/spack/cpu/opt/spack/linux-centos8-zen2/gcc-10.2.0/qchem-5.4-akfmr7b3t57bfs6qan3padb2wnb2i7cl/exe/qcprog.exe Dimethoxy_Benzodithiophene_Phi_15_Theta_190_Methylcarbonyl_3_Fluoro_Thienothiophene.qcin_4014620.0 ./qchem4014620/

Process 0 of 1 is on exp-7-31 - thread support 0
initial socket setup ...start
initial socket setup ...done 
now start server 0 ... 
                  Welcome to Q-Chem
     A Quantum Leap Into The Future Of Chemistry


 Q-Chem 5.4, Q-Chem, Inc., Pleasanton, CA (2021)

 License issued to: University of California, San Diego (site)

 E. Epifanovsky,  A. T. B. Gilbert,  Xintian Feng,  Joonho Lee,  Yuezhi Mao,  
 N. Mardirossian,  P. Pokhilko,  A. White,  M. Wormit,  M. P. Coons,  
 A. L. Dempwolff,  Zhengting Gan,  D. Hait,  P. R. Horn,  L. D. Jacobson,  
 I. Kaliman,  J. Kussmann,  A. W. Lange,  Ka Un Lao,  D. S. Levine,  Jie Liu,  
 S. C. McKenzie,  A. F. Morrison,  K. Nanda,  F. Plasser,  D. R. Rehn,  
 M. L. Vidal,  Zhi-Qiang You,  Ying Zhu,  B. Alam,  B. Albrecht,  
 A. Aldossary,  E. Alguire,  J. H. Andersen,  D. Barton,  K. Begam,  A. Behn,  
 Y. A. Bernard,  E. J. Berquist,  H. Burton,  A. Carreras,  K. Carter-Fenk,  
 R. Chakraborty,  A. D. Chien,  K. D. Closser,  V. Cofer-Shabica,  
 S. Dasgupta,  Jia Deng,  M. de Wergifosse,  M. Diedenhofen,  Hainam Do,  
 S. Ehlert,  Po-Tung Fang,  S. Fatehi,  Qingguo Feng,  J. Gayvert,  
 Qinghui Ge,  G. Gidofalvi,  M. Goldey,  J. Gomes,  C. Gonzalez-Espinoza,  
 S. Gulania,  A. Gunina,  M. W. D. Hanson-Heine,  P. H. P. Harbach,  
 A. W. Hauser,  M. F. Herbst,  M. Hernandez Vera,  M. Hodecker,  
 Z. C. Holden,  S. Houck,  Xunkun Huang,  Kerwin Hui,  B. C. Huynh,  
 M. Ivanov,  Hyunjun Ji,  Hanjie Jiang,  B. Kaduk,  S. Kaehler,  
 K. Khistyaev,  Jaehoon Kim,  P. Klunzinger,  Z. Koczor-Benda,  
 Joong Hoon Koh,  D. Kosenkov,  L. Koulias,  T. Kowalczyk,  C. M. Krauter,  
 K. Kue,  A. Kunitsa,  T. Kus,  A. Landau,  K. V. Lawler,  D. Lefrancois,  
 S. Lehtola,  Rain Li,  Yi-Pei Li,  Jiashu Liang,  M. Liebenthal,  
 Hung-Hsuan Lin,  You-Sheng Lin,  Fenglai Liu,  Kuan-Yu Liu,  
 M. Loipersberger,  A. Luenser,  A. Manjanath,  P. Manohar,  E. Mansoor,  
 S. F. Manzer,  Shan-Ping Mao,  A. V. Marenich,  T. Markovich,  S. Mason,  
 S. A. Maurer,  P. F. McLaughlin,  M. F. S. J. Menger,  J.-M. Mewes,  
 S. A. Mewes,  P. Morgante,  J. W. Mullinax,  T. S. Nguyen-Beck,  
 K. J. Oosterbaan,  G. Paran,  Alexander C. Paul,  Suranjan K. Paul,  
 F. Pavosevic,  Zheng Pei,  S. Prager,  E. I. Proynov,  E. Ramos,  B. Rana,  
 A. E. Rask,  A. Rettig,  R. M. Richard,  F. Rob,  E. Rossomme,  T. Scheele,  
 M. Scheurer,  M. Schneider,  N. Sergueev,  S. M. Sharada,  W. Skomorowski,  
 D. W. Small,  C. J. Stein,  Yu-Chuan Su,  E. J. Sundstrom,  Zhen Tao,  
 J. Thirman,  T. Tsuchimochi,  N. M. Tubman,  S. P. Veccham,  O. Vydrov,  
 J. Wenzel,  J. Witte,  A. Yamada,  Kun Yao,  S. Yeganeh,  S. R. Yost,  
 A. Zech,  Igor Ying Zhang,  Xing Zhang,  Yu Zhang,  D. Zuev,  
 A. Aspuru-Guzik,  A. T. Bell,  N. A. Besley,  K. B. Bravaya,  B. R. Brooks,  
 D. Casanova,  Jeng-Da Chai,  S. Coriani,  C. J. Cramer,  
 A. E. DePrince, III,  R. A. DiStasio Jr.,  A. Dreuw,  B. D. Dunietz,  
 T. R. Furlani,  W. A. Goddard III,  S. Grimme,  S. Hammes-Schiffer,  
 T. Head-Gordon,  W. J. Hehre,  Chao-Ping Hsu,  T.-C. Jagau,  Yousung Jung,  
 A. Klamt,  Jing Kong,  D. S. Lambrecht,  WanZhen Liang,  N. J. Mayhall,  
 C. W. McCurdy,  J. B. Neaton,  C. Ochsenfeld,  J. A. Parkhill,  R. Peverati,  
 V. A. Rassolov,  Yihan Shao,  L. V. Slipchenko,  T. Stauch,  R. P. Steele,  
 J. E. Subotnik,  A. J. W. Thom,  A. Tkatchenko,  D. G. Truhlar,  
 T. Van Voorhis,  T. A. Wesolowski,  K. B. Whaley,  H. L. Woodcock III,  
 P. M. Zimmerman,  S. Faraji,  P. M. W. Gill,  M. Head-Gordon,  
 J. M. Herbert,  A. I. Krylov

 Contributors to earlier versions of Q-Chem not listed above: 
 R. D. Adamson,  B. Austin,  R. Baer,  J. Baker,  G. J. O. Beran,  
 K. Brandhorst,  S. T. Brown,  E. F. C. Byrd,  A. K. Chakraborty,  
 G. K. L. Chan,  Chun-Min Chang,  Yunqing Chen,  C.-L. Cheng,  
 Siu Hung Chien,  D. M. Chipman,  D. L. Crittenden,  H. Dachsel,  
 R. J. Doerksen,  A. D. Dutoi,  R. G. Edgar,  J. Fosso-Tande,  
 L. Fusti-Molnar,  D. Ghosh,  A. Ghysels,  A. Golubeva-Zadorozhnaya,  
 J. Gonthier,  M. S. Gordon,  S. R. Gwaltney,  G. Hawkins,  J. E. Herr,  
 A. Heyden,  S. Hirata,  E. G. Hohenstein,  G. Kedziora,  F. J. Keil,  
 C. Kelley,  Jihan Kim,  R. A. King,  R. Z. Khaliullin,  P. P. Korambath,  
 W. Kurlancheek,  A. Laurent,  A. M. Lee,  M. S. Lee,  S. V. Levchenko,  
 Ching Yeh Lin,  D. Liotard,  E. Livshits,  R. C. Lochan,  I. Lotan,  
 L. A. Martinez-Martinez,  P. E. Maslen,  N. Nair,  D. P. O'Neill,  
 D. Neuhauser,  E. Neuscamman,  C. M. Oana,  R. Olivares-Amaya,  R. Olson,  
 T. M. Perrine,  B. Peters,  P. A. Pieniazek,  A. Prociuk,  Y. M. Rhee,  
 J. Ritchie,  M. A. Rohrdanz,  E. Rosta,  N. J. Russ,  H. F. Schaefer III,  
 M. W. Schmidt,  N. E. Schultz,  S. Sharma,  N. Shenvi,  C. D. Sherrill,  
 A. C. Simmonett,  A. Sodt,  T. Stein,  D. Stuck,  K. S. Thanthiriwatte,  
 V. Vanovschi,  L. Vogt,  Tao Wang,  A. Warshel,  M. A. Watson,  
 C. F. Williams,  Q. Wu,  X. Xu,  Jun Yang,  W. Zhang,  Yan Zhao

 Please cite Q-Chem as follows:
 Y. Shao et al., Mol. Phys. 113, 184-215 (2015)
 DOI: 10.1080/00268976.2014.952696

 Q-Chem 5.4.0 for Intel X86 EM64T Linux

 Parts of Q-Chem use Armadillo 9.800.1 (Horizon Scraper).
 http://arma.sourceforge.net/

 Q-Chem begins on Tue Jan  9 01:09:26 2024  

 Host: 
0

     Scratch files written to ./qchem4014620//
 May1621 |scratch|qcdevops|jenkins|workspace|build_RNUM    
 Parallel job on  1  processors
 Processing $rem in /cm/shared/apps/spack/cpu/opt/spack/linux-centos8-zen2/gcc-10.2.0/qchem-5.4-akfmr7b3t57bfs6qan3padb2wnb2i7cl/config/preferences:
 Processing $rem in /home/rramji/.qchemrc:
 Symmetry turned off for PCM/SM12/SMD calculation
 Core orbitals will be frozen

 Checking the input file for inconsistencies... 	...done.

 Q-Chem warning in module forms1/BasisType.C, line 2236:

 You are not using the predefined 5D/6D in this basis set.


--------------------------------------------------------------
User input:
--------------------------------------------------------------
$molecule
0 1
C	0.095966	-8.517702	-0.306235
C	-0.082807	-7.641575	0.754415
S	0.348635	-7.638634	-1.833702
C	-0.017401	-6.264785	0.383675
H	-0.259008	-7.966081	1.787757
C	0.231913	-6.072714	-1.020885
C	0.305044	-4.787049	-1.579097
C	-0.196549	-5.162801	1.268082
C	-0.127606	-3.874817	0.708796
C	0.124792	-3.683952	-0.696769
O	-0.397867	-5.499772	2.572378
O	0.506103	-4.459055	-2.889532
C	1.267335	-5.329063	-3.718420
H	1.502804	-4.755694	-4.635204
H	0.697471	-6.238095	-4.010790
H	2.215194	-5.637262	-3.226506
C	-0.999238	-4.572261	3.467415
H	-1.230649	-5.139743	4.388648
H	-1.940905	-4.153131	3.052323
H	-0.311543	-3.739531	3.730819
C	0.187323	-2.306654	-1.064366
S	-0.257128	-2.306501	1.521154
C	0.000000	-1.435185	0.000000
H	0.365903	-1.978138	-2.095939
H	0.092855	-9.614033	-0.309131
C	0.000000	0.000000	0.000000
S	0.234628	0.873813	1.507541
C	0.640889	2.392969	0.718873
C	0.234815	0.873434	-1.067872
C	0.592377	2.216811	-0.686410
S	0.174526	0.637422	-2.805516
C	0.622551	2.330840	-3.054530
C	0.803505	3.015647	-1.862551
F	1.144815	4.307994	-1.819088
C	0.740334	2.763108	-4.456084
O	0.548793	2.017428	-5.406510
O	1.082665	4.069544	-4.569225
C	1.215848	4.546407	-5.916207
H	1.494066	5.611729	-5.833064
H	0.261736	4.436296	-6.470168
H	2.000108	3.981294	-6.459293
H	0.878739	3.286099	1.306486
$end

$rem
JOBTYPE		SP
EXCHANGE	HF
CORRELATION	pRIMP2
BASIS		cc-pvtz
METHOD		rimp2
AUX_BASIS	rimp2-cc-pvtz
SOLVENT_METHOD	PCM
PURECART	11111
SYMMETRY	false
MEM_TOTAL	110000
SCF_CONVERGENCE = 6
THRESH=10
GUI = 2
$end



$solvent
dielectric 4.90
$end
--------------------------------------------------------------
 ----------------------------------------------------------------
             Standard Nuclear Orientation (Angstroms)
    I     Atom           X                Y                Z
 ----------------------------------------------------------------
    1      C       0.0959660000    -8.5177020000    -0.3062350000
    2      C      -0.0828070000    -7.6415750000     0.7544150000
    3      S       0.3486350000    -7.6386340000    -1.8337020000
    4      C      -0.0174010000    -6.2647850000     0.3836750000
    5      H      -0.2590080000    -7.9660810000     1.7877570000
    6      C       0.2319130000    -6.0727140000    -1.0208850000
    7      C       0.3050440000    -4.7870490000    -1.5790970000
    8      C      -0.1965490000    -5.1628010000     1.2680820000
    9      C      -0.1276060000    -3.8748170000     0.7087960000
   10      C       0.1247920000    -3.6839520000    -0.6967690000
   11      O      -0.3978670000    -5.4997720000     2.5723780000
   12      O       0.5061030000    -4.4590550000    -2.8895320000
   13      C       1.2673350000    -5.3290630000    -3.7184200000
   14      H       1.5028040000    -4.7556940000    -4.6352040000
   15      H       0.6974710000    -6.2380950000    -4.0107900000
   16      H       2.2151940000    -5.6372620000    -3.2265060000
   17      C      -0.9992380000    -4.5722610000     3.4674150000
   18      H      -1.2306490000    -5.1397430000     4.3886480000
   19      H      -1.9409050000    -4.1531310000     3.0523230000
   20      H      -0.3115430000    -3.7395310000     3.7308190000
   21      C       0.1873230000    -2.3066540000    -1.0643660000
   22      S      -0.2571280000    -2.3065010000     1.5211540000
   23      C       0.0000000000    -1.4351850000     0.0000000000
   24      H       0.3659030000    -1.9781380000    -2.0959390000
   25      H       0.0928550000    -9.6140330000    -0.3091310000
   26      C       0.0000000000     0.0000000000     0.0000000000
   27      S       0.2346280000     0.8738130000     1.5075410000
   28      C       0.6408890000     2.3929690000     0.7188730000
   29      C       0.2348150000     0.8734340000    -1.0678720000
   30      C       0.5923770000     2.2168110000    -0.6864100000
   31      S       0.1745260000     0.6374220000    -2.8055160000
   32      C       0.6225510000     2.3308400000    -3.0545300000
   33      C       0.8035050000     3.0156470000    -1.8625510000
   34      F       1.1448150000     4.3079940000    -1.8190880000
   35      C       0.7403340000     2.7631080000    -4.4560840000
   36      O       0.5487930000     2.0174280000    -5.4065100000
   37      O       1.0826650000     4.0695440000    -4.5692250000
   38      C       1.2158480000     4.5464070000    -5.9162070000
   39      H       1.4940660000     5.6117290000    -5.8330640000
   40      H       0.2617360000     4.4362960000    -6.4701680000
   41      H       2.0001080000     3.9812940000    -6.4592930000
   42      H       0.8787390000     3.2860990000     1.3064860000
 ----------------------------------------------------------------
 Nuclear Repulsion Energy =        3285.61878648 hartrees
 There are      119 alpha and      119 beta electrons
 Requested basis set is cc-pVTZ
 There are 376 shells and 1068 basis functions

 Total QAlloc Memory Limit 110000 MB
 Mega-Array Size       188 MB
 MEM_STATIC part       192 MB
 Discretize the solute cavity surface with Lebedev spheres
	Using 110 Lebedev grid points for each H atom
	Using 194 Lebedev grid points for other atoms
	Atomic van der Waals radii will be scaled by 1.20
 Remove points where switching function is < 1.0e-08
 Keep 2902 surface tesserae and discard 4154 interior tesserae
 Molecular Surface Area = 435.978 Angst**2
 Requested basis set is rimp2-cc-pVTZ
 There are 833 shells and 2903 basis functions
 A cutoff of  1.0D-10 yielded  30971 shell pairs
 There are    237899 function pairs (    308897 Cartesian)
 Smallest overlap matrix eigenvalue = 2.09E-05

 Scale SEOQF with 1.000000e-01/1.000000e-02/1.000000e-02

 Standard Electronic Orientation quadrupole field applied
 Nucleus-field energy     =     0.0000000181 hartrees
 Guess from superposition of atomic densities
 Warning:  Energy on first SCF cycle will be non-variational
 SAD guess density has 238.000000 electrons

 -----------------------------------------------------------------------
  General SCF calculation program by
  Eric Jon Sundstrom, Paul Horn, Yuezhi Mao, Dmitri Zuev, Alec White,
  David Stuck, Shaama M.S., Shane Yost, Joonho Lee, David Small,
  Daniel Levine, Susi Lehtola, Hugh Burton, Evgeny Epifanovsky,
  Bang C. Huynh
 -----------------------------------------------------------------------
 Hartree-Fock
 using 64 threads for integral computing
 -------------------------------------------------------
 OpenMP Integral computing Module                
 Release: version 1.0, May 2013, Q-Chem Inc. Pittsburgh 
 -------------------------------------------------------
 A restricted SCF calculation will be
 performed using DIIS
 SCF converges when DIIS error is below 1.0e-06
 ---------------------------------------
  Cycle       Energy         DIIS error
 ---------------------------------------
    1   -2765.2420619259      1.75e-02  
    2   -2753.8778524685      1.56e-03  
    3   -2754.2176883747      8.62e-04  
    4   -2754.2992856757      2.56e-04  
    5   -2754.3109298788      6.92e-05  
    6   -2754.3120109191      2.37e-05  
    7   -2754.3122446461      1.13e-05  
    8   -2754.3123215844      4.25e-06  
    9   -2754.3123361600      1.73e-06  
   10   -2754.3123380280      7.51e-07  Convergence criterion met
 ---------------------------------------
 SCF time:   CPU 6354.46s  wall 245.00s 

************** Final PCM Free Energy Summary **************
 G_electrostatic  =      -0.01839877 hartree =     -11.54539999 kcal/mol
 G_cavitation     =       0.00000000 hartree =       0.00000000 kcal/mol
 G_dispersion     =       0.00000000 hartree =       0.00000000 kcal/mol
 G_repulsion      =       0.00000000 hartree =       0.00000000 kcal/mol
 --------------------------------------------------
 Non-electrostatic Free Energy =       0.00000000 hartree =       0.00000000 kcal/mol
 Total                         =      -0.01839877 hartree =     -11.54539999 kcal/mol
 --------------------------------------------------
 SCF Energy (H0 + V/2)                       =   -2754.31233803 
 Solute Internal Energy (H0)                 =   -2754.29393926 
 Total Free Energy (H0 + V/2 + non-elec)     =   -2754.31233803 hartree
                                             = -1728357.07820473 kcal/mol
***********************************************************

 SCF   energy in the final basis set =    -2754.3123380280
 Total energy in the final basis set =    -2754.3123380280


 --------------------------------------------------------------
  Generalized many-body perturbation theory program
  by Joonho Lee, Fazle Rob, Xintian Feng, Evgeny Epifanovsky

 No regularization used 
 (reg. param. = 0.0000e+00)
  (P|Q)^-1/2 Time:  CPU 194.61 s  wall 3.69 s

 In RI-MP2 calculation: 
 # of frozen core orbitals: 45

 Components of the RIMP2 correlation energy:
        aaaa    correlation energy =        -0.6703025948 a.u.
        abab    correlation energy =        -3.7131960687 a.u.
        bbbb    correlation energy =        -0.6703025948 a.u.
        non-Brillouin singles      =        -0.0000000000 a.u.
        total same-spin energy     =        -1.3406051897 a.u.
        total opposite-spin energy =        -3.7131960687 a.u.

 Total  RIMP2   correlation energy =        -5.0538012584 a.u.
        RIMP2         total energy =     -2759.3661392864 a.u.

 RI-MP2 Energy Time:  CPU 2646.69 s  wall 43.33 s
 
 --------------------------------------------------------------
 
                    Orbital Energies (a.u.)
 --------------------------------------------------------------
 
 Alpha MOs
 -- Occupied --
-92.0164 -92.0004 -91.9907 -91.9862 -26.3439 -20.6150 -20.5929 -20.5907
-20.5615 -11.4097 -11.3833 -11.3200 -11.3171 -11.3118 -11.3014 -11.3001
-11.2980 -11.2976 -11.2889 -11.2877 -11.2867 -11.2863 -11.2853 -11.2842
-11.2792 -11.2621 -11.2584 -11.2549 -11.2499  -9.0151  -9.0004  -8.9914
 -8.9861  -6.6959  -6.6953  -6.6948  -6.6814  -6.6806  -6.6795  -6.6724
 -6.6717  -6.6708  -6.6671  -6.6665  -6.6656  -1.6609  -1.4675  -1.4170
 -1.4135  -1.3702  -1.2230  -1.1949  -1.1663  -1.1373  -1.0858  -1.0522
 -1.0425  -1.0242  -1.0018  -0.9887  -0.9644  -0.9599  -0.9505  -0.9397
 -0.8966  -0.8686  -0.8521  -0.8088  -0.7993  -0.7884  -0.7861  -0.7643
 -0.7556  -0.7344  -0.7257  -0.7104  -0.7021  -0.6861  -0.6836  -0.6812
 -0.6740  -0.6594  -0.6590  -0.6523  -0.6309  -0.6198  -0.6170  -0.6024
 -0.5988  -0.5837  -0.5801  -0.5713  -0.5648  -0.5614  -0.5561  -0.5496
 -0.5357  -0.5304  -0.5242  -0.5194  -0.5167  -0.5108  -0.5058  -0.4959
 -0.4874  -0.4815  -0.4775  -0.4742  -0.4697  -0.4653  -0.4598  -0.4273
 -0.3964  -0.3843  -0.3614  -0.3487  -0.3280  -0.2892  -0.2500
 -- Virtual --
  0.0233   0.0597   0.1121   0.1236   0.1272   0.1503   0.1553   0.1559
  0.1593   0.1613   0.1692   0.1730   0.1818   0.1857   0.1914   0.1984
  0.2033   0.2064   0.2150   0.2187   0.2226   0.2231   0.2239   0.2277
  0.2396   0.2454   0.2462   0.2537   0.2585   0.2665   0.2747   0.2902
  0.2920   0.3119   0.3279   0.3307   0.3365   0.3418   0.3505   0.3542
  0.3604   0.3638   0.3723   0.3805   0.3826   0.3843   0.3873   0.3884
  0.3922   0.3979   0.4018   0.4072   0.4098   0.4145   0.4218   0.4247
  0.4311   0.4407   0.4417   0.4457   0.4487   0.4524   0.4570   0.4597
  0.4658   0.4695   0.4745   0.4784   0.4802   0.4864   0.4902   0.4914
  0.4992   0.5011   0.5024   0.5101   0.5130   0.5147   0.5195   0.5227
  0.5298   0.5318   0.5328   0.5378   0.5419   0.5425   0.5472   0.5506
  0.5524   0.5562   0.5607   0.5630   0.5654   0.5698   0.5720   0.5822
  0.5889   0.5894   0.5925   0.6009   0.6050   0.6080   0.6111   0.6129
  0.6144   0.6165   0.6213   0.6227   0.6238   0.6281   0.6313   0.6325
  0.6348   0.6438   0.6473   0.6500   0.6540   0.6584   0.6645   0.6714
  0.6744   0.6821   0.6918   0.6923   0.6934   0.7019   0.7116   0.7138
  0.7146   0.7170   0.7236   0.7312   0.7348   0.7377   0.7457   0.7489
  0.7563   0.7594   0.7671   0.7730   0.7823   0.7851   0.8018   0.8067
  0.8137   0.8151   0.8213   0.8243   0.8276   0.8388   0.8452   0.8494
  0.8516   0.8565   0.8637   0.8704   0.8733   0.8761   0.8782   0.8862
  0.8922   0.8995   0.9025   0.9056   0.9101   0.9181   0.9208   0.9318
  0.9351   0.9374   0.9414   0.9485   0.9566   0.9571   0.9602   0.9675
  0.9768   0.9788   0.9820   0.9860   0.9908   0.9972   1.0035   1.0040
  1.0076   1.0129   1.0180   1.0210   1.0296   1.0300   1.0383   1.0417
  1.0499   1.0544   1.0601   1.0633   1.0653   1.0725   1.0783   1.0827
  1.0851   1.0856   1.0906   1.0960   1.0995   1.1072   1.1077   1.1145
  1.1176   1.1225   1.1305   1.1375   1.1433   1.1536   1.1576   1.1619
  1.1676   1.1690   1.1764   1.1812   1.1861   1.1885   1.1943   1.1966
  1.2045   1.2112   1.2167   1.2178   1.2215   1.2247   1.2299   1.2322
  1.2356   1.2434   1.2471   1.2538   1.2581   1.2635   1.2655   1.2706
  1.2751   1.2798   1.2893   1.2977   1.3044   1.3100   1.3106   1.3207
  1.3262   1.3303   1.3365   1.3403   1.3483   1.3575   1.3662   1.3706
  1.3741   1.3823   1.3878   1.3910   1.4000   1.4071   1.4238   1.4251
  1.4305   1.4349   1.4404   1.4440   1.4679   1.4786   1.4821   1.4848
  1.4928   1.4991   1.5020   1.5090   1.5118   1.5134   1.5224   1.5319
  1.5329   1.5379   1.5405   1.5418   1.5459   1.5551   1.5631   1.5657
  1.5749   1.5796   1.5876   1.5919   1.6106   1.6166   1.6256   1.6310
  1.6373   1.6381   1.6529   1.6533   1.6605   1.6673   1.6705   1.6805
  1.6863   1.6982   1.7019   1.7114   1.7190   1.7256   1.7375   1.7511
  1.7603   1.7725   1.7786   1.7841   1.7965   1.8002   1.8140   1.8176
  1.8231   1.8319   1.8423   1.8473   1.8558   1.8675   1.8703   1.8771
  1.8849   1.8908   1.8956   1.9102   1.9167   1.9196   1.9259   1.9341
  1.9389   1.9406   1.9490   1.9625   1.9677   1.9743   1.9916   1.9941
  1.9973   2.0031   2.0065   2.0286   2.0363   2.0402   2.0528   2.0632
  2.0707   2.0897   2.0943   2.1031   2.1079   2.1175   2.1236   2.1411
  2.1496   2.1612   2.1628   2.1699   2.1776   2.1849   2.1905   2.1951
  2.1963   2.2033   2.2100   2.2201   2.2262   2.2311   2.2387   2.2405
  2.2479   2.2555   2.2598   2.2639   2.2714   2.2761   2.2836   2.2920
  2.2952   2.3075   2.3151   2.3209   2.3345   2.3467   2.3496   2.3559
  2.3634   2.3679   2.3830   2.3853   2.3963   2.4103   2.4117   2.4284
  2.4305   2.4378   2.4449   2.4545   2.4602   2.4687   2.4833   2.4871
  2.4976   2.4987   2.5089   2.5242   2.5378   2.5413   2.5488   2.5588
  2.5663   2.5742   2.5822   2.5966   2.6042   2.6136   2.6193   2.6204
  2.6271   2.6295   2.6314   2.6383   2.6435   2.6513   2.6565   2.6736
  2.6755   2.6819   2.6838   2.6924   2.7024   2.7036   2.7057   2.7108
  2.7216   2.7255   2.7365   2.7389   2.7416   2.7472   2.7604   2.7769
  2.7835   2.7913   2.7962   2.7981   2.8005   2.8126   2.8136   2.8175
  2.8327   2.8369   2.8421   2.8436   2.8502   2.8552   2.8662   2.8711
  2.8742   2.8824   2.8826   2.8886   2.8965   2.9036   2.9210   2.9330
  2.9468   2.9531   2.9556   2.9668   2.9725   2.9753   2.9822   2.9936
  2.9981   3.0093   3.0125   3.0158   3.0234   3.0262   3.0333   3.0420
  3.0478   3.0581   3.0640   3.0658   3.0775   3.0836   3.0894   3.0984
  3.1031   3.1085   3.1140   3.1151   3.1203   3.1304   3.1348   3.1454
  3.1467   3.1507   3.1557   3.1585   3.1629   3.1685   3.1754   3.1810
  3.1943   3.1989   3.2057   3.2107   3.2166   3.2185   3.2239   3.2261
  3.2295   3.2371   3.2406   3.2519   3.2552   3.2610   3.2640   3.2668
  3.2723   3.2736   3.2812   3.2837   3.2910   3.2938   3.2991   3.3037
  3.3084   3.3149   3.3275   3.3296   3.3336   3.3345   3.3429   3.3460
  3.3519   3.3571   3.3590   3.3608   3.3646   3.3684   3.3719   3.3751
  3.3840   3.3902   3.3922   3.3940   3.3985   3.4003   3.4051   3.4106
  3.4156   3.4242   3.4347   3.4381   3.4402   3.4433   3.4468   3.4574
  3.4607   3.4649   3.4702   3.4738   3.4762   3.4777   3.4824   3.4838
  3.4909   3.5056   3.5092   3.5120   3.5176   3.5213   3.5313   3.5364
  3.5377   3.5469   3.5507   3.5539   3.5564   3.5614   3.5773   3.5818
  3.5848   3.5898   3.5919   3.5938   3.6008   3.6015   3.6066   3.6142
  3.6174   3.6249   3.6299   3.6346   3.6409   3.6434   3.6502   3.6553
  3.6633   3.6688   3.6778   3.6815   3.6854   3.6898   3.6942   3.7000
  3.7052   3.7071   3.7108   3.7199   3.7200   3.7224   3.7310   3.7352
  3.7415   3.7481   3.7567   3.7673   3.7693   3.7788   3.7832   3.7840
  3.7922   3.7954   3.8015   3.8064   3.8106   3.8135   3.8154   3.8244
  3.8283   3.8382   3.8387   3.8489   3.8556   3.8605   3.8633   3.8717
  3.8743   3.8777   3.8900   3.8946   3.9032   3.9056   3.9137   3.9243
  3.9252   3.9301   3.9412   3.9508   3.9517   3.9584   3.9721   3.9766
  3.9888   3.9917   3.9926   4.0086   4.0139   4.0258   4.0296   4.0426
  4.0524   4.0542   4.0650   4.0697   4.0702   4.0762   4.0821   4.0956
  4.0983   4.1107   4.1164   4.1219   4.1341   4.1429   4.1474   4.1554
  4.1569   4.1665   4.1679   4.1708   4.1820   4.1865   4.1900   4.2019
  4.2039   4.2144   4.2237   4.2412   4.2482   4.2521   4.2565   4.2709
  4.2765   4.2847   4.2977   4.3140   4.3173   4.3248   4.3405   4.3420
  4.3578   4.3587   4.3674   4.3768   4.3773   4.3849   4.3895   4.4047
  4.4072   4.4095   4.4131   4.4226   4.4284   4.4348   4.4419   4.4517
  4.4542   4.4706   4.4831   4.4962   4.5015   4.5068   4.5163   4.5213
  4.5351   4.5416   4.5461   4.5505   4.5579   4.5721   4.5793   4.5812
  4.5952   4.6035   4.6217   4.6250   4.6364   4.6436   4.6458   4.6529
  4.6612   4.6720   4.6744   4.6843   4.6970   4.7082   4.7221   4.7330
  4.7426   4.7534   4.7717   4.7745   4.7818   4.7940   4.7991   4.8209
  4.8304   4.8468   4.8522   4.8662   4.8700   4.8758   4.8796   4.9160
  4.9342   4.9397   4.9505   4.9568   4.9682   4.9809   4.9924   5.0000
  5.0058   5.0088   5.0189   5.0347   5.0427   5.0522   5.0584   5.0742
  5.0915   5.1104   5.1174   5.1379   5.1495   5.1647   5.1738   5.2047
  5.2085   5.2223   5.2481   5.2503   5.2536   5.2575   5.2593   5.2860
  5.2976   5.3124   5.3165   5.3274   5.3373   5.3508   5.3573   5.3764
  5.3811   5.3937   5.4007   5.4040   5.4187   5.4261   5.4377   5.4639
  5.4849   5.4878   5.5065   5.5091   5.5151   5.5308   5.5404   5.5732
  5.5785   5.5876   5.5941   5.6079   5.6183   5.6216   5.6571   5.6680
  5.7202   5.7415   5.7541   5.7847   5.8074   5.8209   5.8359   5.8552
  5.8738   5.8858   5.9115   5.9290   5.9637   5.9766   6.0020   6.0423
  6.0567   6.0983   6.1249   6.1504   6.1587   6.1705   6.1793   6.1847
  6.2422   6.2522   6.2613   6.2708   6.2843   6.2927   6.3260   6.4011
  6.4292   6.4500   6.4626   6.5013   6.5390   6.5498   6.5600   6.6055
  6.6564   6.6620   6.6710   6.7020   6.7461   6.8031   6.8298   6.8412
  6.8595   6.8936   6.9782   7.1204   7.1361   7.2038   7.2063   7.2155
  7.2362   7.3097   7.3222   7.3323   7.3627   7.3637   7.4059   7.4132
  7.4777   7.4852   7.4897   7.5247   7.5506   7.6173   7.7033   7.7724
  7.7895   7.7970   7.8943   7.9189   7.9420   7.9624   8.0744   8.1355
  8.5738   8.9215   9.0198   9.3625   9.4782   9.6496  10.0638  10.5950
 11.1470  11.4357  11.7862  11.9848  12.1371  12.2220  12.4218  12.5649
 12.6680  12.9716  13.0577  13.1175  13.3521  13.3894  13.7710  13.8481
 13.9039  14.0241  14.0446  14.7883  15.2210
 --------------------------------------------------------------
 
          Ground-State Mulliken Net Atomic Charges

     Atom                 Charge (a.u.)
  ----------------------------------------
      1 C                    -0.190130
      2 C                    -0.254115
      3 S                    -0.021829
      4 C                    -0.017826
      5 H                     0.196116
      6 C                    -0.026936
      7 C                     0.243725
      8 C                     0.243637
      9 C                    -0.039873
     10 C                    -0.025416
     11 O                    -0.333017
     12 O                    -0.340513
     13 C                    -0.086403
     14 H                     0.123505
     15 H                     0.091522
     16 H                     0.093727
     17 C                    -0.088619
     18 H                     0.126192
     19 H                     0.095187
     20 H                     0.089379
     21 C                    -0.226767
     22 S                    -0.040932
     23 C                    -0.009132
     24 H                     0.188457
     25 H                     0.206276
     26 C                     0.022924
     27 S                     0.090581
     28 C                    -0.195808
     29 C                    -0.011194
     30 C                    -0.110712
     31 S                     0.013267
     32 C                    -0.163513
     33 C                     0.409232
     34 F                    -0.206213
     35 C                     0.443212
     36 O                    -0.460981
     37 O                    -0.300814
     38 C                    -0.058485
     39 H                     0.121506
     40 H                     0.095242
     41 H                     0.095150
     42 H                     0.220393
  ----------------------------------------
  Sum of atomic charges =     0.000000

 -----------------------------------------------------------------
                    Cartesian Multipole Moments
 -----------------------------------------------------------------
    Charge (ESU x 10^10)
                 0.0000
    Dipole Moment (Debye)
         X       0.9811      Y       1.2433      Z       3.1269
       Tot       3.5051
    Quadrupole Moments (Debye-Ang)
        XX    -197.1545     XY       2.7051     YY    -160.7976
        XZ     -11.1361     YZ      -7.4713     ZZ    -184.8615
    Octopole Moments (Debye-Ang^2)
       XXX    -163.6593    XXY     372.2736    XYY     -30.5300
       YYY     866.8405    XXZ     184.3598    XYZ      30.1430
       YYZ     122.2815    XZZ     -25.4973    YZZ     373.7622
       ZZZ     603.2494
    Hexadecapole Moments (Debye-Ang^3)
      XXXX    -633.0748   XXXY    -266.2212   XXYY   -3935.4142
      XYYY    -262.7143   YYYY  -19091.6068   XXXZ     686.3368
      XXYZ     323.5944   XYYZ     -86.2566   YYYZ     783.6283
      XXZZ   -1306.2581   XYZZ      34.7054   YYZZ   -4053.2649
      XZZZ     425.3576   YZZZ     503.1015   ZZZZ   -7413.0694
 -----------------------------------------------------------------
 Total job time:  292.65s(wall), 9137.96s(cpu) 
 Tue Jan  9 01:14:19 2024

        *************************************************************
        *                                                           *
        *  Thank you very much for using Q-Chem.  Have a nice day.  *
        *                                                           *
        *************************************************************


0 sent ACK to 0 
now end server 0 ... 
cleanup process ... done
remove work dirs ./qchem4014620.0 -- ./qchem4014620.0
rm -rf ./qchem4014620.0
rm -rf ./qchem4014620
