You are running Q-Chem version: 5.4.0

#
# job setting
#
local host:  exp-9-41
current dir: /home/rramji/project-csd799/aromodel/ptb7fout-qchem/rotation-run
input file:  Dimethoxy_Benzodithiophene_Phi_25_Theta_20_Methylcarbonyl_3_Fluoro_Thienothiophene.qcin
output file: 
nprocs     : 1
nthreads   : 64
#
# qchem installation setting
#
QC:          /cm/shared/apps/spack/cpu/opt/spack/linux-centos8-zen2/gcc-10.2.0/qchem-5.4-akfmr7b3t57bfs6qan3padb2wnb2i7cl
QCAUX:       /cm/shared/apps/spack/cpu/opt/spack/linux-centos8-zen2/gcc-10.2.0/qchem-5.4-akfmr7b3t57bfs6qan3padb2wnb2i7cl/qcaux
QCPROG:      /cm/shared/apps/spack/cpu/opt/spack/linux-centos8-zen2/gcc-10.2.0/qchem-5.4-akfmr7b3t57bfs6qan3padb2wnb2i7cl/exe/qcprog.exe
QCPROG_S:    /cm/shared/apps/spack/cpu/opt/spack/linux-centos8-zen2/gcc-10.2.0/qchem-5.4-akfmr7b3t57bfs6qan3padb2wnb2i7cl/exe/qcprog.exe_s
PARALLEL:    -DPARALLEL
QCMPI:       mpich
#
# qchem directory setting
#
qcrun:       qchem2709040
QCSCRATCH:   .
QCLOCALSCR:  
QCTMPDIR:    .
QCFILEPREF:  ./qchem2709040
QCSAVEDIR:   
workdirs:    ./qchem2709040
workdir0:    ./qchem2709040
partmpdirs =  
#
# parallel setting
#
QCRSH:           ssh
QCMPI:           mpich
QCMPIRUN:        /cm/shared/apps/spack/cpu/opt/spack/linux-centos8-zen2/gcc-10.2.0/qchem-5.4-akfmr7b3t57bfs6qan3padb2wnb2i7cl/bin/mpi/mpirun_qchem
QCMACHINEFILE:   ./qchem2709040/hostfile
exp-9-41

#
# env setting
#
exported envs:   QC QCAUX QCSCRATCH QCRUNNAME QCFILEPREF QCPROG QCPROG_S GUIFILE

Running Job 1 of 1 Dimethoxy_Benzodithiophene_Phi_25_Theta_20_Methylcarbonyl_3_Fluoro_Thienothiophene.qcin
qchem Dimethoxy_Benzodithiophene_Phi_25_Theta_20_Methylcarbonyl_3_Fluoro_Thienothiophene.qcin_2709040.0 ./qchem2709040/ 1
/cm/shared/apps/spack/cpu/opt/spack/linux-centos8-zen2/gcc-10.2.0/qchem-5.4-akfmr7b3t57bfs6qan3padb2wnb2i7cl/bin/mpi/mpirun_qchem -machinefile ./qchem2709040/hostfile -np 1 /cm/shared/apps/spack/cpu/opt/spack/linux-centos8-zen2/gcc-10.2.0/qchem-5.4-akfmr7b3t57bfs6qan3padb2wnb2i7cl/exe/qcprog.exe Dimethoxy_Benzodithiophene_Phi_25_Theta_20_Methylcarbonyl_3_Fluoro_Thienothiophene.qcin_2709040.0 ./qchem2709040/

Process 0 of 1 is on exp-9-41 - thread support 0
initial socket setup ...start
initial socket setup ...done 
now start server 0 ... 
                  Welcome to Q-Chem
     A Quantum Leap Into The Future Of Chemistry


 Q-Chem 5.4, Q-Chem, Inc., Pleasanton, CA (2021)

 License issued to: University of California, San Diego (site)

 E. Epifanovsky,  A. T. B. Gilbert,  Xintian Feng,  Joonho Lee,  Yuezhi Mao,  
 N. Mardirossian,  P. Pokhilko,  A. White,  M. Wormit,  M. P. Coons,  
 A. L. Dempwolff,  Zhengting Gan,  D. Hait,  P. R. Horn,  L. D. Jacobson,  
 I. Kaliman,  J. Kussmann,  A. W. Lange,  Ka Un Lao,  D. S. Levine,  Jie Liu,  
 S. C. McKenzie,  A. F. Morrison,  K. Nanda,  F. Plasser,  D. R. Rehn,  
 M. L. Vidal,  Zhi-Qiang You,  Ying Zhu,  B. Alam,  B. Albrecht,  
 A. Aldossary,  E. Alguire,  J. H. Andersen,  D. Barton,  K. Begam,  A. Behn,  
 Y. A. Bernard,  E. J. Berquist,  H. Burton,  A. Carreras,  K. Carter-Fenk,  
 R. Chakraborty,  A. D. Chien,  K. D. Closser,  V. Cofer-Shabica,  
 S. Dasgupta,  Jia Deng,  M. de Wergifosse,  M. Diedenhofen,  Hainam Do,  
 S. Ehlert,  Po-Tung Fang,  S. Fatehi,  Qingguo Feng,  J. Gayvert,  
 Qinghui Ge,  G. Gidofalvi,  M. Goldey,  J. Gomes,  C. Gonzalez-Espinoza,  
 S. Gulania,  A. Gunina,  M. W. D. Hanson-Heine,  P. H. P. Harbach,  
 A. W. Hauser,  M. F. Herbst,  M. Hernandez Vera,  M. Hodecker,  
 Z. C. Holden,  S. Houck,  Xunkun Huang,  Kerwin Hui,  B. C. Huynh,  
 M. Ivanov,  Hyunjun Ji,  Hanjie Jiang,  B. Kaduk,  S. Kaehler,  
 K. Khistyaev,  Jaehoon Kim,  P. Klunzinger,  Z. Koczor-Benda,  
 Joong Hoon Koh,  D. Kosenkov,  L. Koulias,  T. Kowalczyk,  C. M. Krauter,  
 K. Kue,  A. Kunitsa,  T. Kus,  A. Landau,  K. V. Lawler,  D. Lefrancois,  
 S. Lehtola,  Rain Li,  Yi-Pei Li,  Jiashu Liang,  M. Liebenthal,  
 Hung-Hsuan Lin,  You-Sheng Lin,  Fenglai Liu,  Kuan-Yu Liu,  
 M. Loipersberger,  A. Luenser,  A. Manjanath,  P. Manohar,  E. Mansoor,  
 S. F. Manzer,  Shan-Ping Mao,  A. V. Marenich,  T. Markovich,  S. Mason,  
 S. A. Maurer,  P. F. McLaughlin,  M. F. S. J. Menger,  J.-M. Mewes,  
 S. A. Mewes,  P. Morgante,  J. W. Mullinax,  T. S. Nguyen-Beck,  
 K. J. Oosterbaan,  G. Paran,  Alexander C. Paul,  Suranjan K. Paul,  
 F. Pavosevic,  Zheng Pei,  S. Prager,  E. I. Proynov,  E. Ramos,  B. Rana,  
 A. E. Rask,  A. Rettig,  R. M. Richard,  F. Rob,  E. Rossomme,  T. Scheele,  
 M. Scheurer,  M. Schneider,  N. Sergueev,  S. M. Sharada,  W. Skomorowski,  
 D. W. Small,  C. J. Stein,  Yu-Chuan Su,  E. J. Sundstrom,  Zhen Tao,  
 J. Thirman,  T. Tsuchimochi,  N. M. Tubman,  S. P. Veccham,  O. Vydrov,  
 J. Wenzel,  J. Witte,  A. Yamada,  Kun Yao,  S. Yeganeh,  S. R. Yost,  
 A. Zech,  Igor Ying Zhang,  Xing Zhang,  Yu Zhang,  D. Zuev,  
 A. Aspuru-Guzik,  A. T. Bell,  N. A. Besley,  K. B. Bravaya,  B. R. Brooks,  
 D. Casanova,  Jeng-Da Chai,  S. Coriani,  C. J. Cramer,  
 A. E. DePrince, III,  R. A. DiStasio Jr.,  A. Dreuw,  B. D. Dunietz,  
 T. R. Furlani,  W. A. Goddard III,  S. Grimme,  S. Hammes-Schiffer,  
 T. Head-Gordon,  W. J. Hehre,  Chao-Ping Hsu,  T.-C. Jagau,  Yousung Jung,  
 A. Klamt,  Jing Kong,  D. S. Lambrecht,  WanZhen Liang,  N. J. Mayhall,  
 C. W. McCurdy,  J. B. Neaton,  C. Ochsenfeld,  J. A. Parkhill,  R. Peverati,  
 V. A. Rassolov,  Yihan Shao,  L. V. Slipchenko,  T. Stauch,  R. P. Steele,  
 J. E. Subotnik,  A. J. W. Thom,  A. Tkatchenko,  D. G. Truhlar,  
 T. Van Voorhis,  T. A. Wesolowski,  K. B. Whaley,  H. L. Woodcock III,  
 P. M. Zimmerman,  S. Faraji,  P. M. W. Gill,  M. Head-Gordon,  
 J. M. Herbert,  A. I. Krylov

 Contributors to earlier versions of Q-Chem not listed above: 
 R. D. Adamson,  B. Austin,  R. Baer,  J. Baker,  G. J. O. Beran,  
 K. Brandhorst,  S. T. Brown,  E. F. C. Byrd,  A. K. Chakraborty,  
 G. K. L. Chan,  Chun-Min Chang,  Yunqing Chen,  C.-L. Cheng,  
 Siu Hung Chien,  D. M. Chipman,  D. L. Crittenden,  H. Dachsel,  
 R. J. Doerksen,  A. D. Dutoi,  R. G. Edgar,  J. Fosso-Tande,  
 L. Fusti-Molnar,  D. Ghosh,  A. Ghysels,  A. Golubeva-Zadorozhnaya,  
 J. Gonthier,  M. S. Gordon,  S. R. Gwaltney,  G. Hawkins,  J. E. Herr,  
 A. Heyden,  S. Hirata,  E. G. Hohenstein,  G. Kedziora,  F. J. Keil,  
 C. Kelley,  Jihan Kim,  R. A. King,  R. Z. Khaliullin,  P. P. Korambath,  
 W. Kurlancheek,  A. Laurent,  A. M. Lee,  M. S. Lee,  S. V. Levchenko,  
 Ching Yeh Lin,  D. Liotard,  E. Livshits,  R. C. Lochan,  I. Lotan,  
 L. A. Martinez-Martinez,  P. E. Maslen,  N. Nair,  D. P. O'Neill,  
 D. Neuhauser,  E. Neuscamman,  C. M. Oana,  R. Olivares-Amaya,  R. Olson,  
 T. M. Perrine,  B. Peters,  P. A. Pieniazek,  A. Prociuk,  Y. M. Rhee,  
 J. Ritchie,  M. A. Rohrdanz,  E. Rosta,  N. J. Russ,  H. F. Schaefer III,  
 M. W. Schmidt,  N. E. Schultz,  S. Sharma,  N. Shenvi,  C. D. Sherrill,  
 A. C. Simmonett,  A. Sodt,  T. Stein,  D. Stuck,  K. S. Thanthiriwatte,  
 V. Vanovschi,  L. Vogt,  Tao Wang,  A. Warshel,  M. A. Watson,  
 C. F. Williams,  Q. Wu,  X. Xu,  Jun Yang,  W. Zhang,  Yan Zhao

 Please cite Q-Chem as follows:
 Y. Shao et al., Mol. Phys. 113, 184-215 (2015)
 DOI: 10.1080/00268976.2014.952696

 Q-Chem 5.4.0 for Intel X86 EM64T Linux

 Parts of Q-Chem use Armadillo 9.800.1 (Horizon Scraper).
 http://arma.sourceforge.net/

 Q-Chem begins on Mon Jan  8 18:57:48 2024  

 Host: 
0

     Scratch files written to ./qchem2709040//
 May1621 |scratch|qcdevops|jenkins|workspace|build_RNUM    
 Parallel job on  1  processors
 Processing $rem in /cm/shared/apps/spack/cpu/opt/spack/linux-centos8-zen2/gcc-10.2.0/qchem-5.4-akfmr7b3t57bfs6qan3padb2wnb2i7cl/config/preferences:
 Processing $rem in /home/rramji/.qchemrc:
 Symmetry turned off for PCM/SM12/SMD calculation
 Core orbitals will be frozen

 Checking the input file for inconsistencies... 	...done.

 Q-Chem warning in module forms1/BasisType.C, line 2236:

 You are not using the predefined 5D/6D in this basis set.


--------------------------------------------------------------
User input:
--------------------------------------------------------------
$molecule
0 1
C	-0.147685	-8.517702	0.284919
C	0.212552	-7.641575	-0.728574
S	-0.661757	-7.638634	1.745304
C	0.083761	-6.264785	-0.374824
H	0.565513	-7.966081	-1.715621
C	-0.405665	-6.072714	0.965104
C	-0.574617	-4.787049	1.502136
C	0.413763	-5.162801	-1.214687
C	0.248748	-3.874817	-0.675870
C	-0.243888	-3.683952	0.664513
O	0.838511	-5.499772	-2.464209
O	-1.000176	-4.459055	2.757750
C	-1.893778	-5.329063	3.441858
H	-2.284868	-4.755694	4.303826
H	-1.383341	-6.238095	3.828743
H	-2.741817	-5.637262	2.792824
C	1.586168	-4.572261	-3.241222
H	1.974033	-5.139743	-4.108274
H	2.441448	-4.153131	-2.668916
H	0.954660	-3.739531	-3.620041
C	-0.369302	-2.306654	1.015668
S	0.517367	-2.306501	-1.453394
C	-0.000000	-1.435185	-0.000000
H	-0.724300	-1.978138	2.000559
H	-0.145124	-9.614033	0.288311
C	0.000000	0.000000	0.000000
S	0.382799	0.819795	1.507541
C	1.046687	2.245325	0.718873
C	0.382918	0.819389	-1.067872
C	0.968323	2.080267	-0.686410
S	0.282561	0.597432	-2.805516
C	1.017839	2.187324	-3.054530
C	1.314960	2.830306	-1.862551
F	1.875498	4.043751	-1.819088
C	1.208895	2.592573	-4.456084
O	0.890778	1.891482	-5.406510
O	1.772886	3.819715	-4.569225
C	1.986852	4.266207	-5.916207
H	2.445834	5.267032	-5.833064
H	1.028114	4.323448	-6.470168
H	2.661066	3.573494	-6.459293
H	1.436015	3.083584	1.306486
$end

$rem
JOBTYPE		SP
EXCHANGE	HF
CORRELATION	pRIMP2
BASIS		cc-pvtz
METHOD		rimp2
AUX_BASIS	rimp2-cc-pvtz
SOLVENT_METHOD	PCM
PURECART	11111
SYMMETRY	false
MEM_TOTAL	110000
SCF_CONVERGENCE = 6
THRESH=10
GUI = 2
$end



$solvent
dielectric 4.90
$end
--------------------------------------------------------------
 ----------------------------------------------------------------
             Standard Nuclear Orientation (Angstroms)
    I     Atom           X                Y                Z
 ----------------------------------------------------------------
    1      C      -0.1476850000    -8.5177020000     0.2849190000
    2      C       0.2125520000    -7.6415750000    -0.7285740000
    3      S      -0.6617570000    -7.6386340000     1.7453040000
    4      C       0.0837610000    -6.2647850000    -0.3748240000
    5      H       0.5655130000    -7.9660810000    -1.7156210000
    6      C      -0.4056650000    -6.0727140000     0.9651040000
    7      C      -0.5746170000    -4.7870490000     1.5021360000
    8      C       0.4137630000    -5.1628010000    -1.2146870000
    9      C       0.2487480000    -3.8748170000    -0.6758700000
   10      C      -0.2438880000    -3.6839520000     0.6645130000
   11      O       0.8385110000    -5.4997720000    -2.4642090000
   12      O      -1.0001760000    -4.4590550000     2.7577500000
   13      C      -1.8937780000    -5.3290630000     3.4418580000
   14      H      -2.2848680000    -4.7556940000     4.3038260000
   15      H      -1.3833410000    -6.2380950000     3.8287430000
   16      H      -2.7418170000    -5.6372620000     2.7928240000
   17      C       1.5861680000    -4.5722610000    -3.2412220000
   18      H       1.9740330000    -5.1397430000    -4.1082740000
   19      H       2.4414480000    -4.1531310000    -2.6689160000
   20      H       0.9546600000    -3.7395310000    -3.6200410000
   21      C      -0.3693020000    -2.3066540000     1.0156680000
   22      S       0.5173670000    -2.3065010000    -1.4533940000
   23      C       0.0000000000    -1.4351850000     0.0000000000
   24      H      -0.7243000000    -1.9781380000     2.0005590000
   25      H      -0.1451240000    -9.6140330000     0.2883110000
   26      C       0.0000000000     0.0000000000     0.0000000000
   27      S       0.3827990000     0.8197950000     1.5075410000
   28      C       1.0466870000     2.2453250000     0.7188730000
   29      C       0.3829180000     0.8193890000    -1.0678720000
   30      C       0.9683230000     2.0802670000    -0.6864100000
   31      S       0.2825610000     0.5974320000    -2.8055160000
   32      C       1.0178390000     2.1873240000    -3.0545300000
   33      C       1.3149600000     2.8303060000    -1.8625510000
   34      F       1.8754980000     4.0437510000    -1.8190880000
   35      C       1.2088950000     2.5925730000    -4.4560840000
   36      O       0.8907780000     1.8914820000    -5.4065100000
   37      O       1.7728860000     3.8197150000    -4.5692250000
   38      C       1.9868520000     4.2662070000    -5.9162070000
   39      H       2.4458340000     5.2670320000    -5.8330640000
   40      H       1.0281140000     4.3234480000    -6.4701680000
   41      H       2.6610660000     3.5734940000    -6.4592930000
   42      H       1.4360150000     3.0835840000     1.3064860000
 ----------------------------------------------------------------
 Nuclear Repulsion Energy =        3302.10790633 hartrees
 There are      119 alpha and      119 beta electrons
 Requested basis set is cc-pVTZ
 There are 376 shells and 1068 basis functions

 Total QAlloc Memory Limit 110000 MB
 Mega-Array Size       188 MB
 MEM_STATIC part       192 MB
 Discretize the solute cavity surface with Lebedev spheres
	Using 110 Lebedev grid points for each H atom
	Using 194 Lebedev grid points for other atoms
	Atomic van der Waals radii will be scaled by 1.20
 Remove points where switching function is < 1.0e-08
 Keep 2892 surface tesserae and discard 4164 interior tesserae
 Molecular Surface Area = 435.863 Angst**2
 Requested basis set is rimp2-cc-pVTZ
 There are 833 shells and 2903 basis functions
 A cutoff of  1.0D-10 yielded  31140 shell pairs
 There are    239092 function pairs (    310396 Cartesian)
 Smallest overlap matrix eigenvalue = 2.15E-05

 Scale SEOQF with 1.000000e-01/1.000000e-02/1.000000e-02

 Standard Electronic Orientation quadrupole field applied
 Nucleus-field energy     =     0.0000000233 hartrees
 Guess from superposition of atomic densities
 Warning:  Energy on first SCF cycle will be non-variational
 SAD guess density has 238.000000 electrons

 -----------------------------------------------------------------------
  General SCF calculation program by
  Eric Jon Sundstrom, Paul Horn, Yuezhi Mao, Dmitri Zuev, Alec White,
  David Stuck, Shaama M.S., Shane Yost, Joonho Lee, David Small,
  Daniel Levine, Susi Lehtola, Hugh Burton, Evgeny Epifanovsky,
  Bang C. Huynh
 -----------------------------------------------------------------------
 Hartree-Fock
 using 64 threads for integral computing
 -------------------------------------------------------
 OpenMP Integral computing Module                
 Release: version 1.0, May 2013, Q-Chem Inc. Pittsburgh 
 -------------------------------------------------------
 A restricted SCF calculation will be
 performed using DIIS
 SCF converges when DIIS error is below 1.0e-06
 ---------------------------------------
  Cycle       Energy         DIIS error
 ---------------------------------------
    1   -2765.2519772015      1.75e-02  
    2   -2753.8690868859      1.56e-03  
    3   -2754.2086734047      8.64e-04  
    4   -2754.2906374002      2.56e-04  
    5   -2754.3023329650      6.94e-05  
    6   -2754.3034275265      2.39e-05  
    7   -2754.3036689577      1.15e-05  
    8   -2754.3037496596      4.34e-06  
    9   -2754.3037652696      1.72e-06  
   10   -2754.3037672701      7.46e-07  Convergence criterion met
 ---------------------------------------
 SCF time:   CPU 6388.52s  wall 245.00s 

************** Final PCM Free Energy Summary **************
 G_electrostatic  =      -0.01884175 hartree =     -11.82337649 kcal/mol
 G_cavitation     =       0.00000000 hartree =       0.00000000 kcal/mol
 G_dispersion     =       0.00000000 hartree =       0.00000000 kcal/mol
 G_repulsion      =       0.00000000 hartree =       0.00000000 kcal/mol
 --------------------------------------------------
 Non-electrostatic Free Energy =       0.00000000 hartree =       0.00000000 kcal/mol
 Total                         =      -0.01884175 hartree =     -11.82337649 kcal/mol
 --------------------------------------------------
 SCF Energy (H0 + V/2)                       =   -2754.30376727 
 Solute Internal Energy (H0)                 =   -2754.28492552 
 Total Free Energy (H0 + V/2 + non-elec)     =   -2754.30376727 hartree
                                             = -1728351.69997296 kcal/mol
***********************************************************

 SCF   energy in the final basis set =    -2754.3037672701
 Total energy in the final basis set =    -2754.3037672701


 --------------------------------------------------------------
  Generalized many-body perturbation theory program
  by Joonho Lee, Fazle Rob, Xintian Feng, Evgeny Epifanovsky

 No regularization used 
 (reg. param. = 0.0000e+00)
  (P|Q)^-1/2 Time:  CPU 233.31 s  wall 3.79 s

 In RI-MP2 calculation: 
 # of frozen core orbitals: 45

 Components of the RIMP2 correlation energy:
        aaaa    correlation energy =        -0.6707292954 a.u.
        abab    correlation energy =        -3.7147823662 a.u.
        bbbb    correlation energy =        -0.6707292954 a.u.
        non-Brillouin singles      =        -0.0000000000 a.u.
        total same-spin energy     =        -1.3414585909 a.u.
        total opposite-spin energy =        -3.7147823662 a.u.

 Total  RIMP2   correlation energy =        -5.0562409571 a.u.
        RIMP2         total energy =     -2759.3600082272 a.u.

 RI-MP2 Energy Time:  CPU 3366.75 s  wall 55.06 s
 
 --------------------------------------------------------------
 
                    Orbital Energies (a.u.)
 --------------------------------------------------------------
 
 Alpha MOs
 -- Occupied --
-92.0150 -92.0004 -91.9891 -91.9854 -26.3440 -20.6150 -20.5919 -20.5903
-20.5615 -11.4097 -11.3834 -11.3191 -11.3152 -11.3151 -11.3042 -11.2977
-11.2972 -11.2963 -11.2890 -11.2863 -11.2863 -11.2856 -11.2840 -11.2834
-11.2780 -11.2609 -11.2567 -11.2509 -11.2493  -9.0137  -9.0006  -8.9897
 -8.9854  -6.6945  -6.6939  -6.6933  -6.6815  -6.6808  -6.6797  -6.6707
 -6.6700  -6.6690  -6.6664  -6.6657  -6.6649  -1.6610  -1.4675  -1.4159
 -1.4131  -1.3702  -1.2244  -1.1935  -1.1651  -1.1372  -1.0856  -1.0511
 -1.0422  -1.0249  -1.0011  -0.9876  -0.9645  -0.9579  -0.9494  -0.9411
 -0.8951  -0.8689  -0.8501  -0.8156  -0.7924  -0.7871  -0.7846  -0.7646
 -0.7555  -0.7331  -0.7258  -0.7106  -0.6986  -0.6859  -0.6830  -0.6818
 -0.6741  -0.6589  -0.6581  -0.6519  -0.6304  -0.6191  -0.6163  -0.6042
 -0.5983  -0.5829  -0.5793  -0.5689  -0.5670  -0.5589  -0.5577  -0.5524
 -0.5326  -0.5294  -0.5241  -0.5186  -0.5167  -0.5112  -0.5061  -0.4952
 -0.4868  -0.4799  -0.4766  -0.4747  -0.4702  -0.4629  -0.4585  -0.4244
 -0.3938  -0.3844  -0.3589  -0.3521  -0.3252  -0.2899  -0.2484
 -- Virtual --
  0.0241   0.0591   0.1076   0.1247   0.1403   0.1443   0.1533   0.1556
  0.1572   0.1604   0.1616   0.1772   0.1819   0.1850   0.1901   0.1950
  0.2024   0.2045   0.2147   0.2151   0.2196   0.2232   0.2259   0.2272
  0.2349   0.2370   0.2468   0.2554   0.2585   0.2650   0.2756   0.2871
  0.3005   0.3141   0.3211   0.3287   0.3388   0.3390   0.3466   0.3535
  0.3590   0.3655   0.3721   0.3808   0.3836   0.3846   0.3878   0.3888
  0.3906   0.3941   0.4030   0.4069   0.4120   0.4164   0.4183   0.4260
  0.4331   0.4353   0.4431   0.4452   0.4478   0.4504   0.4570   0.4625
  0.4653   0.4672   0.4721   0.4768   0.4814   0.4838   0.4892   0.4933
  0.4971   0.4997   0.5036   0.5074   0.5107   0.5170   0.5217   0.5243
  0.5290   0.5330   0.5353   0.5361   0.5431   0.5446   0.5463   0.5489
  0.5512   0.5590   0.5609   0.5648   0.5660   0.5712   0.5730   0.5805
  0.5846   0.5895   0.5931   0.5978   0.6051   0.6052   0.6093   0.6119
  0.6150   0.6182   0.6214   0.6220   0.6269   0.6284   0.6327   0.6356
  0.6388   0.6401   0.6455   0.6476   0.6541   0.6600   0.6625   0.6674
  0.6728   0.6836   0.6847   0.6896   0.6931   0.6971   0.7034   0.7097
  0.7104   0.7181   0.7234   0.7274   0.7344   0.7390   0.7458   0.7532
  0.7561   0.7603   0.7620   0.7696   0.7786   0.7926   0.7978   0.8029
  0.8055   0.8137   0.8164   0.8286   0.8312   0.8379   0.8399   0.8441
  0.8466   0.8571   0.8618   0.8653   0.8705   0.8772   0.8810   0.8884
  0.8925   0.8976   0.9021   0.9109   0.9120   0.9138   0.9222   0.9244
  0.9298   0.9386   0.9413   0.9471   0.9528   0.9558   0.9587   0.9720
  0.9752   0.9769   0.9816   0.9874   0.9927   0.9974   1.0016   1.0027
  1.0075   1.0108   1.0174   1.0196   1.0264   1.0315   1.0362   1.0429
  1.0477   1.0565   1.0584   1.0638   1.0702   1.0764   1.0777   1.0819
  1.0864   1.0879   1.0972   1.0991   1.1016   1.1037   1.1077   1.1129
  1.1168   1.1236   1.1265   1.1323   1.1382   1.1462   1.1511   1.1546
  1.1626   1.1684   1.1718   1.1804   1.1835   1.1855   1.1941   1.1966
  1.1997   1.2044   1.2105   1.2156   1.2179   1.2201   1.2277   1.2345
  1.2360   1.2398   1.2466   1.2491   1.2517   1.2625   1.2649   1.2723
  1.2752   1.2820   1.2865   1.2959   1.3054   1.3093   1.3198   1.3237
  1.3251   1.3297   1.3379   1.3398   1.3518   1.3563   1.3582   1.3694
  1.3756   1.3850   1.3867   1.3941   1.4070   1.4127   1.4184   1.4229
  1.4274   1.4353   1.4462   1.4576   1.4703   1.4735   1.4816   1.4879
  1.4930   1.5005   1.5026   1.5040   1.5081   1.5136   1.5242   1.5338
  1.5380   1.5390   1.5406   1.5415   1.5484   1.5487   1.5565   1.5694
  1.5750   1.5868   1.5900   1.5961   1.6019   1.6139   1.6198   1.6332
  1.6369   1.6398   1.6505   1.6567   1.6614   1.6704   1.6731   1.6780
  1.6838   1.6932   1.6950   1.7058   1.7180   1.7239   1.7365   1.7508
  1.7559   1.7617   1.7691   1.7780   1.7910   1.8014   1.8123   1.8171
  1.8230   1.8298   1.8409   1.8481   1.8637   1.8654   1.8686   1.8729
  1.8805   1.8956   1.9035   1.9121   1.9145   1.9196   1.9230   1.9400
  1.9463   1.9516   1.9570   1.9670   1.9673   1.9747   1.9765   1.9836
  1.9951   2.0053   2.0108   2.0199   2.0224   2.0409   2.0493   2.0630
  2.0771   2.0810   2.0857   2.0928   2.1006   2.1195   2.1274   2.1476
  2.1493   2.1588   2.1627   2.1706   2.1761   2.1807   2.1924   2.1960
  2.1996   2.2051   2.2118   2.2190   2.2234   2.2281   2.2371   2.2397
  2.2507   2.2536   2.2570   2.2661   2.2714   2.2805   2.2875   2.2907
  2.3003   2.3040   2.3125   2.3255   2.3333   2.3380   2.3511   2.3585
  2.3677   2.3736   2.3834   2.3866   2.3968   2.4018   2.4110   2.4241
  2.4312   2.4344   2.4368   2.4493   2.4582   2.4736   2.4822   2.4903
  2.4962   2.5032   2.5188   2.5237   2.5346   2.5389   2.5481   2.5601
  2.5626   2.5679   2.5820   2.5933   2.6002   2.6169   2.6184   2.6189
  2.6248   2.6283   2.6366   2.6376   2.6431   2.6484   2.6617   2.6680
  2.6784   2.6809   2.6906   2.6940   2.6987   2.7068   2.7111   2.7159
  2.7220   2.7271   2.7304   2.7455   2.7481   2.7557   2.7575   2.7713
  2.7755   2.7833   2.7888   2.7946   2.7988   2.8084   2.8122   2.8165
  2.8238   2.8328   2.8400   2.8477   2.8504   2.8564   2.8624   2.8697
  2.8748   2.8783   2.8823   2.8879   2.8954   2.9047   2.9203   2.9294
  2.9463   2.9502   2.9518   2.9578   2.9755   2.9798   2.9818   2.9894
  3.0065   3.0089   3.0176   3.0220   3.0229   3.0271   3.0329   3.0386
  3.0472   3.0531   3.0601   3.0672   3.0804   3.0822   3.0952   3.0995
  3.1006   3.1093   3.1123   3.1206   3.1238   3.1287   3.1363   3.1442
  3.1518   3.1543   3.1549   3.1599   3.1656   3.1729   3.1769   3.1854
  3.1855   3.1955   3.1980   3.2099   3.2156   3.2178   3.2234   3.2286
  3.2325   3.2397   3.2457   3.2510   3.2528   3.2579   3.2651   3.2686
  3.2756   3.2790   3.2871   3.2884   3.2911   3.2931   3.2967   3.3029
  3.3074   3.3194   3.3278   3.3319   3.3338   3.3408   3.3433   3.3475
  3.3533   3.3571   3.3624   3.3647   3.3697   3.3743   3.3752   3.3806
  3.3834   3.3863   3.3918   3.3968   3.4032   3.4066   3.4086   3.4135
  3.4198   3.4278   3.4292   3.4340   3.4388   3.4447   3.4471   3.4547
  3.4615   3.4628   3.4648   3.4675   3.4745   3.4846   3.4856   3.4866
  3.4882   3.4967   3.5098   3.5121   3.5206   3.5290   3.5311   3.5333
  3.5421   3.5464   3.5509   3.5597   3.5608   3.5664   3.5704   3.5794
  3.5854   3.5904   3.5916   3.5967   3.5986   3.6003   3.6091   3.6117
  3.6216   3.6281   3.6300   3.6368   3.6404   3.6520   3.6529   3.6590
  3.6683   3.6742   3.6754   3.6835   3.6880   3.6920   3.6960   3.7036
  3.7059   3.7123   3.7173   3.7197   3.7275   3.7338   3.7374   3.7424
  3.7456   3.7535   3.7592   3.7661   3.7696   3.7744   3.7839   3.7871
  3.7919   3.7961   3.8037   3.8087   3.8109   3.8149   3.8203   3.8232
  3.8308   3.8391   3.8474   3.8546   3.8574   3.8639   3.8704   3.8751
  3.8772   3.8804   3.8869   3.8912   3.9019   3.9044   3.9123   3.9143
  3.9271   3.9322   3.9415   3.9474   3.9522   3.9580   3.9639   3.9820
  3.9870   3.9906   3.9999   4.0052   4.0138   4.0266   4.0281   4.0327
  4.0411   4.0501   4.0565   4.0678   4.0712   4.0758   4.0880   4.0889
  4.1112   4.1162   4.1222   4.1320   4.1339   4.1383   4.1445   4.1533
  4.1575   4.1665   4.1680   4.1715   4.1824   4.1866   4.1905   4.2028
  4.2065   4.2100   4.2151   4.2332   4.2436   4.2519   4.2597   4.2658
  4.2734   4.2858   4.3066   4.3124   4.3224   4.3295   4.3396   4.3420
  4.3461   4.3584   4.3642   4.3703   4.3739   4.3859   4.3918   4.3982
  4.4055   4.4099   4.4151   4.4235   4.4298   4.4335   4.4378   4.4575
  4.4583   4.4759   4.4846   4.4923   4.4929   4.4998   4.5192   4.5247
  4.5308   4.5397   4.5413   4.5560   4.5600   4.5663   4.5810   4.5828
  4.5974   4.6063   4.6168   4.6289   4.6377   4.6464   4.6528   4.6564
  4.6635   4.6643   4.6779   4.6914   4.6962   4.7085   4.7284   4.7446
  4.7497   4.7573   4.7684   4.7723   4.7766   4.7940   4.8085   4.8226
  4.8297   4.8405   4.8447   4.8513   4.8599   4.8755   4.8821   4.8958
  4.9201   4.9449   4.9494   4.9540   4.9620   4.9748   4.9806   4.9934
  5.0050   5.0088   5.0108   5.0285   5.0388   5.0507   5.0654   5.0747
  5.0829   5.0955   5.1168   5.1251   5.1613   5.1662   5.1739   5.1972
  5.2085   5.2195   5.2386   5.2511   5.2516   5.2562   5.2587   5.2818
  5.2958   5.3116   5.3119   5.3275   5.3446   5.3510   5.3608   5.3666
  5.3762   5.3983   5.3989   5.4044   5.4261   5.4339   5.4634   5.4646
  5.4650   5.4848   5.4987   5.5093   5.5142   5.5219   5.5372   5.5533
  5.5750   5.5824   5.5862   5.6067   5.6173   5.6215   5.6415   5.6646
  5.7179   5.7273   5.7563   5.7886   5.8073   5.8190   5.8328   5.8561
  5.8743   5.8806   5.9138   5.9288   5.9303   5.9857   5.9936   6.0416
  6.0585   6.0728   6.1093   6.1503   6.1674   6.1731   6.1785   6.1952
  6.2408   6.2528   6.2613   6.2686   6.2817   6.2847   6.3126   6.3305
  6.4245   6.4476   6.4499   6.4791   6.5386   6.5496   6.5577   6.6031
  6.6545   6.6610   6.6710   6.6975   6.7452   6.8004   6.8297   6.8412
  6.8595   6.8938   6.9781   7.1210   7.1377   7.2037   7.2058   7.2168
  7.2349   7.3098   7.3207   7.3328   7.3626   7.3633   7.4051   7.4131
  7.4795   7.4851   7.4891   7.5232   7.5499   7.6158   7.7181   7.7723
  7.7891   7.7968   7.8978   7.9172   7.9447   7.9671   8.1239   8.1336
  8.4510   8.9215   9.0184   9.3626   9.4728   9.6574  10.0597  10.5212
 11.1691  11.4071  11.7742  11.9590  12.1312  12.1714  12.4154  12.5828
 12.6714  12.9466  13.0239  13.2395  13.3315  13.3871  13.7750  13.8492
 13.9095  14.0217  14.0307  14.4814  15.2107
 --------------------------------------------------------------
 
          Ground-State Mulliken Net Atomic Charges

     Atom                 Charge (a.u.)
  ----------------------------------------
      1 C                    -0.192545
      2 C                    -0.253550
      3 S                    -0.024240
      4 C                    -0.020145
      5 H                     0.196091
      6 C                    -0.026363
      7 C                     0.234198
      8 C                     0.244713
      9 C                    -0.043975
     10 C                    -0.008031
     11 O                    -0.332910
     12 O                    -0.340970
     13 C                    -0.085603
     14 H                     0.121869
     15 H                     0.090775
     16 H                     0.093795
     17 C                    -0.089762
     18 H                     0.125933
     19 H                     0.094691
     20 H                     0.091227
     21 C                    -0.275743
     22 S                    -0.031930
     23 C                     0.020062
     24 H                     0.188440
     25 H                     0.205835
     26 C                     0.029208
     27 S                     0.108938
     28 C                    -0.187070
     29 C                    -0.052176
     30 C                    -0.096472
     31 S                     0.023017
     32 C                    -0.165163
     33 C                     0.410383
     34 F                    -0.206424
     35 C                     0.443874
     36 O                    -0.461072
     37 O                    -0.300900
     38 C                    -0.058457
     39 H                     0.121495
     40 H                     0.095262
     41 H                     0.095061
     42 H                     0.218635
  ----------------------------------------
  Sum of atomic charges =     0.000000

 -----------------------------------------------------------------
                    Cartesian Multipole Moments
 -----------------------------------------------------------------
    Charge (ESU x 10^10)
                 0.0000
    Dipole Moment (Debye)
         X       1.2255      Y       1.5831      Z       2.5220
       Tot       3.2200
    Quadrupole Moments (Debye-Ang)
        XX    -191.6108     XY       7.4099     YY    -165.4213
        XZ     -14.6705     YZ      -5.6982     ZZ    -188.3953
    Octopole Moments (Debye-Ang^2)
       XXX    -204.7666    XXY     371.9358    XYY     -57.0403
       YYY     912.7886    XXZ     150.7853    XYZ      33.3144
       YYZ     108.7341    XZZ     -34.0206    YZZ     398.7774
       ZZZ     505.8792
    Hexadecapole Moments (Debye-Ang^3)
      XXXX   -1264.0286   XXXY    -905.9912   XXYY   -3864.2472
      XYYY    -780.6835   YYYY  -18921.2500   XXXZ    1071.8162
      XXYZ     578.9129   XYYZ     -42.8864   YYYZ    1650.9536
      XXZZ   -1257.7358   XYZZ     -43.5909   YYZZ   -4120.6284
      XZZZ     747.5146   YZZZ    1442.9142   ZZZZ   -7256.6551
 -----------------------------------------------------------------
 Total job time:  308.07s(wall), 9945.54s(cpu) 
 Mon Jan  8 19:02:56 2024

        *************************************************************
        *                                                           *
        *  Thank you very much for using Q-Chem.  Have a nice day.  *
        *                                                           *
        *************************************************************


0 sent ACK to 0 
now end server 0 ... 
cleanup process ... done
remove work dirs ./qchem2709040.0 -- ./qchem2709040.0
rm -rf ./qchem2709040.0
rm -rf ./qchem2709040
