You are running Q-Chem version: 5.4.0

#
# job setting
#
local host:  exp-7-31
current dir: /home/rramji/project-csd799/aromodel/ptb7fout-qchem/rotation-run
input file:  Dimethoxy_Benzodithiophene_Phi_15_Theta_10_Methylcarbonyl_3_Fluoro_Thienothiophene.qcin
output file: 
nprocs     : 1
nthreads   : 64
#
# qchem installation setting
#
QC:          /cm/shared/apps/spack/cpu/opt/spack/linux-centos8-zen2/gcc-10.2.0/qchem-5.4-akfmr7b3t57bfs6qan3padb2wnb2i7cl
QCAUX:       /cm/shared/apps/spack/cpu/opt/spack/linux-centos8-zen2/gcc-10.2.0/qchem-5.4-akfmr7b3t57bfs6qan3padb2wnb2i7cl/qcaux
QCPROG:      /cm/shared/apps/spack/cpu/opt/spack/linux-centos8-zen2/gcc-10.2.0/qchem-5.4-akfmr7b3t57bfs6qan3padb2wnb2i7cl/exe/qcprog.exe
QCPROG_S:    /cm/shared/apps/spack/cpu/opt/spack/linux-centos8-zen2/gcc-10.2.0/qchem-5.4-akfmr7b3t57bfs6qan3padb2wnb2i7cl/exe/qcprog.exe_s
PARALLEL:    -DPARALLEL
QCMPI:       mpich
#
# qchem directory setting
#
qcrun:       qchem3963936
QCSCRATCH:   .
QCLOCALSCR:  
QCTMPDIR:    .
QCFILEPREF:  ./qchem3963936
QCSAVEDIR:   
workdirs:    ./qchem3963936
workdir0:    ./qchem3963936
partmpdirs =  
#
# parallel setting
#
QCRSH:           ssh
QCMPI:           mpich
QCMPIRUN:        /cm/shared/apps/spack/cpu/opt/spack/linux-centos8-zen2/gcc-10.2.0/qchem-5.4-akfmr7b3t57bfs6qan3padb2wnb2i7cl/bin/mpi/mpirun_qchem
QCMACHINEFILE:   ./qchem3963936/hostfile
exp-7-31

#
# env setting
#
exported envs:   QC QCAUX QCSCRATCH QCRUNNAME QCFILEPREF QCPROG QCPROG_S GUIFILE

Running Job 1 of 1 Dimethoxy_Benzodithiophene_Phi_15_Theta_10_Methylcarbonyl_3_Fluoro_Thienothiophene.qcin
qchem Dimethoxy_Benzodithiophene_Phi_15_Theta_10_Methylcarbonyl_3_Fluoro_Thienothiophene.qcin_3963936.0 ./qchem3963936/ 1
/cm/shared/apps/spack/cpu/opt/spack/linux-centos8-zen2/gcc-10.2.0/qchem-5.4-akfmr7b3t57bfs6qan3padb2wnb2i7cl/bin/mpi/mpirun_qchem -machinefile ./qchem3963936/hostfile -np 1 /cm/shared/apps/spack/cpu/opt/spack/linux-centos8-zen2/gcc-10.2.0/qchem-5.4-akfmr7b3t57bfs6qan3padb2wnb2i7cl/exe/qcprog.exe Dimethoxy_Benzodithiophene_Phi_15_Theta_10_Methylcarbonyl_3_Fluoro_Thienothiophene.qcin_3963936.0 ./qchem3963936/

Process 0 of 1 is on exp-7-31 - thread support 0
initial socket setup ...start
initial socket setup ...done 
now start server 0 ... 
                  Welcome to Q-Chem
     A Quantum Leap Into The Future Of Chemistry


 Q-Chem 5.4, Q-Chem, Inc., Pleasanton, CA (2021)

 License issued to: University of California, San Diego (site)

 E. Epifanovsky,  A. T. B. Gilbert,  Xintian Feng,  Joonho Lee,  Yuezhi Mao,  
 N. Mardirossian,  P. Pokhilko,  A. White,  M. Wormit,  M. P. Coons,  
 A. L. Dempwolff,  Zhengting Gan,  D. Hait,  P. R. Horn,  L. D. Jacobson,  
 I. Kaliman,  J. Kussmann,  A. W. Lange,  Ka Un Lao,  D. S. Levine,  Jie Liu,  
 S. C. McKenzie,  A. F. Morrison,  K. Nanda,  F. Plasser,  D. R. Rehn,  
 M. L. Vidal,  Zhi-Qiang You,  Ying Zhu,  B. Alam,  B. Albrecht,  
 A. Aldossary,  E. Alguire,  J. H. Andersen,  D. Barton,  K. Begam,  A. Behn,  
 Y. A. Bernard,  E. J. Berquist,  H. Burton,  A. Carreras,  K. Carter-Fenk,  
 R. Chakraborty,  A. D. Chien,  K. D. Closser,  V. Cofer-Shabica,  
 S. Dasgupta,  Jia Deng,  M. de Wergifosse,  M. Diedenhofen,  Hainam Do,  
 S. Ehlert,  Po-Tung Fang,  S. Fatehi,  Qingguo Feng,  J. Gayvert,  
 Qinghui Ge,  G. Gidofalvi,  M. Goldey,  J. Gomes,  C. Gonzalez-Espinoza,  
 S. Gulania,  A. Gunina,  M. W. D. Hanson-Heine,  P. H. P. Harbach,  
 A. W. Hauser,  M. F. Herbst,  M. Hernandez Vera,  M. Hodecker,  
 Z. C. Holden,  S. Houck,  Xunkun Huang,  Kerwin Hui,  B. C. Huynh,  
 M. Ivanov,  Hyunjun Ji,  Hanjie Jiang,  B. Kaduk,  S. Kaehler,  
 K. Khistyaev,  Jaehoon Kim,  P. Klunzinger,  Z. Koczor-Benda,  
 Joong Hoon Koh,  D. Kosenkov,  L. Koulias,  T. Kowalczyk,  C. M. Krauter,  
 K. Kue,  A. Kunitsa,  T. Kus,  A. Landau,  K. V. Lawler,  D. Lefrancois,  
 S. Lehtola,  Rain Li,  Yi-Pei Li,  Jiashu Liang,  M. Liebenthal,  
 Hung-Hsuan Lin,  You-Sheng Lin,  Fenglai Liu,  Kuan-Yu Liu,  
 M. Loipersberger,  A. Luenser,  A. Manjanath,  P. Manohar,  E. Mansoor,  
 S. F. Manzer,  Shan-Ping Mao,  A. V. Marenich,  T. Markovich,  S. Mason,  
 S. A. Maurer,  P. F. McLaughlin,  M. F. S. J. Menger,  J.-M. Mewes,  
 S. A. Mewes,  P. Morgante,  J. W. Mullinax,  T. S. Nguyen-Beck,  
 K. J. Oosterbaan,  G. Paran,  Alexander C. Paul,  Suranjan K. Paul,  
 F. Pavosevic,  Zheng Pei,  S. Prager,  E. I. Proynov,  E. Ramos,  B. Rana,  
 A. E. Rask,  A. Rettig,  R. M. Richard,  F. Rob,  E. Rossomme,  T. Scheele,  
 M. Scheurer,  M. Schneider,  N. Sergueev,  S. M. Sharada,  W. Skomorowski,  
 D. W. Small,  C. J. Stein,  Yu-Chuan Su,  E. J. Sundstrom,  Zhen Tao,  
 J. Thirman,  T. Tsuchimochi,  N. M. Tubman,  S. P. Veccham,  O. Vydrov,  
 J. Wenzel,  J. Witte,  A. Yamada,  Kun Yao,  S. Yeganeh,  S. R. Yost,  
 A. Zech,  Igor Ying Zhang,  Xing Zhang,  Yu Zhang,  D. Zuev,  
 A. Aspuru-Guzik,  A. T. Bell,  N. A. Besley,  K. B. Bravaya,  B. R. Brooks,  
 D. Casanova,  Jeng-Da Chai,  S. Coriani,  C. J. Cramer,  
 A. E. DePrince, III,  R. A. DiStasio Jr.,  A. Dreuw,  B. D. Dunietz,  
 T. R. Furlani,  W. A. Goddard III,  S. Grimme,  S. Hammes-Schiffer,  
 T. Head-Gordon,  W. J. Hehre,  Chao-Ping Hsu,  T.-C. Jagau,  Yousung Jung,  
 A. Klamt,  Jing Kong,  D. S. Lambrecht,  WanZhen Liang,  N. J. Mayhall,  
 C. W. McCurdy,  J. B. Neaton,  C. Ochsenfeld,  J. A. Parkhill,  R. Peverati,  
 V. A. Rassolov,  Yihan Shao,  L. V. Slipchenko,  T. Stauch,  R. P. Steele,  
 J. E. Subotnik,  A. J. W. Thom,  A. Tkatchenko,  D. G. Truhlar,  
 T. Van Voorhis,  T. A. Wesolowski,  K. B. Whaley,  H. L. Woodcock III,  
 P. M. Zimmerman,  S. Faraji,  P. M. W. Gill,  M. Head-Gordon,  
 J. M. Herbert,  A. I. Krylov

 Contributors to earlier versions of Q-Chem not listed above: 
 R. D. Adamson,  B. Austin,  R. Baer,  J. Baker,  G. J. O. Beran,  
 K. Brandhorst,  S. T. Brown,  E. F. C. Byrd,  A. K. Chakraborty,  
 G. K. L. Chan,  Chun-Min Chang,  Yunqing Chen,  C.-L. Cheng,  
 Siu Hung Chien,  D. M. Chipman,  D. L. Crittenden,  H. Dachsel,  
 R. J. Doerksen,  A. D. Dutoi,  R. G. Edgar,  J. Fosso-Tande,  
 L. Fusti-Molnar,  D. Ghosh,  A. Ghysels,  A. Golubeva-Zadorozhnaya,  
 J. Gonthier,  M. S. Gordon,  S. R. Gwaltney,  G. Hawkins,  J. E. Herr,  
 A. Heyden,  S. Hirata,  E. G. Hohenstein,  G. Kedziora,  F. J. Keil,  
 C. Kelley,  Jihan Kim,  R. A. King,  R. Z. Khaliullin,  P. P. Korambath,  
 W. Kurlancheek,  A. Laurent,  A. M. Lee,  M. S. Lee,  S. V. Levchenko,  
 Ching Yeh Lin,  D. Liotard,  E. Livshits,  R. C. Lochan,  I. Lotan,  
 L. A. Martinez-Martinez,  P. E. Maslen,  N. Nair,  D. P. O'Neill,  
 D. Neuhauser,  E. Neuscamman,  C. M. Oana,  R. Olivares-Amaya,  R. Olson,  
 T. M. Perrine,  B. Peters,  P. A. Pieniazek,  A. Prociuk,  Y. M. Rhee,  
 J. Ritchie,  M. A. Rohrdanz,  E. Rosta,  N. J. Russ,  H. F. Schaefer III,  
 M. W. Schmidt,  N. E. Schultz,  S. Sharma,  N. Shenvi,  C. D. Sherrill,  
 A. C. Simmonett,  A. Sodt,  T. Stein,  D. Stuck,  K. S. Thanthiriwatte,  
 V. Vanovschi,  L. Vogt,  Tao Wang,  A. Warshel,  M. A. Watson,  
 C. F. Williams,  Q. Wu,  X. Xu,  Jun Yang,  W. Zhang,  Yan Zhao

 Please cite Q-Chem as follows:
 Y. Shao et al., Mol. Phys. 113, 184-215 (2015)
 DOI: 10.1080/00268976.2014.952696

 Q-Chem 5.4.0 for Intel X86 EM64T Linux

 Parts of Q-Chem use Armadillo 9.800.1 (Horizon Scraper).
 http://arma.sourceforge.net/

 Q-Chem begins on Mon Jan  8 18:52:29 2024  

 Host: 
0

     Scratch files written to ./qchem3963936//
 May1621 |scratch|qcdevops|jenkins|workspace|build_RNUM    
 Parallel job on  1  processors
 Processing $rem in /cm/shared/apps/spack/cpu/opt/spack/linux-centos8-zen2/gcc-10.2.0/qchem-5.4-akfmr7b3t57bfs6qan3padb2wnb2i7cl/config/preferences:
 Processing $rem in /home/rramji/.qchemrc:
 Symmetry turned off for PCM/SM12/SMD calculation
 Core orbitals will be frozen

 Checking the input file for inconsistencies... 	...done.

 Q-Chem warning in module forms1/BasisType.C, line 2236:

 You are not using the predefined 5D/6D in this basis set.


--------------------------------------------------------------
User input:
--------------------------------------------------------------
$molecule
0 1
C	-0.095966	-8.517702	0.306235
C	0.082807	-7.641575	-0.754415
S	-0.348635	-7.638634	1.833702
C	0.017401	-6.264785	-0.383675
H	0.259008	-7.966081	-1.787757
C	-0.231913	-6.072714	1.020885
C	-0.305044	-4.787049	1.579097
C	0.196549	-5.162801	-1.268082
C	0.127606	-3.874817	-0.708796
C	-0.124792	-3.683952	0.696769
O	0.397867	-5.499772	-2.572378
O	-0.506103	-4.459055	2.889532
C	-1.267335	-5.329063	3.718420
H	-1.502804	-4.755694	4.635204
H	-0.697471	-6.238095	4.010790
H	-2.215194	-5.637262	3.226506
C	0.999238	-4.572261	-3.467415
H	1.230649	-5.139743	-4.388648
H	1.940905	-4.153131	-3.052323
H	0.311543	-3.739531	-3.730819
C	-0.187323	-2.306654	1.064366
S	0.257128	-2.306501	-1.521154
C	-0.000000	-1.435185	-0.000000
H	-0.365903	-1.978138	2.095939
H	-0.092855	-9.614033	0.309131
C	0.000000	0.000000	0.000000
S	0.234628	0.873813	1.507541
C	0.640889	2.392969	0.718873
C	0.234815	0.873434	-1.067872
C	0.592377	2.216811	-0.686410
S	0.174526	0.637422	-2.805516
C	0.622551	2.330840	-3.054530
C	0.803505	3.015647	-1.862551
F	1.144815	4.307994	-1.819088
C	0.740334	2.763108	-4.456084
O	0.548793	2.017428	-5.406510
O	1.082665	4.069544	-4.569225
C	1.215848	4.546407	-5.916207
H	1.494066	5.611729	-5.833064
H	0.261736	4.436296	-6.470168
H	2.000108	3.981294	-6.459293
H	0.878739	3.286099	1.306486
$end

$rem
JOBTYPE		SP
EXCHANGE	HF
CORRELATION	pRIMP2
BASIS		cc-pvtz
METHOD		rimp2
AUX_BASIS	rimp2-cc-pvtz
SOLVENT_METHOD	PCM
PURECART	11111
SYMMETRY	false
MEM_TOTAL	110000
SCF_CONVERGENCE = 6
THRESH=10
GUI = 2
$end



$solvent
dielectric 4.90
$end
--------------------------------------------------------------
 ----------------------------------------------------------------
             Standard Nuclear Orientation (Angstroms)
    I     Atom           X                Y                Z
 ----------------------------------------------------------------
    1      C      -0.0959660000    -8.5177020000     0.3062350000
    2      C       0.0828070000    -7.6415750000    -0.7544150000
    3      S      -0.3486350000    -7.6386340000     1.8337020000
    4      C       0.0174010000    -6.2647850000    -0.3836750000
    5      H       0.2590080000    -7.9660810000    -1.7877570000
    6      C      -0.2319130000    -6.0727140000     1.0208850000
    7      C      -0.3050440000    -4.7870490000     1.5790970000
    8      C       0.1965490000    -5.1628010000    -1.2680820000
    9      C       0.1276060000    -3.8748170000    -0.7087960000
   10      C      -0.1247920000    -3.6839520000     0.6967690000
   11      O       0.3978670000    -5.4997720000    -2.5723780000
   12      O      -0.5061030000    -4.4590550000     2.8895320000
   13      C      -1.2673350000    -5.3290630000     3.7184200000
   14      H      -1.5028040000    -4.7556940000     4.6352040000
   15      H      -0.6974710000    -6.2380950000     4.0107900000
   16      H      -2.2151940000    -5.6372620000     3.2265060000
   17      C       0.9992380000    -4.5722610000    -3.4674150000
   18      H       1.2306490000    -5.1397430000    -4.3886480000
   19      H       1.9409050000    -4.1531310000    -3.0523230000
   20      H       0.3115430000    -3.7395310000    -3.7308190000
   21      C      -0.1873230000    -2.3066540000     1.0643660000
   22      S       0.2571280000    -2.3065010000    -1.5211540000
   23      C       0.0000000000    -1.4351850000     0.0000000000
   24      H      -0.3659030000    -1.9781380000     2.0959390000
   25      H      -0.0928550000    -9.6140330000     0.3091310000
   26      C       0.0000000000     0.0000000000     0.0000000000
   27      S       0.2346280000     0.8738130000     1.5075410000
   28      C       0.6408890000     2.3929690000     0.7188730000
   29      C       0.2348150000     0.8734340000    -1.0678720000
   30      C       0.5923770000     2.2168110000    -0.6864100000
   31      S       0.1745260000     0.6374220000    -2.8055160000
   32      C       0.6225510000     2.3308400000    -3.0545300000
   33      C       0.8035050000     3.0156470000    -1.8625510000
   34      F       1.1448150000     4.3079940000    -1.8190880000
   35      C       0.7403340000     2.7631080000    -4.4560840000
   36      O       0.5487930000     2.0174280000    -5.4065100000
   37      O       1.0826650000     4.0695440000    -4.5692250000
   38      C       1.2158480000     4.5464070000    -5.9162070000
   39      H       1.4940660000     5.6117290000    -5.8330640000
   40      H       0.2617360000     4.4362960000    -6.4701680000
   41      H       2.0001080000     3.9812940000    -6.4592930000
   42      H       0.8787390000     3.2860990000     1.3064860000
 ----------------------------------------------------------------
 Nuclear Repulsion Energy =        3293.18088595 hartrees
 There are      119 alpha and      119 beta electrons
 Requested basis set is cc-pVTZ
 There are 376 shells and 1068 basis functions

 Total QAlloc Memory Limit 110000 MB
 Mega-Array Size       188 MB
 MEM_STATIC part       192 MB
 Discretize the solute cavity surface with Lebedev spheres
	Using 110 Lebedev grid points for each H atom
	Using 194 Lebedev grid points for other atoms
	Atomic van der Waals radii will be scaled by 1.20
 Remove points where switching function is < 1.0e-08
 Keep 2904 surface tesserae and discard 4152 interior tesserae
 Molecular Surface Area = 435.133 Angst**2
 Requested basis set is rimp2-cc-pVTZ
 There are 833 shells and 2903 basis functions
 A cutoff of  1.0D-10 yielded  30987 shell pairs
 There are    238147 function pairs (    309249 Cartesian)
 Smallest overlap matrix eigenvalue = 2.14E-05

 Scale SEOQF with 1.000000e-01/1.000000e-02/1.000000e-02

 Standard Electronic Orientation quadrupole field applied
 Nucleus-field energy     =     0.0000000181 hartrees
 Guess from superposition of atomic densities
 Warning:  Energy on first SCF cycle will be non-variational
 SAD guess density has 238.000000 electrons

 -----------------------------------------------------------------------
  General SCF calculation program by
  Eric Jon Sundstrom, Paul Horn, Yuezhi Mao, Dmitri Zuev, Alec White,
  David Stuck, Shaama M.S., Shane Yost, Joonho Lee, David Small,
  Daniel Levine, Susi Lehtola, Hugh Burton, Evgeny Epifanovsky,
  Bang C. Huynh
 -----------------------------------------------------------------------
 Hartree-Fock
 using 64 threads for integral computing
 -------------------------------------------------------
 OpenMP Integral computing Module                
 Release: version 1.0, May 2013, Q-Chem Inc. Pittsburgh 
 -------------------------------------------------------
 A restricted SCF calculation will be
 performed using DIIS
 SCF converges when DIIS error is below 1.0e-06
 ---------------------------------------
  Cycle       Energy         DIIS error
 ---------------------------------------
    1   -2765.2436778319      1.75e-02  
    2   -2753.8768720864      1.56e-03  
    3   -2754.2165796681      8.63e-04  
    4   -2754.2984654710      2.56e-04  
    5   -2754.3101632317      6.95e-05  
    6   -2754.3112627254      2.39e-05  
    7   -2754.3115061319      1.15e-05  
    8   -2754.3115878462      4.36e-06  
    9   -2754.3116037090      1.75e-06  
   10   -2754.3116057689      7.69e-07  Convergence criterion met
 ---------------------------------------
 SCF time:   CPU 6443.16s  wall 244.00s 

************** Final PCM Free Energy Summary **************
 G_electrostatic  =      -0.01869506 hartree =     -11.73132987 kcal/mol
 G_cavitation     =       0.00000000 hartree =       0.00000000 kcal/mol
 G_dispersion     =       0.00000000 hartree =       0.00000000 kcal/mol
 G_repulsion      =       0.00000000 hartree =       0.00000000 kcal/mol
 --------------------------------------------------
 Non-electrostatic Free Energy =       0.00000000 hartree =       0.00000000 kcal/mol
 Total                         =      -0.01869506 hartree =     -11.73132987 kcal/mol
 --------------------------------------------------
 SCF Energy (H0 + V/2)                       =   -2754.31160577 
 Solute Internal Energy (H0)                 =   -2754.29291070 
 Total Free Energy (H0 + V/2 + non-elec)     =   -2754.31160577 hartree
                                             = -1728356.61870520 kcal/mol
***********************************************************

 SCF   energy in the final basis set =    -2754.3116057689
 Total energy in the final basis set =    -2754.3116057689


 --------------------------------------------------------------
  Generalized many-body perturbation theory program
  by Joonho Lee, Fazle Rob, Xintian Feng, Evgeny Epifanovsky

 No regularization used 
 (reg. param. = 0.0000e+00)
  (P|Q)^-1/2 Time:  CPU 212.50 s  wall 4.22 s

 In RI-MP2 calculation: 
 # of frozen core orbitals: 45

 Components of the RIMP2 correlation energy:
        aaaa    correlation energy =        -0.6704240029 a.u.
        abab    correlation energy =        -3.7136687181 a.u.
        bbbb    correlation energy =        -0.6704240029 a.u.
        non-Brillouin singles      =        -0.0000000000 a.u.
        total same-spin energy     =        -1.3408480058 a.u.
        total opposite-spin energy =        -3.7136687181 a.u.

 Total  RIMP2   correlation energy =        -5.0545167239 a.u.
        RIMP2         total energy =     -2759.3661224928 a.u.

 RI-MP2 Energy Time:  CPU 2699.56 s  wall 44.40 s
 
 --------------------------------------------------------------
 
                    Orbital Energies (a.u.)
 --------------------------------------------------------------
 
 Alpha MOs
 -- Occupied --
-92.0151 -91.9995 -91.9906 -91.9859 -26.3438 -20.6149 -20.5923 -20.5909
-20.5615 -11.4096 -11.3831 -11.3198 -11.3162 -11.3125 -11.3024 -11.3004
-11.2979 -11.2977 -11.2889 -11.2865 -11.2861 -11.2860 -11.2856 -11.2840
-11.2786 -11.2620 -11.2575 -11.2532 -11.2496  -9.0138  -8.9997  -8.9913
 -8.9858  -6.6946  -6.6940  -6.6934  -6.6806  -6.6799  -6.6788  -6.6722
 -6.6716  -6.6706  -6.6668  -6.6662  -6.6653  -1.6608  -1.4674  -1.4163
 -1.4137  -1.3701  -1.2233  -1.1944  -1.1658  -1.1369  -1.0861  -1.0519
 -1.0419  -1.0246  -1.0019  -0.9881  -0.9646  -0.9583  -0.9498  -0.9413
 -0.8957  -0.8686  -0.8515  -0.8156  -0.7923  -0.7879  -0.7854  -0.7650
 -0.7556  -0.7338  -0.7256  -0.7106  -0.6988  -0.6860  -0.6834  -0.6820
 -0.6740  -0.6591  -0.6584  -0.6523  -0.6308  -0.6196  -0.6166  -0.6033
 -0.5980  -0.5845  -0.5792  -0.5693  -0.5680  -0.5603  -0.5572  -0.5533
 -0.5327  -0.5293  -0.5243  -0.5200  -0.5178  -0.5116  -0.5062  -0.4948
 -0.4869  -0.4788  -0.4772  -0.4751  -0.4701  -0.4636  -0.4589  -0.4270
 -0.3932  -0.3856  -0.3610  -0.3521  -0.3248  -0.2910  -0.2480
 -- Virtual --
  0.0235   0.0599   0.1110   0.1260   0.1360   0.1430   0.1530   0.1551
  0.1570   0.1601   0.1693   0.1772   0.1815   0.1842   0.1936   0.1961
  0.2019   0.2043   0.2146   0.2152   0.2194   0.2228   0.2258   0.2273
  0.2345   0.2392   0.2488   0.2565   0.2612   0.2629   0.2755   0.2937
  0.3036   0.3169   0.3245   0.3298   0.3405   0.3418   0.3494   0.3533
  0.3633   0.3693   0.3732   0.3807   0.3838   0.3847   0.3885   0.3889
  0.3911   0.3946   0.4041   0.4073   0.4113   0.4151   0.4167   0.4269
  0.4300   0.4361   0.4442   0.4472   0.4486   0.4510   0.4578   0.4618
  0.4677   0.4703   0.4736   0.4774   0.4810   0.4848   0.4892   0.4940
  0.4979   0.5013   0.5042   0.5076   0.5140   0.5169   0.5230   0.5247
  0.5307   0.5329   0.5353   0.5398   0.5429   0.5457   0.5471   0.5504
  0.5526   0.5585   0.5600   0.5650   0.5666   0.5695   0.5740   0.5826
  0.5846   0.5916   0.5936   0.5977   0.6036   0.6089   0.6103   0.6133
  0.6154   0.6180   0.6212   0.6225   0.6244   0.6258   0.6320   0.6328
  0.6380   0.6411   0.6442   0.6487   0.6540   0.6624   0.6630   0.6669
  0.6714   0.6832   0.6850   0.6871   0.6909   0.6974   0.7022   0.7093
  0.7107   0.7162   0.7242   0.7264   0.7385   0.7397   0.7519   0.7537
  0.7572   0.7599   0.7672   0.7692   0.7802   0.7950   0.8010   0.8051
  0.8113   0.8166   0.8204   0.8279   0.8313   0.8398   0.8446   0.8484
  0.8566   0.8628   0.8654   0.8695   0.8720   0.8777   0.8813   0.8855
  0.8960   0.8998   0.9032   0.9120   0.9137   0.9189   0.9213   0.9292
  0.9324   0.9353   0.9440   0.9445   0.9528   0.9589   0.9630   0.9668
  0.9744   0.9783   0.9812   0.9878   0.9951   0.9966   1.0024   1.0037
  1.0090   1.0118   1.0162   1.0232   1.0317   1.0345   1.0352   1.0385
  1.0523   1.0564   1.0611   1.0685   1.0695   1.0765   1.0826   1.0833
  1.0866   1.0912   1.0954   1.1001   1.1016   1.1061   1.1093   1.1130
  1.1189   1.1204   1.1324   1.1361   1.1386   1.1507   1.1525   1.1564
  1.1593   1.1679   1.1761   1.1791   1.1857   1.1870   1.1959   1.2017
  1.2041   1.2061   1.2125   1.2192   1.2206   1.2232   1.2303   1.2374
  1.2383   1.2419   1.2498   1.2525   1.2563   1.2620   1.2665   1.2732
  1.2776   1.2840   1.2853   1.2956   1.3020   1.3056   1.3241   1.3263
  1.3301   1.3349   1.3354   1.3403   1.3494   1.3582   1.3656   1.3681
  1.3751   1.3849   1.3916   1.3998   1.4062   1.4108   1.4158   1.4275
  1.4337   1.4385   1.4428   1.4571   1.4736   1.4765   1.4828   1.4874
  1.4913   1.5009   1.5027   1.5052   1.5093   1.5148   1.5270   1.5326
  1.5367   1.5379   1.5393   1.5426   1.5490   1.5524   1.5576   1.5665
  1.5749   1.5855   1.5908   1.5986   1.6045   1.6180   1.6221   1.6342
  1.6354   1.6398   1.6460   1.6572   1.6633   1.6689   1.6746   1.6770
  1.6834   1.6909   1.6946   1.7091   1.7189   1.7290   1.7344   1.7573
  1.7647   1.7665   1.7724   1.7806   1.7915   1.8052   1.8093   1.8194
  1.8282   1.8312   1.8338   1.8505   1.8626   1.8656   1.8690   1.8741
  1.8804   1.8906   1.9024   1.9092   1.9163   1.9179   1.9218   1.9363
  1.9392   1.9527   1.9549   1.9646   1.9693   1.9751   1.9797   1.9875
  1.9946   2.0046   2.0078   2.0186   2.0234   2.0435   2.0450   2.0579
  2.0710   2.0838   2.0887   2.0974   2.0990   2.1194   2.1392   2.1499
  2.1514   2.1601   2.1618   2.1716   2.1770   2.1852   2.1939   2.1979
  2.2007   2.2070   2.2146   2.2201   2.2242   2.2333   2.2383   2.2436
  2.2504   2.2559   2.2609   2.2665   2.2738   2.2801   2.2856   2.2911
  2.3019   2.3033   2.3106   2.3242   2.3332   2.3391   2.3438   2.3528
  2.3639   2.3717   2.3816   2.3843   2.3980   2.4019   2.4146   2.4245
  2.4298   2.4356   2.4365   2.4494   2.4608   2.4748   2.4816   2.4908
  2.5016   2.5034   2.5198   2.5225   2.5340   2.5420   2.5516   2.5582
  2.5681   2.5779   2.5821   2.5946   2.5978   2.6166   2.6179   2.6231
  2.6257   2.6283   2.6372   2.6393   2.6424   2.6467   2.6644   2.6671
  2.6778   2.6800   2.6926   2.6934   2.6995   2.7040   2.7125   2.7176
  2.7194   2.7249   2.7349   2.7392   2.7423   2.7542   2.7624   2.7683
  2.7738   2.7849   2.7908   2.7947   2.7999   2.8090   2.8144   2.8165
  2.8252   2.8348   2.8422   2.8499   2.8520   2.8572   2.8601   2.8685
  2.8740   2.8788   2.8825   2.8911   2.9076   2.9161   2.9233   2.9294
  2.9432   2.9466   2.9521   2.9573   2.9734   2.9784   2.9806   2.9889
  2.9998   3.0039   3.0094   3.0192   3.0231   3.0294   3.0330   3.0382
  3.0469   3.0499   3.0584   3.0701   3.0806   3.0834   3.0930   3.0986
  3.1014   3.1085   3.1122   3.1193   3.1240   3.1286   3.1401   3.1440
  3.1515   3.1538   3.1553   3.1611   3.1651   3.1668   3.1765   3.1785
  3.1846   3.1892   3.1997   3.2119   3.2156   3.2172   3.2239   3.2280
  3.2352   3.2425   3.2449   3.2494   3.2579   3.2588   3.2664   3.2702
  3.2738   3.2771   3.2842   3.2884   3.2920   3.2943   3.2963   3.3065
  3.3083   3.3195   3.3269   3.3291   3.3336   3.3353   3.3393   3.3476
  3.3518   3.3600   3.3637   3.3647   3.3688   3.3696   3.3752   3.3772
  3.3808   3.3874   3.3887   3.3966   3.4019   3.4043   3.4062   3.4181
  3.4201   3.4254   3.4307   3.4318   3.4411   3.4465   3.4495   3.4501
  3.4598   3.4630   3.4648   3.4705   3.4744   3.4817   3.4851   3.4883
  3.4892   3.4950   3.5113   3.5130   3.5189   3.5281   3.5287   3.5319
  3.5440   3.5489   3.5564   3.5606   3.5619   3.5669   3.5718   3.5750
  3.5850   3.5860   3.5921   3.5949   3.5994   3.6037   3.6088   3.6115
  3.6182   3.6258   3.6285   3.6332   3.6401   3.6455   3.6523   3.6548
  3.6658   3.6727   3.6752   3.6808   3.6859   3.6897   3.6974   3.7006
  3.7036   3.7057   3.7140   3.7195   3.7251   3.7316   3.7341   3.7414
  3.7424   3.7497   3.7546   3.7587   3.7702   3.7738   3.7838   3.7878
  3.7897   3.7944   3.8013   3.8087   3.8116   3.8151   3.8188   3.8202
  3.8299   3.8413   3.8459   3.8531   3.8602   3.8697   3.8709   3.8757
  3.8808   3.8841   3.8873   3.8898   3.9037   3.9080   3.9134   3.9142
  3.9279   3.9355   3.9434   3.9463   3.9516   3.9620   3.9717   3.9787
  3.9900   3.9940   4.0018   4.0085   4.0163   4.0257   4.0319   4.0365
  4.0418   4.0462   4.0589   4.0670   4.0681   4.0745   4.0878   4.0892
  4.1077   4.1156   4.1213   4.1269   4.1315   4.1383   4.1438   4.1536
  4.1578   4.1666   4.1683   4.1718   4.1823   4.1881   4.1902   4.1940
  4.2055   4.2110   4.2166   4.2373   4.2457   4.2509   4.2572   4.2639
  4.2789   4.2872   4.2997   4.3107   4.3174   4.3305   4.3410   4.3420
  4.3508   4.3582   4.3667   4.3698   4.3731   4.3881   4.3926   4.3995
  4.4039   4.4096   4.4164   4.4238   4.4295   4.4360   4.4385   4.4571
  4.4595   4.4742   4.4860   4.4912   4.4959   4.5017   4.5192   4.5276
  4.5328   4.5362   4.5439   4.5553   4.5593   4.5705   4.5803   4.5840
  4.5969   4.6072   4.6120   4.6298   4.6364   4.6469   4.6546   4.6551
  4.6606   4.6666   4.6741   4.6899   4.6926   4.7124   4.7278   4.7448
  4.7526   4.7615   4.7667   4.7742   4.7795   4.8011   4.8118   4.8213
  4.8296   4.8387   4.8420   4.8555   4.8610   4.8786   4.8803   4.9009
  4.9257   4.9433   4.9470   4.9545   4.9622   4.9742   4.9837   5.0029
  5.0067   5.0088   5.0105   5.0246   5.0379   5.0533   5.0690   5.0786
  5.0930   5.1028   5.1239   5.1293   5.1630   5.1680   5.1746   5.2049
  5.2155   5.2200   5.2469   5.2509   5.2525   5.2575   5.2777   5.2814
  5.2971   5.3115   5.3128   5.3296   5.3438   5.3506   5.3615   5.3685
  5.3775   5.3962   5.3989   5.4028   5.4261   5.4384   5.4622   5.4641
  5.4759   5.4849   5.5034   5.5103   5.5172   5.5235   5.5379   5.5530
  5.5752   5.5832   5.5872   5.6065   5.6179   5.6215   5.6435   5.6663
  5.7192   5.7307   5.7602   5.7967   5.8074   5.8193   5.8468   5.8564
  5.8742   5.8815   5.9152   5.9290   5.9462   5.9869   5.9999   6.0418
  6.0675   6.0765   6.1131   6.1504   6.1698   6.1739   6.1790   6.2010
  6.2458   6.2612   6.2631   6.2732   6.2863   6.2888   6.3264   6.3425
  6.4318   6.4500   6.4553   6.4819   6.5387   6.5500   6.5580   6.6043
  6.6542   6.6611   6.6711   6.6997   6.7460   6.8010   6.8304   6.8436
  6.8595   6.8940   6.9783   7.1202   7.1384   7.2038   7.2067   7.2166
  7.2345   7.3097   7.3205   7.3334   7.3628   7.3641   7.4059   7.4132
  7.4793   7.4852   7.4892   7.5250   7.5509   7.6181   7.7226   7.7725
  7.7892   7.7966   7.8990   7.9171   7.9446   7.9727   8.1351   8.1468
  8.4948   8.9216   9.0173   9.3626   9.4741   9.6517  10.0471  10.5876
 11.1600  11.4411  11.7855  11.9645  12.1334  12.2160  12.4205  12.5923
 12.6924  12.9608  13.0771  13.2535  13.3368  13.3896  13.7784  13.8492
 13.9097  14.0265  14.0308  14.5429  15.2185
 --------------------------------------------------------------
 
          Ground-State Mulliken Net Atomic Charges

     Atom                 Charge (a.u.)
  ----------------------------------------
      1 C                    -0.191300
      2 C                    -0.253494
      3 S                    -0.023640
      4 C                    -0.019084
      5 H                     0.196309
      6 C                    -0.026966
      7 C                     0.237464
      8 C                     0.245083
      9 C                    -0.037218
     10 C                    -0.012185
     11 O                    -0.332714
     12 O                    -0.341019
     13 C                    -0.085626
     14 H                     0.122052
     15 H                     0.091077
     16 H                     0.093909
     17 C                    -0.090036
     18 H                     0.126311
     19 H                     0.095222
     20 H                     0.091071
     21 C                    -0.273852
     22 S                    -0.045091
     23 C                     0.030458
     24 H                     0.186088
     25 H                     0.206078
     26 C                     0.046393
     27 S                     0.096694
     28 C                    -0.187652
     29 C                    -0.034645
     30 C                    -0.112819
     31 S                     0.010233
     32 C                    -0.167877
     33 C                     0.414185
     34 F                    -0.206575
     35 C                     0.442733
     36 O                    -0.461158
     37 O                    -0.300829
     38 C                    -0.058522
     39 H                     0.121481
     40 H                     0.095193
     41 H                     0.095110
     42 H                     0.219158
  ----------------------------------------
  Sum of atomic charges =     0.000000

 -----------------------------------------------------------------
                    Cartesian Multipole Moments
 -----------------------------------------------------------------
    Charge (ESU x 10^10)
                 0.0000
    Dipole Moment (Debye)
         X       0.5956      Y       1.4087      Z       2.6314
       Tot       3.0436
    Quadrupole Moments (Debye-Ang)
        XX    -197.1487     XY       5.3619     YY    -162.2168
        XZ     -11.1326     YZ      -6.5358     ZZ    -184.8397
    Octopole Moments (Debye-Ang^2)
       XXX    -123.8469    XXY     372.4904    XYY     -35.3645
       YYY     877.5919    XXZ     155.0034    XYZ      30.0719
       YYZ     102.1427    XZZ     -22.8834    YZZ     373.9250
       ZZZ     505.0753
    Hexadecapole Moments (Debye-Ang^3)
      XXXX    -633.0171   XXXY    -602.3070   XXYY   -3937.0671
      XYYY    -486.7362   YYYY  -19176.8447   XXXZ     686.4137
      XXYZ     666.3936   XYYZ     -85.0770   YYYZ    1713.8715
      XXZZ   -1306.3372   XYZZ     -16.5492   YYZZ   -4059.4341
      XZZZ     425.6240   YZZZ    1526.8342   ZZZZ   -7414.8729
 -----------------------------------------------------------------
 Total job time:  297.40s(wall), 9278.08s(cpu) 
 Mon Jan  8 18:57:26 2024

        *************************************************************
        *                                                           *
        *  Thank you very much for using Q-Chem.  Have a nice day.  *
        *                                                           *
        *************************************************************


0 sent ACK to 0 
now end server 0 ... 
cleanup process ... done
remove work dirs ./qchem3963936.0 -- ./qchem3963936.0
rm -rf ./qchem3963936.0
rm -rf ./qchem3963936
