You are running Q-Chem version: 5.4.0

#
# job setting
#
local host:  exp-3-46
current dir: /home/rramji/project-csd799/aromodel/ptb7fout-qchem/rotation-run
input file:  Dimethoxy_Benzodithiophene_Phi_60_Theta_180_Methylcarbonyl_3_Fluoro_Thienothiophene.qcin
output file: 
nprocs     : 1
nthreads   : 64
#
# qchem installation setting
#
QC:          /cm/shared/apps/spack/cpu/opt/spack/linux-centos8-zen2/gcc-10.2.0/qchem-5.4-akfmr7b3t57bfs6qan3padb2wnb2i7cl
QCAUX:       /cm/shared/apps/spack/cpu/opt/spack/linux-centos8-zen2/gcc-10.2.0/qchem-5.4-akfmr7b3t57bfs6qan3padb2wnb2i7cl/qcaux
QCPROG:      /cm/shared/apps/spack/cpu/opt/spack/linux-centos8-zen2/gcc-10.2.0/qchem-5.4-akfmr7b3t57bfs6qan3padb2wnb2i7cl/exe/qcprog.exe
QCPROG_S:    /cm/shared/apps/spack/cpu/opt/spack/linux-centos8-zen2/gcc-10.2.0/qchem-5.4-akfmr7b3t57bfs6qan3padb2wnb2i7cl/exe/qcprog.exe_s
PARALLEL:    -DPARALLEL
QCMPI:       mpich
#
# qchem directory setting
#
qcrun:       qchem1637304
QCSCRATCH:   .
QCLOCALSCR:  
QCTMPDIR:    .
QCFILEPREF:  ./qchem1637304
QCSAVEDIR:   
workdirs:    ./qchem1637304
workdir0:    ./qchem1637304
partmpdirs =  
#
# parallel setting
#
QCRSH:           ssh
QCMPI:           mpich
QCMPIRUN:        /cm/shared/apps/spack/cpu/opt/spack/linux-centos8-zen2/gcc-10.2.0/qchem-5.4-akfmr7b3t57bfs6qan3padb2wnb2i7cl/bin/mpi/mpirun_qchem
QCMACHINEFILE:   ./qchem1637304/hostfile
exp-3-46

#
# env setting
#
exported envs:   QC QCAUX QCSCRATCH QCRUNNAME QCFILEPREF QCPROG QCPROG_S GUIFILE

Running Job 1 of 1 Dimethoxy_Benzodithiophene_Phi_60_Theta_180_Methylcarbonyl_3_Fluoro_Thienothiophene.qcin
qchem Dimethoxy_Benzodithiophene_Phi_60_Theta_180_Methylcarbonyl_3_Fluoro_Thienothiophene.qcin_1637304.0 ./qchem1637304/ 1
/cm/shared/apps/spack/cpu/opt/spack/linux-centos8-zen2/gcc-10.2.0/qchem-5.4-akfmr7b3t57bfs6qan3padb2wnb2i7cl/bin/mpi/mpirun_qchem -machinefile ./qchem1637304/hostfile -np 1 /cm/shared/apps/spack/cpu/opt/spack/linux-centos8-zen2/gcc-10.2.0/qchem-5.4-akfmr7b3t57bfs6qan3padb2wnb2i7cl/exe/qcprog.exe Dimethoxy_Benzodithiophene_Phi_60_Theta_180_Methylcarbonyl_3_Fluoro_Thienothiophene.qcin_1637304.0 ./qchem1637304/

Process 0 of 1 is on exp-3-46 - thread support 0
initial socket setup ...start
initial socket setup ...done 
now start server 0 ... 
                  Welcome to Q-Chem
     A Quantum Leap Into The Future Of Chemistry


 Q-Chem 5.4, Q-Chem, Inc., Pleasanton, CA (2021)

 License issued to: University of California, San Diego (site)

 E. Epifanovsky,  A. T. B. Gilbert,  Xintian Feng,  Joonho Lee,  Yuezhi Mao,  
 N. Mardirossian,  P. Pokhilko,  A. White,  M. Wormit,  M. P. Coons,  
 A. L. Dempwolff,  Zhengting Gan,  D. Hait,  P. R. Horn,  L. D. Jacobson,  
 I. Kaliman,  J. Kussmann,  A. W. Lange,  Ka Un Lao,  D. S. Levine,  Jie Liu,  
 S. C. McKenzie,  A. F. Morrison,  K. Nanda,  F. Plasser,  D. R. Rehn,  
 M. L. Vidal,  Zhi-Qiang You,  Ying Zhu,  B. Alam,  B. Albrecht,  
 A. Aldossary,  E. Alguire,  J. H. Andersen,  D. Barton,  K. Begam,  A. Behn,  
 Y. A. Bernard,  E. J. Berquist,  H. Burton,  A. Carreras,  K. Carter-Fenk,  
 R. Chakraborty,  A. D. Chien,  K. D. Closser,  V. Cofer-Shabica,  
 S. Dasgupta,  Jia Deng,  M. de Wergifosse,  M. Diedenhofen,  Hainam Do,  
 S. Ehlert,  Po-Tung Fang,  S. Fatehi,  Qingguo Feng,  J. Gayvert,  
 Qinghui Ge,  G. Gidofalvi,  M. Goldey,  J. Gomes,  C. Gonzalez-Espinoza,  
 S. Gulania,  A. Gunina,  M. W. D. Hanson-Heine,  P. H. P. Harbach,  
 A. W. Hauser,  M. F. Herbst,  M. Hernandez Vera,  M. Hodecker,  
 Z. C. Holden,  S. Houck,  Xunkun Huang,  Kerwin Hui,  B. C. Huynh,  
 M. Ivanov,  Hyunjun Ji,  Hanjie Jiang,  B. Kaduk,  S. Kaehler,  
 K. Khistyaev,  Jaehoon Kim,  P. Klunzinger,  Z. Koczor-Benda,  
 Joong Hoon Koh,  D. Kosenkov,  L. Koulias,  T. Kowalczyk,  C. M. Krauter,  
 K. Kue,  A. Kunitsa,  T. Kus,  A. Landau,  K. V. Lawler,  D. Lefrancois,  
 S. Lehtola,  Rain Li,  Yi-Pei Li,  Jiashu Liang,  M. Liebenthal,  
 Hung-Hsuan Lin,  You-Sheng Lin,  Fenglai Liu,  Kuan-Yu Liu,  
 M. Loipersberger,  A. Luenser,  A. Manjanath,  P. Manohar,  E. Mansoor,  
 S. F. Manzer,  Shan-Ping Mao,  A. V. Marenich,  T. Markovich,  S. Mason,  
 S. A. Maurer,  P. F. McLaughlin,  M. F. S. J. Menger,  J.-M. Mewes,  
 S. A. Mewes,  P. Morgante,  J. W. Mullinax,  T. S. Nguyen-Beck,  
 K. J. Oosterbaan,  G. Paran,  Alexander C. Paul,  Suranjan K. Paul,  
 F. Pavosevic,  Zheng Pei,  S. Prager,  E. I. Proynov,  E. Ramos,  B. Rana,  
 A. E. Rask,  A. Rettig,  R. M. Richard,  F. Rob,  E. Rossomme,  T. Scheele,  
 M. Scheurer,  M. Schneider,  N. Sergueev,  S. M. Sharada,  W. Skomorowski,  
 D. W. Small,  C. J. Stein,  Yu-Chuan Su,  E. J. Sundstrom,  Zhen Tao,  
 J. Thirman,  T. Tsuchimochi,  N. M. Tubman,  S. P. Veccham,  O. Vydrov,  
 J. Wenzel,  J. Witte,  A. Yamada,  Kun Yao,  S. Yeganeh,  S. R. Yost,  
 A. Zech,  Igor Ying Zhang,  Xing Zhang,  Yu Zhang,  D. Zuev,  
 A. Aspuru-Guzik,  A. T. Bell,  N. A. Besley,  K. B. Bravaya,  B. R. Brooks,  
 D. Casanova,  Jeng-Da Chai,  S. Coriani,  C. J. Cramer,  
 A. E. DePrince, III,  R. A. DiStasio Jr.,  A. Dreuw,  B. D. Dunietz,  
 T. R. Furlani,  W. A. Goddard III,  S. Grimme,  S. Hammes-Schiffer,  
 T. Head-Gordon,  W. J. Hehre,  Chao-Ping Hsu,  T.-C. Jagau,  Yousung Jung,  
 A. Klamt,  Jing Kong,  D. S. Lambrecht,  WanZhen Liang,  N. J. Mayhall,  
 C. W. McCurdy,  J. B. Neaton,  C. Ochsenfeld,  J. A. Parkhill,  R. Peverati,  
 V. A. Rassolov,  Yihan Shao,  L. V. Slipchenko,  T. Stauch,  R. P. Steele,  
 J. E. Subotnik,  A. J. W. Thom,  A. Tkatchenko,  D. G. Truhlar,  
 T. Van Voorhis,  T. A. Wesolowski,  K. B. Whaley,  H. L. Woodcock III,  
 P. M. Zimmerman,  S. Faraji,  P. M. W. Gill,  M. Head-Gordon,  
 J. M. Herbert,  A. I. Krylov

 Contributors to earlier versions of Q-Chem not listed above: 
 R. D. Adamson,  B. Austin,  R. Baer,  J. Baker,  G. J. O. Beran,  
 K. Brandhorst,  S. T. Brown,  E. F. C. Byrd,  A. K. Chakraborty,  
 G. K. L. Chan,  Chun-Min Chang,  Yunqing Chen,  C.-L. Cheng,  
 Siu Hung Chien,  D. M. Chipman,  D. L. Crittenden,  H. Dachsel,  
 R. J. Doerksen,  A. D. Dutoi,  R. G. Edgar,  J. Fosso-Tande,  
 L. Fusti-Molnar,  D. Ghosh,  A. Ghysels,  A. Golubeva-Zadorozhnaya,  
 J. Gonthier,  M. S. Gordon,  S. R. Gwaltney,  G. Hawkins,  J. E. Herr,  
 A. Heyden,  S. Hirata,  E. G. Hohenstein,  G. Kedziora,  F. J. Keil,  
 C. Kelley,  Jihan Kim,  R. A. King,  R. Z. Khaliullin,  P. P. Korambath,  
 W. Kurlancheek,  A. Laurent,  A. M. Lee,  M. S. Lee,  S. V. Levchenko,  
 Ching Yeh Lin,  D. Liotard,  E. Livshits,  R. C. Lochan,  I. Lotan,  
 L. A. Martinez-Martinez,  P. E. Maslen,  N. Nair,  D. P. O'Neill,  
 D. Neuhauser,  E. Neuscamman,  C. M. Oana,  R. Olivares-Amaya,  R. Olson,  
 T. M. Perrine,  B. Peters,  P. A. Pieniazek,  A. Prociuk,  Y. M. Rhee,  
 J. Ritchie,  M. A. Rohrdanz,  E. Rosta,  N. J. Russ,  H. F. Schaefer III,  
 M. W. Schmidt,  N. E. Schultz,  S. Sharma,  N. Shenvi,  C. D. Sherrill,  
 A. C. Simmonett,  A. Sodt,  T. Stein,  D. Stuck,  K. S. Thanthiriwatte,  
 V. Vanovschi,  L. Vogt,  Tao Wang,  A. Warshel,  M. A. Watson,  
 C. F. Williams,  Q. Wu,  X. Xu,  Jun Yang,  W. Zhang,  Yan Zhao

 Please cite Q-Chem as follows:
 Y. Shao et al., Mol. Phys. 113, 184-215 (2015)
 DOI: 10.1080/00268976.2014.952696

 Q-Chem 5.4.0 for Intel X86 EM64T Linux

 Parts of Q-Chem use Armadillo 9.800.1 (Horizon Scraper).
 http://arma.sourceforge.net/

 Q-Chem begins on Mon Jan  8 20:32:41 2024  

 Host: 
0

     Scratch files written to ./qchem1637304//
 May1621 |scratch|qcdevops|jenkins|workspace|build_RNUM    
 Parallel job on  1  processors
 Processing $rem in /cm/shared/apps/spack/cpu/opt/spack/linux-centos8-zen2/gcc-10.2.0/qchem-5.4-akfmr7b3t57bfs6qan3padb2wnb2i7cl/config/preferences:
 Processing $rem in /home/rramji/.qchemrc:
 Symmetry turned off for PCM/SM12/SMD calculation
 Core orbitals will be frozen

 Checking the input file for inconsistencies... 	...done.

 Q-Chem warning in module forms1/BasisType.C, line 2236:

 You are not using the predefined 5D/6D in this basis set.


--------------------------------------------------------------
User input:
--------------------------------------------------------------
$molecule
0 1
C	0.041330	-8.517702	-0.318247
C	0.049453	-7.641575	0.757333
S	0.024919	-7.638634	-1.866383
C	0.049488	-6.264785	0.380867
H	0.055368	-7.966081	1.805573
C	0.051115	-6.072714	-1.045647
C	0.026203	-4.787049	-1.608077
C	0.026637	-5.162801	1.282948
C	-0.002586	-3.874817	0.720187
C	0.001903	-3.683952	-0.707853
O	0.054867	-5.499772	2.602386
O	-0.003348	-4.459055	-2.933517
C	0.602384	-5.329063	-3.881999
H	0.675079	-4.755694	-4.825744
H	-0.009592	-6.238095	-4.070972
H	1.621263	-5.637262	-3.562152
C	-0.381947	-4.572261	3.588253
H	-0.449872	-5.139743	4.535674
H	-1.381388	-4.153131	3.342986
H	0.341040	-3.739531	3.728239
C	-0.000348	-2.306654	-1.080725
S	0.010924	-2.306501	1.542694
C	-0.000000	-1.435185	-0.000000
H	-0.003612	-1.978138	-2.127635
H	0.037764	-9.614033	-0.320559
C	0.000000	0.000000	0.000000
S	0.783786	0.451972	1.507541
C	2.145261	1.238908	0.718873
C	0.783650	0.451572	-1.067872
C	1.986396	1.148648	-0.686410
S	0.574133	0.327317	-2.805516
C	2.088363	1.207943	-3.054530
C	2.700548	1.564221	-1.862551
F	3.855718	2.236706	-1.819088
C	2.477307	1.430318	-4.456084
O	1.814592	1.038482	-5.406510
O	3.643162	2.112042	-4.569225
C	4.074530	2.355061	-5.916207
H	5.024556	2.911627	-5.833064
H	3.322010	2.951860	-6.470168
H	4.229490	1.400910	-6.459293
H	2.944986	1.702260	1.306486
$end

$rem
JOBTYPE		SP
EXCHANGE	HF
CORRELATION	pRIMP2
BASIS		cc-pvtz
METHOD		rimp2
AUX_BASIS	rimp2-cc-pvtz
SOLVENT_METHOD	PCM
PURECART	11111
SYMMETRY	false
MEM_TOTAL	110000
SCF_CONVERGENCE = 6
THRESH=10
GUI = 2
$end



$solvent
dielectric 4.90
$end
--------------------------------------------------------------
 ----------------------------------------------------------------
             Standard Nuclear Orientation (Angstroms)
    I     Atom           X                Y                Z
 ----------------------------------------------------------------
    1      C       0.0413300000    -8.5177020000    -0.3182470000
    2      C       0.0494530000    -7.6415750000     0.7573330000
    3      S       0.0249190000    -7.6386340000    -1.8663830000
    4      C       0.0494880000    -6.2647850000     0.3808670000
    5      H       0.0553680000    -7.9660810000     1.8055730000
    6      C       0.0511150000    -6.0727140000    -1.0456470000
    7      C       0.0262030000    -4.7870490000    -1.6080770000
    8      C       0.0266370000    -5.1628010000     1.2829480000
    9      C      -0.0025860000    -3.8748170000     0.7201870000
   10      C       0.0019030000    -3.6839520000    -0.7078530000
   11      O       0.0548670000    -5.4997720000     2.6023860000
   12      O      -0.0033480000    -4.4590550000    -2.9335170000
   13      C       0.6023840000    -5.3290630000    -3.8819990000
   14      H       0.6750790000    -4.7556940000    -4.8257440000
   15      H      -0.0095920000    -6.2380950000    -4.0709720000
   16      H       1.6212630000    -5.6372620000    -3.5621520000
   17      C      -0.3819470000    -4.5722610000     3.5882530000
   18      H      -0.4498720000    -5.1397430000     4.5356740000
   19      H      -1.3813880000    -4.1531310000     3.3429860000
   20      H       0.3410400000    -3.7395310000     3.7282390000
   21      C      -0.0003480000    -2.3066540000    -1.0807250000
   22      S       0.0109240000    -2.3065010000     1.5426940000
   23      C       0.0000000000    -1.4351850000     0.0000000000
   24      H      -0.0036120000    -1.9781380000    -2.1276350000
   25      H       0.0377640000    -9.6140330000    -0.3205590000
   26      C       0.0000000000     0.0000000000     0.0000000000
   27      S       0.7837860000     0.4519720000     1.5075410000
   28      C       2.1452610000     1.2389080000     0.7188730000
   29      C       0.7836500000     0.4515720000    -1.0678720000
   30      C       1.9863960000     1.1486480000    -0.6864100000
   31      S       0.5741330000     0.3273170000    -2.8055160000
   32      C       2.0883630000     1.2079430000    -3.0545300000
   33      C       2.7005480000     1.5642210000    -1.8625510000
   34      F       3.8557180000     2.2367060000    -1.8190880000
   35      C       2.4773070000     1.4303180000    -4.4560840000
   36      O       1.8145920000     1.0384820000    -5.4065100000
   37      O       3.6431620000     2.1120420000    -4.5692250000
   38      C       4.0745300000     2.3550610000    -5.9162070000
   39      H       5.0245560000     2.9116270000    -5.8330640000
   40      H       3.3220100000     2.9518600000    -6.4701680000
   41      H       4.2294900000     1.4009100000    -6.4592930000
   42      H       2.9449860000     1.7022600000     1.3064860000
 ----------------------------------------------------------------
 Nuclear Repulsion Energy =        3365.03744595 hartrees
 There are      119 alpha and      119 beta electrons
 Requested basis set is cc-pVTZ
 There are 376 shells and 1068 basis functions

 Total QAlloc Memory Limit 110000 MB
 Mega-Array Size       188 MB
 MEM_STATIC part       192 MB
 Discretize the solute cavity surface with Lebedev spheres
	Using 110 Lebedev grid points for each H atom
	Using 194 Lebedev grid points for other atoms
	Atomic van der Waals radii will be scaled by 1.20
 Remove points where switching function is < 1.0e-08
 Keep 2852 surface tesserae and discard 4204 interior tesserae
 Molecular Surface Area = 431.028 Angst**2
 Requested basis set is rimp2-cc-pVTZ
 There are 833 shells and 2903 basis functions
 A cutoff of  1.0D-10 yielded  32367 shell pairs
 There are    246605 function pairs (    319512 Cartesian)
 Smallest overlap matrix eigenvalue = 2.15E-05

 Scale SEOQF with 1.000000e-01/1.000000e-02/1.000000e-02

 Standard Electronic Orientation quadrupole field applied
 Nucleus-field energy     =     0.0000000325 hartrees
 Guess from superposition of atomic densities
 Warning:  Energy on first SCF cycle will be non-variational
 SAD guess density has 238.000000 electrons

 -----------------------------------------------------------------------
  General SCF calculation program by
  Eric Jon Sundstrom, Paul Horn, Yuezhi Mao, Dmitri Zuev, Alec White,
  David Stuck, Shaama M.S., Shane Yost, Joonho Lee, David Small,
  Daniel Levine, Susi Lehtola, Hugh Burton, Evgeny Epifanovsky,
  Bang C. Huynh
 -----------------------------------------------------------------------
 Hartree-Fock
 using 64 threads for integral computing
 -------------------------------------------------------
 OpenMP Integral computing Module                
 Release: version 1.0, May 2013, Q-Chem Inc. Pittsburgh 
 -------------------------------------------------------
 A restricted SCF calculation will be
 performed using DIIS
 SCF converges when DIIS error is below 1.0e-06
 ---------------------------------------
  Cycle       Energy         DIIS error
 ---------------------------------------
    1   -2765.3983450692      1.76e-02  
    2   -2753.7986197043      1.58e-03  
    3   -2754.1432223399      8.76e-04  
    4   -2754.2283964763      2.56e-04  
    5   -2754.2402596174      6.97e-05  
    6   -2754.2413629496      2.43e-05  
    7   -2754.2416067267      1.16e-05  
    8   -2754.2416890283      4.49e-06  
    9   -2754.2417058760      1.83e-06  
   10   -2754.2417083438      9.05e-07  Convergence criterion met
 ---------------------------------------
 SCF time:   CPU 6725.85s  wall 242.00s 

************** Final PCM Free Energy Summary **************
 G_electrostatic  =      -0.02117700 hartree =     -13.28876534 kcal/mol
 G_cavitation     =       0.00000000 hartree =       0.00000000 kcal/mol
 G_dispersion     =       0.00000000 hartree =       0.00000000 kcal/mol
 G_repulsion      =       0.00000000 hartree =       0.00000000 kcal/mol
 --------------------------------------------------
 Non-electrostatic Free Energy =       0.00000000 hartree =       0.00000000 kcal/mol
 Total                         =      -0.02117700 hartree =     -13.28876534 kcal/mol
 --------------------------------------------------
 SCF Energy (H0 + V/2)                       =   -2754.24170834 
 Solute Internal Energy (H0)                 =   -2754.22053135 
 Total Free Energy (H0 + V/2 + non-elec)     =   -2754.24170834 hartree
                                             = -1728312.75740894 kcal/mol
***********************************************************

 SCF   energy in the final basis set =    -2754.2417083438
 Total energy in the final basis set =    -2754.2417083438


 --------------------------------------------------------------
  Generalized many-body perturbation theory program
  by Joonho Lee, Fazle Rob, Xintian Feng, Evgeny Epifanovsky

 No regularization used 
 (reg. param. = 0.0000e+00)
  (P|Q)^-1/2 Time:  CPU 167.31 s  wall 2.77 s

 In RI-MP2 calculation: 
 # of frozen core orbitals: 45

 Components of the RIMP2 correlation energy:
        aaaa    correlation energy =        -0.6732527369 a.u.
        abab    correlation energy =        -3.7209861692 a.u.
        bbbb    correlation energy =        -0.6732527369 a.u.
        non-Brillouin singles      =        -0.0000000000 a.u.
        total same-spin energy     =        -1.3465054738 a.u.
        total opposite-spin energy =        -3.7209861692 a.u.

 Total  RIMP2   correlation energy =        -5.0674916429 a.u.
        RIMP2         total energy =     -2759.3091999867 a.u.

 RI-MP2 Energy Time:  CPU 2830.65 s  wall 47.36 s
 
 --------------------------------------------------------------
 
                    Orbital Energies (a.u.)
 --------------------------------------------------------------
 
 Alpha MOs
 -- Occupied --
-92.0163 -92.0130 -91.9838 -91.9816 -26.3478 -20.6164 -20.5903 -20.5848
-20.5630 -11.4118 -11.3891 -11.3400 -11.3255 -11.3158 -11.3064 -11.3001
-11.2982 -11.2915 -11.2899 -11.2861 -11.2824 -11.2795 -11.2756 -11.2748
-11.2725 -11.2559 -11.2493 -11.2463 -11.2300  -9.0162  -9.0127  -8.9850
 -8.9816  -6.6968  -6.6959  -6.6957  -6.6935  -6.6928  -6.6918  -6.6660
 -6.6652  -6.6642  -6.6626  -6.6620  -6.6611  -1.6647  -1.4690  -1.4141
 -1.4077  -1.3718  -1.2378  -1.1888  -1.1655  -1.1409  -1.0862  -1.0482
 -1.0452  -1.0297  -0.9958  -0.9881  -0.9675  -0.9571  -0.9476  -0.9388
 -0.8928  -0.8738  -0.8445  -0.8129  -0.7993  -0.7867  -0.7811  -0.7608
 -0.7565  -0.7296  -0.7293  -0.7156  -0.6990  -0.6876  -0.6839  -0.6791
 -0.6755  -0.6614  -0.6563  -0.6486  -0.6294  -0.6161  -0.6156  -0.6051
 -0.6032  -0.5833  -0.5801  -0.5702  -0.5631  -0.5612  -0.5555  -0.5415
 -0.5352  -0.5311  -0.5221  -0.5157  -0.5139  -0.5093  -0.5027  -0.4953
 -0.4880  -0.4807  -0.4773  -0.4744  -0.4672  -0.4570  -0.4549  -0.4265
 -0.3920  -0.3784  -0.3633  -0.3425  -0.3298  -0.2897  -0.2434
 -- Virtual --
  0.0149   0.0669   0.0876   0.1248   0.1320   0.1471   0.1536   0.1560
  0.1574   0.1588   0.1638   0.1710   0.1793   0.1833   0.1875   0.1982
  0.2037   0.2101   0.2144   0.2188   0.2239   0.2252   0.2260   0.2268
  0.2342   0.2432   0.2485   0.2523   0.2573   0.2642   0.2758   0.2843
  0.2902   0.2953   0.3158   0.3197   0.3311   0.3413   0.3466   0.3507
  0.3563   0.3614   0.3718   0.3741   0.3822   0.3844   0.3862   0.3888
  0.3900   0.3924   0.3962   0.3998   0.4072   0.4127   0.4176   0.4249
  0.4301   0.4347   0.4370   0.4420   0.4475   0.4500   0.4545   0.4628
  0.4660   0.4678   0.4739   0.4769   0.4800   0.4848   0.4867   0.4948
  0.4964   0.4978   0.5033   0.5063   0.5116   0.5165   0.5199   0.5235
  0.5269   0.5310   0.5323   0.5368   0.5392   0.5414   0.5453   0.5544
  0.5564   0.5574   0.5614   0.5649   0.5671   0.5734   0.5756   0.5785
  0.5875   0.5894   0.5951   0.5981   0.6036   0.6053   0.6101   0.6156
  0.6161   0.6179   0.6203   0.6234   0.6255   0.6301   0.6334   0.6413
  0.6426   0.6453   0.6459   0.6550   0.6554   0.6684   0.6696   0.6723
  0.6839   0.6842   0.6894   0.6934   0.6973   0.7015   0.7066   0.7125
  0.7154   0.7164   0.7241   0.7265   0.7333   0.7391   0.7506   0.7560
  0.7616   0.7639   0.7679   0.7689   0.7791   0.7869   0.7991   0.8020
  0.8044   0.8083   0.8105   0.8202   0.8278   0.8333   0.8362   0.8384
  0.8438   0.8577   0.8608   0.8648   0.8678   0.8720   0.8837   0.8848
  0.8906   0.8949   0.9040   0.9055   0.9118   0.9227   0.9244   0.9284
  0.9316   0.9362   0.9440   0.9461   0.9516   0.9557   0.9685   0.9708
  0.9760   0.9800   0.9831   0.9877   0.9897   0.9918   0.9974   1.0028
  1.0049   1.0099   1.0190   1.0213   1.0279   1.0321   1.0444   1.0459
  1.0507   1.0557   1.0584   1.0649   1.0663   1.0698   1.0718   1.0801
  1.0878   1.0937   1.0971   1.1011   1.1027   1.1088   1.1128   1.1171
  1.1235   1.1245   1.1247   1.1339   1.1451   1.1484   1.1511   1.1582
  1.1623   1.1651   1.1738   1.1819   1.1840   1.1896   1.1921   1.1951
  1.1996   1.2030   1.2122   1.2133   1.2205   1.2232   1.2261   1.2384
  1.2394   1.2463   1.2490   1.2523   1.2570   1.2656   1.2698   1.2719
  1.2758   1.2790   1.2837   1.2895   1.3046   1.3079   1.3174   1.3204
  1.3275   1.3300   1.3342   1.3460   1.3498   1.3560   1.3658   1.3692
  1.3773   1.3821   1.3865   1.3907   1.3986   1.4030   1.4126   1.4219
  1.4306   1.4338   1.4511   1.4571   1.4734   1.4817   1.4831   1.4854
  1.4960   1.5003   1.5025   1.5101   1.5137   1.5191   1.5219   1.5298
  1.5356   1.5377   1.5419   1.5457   1.5511   1.5521   1.5564   1.5642
  1.5723   1.5751   1.5847   1.5916   1.6017   1.6185   1.6233   1.6354
  1.6380   1.6448   1.6502   1.6531   1.6618   1.6657   1.6750   1.6879
  1.6950   1.6964   1.6988   1.7061   1.7147   1.7361   1.7388   1.7501
  1.7583   1.7607   1.7774   1.7795   1.7872   1.7983   1.8031   1.8164
  1.8238   1.8303   1.8414   1.8456   1.8531   1.8585   1.8655   1.8720
  1.8889   1.8943   1.9009   1.9121   1.9223   1.9241   1.9276   1.9389
  1.9453   1.9502   1.9545   1.9640   1.9742   1.9793   1.9854   1.9932
  1.9967   2.0100   2.0194   2.0214   2.0312   2.0403   2.0505   2.0650
  2.0725   2.0827   2.0895   2.0963   2.1060   2.1186   2.1259   2.1419
  2.1587   2.1641   2.1651   2.1691   2.1751   2.1793   2.1879   2.1932
  2.1974   2.2082   2.2123   2.2196   2.2246   2.2321   2.2429   2.2440
  2.2503   2.2597   2.2614   2.2648   2.2756   2.2798   2.2881   2.2952
  2.3042   2.3153   2.3220   2.3274   2.3435   2.3449   2.3543   2.3667
  2.3743   2.3779   2.3908   2.3934   2.3995   2.4077   2.4181   2.4252
  2.4303   2.4370   2.4407   2.4553   2.4644   2.4730   2.4791   2.4871
  2.4931   2.5057   2.5147   2.5244   2.5286   2.5356   2.5530   2.5591
  2.5648   2.5689   2.5733   2.5982   2.6041   2.6071   2.6178   2.6246
  2.6310   2.6340   2.6386   2.6444   2.6452   2.6490   2.6569   2.6653
  2.6713   2.6843   2.6900   2.7011   2.7032   2.7067   2.7122   2.7161
  2.7206   2.7351   2.7403   2.7484   2.7511   2.7588   2.7662   2.7751
  2.7825   2.7916   2.7955   2.8052   2.8065   2.8091   2.8151   2.8194
  2.8229   2.8399   2.8473   2.8490   2.8552   2.8569   2.8664   2.8764
  2.8808   2.8845   2.8886   2.8957   2.9105   2.9226   2.9310   2.9355
  2.9486   2.9508   2.9593   2.9692   2.9778   2.9838   2.9862   3.0035
  3.0073   3.0100   3.0223   3.0226   3.0323   3.0395   3.0450   3.0466
  3.0528   3.0651   3.0711   3.0741   3.0867   3.0941   3.0982   3.0997
  3.1016   3.1112   3.1127   3.1173   3.1231   3.1247   3.1355   3.1427
  3.1484   3.1569   3.1613   3.1642   3.1706   3.1746   3.1855   3.1879
  3.1918   3.2057   3.2120   3.2127   3.2149   3.2185   3.2243   3.2290
  3.2332   3.2377   3.2410   3.2490   3.2531   3.2585   3.2617   3.2677
  3.2688   3.2828   3.2847   3.2878   3.2910   3.2994   3.3029   3.3115
  3.3143   3.3190   3.3291   3.3322   3.3400   3.3471   3.3494   3.3512
  3.3563   3.3621   3.3665   3.3675   3.3717   3.3728   3.3809   3.3837
  3.3894   3.3958   3.3961   3.3999   3.4086   3.4111   3.4126   3.4181
  3.4235   3.4278   3.4295   3.4340   3.4423   3.4469   3.4520   3.4599
  3.4646   3.4680   3.4718   3.4749   3.4798   3.4815   3.4873   3.4895
  3.5027   3.5049   3.5083   3.5191   3.5253   3.5324   3.5366   3.5410
  3.5436   3.5502   3.5558   3.5634   3.5718   3.5752   3.5793   3.5822
  3.5899   3.5970   3.5982   3.6003   3.6084   3.6132   3.6141   3.6188
  3.6254   3.6321   3.6371   3.6384   3.6503   3.6518   3.6591   3.6652
  3.6667   3.6782   3.6813   3.6855   3.6921   3.6976   3.7047   3.7055
  3.7117   3.7151   3.7260   3.7279   3.7300   3.7374   3.7462   3.7521
  3.7584   3.7666   3.7702   3.7783   3.7818   3.7860   3.7919   3.7958
  3.7963   3.7997   3.8047   3.8090   3.8177   3.8207   3.8245   3.8337
  3.8384   3.8416   3.8514   3.8550   3.8618   3.8701   3.8745   3.8778
  3.8846   3.8887   3.8904   3.8976   3.9092   3.9131   3.9218   3.9250
  3.9297   3.9352   3.9399   3.9458   3.9513   3.9757   3.9772   3.9907
  3.9982   4.0103   4.0137   4.0195   4.0240   4.0319   4.0351   4.0491
  4.0516   4.0636   4.0653   4.0703   4.0746   4.0759   4.0930   4.0977
  4.1014   4.1213   4.1227   4.1378   4.1424   4.1464   4.1524   4.1588
  4.1668   4.1687   4.1729   4.1757   4.1866   4.1930   4.2005   4.2033
  4.2085   4.2116   4.2323   4.2384   4.2428   4.2503   4.2697   4.2768
  4.2820   4.2959   4.3181   4.3304   4.3405   4.3450   4.3469   4.3566
  4.3581   4.3606   4.3736   4.3787   4.3850   4.3881   4.3934   4.4076
  4.4130   4.4187   4.4216   4.4264   4.4315   4.4345   4.4427   4.4544
  4.4566   4.4802   4.4874   4.4903   4.5068   4.5134   4.5190   4.5319
  4.5408   4.5458   4.5488   4.5584   4.5666   4.5754   4.5867   4.5927
  4.5988   4.6139   4.6233   4.6304   4.6422   4.6462   4.6551   4.6590
  4.6665   4.6773   4.6834   4.6857   4.6904   4.7217   4.7277   4.7427
  4.7515   4.7525   4.7621   4.7720   4.7800   4.7926   4.7970   4.8118
  4.8245   4.8386   4.8426   4.8537   4.8659   4.8714   4.8855   4.9291
  4.9399   4.9450   4.9502   4.9629   4.9683   4.9884   4.9938   5.0008
  5.0079   5.0085   5.0193   5.0351   5.0423   5.0487   5.0743   5.0801
  5.0893   5.1032   5.1164   5.1222   5.1656   5.1724   5.1786   5.1957
  5.2087   5.2158   5.2279   5.2392   5.2461   5.2561   5.2607   5.2769
  5.2994   5.3056   5.3162   5.3265   5.3308   5.3473   5.3549   5.3691
  5.3849   5.3950   5.4028   5.4045   5.4133   5.4251   5.4392   5.4682
  5.4745   5.4840   5.5047   5.5077   5.5104   5.5188   5.5329   5.5624
  5.5787   5.5838   5.5934   5.6086   5.6200   5.6348   5.6466   5.6600
  5.7190   5.7278   5.7424   5.7676   5.8060   5.8155   5.8322   5.8567
  5.8779   5.8880   5.9073   5.9275   5.9546   5.9700   6.0119   6.0362
  6.0412   6.0751   6.1191   6.1493   6.1561   6.1728   6.1810   6.1840
  6.2333   6.2448   6.2549   6.2601   6.2743   6.2812   6.3250   6.3328
  6.4189   6.4485   6.4500   6.4802   6.5381   6.5515   6.5627   6.5970
  6.6602   6.6625   6.6696   6.7058   6.7432   6.8052   6.8283   6.8409
  6.8583   6.8990   6.9766   7.1282   7.1393   7.2024   7.2029   7.2184
  7.2406   7.3085   7.3272   7.3348   7.3592   7.3601   7.4030   7.4119
  7.4804   7.4815   7.4933   7.5149   7.5472   7.6141   7.7081   7.7686
  7.7880   7.8015   7.8881   7.9252   7.9443   7.9614   8.0723   8.1314
  8.4268   8.9182   9.0240   9.3591   9.4802   9.6605  10.1466  10.4669
 11.2242  11.4012  11.7793  12.0244  12.1407  12.1962  12.4402  12.5922
 12.7053  12.9697  13.0115  13.2688  13.3839  13.5297  13.7985  13.8525
 13.9074  14.0283  14.0459  14.5546  15.2173
 --------------------------------------------------------------
 
          Ground-State Mulliken Net Atomic Charges

     Atom                 Charge (a.u.)
  ----------------------------------------
      1 C                    -0.203555
      2 C                    -0.253058
      3 S                    -0.030580
      4 C                    -0.029192
      5 H                     0.194501
      6 C                    -0.021844
      7 C                     0.225755
      8 C                     0.248371
      9 C                    -0.054875
     10 C                    -0.004658
     11 O                    -0.333353
     12 O                    -0.343532
     13 C                    -0.086258
     14 H                     0.121726
     15 H                     0.090223
     16 H                     0.091407
     17 C                    -0.088136
     18 H                     0.125238
     19 H                     0.094384
     20 H                     0.088498
     21 C                    -0.287246
     22 S                    -0.044868
     23 C                     0.003276
     24 H                     0.185760
     25 H                     0.203696
     26 C                    -0.136394
     27 S                     0.113702
     28 C                    -0.112753
     29 C                     0.086535
     30 C                    -0.120653
     31 S                     0.074347
     32 C                    -0.159362
     33 C                     0.399398
     34 F                    -0.203168
     35 C                     0.450689
     36 O                    -0.461637
     37 O                    -0.301224
     38 C                    -0.058051
     39 H                     0.121766
     40 H                     0.095452
     41 H                     0.095432
     42 H                     0.224241
  ----------------------------------------
  Sum of atomic charges =     0.000000

 -----------------------------------------------------------------
                    Cartesian Multipole Moments
 -----------------------------------------------------------------
    Charge (ESU x 10^10)
                -0.0000
    Dipole Moment (Debye)
         X       4.2757      Y       3.0153      Z       3.0747
       Tot       6.0686
    Quadrupole Moments (Debye-Ang)
        XX    -186.3986     XY       6.9997     YY    -186.6632
        XZ     -11.7849     YZ      -5.6269     ZZ    -180.9027
    Octopole Moments (Debye-Ang^2)
       XXX    -447.2547    XXY     497.5728    XYY    -142.8266
       YYY    1197.1524    XXZ     144.7344    XYZ       0.9011
       YYZ     176.4248    XZZ     -76.2548    YZZ     414.1900
       ZZZ     598.2352
    Hexadecapole Moments (Debye-Ang^3)
      XXXX   -2725.6000   XXXY    -588.1003   XXYY   -3956.8368
      XYYY    -689.2528   YYYY  -17792.3372   XXXZ    1247.6351
      XXYZ     -52.4026   XYYZ     280.0451   YYYZ     222.1685
      XXZZ   -1308.9573   XYZZ      19.6345   YYZZ   -4086.0451
      XZZZ     911.4259   YZZZ     -15.0104   ZZZZ   -7451.5564
 -----------------------------------------------------------------
 Total job time:  295.65s(wall), 9698.65s(cpu) 
 Mon Jan  8 20:37:36 2024

        *************************************************************
        *                                                           *
        *  Thank you very much for using Q-Chem.  Have a nice day.  *
        *                                                           *
        *************************************************************


0 sent ACK to 0 
now end server 0 ... 
cleanup process ... done
remove work dirs ./qchem1637304.0 -- ./qchem1637304.0
rm -rf ./qchem1637304.0
rm -rf ./qchem1637304
