You are running Q-Chem version: 5.4.0

#
# job setting
#
local host:  exp-7-31
current dir: /home/rramji/project-csd799/aromodel/ptb7fout-qchem/rotation-run
input file:  Dimethoxy_Benzodithiophene_Phi_15_Theta_220_Methylcarbonyl_3_Fluoro_Thienothiophene.qcin
output file: 
nprocs     : 1
nthreads   : 64
#
# qchem installation setting
#
QC:          /cm/shared/apps/spack/cpu/opt/spack/linux-centos8-zen2/gcc-10.2.0/qchem-5.4-akfmr7b3t57bfs6qan3padb2wnb2i7cl
QCAUX:       /cm/shared/apps/spack/cpu/opt/spack/linux-centos8-zen2/gcc-10.2.0/qchem-5.4-akfmr7b3t57bfs6qan3padb2wnb2i7cl/qcaux
QCPROG:      /cm/shared/apps/spack/cpu/opt/spack/linux-centos8-zen2/gcc-10.2.0/qchem-5.4-akfmr7b3t57bfs6qan3padb2wnb2i7cl/exe/qcprog.exe
QCPROG_S:    /cm/shared/apps/spack/cpu/opt/spack/linux-centos8-zen2/gcc-10.2.0/qchem-5.4-akfmr7b3t57bfs6qan3padb2wnb2i7cl/exe/qcprog.exe_s
PARALLEL:    -DPARALLEL
QCMPI:       mpich
#
# qchem directory setting
#
qcrun:       qchem4017803
QCSCRATCH:   .
QCLOCALSCR:  
QCTMPDIR:    .
QCFILEPREF:  ./qchem4017803
QCSAVEDIR:   
workdirs:    ./qchem4017803
workdir0:    ./qchem4017803
partmpdirs =  
#
# parallel setting
#
QCRSH:           ssh
QCMPI:           mpich
QCMPIRUN:        /cm/shared/apps/spack/cpu/opt/spack/linux-centos8-zen2/gcc-10.2.0/qchem-5.4-akfmr7b3t57bfs6qan3padb2wnb2i7cl/bin/mpi/mpirun_qchem
QCMACHINEFILE:   ./qchem4017803/hostfile
exp-7-31

#
# env setting
#
exported envs:   QC QCAUX QCSCRATCH QCRUNNAME QCFILEPREF QCPROG QCPROG_S GUIFILE

Running Job 1 of 1 Dimethoxy_Benzodithiophene_Phi_15_Theta_220_Methylcarbonyl_3_Fluoro_Thienothiophene.qcin
qchem Dimethoxy_Benzodithiophene_Phi_15_Theta_220_Methylcarbonyl_3_Fluoro_Thienothiophene.qcin_4017803.0 ./qchem4017803/ 1
/cm/shared/apps/spack/cpu/opt/spack/linux-centos8-zen2/gcc-10.2.0/qchem-5.4-akfmr7b3t57bfs6qan3padb2wnb2i7cl/bin/mpi/mpirun_qchem -machinefile ./qchem4017803/hostfile -np 1 /cm/shared/apps/spack/cpu/opt/spack/linux-centos8-zen2/gcc-10.2.0/qchem-5.4-akfmr7b3t57bfs6qan3padb2wnb2i7cl/exe/qcprog.exe Dimethoxy_Benzodithiophene_Phi_15_Theta_220_Methylcarbonyl_3_Fluoro_Thienothiophene.qcin_4017803.0 ./qchem4017803/

Process 0 of 1 is on exp-7-31 - thread support 0
initial socket setup ...start
initial socket setup ...done 
now start server 0 ... 
                  Welcome to Q-Chem
     A Quantum Leap Into The Future Of Chemistry


 Q-Chem 5.4, Q-Chem, Inc., Pleasanton, CA (2021)

 License issued to: University of California, San Diego (site)

 E. Epifanovsky,  A. T. B. Gilbert,  Xintian Feng,  Joonho Lee,  Yuezhi Mao,  
 N. Mardirossian,  P. Pokhilko,  A. White,  M. Wormit,  M. P. Coons,  
 A. L. Dempwolff,  Zhengting Gan,  D. Hait,  P. R. Horn,  L. D. Jacobson,  
 I. Kaliman,  J. Kussmann,  A. W. Lange,  Ka Un Lao,  D. S. Levine,  Jie Liu,  
 S. C. McKenzie,  A. F. Morrison,  K. Nanda,  F. Plasser,  D. R. Rehn,  
 M. L. Vidal,  Zhi-Qiang You,  Ying Zhu,  B. Alam,  B. Albrecht,  
 A. Aldossary,  E. Alguire,  J. H. Andersen,  D. Barton,  K. Begam,  A. Behn,  
 Y. A. Bernard,  E. J. Berquist,  H. Burton,  A. Carreras,  K. Carter-Fenk,  
 R. Chakraborty,  A. D. Chien,  K. D. Closser,  V. Cofer-Shabica,  
 S. Dasgupta,  Jia Deng,  M. de Wergifosse,  M. Diedenhofen,  Hainam Do,  
 S. Ehlert,  Po-Tung Fang,  S. Fatehi,  Qingguo Feng,  J. Gayvert,  
 Qinghui Ge,  G. Gidofalvi,  M. Goldey,  J. Gomes,  C. Gonzalez-Espinoza,  
 S. Gulania,  A. Gunina,  M. W. D. Hanson-Heine,  P. H. P. Harbach,  
 A. W. Hauser,  M. F. Herbst,  M. Hernandez Vera,  M. Hodecker,  
 Z. C. Holden,  S. Houck,  Xunkun Huang,  Kerwin Hui,  B. C. Huynh,  
 M. Ivanov,  Hyunjun Ji,  Hanjie Jiang,  B. Kaduk,  S. Kaehler,  
 K. Khistyaev,  Jaehoon Kim,  P. Klunzinger,  Z. Koczor-Benda,  
 Joong Hoon Koh,  D. Kosenkov,  L. Koulias,  T. Kowalczyk,  C. M. Krauter,  
 K. Kue,  A. Kunitsa,  T. Kus,  A. Landau,  K. V. Lawler,  D. Lefrancois,  
 S. Lehtola,  Rain Li,  Yi-Pei Li,  Jiashu Liang,  M. Liebenthal,  
 Hung-Hsuan Lin,  You-Sheng Lin,  Fenglai Liu,  Kuan-Yu Liu,  
 M. Loipersberger,  A. Luenser,  A. Manjanath,  P. Manohar,  E. Mansoor,  
 S. F. Manzer,  Shan-Ping Mao,  A. V. Marenich,  T. Markovich,  S. Mason,  
 S. A. Maurer,  P. F. McLaughlin,  M. F. S. J. Menger,  J.-M. Mewes,  
 S. A. Mewes,  P. Morgante,  J. W. Mullinax,  T. S. Nguyen-Beck,  
 K. J. Oosterbaan,  G. Paran,  Alexander C. Paul,  Suranjan K. Paul,  
 F. Pavosevic,  Zheng Pei,  S. Prager,  E. I. Proynov,  E. Ramos,  B. Rana,  
 A. E. Rask,  A. Rettig,  R. M. Richard,  F. Rob,  E. Rossomme,  T. Scheele,  
 M. Scheurer,  M. Schneider,  N. Sergueev,  S. M. Sharada,  W. Skomorowski,  
 D. W. Small,  C. J. Stein,  Yu-Chuan Su,  E. J. Sundstrom,  Zhen Tao,  
 J. Thirman,  T. Tsuchimochi,  N. M. Tubman,  S. P. Veccham,  O. Vydrov,  
 J. Wenzel,  J. Witte,  A. Yamada,  Kun Yao,  S. Yeganeh,  S. R. Yost,  
 A. Zech,  Igor Ying Zhang,  Xing Zhang,  Yu Zhang,  D. Zuev,  
 A. Aspuru-Guzik,  A. T. Bell,  N. A. Besley,  K. B. Bravaya,  B. R. Brooks,  
 D. Casanova,  Jeng-Da Chai,  S. Coriani,  C. J. Cramer,  
 A. E. DePrince, III,  R. A. DiStasio Jr.,  A. Dreuw,  B. D. Dunietz,  
 T. R. Furlani,  W. A. Goddard III,  S. Grimme,  S. Hammes-Schiffer,  
 T. Head-Gordon,  W. J. Hehre,  Chao-Ping Hsu,  T.-C. Jagau,  Yousung Jung,  
 A. Klamt,  Jing Kong,  D. S. Lambrecht,  WanZhen Liang,  N. J. Mayhall,  
 C. W. McCurdy,  J. B. Neaton,  C. Ochsenfeld,  J. A. Parkhill,  R. Peverati,  
 V. A. Rassolov,  Yihan Shao,  L. V. Slipchenko,  T. Stauch,  R. P. Steele,  
 J. E. Subotnik,  A. J. W. Thom,  A. Tkatchenko,  D. G. Truhlar,  
 T. Van Voorhis,  T. A. Wesolowski,  K. B. Whaley,  H. L. Woodcock III,  
 P. M. Zimmerman,  S. Faraji,  P. M. W. Gill,  M. Head-Gordon,  
 J. M. Herbert,  A. I. Krylov

 Contributors to earlier versions of Q-Chem not listed above: 
 R. D. Adamson,  B. Austin,  R. Baer,  J. Baker,  G. J. O. Beran,  
 K. Brandhorst,  S. T. Brown,  E. F. C. Byrd,  A. K. Chakraborty,  
 G. K. L. Chan,  Chun-Min Chang,  Yunqing Chen,  C.-L. Cheng,  
 Siu Hung Chien,  D. M. Chipman,  D. L. Crittenden,  H. Dachsel,  
 R. J. Doerksen,  A. D. Dutoi,  R. G. Edgar,  J. Fosso-Tande,  
 L. Fusti-Molnar,  D. Ghosh,  A. Ghysels,  A. Golubeva-Zadorozhnaya,  
 J. Gonthier,  M. S. Gordon,  S. R. Gwaltney,  G. Hawkins,  J. E. Herr,  
 A. Heyden,  S. Hirata,  E. G. Hohenstein,  G. Kedziora,  F. J. Keil,  
 C. Kelley,  Jihan Kim,  R. A. King,  R. Z. Khaliullin,  P. P. Korambath,  
 W. Kurlancheek,  A. Laurent,  A. M. Lee,  M. S. Lee,  S. V. Levchenko,  
 Ching Yeh Lin,  D. Liotard,  E. Livshits,  R. C. Lochan,  I. Lotan,  
 L. A. Martinez-Martinez,  P. E. Maslen,  N. Nair,  D. P. O'Neill,  
 D. Neuhauser,  E. Neuscamman,  C. M. Oana,  R. Olivares-Amaya,  R. Olson,  
 T. M. Perrine,  B. Peters,  P. A. Pieniazek,  A. Prociuk,  Y. M. Rhee,  
 J. Ritchie,  M. A. Rohrdanz,  E. Rosta,  N. J. Russ,  H. F. Schaefer III,  
 M. W. Schmidt,  N. E. Schultz,  S. Sharma,  N. Shenvi,  C. D. Sherrill,  
 A. C. Simmonett,  A. Sodt,  T. Stein,  D. Stuck,  K. S. Thanthiriwatte,  
 V. Vanovschi,  L. Vogt,  Tao Wang,  A. Warshel,  M. A. Watson,  
 C. F. Williams,  Q. Wu,  X. Xu,  Jun Yang,  W. Zhang,  Yan Zhao

 Please cite Q-Chem as follows:
 Y. Shao et al., Mol. Phys. 113, 184-215 (2015)
 DOI: 10.1080/00268976.2014.952696

 Q-Chem 5.4.0 for Intel X86 EM64T Linux

 Parts of Q-Chem use Armadillo 9.800.1 (Horizon Scraper).
 http://arma.sourceforge.net/

 Q-Chem begins on Tue Jan  9 01:24:38 2024  

 Host: 
0

     Scratch files written to ./qchem4017803//
 May1621 |scratch|qcdevops|jenkins|workspace|build_RNUM    
 Parallel job on  1  processors
 Processing $rem in /cm/shared/apps/spack/cpu/opt/spack/linux-centos8-zen2/gcc-10.2.0/qchem-5.4-akfmr7b3t57bfs6qan3padb2wnb2i7cl/config/preferences:
 Processing $rem in /home/rramji/.qchemrc:
 Symmetry turned off for PCM/SM12/SMD calculation
 Core orbitals will be frozen

 Checking the input file for inconsistencies... 	...done.

 Q-Chem warning in module forms1/BasisType.C, line 2236:

 You are not using the predefined 5D/6D in this basis set.


--------------------------------------------------------------
User input:
--------------------------------------------------------------
$molecule
0 1
C	0.236226	-8.517702	-0.217225
C	-0.448921	-7.641575	0.611939
S	1.218777	-7.638634	-1.413715
C	-0.206907	-6.264785	0.323572
H	-1.118185	-7.966081	1.418739
C	0.711285	-6.072714	-0.768156
C	1.053725	-4.787049	-1.215016
C	-0.804258	-5.162801	0.999917
C	-0.464908	-3.874817	0.550033
C	0.456457	-3.683952	-0.541024
O	-1.630752	-5.499772	2.028811
O	1.883064	-4.459055	-2.249357
C	2.956754	-5.329063	-2.586579
H	3.619069	-4.755694	-3.262802
H	2.609423	-6.238095	-3.124711
H	3.531667	-5.637262	-1.686639
C	-2.599073	-4.572261	2.503251
H	-3.260097	-5.139743	3.185356
H	-3.207034	-4.153131	1.672937
H	-2.135214	-3.739531	3.075213
C	0.694410	-2.306654	-0.828107
S	-0.983256	-2.306501	1.188794
C	0.000000	-1.435185	0.000000
H	1.364851	-1.978138	-1.632185
H	0.234980	-9.614033	-0.221288
C	0.000000	0.000000	0.000000
S	0.234628	0.873813	1.507541
C	0.640889	2.392969	0.718873
C	0.234815	0.873434	-1.067872
C	0.592377	2.216811	-0.686410
S	0.174526	0.637422	-2.805516
C	0.622551	2.330840	-3.054530
C	0.803505	3.015647	-1.862551
F	1.144815	4.307994	-1.819088
C	0.740334	2.763108	-4.456084
O	0.548793	2.017428	-5.406510
O	1.082665	4.069544	-4.569225
C	1.215848	4.546407	-5.916207
H	1.494066	5.611729	-5.833064
H	0.261736	4.436296	-6.470168
H	2.000108	3.981294	-6.459293
H	0.878739	3.286099	1.306486
$end

$rem
JOBTYPE		SP
EXCHANGE	HF
CORRELATION	pRIMP2
BASIS		cc-pvtz
METHOD		rimp2
AUX_BASIS	rimp2-cc-pvtz
SOLVENT_METHOD	PCM
PURECART	11111
SYMMETRY	false
MEM_TOTAL	110000
SCF_CONVERGENCE = 6
THRESH=10
GUI = 2
$end



$solvent
dielectric 4.90
$end
--------------------------------------------------------------
 ----------------------------------------------------------------
             Standard Nuclear Orientation (Angstroms)
    I     Atom           X                Y                Z
 ----------------------------------------------------------------
    1      C       0.2362260000    -8.5177020000    -0.2172250000
    2      C      -0.4489210000    -7.6415750000     0.6119390000
    3      S       1.2187770000    -7.6386340000    -1.4137150000
    4      C      -0.2069070000    -6.2647850000     0.3235720000
    5      H      -1.1181850000    -7.9660810000     1.4187390000
    6      C       0.7112850000    -6.0727140000    -0.7681560000
    7      C       1.0537250000    -4.7870490000    -1.2150160000
    8      C      -0.8042580000    -5.1628010000     0.9999170000
    9      C      -0.4649080000    -3.8748170000     0.5500330000
   10      C       0.4564570000    -3.6839520000    -0.5410240000
   11      O      -1.6307520000    -5.4997720000     2.0288110000
   12      O       1.8830640000    -4.4590550000    -2.2493570000
   13      C       2.9567540000    -5.3290630000    -2.5865790000
   14      H       3.6190690000    -4.7556940000    -3.2628020000
   15      H       2.6094230000    -6.2380950000    -3.1247110000
   16      H       3.5316670000    -5.6372620000    -1.6866390000
   17      C      -2.5990730000    -4.5722610000     2.5032510000
   18      H      -3.2600970000    -5.1397430000     3.1853560000
   19      H      -3.2070340000    -4.1531310000     1.6729370000
   20      H      -2.1352140000    -3.7395310000     3.0752130000
   21      C       0.6944100000    -2.3066540000    -0.8281070000
   22      S      -0.9832560000    -2.3065010000     1.1887940000
   23      C       0.0000000000    -1.4351850000     0.0000000000
   24      H       1.3648510000    -1.9781380000    -1.6321850000
   25      H       0.2349800000    -9.6140330000    -0.2212880000
   26      C       0.0000000000     0.0000000000     0.0000000000
   27      S       0.2346280000     0.8738130000     1.5075410000
   28      C       0.6408890000     2.3929690000     0.7188730000
   29      C       0.2348150000     0.8734340000    -1.0678720000
   30      C       0.5923770000     2.2168110000    -0.6864100000
   31      S       0.1745260000     0.6374220000    -2.8055160000
   32      C       0.6225510000     2.3308400000    -3.0545300000
   33      C       0.8035050000     3.0156470000    -1.8625510000
   34      F       1.1448150000     4.3079940000    -1.8190880000
   35      C       0.7403340000     2.7631080000    -4.4560840000
   36      O       0.5487930000     2.0174280000    -5.4065100000
   37      O       1.0826650000     4.0695440000    -4.5692250000
   38      C       1.2158480000     4.5464070000    -5.9162070000
   39      H       1.4940660000     5.6117290000    -5.8330640000
   40      H       0.2617360000     4.4362960000    -6.4701680000
   41      H       2.0001080000     3.9812940000    -6.4592930000
   42      H       0.8787390000     3.2860990000     1.3064860000
 ----------------------------------------------------------------
 Nuclear Repulsion Energy =        3279.76286601 hartrees
 There are      119 alpha and      119 beta electrons
 Requested basis set is cc-pVTZ
 There are 376 shells and 1068 basis functions

 Total QAlloc Memory Limit 110000 MB
 Mega-Array Size       188 MB
 MEM_STATIC part       192 MB
 Discretize the solute cavity surface with Lebedev spheres
	Using 110 Lebedev grid points for each H atom
	Using 194 Lebedev grid points for other atoms
	Atomic van der Waals radii will be scaled by 1.20
 Remove points where switching function is < 1.0e-08
 Keep 2904 surface tesserae and discard 4152 interior tesserae
 Molecular Surface Area = 439.435 Angst**2
 Requested basis set is rimp2-cc-pVTZ
 There are 833 shells and 2903 basis functions
 A cutoff of  1.0D-10 yielded  30869 shell pairs
 There are    237391 function pairs (    308331 Cartesian)
 Smallest overlap matrix eigenvalue = 2.16E-05

 Scale SEOQF with 1.000000e-01/1.000000e-02/1.000000e-02

 Standard Electronic Orientation quadrupole field applied
 Nucleus-field energy     =     0.0000000286 hartrees
 Guess from superposition of atomic densities
 Warning:  Energy on first SCF cycle will be non-variational
 SAD guess density has 238.000000 electrons

 -----------------------------------------------------------------------
  General SCF calculation program by
  Eric Jon Sundstrom, Paul Horn, Yuezhi Mao, Dmitri Zuev, Alec White,
  David Stuck, Shaama M.S., Shane Yost, Joonho Lee, David Small,
  Daniel Levine, Susi Lehtola, Hugh Burton, Evgeny Epifanovsky,
  Bang C. Huynh
 -----------------------------------------------------------------------
 Hartree-Fock
 using 64 threads for integral computing
 -------------------------------------------------------
 OpenMP Integral computing Module                
 Release: version 1.0, May 2013, Q-Chem Inc. Pittsburgh 
 -------------------------------------------------------
 A restricted SCF calculation will be
 performed using DIIS
 SCF converges when DIIS error is below 1.0e-06
 ---------------------------------------
  Cycle       Energy         DIIS error
 ---------------------------------------
    1   -2765.2190666432      1.75e-02  
    2   -2753.8799577498      1.56e-03  
    3   -2754.2187300284      8.61e-04  
    4   -2754.2999624154      2.56e-04  
    5   -2754.3115808163      6.94e-05  
    6   -2754.3126649576      2.38e-05  
    7   -2754.3129008636      1.14e-05  
    8   -2754.3129785765      4.27e-06  
    9   -2754.3129932219      1.69e-06  
   10   -2754.3129950408      7.30e-07  Convergence criterion met
 ---------------------------------------
 SCF time:   CPU 6165.71s  wall 241.00s 

************** Final PCM Free Energy Summary **************
 G_electrostatic  =      -0.01851591 hartree =     -11.61890922 kcal/mol
 G_cavitation     =       0.00000000 hartree =       0.00000000 kcal/mol
 G_dispersion     =       0.00000000 hartree =       0.00000000 kcal/mol
 G_repulsion      =       0.00000000 hartree =       0.00000000 kcal/mol
 --------------------------------------------------
 Non-electrostatic Free Energy =       0.00000000 hartree =       0.00000000 kcal/mol
 Total                         =      -0.01851591 hartree =     -11.61890922 kcal/mol
 --------------------------------------------------
 SCF Energy (H0 + V/2)                       =   -2754.31299504 
 Solute Internal Energy (H0)                 =   -2754.29447913 
 Total Free Energy (H0 + V/2 + non-elec)     =   -2754.31299504 hartree
                                             = -1728357.49048647 kcal/mol
***********************************************************

 SCF   energy in the final basis set =    -2754.3129950408
 Total energy in the final basis set =    -2754.3129950408


 --------------------------------------------------------------
  Generalized many-body perturbation theory program
  by Joonho Lee, Fazle Rob, Xintian Feng, Evgeny Epifanovsky

 No regularization used 
 (reg. param. = 0.0000e+00)
  (P|Q)^-1/2 Time:  CPU 234.86 s  wall 3.89 s

 In RI-MP2 calculation: 
 # of frozen core orbitals: 45

 Components of the RIMP2 correlation energy:
        aaaa    correlation energy =        -0.6697260614 a.u.
        abab    correlation energy =        -3.7124013779 a.u.
        bbbb    correlation energy =        -0.6697260614 a.u.
        non-Brillouin singles      =        -0.0000000000 a.u.
        total same-spin energy     =        -1.3394521227 a.u.
        total opposite-spin energy =        -3.7124013779 a.u.

 Total  RIMP2   correlation energy =        -5.0518535006 a.u.
        RIMP2         total energy =     -2759.3648485414 a.u.

 RI-MP2 Energy Time:  CPU 2724.12 s  wall 43.90 s
 
 --------------------------------------------------------------
 
                    Orbital Energies (a.u.)
 --------------------------------------------------------------
 
 Alpha MOs
 -- Occupied --
-92.0153 -91.9981 -91.9899 -91.9864 -26.3430 -20.6146 -20.5927 -20.5911
-20.5610 -11.4091 -11.3819 -11.3196 -11.3177 -11.3105 -11.3008 -11.2983
-11.2972 -11.2955 -11.2887 -11.2874 -11.2864 -11.2857 -11.2851 -11.2842
-11.2796 -11.2614 -11.2588 -11.2561 -11.2500  -9.0139  -8.9980  -8.9905
 -8.9863  -6.6946  -6.6941  -6.6935  -6.6790  -6.6783  -6.6772  -6.6714
 -6.6708  -6.6698  -6.6673  -6.6666  -6.6658  -1.6601  -1.4671  -1.4168
 -1.4139  -1.3697  -1.2216  -1.1947  -1.1659  -1.1361  -1.0851  -1.0521
 -1.0416  -1.0229  -1.0016  -0.9881  -0.9632  -0.9599  -0.9504  -0.9392
 -0.8961  -0.8676  -0.8515  -0.8079  -0.7982  -0.7874  -0.7867  -0.7644
 -0.7551  -0.7341  -0.7250  -0.7096  -0.7018  -0.6851  -0.6832  -0.6805
 -0.6737  -0.6593  -0.6580  -0.6525  -0.6305  -0.6199  -0.6171  -0.6040
 -0.5978  -0.5831  -0.5785  -0.5709  -0.5655  -0.5618  -0.5541  -0.5499
 -0.5338  -0.5304  -0.5245  -0.5164  -0.5162  -0.5077  -0.5068  -0.4960
 -0.4881  -0.4805  -0.4760  -0.4735  -0.4686  -0.4673  -0.4604  -0.4192
 -0.3956  -0.3856  -0.3589  -0.3500  -0.3242  -0.2908  -0.2532
 -- Virtual --
  0.0296   0.0580   0.1102   0.1240   0.1344   0.1504   0.1539   0.1560
  0.1571   0.1603   0.1610   0.1707   0.1821   0.1868   0.1904   0.1963
  0.2039   0.2048   0.2151   0.2168   0.2209   0.2214   0.2244   0.2280
  0.2345   0.2397   0.2450   0.2484   0.2544   0.2643   0.2747   0.2784
  0.2923   0.2991   0.3258   0.3329   0.3366   0.3410   0.3451   0.3523
  0.3556   0.3597   0.3665   0.3792   0.3804   0.3843   0.3858   0.3860
  0.3919   0.3952   0.4031   0.4078   0.4089   0.4163   0.4222   0.4246
  0.4305   0.4361   0.4408   0.4461   0.4473   0.4520   0.4548   0.4582
  0.4615   0.4650   0.4709   0.4750   0.4824   0.4847   0.4881   0.4921
  0.4979   0.4994   0.5038   0.5105   0.5112   0.5135   0.5159   0.5215
  0.5285   0.5291   0.5326   0.5338   0.5412   0.5431   0.5472   0.5501
  0.5532   0.5534   0.5573   0.5610   0.5679   0.5699   0.5734   0.5791
  0.5888   0.5906   0.5921   0.5991   0.6003   0.6065   0.6092   0.6132
  0.6152   0.6188   0.6199   0.6220   0.6233   0.6259   0.6311   0.6351
  0.6367   0.6404   0.6432   0.6467   0.6509   0.6548   0.6641   0.6682
  0.6745   0.6794   0.6822   0.6848   0.6919   0.6990   0.7030   0.7101
  0.7113   0.7144   0.7200   0.7270   0.7311   0.7358   0.7411   0.7499
  0.7563   0.7585   0.7641   0.7720   0.7784   0.7832   0.7941   0.8011
  0.8036   0.8068   0.8158   0.8211   0.8280   0.8284   0.8425   0.8444
  0.8509   0.8519   0.8559   0.8666   0.8681   0.8734   0.8788   0.8884
  0.8928   0.8966   0.9001   0.9049   0.9077   0.9126   0.9201   0.9218
  0.9306   0.9374   0.9396   0.9483   0.9506   0.9525   0.9610   0.9702
  0.9722   0.9785   0.9805   0.9827   0.9878   0.9952   0.9996   1.0037
  1.0091   1.0136   1.0143   1.0254   1.0295   1.0333   1.0371   1.0438
  1.0461   1.0532   1.0563   1.0640   1.0674   1.0750   1.0769   1.0818
  1.0833   1.0867   1.0912   1.1003   1.1011   1.1047   1.1096   1.1149
  1.1191   1.1220   1.1249   1.1326   1.1393   1.1448   1.1514   1.1538
  1.1596   1.1656   1.1738   1.1801   1.1838   1.1868   1.1881   1.1988
  1.2037   1.2097   1.2156   1.2170   1.2206   1.2217   1.2273   1.2296
  1.2352   1.2370   1.2436   1.2481   1.2591   1.2647   1.2673   1.2713
  1.2728   1.2749   1.2809   1.2977   1.3045   1.3066   1.3137   1.3201
  1.3243   1.3320   1.3364   1.3412   1.3501   1.3587   1.3666   1.3687
  1.3736   1.3819   1.3911   1.4009   1.4042   1.4123   1.4196   1.4263
  1.4361   1.4372   1.4475   1.4545   1.4730   1.4774   1.4857   1.4889
  1.5000   1.5026   1.5036   1.5067   1.5119   1.5167   1.5228   1.5310
  1.5327   1.5394   1.5404   1.5417   1.5457   1.5487   1.5568   1.5661
  1.5737   1.5786   1.5857   1.5992   1.6072   1.6111   1.6238   1.6253
  1.6320   1.6454   1.6534   1.6575   1.6618   1.6639   1.6721   1.6848
  1.6873   1.6945   1.6999   1.7048   1.7169   1.7235   1.7272   1.7484
  1.7597   1.7686   1.7796   1.7847   1.7892   1.8031   1.8109   1.8196
  1.8221   1.8289   1.8362   1.8449   1.8638   1.8666   1.8717   1.8731
  1.8841   1.8892   1.9015   1.9042   1.9156   1.9181   1.9223   1.9365
  1.9391   1.9511   1.9522   1.9595   1.9624   1.9728   1.9764   1.9882
  1.9967   2.0006   2.0043   2.0174   2.0281   2.0361   2.0422   2.0558
  2.0701   2.0807   2.0878   2.0934   2.1078   2.1086   2.1266   2.1416
  2.1553   2.1596   2.1660   2.1687   2.1763   2.1860   2.1930   2.1962
  2.1999   2.2042   2.2056   2.2125   2.2250   2.2289   2.2338   2.2437
  2.2501   2.2529   2.2555   2.2595   2.2734   2.2736   2.2845   2.2927
  2.3020   2.3103   2.3160   2.3230   2.3336   2.3442   2.3520   2.3527
  2.3675   2.3753   2.3835   2.3897   2.3947   2.4068   2.4142   2.4217
  2.4288   2.4327   2.4387   2.4505   2.4573   2.4749   2.4814   2.4851
  2.4949   2.5029   2.5122   2.5225   2.5268   2.5442   2.5475   2.5616
  2.5650   2.5672   2.5847   2.5965   2.6065   2.6135   2.6176   2.6223
  2.6272   2.6315   2.6366   2.6383   2.6435   2.6546   2.6652   2.6696
  2.6793   2.6830   2.6882   2.6920   2.7004   2.7014   2.7088   2.7148
  2.7209   2.7276   2.7311   2.7398   2.7512   2.7542   2.7639   2.7746
  2.7816   2.7887   2.7922   2.7960   2.7999   2.8074   2.8126   2.8179
  2.8246   2.8317   2.8386   2.8425   2.8506   2.8542   2.8633   2.8718
  2.8738   2.8822   2.8851   2.8890   2.8988   2.9029   2.9176   2.9240
  2.9383   2.9524   2.9543   2.9664   2.9719   2.9770   2.9879   2.9925
  2.9983   3.0087   3.0107   3.0135   3.0209   3.0237   3.0317   3.0400
  3.0454   3.0569   3.0648   3.0658   3.0815   3.0855   3.0891   3.0945
  3.1001   3.1022   3.1082   3.1112   3.1189   3.1219   3.1320   3.1459
  3.1494   3.1518   3.1565   3.1593   3.1651   3.1706   3.1786   3.1825
  3.1880   3.1964   3.2008   3.2091   3.2165   3.2176   3.2255   3.2296
  3.2336   3.2376   3.2414   3.2452   3.2543   3.2567   3.2661   3.2691
  3.2712   3.2786   3.2806   3.2872   3.2894   3.2912   3.3016   3.3055
  3.3108   3.3163   3.3243   3.3299   3.3317   3.3360   3.3438   3.3451
  3.3478   3.3565   3.3592   3.3623   3.3647   3.3671   3.3728   3.3794
  3.3815   3.3887   3.3926   3.3947   3.4002   3.4032   3.4085   3.4090
  3.4215   3.4292   3.4347   3.4358   3.4396   3.4440   3.4489   3.4563
  3.4584   3.4621   3.4682   3.4724   3.4753   3.4764   3.4820   3.4860
  3.4968   3.5008   3.5085   3.5107   3.5239   3.5253   3.5274   3.5352
  3.5411   3.5458   3.5527   3.5542   3.5569   3.5622   3.5709   3.5789
  3.5797   3.5856   3.5911   3.5934   3.5969   3.6019   3.6030   3.6129
  3.6180   3.6241   3.6316   3.6336   3.6371   3.6468   3.6557   3.6596
  3.6670   3.6696   3.6776   3.6832   3.6862   3.6903   3.6924   3.6964
  3.7017   3.7060   3.7101   3.7108   3.7216   3.7263   3.7353   3.7391
  3.7441   3.7464   3.7553   3.7642   3.7704   3.7769   3.7793   3.7850
  3.7923   3.7964   3.7976   3.8075   3.8077   3.8155   3.8183   3.8198
  3.8246   3.8324   3.8387   3.8460   3.8489   3.8607   3.8697   3.8724
  3.8769   3.8801   3.8862   3.8928   3.9019   3.9108   3.9115   3.9252
  3.9304   3.9343   3.9441   3.9508   3.9539   3.9668   3.9705   3.9808
  3.9891   3.9916   3.9944   4.0071   4.0128   4.0289   4.0309   4.0381
  4.0480   4.0575   4.0604   4.0684   4.0707   4.0750   4.0809   4.0867
  4.1039   4.1079   4.1161   4.1227   4.1328   4.1417   4.1460   4.1554
  4.1608   4.1642   4.1675   4.1687   4.1792   4.1801   4.1891   4.1964
  4.2043   4.2092   4.2272   4.2362   4.2449   4.2492   4.2567   4.2618
  4.2719   4.2855   4.2981   4.3129   4.3165   4.3258   4.3370   4.3420
  4.3556   4.3589   4.3628   4.3766   4.3774   4.3831   4.3883   4.3977
  4.4032   4.4086   4.4119   4.4222   4.4286   4.4323   4.4391   4.4509
  4.4568   4.4685   4.4844   4.4890   4.5013   4.5037   4.5157   4.5258
  4.5361   4.5408   4.5447   4.5543   4.5592   4.5760   4.5821   4.5903
  4.5973   4.6040   4.6126   4.6268   4.6309   4.6433   4.6459   4.6549
  4.6594   4.6688   4.6803   4.6852   4.6926   4.7022   4.7200   4.7333
  4.7434   4.7549   4.7649   4.7715   4.7810   4.7888   4.7968   4.8234
  4.8314   4.8372   4.8488   4.8516   4.8700   4.8774   4.8890   4.9200
  4.9336   4.9455   4.9503   4.9566   4.9653   4.9730   4.9847   4.9978
  5.0052   5.0091   5.0111   5.0197   5.0305   5.0479   5.0583   5.0720
  5.0827   5.1047   5.1180   5.1256   5.1483   5.1626   5.1724   5.1942
  5.2019   5.2170   5.2456   5.2508   5.2530   5.2542   5.2586   5.2822
  5.2971   5.3112   5.3114   5.3251   5.3389   5.3513   5.3569   5.3665
  5.3783   5.3923   5.3989   5.4083   5.4263   5.4271   5.4307   5.4636
  5.4851   5.4865   5.5066   5.5097   5.5133   5.5306   5.5409   5.5690
  5.5741   5.5843   5.5864   5.6055   5.6184   5.6219   5.6538   5.6666
  5.7154   5.7365   5.7500   5.7775   5.8077   5.8175   5.8387   5.8558
  5.8732   5.8838   5.9126   5.9294   5.9557   5.9790   6.0024   6.0425
  6.0497   6.0868   6.1051   6.1507   6.1628   6.1706   6.1781   6.1872
  6.2385   6.2461   6.2616   6.2699   6.2839   6.2989   6.3056   6.3667
  6.4196   6.4439   6.4503   6.4940   6.5393   6.5486   6.5568   6.6042
  6.6555   6.6613   6.6714   6.6970   6.7462   6.8014   6.8301   6.8385
  6.8598   6.8921   6.9787   7.1191   7.1365   7.2042   7.2065   7.2153
  7.2343   7.3101   7.3202   7.3311   7.3635   7.3639   7.4062   7.4135
  7.4781   7.4859   7.4885   7.5246   7.5515   7.6154   7.7059   7.7733
  7.7891   7.7964   7.8950   7.9179   7.9434   7.9622   8.0884   8.1339
  8.4968   8.9223   9.0229   9.3633   9.4710   9.6514  10.0694  10.6006
 11.1648  11.4555  11.7777  11.9508  12.1313  12.1770  12.4150  12.5585
 12.6630  12.9328  13.0060  13.1505  13.3121  13.3861  13.7709  13.8471
 13.9013  14.0235  14.0422  14.6469  15.2013
 --------------------------------------------------------------
 
          Ground-State Mulliken Net Atomic Charges

     Atom                 Charge (a.u.)
  ----------------------------------------
      1 C                    -0.189138
      2 C                    -0.253749
      3 S                    -0.021650
      4 C                    -0.016718
      5 H                     0.196268
      6 C                    -0.028724
      7 C                     0.241282
      8 C                     0.243320
      9 C                    -0.045900
     10 C                    -0.023367
     11 O                    -0.333306
     12 O                    -0.339228
     13 C                    -0.085952
     14 H                     0.123066
     15 H                     0.091161
     16 H                     0.093659
     17 C                    -0.087217
     18 H                     0.125436
     19 H                     0.095255
     20 H                     0.089194
     21 C                    -0.227164
     22 S                    -0.020875
     23 C                    -0.002053
     24 H                     0.201319
     25 H                     0.206372
     26 C                    -0.018584
     27 S                     0.105324
     28 C                    -0.194914
     29 C                    -0.033164
     30 C                    -0.096017
     31 S                     0.016453
     32 C                    -0.155926
     33 C                     0.399143
     34 F                    -0.207218
     35 C                     0.443790
     36 O                    -0.460829
     37 O                    -0.300685
     38 C                    -0.058448
     39 H                     0.121331
     40 H                     0.095177
     41 H                     0.095020
     42 H                     0.218258
  ----------------------------------------
  Sum of atomic charges =     0.000000

 -----------------------------------------------------------------
                    Cartesian Multipole Moments
 -----------------------------------------------------------------
    Charge (ESU x 10^10)
                 0.0000
    Dipole Moment (Debye)
         X       0.8815      Y       1.0054      Z       3.1821
       Tot       3.4516
    Quadrupole Moments (Debye-Ang)
        XX    -184.7945     XY       2.7522     YY    -160.6581
        XZ     -13.9903     YZ      -7.8298     ZZ    -197.5030
    Octopole Moments (Debye-Ang^2)
       XXX    -179.7754    XXY     310.3379    XYY     -35.3129
       YYY     861.5725    XXZ     176.6273    XYZ      44.6609
       YYZ     122.4731    XZZ     -37.9062    YZZ     434.4789
       ZZZ     592.6840
    Hexadecapole Moments (Debye-Ang^3)
      XXXX   -1547.1555   XXXY     -53.8214   XXYY   -3784.5754
      XYYY     -51.4403   YYYY  -19063.0197   XXXZ     900.8674
      XXYZ     395.7598   XYYZ     -65.7373   YYYZ     904.2538
      XXZZ   -1226.2060   XYZZ     133.6659   YYZZ   -4208.1260
      XZZZ     800.1605   YZZZ     623.2196   ZZZZ   -6668.3206
 -----------------------------------------------------------------
 Total job time:  291.88s(wall), 9107.67s(cpu) 
 Tue Jan  9 01:29:30 2024

        *************************************************************
        *                                                           *
        *  Thank you very much for using Q-Chem.  Have a nice day.  *
        *                                                           *
        *************************************************************


0 sent ACK to 0 
now end server 0 ... 
cleanup process ... done
remove work dirs ./qchem4017803.0 -- ./qchem4017803.0
rm -rf ./qchem4017803.0
rm -rf ./qchem4017803
