You are running Q-Chem version: 5.4.0

#
# job setting
#
local host:  exp-7-31
current dir: /home/rramji/project-csd799/aromodel/ptb7fout-qchem/rotation-run
input file:  Dimethoxy_Benzodithiophene_Phi_15_Theta_260_Methylcarbonyl_3_Fluoro_Thienothiophene.qcin
output file: 
nprocs     : 1
nthreads   : 64
#
# qchem installation setting
#
QC:          /cm/shared/apps/spack/cpu/opt/spack/linux-centos8-zen2/gcc-10.2.0/qchem-5.4-akfmr7b3t57bfs6qan3padb2wnb2i7cl
QCAUX:       /cm/shared/apps/spack/cpu/opt/spack/linux-centos8-zen2/gcc-10.2.0/qchem-5.4-akfmr7b3t57bfs6qan3padb2wnb2i7cl/qcaux
QCPROG:      /cm/shared/apps/spack/cpu/opt/spack/linux-centos8-zen2/gcc-10.2.0/qchem-5.4-akfmr7b3t57bfs6qan3padb2wnb2i7cl/exe/qcprog.exe
QCPROG_S:    /cm/shared/apps/spack/cpu/opt/spack/linux-centos8-zen2/gcc-10.2.0/qchem-5.4-akfmr7b3t57bfs6qan3padb2wnb2i7cl/exe/qcprog.exe_s
PARALLEL:    -DPARALLEL
QCMPI:       mpich
#
# qchem directory setting
#
qcrun:       qchem4024499
QCSCRATCH:   .
QCLOCALSCR:  
QCTMPDIR:    .
QCFILEPREF:  ./qchem4024499
QCSAVEDIR:   
workdirs:    ./qchem4024499
workdir0:    ./qchem4024499
partmpdirs =  
#
# parallel setting
#
QCRSH:           ssh
QCMPI:           mpich
QCMPIRUN:        /cm/shared/apps/spack/cpu/opt/spack/linux-centos8-zen2/gcc-10.2.0/qchem-5.4-akfmr7b3t57bfs6qan3padb2wnb2i7cl/bin/mpi/mpirun_qchem
QCMACHINEFILE:   ./qchem4024499/hostfile
exp-7-31

#
# env setting
#
exported envs:   QC QCAUX QCSCRATCH QCRUNNAME QCFILEPREF QCPROG QCPROG_S GUIFILE

Running Job 1 of 1 Dimethoxy_Benzodithiophene_Phi_15_Theta_260_Methylcarbonyl_3_Fluoro_Thienothiophene.qcin
qchem Dimethoxy_Benzodithiophene_Phi_15_Theta_260_Methylcarbonyl_3_Fluoro_Thienothiophene.qcin_4024499.0 ./qchem4024499/ 1
/cm/shared/apps/spack/cpu/opt/spack/linux-centos8-zen2/gcc-10.2.0/qchem-5.4-akfmr7b3t57bfs6qan3padb2wnb2i7cl/bin/mpi/mpirun_qchem -machinefile ./qchem4024499/hostfile -np 1 /cm/shared/apps/spack/cpu/opt/spack/linux-centos8-zen2/gcc-10.2.0/qchem-5.4-akfmr7b3t57bfs6qan3padb2wnb2i7cl/exe/qcprog.exe Dimethoxy_Benzodithiophene_Phi_15_Theta_260_Methylcarbonyl_3_Fluoro_Thienothiophene.qcin_4024499.0 ./qchem4024499/

Process 0 of 1 is on exp-7-31 - thread support 0
initial socket setup ...start
initial socket setup ...done 
now start server 0 ... 
                  Welcome to Q-Chem
     A Quantum Leap Into The Future Of Chemistry


 Q-Chem 5.4, Q-Chem, Inc., Pleasanton, CA (2021)

 License issued to: University of California, San Diego (site)

 E. Epifanovsky,  A. T. B. Gilbert,  Xintian Feng,  Joonho Lee,  Yuezhi Mao,  
 N. Mardirossian,  P. Pokhilko,  A. White,  M. Wormit,  M. P. Coons,  
 A. L. Dempwolff,  Zhengting Gan,  D. Hait,  P. R. Horn,  L. D. Jacobson,  
 I. Kaliman,  J. Kussmann,  A. W. Lange,  Ka Un Lao,  D. S. Levine,  Jie Liu,  
 S. C. McKenzie,  A. F. Morrison,  K. Nanda,  F. Plasser,  D. R. Rehn,  
 M. L. Vidal,  Zhi-Qiang You,  Ying Zhu,  B. Alam,  B. Albrecht,  
 A. Aldossary,  E. Alguire,  J. H. Andersen,  D. Barton,  K. Begam,  A. Behn,  
 Y. A. Bernard,  E. J. Berquist,  H. Burton,  A. Carreras,  K. Carter-Fenk,  
 R. Chakraborty,  A. D. Chien,  K. D. Closser,  V. Cofer-Shabica,  
 S. Dasgupta,  Jia Deng,  M. de Wergifosse,  M. Diedenhofen,  Hainam Do,  
 S. Ehlert,  Po-Tung Fang,  S. Fatehi,  Qingguo Feng,  J. Gayvert,  
 Qinghui Ge,  G. Gidofalvi,  M. Goldey,  J. Gomes,  C. Gonzalez-Espinoza,  
 S. Gulania,  A. Gunina,  M. W. D. Hanson-Heine,  P. H. P. Harbach,  
 A. W. Hauser,  M. F. Herbst,  M. Hernandez Vera,  M. Hodecker,  
 Z. C. Holden,  S. Houck,  Xunkun Huang,  Kerwin Hui,  B. C. Huynh,  
 M. Ivanov,  Hyunjun Ji,  Hanjie Jiang,  B. Kaduk,  S. Kaehler,  
 K. Khistyaev,  Jaehoon Kim,  P. Klunzinger,  Z. Koczor-Benda,  
 Joong Hoon Koh,  D. Kosenkov,  L. Koulias,  T. Kowalczyk,  C. M. Krauter,  
 K. Kue,  A. Kunitsa,  T. Kus,  A. Landau,  K. V. Lawler,  D. Lefrancois,  
 S. Lehtola,  Rain Li,  Yi-Pei Li,  Jiashu Liang,  M. Liebenthal,  
 Hung-Hsuan Lin,  You-Sheng Lin,  Fenglai Liu,  Kuan-Yu Liu,  
 M. Loipersberger,  A. Luenser,  A. Manjanath,  P. Manohar,  E. Mansoor,  
 S. F. Manzer,  Shan-Ping Mao,  A. V. Marenich,  T. Markovich,  S. Mason,  
 S. A. Maurer,  P. F. McLaughlin,  M. F. S. J. Menger,  J.-M. Mewes,  
 S. A. Mewes,  P. Morgante,  J. W. Mullinax,  T. S. Nguyen-Beck,  
 K. J. Oosterbaan,  G. Paran,  Alexander C. Paul,  Suranjan K. Paul,  
 F. Pavosevic,  Zheng Pei,  S. Prager,  E. I. Proynov,  E. Ramos,  B. Rana,  
 A. E. Rask,  A. Rettig,  R. M. Richard,  F. Rob,  E. Rossomme,  T. Scheele,  
 M. Scheurer,  M. Schneider,  N. Sergueev,  S. M. Sharada,  W. Skomorowski,  
 D. W. Small,  C. J. Stein,  Yu-Chuan Su,  E. J. Sundstrom,  Zhen Tao,  
 J. Thirman,  T. Tsuchimochi,  N. M. Tubman,  S. P. Veccham,  O. Vydrov,  
 J. Wenzel,  J. Witte,  A. Yamada,  Kun Yao,  S. Yeganeh,  S. R. Yost,  
 A. Zech,  Igor Ying Zhang,  Xing Zhang,  Yu Zhang,  D. Zuev,  
 A. Aspuru-Guzik,  A. T. Bell,  N. A. Besley,  K. B. Bravaya,  B. R. Brooks,  
 D. Casanova,  Jeng-Da Chai,  S. Coriani,  C. J. Cramer,  
 A. E. DePrince, III,  R. A. DiStasio Jr.,  A. Dreuw,  B. D. Dunietz,  
 T. R. Furlani,  W. A. Goddard III,  S. Grimme,  S. Hammes-Schiffer,  
 T. Head-Gordon,  W. J. Hehre,  Chao-Ping Hsu,  T.-C. Jagau,  Yousung Jung,  
 A. Klamt,  Jing Kong,  D. S. Lambrecht,  WanZhen Liang,  N. J. Mayhall,  
 C. W. McCurdy,  J. B. Neaton,  C. Ochsenfeld,  J. A. Parkhill,  R. Peverati,  
 V. A. Rassolov,  Yihan Shao,  L. V. Slipchenko,  T. Stauch,  R. P. Steele,  
 J. E. Subotnik,  A. J. W. Thom,  A. Tkatchenko,  D. G. Truhlar,  
 T. Van Voorhis,  T. A. Wesolowski,  K. B. Whaley,  H. L. Woodcock III,  
 P. M. Zimmerman,  S. Faraji,  P. M. W. Gill,  M. Head-Gordon,  
 J. M. Herbert,  A. I. Krylov

 Contributors to earlier versions of Q-Chem not listed above: 
 R. D. Adamson,  B. Austin,  R. Baer,  J. Baker,  G. J. O. Beran,  
 K. Brandhorst,  S. T. Brown,  E. F. C. Byrd,  A. K. Chakraborty,  
 G. K. L. Chan,  Chun-Min Chang,  Yunqing Chen,  C.-L. Cheng,  
 Siu Hung Chien,  D. M. Chipman,  D. L. Crittenden,  H. Dachsel,  
 R. J. Doerksen,  A. D. Dutoi,  R. G. Edgar,  J. Fosso-Tande,  
 L. Fusti-Molnar,  D. Ghosh,  A. Ghysels,  A. Golubeva-Zadorozhnaya,  
 J. Gonthier,  M. S. Gordon,  S. R. Gwaltney,  G. Hawkins,  J. E. Herr,  
 A. Heyden,  S. Hirata,  E. G. Hohenstein,  G. Kedziora,  F. J. Keil,  
 C. Kelley,  Jihan Kim,  R. A. King,  R. Z. Khaliullin,  P. P. Korambath,  
 W. Kurlancheek,  A. Laurent,  A. M. Lee,  M. S. Lee,  S. V. Levchenko,  
 Ching Yeh Lin,  D. Liotard,  E. Livshits,  R. C. Lochan,  I. Lotan,  
 L. A. Martinez-Martinez,  P. E. Maslen,  N. Nair,  D. P. O'Neill,  
 D. Neuhauser,  E. Neuscamman,  C. M. Oana,  R. Olivares-Amaya,  R. Olson,  
 T. M. Perrine,  B. Peters,  P. A. Pieniazek,  A. Prociuk,  Y. M. Rhee,  
 J. Ritchie,  M. A. Rohrdanz,  E. Rosta,  N. J. Russ,  H. F. Schaefer III,  
 M. W. Schmidt,  N. E. Schultz,  S. Sharma,  N. Shenvi,  C. D. Sherrill,  
 A. C. Simmonett,  A. Sodt,  T. Stein,  D. Stuck,  K. S. Thanthiriwatte,  
 V. Vanovschi,  L. Vogt,  Tao Wang,  A. Warshel,  M. A. Watson,  
 C. F. Williams,  Q. Wu,  X. Xu,  Jun Yang,  W. Zhang,  Yan Zhao

 Please cite Q-Chem as follows:
 Y. Shao et al., Mol. Phys. 113, 184-215 (2015)
 DOI: 10.1080/00268976.2014.952696

 Q-Chem 5.4.0 for Intel X86 EM64T Linux

 Parts of Q-Chem use Armadillo 9.800.1 (Horizon Scraper).
 http://arma.sourceforge.net/

 Q-Chem begins on Tue Jan  9 01:44:57 2024  

 Host: 
0

     Scratch files written to ./qchem4024499//
 May1621 |scratch|qcdevops|jenkins|workspace|build_RNUM    
 Parallel job on  1  processors
 Processing $rem in /cm/shared/apps/spack/cpu/opt/spack/linux-centos8-zen2/gcc-10.2.0/qchem-5.4-akfmr7b3t57bfs6qan3padb2wnb2i7cl/config/preferences:
 Processing $rem in /home/rramji/.qchemrc:
 Symmetry turned off for PCM/SM12/SMD calculation
 Core orbitals will be frozen

 Checking the input file for inconsistencies... 	...done.

 Q-Chem warning in module forms1/BasisType.C, line 2236:

 You are not using the predefined 5D/6D in this basis set.


--------------------------------------------------------------
User input:
--------------------------------------------------------------
$molecule
0 1
C	0.320589	-8.517702	-0.014560
C	-0.737240	-7.641575	0.180211
S	1.842356	-7.638634	-0.299553
C	-0.366488	-6.264785	0.114873
H	-1.768528	-7.966081	0.368061
C	1.038637	-6.072714	-0.131236
C	1.588197	-4.787049	-0.253435
C	-1.258831	-5.162801	0.249014
C	-0.709695	-3.874817	0.122513
C	0.697430	-3.683952	-0.121043
O	-2.553323	-5.499772	0.505933
O	2.888369	-4.459055	-0.512697
C	3.927625	-5.329063	-0.080869
H	4.869656	-4.755694	-0.173159
H	4.007459	-6.238095	-0.716363
H	3.789565	-5.637262	0.978072
C	-3.600064	-4.572261	0.246949
H	-4.544887	-5.139743	0.344574
H	-3.532074	-4.153131	-0.779898
H	-3.612378	-3.739531	0.983261
C	1.064246	-2.306654	-0.188009
S	-1.517360	-2.306501	0.278644
C	0.000000	-1.435185	0.000000
H	2.094685	-1.978138	-0.373017
H	0.322246	-9.614033	-0.018474
C	0.000000	0.000000	0.000000
S	0.234628	0.873813	1.507541
C	0.640889	2.392969	0.718873
C	0.234815	0.873434	-1.067872
C	0.592377	2.216811	-0.686410
S	0.174526	0.637422	-2.805516
C	0.622551	2.330840	-3.054530
C	0.803505	3.015647	-1.862551
F	1.144815	4.307994	-1.819088
C	0.740334	2.763108	-4.456084
O	0.548793	2.017428	-5.406510
O	1.082665	4.069544	-4.569225
C	1.215848	4.546407	-5.916207
H	1.494066	5.611729	-5.833064
H	0.261736	4.436296	-6.470168
H	2.000108	3.981294	-6.459293
H	0.878739	3.286099	1.306486
$end

$rem
JOBTYPE		SP
EXCHANGE	HF
CORRELATION	pRIMP2
BASIS		cc-pvtz
METHOD		rimp2
AUX_BASIS	rimp2-cc-pvtz
SOLVENT_METHOD	PCM
PURECART	11111
SYMMETRY	false
MEM_TOTAL	110000
SCF_CONVERGENCE = 6
THRESH=10
GUI = 2
$end



$solvent
dielectric 4.90
$end
--------------------------------------------------------------
 ----------------------------------------------------------------
             Standard Nuclear Orientation (Angstroms)
    I     Atom           X                Y                Z
 ----------------------------------------------------------------
    1      C       0.3205890000    -8.5177020000    -0.0145600000
    2      C      -0.7372400000    -7.6415750000     0.1802110000
    3      S       1.8423560000    -7.6386340000    -0.2995530000
    4      C      -0.3664880000    -6.2647850000     0.1148730000
    5      H      -1.7685280000    -7.9660810000     0.3680610000
    6      C       1.0386370000    -6.0727140000    -0.1312360000
    7      C       1.5881970000    -4.7870490000    -0.2534350000
    8      C      -1.2588310000    -5.1628010000     0.2490140000
    9      C      -0.7096950000    -3.8748170000     0.1225130000
   10      C       0.6974300000    -3.6839520000    -0.1210430000
   11      O      -2.5533230000    -5.4997720000     0.5059330000
   12      O       2.8883690000    -4.4590550000    -0.5126970000
   13      C       3.9276250000    -5.3290630000    -0.0808690000
   14      H       4.8696560000    -4.7556940000    -0.1731590000
   15      H       4.0074590000    -6.2380950000    -0.7163630000
   16      H       3.7895650000    -5.6372620000     0.9780720000
   17      C      -3.6000640000    -4.5722610000     0.2469490000
   18      H      -4.5448870000    -5.1397430000     0.3445740000
   19      H      -3.5320740000    -4.1531310000    -0.7798980000
   20      H      -3.6123780000    -3.7395310000     0.9832610000
   21      C       1.0642460000    -2.3066540000    -0.1880090000
   22      S      -1.5173600000    -2.3065010000     0.2786440000
   23      C       0.0000000000    -1.4351850000     0.0000000000
   24      H       2.0946850000    -1.9781380000    -0.3730170000
   25      H       0.3222460000    -9.6140330000    -0.0184740000
   26      C       0.0000000000     0.0000000000     0.0000000000
   27      S       0.2346280000     0.8738130000     1.5075410000
   28      C       0.6408890000     2.3929690000     0.7188730000
   29      C       0.2348150000     0.8734340000    -1.0678720000
   30      C       0.5923770000     2.2168110000    -0.6864100000
   31      S       0.1745260000     0.6374220000    -2.8055160000
   32      C       0.6225510000     2.3308400000    -3.0545300000
   33      C       0.8035050000     3.0156470000    -1.8625510000
   34      F       1.1448150000     4.3079940000    -1.8190880000
   35      C       0.7403340000     2.7631080000    -4.4560840000
   36      O       0.5487930000     2.0174280000    -5.4065100000
   37      O       1.0826650000     4.0695440000    -4.5692250000
   38      C       1.2158480000     4.5464070000    -5.9162070000
   39      H       1.4940660000     5.6117290000    -5.8330640000
   40      H       0.2617360000     4.4362960000    -6.4701680000
   41      H       2.0001080000     3.9812940000    -6.4592930000
   42      H       0.8787390000     3.2860990000     1.3064860000
 ----------------------------------------------------------------
 Nuclear Repulsion Energy =        3272.43437679 hartrees
 There are      119 alpha and      119 beta electrons
 Requested basis set is cc-pVTZ
 There are 376 shells and 1068 basis functions

 Total QAlloc Memory Limit 110000 MB
 Mega-Array Size       188 MB
 MEM_STATIC part       192 MB
 Discretize the solute cavity surface with Lebedev spheres
	Using 110 Lebedev grid points for each H atom
	Using 194 Lebedev grid points for other atoms
	Atomic van der Waals radii will be scaled by 1.20
 Remove points where switching function is < 1.0e-08
 Keep 2922 surface tesserae and discard 4134 interior tesserae
 Molecular Surface Area = 444.821 Angst**2
 Requested basis set is rimp2-cc-pVTZ
 There are 833 shells and 2903 basis functions
 A cutoff of  1.0D-10 yielded  30754 shell pairs
 There are    236764 function pairs (    307623 Cartesian)
 Smallest overlap matrix eigenvalue = 2.20E-05

 Scale SEOQF with 1.000000e-01/1.000000e-02/1.000000e-02

 Standard Electronic Orientation quadrupole field applied
 Nucleus-field energy     =     0.0000000413 hartrees
 Guess from superposition of atomic densities
 Warning:  Energy on first SCF cycle will be non-variational
 SAD guess density has 238.000000 electrons

 -----------------------------------------------------------------------
  General SCF calculation program by
  Eric Jon Sundstrom, Paul Horn, Yuezhi Mao, Dmitri Zuev, Alec White,
  David Stuck, Shaama M.S., Shane Yost, Joonho Lee, David Small,
  Daniel Levine, Susi Lehtola, Hugh Burton, Evgeny Epifanovsky,
  Bang C. Huynh
 -----------------------------------------------------------------------
 Hartree-Fock
 using 64 threads for integral computing
 -------------------------------------------------------
 OpenMP Integral computing Module                
 Release: version 1.0, May 2013, Q-Chem Inc. Pittsburgh 
 -------------------------------------------------------
 A restricted SCF calculation will be
 performed using DIIS
 SCF converges when DIIS error is below 1.0e-06
 ---------------------------------------
  Cycle       Energy         DIIS error
 ---------------------------------------
    1   -2765.2017667026      1.75e-02  
    2   -2753.8790433894      1.56e-03  
    3   -2754.2165851416      8.58e-04  
    4   -2754.2971525690      2.56e-04  
    5   -2754.3087616852      6.95e-05  
    6   -2754.3098439800      2.37e-05  
    7   -2754.3100793486      1.14e-05  
    8   -2754.3101562144      4.29e-06  
    9   -2754.3101706179      1.66e-06  
   10   -2754.3101723197      7.15e-07  Convergence criterion met
 ---------------------------------------
 SCF time:   CPU 6242.72s  wall 246.00s 

************** Final PCM Free Energy Summary **************
 G_electrostatic  =      -0.01877082 hartree =     -11.77886582 kcal/mol
 G_cavitation     =       0.00000000 hartree =       0.00000000 kcal/mol
 G_dispersion     =       0.00000000 hartree =       0.00000000 kcal/mol
 G_repulsion      =       0.00000000 hartree =       0.00000000 kcal/mol
 --------------------------------------------------
 Non-electrostatic Free Energy =       0.00000000 hartree =       0.00000000 kcal/mol
 Total                         =      -0.01877082 hartree =     -11.77886582 kcal/mol
 --------------------------------------------------
 SCF Energy (H0 + V/2)                       =   -2754.31017232 
 Solute Internal Energy (H0)                 =   -2754.29140150 
 Total Free Energy (H0 + V/2 + non-elec)     =   -2754.31017232 hartree
                                             = -1728355.71920222 kcal/mol
***********************************************************

 SCF   energy in the final basis set =    -2754.3101723197
 Total energy in the final basis set =    -2754.3101723197


 --------------------------------------------------------------
  Generalized many-body perturbation theory program
  by Joonho Lee, Fazle Rob, Xintian Feng, Evgeny Epifanovsky

 No regularization used 
 (reg. param. = 0.0000e+00)
  (P|Q)^-1/2 Time:  CPU 421.88 s  wall 7.92 s

 In RI-MP2 calculation: 
 # of frozen core orbitals: 45

 Components of the RIMP2 correlation energy:
        aaaa    correlation energy =        -0.6691319075 a.u.
        abab    correlation energy =        -3.7120205410 a.u.
        bbbb    correlation energy =        -0.6691319075 a.u.
        non-Brillouin singles      =        -0.0000000000 a.u.
        total same-spin energy     =        -1.3382638150 a.u.
        total opposite-spin energy =        -3.7120205410 a.u.

 Total  RIMP2   correlation energy =        -5.0502843561 a.u.
        RIMP2         total energy =     -2759.3604566757 a.u.

 RI-MP2 Energy Time:  CPU 3124.33 s  wall 53.88 s
 
 --------------------------------------------------------------
 
                    Orbital Energies (a.u.)
 --------------------------------------------------------------
 
 Alpha MOs
 -- Occupied --
-92.0142 -91.9969 -91.9879 -91.9863 -26.3426 -20.6142 -20.5922 -20.5916
-20.5604 -11.4086 -11.3815 -11.3189 -11.3183 -11.3103 -11.3012 -11.2962
-11.2947 -11.2915 -11.2884 -11.2868 -11.2862 -11.2858 -11.2839 -11.2834
-11.2800 -11.2604 -11.2591 -11.2579 -11.2500  -9.0126  -8.9969  -8.9883
 -8.9863  -6.6933  -6.6928  -6.6922  -6.6779  -6.6772  -6.6761  -6.6693
 -6.6686  -6.6676  -6.6672  -6.6666  -6.6658  -1.6597  -1.4666  -1.4163
 -1.4143  -1.3692  -1.2201  -1.1941  -1.1650  -1.1350  -1.0841  -1.0518
 -1.0407  -1.0217  -1.0012  -0.9875  -0.9609  -0.9607  -0.9502  -0.9386
 -0.8954  -0.8667  -0.8506  -0.8088  -0.7944  -0.7883  -0.7862  -0.7646
 -0.7548  -0.7337  -0.7246  -0.7090  -0.7008  -0.6845  -0.6830  -0.6800
 -0.6733  -0.6591  -0.6569  -0.6526  -0.6301  -0.6200  -0.6171  -0.6048
 -0.5970  -0.5846  -0.5766  -0.5703  -0.5667  -0.5614  -0.5535  -0.5516
 -0.5305  -0.5301  -0.5238  -0.5162  -0.5146  -0.5083  -0.5038  -0.4946
 -0.4892  -0.4791  -0.4749  -0.4729  -0.4694  -0.4661  -0.4608  -0.4056
 -0.3966  -0.3871  -0.3577  -0.3478  -0.3150  -0.2982  -0.2586
 -- Virtual --
  0.0360   0.0604   0.1089   0.1249   0.1370   0.1420   0.1497   0.1555
  0.1556   0.1588   0.1608   0.1710   0.1815   0.1851   0.1866   0.1923
  0.1951   0.2041   0.2151   0.2171   0.2199   0.2210   0.2243   0.2283
  0.2349   0.2366   0.2406   0.2476   0.2544   0.2637   0.2696   0.2783
  0.2836   0.3026   0.3247   0.3313   0.3339   0.3366   0.3428   0.3459
  0.3518   0.3572   0.3666   0.3736   0.3805   0.3821   0.3854   0.3855
  0.3895   0.3953   0.3981   0.4030   0.4093   0.4108   0.4204   0.4246
  0.4284   0.4298   0.4336   0.4438   0.4468   0.4489   0.4552   0.4566
  0.4588   0.4630   0.4647   0.4700   0.4755   0.4801   0.4814   0.4854
  0.4895   0.4996   0.5040   0.5065   0.5111   0.5181   0.5223   0.5259
  0.5266   0.5274   0.5335   0.5384   0.5414   0.5436   0.5492   0.5516
  0.5527   0.5547   0.5561   0.5615   0.5674   0.5677   0.5707   0.5792
  0.5837   0.5872   0.5921   0.5948   0.5990   0.6049   0.6082   0.6125
  0.6149   0.6165   0.6192   0.6221   0.6234   0.6273   0.6317   0.6338
  0.6371   0.6430   0.6449   0.6478   0.6503   0.6554   0.6585   0.6648
  0.6670   0.6794   0.6804   0.6816   0.6889   0.6965   0.7015   0.7068
  0.7098   0.7118   0.7179   0.7224   0.7241   0.7307   0.7441   0.7482
  0.7550   0.7591   0.7598   0.7628   0.7762   0.7812   0.7896   0.7977
  0.8082   0.8103   0.8167   0.8174   0.8253   0.8308   0.8392   0.8409
  0.8461   0.8530   0.8584   0.8624   0.8687   0.8754   0.8767   0.8840
  0.8896   0.8954   0.9020   0.9038   0.9051   0.9134   0.9171   0.9268
  0.9326   0.9328   0.9446   0.9469   0.9521   0.9534   0.9576   0.9647
  0.9720   0.9740   0.9763   0.9792   0.9913   0.9935   0.9995   1.0023
  1.0051   1.0092   1.0155   1.0232   1.0242   1.0311   1.0330   1.0371
  1.0473   1.0537   1.0569   1.0648   1.0688   1.0735   1.0754   1.0777
  1.0823   1.0843   1.0893   1.0932   1.0951   1.0999   1.1086   1.1130
  1.1163   1.1169   1.1198   1.1331   1.1380   1.1439   1.1514   1.1561
  1.1609   1.1658   1.1704   1.1792   1.1810   1.1885   1.1925   1.1966
  1.2041   1.2062   1.2099   1.2126   1.2158   1.2206   1.2244   1.2295
  1.2326   1.2407   1.2435   1.2547   1.2587   1.2615   1.2671   1.2714
  1.2735   1.2776   1.2818   1.2889   1.2945   1.3038   1.3088   1.3107
  1.3220   1.3283   1.3341   1.3390   1.3489   1.3598   1.3684   1.3734
  1.3759   1.3861   1.3885   1.3985   1.4042   1.4113   1.4172   1.4243
  1.4289   1.4320   1.4451   1.4499   1.4669   1.4721   1.4849   1.4897
  1.4936   1.4973   1.5032   1.5052   1.5137   1.5157   1.5225   1.5310
  1.5327   1.5370   1.5392   1.5437   1.5468   1.5512   1.5618   1.5681
  1.5724   1.5773   1.5865   1.5953   1.6030   1.6133   1.6209   1.6274
  1.6364   1.6418   1.6519   1.6591   1.6618   1.6691   1.6802   1.6859
  1.6871   1.6886   1.6926   1.7020   1.7171   1.7188   1.7334   1.7509
  1.7608   1.7742   1.7789   1.7808   1.7915   1.8003   1.8092   1.8191
  1.8200   1.8263   1.8297   1.8463   1.8609   1.8673   1.8711   1.8775
  1.8850   1.8954   1.8989   1.9065   1.9084   1.9190   1.9320   1.9334
  1.9373   1.9489   1.9542   1.9574   1.9655   1.9731   1.9771   1.9869
  1.9960   1.9996   2.0027   2.0205   2.0277   2.0410   2.0456   2.0547
  2.0650   2.0847   2.0889   2.0957   2.1043   2.1125   2.1257   2.1376
  2.1516   2.1587   2.1635   2.1670   2.1725   2.1794   2.1890   2.1941
  2.1998   2.2019   2.2050   2.2113   2.2236   2.2340   2.2421   2.2436
  2.2469   2.2567   2.2595   2.2629   2.2748   2.2793   2.2880   2.2950
  2.3035   2.3067   2.3153   2.3198   2.3347   2.3462   2.3526   2.3582
  2.3678   2.3718   2.3844   2.3855   2.3982   2.4066   2.4125   2.4186
  2.4295   2.4326   2.4364   2.4504   2.4691   2.4767   2.4833   2.4882
  2.4933   2.5014   2.5193   2.5254   2.5304   2.5428   2.5508   2.5610
  2.5648   2.5728   2.5865   2.5980   2.6092   2.6146   2.6152   2.6216
  2.6279   2.6320   2.6351   2.6373   2.6427   2.6524   2.6630   2.6726
  2.6792   2.6811   2.6864   2.6940   2.6955   2.6992   2.7045   2.7088
  2.7209   2.7283   2.7339   2.7387   2.7445   2.7599   2.7646   2.7656
  2.7745   2.7833   2.7919   2.7937   2.7979   2.8111   2.8119   2.8177
  2.8298   2.8324   2.8399   2.8452   2.8529   2.8547   2.8635   2.8738
  2.8768   2.8853   2.8868   2.8891   2.8975   2.9031   2.9067   2.9258
  2.9404   2.9481   2.9527   2.9617   2.9740   2.9777   2.9823   2.9890
  3.0036   3.0101   3.0157   3.0186   3.0237   3.0286   3.0332   3.0401
  3.0473   3.0574   3.0680   3.0746   3.0817   3.0904   3.0926   3.0992
  3.1009   3.1020   3.1079   3.1177   3.1212   3.1306   3.1344   3.1453
  3.1465   3.1544   3.1558   3.1624   3.1650   3.1704   3.1781   3.1822
  3.1850   3.1947   3.2043   3.2124   3.2168   3.2181   3.2215   3.2238
  3.2379   3.2391   3.2473   3.2489   3.2532   3.2551   3.2606   3.2679
  3.2690   3.2782   3.2842   3.2871   3.2884   3.2953   3.3019   3.3063
  3.3100   3.3217   3.3247   3.3295   3.3310   3.3397   3.3413   3.3457
  3.3504   3.3551   3.3582   3.3634   3.3680   3.3706   3.3754   3.3841
  3.3876   3.3900   3.3921   3.3967   3.4031   3.4049   3.4099   3.4143
  3.4157   3.4253   3.4324   3.4374   3.4422   3.4446   3.4554   3.4572
  3.4605   3.4644   3.4661   3.4678   3.4747   3.4775   3.4843   3.4859
  3.4974   3.4996   3.5065   3.5135   3.5205   3.5289   3.5326   3.5419
  3.5488   3.5502   3.5532   3.5585   3.5649   3.5657   3.5705   3.5772
  3.5818   3.5848   3.5883   3.5954   3.5990   3.6044   3.6135   3.6156
  3.6244   3.6268   3.6330   3.6348   3.6420   3.6480   3.6528   3.6599
  3.6681   3.6709   3.6778   3.6825   3.6897   3.6929   3.6957   3.7006
  3.7035   3.7062   3.7076   3.7117   3.7193   3.7238   3.7379   3.7420
  3.7440   3.7523   3.7551   3.7598   3.7712   3.7736   3.7798   3.7814
  3.7902   3.7967   3.7981   3.8083   3.8137   3.8167   3.8190   3.8212
  3.8263   3.8307   3.8413   3.8466   3.8506   3.8578   3.8665   3.8714
  3.8780   3.8807   3.8836   3.8919   3.8961   3.9075   3.9122   3.9157
  3.9278   3.9320   3.9385   3.9515   3.9572   3.9625   3.9657   3.9754
  3.9882   3.9905   4.0023   4.0063   4.0122   4.0244   4.0300   4.0340
  4.0448   4.0535   4.0605   4.0673   4.0698   4.0780   4.0878   4.0895
  4.1005   4.1139   4.1226   4.1294   4.1342   4.1365   4.1474   4.1523
  4.1569   4.1633   4.1679   4.1682   4.1755   4.1798   4.1884   4.1940
  4.2037   4.2120   4.2280   4.2350   4.2387   4.2469   4.2542   4.2615
  4.2808   4.2835   4.2918   4.3136   4.3229   4.3284   4.3383   4.3422
  4.3481   4.3562   4.3603   4.3693   4.3750   4.3845   4.3856   4.3921
  4.4035   4.4078   4.4145   4.4239   4.4302   4.4342   4.4376   4.4438
  4.4613   4.4684   4.4824   4.4832   4.5010   4.5030   4.5177   4.5292
  4.5323   4.5397   4.5461   4.5557   4.5612   4.5716   4.5823   4.5881
  4.5974   4.5988   4.6122   4.6255   4.6308   4.6405   4.6481   4.6594
  4.6643   4.6711   4.6782   4.6860   4.6907   4.7067   4.7334   4.7358
  4.7399   4.7504   4.7693   4.7734   4.7744   4.7828   4.8085   4.8246
  4.8264   4.8349   4.8489   4.8591   4.8617   4.8937   4.8971   4.9212
  4.9359   4.9415   4.9540   4.9584   4.9680   4.9733   4.9831   4.9992
  5.0063   5.0093   5.0174   5.0201   5.0349   5.0480   5.0610   5.0739
  5.0802   5.1025   5.1182   5.1234   5.1597   5.1631   5.1753   5.1961
  5.2025   5.2157   5.2454   5.2519   5.2528   5.2571   5.2592   5.2772
  5.2996   5.3058   5.3164   5.3262   5.3369   5.3424   5.3520   5.3652
  5.3833   5.3962   5.3987   5.4128   5.4266   5.4272   5.4419   5.4631
  5.4854   5.4885   5.5065   5.5125   5.5140   5.5305   5.5490   5.5671
  5.5717   5.5826   5.5853   5.6060   5.6224   5.6250   5.6399   5.6658
  5.7133   5.7350   5.7549   5.7634   5.8081   5.8134   5.8391   5.8546
  5.8726   5.8778   5.9107   5.9164   5.9298   5.9723   5.9966   6.0419
  6.0512   6.0795   6.0898   6.1509   6.1674   6.1714   6.1772   6.1908
  6.2351   6.2407   6.2620   6.2677   6.2821   6.2897   6.2957   6.3392
  6.4060   6.4405   6.4508   6.4792   6.5386   6.5479   6.5553   6.6021
  6.6531   6.6615   6.6719   6.6947   6.7463   6.7994   6.8305   6.8362
  6.8602   6.8922   6.9787   7.1196   7.1364   7.2046   7.2068   7.2157
  7.2334   7.3106   7.3191   7.3301   7.3638   7.3639   7.4069   7.4139
  7.4789   7.4862   7.4876   7.5241   7.5512   7.6155   7.7043   7.7736
  7.7891   7.7965   7.8931   7.9188   7.9435   7.9582   8.0857   8.1344
  8.4355   8.9225   9.0202   9.3635   9.4752   9.6537  10.1233  10.6396
 11.1783  11.5494  11.7741  11.9388  12.1293  12.1637  12.4108  12.5795
 12.7155  12.9334  12.9957  13.1862  13.2839  13.3865  13.7694  13.8467
 13.9012  14.0224  14.0315  14.4611  15.1928
 --------------------------------------------------------------
 
          Ground-State Mulliken Net Atomic Charges

     Atom                 Charge (a.u.)
  ----------------------------------------
      1 C                    -0.187959
      2 C                    -0.254143
      3 S                    -0.021996
      4 C                    -0.014663
      5 H                     0.196386
      6 C                    -0.028737
      7 C                     0.241813
      8 C                     0.242185
      9 C                    -0.053684
     10 C                    -0.023485
     11 O                    -0.333592
     12 O                    -0.339665
     13 C                    -0.085753
     14 H                     0.122684
     15 H                     0.091269
     16 H                     0.093810
     17 C                    -0.086222
     18 H                     0.124529
     19 H                     0.095031
     20 H                     0.089490
     21 C                    -0.201726
     22 S                     0.001653
     23 C                    -0.034934
     24 H                     0.198916
     25 H                     0.206477
     26 C                    -0.055280
     27 S                     0.109062
     28 C                    -0.184862
     29 C                    -0.004605
     30 C                    -0.097484
     31 S                     0.011751
     32 C                    -0.154874
     33 C                     0.391427
     34 F                    -0.207017
     35 C                     0.446113
     36 O                    -0.461319
     37 O                    -0.300769
     38 C                    -0.058460
     39 H                     0.121148
     40 H                     0.095008
     41 H                     0.094971
     42 H                     0.217505
  ----------------------------------------
  Sum of atomic charges =     0.000000

 -----------------------------------------------------------------
                    Cartesian Multipole Moments
 -----------------------------------------------------------------
    Charge (ESU x 10^10)
                -0.0000
    Dipole Moment (Debye)
         X       0.7692      Y       0.8968      Z       3.2745
       Tot       3.4811
    Quadrupole Moments (Debye-Ang)
        XX    -175.9271     XY       3.1899     YY    -160.6626
        XZ      -0.2952     YZ      -8.3107     ZZ    -206.6733
    Octopole Moments (Debye-Ang^2)
       XXX    -189.6194    XXY     266.2672    XYY     -39.7180
       YYY     858.5005    XXZ     173.2275    XYZ     -23.4484
       YYZ     119.8458    XZZ     -44.0501    YZZ     477.9027
       ZZZ     555.6586
    Hexadecapole Moments (Debye-Ang^3)
      XXXX   -2497.7496   XXXY      69.2643   XXYY   -3744.9572
      XYYY      86.7634   YYYY  -19042.3270   XXXZ     537.5051
      XXYZ     472.5659   XYYZ     125.9564   YYYZ    1194.3873
      XXZZ   -1355.1210   XYZZ     204.6139   YYZZ   -4254.0512
      XZZZ     416.2150   YZZZ     990.2569   ZZZZ   -5471.2084
 -----------------------------------------------------------------
 Total job time:  304.88s(wall), 9481.30s(cpu) 
 Tue Jan  9 01:50:02 2024

        *************************************************************
        *                                                           *
        *  Thank you very much for using Q-Chem.  Have a nice day.  *
        *                                                           *
        *************************************************************


0 sent ACK to 0 
now end server 0 ... 
cleanup process ... done
remove work dirs ./qchem4024499.0 -- ./qchem4024499.0
rm -rf ./qchem4024499.0
rm -rf ./qchem4024499
