You are running Q-Chem version: 5.4.0

#
# job setting
#
local host:  exp-1-16
current dir: /home/rramji/project-csd799/aromodel/ptb7fout-qchem/rotation-run
input file:  Dimethoxy_Benzodithiophene_Phi_30_Theta_130_Methylcarbonyl_3_Fluoro_Thienothiophene.qcin
output file: 
nprocs     : 1
nthreads   : 64
#
# qchem installation setting
#
QC:          /cm/shared/apps/spack/cpu/opt/spack/linux-centos8-zen2/gcc-10.2.0/qchem-5.4-akfmr7b3t57bfs6qan3padb2wnb2i7cl
QCAUX:       /cm/shared/apps/spack/cpu/opt/spack/linux-centos8-zen2/gcc-10.2.0/qchem-5.4-akfmr7b3t57bfs6qan3padb2wnb2i7cl/qcaux
QCPROG:      /cm/shared/apps/spack/cpu/opt/spack/linux-centos8-zen2/gcc-10.2.0/qchem-5.4-akfmr7b3t57bfs6qan3padb2wnb2i7cl/exe/qcprog.exe
QCPROG_S:    /cm/shared/apps/spack/cpu/opt/spack/linux-centos8-zen2/gcc-10.2.0/qchem-5.4-akfmr7b3t57bfs6qan3padb2wnb2i7cl/exe/qcprog.exe_s
PARALLEL:    -DPARALLEL
QCMPI:       mpich
#
# qchem directory setting
#
qcrun:       qchem251943
QCSCRATCH:   .
QCLOCALSCR:  
QCTMPDIR:    .
QCFILEPREF:  ./qchem251943
QCSAVEDIR:   
workdirs:    ./qchem251943
workdir0:    ./qchem251943
partmpdirs =  
#
# parallel setting
#
QCRSH:           ssh
QCMPI:           mpich
QCMPIRUN:        /cm/shared/apps/spack/cpu/opt/spack/linux-centos8-zen2/gcc-10.2.0/qchem-5.4-akfmr7b3t57bfs6qan3padb2wnb2i7cl/bin/mpi/mpirun_qchem
QCMACHINEFILE:   ./qchem251943/hostfile
exp-1-16

#
# env setting
#
exported envs:   QC QCAUX QCSCRATCH QCRUNNAME QCFILEPREF QCPROG QCPROG_S GUIFILE

Running Job 1 of 1 Dimethoxy_Benzodithiophene_Phi_30_Theta_130_Methylcarbonyl_3_Fluoro_Thienothiophene.qcin
qchem Dimethoxy_Benzodithiophene_Phi_30_Theta_130_Methylcarbonyl_3_Fluoro_Thienothiophene.qcin_251943.0 ./qchem251943/ 1
/cm/shared/apps/spack/cpu/opt/spack/linux-centos8-zen2/gcc-10.2.0/qchem-5.4-akfmr7b3t57bfs6qan3padb2wnb2i7cl/bin/mpi/mpirun_qchem -machinefile ./qchem251943/hostfile -np 1 /cm/shared/apps/spack/cpu/opt/spack/linux-centos8-zen2/gcc-10.2.0/qchem-5.4-akfmr7b3t57bfs6qan3padb2wnb2i7cl/exe/qcprog.exe Dimethoxy_Benzodithiophene_Phi_30_Theta_130_Methylcarbonyl_3_Fluoro_Thienothiophene.qcin_251943.0 ./qchem251943/

Process 0 of 1 is on exp-1-16 - thread support 0
initial socket setup ...start
initial socket setup ...done 
now start server 0 ... 
                  Welcome to Q-Chem
     A Quantum Leap Into The Future Of Chemistry


 Q-Chem 5.4, Q-Chem, Inc., Pleasanton, CA (2021)

 License issued to: University of California, San Diego (site)

 E. Epifanovsky,  A. T. B. Gilbert,  Xintian Feng,  Joonho Lee,  Yuezhi Mao,  
 N. Mardirossian,  P. Pokhilko,  A. White,  M. Wormit,  M. P. Coons,  
 A. L. Dempwolff,  Zhengting Gan,  D. Hait,  P. R. Horn,  L. D. Jacobson,  
 I. Kaliman,  J. Kussmann,  A. W. Lange,  Ka Un Lao,  D. S. Levine,  Jie Liu,  
 S. C. McKenzie,  A. F. Morrison,  K. Nanda,  F. Plasser,  D. R. Rehn,  
 M. L. Vidal,  Zhi-Qiang You,  Ying Zhu,  B. Alam,  B. Albrecht,  
 A. Aldossary,  E. Alguire,  J. H. Andersen,  D. Barton,  K. Begam,  A. Behn,  
 Y. A. Bernard,  E. J. Berquist,  H. Burton,  A. Carreras,  K. Carter-Fenk,  
 R. Chakraborty,  A. D. Chien,  K. D. Closser,  V. Cofer-Shabica,  
 S. Dasgupta,  Jia Deng,  M. de Wergifosse,  M. Diedenhofen,  Hainam Do,  
 S. Ehlert,  Po-Tung Fang,  S. Fatehi,  Qingguo Feng,  J. Gayvert,  
 Qinghui Ge,  G. Gidofalvi,  M. Goldey,  J. Gomes,  C. Gonzalez-Espinoza,  
 S. Gulania,  A. Gunina,  M. W. D. Hanson-Heine,  P. H. P. Harbach,  
 A. W. Hauser,  M. F. Herbst,  M. Hernandez Vera,  M. Hodecker,  
 Z. C. Holden,  S. Houck,  Xunkun Huang,  Kerwin Hui,  B. C. Huynh,  
 M. Ivanov,  Hyunjun Ji,  Hanjie Jiang,  B. Kaduk,  S. Kaehler,  
 K. Khistyaev,  Jaehoon Kim,  P. Klunzinger,  Z. Koczor-Benda,  
 Joong Hoon Koh,  D. Kosenkov,  L. Koulias,  T. Kowalczyk,  C. M. Krauter,  
 K. Kue,  A. Kunitsa,  T. Kus,  A. Landau,  K. V. Lawler,  D. Lefrancois,  
 S. Lehtola,  Rain Li,  Yi-Pei Li,  Jiashu Liang,  M. Liebenthal,  
 Hung-Hsuan Lin,  You-Sheng Lin,  Fenglai Liu,  Kuan-Yu Liu,  
 M. Loipersberger,  A. Luenser,  A. Manjanath,  P. Manohar,  E. Mansoor,  
 S. F. Manzer,  Shan-Ping Mao,  A. V. Marenich,  T. Markovich,  S. Mason,  
 S. A. Maurer,  P. F. McLaughlin,  M. F. S. J. Menger,  J.-M. Mewes,  
 S. A. Mewes,  P. Morgante,  J. W. Mullinax,  T. S. Nguyen-Beck,  
 K. J. Oosterbaan,  G. Paran,  Alexander C. Paul,  Suranjan K. Paul,  
 F. Pavosevic,  Zheng Pei,  S. Prager,  E. I. Proynov,  E. Ramos,  B. Rana,  
 A. E. Rask,  A. Rettig,  R. M. Richard,  F. Rob,  E. Rossomme,  T. Scheele,  
 M. Scheurer,  M. Schneider,  N. Sergueev,  S. M. Sharada,  W. Skomorowski,  
 D. W. Small,  C. J. Stein,  Yu-Chuan Su,  E. J. Sundstrom,  Zhen Tao,  
 J. Thirman,  T. Tsuchimochi,  N. M. Tubman,  S. P. Veccham,  O. Vydrov,  
 J. Wenzel,  J. Witte,  A. Yamada,  Kun Yao,  S. Yeganeh,  S. R. Yost,  
 A. Zech,  Igor Ying Zhang,  Xing Zhang,  Yu Zhang,  D. Zuev,  
 A. Aspuru-Guzik,  A. T. Bell,  N. A. Besley,  K. B. Bravaya,  B. R. Brooks,  
 D. Casanova,  Jeng-Da Chai,  S. Coriani,  C. J. Cramer,  
 A. E. DePrince, III,  R. A. DiStasio Jr.,  A. Dreuw,  B. D. Dunietz,  
 T. R. Furlani,  W. A. Goddard III,  S. Grimme,  S. Hammes-Schiffer,  
 T. Head-Gordon,  W. J. Hehre,  Chao-Ping Hsu,  T.-C. Jagau,  Yousung Jung,  
 A. Klamt,  Jing Kong,  D. S. Lambrecht,  WanZhen Liang,  N. J. Mayhall,  
 C. W. McCurdy,  J. B. Neaton,  C. Ochsenfeld,  J. A. Parkhill,  R. Peverati,  
 V. A. Rassolov,  Yihan Shao,  L. V. Slipchenko,  T. Stauch,  R. P. Steele,  
 J. E. Subotnik,  A. J. W. Thom,  A. Tkatchenko,  D. G. Truhlar,  
 T. Van Voorhis,  T. A. Wesolowski,  K. B. Whaley,  H. L. Woodcock III,  
 P. M. Zimmerman,  S. Faraji,  P. M. W. Gill,  M. Head-Gordon,  
 J. M. Herbert,  A. I. Krylov

 Contributors to earlier versions of Q-Chem not listed above: 
 R. D. Adamson,  B. Austin,  R. Baer,  J. Baker,  G. J. O. Beran,  
 K. Brandhorst,  S. T. Brown,  E. F. C. Byrd,  A. K. Chakraborty,  
 G. K. L. Chan,  Chun-Min Chang,  Yunqing Chen,  C.-L. Cheng,  
 Siu Hung Chien,  D. M. Chipman,  D. L. Crittenden,  H. Dachsel,  
 R. J. Doerksen,  A. D. Dutoi,  R. G. Edgar,  J. Fosso-Tande,  
 L. Fusti-Molnar,  D. Ghosh,  A. Ghysels,  A. Golubeva-Zadorozhnaya,  
 J. Gonthier,  M. S. Gordon,  S. R. Gwaltney,  G. Hawkins,  J. E. Herr,  
 A. Heyden,  S. Hirata,  E. G. Hohenstein,  G. Kedziora,  F. J. Keil,  
 C. Kelley,  Jihan Kim,  R. A. King,  R. Z. Khaliullin,  P. P. Korambath,  
 W. Kurlancheek,  A. Laurent,  A. M. Lee,  M. S. Lee,  S. V. Levchenko,  
 Ching Yeh Lin,  D. Liotard,  E. Livshits,  R. C. Lochan,  I. Lotan,  
 L. A. Martinez-Martinez,  P. E. Maslen,  N. Nair,  D. P. O'Neill,  
 D. Neuhauser,  E. Neuscamman,  C. M. Oana,  R. Olivares-Amaya,  R. Olson,  
 T. M. Perrine,  B. Peters,  P. A. Pieniazek,  A. Prociuk,  Y. M. Rhee,  
 J. Ritchie,  M. A. Rohrdanz,  E. Rosta,  N. J. Russ,  H. F. Schaefer III,  
 M. W. Schmidt,  N. E. Schultz,  S. Sharma,  N. Shenvi,  C. D. Sherrill,  
 A. C. Simmonett,  A. Sodt,  T. Stein,  D. Stuck,  K. S. Thanthiriwatte,  
 V. Vanovschi,  L. Vogt,  Tao Wang,  A. Warshel,  M. A. Watson,  
 C. F. Williams,  Q. Wu,  X. Xu,  Jun Yang,  W. Zhang,  Yan Zhao

 Please cite Q-Chem as follows:
 Y. Shao et al., Mol. Phys. 113, 184-215 (2015)
 DOI: 10.1080/00268976.2014.952696

 Q-Chem 5.4.0 for Intel X86 EM64T Linux

 Parts of Q-Chem use Armadillo 9.800.1 (Horizon Scraper).
 http://arma.sourceforge.net/

 Q-Chem begins on Mon Jan  8 19:50:56 2024  

 Host: 
0

     Scratch files written to ./qchem251943//
 May1621 |scratch|qcdevops|jenkins|workspace|build_RNUM    
 Parallel job on  1  processors
 Processing $rem in /cm/shared/apps/spack/cpu/opt/spack/linux-centos8-zen2/gcc-10.2.0/qchem-5.4-akfmr7b3t57bfs6qan3padb2wnb2i7cl/config/preferences:
 Processing $rem in /home/rramji/.qchemrc:
 Symmetry turned off for PCM/SM12/SMD calculation
 Core orbitals will be frozen

 Checking the input file for inconsistencies... 	...done.

 Q-Chem warning in module forms1/BasisType.C, line 2236:

 You are not using the predefined 5D/6D in this basis set.


--------------------------------------------------------------
User input:
--------------------------------------------------------------
$molecule
0 1
C	-0.217225	-8.517702	-0.236226
C	0.611939	-7.641575	0.448921
S	-1.413715	-7.638634	-1.218777
C	0.323572	-6.264785	0.206907
H	1.418739	-7.966081	1.118185
C	-0.768156	-6.072714	-0.711285
C	-1.215016	-4.787049	-1.053725
C	0.999917	-5.162801	0.804258
C	0.550033	-3.874817	0.464908
C	-0.541024	-3.683952	-0.456457
O	2.028811	-5.499772	1.630752
O	-2.249357	-4.459055	-1.883064
C	-2.586579	-5.329063	-2.956754
H	-3.262802	-4.755694	-3.619069
H	-3.124711	-6.238095	-2.609423
H	-1.686639	-5.637262	-3.531667
C	2.503251	-4.572261	2.599073
H	3.185356	-5.139743	3.260097
H	1.672937	-4.153131	3.207034
H	3.075213	-3.739531	2.135214
C	-0.828107	-2.306654	-0.694410
S	1.188794	-2.306501	0.983256
C	-0.000000	-1.435185	-0.000000
H	-1.632185	-1.978138	-1.364851
H	-0.221288	-9.614033	-0.234980
C	0.000000	0.000000	0.000000
S	0.452792	0.783312	1.507541
C	1.238397	2.145556	0.718873
C	0.452875	0.782898	-1.067872
C	1.145945	1.987956	-0.686410
S	0.333556	0.570531	-2.805516
C	1.204604	2.090290	-3.054530
C	1.556633	2.704929	-1.862551
F	2.220797	3.864903	-1.819088
C	1.430252	2.477345	-4.456084
O	1.052242	1.806648	-5.406510
O	2.099050	3.650663	-4.569225
C	2.351116	4.076808	-5.916207
H	2.895579	5.033821	-5.833064
H	1.401015	4.217390	-6.470168
H	2.962391	3.327969	-6.459293
H	1.699302	2.946693	1.306486
$end

$rem
JOBTYPE		SP
EXCHANGE	HF
CORRELATION	pRIMP2
BASIS		cc-pvtz
METHOD		rimp2
AUX_BASIS	rimp2-cc-pvtz
SOLVENT_METHOD	PCM
PURECART	11111
SYMMETRY	false
MEM_TOTAL	110000
SCF_CONVERGENCE = 6
THRESH=10
GUI = 2
$end



$solvent
dielectric 4.90
$end
--------------------------------------------------------------
 ----------------------------------------------------------------
             Standard Nuclear Orientation (Angstroms)
    I     Atom           X                Y                Z
 ----------------------------------------------------------------
    1      C      -0.2172250000    -8.5177020000    -0.2362260000
    2      C       0.6119390000    -7.6415750000     0.4489210000
    3      S      -1.4137150000    -7.6386340000    -1.2187770000
    4      C       0.3235720000    -6.2647850000     0.2069070000
    5      H       1.4187390000    -7.9660810000     1.1181850000
    6      C      -0.7681560000    -6.0727140000    -0.7112850000
    7      C      -1.2150160000    -4.7870490000    -1.0537250000
    8      C       0.9999170000    -5.1628010000     0.8042580000
    9      C       0.5500330000    -3.8748170000     0.4649080000
   10      C      -0.5410240000    -3.6839520000    -0.4564570000
   11      O       2.0288110000    -5.4997720000     1.6307520000
   12      O      -2.2493570000    -4.4590550000    -1.8830640000
   13      C      -2.5865790000    -5.3290630000    -2.9567540000
   14      H      -3.2628020000    -4.7556940000    -3.6190690000
   15      H      -3.1247110000    -6.2380950000    -2.6094230000
   16      H      -1.6866390000    -5.6372620000    -3.5316670000
   17      C       2.5032510000    -4.5722610000     2.5990730000
   18      H       3.1853560000    -5.1397430000     3.2600970000
   19      H       1.6729370000    -4.1531310000     3.2070340000
   20      H       3.0752130000    -3.7395310000     2.1352140000
   21      C      -0.8281070000    -2.3066540000    -0.6944100000
   22      S       1.1887940000    -2.3065010000     0.9832560000
   23      C       0.0000000000    -1.4351850000     0.0000000000
   24      H      -1.6321850000    -1.9781380000    -1.3648510000
   25      H      -0.2212880000    -9.6140330000    -0.2349800000
   26      C       0.0000000000     0.0000000000     0.0000000000
   27      S       0.4527920000     0.7833120000     1.5075410000
   28      C       1.2383970000     2.1455560000     0.7188730000
   29      C       0.4528750000     0.7828980000    -1.0678720000
   30      C       1.1459450000     1.9879560000    -0.6864100000
   31      S       0.3335560000     0.5705310000    -2.8055160000
   32      C       1.2046040000     2.0902900000    -3.0545300000
   33      C       1.5566330000     2.7049290000    -1.8625510000
   34      F       2.2207970000     3.8649030000    -1.8190880000
   35      C       1.4302520000     2.4773450000    -4.4560840000
   36      O       1.0522420000     1.8066480000    -5.4065100000
   37      O       2.0990500000     3.6506630000    -4.5692250000
   38      C       2.3511160000     4.0768080000    -5.9162070000
   39      H       2.8955790000     5.0338210000    -5.8330640000
   40      H       1.4010150000     4.2173900000    -6.4701680000
   41      H       2.9623910000     3.3279690000    -6.4592930000
   42      H       1.6993020000     2.9466930000     1.3064860000
 ----------------------------------------------------------------
 Nuclear Repulsion Energy =        3294.94038405 hartrees
 There are      119 alpha and      119 beta electrons
 Requested basis set is cc-pVTZ
 There are 376 shells and 1068 basis functions

 Total QAlloc Memory Limit 110000 MB
 Mega-Array Size       188 MB
 MEM_STATIC part       192 MB
 Discretize the solute cavity surface with Lebedev spheres
	Using 110 Lebedev grid points for each H atom
	Using 194 Lebedev grid points for other atoms
	Atomic van der Waals radii will be scaled by 1.20
 Remove points where switching function is < 1.0e-08
 Keep 2896 surface tesserae and discard 4160 interior tesserae
 Molecular Surface Area = 439.949 Angst**2
 Requested basis set is rimp2-cc-pVTZ
 There are 833 shells and 2903 basis functions
 A cutoff of  1.0D-10 yielded  31033 shell pairs
 There are    238381 function pairs (    309518 Cartesian)
 Smallest overlap matrix eigenvalue = 2.21E-05

 Scale SEOQF with 1.000000e-01/1.000000e-02/1.000000e-02

 Standard Electronic Orientation quadrupole field applied
 Nucleus-field energy     =     0.0000000338 hartrees
 Guess from superposition of atomic densities
 Warning:  Energy on first SCF cycle will be non-variational
 SAD guess density has 238.000000 electrons

 -----------------------------------------------------------------------
  General SCF calculation program by
  Eric Jon Sundstrom, Paul Horn, Yuezhi Mao, Dmitri Zuev, Alec White,
  David Stuck, Shaama M.S., Shane Yost, Joonho Lee, David Small,
  Daniel Levine, Susi Lehtola, Hugh Burton, Evgeny Epifanovsky,
  Bang C. Huynh
 -----------------------------------------------------------------------
 Hartree-Fock
 using 64 threads for integral computing
 -------------------------------------------------------
 OpenMP Integral computing Module                
 Release: version 1.0, May 2013, Q-Chem Inc. Pittsburgh 
 -------------------------------------------------------
 A restricted SCF calculation will be
 performed using DIIS
 SCF converges when DIIS error is below 1.0e-06
 ---------------------------------------
  Cycle       Energy         DIIS error
 ---------------------------------------
    1   -2765.2363362100      1.75e-02  
    2   -2753.8660961452      1.56e-03  
    3   -2754.2050890478      8.63e-04  
    4   -2754.2868065558      2.56e-04  
    5   -2754.2984684999      6.94e-05  
    6   -2754.2995497209      2.37e-05  
    7   -2754.2997843331      1.14e-05  
    8   -2754.2998609794      4.25e-06  
    9   -2754.2998754587      1.67e-06  
   10   -2754.2998772215      7.15e-07  Convergence criterion met
 ---------------------------------------
 SCF time:   CPU 5937.44s  wall 236.00s 

************** Final PCM Free Energy Summary **************
 G_electrostatic  =      -0.01905856 hartree =     -11.95942889 kcal/mol
 G_cavitation     =       0.00000000 hartree =       0.00000000 kcal/mol
 G_dispersion     =       0.00000000 hartree =       0.00000000 kcal/mol
 G_repulsion      =       0.00000000 hartree =       0.00000000 kcal/mol
 --------------------------------------------------
 Non-electrostatic Free Energy =       0.00000000 hartree =       0.00000000 kcal/mol
 Total                         =      -0.01905856 hartree =     -11.95942889 kcal/mol
 --------------------------------------------------
 SCF Energy (H0 + V/2)                       =   -2754.29987722 
 Solute Internal Energy (H0)                 =   -2754.28081866 
 Total Free Energy (H0 + V/2 + non-elec)     =   -2754.29987722 hartree
                                             = -1728349.25893062 kcal/mol
***********************************************************

 SCF   energy in the final basis set =    -2754.2998772215
 Total energy in the final basis set =    -2754.2998772215


 --------------------------------------------------------------
  Generalized many-body perturbation theory program
  by Joonho Lee, Fazle Rob, Xintian Feng, Evgeny Epifanovsky

 No regularization used 
 (reg. param. = 0.0000e+00)
  (P|Q)^-1/2 Time:  CPU 208.36 s  wall 3.38 s

 In RI-MP2 calculation: 
 # of frozen core orbitals: 45

 Components of the RIMP2 correlation energy:
        aaaa    correlation energy =        -0.6701682392 a.u.
        abab    correlation energy =        -3.7140913114 a.u.
        bbbb    correlation energy =        -0.6701682392 a.u.
        non-Brillouin singles      =        -0.0000000000 a.u.
        total same-spin energy     =        -1.3403364784 a.u.
        total opposite-spin energy =        -3.7140913114 a.u.

 Total  RIMP2   correlation energy =        -5.0544277898 a.u.
        RIMP2         total energy =     -2759.3543050113 a.u.

 RI-MP2 Energy Time:  CPU 5525.31 s  wall 92.57 s
 
 --------------------------------------------------------------
 
                    Orbital Energies (a.u.)
 --------------------------------------------------------------
 
 Alpha MOs
 -- Occupied --
-92.0148 -92.0005 -91.9897 -91.9853 -26.3438 -20.6148 -20.5922 -20.5898
-20.5612 -11.4094 -11.3832 -11.3188 -11.3159 -11.3153 -11.3061 -11.2974
-11.2940 -11.2923 -11.2888 -11.2873 -11.2857 -11.2850 -11.2837 -11.2830
-11.2783 -11.2595 -11.2569 -11.2504 -11.2492  -9.0136  -9.0004  -8.9902
 -8.9852  -6.6944  -6.6937  -6.6932  -6.6813  -6.6806  -6.6795  -6.6711
 -6.6704  -6.6694  -6.6662  -6.6656  -6.6648  -1.6608  -1.4673  -1.4162
 -1.4126  -1.3700  -1.2239  -1.1931  -1.1650  -1.1371  -1.0842  -1.0507
 -1.0424  -1.0237  -1.0005  -0.9873  -0.9631  -0.9598  -0.9498  -0.9387
 -0.8952  -0.8685  -0.8496  -0.8093  -0.7962  -0.7867  -0.7859  -0.7637
 -0.7553  -0.7327  -0.7257  -0.7103  -0.7009  -0.6852  -0.6820  -0.6807
 -0.6739  -0.6586  -0.6579  -0.6517  -0.6296  -0.6190  -0.6166  -0.6044
 -0.5989  -0.5880  -0.5767  -0.5698  -0.5652  -0.5612  -0.5549  -0.5429
 -0.5346  -0.5308  -0.5215  -0.5161  -0.5149  -0.5109  -0.5041  -0.4939
 -0.4879  -0.4816  -0.4745  -0.4742  -0.4693  -0.4661  -0.4612  -0.4154
 -0.3960  -0.3842  -0.3565  -0.3508  -0.3200  -0.2943  -0.2536
 -- Virtual --
  0.0278   0.0645   0.0993   0.1256   0.1397   0.1442   0.1506   0.1550
  0.1566   0.1579   0.1637   0.1734   0.1828   0.1860   0.1882   0.1920
  0.2021   0.2038   0.2133   0.2150   0.2204   0.2225   0.2252   0.2277
  0.2319   0.2362   0.2421   0.2496   0.2576   0.2615   0.2720   0.2768
  0.2956   0.2989   0.3149   0.3317   0.3359   0.3381   0.3424   0.3447
  0.3533   0.3570   0.3657   0.3749   0.3820   0.3849   0.3855   0.3872
  0.3904   0.3927   0.3972   0.4067   0.4096   0.4121   0.4204   0.4225
  0.4260   0.4316   0.4379   0.4423   0.4476   0.4478   0.4538   0.4540
  0.4609   0.4637   0.4681   0.4716   0.4777   0.4856   0.4879   0.4932
  0.4940   0.4974   0.5028   0.5052   0.5075   0.5126   0.5199   0.5243
  0.5260   0.5292   0.5356   0.5370   0.5418   0.5474   0.5478   0.5510
  0.5519   0.5547   0.5577   0.5618   0.5659   0.5704   0.5792   0.5810
  0.5847   0.5871   0.5943   0.6003   0.6040   0.6052   0.6100   0.6136
  0.6140   0.6162   0.6199   0.6218   0.6250   0.6285   0.6307   0.6330
  0.6369   0.6421   0.6456   0.6515   0.6529   0.6610   0.6655   0.6687
  0.6718   0.6796   0.6810   0.6839   0.6870   0.6944   0.7018   0.7085
  0.7099   0.7143   0.7211   0.7241   0.7285   0.7357   0.7396   0.7458
  0.7522   0.7561   0.7631   0.7682   0.7747   0.7827   0.7911   0.8001
  0.8030   0.8088   0.8146   0.8192   0.8206   0.8282   0.8356   0.8435
  0.8521   0.8541   0.8550   0.8608   0.8679   0.8717   0.8742   0.8843
  0.8873   0.8930   0.8985   0.9063   0.9084   0.9142   0.9213   0.9249
  0.9305   0.9338   0.9378   0.9478   0.9524   0.9544   0.9633   0.9642
  0.9719   0.9775   0.9798   0.9820   0.9903   0.9942   0.9989   1.0006
  1.0040   1.0127   1.0167   1.0209   1.0247   1.0290   1.0335   1.0367
  1.0447   1.0505   1.0574   1.0623   1.0676   1.0702   1.0762   1.0792
  1.0874   1.0887   1.0931   1.0972   1.1033   1.1068   1.1090   1.1093
  1.1176   1.1190   1.1276   1.1312   1.1380   1.1404   1.1462   1.1548
  1.1626   1.1685   1.1768   1.1783   1.1823   1.1845   1.1889   1.1930
  1.1946   1.2014   1.2111   1.2129   1.2170   1.2201   1.2212   1.2312
  1.2356   1.2378   1.2422   1.2476   1.2591   1.2626   1.2688   1.2696
  1.2749   1.2795   1.2861   1.2922   1.2946   1.3028   1.3073   1.3150
  1.3237   1.3255   1.3311   1.3410   1.3513   1.3576   1.3622   1.3709
  1.3734   1.3871   1.3880   1.3955   1.4013   1.4124   1.4151   1.4252
  1.4312   1.4365   1.4448   1.4541   1.4640   1.4661   1.4836   1.4902
  1.4946   1.4997   1.5037   1.5072   1.5129   1.5138   1.5266   1.5292
  1.5315   1.5356   1.5384   1.5422   1.5498   1.5512   1.5578   1.5643
  1.5735   1.5783   1.5860   1.5893   1.6002   1.6047   1.6211   1.6322
  1.6350   1.6459   1.6513   1.6584   1.6622   1.6677   1.6722   1.6801
  1.6885   1.6926   1.6978   1.7077   1.7106   1.7250   1.7295   1.7502
  1.7604   1.7680   1.7787   1.7831   1.7998   1.8041   1.8075   1.8120
  1.8174   1.8272   1.8311   1.8427   1.8541   1.8613   1.8689   1.8738
  1.8840   1.8953   1.9010   1.9069   1.9164   1.9198   1.9306   1.9360
  1.9379   1.9478   1.9519   1.9561   1.9628   1.9743   1.9760   1.9872
  1.9943   1.9989   2.0066   2.0183   2.0307   2.0344   2.0431   2.0589
  2.0725   2.0757   2.0909   2.0974   2.1091   2.1137   2.1239   2.1423
  2.1512   2.1618   2.1641   2.1670   2.1776   2.1805   2.1887   2.1928
  2.1940   2.2015   2.2052   2.2204   2.2270   2.2301   2.2398   2.2422
  2.2439   2.2474   2.2571   2.2673   2.2716   2.2744   2.2807   2.2888
  2.2965   2.3061   2.3159   2.3207   2.3372   2.3396   2.3511   2.3530
  2.3668   2.3743   2.3836   2.3861   2.3963   2.4111   2.4185   2.4225
  2.4301   2.4378   2.4429   2.4541   2.4622   2.4710   2.4816   2.4912
  2.4939   2.4996   2.5081   2.5254   2.5365   2.5432   2.5514   2.5531
  2.5545   2.5700   2.5785   2.5864   2.5894   2.6116   2.6150   2.6206
  2.6244   2.6331   2.6353   2.6403   2.6417   2.6468   2.6602   2.6711
  2.6751   2.6817   2.6856   2.6918   2.6981   2.7043   2.7064   2.7112
  2.7186   2.7278   2.7294   2.7361   2.7492   2.7575   2.7646   2.7669
  2.7846   2.7874   2.7900   2.7950   2.8018   2.8084   2.8173   2.8193
  2.8348   2.8372   2.8406   2.8456   2.8518   2.8547   2.8681   2.8754
  2.8771   2.8842   2.8859   2.8899   2.8986   2.9185   2.9309   2.9400
  2.9465   2.9492   2.9574   2.9608   2.9698   2.9795   2.9865   2.9894
  3.0091   3.0161   3.0193   3.0229   3.0259   3.0325   3.0366   3.0403
  3.0484   3.0533   3.0609   3.0674   3.0803   3.0879   3.0965   3.0977
  3.1044   3.1076   3.1139   3.1182   3.1232   3.1245   3.1323   3.1468
  3.1482   3.1515   3.1557   3.1647   3.1655   3.1706   3.1811   3.1849
  3.1973   3.1986   3.2019   3.2053   3.2163   3.2193   3.2243   3.2269
  3.2313   3.2394   3.2462   3.2495   3.2541   3.2602   3.2636   3.2678
  3.2742   3.2764   3.2823   3.2864   3.2913   3.2934   3.3052   3.3062
  3.3188   3.3227   3.3248   3.3290   3.3380   3.3419   3.3449   3.3497
  3.3512   3.3531   3.3615   3.3662   3.3674   3.3714   3.3763   3.3770
  3.3874   3.3909   3.3949   3.3982   3.4008   3.4112   3.4153   3.4186
  3.4193   3.4263   3.4318   3.4409   3.4432   3.4472   3.4495   3.4536
  3.4582   3.4609   3.4648   3.4695   3.4711   3.4765   3.4795   3.4915
  3.4954   3.5008   3.5160   3.5210   3.5246   3.5283   3.5301   3.5338
  3.5377   3.5503   3.5527   3.5541   3.5650   3.5700   3.5734   3.5804
  3.5815   3.5864   3.5891   3.5979   3.5985   3.6037   3.6106   3.6162
  3.6203   3.6287   3.6356   3.6369   3.6445   3.6473   3.6523   3.6603
  3.6683   3.6727   3.6755   3.6831   3.6873   3.6933   3.6975   3.7015
  3.7060   3.7091   3.7145   3.7217   3.7287   3.7340   3.7399   3.7437
  3.7495   3.7550   3.7590   3.7615   3.7697   3.7784   3.7791   3.7890
  3.7928   3.7976   3.8030   3.8064   3.8124   3.8125   3.8173   3.8278
  3.8330   3.8364   3.8398   3.8446   3.8615   3.8646   3.8684   3.8725
  3.8766   3.8782   3.8843   3.8901   3.9043   3.9069   3.9122   3.9179
  3.9221   3.9289   3.9329   3.9475   3.9515   3.9606   3.9670   3.9826
  3.9853   3.9939   3.9971   4.0038   4.0146   4.0187   4.0363   4.0394
  4.0450   4.0526   4.0653   4.0680   4.0697   4.0736   4.0834   4.0933
  4.0966   4.1162   4.1248   4.1290   4.1323   4.1414   4.1480   4.1527
  4.1598   4.1655   4.1671   4.1688   4.1801   4.1886   4.1918   4.1953
  4.2058   4.2117   4.2216   4.2284   4.2395   4.2424   4.2574   4.2699
  4.2806   4.2895   4.3033   4.3086   4.3146   4.3234   4.3419   4.3435
  4.3583   4.3614   4.3656   4.3715   4.3745   4.3849   4.3920   4.3983
  4.4007   4.4066   4.4121   4.4269   4.4289   4.4311   4.4380   4.4439
  4.4602   4.4713   4.4807   4.4837   4.4974   4.4993   4.5037   4.5244
  4.5302   4.5436   4.5466   4.5540   4.5628   4.5742   4.5847   4.5879
  4.6021   4.6071   4.6172   4.6243   4.6288   4.6434   4.6525   4.6556
  4.6650   4.6722   4.6820   4.6882   4.6927   4.7070   4.7271   4.7314
  4.7386   4.7464   4.7507   4.7669   4.7787   4.7865   4.8023   4.8199
  4.8307   4.8437   4.8485   4.8554   4.8655   4.8786   4.9018   4.9111
  4.9287   4.9460   4.9481   4.9566   4.9671   4.9749   4.9901   5.0027
  5.0067   5.0089   5.0113   5.0327   5.0449   5.0511   5.0627   5.0730
  5.0844   5.0948   5.1164   5.1305   5.1613   5.1730   5.1823   5.1906
  5.1974   5.2192   5.2342   5.2507   5.2517   5.2574   5.2657   5.2685
  5.2947   5.3044   5.3135   5.3288   5.3310   5.3501   5.3526   5.3692
  5.3758   5.3988   5.4000   5.4095   5.4262   5.4298   5.4516   5.4644
  5.4848   5.4851   5.4963   5.5067   5.5137   5.5254   5.5427   5.5596
  5.5768   5.5813   5.5851   5.6061   5.6217   5.6265   5.6378   5.6627
  5.7106   5.7263   5.7558   5.7610   5.8075   5.8135   5.8303   5.8543
  5.8730   5.8820   5.9062   5.9292   5.9537   5.9698   5.9938   6.0405
  6.0439   6.0733   6.1023   6.1457   6.1505   6.1709   6.1773   6.1831
  6.2351   6.2419   6.2614   6.2650   6.2741   6.2793   6.3014   6.3261
  6.4117   6.4429   6.4501   6.4764   6.5389   6.5482   6.5572   6.6010
  6.6544   6.6610   6.6712   6.6960   6.7453   6.8000   6.8296   6.8370
  6.8595   6.8930   6.9778   7.1219   7.1360   7.2040   7.2051   7.2161
  7.2346   7.3099   7.3208   7.3309   7.3628   7.3630   7.4053   7.4133
  7.4792   7.4852   7.4880   7.5209   7.5503   7.6157   7.7088   7.7725
  7.7880   7.7969   7.8867   7.9197   7.9401   7.9578   8.0757   8.1342
  8.3680   8.9215   9.0192   9.3624   9.4747   9.6556  10.1158  10.6054
 11.2070  11.4931  11.7768  11.9895  12.1315  12.1477  12.4206  12.5721
 12.6895  12.9367  13.0227  13.2537  13.2812  13.3861  13.7750  13.8478
 13.9030  14.0147  14.0363  14.4547  15.1964
 --------------------------------------------------------------
 
          Ground-State Mulliken Net Atomic Charges

     Atom                 Charge (a.u.)
  ----------------------------------------
      1 C                    -0.191453
      2 C                    -0.254275
      3 S                    -0.023781
      4 C                    -0.017308
      5 H                     0.195871
      6 C                    -0.025610
      7 C                     0.235606
      8 C                     0.241060
      9 C                    -0.047669
     10 C                    -0.018860
     11 O                    -0.333135
     12 O                    -0.340521
     13 C                    -0.085803
     14 H                     0.122568
     15 H                     0.090592
     16 H                     0.093834
     17 C                    -0.087099
     18 H                     0.125131
     19 H                     0.094304
     20 H                     0.089495
     21 C                    -0.251914
     22 S                    -0.009192
     23 C                    -0.036514
     24 H                     0.199042
     25 H                     0.205850
     26 C                    -0.028762
     27 S                     0.090726
     28 C                    -0.165941
     29 C                     0.025470
     30 C                    -0.100014
     31 S                     0.019901
     32 C                    -0.151142
     33 C                     0.389201
     34 F                    -0.205898
     35 C                     0.446386
     36 O                    -0.461011
     37 O                    -0.301016
     38 C                    -0.058380
     39 H                     0.121361
     40 H                     0.095086
     41 H                     0.095159
     42 H                     0.218654
  ----------------------------------------
  Sum of atomic charges =     0.000000

 -----------------------------------------------------------------
                    Cartesian Multipole Moments
 -----------------------------------------------------------------
    Charge (ESU x 10^10)
                 0.0000
    Dipole Moment (Debye)
         X       1.9340      Y       1.4676      Z       2.8500
       Tot       3.7439
    Quadrupole Moments (Debye-Ang)
        XX    -189.2182     XY       6.0785     YY    -166.3691
        XZ       8.3444     YZ      -5.4567     ZZ    -189.8019
    Octopole Moments (Debye-Ang^2)
       XXX    -234.4758    XXY     376.8217    XYY     -59.3750
       YYY     927.1456    XXZ     171.7942    XYZ     -87.3671
       YYZ     129.3781    XZZ     -39.6783    YZZ     408.6324
       ZZZ     591.2501
    Hexadecapole Moments (Debye-Ang^3)
      XXXX   -2359.7824   XXXY   -1124.0213   XXYY   -3941.5356
      XYYY   -1023.1622   YYYY  -18681.0174   XXXZ     234.2982
      XXYZ     262.6970   XYYZ     255.3547   YYYZ     837.3995
      XXZZ   -1219.4285   XYZZ     -83.6806   YYZZ   -4036.8759
      XZZZ      35.2782   YZZZ     525.7575   ZZZZ   -6479.7470
 -----------------------------------------------------------------
 Total job time:  334.58s(wall), 11579.32s(cpu) 
 Mon Jan  8 19:56:30 2024

        *************************************************************
        *                                                           *
        *  Thank you very much for using Q-Chem.  Have a nice day.  *
        *                                                           *
        *************************************************************


0 sent ACK to 0 
now end server 0 ... 
cleanup process ... done
remove work dirs ./qchem251943.0 -- ./qchem251943.0
rm -rf ./qchem251943.0
rm -rf ./qchem251943
