You are running Q-Chem version: 5.4.0

#
# job setting
#
local host:  exp-7-09
current dir: /home/rramji/project-csd799/aromodel/ptb7fout-qchem/rotation-run
input file:  Dimethoxy_Benzodithiophene_Phi_10_Theta_130_Methylcarbonyl_3_Fluoro_Thienothiophene.qcin
output file: 
nprocs     : 1
nthreads   : 64
#
# qchem installation setting
#
QC:          /cm/shared/apps/spack/cpu/opt/spack/linux-centos8-zen2/gcc-10.2.0/qchem-5.4-akfmr7b3t57bfs6qan3padb2wnb2i7cl
QCAUX:       /cm/shared/apps/spack/cpu/opt/spack/linux-centos8-zen2/gcc-10.2.0/qchem-5.4-akfmr7b3t57bfs6qan3padb2wnb2i7cl/qcaux
QCPROG:      /cm/shared/apps/spack/cpu/opt/spack/linux-centos8-zen2/gcc-10.2.0/qchem-5.4-akfmr7b3t57bfs6qan3padb2wnb2i7cl/exe/qcprog.exe
QCPROG_S:    /cm/shared/apps/spack/cpu/opt/spack/linux-centos8-zen2/gcc-10.2.0/qchem-5.4-akfmr7b3t57bfs6qan3padb2wnb2i7cl/exe/qcprog.exe_s
PARALLEL:    -DPARALLEL
QCMPI:       mpich
#
# qchem directory setting
#
qcrun:       qchem4180173
QCSCRATCH:   .
QCLOCALSCR:  
QCTMPDIR:    .
QCFILEPREF:  ./qchem4180173
QCSAVEDIR:   
workdirs:    ./qchem4180173
workdir0:    ./qchem4180173
partmpdirs =  
#
# parallel setting
#
QCRSH:           ssh
QCMPI:           mpich
QCMPIRUN:        /cm/shared/apps/spack/cpu/opt/spack/linux-centos8-zen2/gcc-10.2.0/qchem-5.4-akfmr7b3t57bfs6qan3padb2wnb2i7cl/bin/mpi/mpirun_qchem
QCMACHINEFILE:   ./qchem4180173/hostfile
exp-7-09

#
# env setting
#
exported envs:   QC QCAUX QCSCRATCH QCRUNNAME QCFILEPREF QCPROG QCPROG_S GUIFILE

Running Job 1 of 1 Dimethoxy_Benzodithiophene_Phi_10_Theta_130_Methylcarbonyl_3_Fluoro_Thienothiophene.qcin
qchem Dimethoxy_Benzodithiophene_Phi_10_Theta_130_Methylcarbonyl_3_Fluoro_Thienothiophene.qcin_4180173.0 ./qchem4180173/ 1
/cm/shared/apps/spack/cpu/opt/spack/linux-centos8-zen2/gcc-10.2.0/qchem-5.4-akfmr7b3t57bfs6qan3padb2wnb2i7cl/bin/mpi/mpirun_qchem -machinefile ./qchem4180173/hostfile -np 1 /cm/shared/apps/spack/cpu/opt/spack/linux-centos8-zen2/gcc-10.2.0/qchem-5.4-akfmr7b3t57bfs6qan3padb2wnb2i7cl/exe/qcprog.exe Dimethoxy_Benzodithiophene_Phi_10_Theta_130_Methylcarbonyl_3_Fluoro_Thienothiophene.qcin_4180173.0 ./qchem4180173/

Process 0 of 1 is on exp-7-09 - thread support 0
initial socket setup ...start
initial socket setup ...done 
now start server 0 ... 
                  Welcome to Q-Chem
     A Quantum Leap Into The Future Of Chemistry


 Q-Chem 5.4, Q-Chem, Inc., Pleasanton, CA (2021)

 License issued to: University of California, San Diego (site)

 E. Epifanovsky,  A. T. B. Gilbert,  Xintian Feng,  Joonho Lee,  Yuezhi Mao,  
 N. Mardirossian,  P. Pokhilko,  A. White,  M. Wormit,  M. P. Coons,  
 A. L. Dempwolff,  Zhengting Gan,  D. Hait,  P. R. Horn,  L. D. Jacobson,  
 I. Kaliman,  J. Kussmann,  A. W. Lange,  Ka Un Lao,  D. S. Levine,  Jie Liu,  
 S. C. McKenzie,  A. F. Morrison,  K. Nanda,  F. Plasser,  D. R. Rehn,  
 M. L. Vidal,  Zhi-Qiang You,  Ying Zhu,  B. Alam,  B. Albrecht,  
 A. Aldossary,  E. Alguire,  J. H. Andersen,  D. Barton,  K. Begam,  A. Behn,  
 Y. A. Bernard,  E. J. Berquist,  H. Burton,  A. Carreras,  K. Carter-Fenk,  
 R. Chakraborty,  A. D. Chien,  K. D. Closser,  V. Cofer-Shabica,  
 S. Dasgupta,  Jia Deng,  M. de Wergifosse,  M. Diedenhofen,  Hainam Do,  
 S. Ehlert,  Po-Tung Fang,  S. Fatehi,  Qingguo Feng,  J. Gayvert,  
 Qinghui Ge,  G. Gidofalvi,  M. Goldey,  J. Gomes,  C. Gonzalez-Espinoza,  
 S. Gulania,  A. Gunina,  M. W. D. Hanson-Heine,  P. H. P. Harbach,  
 A. W. Hauser,  M. F. Herbst,  M. Hernandez Vera,  M. Hodecker,  
 Z. C. Holden,  S. Houck,  Xunkun Huang,  Kerwin Hui,  B. C. Huynh,  
 M. Ivanov,  Hyunjun Ji,  Hanjie Jiang,  B. Kaduk,  S. Kaehler,  
 K. Khistyaev,  Jaehoon Kim,  P. Klunzinger,  Z. Koczor-Benda,  
 Joong Hoon Koh,  D. Kosenkov,  L. Koulias,  T. Kowalczyk,  C. M. Krauter,  
 K. Kue,  A. Kunitsa,  T. Kus,  A. Landau,  K. V. Lawler,  D. Lefrancois,  
 S. Lehtola,  Rain Li,  Yi-Pei Li,  Jiashu Liang,  M. Liebenthal,  
 Hung-Hsuan Lin,  You-Sheng Lin,  Fenglai Liu,  Kuan-Yu Liu,  
 M. Loipersberger,  A. Luenser,  A. Manjanath,  P. Manohar,  E. Mansoor,  
 S. F. Manzer,  Shan-Ping Mao,  A. V. Marenich,  T. Markovich,  S. Mason,  
 S. A. Maurer,  P. F. McLaughlin,  M. F. S. J. Menger,  J.-M. Mewes,  
 S. A. Mewes,  P. Morgante,  J. W. Mullinax,  T. S. Nguyen-Beck,  
 K. J. Oosterbaan,  G. Paran,  Alexander C. Paul,  Suranjan K. Paul,  
 F. Pavosevic,  Zheng Pei,  S. Prager,  E. I. Proynov,  E. Ramos,  B. Rana,  
 A. E. Rask,  A. Rettig,  R. M. Richard,  F. Rob,  E. Rossomme,  T. Scheele,  
 M. Scheurer,  M. Schneider,  N. Sergueev,  S. M. Sharada,  W. Skomorowski,  
 D. W. Small,  C. J. Stein,  Yu-Chuan Su,  E. J. Sundstrom,  Zhen Tao,  
 J. Thirman,  T. Tsuchimochi,  N. M. Tubman,  S. P. Veccham,  O. Vydrov,  
 J. Wenzel,  J. Witte,  A. Yamada,  Kun Yao,  S. Yeganeh,  S. R. Yost,  
 A. Zech,  Igor Ying Zhang,  Xing Zhang,  Yu Zhang,  D. Zuev,  
 A. Aspuru-Guzik,  A. T. Bell,  N. A. Besley,  K. B. Bravaya,  B. R. Brooks,  
 D. Casanova,  Jeng-Da Chai,  S. Coriani,  C. J. Cramer,  
 A. E. DePrince, III,  R. A. DiStasio Jr.,  A. Dreuw,  B. D. Dunietz,  
 T. R. Furlani,  W. A. Goddard III,  S. Grimme,  S. Hammes-Schiffer,  
 T. Head-Gordon,  W. J. Hehre,  Chao-Ping Hsu,  T.-C. Jagau,  Yousung Jung,  
 A. Klamt,  Jing Kong,  D. S. Lambrecht,  WanZhen Liang,  N. J. Mayhall,  
 C. W. McCurdy,  J. B. Neaton,  C. Ochsenfeld,  J. A. Parkhill,  R. Peverati,  
 V. A. Rassolov,  Yihan Shao,  L. V. Slipchenko,  T. Stauch,  R. P. Steele,  
 J. E. Subotnik,  A. J. W. Thom,  A. Tkatchenko,  D. G. Truhlar,  
 T. Van Voorhis,  T. A. Wesolowski,  K. B. Whaley,  H. L. Woodcock III,  
 P. M. Zimmerman,  S. Faraji,  P. M. W. Gill,  M. Head-Gordon,  
 J. M. Herbert,  A. I. Krylov

 Contributors to earlier versions of Q-Chem not listed above: 
 R. D. Adamson,  B. Austin,  R. Baer,  J. Baker,  G. J. O. Beran,  
 K. Brandhorst,  S. T. Brown,  E. F. C. Byrd,  A. K. Chakraborty,  
 G. K. L. Chan,  Chun-Min Chang,  Yunqing Chen,  C.-L. Cheng,  
 Siu Hung Chien,  D. M. Chipman,  D. L. Crittenden,  H. Dachsel,  
 R. J. Doerksen,  A. D. Dutoi,  R. G. Edgar,  J. Fosso-Tande,  
 L. Fusti-Molnar,  D. Ghosh,  A. Ghysels,  A. Golubeva-Zadorozhnaya,  
 J. Gonthier,  M. S. Gordon,  S. R. Gwaltney,  G. Hawkins,  J. E. Herr,  
 A. Heyden,  S. Hirata,  E. G. Hohenstein,  G. Kedziora,  F. J. Keil,  
 C. Kelley,  Jihan Kim,  R. A. King,  R. Z. Khaliullin,  P. P. Korambath,  
 W. Kurlancheek,  A. Laurent,  A. M. Lee,  M. S. Lee,  S. V. Levchenko,  
 Ching Yeh Lin,  D. Liotard,  E. Livshits,  R. C. Lochan,  I. Lotan,  
 L. A. Martinez-Martinez,  P. E. Maslen,  N. Nair,  D. P. O'Neill,  
 D. Neuhauser,  E. Neuscamman,  C. M. Oana,  R. Olivares-Amaya,  R. Olson,  
 T. M. Perrine,  B. Peters,  P. A. Pieniazek,  A. Prociuk,  Y. M. Rhee,  
 J. Ritchie,  M. A. Rohrdanz,  E. Rosta,  N. J. Russ,  H. F. Schaefer III,  
 M. W. Schmidt,  N. E. Schultz,  S. Sharma,  N. Shenvi,  C. D. Sherrill,  
 A. C. Simmonett,  A. Sodt,  T. Stein,  D. Stuck,  K. S. Thanthiriwatte,  
 V. Vanovschi,  L. Vogt,  Tao Wang,  A. Warshel,  M. A. Watson,  
 C. F. Williams,  Q. Wu,  X. Xu,  Jun Yang,  W. Zhang,  Yan Zhao

 Please cite Q-Chem as follows:
 Y. Shao et al., Mol. Phys. 113, 184-215 (2015)
 DOI: 10.1080/00268976.2014.952696

 Q-Chem 5.4.0 for Intel X86 EM64T Linux

 Parts of Q-Chem use Armadillo 9.800.1 (Horizon Scraper).
 http://arma.sourceforge.net/

 Q-Chem begins on Mon Jan  8 19:54:36 2024  

 Host: 
0

     Scratch files written to ./qchem4180173//
 May1621 |scratch|qcdevops|jenkins|workspace|build_RNUM    
 Parallel job on  1  processors
 Processing $rem in /cm/shared/apps/spack/cpu/opt/spack/linux-centos8-zen2/gcc-10.2.0/qchem-5.4-akfmr7b3t57bfs6qan3padb2wnb2i7cl/config/preferences:
 Processing $rem in /home/rramji/.qchemrc:
 Symmetry turned off for PCM/SM12/SMD calculation
 Core orbitals will be frozen

 Checking the input file for inconsistencies... 	...done.

 Q-Chem warning in module forms1/BasisType.C, line 2236:

 You are not using the predefined 5D/6D in this basis set.


--------------------------------------------------------------
User input:
--------------------------------------------------------------
$molecule
0 1
C	-0.217225	-8.517702	-0.236226
C	0.611939	-7.641575	0.448921
S	-1.413715	-7.638634	-1.218777
C	0.323572	-6.264785	0.206907
H	1.418739	-7.966081	1.118185
C	-0.768156	-6.072714	-0.711285
C	-1.215016	-4.787049	-1.053725
C	0.999917	-5.162801	0.804258
C	0.550033	-3.874817	0.464908
C	-0.541024	-3.683952	-0.456457
O	2.028811	-5.499772	1.630752
O	-2.249357	-4.459055	-1.883064
C	-2.586579	-5.329063	-2.956754
H	-3.262802	-4.755694	-3.619069
H	-3.124711	-6.238095	-2.609423
H	-1.686639	-5.637262	-3.531667
C	2.503251	-4.572261	2.599073
H	3.185356	-5.139743	3.260097
H	1.672937	-4.153131	3.207034
H	3.075213	-3.739531	2.135214
C	-0.828107	-2.306654	-0.694410
S	1.188794	-2.306501	0.983256
C	-0.000000	-1.435185	-0.000000
H	-1.632185	-1.978138	-1.364851
H	-0.221288	-9.614033	-0.234980
C	0.000000	0.000000	0.000000
S	0.157577	0.890937	1.507541
C	0.429889	2.439720	0.718873
C	0.157797	0.890576	-1.067872
C	0.396915	2.260004	-0.686410
S	0.118307	0.650207	-2.805516
C	0.417036	2.376229	-3.054530
C	0.537616	3.074202	-1.862551
F	0.764992	4.391378	-1.819088
C	0.496696	2.817118	-4.456084
O	0.370874	2.057582	-5.406510
O	0.723861	4.148418	-4.569225
C	0.814976	4.635075	-5.916207
H	0.999286	5.720591	-5.833064
H	-0.125909	4.442226	-6.470168
H	1.645504	4.140465	-6.459293
H	0.588993	3.350182	1.306486
$end

$rem
JOBTYPE		SP
EXCHANGE	HF
CORRELATION	pRIMP2
BASIS		cc-pvtz
METHOD		rimp2
AUX_BASIS	rimp2-cc-pvtz
SOLVENT_METHOD	PCM
PURECART	11111
SYMMETRY	false
MEM_TOTAL	110000
SCF_CONVERGENCE = 6
THRESH=10
GUI = 2
$end



$solvent
dielectric 4.90
$end
--------------------------------------------------------------
 ----------------------------------------------------------------
             Standard Nuclear Orientation (Angstroms)
    I     Atom           X                Y                Z
 ----------------------------------------------------------------
    1      C      -0.2172250000    -8.5177020000    -0.2362260000
    2      C       0.6119390000    -7.6415750000     0.4489210000
    3      S      -1.4137150000    -7.6386340000    -1.2187770000
    4      C       0.3235720000    -6.2647850000     0.2069070000
    5      H       1.4187390000    -7.9660810000     1.1181850000
    6      C      -0.7681560000    -6.0727140000    -0.7112850000
    7      C      -1.2150160000    -4.7870490000    -1.0537250000
    8      C       0.9999170000    -5.1628010000     0.8042580000
    9      C       0.5500330000    -3.8748170000     0.4649080000
   10      C      -0.5410240000    -3.6839520000    -0.4564570000
   11      O       2.0288110000    -5.4997720000     1.6307520000
   12      O      -2.2493570000    -4.4590550000    -1.8830640000
   13      C      -2.5865790000    -5.3290630000    -2.9567540000
   14      H      -3.2628020000    -4.7556940000    -3.6190690000
   15      H      -3.1247110000    -6.2380950000    -2.6094230000
   16      H      -1.6866390000    -5.6372620000    -3.5316670000
   17      C       2.5032510000    -4.5722610000     2.5990730000
   18      H       3.1853560000    -5.1397430000     3.2600970000
   19      H       1.6729370000    -4.1531310000     3.2070340000
   20      H       3.0752130000    -3.7395310000     2.1352140000
   21      C      -0.8281070000    -2.3066540000    -0.6944100000
   22      S       1.1887940000    -2.3065010000     0.9832560000
   23      C       0.0000000000    -1.4351850000     0.0000000000
   24      H      -1.6321850000    -1.9781380000    -1.3648510000
   25      H      -0.2212880000    -9.6140330000    -0.2349800000
   26      C       0.0000000000     0.0000000000     0.0000000000
   27      S       0.1575770000     0.8909370000     1.5075410000
   28      C       0.4298890000     2.4397200000     0.7188730000
   29      C       0.1577970000     0.8905760000    -1.0678720000
   30      C       0.3969150000     2.2600040000    -0.6864100000
   31      S       0.1183070000     0.6502070000    -2.8055160000
   32      C       0.4170360000     2.3762290000    -3.0545300000
   33      C       0.5376160000     3.0742020000    -1.8625510000
   34      F       0.7649920000     4.3913780000    -1.8190880000
   35      C       0.4966960000     2.8171180000    -4.4560840000
   36      O       0.3708740000     2.0575820000    -5.4065100000
   37      O       0.7238610000     4.1484180000    -4.5692250000
   38      C       0.8149760000     4.6350750000    -5.9162070000
   39      H       0.9992860000     5.7205910000    -5.8330640000
   40      H      -0.1259090000     4.4422260000    -6.4701680000
   41      H       1.6455040000     4.1404650000    -6.4592930000
   42      H       0.5889930000     3.3501820000     1.3064860000
 ----------------------------------------------------------------
 Nuclear Repulsion Energy =        3276.41983507 hartrees
 There are      119 alpha and      119 beta electrons
 Requested basis set is cc-pVTZ
 There are 376 shells and 1068 basis functions

 Total QAlloc Memory Limit 110000 MB
 Mega-Array Size       188 MB
 MEM_STATIC part       192 MB
 Discretize the solute cavity surface with Lebedev spheres
	Using 110 Lebedev grid points for each H atom
	Using 194 Lebedev grid points for other atoms
	Atomic van der Waals radii will be scaled by 1.20
 Remove points where switching function is < 1.0e-08
 Keep 2913 surface tesserae and discard 4143 interior tesserae
 Molecular Surface Area = 441.365 Angst**2
 Requested basis set is rimp2-cc-pVTZ
 There are 833 shells and 2903 basis functions
 A cutoff of  1.0D-10 yielded  30787 shell pairs
 There are    236783 function pairs (    307564 Cartesian)
 Smallest overlap matrix eigenvalue = 2.21E-05

 Scale SEOQF with 1.000000e-01/1.000000e-02/1.000000e-02

 Standard Electronic Orientation quadrupole field applied
 Nucleus-field energy     =     0.0000000288 hartrees
 Guess from superposition of atomic densities
 Warning:  Energy on first SCF cycle will be non-variational
 SAD guess density has 238.000000 electrons

 -----------------------------------------------------------------------
  General SCF calculation program by
  Eric Jon Sundstrom, Paul Horn, Yuezhi Mao, Dmitri Zuev, Alec White,
  David Stuck, Shaama M.S., Shane Yost, Joonho Lee, David Small,
  Daniel Levine, Susi Lehtola, Hugh Burton, Evgeny Epifanovsky,
  Bang C. Huynh
 -----------------------------------------------------------------------
 Hartree-Fock
 using 64 threads for integral computing
 -------------------------------------------------------
 OpenMP Integral computing Module                
 Release: version 1.0, May 2013, Q-Chem Inc. Pittsburgh 
 -------------------------------------------------------
 A restricted SCF calculation will be
 performed using DIIS
 SCF converges when DIIS error is below 1.0e-06
 ---------------------------------------
  Cycle       Energy         DIIS error
 ---------------------------------------
    1   -2765.2107741369      1.75e-02  
    2   -2753.8817784781      1.56e-03  
    3   -2754.2202206061      8.61e-04  
    4   -2754.3014279519      2.56e-04  
    5   -2754.3130561731      6.94e-05  
    6   -2754.3141399059      2.37e-05  
    7   -2754.3143757789      1.14e-05  
    8   -2754.3144531847      4.26e-06  
    9   -2754.3144677843      1.68e-06  
   10   -2754.3144695575      7.04e-07  Convergence criterion met
 ---------------------------------------
 SCF time:   CPU 6183.44s  wall 234.00s 

************** Final PCM Free Energy Summary **************
 G_electrostatic  =      -0.01856895 hartree =     -11.65219300 kcal/mol
 G_cavitation     =       0.00000000 hartree =       0.00000000 kcal/mol
 G_dispersion     =       0.00000000 hartree =       0.00000000 kcal/mol
 G_repulsion      =       0.00000000 hartree =       0.00000000 kcal/mol
 --------------------------------------------------
 Non-electrostatic Free Energy =       0.00000000 hartree =       0.00000000 kcal/mol
 Total                         =      -0.01856895 hartree =     -11.65219300 kcal/mol
 --------------------------------------------------
 SCF Energy (H0 + V/2)                       =   -2754.31446956 
 Solute Internal Energy (H0)                 =   -2754.29590061 
 Total Free Energy (H0 + V/2 + non-elec)     =   -2754.31446956 hartree
                                             = -1728358.41575968 kcal/mol
***********************************************************

 SCF   energy in the final basis set =    -2754.3144695575
 Total energy in the final basis set =    -2754.3144695575


 --------------------------------------------------------------
  Generalized many-body perturbation theory program
  by Joonho Lee, Fazle Rob, Xintian Feng, Evgeny Epifanovsky

 No regularization used 
 (reg. param. = 0.0000e+00)
  (P|Q)^-1/2 Time:  CPU 197.47 s  wall 3.58 s

 In RI-MP2 calculation: 
 # of frozen core orbitals: 45

 Components of the RIMP2 correlation energy:
        aaaa    correlation energy =        -0.6694182631 a.u.
        abab    correlation energy =        -3.7118380828 a.u.
        bbbb    correlation energy =        -0.6694182631 a.u.
        non-Brillouin singles      =        -0.0000000000 a.u.
        total same-spin energy     =        -1.3388365263 a.u.
        total opposite-spin energy =        -3.7118380828 a.u.

 Total  RIMP2   correlation energy =        -5.0506746091 a.u.
        RIMP2         total energy =     -2759.3651441666 a.u.

 RI-MP2 Energy Time:  CPU 3076.28 s  wall 50.40 s
 
 --------------------------------------------------------------
 
                    Orbital Energies (a.u.)
 --------------------------------------------------------------
 
 Alpha MOs
 -- Occupied --
-92.0151 -91.9974 -91.9909 -91.9864 -26.3428 -20.6145 -20.5928 -20.5912
-20.5609 -11.4090 -11.3817 -11.3197 -11.3178 -11.3094 -11.3007 -11.2986
-11.2969 -11.2944 -11.2886 -11.2876 -11.2864 -11.2857 -11.2845 -11.2841
-11.2798 -11.2611 -11.2590 -11.2563 -11.2500  -9.0136  -8.9973  -8.9913
 -8.9863  -6.6944  -6.6938  -6.6933  -6.6784  -6.6776  -6.6765  -6.6722
 -6.6716  -6.6706  -6.6673  -6.6667  -6.6658  -1.6599  -1.4669  -1.4168
 -1.4140  -1.3696  -1.2209  -1.1947  -1.1658  -1.1358  -1.0848  -1.0521
 -1.0411  -1.0225  -1.0019  -0.9880  -0.9627  -0.9602  -0.9505  -0.9387
 -0.8962  -0.8672  -0.8518  -0.8080  -0.7970  -0.7872  -0.7870  -0.7646
 -0.7550  -0.7340  -0.7248  -0.7092  -0.7017  -0.6848  -0.6832  -0.6803
 -0.6735  -0.6593  -0.6576  -0.6525  -0.6305  -0.6200  -0.6173  -0.6041
 -0.5975  -0.5860  -0.5777  -0.5699  -0.5662  -0.5598  -0.5552  -0.5483
 -0.5350  -0.5306  -0.5227  -0.5167  -0.5161  -0.5101  -0.5046  -0.4947
 -0.4885  -0.4796  -0.4754  -0.4736  -0.4695  -0.4681  -0.4618  -0.4151
 -0.3962  -0.3860  -0.3579  -0.3502  -0.3213  -0.2930  -0.2550
 -- Virtual --
  0.0311   0.0603   0.1095   0.1254   0.1382   0.1463   0.1517   0.1558
  0.1564   0.1586   0.1637   0.1719   0.1824   0.1867   0.1886   0.1936
  0.2000   0.2034   0.2150   0.2161   0.2203   0.2217   0.2251   0.2277
  0.2340   0.2355   0.2421   0.2495   0.2569   0.2632   0.2727   0.2753
  0.2937   0.2995   0.3259   0.3329   0.3349   0.3411   0.3428   0.3481
  0.3531   0.3578   0.3671   0.3737   0.3839   0.3849   0.3858   0.3875
  0.3910   0.3931   0.4002   0.4054   0.4086   0.4139   0.4217   0.4234
  0.4284   0.4366   0.4388   0.4458   0.4473   0.4484   0.4565   0.4578
  0.4582   0.4629   0.4688   0.4716   0.4762   0.4830   0.4869   0.4916
  0.4971   0.4998   0.5036   0.5048   0.5094   0.5119   0.5180   0.5229
  0.5232   0.5285   0.5333   0.5372   0.5423   0.5457   0.5501   0.5522
  0.5533   0.5544   0.5599   0.5605   0.5660   0.5697   0.5737   0.5808
  0.5838   0.5868   0.5917   0.5975   0.6044   0.6093   0.6099   0.6125
  0.6150   0.6158   0.6173   0.6227   0.6242   0.6260   0.6291   0.6324
  0.6372   0.6407   0.6462   0.6507   0.6509   0.6581   0.6619   0.6683
  0.6689   0.6774   0.6817   0.6862   0.6878   0.6966   0.7008   0.7094
  0.7126   0.7158   0.7178   0.7218   0.7302   0.7367   0.7402   0.7465
  0.7514   0.7563   0.7648   0.7653   0.7760   0.7796   0.7919   0.7975
  0.8060   0.8113   0.8164   0.8201   0.8225   0.8294   0.8363   0.8446
  0.8518   0.8589   0.8604   0.8617   0.8713   0.8749   0.8772   0.8837
  0.8874   0.8942   0.8980   0.9054   0.9121   0.9162   0.9217   0.9240
  0.9286   0.9358   0.9382   0.9471   0.9487   0.9526   0.9602   0.9658
  0.9697   0.9766   0.9803   0.9810   0.9925   0.9970   0.9997   1.0009
  1.0081   1.0146   1.0187   1.0212   1.0239   1.0297   1.0323   1.0417
  1.0430   1.0507   1.0578   1.0642   1.0669   1.0744   1.0766   1.0782
  1.0815   1.0906   1.0931   1.0940   1.1010   1.1030   1.1060   1.1103
  1.1146   1.1199   1.1275   1.1308   1.1387   1.1447   1.1498   1.1557
  1.1638   1.1669   1.1733   1.1796   1.1824   1.1842   1.1881   1.1963
  1.2022   1.2061   1.2128   1.2158   1.2171   1.2207   1.2241   1.2289
  1.2376   1.2406   1.2410   1.2466   1.2571   1.2631   1.2667   1.2711
  1.2736   1.2785   1.2860   1.2928   1.2999   1.3069   1.3093   1.3175
  1.3267   1.3278   1.3367   1.3394   1.3494   1.3554   1.3622   1.3662
  1.3729   1.3811   1.3882   1.4008   1.4025   1.4149   1.4181   1.4249
  1.4262   1.4384   1.4488   1.4581   1.4669   1.4744   1.4813   1.4934
  1.4940   1.5018   1.5059   1.5081   1.5123   1.5149   1.5213   1.5295
  1.5316   1.5364   1.5383   1.5399   1.5467   1.5512   1.5533   1.5658
  1.5738   1.5771   1.5869   1.5884   1.6078   1.6090   1.6223   1.6334
  1.6440   1.6450   1.6511   1.6569   1.6611   1.6677   1.6711   1.6830
  1.6908   1.6945   1.7010   1.7106   1.7180   1.7204   1.7319   1.7492
  1.7585   1.7742   1.7814   1.7890   1.7932   1.8060   1.8085   1.8159
  1.8174   1.8264   1.8312   1.8432   1.8536   1.8633   1.8654   1.8731
  1.8785   1.8966   1.8981   1.9083   1.9106   1.9169   1.9284   1.9357
  1.9415   1.9447   1.9548   1.9580   1.9643   1.9773   1.9838   1.9871
  1.9942   1.9996   2.0143   2.0184   2.0260   2.0368   2.0433   2.0517
  2.0615   2.0766   2.0888   2.0973   2.1019   2.1104   2.1246   2.1319
  2.1572   2.1614   2.1634   2.1675   2.1773   2.1873   2.1897   2.1917
  2.1977   2.2029   2.2097   2.2171   2.2203   2.2319   2.2382   2.2410
  2.2476   2.2536   2.2590   2.2625   2.2706   2.2732   2.2844   2.2954
  2.2988   2.3058   2.3173   2.3212   2.3358   2.3412   2.3508   2.3533
  2.3701   2.3724   2.3835   2.3865   2.3987   2.4132   2.4182   2.4260
  2.4316   2.4335   2.4439   2.4570   2.4632   2.4688   2.4791   2.4888
  2.4992   2.5002   2.5079   2.5240   2.5321   2.5448   2.5491   2.5537
  2.5569   2.5698   2.5820   2.5966   2.6060   2.6141   2.6152   2.6197
  2.6245   2.6314   2.6392   2.6405   2.6429   2.6473   2.6602   2.6702
  2.6796   2.6846   2.6851   2.6959   2.6992   2.7045   2.7066   2.7099
  2.7198   2.7251   2.7382   2.7452   2.7468   2.7556   2.7586   2.7648
  2.7837   2.7874   2.7918   2.7952   2.7993   2.8095   2.8152   2.8207
  2.8263   2.8338   2.8380   2.8439   2.8525   2.8587   2.8680   2.8687
  2.8732   2.8775   2.8859   2.8903   2.8941   2.9049   2.9237   2.9429
  2.9438   2.9522   2.9531   2.9604   2.9708   2.9783   2.9823   2.9897
  3.0016   3.0080   3.0138   3.0234   3.0244   3.0275   3.0346   3.0375
  3.0464   3.0516   3.0601   3.0658   3.0807   3.0889   3.0968   3.0995
  3.1034   3.1042   3.1114   3.1136   3.1208   3.1260   3.1379   3.1421
  3.1486   3.1542   3.1549   3.1640   3.1651   3.1707   3.1799   3.1833
  3.1918   3.1964   3.2019   3.2097   3.2163   3.2182   3.2259   3.2293
  3.2333   3.2384   3.2478   3.2524   3.2572   3.2625   3.2666   3.2696
  3.2755   3.2774   3.2796   3.2858   3.2927   3.2962   3.2997   3.3024
  3.3145   3.3203   3.3259   3.3263   3.3311   3.3372   3.3413   3.3440
  3.3490   3.3506   3.3558   3.3656   3.3668   3.3701   3.3725   3.3742
  3.3815   3.3846   3.3894   3.3925   3.3984   3.4044   3.4107   3.4133
  3.4151   3.4219   3.4280   3.4403   3.4416   3.4472   3.4495   3.4495
  3.4559   3.4612   3.4664   3.4693   3.4738   3.4777   3.4816   3.4895
  3.4942   3.5018   3.5118   3.5149   3.5202   3.5277   3.5339   3.5377
  3.5399   3.5461   3.5513   3.5548   3.5580   3.5666   3.5706   3.5778
  3.5819   3.5876   3.5880   3.5957   3.5984   3.6020   3.6052   3.6166
  3.6208   3.6263   3.6349   3.6377   3.6442   3.6477   3.6529   3.6591
  3.6611   3.6702   3.6716   3.6783   3.6852   3.6864   3.6957   3.6958
  3.7013   3.7023   3.7062   3.7169   3.7244   3.7281   3.7332   3.7388
  3.7471   3.7492   3.7508   3.7586   3.7670   3.7713   3.7786   3.7877
  3.7906   3.7929   3.7999   3.8066   3.8107   3.8144   3.8190   3.8228
  3.8254   3.8345   3.8397   3.8495   3.8574   3.8617   3.8693   3.8730
  3.8750   3.8801   3.8817   3.8940   3.9015   3.9067   3.9134   3.9224
  3.9292   3.9312   3.9321   3.9528   3.9589   3.9648   3.9701   3.9790
  3.9868   3.9918   4.0035   4.0048   4.0125   4.0156   4.0294   4.0416
  4.0501   4.0614   4.0642   4.0686   4.0743   4.0761   4.0831   4.0998
  4.1034   4.1116   4.1145   4.1258   4.1345   4.1426   4.1441   4.1496
  4.1556   4.1644   4.1670   4.1703   4.1749   4.1831   4.1891   4.1944
  4.2077   4.2105   4.2237   4.2311   4.2372   4.2545   4.2548   4.2698
  4.2754   4.2839   4.2918   4.3058   4.3165   4.3221   4.3420   4.3425
  4.3578   4.3587   4.3679   4.3702   4.3759   4.3861   4.3878   4.4001
  4.4030   4.4070   4.4126   4.4275   4.4310   4.4330   4.4376   4.4452
  4.4604   4.4682   4.4821   4.4925   4.4960   4.5000   4.5105   4.5231
  4.5351   4.5406   4.5468   4.5505   4.5599   4.5687   4.5820   4.5880
  4.5975   4.6037   4.6101   4.6199   4.6274   4.6461   4.6500   4.6567
  4.6619   4.6718   4.6756   4.6853   4.6929   4.7141   4.7195   4.7336
  4.7421   4.7451   4.7525   4.7693   4.7804   4.7864   4.8070   4.8172
  4.8280   4.8402   4.8514   4.8583   4.8704   4.8919   4.9042   4.9115
  4.9322   4.9424   4.9501   4.9616   4.9656   4.9763   4.9913   4.9970
  5.0068   5.0091   5.0110   5.0251   5.0402   5.0540   5.0631   5.0715
  5.0864   5.1045   5.1201   5.1298   5.1584   5.1690   5.1758   5.1975
  5.2068   5.2243   5.2444   5.2513   5.2539   5.2582   5.2637   5.2820
  5.2966   5.3094   5.3129   5.3251   5.3322   5.3509   5.3516   5.3642
  5.3750   5.3972   5.3994   5.4133   5.4265   5.4376   5.4480   5.4634
  5.4852   5.4862   5.5062   5.5073   5.5133   5.5303   5.5493   5.5690
  5.5755   5.5832   5.5851   5.6056   5.6220   5.6287   5.6416   5.6653
  5.7139   5.7323   5.7573   5.7655   5.8079   5.8139   5.8374   5.8540
  5.8723   5.8803   5.9109   5.9295   5.9582   5.9781   5.9972   6.0418
  6.0547   6.0835   6.1028   6.1507   6.1647   6.1706   6.1767   6.1858
  6.2399   6.2422   6.2617   6.2687   6.2806   6.2931   6.3035   6.3446
  6.4185   6.4418   6.4505   6.4832   6.5396   6.5476   6.5562   6.6034
  6.6543   6.6614   6.6715   6.6977   6.7464   6.7999   6.8302   6.8397
  6.8599   6.8920   6.9782   7.1202   7.1364   7.2043   7.2074   7.2154
  7.2337   7.3102   7.3193   7.3313   7.3636   7.3641   7.4064   7.4136
  7.4786   7.4861   7.4882   7.5246   7.5516   7.6162   7.7131   7.7735
  7.7889   7.7962   7.8929   7.9184   7.9417   7.9597   8.0942   8.1348
  8.4548   8.9224   9.0182   9.3633   9.4699   9.6497  10.0895  10.6777
 11.1814  11.5367  11.7828  11.9650  12.1289  12.1707  12.4171  12.5701
 12.6989  12.9392  13.0490  13.1942  13.2807  13.3872  13.7738  13.8472
 13.9010  14.0171  14.0374  14.5073  15.1960
 --------------------------------------------------------------
 
          Ground-State Mulliken Net Atomic Charges

     Atom                 Charge (a.u.)
  ----------------------------------------
      1 C                    -0.188500
      2 C                    -0.254391
      3 S                    -0.021881
      4 C                    -0.014591
      5 H                     0.196312
      6 C                    -0.026459
      7 C                     0.242510
      8 C                     0.239639
      9 C                    -0.044735
     10 C                    -0.024742
     11 O                    -0.332990
     12 O                    -0.340022
     13 C                    -0.085949
     14 H                     0.123091
     15 H                     0.090921
     16 H                     0.094289
     17 C                    -0.087247
     18 H                     0.125144
     19 H                     0.094461
     20 H                     0.089953
     21 C                    -0.238697
     22 S                    -0.010284
     23 C                    -0.044234
     24 H                     0.201100
     25 H                     0.206421
     26 C                    -0.006389
     27 S                     0.094198
     28 C                    -0.183415
     29 C                     0.021566
     30 C                    -0.109223
     31 S                     0.007670
     32 C                    -0.151366
     33 C                     0.390367
     34 F                    -0.206913
     35 C                     0.444989
     36 O                    -0.460910
     37 O                    -0.300648
     38 C                    -0.058589
     39 H                     0.121276
     40 H                     0.095026
     41 H                     0.095067
     42 H                     0.218176
  ----------------------------------------
  Sum of atomic charges =     0.000000

 -----------------------------------------------------------------
                    Cartesian Multipole Moments
 -----------------------------------------------------------------
    Charge (ESU x 10^10)
                 0.0000
    Dipole Moment (Debye)
         X       0.7084      Y       0.9439      Z       2.8846
       Tot       3.1167
    Quadrupole Moments (Debye-Ang)
        XX    -192.7141     XY       2.0098     YY    -159.9680
        XZ      10.9166     YZ      -6.0132     ZZ    -190.2904
    Octopole Moments (Debye-Ang^2)
       XXX     -60.0627    XXY     341.1353    XYY     -13.2059
       YYY     852.0676    XXZ     185.6437    XYZ     -71.6302
       YYZ     113.3071    XZZ      -9.9199    YZZ     395.5056
       ZZZ     592.6935
    Hexadecapole Moments (Debye-Ang^3)
      XXXX   -1603.7434   XXXY    -690.1638   XXYY   -3978.4913
      XYYY    -594.9797   YYYY  -19160.7351   XXXZ    -247.3606
      XXYZ     391.9306   XYYZ     155.4898   YYYZ     933.6412
      XXZZ   -1227.5036   XYZZ     -92.4951   YYZZ   -4022.5197
      XZZZ    -306.0432   YZZZ     656.0656   ZZZZ   -6487.3580
 -----------------------------------------------------------------
 Total job time:  311.30s(wall), 9490.97s(cpu) 
 Mon Jan  8 19:59:47 2024

        *************************************************************
        *                                                           *
        *  Thank you very much for using Q-Chem.  Have a nice day.  *
        *                                                           *
        *************************************************************


0 sent ACK to 0 
now end server 0 ... 
cleanup process ... done
remove work dirs ./qchem4180173.0 -- ./qchem4180173.0
rm -rf ./qchem4180173.0
rm -rf ./qchem4180173
