You are running Q-Chem version: 5.4.0

#
# job setting
#
local host:  exp-1-20
current dir: /home/rramji/project-csd799/aromodel/ptb7fout-qchem/rotation-run
input file:  Dimethoxy_Benzodithiophene_Phi_50_Theta_90_Methylcarbonyl_3_Fluoro_Thienothiophene.qcin
output file: 
nprocs     : 1
nthreads   : 64
#
# qchem installation setting
#
QC:          /cm/shared/apps/spack/cpu/opt/spack/linux-centos8-zen2/gcc-10.2.0/qchem-5.4-akfmr7b3t57bfs6qan3padb2wnb2i7cl
QCAUX:       /cm/shared/apps/spack/cpu/opt/spack/linux-centos8-zen2/gcc-10.2.0/qchem-5.4-akfmr7b3t57bfs6qan3padb2wnb2i7cl/qcaux
QCPROG:      /cm/shared/apps/spack/cpu/opt/spack/linux-centos8-zen2/gcc-10.2.0/qchem-5.4-akfmr7b3t57bfs6qan3padb2wnb2i7cl/exe/qcprog.exe
QCPROG_S:    /cm/shared/apps/spack/cpu/opt/spack/linux-centos8-zen2/gcc-10.2.0/qchem-5.4-akfmr7b3t57bfs6qan3padb2wnb2i7cl/exe/qcprog.exe_s
PARALLEL:    -DPARALLEL
QCMPI:       mpich
#
# qchem directory setting
#
qcrun:       qchem3290557
QCSCRATCH:   .
QCLOCALSCR:  
QCTMPDIR:    .
QCFILEPREF:  ./qchem3290557
QCSAVEDIR:   
workdirs:    ./qchem3290557
workdir0:    ./qchem3290557
partmpdirs =  
#
# parallel setting
#
QCRSH:           ssh
QCMPI:           mpich
QCMPIRUN:        /cm/shared/apps/spack/cpu/opt/spack/linux-centos8-zen2/gcc-10.2.0/qchem-5.4-akfmr7b3t57bfs6qan3padb2wnb2i7cl/bin/mpi/mpirun_qchem
QCMACHINEFILE:   ./qchem3290557/hostfile
exp-1-20

#
# env setting
#
exported envs:   QC QCAUX QCSCRATCH QCRUNNAME QCFILEPREF QCPROG QCPROG_S GUIFILE

Running Job 1 of 1 Dimethoxy_Benzodithiophene_Phi_50_Theta_90_Methylcarbonyl_3_Fluoro_Thienothiophene.qcin
qchem Dimethoxy_Benzodithiophene_Phi_50_Theta_90_Methylcarbonyl_3_Fluoro_Thienothiophene.qcin_3290557.0 ./qchem3290557/ 1
/cm/shared/apps/spack/cpu/opt/spack/linux-centos8-zen2/gcc-10.2.0/qchem-5.4-akfmr7b3t57bfs6qan3padb2wnb2i7cl/bin/mpi/mpirun_qchem -machinefile ./qchem3290557/hostfile -np 1 /cm/shared/apps/spack/cpu/opt/spack/linux-centos8-zen2/gcc-10.2.0/qchem-5.4-akfmr7b3t57bfs6qan3padb2wnb2i7cl/exe/qcprog.exe Dimethoxy_Benzodithiophene_Phi_50_Theta_90_Methylcarbonyl_3_Fluoro_Thienothiophene.qcin_3290557.0 ./qchem3290557/

Process 0 of 1 is on exp-1-20 - thread support 0
initial socket setup ...start
initial socket setup ...done 
now start server 0 ... 
                  Welcome to Q-Chem
     A Quantum Leap Into The Future Of Chemistry


 Q-Chem 5.4, Q-Chem, Inc., Pleasanton, CA (2021)

 License issued to: University of California, San Diego (site)

 E. Epifanovsky,  A. T. B. Gilbert,  Xintian Feng,  Joonho Lee,  Yuezhi Mao,  
 N. Mardirossian,  P. Pokhilko,  A. White,  M. Wormit,  M. P. Coons,  
 A. L. Dempwolff,  Zhengting Gan,  D. Hait,  P. R. Horn,  L. D. Jacobson,  
 I. Kaliman,  J. Kussmann,  A. W. Lange,  Ka Un Lao,  D. S. Levine,  Jie Liu,  
 S. C. McKenzie,  A. F. Morrison,  K. Nanda,  F. Plasser,  D. R. Rehn,  
 M. L. Vidal,  Zhi-Qiang You,  Ying Zhu,  B. Alam,  B. Albrecht,  
 A. Aldossary,  E. Alguire,  J. H. Andersen,  D. Barton,  K. Begam,  A. Behn,  
 Y. A. Bernard,  E. J. Berquist,  H. Burton,  A. Carreras,  K. Carter-Fenk,  
 R. Chakraborty,  A. D. Chien,  K. D. Closser,  V. Cofer-Shabica,  
 S. Dasgupta,  Jia Deng,  M. de Wergifosse,  M. Diedenhofen,  Hainam Do,  
 S. Ehlert,  Po-Tung Fang,  S. Fatehi,  Qingguo Feng,  J. Gayvert,  
 Qinghui Ge,  G. Gidofalvi,  M. Goldey,  J. Gomes,  C. Gonzalez-Espinoza,  
 S. Gulania,  A. Gunina,  M. W. D. Hanson-Heine,  P. H. P. Harbach,  
 A. W. Hauser,  M. F. Herbst,  M. Hernandez Vera,  M. Hodecker,  
 Z. C. Holden,  S. Houck,  Xunkun Huang,  Kerwin Hui,  B. C. Huynh,  
 M. Ivanov,  Hyunjun Ji,  Hanjie Jiang,  B. Kaduk,  S. Kaehler,  
 K. Khistyaev,  Jaehoon Kim,  P. Klunzinger,  Z. Koczor-Benda,  
 Joong Hoon Koh,  D. Kosenkov,  L. Koulias,  T. Kowalczyk,  C. M. Krauter,  
 K. Kue,  A. Kunitsa,  T. Kus,  A. Landau,  K. V. Lawler,  D. Lefrancois,  
 S. Lehtola,  Rain Li,  Yi-Pei Li,  Jiashu Liang,  M. Liebenthal,  
 Hung-Hsuan Lin,  You-Sheng Lin,  Fenglai Liu,  Kuan-Yu Liu,  
 M. Loipersberger,  A. Luenser,  A. Manjanath,  P. Manohar,  E. Mansoor,  
 S. F. Manzer,  Shan-Ping Mao,  A. V. Marenich,  T. Markovich,  S. Mason,  
 S. A. Maurer,  P. F. McLaughlin,  M. F. S. J. Menger,  J.-M. Mewes,  
 S. A. Mewes,  P. Morgante,  J. W. Mullinax,  T. S. Nguyen-Beck,  
 K. J. Oosterbaan,  G. Paran,  Alexander C. Paul,  Suranjan K. Paul,  
 F. Pavosevic,  Zheng Pei,  S. Prager,  E. I. Proynov,  E. Ramos,  B. Rana,  
 A. E. Rask,  A. Rettig,  R. M. Richard,  F. Rob,  E. Rossomme,  T. Scheele,  
 M. Scheurer,  M. Schneider,  N. Sergueev,  S. M. Sharada,  W. Skomorowski,  
 D. W. Small,  C. J. Stein,  Yu-Chuan Su,  E. J. Sundstrom,  Zhen Tao,  
 J. Thirman,  T. Tsuchimochi,  N. M. Tubman,  S. P. Veccham,  O. Vydrov,  
 J. Wenzel,  J. Witte,  A. Yamada,  Kun Yao,  S. Yeganeh,  S. R. Yost,  
 A. Zech,  Igor Ying Zhang,  Xing Zhang,  Yu Zhang,  D. Zuev,  
 A. Aspuru-Guzik,  A. T. Bell,  N. A. Besley,  K. B. Bravaya,  B. R. Brooks,  
 D. Casanova,  Jeng-Da Chai,  S. Coriani,  C. J. Cramer,  
 A. E. DePrince, III,  R. A. DiStasio Jr.,  A. Dreuw,  B. D. Dunietz,  
 T. R. Furlani,  W. A. Goddard III,  S. Grimme,  S. Hammes-Schiffer,  
 T. Head-Gordon,  W. J. Hehre,  Chao-Ping Hsu,  T.-C. Jagau,  Yousung Jung,  
 A. Klamt,  Jing Kong,  D. S. Lambrecht,  WanZhen Liang,  N. J. Mayhall,  
 C. W. McCurdy,  J. B. Neaton,  C. Ochsenfeld,  J. A. Parkhill,  R. Peverati,  
 V. A. Rassolov,  Yihan Shao,  L. V. Slipchenko,  T. Stauch,  R. P. Steele,  
 J. E. Subotnik,  A. J. W. Thom,  A. Tkatchenko,  D. G. Truhlar,  
 T. Van Voorhis,  T. A. Wesolowski,  K. B. Whaley,  H. L. Woodcock III,  
 P. M. Zimmerman,  S. Faraji,  P. M. W. Gill,  M. Head-Gordon,  
 J. M. Herbert,  A. I. Krylov

 Contributors to earlier versions of Q-Chem not listed above: 
 R. D. Adamson,  B. Austin,  R. Baer,  J. Baker,  G. J. O. Beran,  
 K. Brandhorst,  S. T. Brown,  E. F. C. Byrd,  A. K. Chakraborty,  
 G. K. L. Chan,  Chun-Min Chang,  Yunqing Chen,  C.-L. Cheng,  
 Siu Hung Chien,  D. M. Chipman,  D. L. Crittenden,  H. Dachsel,  
 R. J. Doerksen,  A. D. Dutoi,  R. G. Edgar,  J. Fosso-Tande,  
 L. Fusti-Molnar,  D. Ghosh,  A. Ghysels,  A. Golubeva-Zadorozhnaya,  
 J. Gonthier,  M. S. Gordon,  S. R. Gwaltney,  G. Hawkins,  J. E. Herr,  
 A. Heyden,  S. Hirata,  E. G. Hohenstein,  G. Kedziora,  F. J. Keil,  
 C. Kelley,  Jihan Kim,  R. A. King,  R. Z. Khaliullin,  P. P. Korambath,  
 W. Kurlancheek,  A. Laurent,  A. M. Lee,  M. S. Lee,  S. V. Levchenko,  
 Ching Yeh Lin,  D. Liotard,  E. Livshits,  R. C. Lochan,  I. Lotan,  
 L. A. Martinez-Martinez,  P. E. Maslen,  N. Nair,  D. P. O'Neill,  
 D. Neuhauser,  E. Neuscamman,  C. M. Oana,  R. Olivares-Amaya,  R. Olson,  
 T. M. Perrine,  B. Peters,  P. A. Pieniazek,  A. Prociuk,  Y. M. Rhee,  
 J. Ritchie,  M. A. Rohrdanz,  E. Rosta,  N. J. Russ,  H. F. Schaefer III,  
 M. W. Schmidt,  N. E. Schultz,  S. Sharma,  N. Shenvi,  C. D. Sherrill,  
 A. C. Simmonett,  A. Sodt,  T. Stein,  D. Stuck,  K. S. Thanthiriwatte,  
 V. Vanovschi,  L. Vogt,  Tao Wang,  A. Warshel,  M. A. Watson,  
 C. F. Williams,  Q. Wu,  X. Xu,  Jun Yang,  W. Zhang,  Yan Zhao

 Please cite Q-Chem as follows:
 Y. Shao et al., Mol. Phys. 113, 184-215 (2015)
 DOI: 10.1080/00268976.2014.952696

 Q-Chem 5.4.0 for Intel X86 EM64T Linux

 Parts of Q-Chem use Armadillo 9.800.1 (Horizon Scraper).
 http://arma.sourceforge.net/

 Q-Chem begins on Mon Jan  8 19:34:48 2024  

 Host: 
0

     Scratch files written to ./qchem3290557//
 May1621 |scratch|qcdevops|jenkins|workspace|build_RNUM    
 Parallel job on  1  processors
 Processing $rem in /cm/shared/apps/spack/cpu/opt/spack/linux-centos8-zen2/gcc-10.2.0/qchem-5.4-akfmr7b3t57bfs6qan3padb2wnb2i7cl/config/preferences:
 Processing $rem in /home/rramji/.qchemrc:
 Symmetry turned off for PCM/SM12/SMD calculation
 Core orbitals will be frozen

 Checking the input file for inconsistencies... 	...done.

 Q-Chem warning in module forms1/BasisType.C, line 2236:

 You are not using the predefined 5D/6D in this basis set.


--------------------------------------------------------------
User input:
--------------------------------------------------------------
$molecule
0 1
C	-0.318247	-8.517702	-0.041330
C	0.757333	-7.641575	-0.049453
S	-1.866383	-7.638634	-0.024919
C	0.380867	-6.264785	-0.049488
H	1.805573	-7.966081	-0.055368
C	-1.045647	-6.072714	-0.051115
C	-1.608077	-4.787049	-0.026203
C	1.282948	-5.162801	-0.026637
C	0.720187	-3.874817	0.002586
C	-0.707853	-3.683952	-0.001903
O	2.602386	-5.499772	-0.054867
O	-2.933517	-4.459055	0.003348
C	-3.881999	-5.329063	-0.602384
H	-4.825744	-4.755694	-0.675079
H	-4.070972	-6.238095	0.009592
H	-3.562152	-5.637262	-1.621263
C	3.588253	-4.572261	0.381947
H	4.535674	-5.139743	0.449872
H	3.342986	-4.153131	1.381388
H	3.728239	-3.739531	-0.341040
C	-1.080725	-2.306654	0.000348
S	1.542694	-2.306501	-0.010924
C	0.000000	-1.435185	0.000000
H	-2.127635	-1.978138	0.003612
H	-0.320559	-9.614033	-0.037764
C	0.000000	0.000000	0.000000
S	0.693394	0.581209	1.507541
C	1.897536	1.592607	0.718873
C	0.693330	0.580791	-1.067872
C	1.756758	1.476132	-0.686410
S	0.508573	0.422041	-2.805516
C	1.846879	1.552232	-3.054530
C	2.387897	2.009402	-1.862551
F	3.408741	2.872264	-1.819088
C	2.191300	1.838768	-4.456084
O	1.606694	1.337806	-5.406510
O	3.221062	2.712584	-4.569225
C	3.603677	3.026817	-5.916207
H	4.442623	3.739898	-5.833064
H	2.758956	3.483875	-6.470168
H	3.921969	2.114070	-6.459293
H	2.604650	2.187790	1.306486
$end

$rem
JOBTYPE		SP
EXCHANGE	HF
CORRELATION	pRIMP2
BASIS		cc-pvtz
METHOD		rimp2
AUX_BASIS	rimp2-cc-pvtz
SOLVENT_METHOD	PCM
PURECART	11111
SYMMETRY	false
MEM_TOTAL	110000
SCF_CONVERGENCE = 6
THRESH=10
GUI = 2
$end



$solvent
dielectric 4.90
$end
--------------------------------------------------------------
 ----------------------------------------------------------------
             Standard Nuclear Orientation (Angstroms)
    I     Atom           X                Y                Z
 ----------------------------------------------------------------
    1      C      -0.3182470000    -8.5177020000    -0.0413300000
    2      C       0.7573330000    -7.6415750000    -0.0494530000
    3      S      -1.8663830000    -7.6386340000    -0.0249190000
    4      C       0.3808670000    -6.2647850000    -0.0494880000
    5      H       1.8055730000    -7.9660810000    -0.0553680000
    6      C      -1.0456470000    -6.0727140000    -0.0511150000
    7      C      -1.6080770000    -4.7870490000    -0.0262030000
    8      C       1.2829480000    -5.1628010000    -0.0266370000
    9      C       0.7201870000    -3.8748170000     0.0025860000
   10      C      -0.7078530000    -3.6839520000    -0.0019030000
   11      O       2.6023860000    -5.4997720000    -0.0548670000
   12      O      -2.9335170000    -4.4590550000     0.0033480000
   13      C      -3.8819990000    -5.3290630000    -0.6023840000
   14      H      -4.8257440000    -4.7556940000    -0.6750790000
   15      H      -4.0709720000    -6.2380950000     0.0095920000
   16      H      -3.5621520000    -5.6372620000    -1.6212630000
   17      C       3.5882530000    -4.5722610000     0.3819470000
   18      H       4.5356740000    -5.1397430000     0.4498720000
   19      H       3.3429860000    -4.1531310000     1.3813880000
   20      H       3.7282390000    -3.7395310000    -0.3410400000
   21      C      -1.0807250000    -2.3066540000     0.0003480000
   22      S       1.5426940000    -2.3065010000    -0.0109240000
   23      C       0.0000000000    -1.4351850000     0.0000000000
   24      H      -2.1276350000    -1.9781380000     0.0036120000
   25      H      -0.3205590000    -9.6140330000    -0.0377640000
   26      C       0.0000000000     0.0000000000     0.0000000000
   27      S       0.6933940000     0.5812090000     1.5075410000
   28      C       1.8975360000     1.5926070000     0.7188730000
   29      C       0.6933300000     0.5807910000    -1.0678720000
   30      C       1.7567580000     1.4761320000    -0.6864100000
   31      S       0.5085730000     0.4220410000    -2.8055160000
   32      C       1.8468790000     1.5522320000    -3.0545300000
   33      C       2.3878970000     2.0094020000    -1.8625510000
   34      F       3.4087410000     2.8722640000    -1.8190880000
   35      C       2.1913000000     1.8387680000    -4.4560840000
   36      O       1.6066940000     1.3378060000    -5.4065100000
   37      O       3.2210620000     2.7125840000    -4.5692250000
   38      C       3.6036770000     3.0268170000    -5.9162070000
   39      H       4.4426230000     3.7398980000    -5.8330640000
   40      H       2.7589560000     3.4838750000    -6.4701680000
   41      H       3.9219690000     2.1140700000    -6.4592930000
   42      H       2.6046500000     2.1877900000     1.3064860000
 ----------------------------------------------------------------
 Nuclear Repulsion Energy =        3334.01116956 hartrees
 There are      119 alpha and      119 beta electrons
 Requested basis set is cc-pVTZ
 There are 376 shells and 1068 basis functions

 Total QAlloc Memory Limit 110000 MB
 Mega-Array Size       188 MB
 MEM_STATIC part       192 MB
 Discretize the solute cavity surface with Lebedev spheres
	Using 110 Lebedev grid points for each H atom
	Using 194 Lebedev grid points for other atoms
	Atomic van der Waals radii will be scaled by 1.20
 Remove points where switching function is < 1.0e-08
 Keep 2886 surface tesserae and discard 4170 interior tesserae
 Molecular Surface Area = 439.566 Angst**2
 Requested basis set is rimp2-cc-pVTZ
 There are 833 shells and 2903 basis functions
 A cutoff of  1.0D-10 yielded  31631 shell pairs
 There are    242315 function pairs (    314521 Cartesian)
 Smallest overlap matrix eigenvalue = 2.18E-05

 Scale SEOQF with 1.000000e-01/1.000000e-02/1.000000e-02

 Standard Electronic Orientation quadrupole field applied
 Nucleus-field energy     =     0.0000000534 hartrees
 Guess from superposition of atomic densities
 Warning:  Energy on first SCF cycle will be non-variational
 SAD guess density has 238.000000 electrons

 -----------------------------------------------------------------------
  General SCF calculation program by
  Eric Jon Sundstrom, Paul Horn, Yuezhi Mao, Dmitri Zuev, Alec White,
  David Stuck, Shaama M.S., Shane Yost, Joonho Lee, David Small,
  Daniel Levine, Susi Lehtola, Hugh Burton, Evgeny Epifanovsky,
  Bang C. Huynh
 -----------------------------------------------------------------------
 Hartree-Fock
 using 64 threads for integral computing
 -------------------------------------------------------
 OpenMP Integral computing Module                
 Release: version 1.0, May 2013, Q-Chem Inc. Pittsburgh 
 -------------------------------------------------------
 A restricted SCF calculation will be
 performed using DIIS
 SCF converges when DIIS error is below 1.0e-06
 ---------------------------------------
  Cycle       Energy         DIIS error
 ---------------------------------------
    1   -2765.2756719638      1.75e-02  
    2   -2753.8356636926      1.56e-03  
    3   -2754.1745285624      8.68e-04  
    4   -2754.2575767531      2.56e-04  
    5   -2754.2693491659      6.96e-05  
    6   -2754.2704436200      2.41e-05  
    7   -2754.2706825527      1.15e-05  
    8   -2754.2707608882      4.52e-06  
    9   -2754.2707762303      1.92e-06  
   10   -2754.2707784336      9.21e-07  Convergence criterion met
 ---------------------------------------
 SCF time:   CPU 6362.71s  wall 252.00s 

************** Final PCM Free Energy Summary **************
 G_electrostatic  =      -0.01979055 hartree =     -12.41875890 kcal/mol
 G_cavitation     =       0.00000000 hartree =       0.00000000 kcal/mol
 G_dispersion     =       0.00000000 hartree =       0.00000000 kcal/mol
 G_repulsion      =       0.00000000 hartree =       0.00000000 kcal/mol
 --------------------------------------------------
 Non-electrostatic Free Energy =       0.00000000 hartree =       0.00000000 kcal/mol
 Total                         =      -0.01979055 hartree =     -12.41875890 kcal/mol
 --------------------------------------------------
 SCF Energy (H0 + V/2)                       =   -2754.27077843 
 Solute Internal Energy (H0)                 =   -2754.25098788 
 Total Free Energy (H0 + V/2 + non-elec)     =   -2754.27077843 hartree
                                             = -1728330.99916565 kcal/mol
***********************************************************

 SCF   energy in the final basis set =    -2754.2707784336
 Total energy in the final basis set =    -2754.2707784336


 --------------------------------------------------------------
  Generalized many-body perturbation theory program
  by Joonho Lee, Fazle Rob, Xintian Feng, Evgeny Epifanovsky

 No regularization used 
 (reg. param. = 0.0000e+00)
  (P|Q)^-1/2 Time:  CPU 256.64 s  wall 4.36 s

 In RI-MP2 calculation: 
 # of frozen core orbitals: 45

 Components of the RIMP2 correlation energy:
        aaaa    correlation energy =        -0.6710819972 a.u.
        abab    correlation energy =        -3.7172877150 a.u.
        bbbb    correlation energy =        -0.6710819972 a.u.
        non-Brillouin singles      =        -0.0000000000 a.u.
        total same-spin energy     =        -1.3421639945 a.u.
        total opposite-spin energy =        -3.7172877150 a.u.

 Total  RIMP2   correlation energy =        -5.0594517095 a.u.
        RIMP2         total energy =     -2759.3302301431 a.u.

 RI-MP2 Energy Time:  CPU 3964.12 s  wall 65.43 s
 
 --------------------------------------------------------------
 
                    Orbital Energies (a.u.)
 --------------------------------------------------------------
 
 Alpha MOs
 -- Occupied --
-92.0127 -92.0052 -91.9849 -91.9826 -26.3451 -20.6150 -20.5911 -20.5895
-20.5614 -11.4099 -11.3853 -11.3271 -11.3170 -11.3148 -11.3139 -11.2977
-11.2891 -11.2880 -11.2866 -11.2864 -11.2849 -11.2827 -11.2819 -11.2780
-11.2743 -11.2565 -11.2565 -11.2487 -11.2476  -9.0119  -9.0049  -8.9848
 -8.9835  -6.6925  -6.6917  -6.6914  -6.6858  -6.6851  -6.6841  -6.6658
 -6.6652  -6.6644  -6.6643  -6.6637  -6.6628  -1.6622  -1.4676  -1.4151
 -1.4123  -1.3703  -1.2288  -1.1913  -1.1641  -1.1384  -1.0835  -1.0494
 -1.0438  -1.0247  -0.9987  -0.9865  -0.9634  -0.9591  -0.9493  -0.9385
 -0.8938  -0.8699  -0.8455  -0.8126  -0.7938  -0.7861  -0.7836  -0.7637
 -0.7556  -0.7316  -0.7269  -0.7115  -0.6996  -0.6857  -0.6823  -0.6800
 -0.6742  -0.6592  -0.6578  -0.6513  -0.6289  -0.6185  -0.6164  -0.6078
 -0.5989  -0.5881  -0.5753  -0.5693  -0.5641  -0.5633  -0.5539  -0.5360
 -0.5322  -0.5312  -0.5208  -0.5154  -0.5137  -0.5099  -0.5034  -0.4935
 -0.4885  -0.4827  -0.4747  -0.4737  -0.4683  -0.4639  -0.4596  -0.4030
 -0.3948  -0.3845  -0.3538  -0.3524  -0.3091  -0.3040  -0.2571
 -- Virtual --
  0.0265   0.0647   0.0809   0.1282   0.1373   0.1447   0.1505   0.1537
  0.1564   0.1575   0.1619   0.1727   0.1829   0.1830   0.1859   0.1902
  0.2007   0.2048   0.2119   0.2148   0.2208   0.2218   0.2243   0.2282
  0.2302   0.2385   0.2415   0.2478   0.2544   0.2629   0.2684   0.2727
  0.2835   0.2995   0.3110   0.3263   0.3290   0.3364   0.3397   0.3409
  0.3484   0.3533   0.3638   0.3683   0.3774   0.3805   0.3852   0.3862
  0.3881   0.3901   0.3948   0.4003   0.4112   0.4125   0.4172   0.4206
  0.4261   0.4294   0.4353   0.4411   0.4474   0.4504   0.4524   0.4578
  0.4595   0.4631   0.4686   0.4717   0.4777   0.4811   0.4861   0.4904
  0.4945   0.4948   0.5026   0.5066   0.5101   0.5163   0.5204   0.5254
  0.5280   0.5338   0.5377   0.5385   0.5411   0.5434   0.5476   0.5501
  0.5525   0.5554   0.5586   0.5628   0.5680   0.5712   0.5744   0.5796
  0.5841   0.5920   0.5967   0.5985   0.6006   0.6078   0.6086   0.6121
  0.6137   0.6175   0.6194   0.6212   0.6238   0.6277   0.6320   0.6345
  0.6410   0.6443   0.6490   0.6495   0.6519   0.6559   0.6612   0.6662
  0.6767   0.6786   0.6821   0.6890   0.6906   0.6953   0.7003   0.7085
  0.7128   0.7148   0.7178   0.7241   0.7303   0.7370   0.7420   0.7441
  0.7518   0.7584   0.7629   0.7667   0.7734   0.7804   0.7947   0.7960
  0.8075   0.8098   0.8169   0.8199   0.8230   0.8302   0.8343   0.8405
  0.8434   0.8449   0.8550   0.8560   0.8679   0.8720   0.8756   0.8784
  0.8865   0.8965   0.9009   0.9059   0.9124   0.9149   0.9232   0.9255
  0.9306   0.9404   0.9407   0.9475   0.9525   0.9568   0.9634   0.9667
  0.9719   0.9755   0.9830   0.9851   0.9894   0.9945   0.9974   1.0057
  1.0084   1.0148   1.0201   1.0202   1.0289   1.0344   1.0384   1.0420
  1.0440   1.0480   1.0563   1.0605   1.0682   1.0702   1.0741   1.0819
  1.0844   1.0895   1.0967   1.0994   1.1049   1.1058   1.1122   1.1140
  1.1145   1.1240   1.1316   1.1338   1.1407   1.1466   1.1536   1.1554
  1.1636   1.1656   1.1759   1.1807   1.1855   1.1857   1.1911   1.1960
  1.1987   1.2040   1.2102   1.2151   1.2211   1.2234   1.2259   1.2331
  1.2345   1.2385   1.2448   1.2489   1.2534   1.2638   1.2657   1.2694
  1.2708   1.2778   1.2793   1.2866   1.2995   1.3100   1.3178   1.3192
  1.3215   1.3282   1.3333   1.3406   1.3529   1.3594   1.3663   1.3715
  1.3741   1.3866   1.3925   1.3957   1.4016   1.4076   1.4153   1.4200
  1.4256   1.4380   1.4393   1.4639   1.4688   1.4807   1.4813   1.4852
  1.4970   1.5000   1.5029   1.5075   1.5107   1.5170   1.5245   1.5336
  1.5364   1.5372   1.5406   1.5433   1.5482   1.5515   1.5612   1.5686
  1.5759   1.5793   1.5933   1.5949   1.6027   1.6121   1.6181   1.6264
  1.6377   1.6501   1.6559   1.6580   1.6588   1.6682   1.6745   1.6809
  1.6862   1.6965   1.7039   1.7060   1.7152   1.7231   1.7306   1.7444
  1.7512   1.7607   1.7659   1.7865   1.7922   1.8009   1.8044   1.8155
  1.8197   1.8268   1.8351   1.8463   1.8557   1.8627   1.8690   1.8758
  1.8841   1.8977   1.8992   1.9031   1.9091   1.9143   1.9248   1.9292
  1.9315   1.9449   1.9531   1.9608   1.9665   1.9714   1.9753   1.9854
  1.9901   1.9973   2.0086   2.0132   2.0229   2.0241   2.0502   2.0519
  2.0714   2.0763   2.0835   2.0934   2.1074   2.1169   2.1190   2.1365
  2.1515   2.1594   2.1630   2.1701   2.1720   2.1784   2.1799   2.1856
  2.1926   2.1956   2.2013   2.2213   2.2232   2.2323   2.2365   2.2437
  2.2506   2.2562   2.2592   2.2642   2.2705   2.2756   2.2892   2.2983
  2.3010   2.3099   2.3148   2.3317   2.3347   2.3405   2.3507   2.3557
  2.3683   2.3783   2.3866   2.3909   2.4050   2.4156   2.4193   2.4263
  2.4350   2.4397   2.4476   2.4526   2.4714   2.4744   2.4839   2.4885
  2.4957   2.5067   2.5086   2.5229   2.5262   2.5315   2.5409   2.5569
  2.5605   2.5645   2.5820   2.5958   2.5988   2.6131   2.6172   2.6228
  2.6280   2.6323   2.6370   2.6402   2.6415   2.6520   2.6672   2.6682
  2.6754   2.6769   2.6848   2.6969   2.7029   2.7073   2.7080   2.7146
  2.7263   2.7333   2.7400   2.7426   2.7482   2.7604   2.7705   2.7759
  2.7826   2.7848   2.7932   2.8053   2.8094   2.8119   2.8201   2.8255
  2.8283   2.8359   2.8420   2.8472   2.8533   2.8574   2.8732   2.8757
  2.8770   2.8852   2.8931   2.8986   2.9081   2.9199   2.9304   2.9406
  2.9439   2.9565   2.9583   2.9643   2.9785   2.9810   2.9864   2.9953
  3.0080   3.0124   3.0188   3.0233   3.0293   3.0339   3.0363   3.0426
  3.0478   3.0553   3.0616   3.0763   3.0832   3.0876   3.0915   3.1001
  3.1025   3.1063   3.1101   3.1150   3.1197   3.1240   3.1326   3.1413
  3.1473   3.1522   3.1581   3.1629   3.1683   3.1715   3.1795   3.1842
  3.1885   3.1954   3.2014   3.2073   3.2131   3.2177   3.2201   3.2251
  3.2333   3.2364   3.2458   3.2483   3.2528   3.2644   3.2651   3.2708
  3.2757   3.2803   3.2871   3.2900   3.2949   3.2972   3.3033   3.3050
  3.3161   3.3203   3.3251   3.3270   3.3361   3.3441   3.3465   3.3481
  3.3516   3.3565   3.3582   3.3599   3.3679   3.3699   3.3759   3.3776
  3.3891   3.3905   3.3951   3.3977   3.4016   3.4047   3.4093   3.4166
  3.4212   3.4272   3.4283   3.4418   3.4457   3.4458   3.4514   3.4566
  3.4621   3.4677   3.4695   3.4701   3.4742   3.4814   3.4906   3.4920
  3.4970   3.4989   3.5173   3.5188   3.5274   3.5313   3.5339   3.5381
  3.5394   3.5424   3.5559   3.5591   3.5645   3.5737   3.5812   3.5829
  3.5893   3.5906   3.5940   3.5995   3.6014   3.6047   3.6155   3.6205
  3.6218   3.6296   3.6346   3.6392   3.6437   3.6516   3.6551   3.6637
  3.6663   3.6743   3.6764   3.6836   3.6865   3.6952   3.6977   3.6995
  3.7056   3.7117   3.7160   3.7262   3.7311   3.7428   3.7478   3.7513
  3.7554   3.7565   3.7598   3.7669   3.7739   3.7797   3.7851   3.7928
  3.7954   3.8013   3.8042   3.8072   3.8098   3.8153   3.8229   3.8325
  3.8351   3.8430   3.8476   3.8507   3.8634   3.8694   3.8710   3.8748
  3.8759   3.8829   3.8898   3.8963   3.9060   3.9108   3.9183   3.9262
  3.9305   3.9359   3.9442   3.9537   3.9642   3.9712   3.9730   3.9863
  3.9910   3.9984   4.0061   4.0092   4.0182   4.0234   4.0257   4.0399
  4.0554   4.0567   4.0683   4.0697   4.0850   4.0895   4.0913   4.0942
  4.1000   4.1190   4.1263   4.1370   4.1383   4.1448   4.1498   4.1617
  4.1639   4.1665   4.1705   4.1755   4.1849   4.1897   4.1935   4.2028
  4.2058   4.2123   4.2257   4.2357   4.2403   4.2468   4.2526   4.2659
  4.2799   4.2984   4.3082   4.3127   4.3296   4.3314   4.3361   4.3418
  4.3566   4.3582   4.3622   4.3656   4.3724   4.3857   4.3898   4.4006
  4.4054   4.4107   4.4144   4.4221   4.4278   4.4314   4.4393   4.4470
  4.4551   4.4706   4.4740   4.4843   4.4919   4.5053   4.5093   4.5226
  4.5290   4.5431   4.5496   4.5577   4.5640   4.5765   4.5823   4.5907
  4.6056   4.6088   4.6190   4.6249   4.6336   4.6439   4.6510   4.6530
  4.6674   4.6765   4.6818   4.6881   4.6938   4.7193   4.7310   4.7409
  4.7509   4.7556   4.7633   4.7744   4.7839   4.7876   4.7919   4.8156
  4.8318   4.8338   4.8472   4.8543   4.8658   4.8791   4.9047   4.9227
  4.9306   4.9477   4.9511   4.9611   4.9698   4.9774   4.9879   4.9932
  5.0072   5.0088   5.0187   5.0278   5.0444   5.0524   5.0593   5.0819
  5.0857   5.0940   5.1178   5.1259   5.1619   5.1701   5.1757   5.1959
  5.2095   5.2203   5.2425   5.2449   5.2504   5.2542   5.2573   5.2819
  5.2968   5.3086   5.3152   5.3280   5.3345   5.3507   5.3570   5.3604
  5.3770   5.3978   5.3986   5.4023   5.4151   5.4260   5.4367   5.4650
  5.4681   5.4848   5.4976   5.5078   5.5134   5.5209   5.5352   5.5607
  5.5779   5.5808   5.5856   5.6065   5.6215   5.6283   5.6385   5.6605
  5.7142   5.7235   5.7475   5.7593   5.8073   5.8153   5.8381   5.8553
  5.8726   5.8811   5.9010   5.9290   5.9514   5.9694   5.9918   6.0244
  6.0414   6.0712   6.0963   6.1321   6.1503   6.1719   6.1776   6.1820
  6.2269   6.2414   6.2537   6.2612   6.2729   6.2794   6.2991   6.3281
  6.4106   6.4439   6.4499   6.4746   6.5373   6.5499   6.5573   6.5971
  6.6547   6.6606   6.6710   6.6934   6.7442   6.8000   6.8290   6.8375
  6.8593   6.8939   6.9778   7.1215   7.1362   7.2036   7.2039   7.2171
  7.2355   7.3097   7.3212   7.3312   7.3615   7.3620   7.4044   7.4131
  7.4804   7.4839   7.4891   7.5171   7.5494   7.6142   7.7098   7.7713
  7.7885   7.7975   7.8908   7.9189   7.9459   7.9631   8.0904   8.1331
  8.3701   8.9203   9.0249   9.3613   9.4799   9.6632  10.1728  10.5720
 11.2199  11.4632  11.7744  12.0180  12.1310  12.1644  12.4255  12.5622
 12.6844  12.9194  13.0000  13.2669  13.3854  13.4505  13.7764  13.8477
 13.9025  14.0095  14.0367  14.3735  15.2004
 --------------------------------------------------------------
 
          Ground-State Mulliken Net Atomic Charges

     Atom                 Charge (a.u.)
  ----------------------------------------
      1 C                    -0.191531
      2 C                    -0.254432
      3 S                    -0.024709
      4 C                    -0.016886
      5 H                     0.195859
      6 C                    -0.028546
      7 C                     0.241097
      8 C                     0.240994
      9 C                    -0.041119
     10 C                    -0.020217
     11 O                    -0.333653
     12 O                    -0.339774
     13 C                    -0.085729
     14 H                     0.122094
     15 H                     0.090417
     16 H                     0.093728
     17 C                    -0.086446
     18 H                     0.124742
     19 H                     0.093528
     20 H                     0.089537
     21 C                    -0.229911
     22 S                    -0.022400
     23 C                    -0.070655
     24 H                     0.195911
     25 H                     0.205715
     26 C                    -0.086915
     27 S                     0.122792
     28 C                    -0.141715
     29 C                     0.010111
     30 C                    -0.093677
     31 S                     0.047555
     32 C                    -0.151858
     33 C                     0.393111
     34 F                    -0.204974
     35 C                     0.448365
     36 O                    -0.461902
     37 O                    -0.301212
     38 C                    -0.058229
     39 H                     0.121322
     40 H                     0.095214
     41 H                     0.095242
     42 H                     0.219156
  ----------------------------------------
  Sum of atomic charges =     0.000000

 -----------------------------------------------------------------
                    Cartesian Multipole Moments
 -----------------------------------------------------------------
    Charge (ESU x 10^10)
                 0.0000
    Dipole Moment (Debye)
         X       3.0842      Y       1.3750      Z       2.4719
       Tot       4.1848
    Quadrupole Moments (Debye-Ang)
        XX    -168.6323     XY       8.8471     YY    -172.7389
        XZ       0.2197     YZ      -3.2976     ZZ    -203.6325
    Octopole Moments (Debye-Ang^2)
       XXX    -350.3573    XXY     357.5948    XYY    -112.9254
       YYY    1039.2284    XXZ     135.4326    XYZ     -59.1249
       YYZ     143.3083    XZZ     -53.4890    YZZ     504.0079
       ZZZ     563.2840
    Hexadecapole Moments (Debye-Ang^3)
      XXXX   -4275.2397   XXXY   -1295.6643   XXYY   -3743.4132
      XYYY   -1291.5777   YYYY  -17658.4458   XXXZ    1070.8633
      XXYZ     217.4217   XYYZ     413.2753   YYYZ     915.5972
      XXZZ   -1322.0540   XYZZ    -169.1910   YYZZ   -4241.2935
      XZZZ     726.3056   YZZZ     597.0637   ZZZZ   -5425.5904
 -----------------------------------------------------------------
 Total job time:  372.75s(wall), 13346.45s(cpu) 
 Mon Jan  8 19:41:01 2024

        *************************************************************
        *                                                           *
        *  Thank you very much for using Q-Chem.  Have a nice day.  *
        *                                                           *
        *************************************************************


0 sent ACK to 0 
now end server 0 ... 
cleanup process ... done
remove work dirs ./qchem3290557.0 -- ./qchem3290557.0
rm -rf ./qchem3290557.0
rm -rf ./qchem3290557
