You are running Q-Chem version: 5.4.0

#
# job setting
#
local host:  exp-1-18
current dir: /home/rramji/project-csd799/aromodel/ptb7fout-qchem/rotation-run
input file:  Dimethoxy_Benzodithiophene_Phi_40_Theta_90_Methylcarbonyl_3_Fluoro_Thienothiophene.qcin
output file: 
nprocs     : 1
nthreads   : 64
#
# qchem installation setting
#
QC:          /cm/shared/apps/spack/cpu/opt/spack/linux-centos8-zen2/gcc-10.2.0/qchem-5.4-akfmr7b3t57bfs6qan3padb2wnb2i7cl
QCAUX:       /cm/shared/apps/spack/cpu/opt/spack/linux-centos8-zen2/gcc-10.2.0/qchem-5.4-akfmr7b3t57bfs6qan3padb2wnb2i7cl/qcaux
QCPROG:      /cm/shared/apps/spack/cpu/opt/spack/linux-centos8-zen2/gcc-10.2.0/qchem-5.4-akfmr7b3t57bfs6qan3padb2wnb2i7cl/exe/qcprog.exe
QCPROG_S:    /cm/shared/apps/spack/cpu/opt/spack/linux-centos8-zen2/gcc-10.2.0/qchem-5.4-akfmr7b3t57bfs6qan3padb2wnb2i7cl/exe/qcprog.exe_s
PARALLEL:    -DPARALLEL
QCMPI:       mpich
#
# qchem directory setting
#
qcrun:       qchem1910509
QCSCRATCH:   .
QCLOCALSCR:  
QCTMPDIR:    .
QCFILEPREF:  ./qchem1910509
QCSAVEDIR:   
workdirs:    ./qchem1910509
workdir0:    ./qchem1910509
partmpdirs =  
#
# parallel setting
#
QCRSH:           ssh
QCMPI:           mpich
QCMPIRUN:        /cm/shared/apps/spack/cpu/opt/spack/linux-centos8-zen2/gcc-10.2.0/qchem-5.4-akfmr7b3t57bfs6qan3padb2wnb2i7cl/bin/mpi/mpirun_qchem
QCMACHINEFILE:   ./qchem1910509/hostfile
exp-1-18

#
# env setting
#
exported envs:   QC QCAUX QCSCRATCH QCRUNNAME QCFILEPREF QCPROG QCPROG_S GUIFILE

Running Job 1 of 1 Dimethoxy_Benzodithiophene_Phi_40_Theta_90_Methylcarbonyl_3_Fluoro_Thienothiophene.qcin
qchem Dimethoxy_Benzodithiophene_Phi_40_Theta_90_Methylcarbonyl_3_Fluoro_Thienothiophene.qcin_1910509.0 ./qchem1910509/ 1
/cm/shared/apps/spack/cpu/opt/spack/linux-centos8-zen2/gcc-10.2.0/qchem-5.4-akfmr7b3t57bfs6qan3padb2wnb2i7cl/bin/mpi/mpirun_qchem -machinefile ./qchem1910509/hostfile -np 1 /cm/shared/apps/spack/cpu/opt/spack/linux-centos8-zen2/gcc-10.2.0/qchem-5.4-akfmr7b3t57bfs6qan3padb2wnb2i7cl/exe/qcprog.exe Dimethoxy_Benzodithiophene_Phi_40_Theta_90_Methylcarbonyl_3_Fluoro_Thienothiophene.qcin_1910509.0 ./qchem1910509/

Process 0 of 1 is on exp-1-18 - thread support 0
initial socket setup ...start
initial socket setup ...done 
now start server 0 ... 
                  Welcome to Q-Chem
     A Quantum Leap Into The Future Of Chemistry


 Q-Chem 5.4, Q-Chem, Inc., Pleasanton, CA (2021)

 License issued to: University of California, San Diego (site)

 E. Epifanovsky,  A. T. B. Gilbert,  Xintian Feng,  Joonho Lee,  Yuezhi Mao,  
 N. Mardirossian,  P. Pokhilko,  A. White,  M. Wormit,  M. P. Coons,  
 A. L. Dempwolff,  Zhengting Gan,  D. Hait,  P. R. Horn,  L. D. Jacobson,  
 I. Kaliman,  J. Kussmann,  A. W. Lange,  Ka Un Lao,  D. S. Levine,  Jie Liu,  
 S. C. McKenzie,  A. F. Morrison,  K. Nanda,  F. Plasser,  D. R. Rehn,  
 M. L. Vidal,  Zhi-Qiang You,  Ying Zhu,  B. Alam,  B. Albrecht,  
 A. Aldossary,  E. Alguire,  J. H. Andersen,  D. Barton,  K. Begam,  A. Behn,  
 Y. A. Bernard,  E. J. Berquist,  H. Burton,  A. Carreras,  K. Carter-Fenk,  
 R. Chakraborty,  A. D. Chien,  K. D. Closser,  V. Cofer-Shabica,  
 S. Dasgupta,  Jia Deng,  M. de Wergifosse,  M. Diedenhofen,  Hainam Do,  
 S. Ehlert,  Po-Tung Fang,  S. Fatehi,  Qingguo Feng,  J. Gayvert,  
 Qinghui Ge,  G. Gidofalvi,  M. Goldey,  J. Gomes,  C. Gonzalez-Espinoza,  
 S. Gulania,  A. Gunina,  M. W. D. Hanson-Heine,  P. H. P. Harbach,  
 A. W. Hauser,  M. F. Herbst,  M. Hernandez Vera,  M. Hodecker,  
 Z. C. Holden,  S. Houck,  Xunkun Huang,  Kerwin Hui,  B. C. Huynh,  
 M. Ivanov,  Hyunjun Ji,  Hanjie Jiang,  B. Kaduk,  S. Kaehler,  
 K. Khistyaev,  Jaehoon Kim,  P. Klunzinger,  Z. Koczor-Benda,  
 Joong Hoon Koh,  D. Kosenkov,  L. Koulias,  T. Kowalczyk,  C. M. Krauter,  
 K. Kue,  A. Kunitsa,  T. Kus,  A. Landau,  K. V. Lawler,  D. Lefrancois,  
 S. Lehtola,  Rain Li,  Yi-Pei Li,  Jiashu Liang,  M. Liebenthal,  
 Hung-Hsuan Lin,  You-Sheng Lin,  Fenglai Liu,  Kuan-Yu Liu,  
 M. Loipersberger,  A. Luenser,  A. Manjanath,  P. Manohar,  E. Mansoor,  
 S. F. Manzer,  Shan-Ping Mao,  A. V. Marenich,  T. Markovich,  S. Mason,  
 S. A. Maurer,  P. F. McLaughlin,  M. F. S. J. Menger,  J.-M. Mewes,  
 S. A. Mewes,  P. Morgante,  J. W. Mullinax,  T. S. Nguyen-Beck,  
 K. J. Oosterbaan,  G. Paran,  Alexander C. Paul,  Suranjan K. Paul,  
 F. Pavosevic,  Zheng Pei,  S. Prager,  E. I. Proynov,  E. Ramos,  B. Rana,  
 A. E. Rask,  A. Rettig,  R. M. Richard,  F. Rob,  E. Rossomme,  T. Scheele,  
 M. Scheurer,  M. Schneider,  N. Sergueev,  S. M. Sharada,  W. Skomorowski,  
 D. W. Small,  C. J. Stein,  Yu-Chuan Su,  E. J. Sundstrom,  Zhen Tao,  
 J. Thirman,  T. Tsuchimochi,  N. M. Tubman,  S. P. Veccham,  O. Vydrov,  
 J. Wenzel,  J. Witte,  A. Yamada,  Kun Yao,  S. Yeganeh,  S. R. Yost,  
 A. Zech,  Igor Ying Zhang,  Xing Zhang,  Yu Zhang,  D. Zuev,  
 A. Aspuru-Guzik,  A. T. Bell,  N. A. Besley,  K. B. Bravaya,  B. R. Brooks,  
 D. Casanova,  Jeng-Da Chai,  S. Coriani,  C. J. Cramer,  
 A. E. DePrince, III,  R. A. DiStasio Jr.,  A. Dreuw,  B. D. Dunietz,  
 T. R. Furlani,  W. A. Goddard III,  S. Grimme,  S. Hammes-Schiffer,  
 T. Head-Gordon,  W. J. Hehre,  Chao-Ping Hsu,  T.-C. Jagau,  Yousung Jung,  
 A. Klamt,  Jing Kong,  D. S. Lambrecht,  WanZhen Liang,  N. J. Mayhall,  
 C. W. McCurdy,  J. B. Neaton,  C. Ochsenfeld,  J. A. Parkhill,  R. Peverati,  
 V. A. Rassolov,  Yihan Shao,  L. V. Slipchenko,  T. Stauch,  R. P. Steele,  
 J. E. Subotnik,  A. J. W. Thom,  A. Tkatchenko,  D. G. Truhlar,  
 T. Van Voorhis,  T. A. Wesolowski,  K. B. Whaley,  H. L. Woodcock III,  
 P. M. Zimmerman,  S. Faraji,  P. M. W. Gill,  M. Head-Gordon,  
 J. M. Herbert,  A. I. Krylov

 Contributors to earlier versions of Q-Chem not listed above: 
 R. D. Adamson,  B. Austin,  R. Baer,  J. Baker,  G. J. O. Beran,  
 K. Brandhorst,  S. T. Brown,  E. F. C. Byrd,  A. K. Chakraborty,  
 G. K. L. Chan,  Chun-Min Chang,  Yunqing Chen,  C.-L. Cheng,  
 Siu Hung Chien,  D. M. Chipman,  D. L. Crittenden,  H. Dachsel,  
 R. J. Doerksen,  A. D. Dutoi,  R. G. Edgar,  J. Fosso-Tande,  
 L. Fusti-Molnar,  D. Ghosh,  A. Ghysels,  A. Golubeva-Zadorozhnaya,  
 J. Gonthier,  M. S. Gordon,  S. R. Gwaltney,  G. Hawkins,  J. E. Herr,  
 A. Heyden,  S. Hirata,  E. G. Hohenstein,  G. Kedziora,  F. J. Keil,  
 C. Kelley,  Jihan Kim,  R. A. King,  R. Z. Khaliullin,  P. P. Korambath,  
 W. Kurlancheek,  A. Laurent,  A. M. Lee,  M. S. Lee,  S. V. Levchenko,  
 Ching Yeh Lin,  D. Liotard,  E. Livshits,  R. C. Lochan,  I. Lotan,  
 L. A. Martinez-Martinez,  P. E. Maslen,  N. Nair,  D. P. O'Neill,  
 D. Neuhauser,  E. Neuscamman,  C. M. Oana,  R. Olivares-Amaya,  R. Olson,  
 T. M. Perrine,  B. Peters,  P. A. Pieniazek,  A. Prociuk,  Y. M. Rhee,  
 J. Ritchie,  M. A. Rohrdanz,  E. Rosta,  N. J. Russ,  H. F. Schaefer III,  
 M. W. Schmidt,  N. E. Schultz,  S. Sharma,  N. Shenvi,  C. D. Sherrill,  
 A. C. Simmonett,  A. Sodt,  T. Stein,  D. Stuck,  K. S. Thanthiriwatte,  
 V. Vanovschi,  L. Vogt,  Tao Wang,  A. Warshel,  M. A. Watson,  
 C. F. Williams,  Q. Wu,  X. Xu,  Jun Yang,  W. Zhang,  Yan Zhao

 Please cite Q-Chem as follows:
 Y. Shao et al., Mol. Phys. 113, 184-215 (2015)
 DOI: 10.1080/00268976.2014.952696

 Q-Chem 5.4.0 for Intel X86 EM64T Linux

 Parts of Q-Chem use Armadillo 9.800.1 (Horizon Scraper).
 http://arma.sourceforge.net/

 Q-Chem begins on Mon Jan  8 19:33:26 2024  

 Host: 
0

     Scratch files written to ./qchem1910509//
 May1621 |scratch|qcdevops|jenkins|workspace|build_RNUM    
 Parallel job on  1  processors
 Processing $rem in /cm/shared/apps/spack/cpu/opt/spack/linux-centos8-zen2/gcc-10.2.0/qchem-5.4-akfmr7b3t57bfs6qan3padb2wnb2i7cl/config/preferences:
 Processing $rem in /home/rramji/.qchemrc:
 Symmetry turned off for PCM/SM12/SMD calculation
 Core orbitals will be frozen

 Checking the input file for inconsistencies... 	...done.

 Q-Chem warning in module forms1/BasisType.C, line 2236:

 You are not using the predefined 5D/6D in this basis set.


--------------------------------------------------------------
User input:
--------------------------------------------------------------
$molecule
0 1
C	-0.318247	-8.517702	-0.041330
C	0.757333	-7.641575	-0.049453
S	-1.866383	-7.638634	-0.024919
C	0.380867	-6.264785	-0.049488
H	1.805573	-7.966081	-0.055368
C	-1.045647	-6.072714	-0.051115
C	-1.608077	-4.787049	-0.026203
C	1.282948	-5.162801	-0.026637
C	0.720187	-3.874817	0.002586
C	-0.707853	-3.683952	-0.001903
O	2.602386	-5.499772	-0.054867
O	-2.933517	-4.459055	0.003348
C	-3.881999	-5.329063	-0.602384
H	-4.825744	-4.755694	-0.675079
H	-4.070972	-6.238095	0.009592
H	-3.562152	-5.637262	-1.621263
C	3.588253	-4.572261	0.381947
H	4.535674	-5.139743	0.449872
H	3.342986	-4.153131	1.381388
H	3.728239	-3.739531	-0.341040
C	-1.080725	-2.306654	0.000348
S	1.542694	-2.306501	-0.010924
C	-0.000000	-1.435185	-0.000000
H	-2.127635	-1.978138	0.003612
H	-0.320559	-9.614033	-0.037764
C	0.000000	0.000000	0.000000
S	0.581934	0.692785	1.507541
C	1.592155	1.897915	0.718873
C	0.581944	0.692363	-1.067872
C	1.473741	1.758764	-0.686410
S	0.427560	0.503942	-2.805516
C	1.549278	1.849357	-3.054530
C	2.002690	2.393529	-1.862551
F	2.858191	3.420549	-1.819088
C	1.838710	2.191348	-4.456084
O	1.349977	1.596481	-5.406510
O	2.701091	3.230705	-4.569225
C	3.023327	3.606605	-5.916207
H	3.725703	4.454534	-5.833064
H	2.112072	3.910035	-6.470168
H	3.495281	2.762996	-6.459293
H	2.185174	2.606846	1.306486
$end

$rem
JOBTYPE		SP
EXCHANGE	HF
CORRELATION	pRIMP2
BASIS		cc-pvtz
METHOD		rimp2
AUX_BASIS	rimp2-cc-pvtz
SOLVENT_METHOD	PCM
PURECART	11111
SYMMETRY	false
MEM_TOTAL	110000
SCF_CONVERGENCE = 6
THRESH=10
GUI = 2
$end



$solvent
dielectric 4.90
$end
--------------------------------------------------------------
 ----------------------------------------------------------------
             Standard Nuclear Orientation (Angstroms)
    I     Atom           X                Y                Z
 ----------------------------------------------------------------
    1      C      -0.3182470000    -8.5177020000    -0.0413300000
    2      C       0.7573330000    -7.6415750000    -0.0494530000
    3      S      -1.8663830000    -7.6386340000    -0.0249190000
    4      C       0.3808670000    -6.2647850000    -0.0494880000
    5      H       1.8055730000    -7.9660810000    -0.0553680000
    6      C      -1.0456470000    -6.0727140000    -0.0511150000
    7      C      -1.6080770000    -4.7870490000    -0.0262030000
    8      C       1.2829480000    -5.1628010000    -0.0266370000
    9      C       0.7201870000    -3.8748170000     0.0025860000
   10      C      -0.7078530000    -3.6839520000    -0.0019030000
   11      O       2.6023860000    -5.4997720000    -0.0548670000
   12      O      -2.9335170000    -4.4590550000     0.0033480000
   13      C      -3.8819990000    -5.3290630000    -0.6023840000
   14      H      -4.8257440000    -4.7556940000    -0.6750790000
   15      H      -4.0709720000    -6.2380950000     0.0095920000
   16      H      -3.5621520000    -5.6372620000    -1.6212630000
   17      C       3.5882530000    -4.5722610000     0.3819470000
   18      H       4.5356740000    -5.1397430000     0.4498720000
   19      H       3.3429860000    -4.1531310000     1.3813880000
   20      H       3.7282390000    -3.7395310000    -0.3410400000
   21      C      -1.0807250000    -2.3066540000     0.0003480000
   22      S       1.5426940000    -2.3065010000    -0.0109240000
   23      C       0.0000000000    -1.4351850000     0.0000000000
   24      H      -2.1276350000    -1.9781380000     0.0036120000
   25      H      -0.3205590000    -9.6140330000    -0.0377640000
   26      C       0.0000000000     0.0000000000     0.0000000000
   27      S       0.5819340000     0.6927850000     1.5075410000
   28      C       1.5921550000     1.8979150000     0.7188730000
   29      C       0.5819440000     0.6923630000    -1.0678720000
   30      C       1.4737410000     1.7587640000    -0.6864100000
   31      S       0.4275600000     0.5039420000    -2.8055160000
   32      C       1.5492780000     1.8493570000    -3.0545300000
   33      C       2.0026900000     2.3935290000    -1.8625510000
   34      F       2.8581910000     3.4205490000    -1.8190880000
   35      C       1.8387100000     2.1913480000    -4.4560840000
   36      O       1.3499770000     1.5964810000    -5.4065100000
   37      O       2.7010910000     3.2307050000    -4.5692250000
   38      C       3.0233270000     3.6066050000    -5.9162070000
   39      H       3.7257030000     4.4545340000    -5.8330640000
   40      H       2.1120720000     3.9100350000    -6.4701680000
   41      H       3.4952810000     2.7629960000    -6.4592930000
   42      H       2.1851740000     2.6068460000     1.3064860000
 ----------------------------------------------------------------
 Nuclear Repulsion Energy =        3311.08075022 hartrees
 There are      119 alpha and      119 beta electrons
 Requested basis set is cc-pVTZ
 There are 376 shells and 1068 basis functions

 Total QAlloc Memory Limit 110000 MB
 Mega-Array Size       188 MB
 MEM_STATIC part       192 MB
 Discretize the solute cavity surface with Lebedev spheres
	Using 110 Lebedev grid points for each H atom
	Using 194 Lebedev grid points for other atoms
	Atomic van der Waals radii will be scaled by 1.20
 Remove points where switching function is < 1.0e-08
 Keep 2888 surface tesserae and discard 4168 interior tesserae
 Molecular Surface Area = 441.488 Angst**2
 Requested basis set is rimp2-cc-pVTZ
 There are 833 shells and 2903 basis functions
 A cutoff of  1.0D-10 yielded  31274 shell pairs
 There are    239796 function pairs (    311398 Cartesian)
 Smallest overlap matrix eigenvalue = 2.20E-05

 Scale SEOQF with 1.000000e-01/1.000000e-02/1.000000e-02

 Standard Electronic Orientation quadrupole field applied
 Nucleus-field energy     =     0.0000000494 hartrees
 Guess from superposition of atomic densities
 Warning:  Energy on first SCF cycle will be non-variational
 SAD guess density has 238.000000 electrons

 -----------------------------------------------------------------------
  General SCF calculation program by
  Eric Jon Sundstrom, Paul Horn, Yuezhi Mao, Dmitri Zuev, Alec White,
  David Stuck, Shaama M.S., Shane Yost, Joonho Lee, David Small,
  Daniel Levine, Susi Lehtola, Hugh Burton, Evgeny Epifanovsky,
  Bang C. Huynh
 -----------------------------------------------------------------------
 Hartree-Fock
 using 64 threads for integral computing
 -------------------------------------------------------
 OpenMP Integral computing Module                
 Release: version 1.0, May 2013, Q-Chem Inc. Pittsburgh 
 -------------------------------------------------------
 A restricted SCF calculation will be
 performed using DIIS
 SCF converges when DIIS error is below 1.0e-06
 ---------------------------------------
  Cycle       Energy         DIIS error
 ---------------------------------------
    1   -2765.2422987563      1.75e-02  
    2   -2753.8541252389      1.56e-03  
    3   -2754.1922335833      8.63e-04  
    4   -2754.2740238654      2.56e-04  
    5   -2754.2857082436      6.95e-05  
    6   -2754.2867939642      2.39e-05  
    7   -2754.2870305150      1.14e-05  
    8   -2754.2871078144      4.42e-06  
    9   -2754.2871227178      1.82e-06  
   10   -2754.2871247062      8.62e-07  Convergence criterion met
 ---------------------------------------
 SCF time:   CPU 6377.91s  wall 244.00s 

************** Final PCM Free Energy Summary **************
 G_electrostatic  =      -0.01931786 hartree =     -12.12214250 kcal/mol
 G_cavitation     =       0.00000000 hartree =       0.00000000 kcal/mol
 G_dispersion     =       0.00000000 hartree =       0.00000000 kcal/mol
 G_repulsion      =       0.00000000 hartree =       0.00000000 kcal/mol
 --------------------------------------------------
 Non-electrostatic Free Energy =       0.00000000 hartree =       0.00000000 kcal/mol
 Total                         =      -0.01931786 hartree =     -12.12214250 kcal/mol
 --------------------------------------------------
 SCF Energy (H0 + V/2)                       =   -2754.28712471 
 Solute Internal Energy (H0)                 =   -2754.26780684 
 Total Free Energy (H0 + V/2 + non-elec)     =   -2754.28712471 hartree
                                             = -1728341.25660652 kcal/mol
***********************************************************

 SCF   energy in the final basis set =    -2754.2871247062
 Total energy in the final basis set =    -2754.2871247062


 --------------------------------------------------------------
  Generalized many-body perturbation theory program
  by Joonho Lee, Fazle Rob, Xintian Feng, Evgeny Epifanovsky

 No regularization used 
 (reg. param. = 0.0000e+00)
  (P|Q)^-1/2 Time:  CPU 261.78 s  wall 4.95 s

 In RI-MP2 calculation: 
 # of frozen core orbitals: 45

 Components of the RIMP2 correlation energy:
        aaaa    correlation energy =        -0.6702713795 a.u.
        abab    correlation energy =        -3.7152655784 a.u.
        bbbb    correlation energy =        -0.6702713795 a.u.
        non-Brillouin singles      =        -0.0000000000 a.u.
        total same-spin energy     =        -1.3405427591 a.u.
        total opposite-spin energy =        -3.7152655784 a.u.

 Total  RIMP2   correlation energy =        -5.0558083374 a.u.
        RIMP2         total energy =     -2759.3429330437 a.u.

 RI-MP2 Energy Time:  CPU 3414.56 s  wall 59.18 s
 
 --------------------------------------------------------------
 
                    Orbital Energies (a.u.)
 --------------------------------------------------------------
 
 Alpha MOs
 -- Occupied --
-92.0131 -92.0019 -91.9855 -91.9851 -26.3441 -20.6147 -20.5915 -20.5903
-20.5610 -11.4093 -11.3837 -11.3203 -11.3177 -11.3162 -11.3086 -11.2971
-11.2888 -11.2886 -11.2866 -11.2854 -11.2852 -11.2839 -11.2826 -11.2823
-11.2789 -11.2577 -11.2576 -11.2512 -11.2492  -9.0120  -9.0017  -8.9857
 -8.9854  -6.6926  -6.6919  -6.6915  -6.6827  -6.6820  -6.6809  -6.6667
 -6.6664  -6.6660  -6.6658  -6.6650  -6.6649  -1.6612  -1.4672  -1.4156
 -1.4131  -1.3698  -1.2250  -1.1923  -1.1642  -1.1371  -1.0834  -1.0503
 -1.0426  -1.0234  -0.9998  -0.9866  -0.9625  -0.9597  -0.9497  -0.9384
 -0.8946  -0.8685  -0.8474  -0.8113  -0.7931  -0.7870  -0.7847  -0.7641
 -0.7553  -0.7324  -0.7260  -0.7104  -0.6999  -0.6852  -0.6820  -0.6806
 -0.6739  -0.6584  -0.6580  -0.6518  -0.6292  -0.6191  -0.6167  -0.6065
 -0.5985  -0.5871  -0.5760  -0.5687  -0.5647  -0.5624  -0.5545  -0.5400
 -0.5330  -0.5309  -0.5218  -0.5150  -0.5144  -0.5096  -0.5035  -0.4938
 -0.4889  -0.4814  -0.4743  -0.4735  -0.4679  -0.4657  -0.4605  -0.4035
 -0.3959  -0.3854  -0.3548  -0.3512  -0.3100  -0.3028  -0.2580
 -- Virtual --
  0.0303   0.0639   0.0870   0.1273   0.1374   0.1438   0.1509   0.1546
  0.1562   0.1580   0.1616   0.1719   0.1826   0.1830   0.1868   0.1899
  0.1996   0.2046   0.2134   0.2150   0.2206   0.2217   0.2242   0.2283
  0.2308   0.2384   0.2411   0.2479   0.2546   0.2634   0.2702   0.2731
  0.2834   0.3014   0.3159   0.3279   0.3296   0.3363   0.3407   0.3423
  0.3491   0.3531   0.3657   0.3705   0.3792   0.3808   0.3852   0.3867
  0.3879   0.3913   0.3967   0.4014   0.4102   0.4128   0.4179   0.4218
  0.4238   0.4273   0.4354   0.4410   0.4468   0.4504   0.4537   0.4581
  0.4593   0.4631   0.4674   0.4705   0.4772   0.4816   0.4850   0.4881
  0.4928   0.4959   0.5023   0.5068   0.5105   0.5159   0.5198   0.5246
  0.5263   0.5326   0.5362   0.5372   0.5421   0.5432   0.5480   0.5493
  0.5525   0.5559   0.5571   0.5624   0.5674   0.5708   0.5731   0.5830
  0.5847   0.5900   0.5972   0.5984   0.6023   0.6042   0.6093   0.6112
  0.6134   0.6184   0.6217   0.6217   0.6242   0.6268   0.6314   0.6345
  0.6380   0.6437   0.6489   0.6493   0.6519   0.6554   0.6575   0.6643
  0.6766   0.6794   0.6823   0.6851   0.6898   0.6958   0.6996   0.7089
  0.7114   0.7152   0.7216   0.7231   0.7262   0.7323   0.7429   0.7436
  0.7453   0.7570   0.7620   0.7655   0.7726   0.7789   0.7951   0.7990
  0.8056   0.8093   0.8161   0.8180   0.8226   0.8286   0.8351   0.8420
  0.8442   0.8472   0.8556   0.8587   0.8668   0.8719   0.8772   0.8788
  0.8848   0.8945   0.8982   0.9055   0.9114   0.9128   0.9221   0.9236
  0.9316   0.9378   0.9400   0.9453   0.9491   0.9546   0.9577   0.9671
  0.9709   0.9747   0.9831   0.9850   0.9893   0.9947   0.9964   1.0068
  1.0084   1.0138   1.0186   1.0211   1.0249   1.0312   1.0372   1.0410
  1.0455   1.0493   1.0523   1.0601   1.0624   1.0710   1.0727   1.0813
  1.0836   1.0886   1.0953   1.0978   1.1022   1.1041   1.1096   1.1113
  1.1161   1.1211   1.1271   1.1326   1.1405   1.1426   1.1527   1.1560
  1.1633   1.1670   1.1777   1.1781   1.1842   1.1848   1.1917   1.1967
  1.2005   1.2045   1.2098   1.2143   1.2197   1.2210   1.2234   1.2308
  1.2313   1.2357   1.2424   1.2439   1.2546   1.2637   1.2639   1.2670
  1.2707   1.2759   1.2781   1.2857   1.2998   1.3083   1.3161   1.3193
  1.3221   1.3270   1.3321   1.3374   1.3509   1.3601   1.3656   1.3695
  1.3725   1.3863   1.3918   1.3961   1.4028   1.4088   1.4145   1.4194
  1.4264   1.4374   1.4392   1.4664   1.4684   1.4775   1.4841   1.4852
  1.4981   1.5002   1.5022   1.5071   1.5113   1.5172   1.5242   1.5323
  1.5370   1.5393   1.5407   1.5442   1.5476   1.5504   1.5659   1.5720
  1.5746   1.5789   1.5902   1.5965   1.5981   1.6042   1.6198   1.6252
  1.6346   1.6488   1.6544   1.6574   1.6590   1.6659   1.6701   1.6803
  1.6825   1.6955   1.6998   1.7067   1.7087   1.7223   1.7302   1.7470
  1.7551   1.7652   1.7690   1.7841   1.7917   1.8023   1.8135   1.8158
  1.8207   1.8277   1.8305   1.8492   1.8542   1.8642   1.8684   1.8773
  1.8883   1.8909   1.9024   1.9047   1.9063   1.9165   1.9233   1.9325
  1.9335   1.9461   1.9508   1.9613   1.9663   1.9697   1.9784   1.9823
  1.9921   1.9971   2.0061   2.0111   2.0171   2.0263   2.0484   2.0540
  2.0651   2.0750   2.0837   2.0944   2.1008   2.1118   2.1197   2.1344
  2.1511   2.1597   2.1621   2.1717   2.1782   2.1804   2.1815   2.1883
  2.1927   2.2003   2.2019   2.2175   2.2267   2.2311   2.2374   2.2434
  2.2471   2.2544   2.2590   2.2630   2.2711   2.2744   2.2897   2.2944
  2.3034   2.3093   2.3144   2.3277   2.3331   2.3423   2.3540   2.3552
  2.3687   2.3725   2.3854   2.3912   2.4044   2.4168   2.4203   2.4258
  2.4349   2.4402   2.4451   2.4522   2.4682   2.4744   2.4851   2.4940
  2.4972   2.5073   2.5136   2.5264   2.5307   2.5376   2.5435   2.5562
  2.5613   2.5657   2.5826   2.5875   2.6000   2.6117   2.6160   2.6186
  2.6275   2.6295   2.6347   2.6369   2.6421   2.6536   2.6571   2.6689
  2.6744   2.6795   2.6835   2.6981   2.7021   2.7049   2.7101   2.7130
  2.7245   2.7326   2.7385   2.7416   2.7448   2.7605   2.7678   2.7790
  2.7813   2.7857   2.7895   2.8032   2.8088   2.8089   2.8180   2.8229
  2.8314   2.8391   2.8426   2.8463   2.8510   2.8514   2.8709   2.8771
  2.8789   2.8803   2.8858   2.8944   2.9032   2.9134   2.9261   2.9356
  2.9408   2.9522   2.9588   2.9597   2.9676   2.9787   2.9861   2.9912
  3.0023   3.0108   3.0187   3.0236   3.0254   3.0312   3.0331   3.0384
  3.0463   3.0555   3.0629   3.0755   3.0798   3.0879   3.0944   3.0992
  3.1030   3.1056   3.1105   3.1165   3.1175   3.1247   3.1359   3.1408
  3.1489   3.1523   3.1576   3.1604   3.1657   3.1684   3.1789   3.1834
  3.1904   3.1966   3.1984   3.2083   3.2123   3.2192   3.2239   3.2256
  3.2320   3.2372   3.2439   3.2492   3.2518   3.2559   3.2662   3.2720
  3.2745   3.2775   3.2859   3.2877   3.2924   3.2974   3.3014   3.3080
  3.3145   3.3159   3.3250   3.3259   3.3367   3.3417   3.3436   3.3461
  3.3526   3.3554   3.3574   3.3604   3.3650   3.3679   3.3747   3.3766
  3.3884   3.3915   3.3935   3.3971   3.3997   3.4064   3.4120   3.4190
  3.4224   3.4264   3.4302   3.4373   3.4454   3.4503   3.4509   3.4559
  3.4630   3.4674   3.4694   3.4717   3.4722   3.4810   3.4875   3.4917
  3.4963   3.4982   3.5152   3.5182   3.5260   3.5276   3.5303   3.5341
  3.5373   3.5421   3.5560   3.5602   3.5642   3.5765   3.5797   3.5834
  3.5849   3.5878   3.5941   3.5994   3.5996   3.6032   3.6133   3.6196
  3.6221   3.6300   3.6354   3.6403   3.6468   3.6531   3.6545   3.6621
  3.6674   3.6720   3.6784   3.6828   3.6864   3.6949   3.7038   3.7052
  3.7056   3.7081   3.7199   3.7265   3.7311   3.7397   3.7452   3.7494
  3.7540   3.7587   3.7615   3.7647   3.7732   3.7784   3.7807   3.7929
  3.7973   3.8013   3.8030   3.8047   3.8108   3.8134   3.8212   3.8272
  3.8312   3.8376   3.8423   3.8476   3.8612   3.8654   3.8708   3.8719
  3.8750   3.8802   3.8880   3.8929   3.9019   3.9078   3.9119   3.9170
  3.9273   3.9315   3.9435   3.9507   3.9545   3.9606   3.9727   3.9835
  3.9855   3.9886   4.0002   4.0081   4.0147   4.0208   4.0247   4.0371
  4.0530   4.0567   4.0664   4.0683   4.0810   4.0865   4.0911   4.0954
  4.1020   4.1192   4.1293   4.1321   4.1381   4.1438   4.1487   4.1616
  4.1645   4.1669   4.1698   4.1716   4.1810   4.1884   4.1894   4.2024
  4.2046   4.2151   4.2237   4.2316   4.2396   4.2464   4.2520   4.2639
  4.2774   4.2911   4.3041   4.3103   4.3217   4.3283   4.3332   4.3419
  4.3520   4.3581   4.3595   4.3660   4.3740   4.3857   4.3903   4.3950
  4.4037   4.4093   4.4130   4.4213   4.4284   4.4310   4.4389   4.4449
  4.4523   4.4691   4.4713   4.4841   4.4931   4.5046   4.5051   4.5216
  4.5308   4.5448   4.5472   4.5567   4.5668   4.5743   4.5813   4.5866
  4.6029   4.6082   4.6179   4.6241   4.6340   4.6459   4.6494   4.6527
  4.6659   4.6769   4.6821   4.6864   4.6920   4.7201   4.7305   4.7379
  4.7505   4.7556   4.7630   4.7694   4.7813   4.7874   4.7905   4.8181
  4.8310   4.8391   4.8468   4.8530   4.8658   4.8768   4.9101   4.9230
  4.9263   4.9481   4.9497   4.9574   4.9688   4.9697   4.9896   4.9955
  5.0062   5.0090   5.0173   5.0202   5.0433   5.0468   5.0581   5.0792
  5.0817   5.0945   5.1186   5.1224   5.1606   5.1688   5.1764   5.1942
  5.2035   5.2176   5.2445   5.2472   5.2513   5.2554   5.2580   5.2841
  5.2959   5.3095   5.3149   5.3296   5.3391   5.3510   5.3562   5.3622
  5.3747   5.3974   5.4005   5.4077   5.4233   5.4262   5.4478   5.4644
  5.4685   5.4850   5.4990   5.5081   5.5128   5.5197   5.5357   5.5601
  5.5772   5.5807   5.5851   5.6062   5.6218   5.6283   5.6388   5.6617
  5.7128   5.7237   5.7507   5.7639   5.8076   5.8151   5.8375   5.8551
  5.8713   5.8808   5.9016   5.9288   5.9293   5.9701   5.9880   6.0264
  6.0418   6.0695   6.0910   6.1370   6.1505   6.1715   6.1770   6.1827
  6.2250   6.2426   6.2589   6.2615   6.2768   6.2776   6.2950   6.3252
  6.4077   6.4428   6.4502   6.4737   6.5383   6.5490   6.5564   6.5993
  6.6535   6.6609   6.6714   6.6919   6.7447   6.7992   6.8294   6.8365
  6.8597   6.8931   6.9781   7.1204   7.1356   7.2040   7.2044   7.2165
  7.2345   7.3101   7.3204   7.3307   7.3625   7.3627   7.4052   7.4134
  7.4797   7.4849   7.4881   7.5191   7.5497   7.6146   7.7076   7.7723
  7.7886   7.7969   7.8902   7.9182   7.9444   7.9609   8.0876   8.1336
  8.3654   8.9212   9.0221   9.3622   9.4781   9.6610  10.1600  10.5736
 11.1983  11.4748  11.7703  11.9754  12.1294  12.1502  12.4164  12.5614
 12.6847  12.9093  12.9970  13.2610  13.3338  13.3859  13.7705  13.8472
 13.9016  14.0095  14.0339  14.3794  15.1964
 --------------------------------------------------------------
 
          Ground-State Mulliken Net Atomic Charges

     Atom                 Charge (a.u.)
  ----------------------------------------
      1 C                    -0.189802
      2 C                    -0.254671
      3 S                    -0.023770
      4 C                    -0.014984
      5 H                     0.196108
      6 C                    -0.028644
      7 C                     0.241025
      8 C                     0.240466
      9 C                    -0.041295
     10 C                    -0.021838
     11 O                    -0.333527
     12 O                    -0.339692
     13 C                    -0.085734
     14 H                     0.122334
     15 H                     0.090595
     16 H                     0.094013
     17 C                    -0.086484
     18 H                     0.124798
     19 H                     0.093772
     20 H                     0.089869
     21 C                    -0.220519
     22 S                    -0.010078
     23 C                    -0.079179
     24 H                     0.197201
     25 H                     0.206037
     26 C                    -0.039961
     27 S                     0.116238
     28 C                    -0.162061
     29 C                    -0.021266
     30 C                    -0.080798
     31 S                     0.032843
     32 C                    -0.152510
     33 C                     0.390982
     34 F                    -0.205652
     35 C                     0.447654
     36 O                    -0.461723
     37 O                    -0.301129
     38 C                    -0.058325
     39 H                     0.121256
     40 H                     0.095165
     41 H                     0.095108
     42 H                     0.218177
  ----------------------------------------
  Sum of atomic charges =     0.000000

 -----------------------------------------------------------------
                    Cartesian Multipole Moments
 -----------------------------------------------------------------
    Charge (ESU x 10^10)
                 0.0000
    Dipole Moment (Debye)
         X       2.3234      Y       1.2222      Z       2.5934
       Tot       3.6902
    Quadrupole Moments (Debye-Ang)
        XX    -171.6530     XY       8.5932     YY    -168.1860
        XZ       1.0852     YZ      -4.1488     ZZ    -204.3732
    Octopole Moments (Debye-Ang^2)
       XXX    -294.8272    XXY     328.4295    XYY     -87.7554
       YYY     966.0207    XXZ     146.1974    XYZ     -59.3566
       YYZ     132.2831    XZZ     -42.7522    YZZ     491.7112
       ZZZ     565.5810
    Hexadecapole Moments (Debye-Ang^3)
      XXXX   -3714.0677   XXXY   -1320.3944   XXYY   -3736.7468
      XYYY   -1262.8768   YYYY  -18113.9165   XXXZ     935.7191
      XXYZ     304.2548   XYYZ     326.7849   YYYZ    1051.7172
      XXZZ   -1330.0805   XYZZ    -169.8439   YYZZ   -4234.3579
      XZZZ     599.0623   YZZZ     729.2432   ZZZZ   -5436.1723
 -----------------------------------------------------------------
 Total job time:  309.77s(wall), 9957.49s(cpu) 
 Mon Jan  8 19:38:35 2024

        *************************************************************
        *                                                           *
        *  Thank you very much for using Q-Chem.  Have a nice day.  *
        *                                                           *
        *************************************************************


0 sent ACK to 0 
now end server 0 ... 
cleanup process ... done
remove work dirs ./qchem1910509.0 -- ./qchem1910509.0
rm -rf ./qchem1910509.0
rm -rf ./qchem1910509
