You are running Q-Chem version: 5.4.0

#
# job setting
#
local host:  exp-9-41
current dir: /home/rramji/project-csd799/aromodel/ptb7fout-qchem/rotation-run
input file:  Dimethoxy_Benzodithiophene_Phi_25_Theta_80_Methylcarbonyl_3_Fluoro_Thienothiophene.qcin
output file: 
nprocs     : 1
nthreads   : 64
#
# qchem installation setting
#
QC:          /cm/shared/apps/spack/cpu/opt/spack/linux-centos8-zen2/gcc-10.2.0/qchem-5.4-akfmr7b3t57bfs6qan3padb2wnb2i7cl
QCAUX:       /cm/shared/apps/spack/cpu/opt/spack/linux-centos8-zen2/gcc-10.2.0/qchem-5.4-akfmr7b3t57bfs6qan3padb2wnb2i7cl/qcaux
QCPROG:      /cm/shared/apps/spack/cpu/opt/spack/linux-centos8-zen2/gcc-10.2.0/qchem-5.4-akfmr7b3t57bfs6qan3padb2wnb2i7cl/exe/qcprog.exe
QCPROG_S:    /cm/shared/apps/spack/cpu/opt/spack/linux-centos8-zen2/gcc-10.2.0/qchem-5.4-akfmr7b3t57bfs6qan3padb2wnb2i7cl/exe/qcprog.exe_s
PARALLEL:    -DPARALLEL
QCMPI:       mpich
#
# qchem directory setting
#
qcrun:       qchem2714871
QCSCRATCH:   .
QCLOCALSCR:  
QCTMPDIR:    .
QCFILEPREF:  ./qchem2714871
QCSAVEDIR:   
workdirs:    ./qchem2714871
workdir0:    ./qchem2714871
partmpdirs =  
#
# parallel setting
#
QCRSH:           ssh
QCMPI:           mpich
QCMPIRUN:        /cm/shared/apps/spack/cpu/opt/spack/linux-centos8-zen2/gcc-10.2.0/qchem-5.4-akfmr7b3t57bfs6qan3padb2wnb2i7cl/bin/mpi/mpirun_qchem
QCMACHINEFILE:   ./qchem2714871/hostfile
exp-9-41

#
# env setting
#
exported envs:   QC QCAUX QCSCRATCH QCRUNNAME QCFILEPREF QCPROG QCPROG_S GUIFILE

Running Job 1 of 1 Dimethoxy_Benzodithiophene_Phi_25_Theta_80_Methylcarbonyl_3_Fluoro_Thienothiophene.qcin
qchem Dimethoxy_Benzodithiophene_Phi_25_Theta_80_Methylcarbonyl_3_Fluoro_Thienothiophene.qcin_2714871.0 ./qchem2714871/ 1
/cm/shared/apps/spack/cpu/opt/spack/linux-centos8-zen2/gcc-10.2.0/qchem-5.4-akfmr7b3t57bfs6qan3padb2wnb2i7cl/bin/mpi/mpirun_qchem -machinefile ./qchem2714871/hostfile -np 1 /cm/shared/apps/spack/cpu/opt/spack/linux-centos8-zen2/gcc-10.2.0/qchem-5.4-akfmr7b3t57bfs6qan3padb2wnb2i7cl/exe/qcprog.exe Dimethoxy_Benzodithiophene_Phi_25_Theta_80_Methylcarbonyl_3_Fluoro_Thienothiophene.qcin_2714871.0 ./qchem2714871/

Process 0 of 1 is on exp-9-41 - thread support 0
initial socket setup ...start
initial socket setup ...done 
now start server 0 ... 
                  Welcome to Q-Chem
     A Quantum Leap Into The Future Of Chemistry


 Q-Chem 5.4, Q-Chem, Inc., Pleasanton, CA (2021)

 License issued to: University of California, San Diego (site)

 E. Epifanovsky,  A. T. B. Gilbert,  Xintian Feng,  Joonho Lee,  Yuezhi Mao,  
 N. Mardirossian,  P. Pokhilko,  A. White,  M. Wormit,  M. P. Coons,  
 A. L. Dempwolff,  Zhengting Gan,  D. Hait,  P. R. Horn,  L. D. Jacobson,  
 I. Kaliman,  J. Kussmann,  A. W. Lange,  Ka Un Lao,  D. S. Levine,  Jie Liu,  
 S. C. McKenzie,  A. F. Morrison,  K. Nanda,  F. Plasser,  D. R. Rehn,  
 M. L. Vidal,  Zhi-Qiang You,  Ying Zhu,  B. Alam,  B. Albrecht,  
 A. Aldossary,  E. Alguire,  J. H. Andersen,  D. Barton,  K. Begam,  A. Behn,  
 Y. A. Bernard,  E. J. Berquist,  H. Burton,  A. Carreras,  K. Carter-Fenk,  
 R. Chakraborty,  A. D. Chien,  K. D. Closser,  V. Cofer-Shabica,  
 S. Dasgupta,  Jia Deng,  M. de Wergifosse,  M. Diedenhofen,  Hainam Do,  
 S. Ehlert,  Po-Tung Fang,  S. Fatehi,  Qingguo Feng,  J. Gayvert,  
 Qinghui Ge,  G. Gidofalvi,  M. Goldey,  J. Gomes,  C. Gonzalez-Espinoza,  
 S. Gulania,  A. Gunina,  M. W. D. Hanson-Heine,  P. H. P. Harbach,  
 A. W. Hauser,  M. F. Herbst,  M. Hernandez Vera,  M. Hodecker,  
 Z. C. Holden,  S. Houck,  Xunkun Huang,  Kerwin Hui,  B. C. Huynh,  
 M. Ivanov,  Hyunjun Ji,  Hanjie Jiang,  B. Kaduk,  S. Kaehler,  
 K. Khistyaev,  Jaehoon Kim,  P. Klunzinger,  Z. Koczor-Benda,  
 Joong Hoon Koh,  D. Kosenkov,  L. Koulias,  T. Kowalczyk,  C. M. Krauter,  
 K. Kue,  A. Kunitsa,  T. Kus,  A. Landau,  K. V. Lawler,  D. Lefrancois,  
 S. Lehtola,  Rain Li,  Yi-Pei Li,  Jiashu Liang,  M. Liebenthal,  
 Hung-Hsuan Lin,  You-Sheng Lin,  Fenglai Liu,  Kuan-Yu Liu,  
 M. Loipersberger,  A. Luenser,  A. Manjanath,  P. Manohar,  E. Mansoor,  
 S. F. Manzer,  Shan-Ping Mao,  A. V. Marenich,  T. Markovich,  S. Mason,  
 S. A. Maurer,  P. F. McLaughlin,  M. F. S. J. Menger,  J.-M. Mewes,  
 S. A. Mewes,  P. Morgante,  J. W. Mullinax,  T. S. Nguyen-Beck,  
 K. J. Oosterbaan,  G. Paran,  Alexander C. Paul,  Suranjan K. Paul,  
 F. Pavosevic,  Zheng Pei,  S. Prager,  E. I. Proynov,  E. Ramos,  B. Rana,  
 A. E. Rask,  A. Rettig,  R. M. Richard,  F. Rob,  E. Rossomme,  T. Scheele,  
 M. Scheurer,  M. Schneider,  N. Sergueev,  S. M. Sharada,  W. Skomorowski,  
 D. W. Small,  C. J. Stein,  Yu-Chuan Su,  E. J. Sundstrom,  Zhen Tao,  
 J. Thirman,  T. Tsuchimochi,  N. M. Tubman,  S. P. Veccham,  O. Vydrov,  
 J. Wenzel,  J. Witte,  A. Yamada,  Kun Yao,  S. Yeganeh,  S. R. Yost,  
 A. Zech,  Igor Ying Zhang,  Xing Zhang,  Yu Zhang,  D. Zuev,  
 A. Aspuru-Guzik,  A. T. Bell,  N. A. Besley,  K. B. Bravaya,  B. R. Brooks,  
 D. Casanova,  Jeng-Da Chai,  S. Coriani,  C. J. Cramer,  
 A. E. DePrince, III,  R. A. DiStasio Jr.,  A. Dreuw,  B. D. Dunietz,  
 T. R. Furlani,  W. A. Goddard III,  S. Grimme,  S. Hammes-Schiffer,  
 T. Head-Gordon,  W. J. Hehre,  Chao-Ping Hsu,  T.-C. Jagau,  Yousung Jung,  
 A. Klamt,  Jing Kong,  D. S. Lambrecht,  WanZhen Liang,  N. J. Mayhall,  
 C. W. McCurdy,  J. B. Neaton,  C. Ochsenfeld,  J. A. Parkhill,  R. Peverati,  
 V. A. Rassolov,  Yihan Shao,  L. V. Slipchenko,  T. Stauch,  R. P. Steele,  
 J. E. Subotnik,  A. J. W. Thom,  A. Tkatchenko,  D. G. Truhlar,  
 T. Van Voorhis,  T. A. Wesolowski,  K. B. Whaley,  H. L. Woodcock III,  
 P. M. Zimmerman,  S. Faraji,  P. M. W. Gill,  M. Head-Gordon,  
 J. M. Herbert,  A. I. Krylov

 Contributors to earlier versions of Q-Chem not listed above: 
 R. D. Adamson,  B. Austin,  R. Baer,  J. Baker,  G. J. O. Beran,  
 K. Brandhorst,  S. T. Brown,  E. F. C. Byrd,  A. K. Chakraborty,  
 G. K. L. Chan,  Chun-Min Chang,  Yunqing Chen,  C.-L. Cheng,  
 Siu Hung Chien,  D. M. Chipman,  D. L. Crittenden,  H. Dachsel,  
 R. J. Doerksen,  A. D. Dutoi,  R. G. Edgar,  J. Fosso-Tande,  
 L. Fusti-Molnar,  D. Ghosh,  A. Ghysels,  A. Golubeva-Zadorozhnaya,  
 J. Gonthier,  M. S. Gordon,  S. R. Gwaltney,  G. Hawkins,  J. E. Herr,  
 A. Heyden,  S. Hirata,  E. G. Hohenstein,  G. Kedziora,  F. J. Keil,  
 C. Kelley,  Jihan Kim,  R. A. King,  R. Z. Khaliullin,  P. P. Korambath,  
 W. Kurlancheek,  A. Laurent,  A. M. Lee,  M. S. Lee,  S. V. Levchenko,  
 Ching Yeh Lin,  D. Liotard,  E. Livshits,  R. C. Lochan,  I. Lotan,  
 L. A. Martinez-Martinez,  P. E. Maslen,  N. Nair,  D. P. O'Neill,  
 D. Neuhauser,  E. Neuscamman,  C. M. Oana,  R. Olivares-Amaya,  R. Olson,  
 T. M. Perrine,  B. Peters,  P. A. Pieniazek,  A. Prociuk,  Y. M. Rhee,  
 J. Ritchie,  M. A. Rohrdanz,  E. Rosta,  N. J. Russ,  H. F. Schaefer III,  
 M. W. Schmidt,  N. E. Schultz,  S. Sharma,  N. Shenvi,  C. D. Sherrill,  
 A. C. Simmonett,  A. Sodt,  T. Stein,  D. Stuck,  K. S. Thanthiriwatte,  
 V. Vanovschi,  L. Vogt,  Tao Wang,  A. Warshel,  M. A. Watson,  
 C. F. Williams,  Q. Wu,  X. Xu,  Jun Yang,  W. Zhang,  Yan Zhao

 Please cite Q-Chem as follows:
 Y. Shao et al., Mol. Phys. 113, 184-215 (2015)
 DOI: 10.1080/00268976.2014.952696

 Q-Chem 5.4.0 for Intel X86 EM64T Linux

 Parts of Q-Chem use Armadillo 9.800.1 (Horizon Scraper).
 http://arma.sourceforge.net/

 Q-Chem begins on Mon Jan  8 19:28:54 2024  

 Host: 
0

     Scratch files written to ./qchem2714871//
 May1621 |scratch|qcdevops|jenkins|workspace|build_RNUM    
 Parallel job on  1  processors
 Processing $rem in /cm/shared/apps/spack/cpu/opt/spack/linux-centos8-zen2/gcc-10.2.0/qchem-5.4-akfmr7b3t57bfs6qan3padb2wnb2i7cl/config/preferences:
 Processing $rem in /home/rramji/.qchemrc:
 Symmetry turned off for PCM/SM12/SMD calculation
 Core orbitals will be frozen

 Checking the input file for inconsistencies... 	...done.

 Q-Chem warning in module forms1/BasisType.C, line 2236:

 You are not using the predefined 5D/6D in this basis set.


--------------------------------------------------------------
User input:
--------------------------------------------------------------
$molecule
0 1
C	-0.320589	-8.517702	0.014560
C	0.737240	-7.641575	-0.180211
S	-1.842356	-7.638634	0.299553
C	0.366488	-6.264785	-0.114873
H	1.768528	-7.966081	-0.368061
C	-1.038637	-6.072714	0.131236
C	-1.588197	-4.787049	0.253435
C	1.258831	-5.162801	-0.249014
C	0.709695	-3.874817	-0.122513
C	-0.697430	-3.683952	0.121043
O	2.553323	-5.499772	-0.505933
O	-2.888369	-4.459055	0.512697
C	-3.927625	-5.329063	0.080869
H	-4.869656	-4.755694	0.173159
H	-4.007459	-6.238095	0.716363
H	-3.789565	-5.637262	-0.978072
C	3.600064	-4.572261	-0.246949
H	4.544887	-5.139743	-0.344574
H	3.532074	-4.153131	0.779898
H	3.612378	-3.739531	-0.983261
C	-1.064246	-2.306654	0.188009
S	1.517360	-2.306501	-0.278644
C	-0.000000	-1.435185	-0.000000
H	-2.094685	-1.978138	0.373017
H	-0.322246	-9.614033	0.018474
C	0.000000	0.000000	0.000000
S	0.382799	0.819795	1.507541
C	1.046687	2.245325	0.718873
C	0.382918	0.819389	-1.067872
C	0.968323	2.080267	-0.686410
S	0.282561	0.597432	-2.805516
C	1.017839	2.187324	-3.054530
C	1.314960	2.830306	-1.862551
F	1.875498	4.043751	-1.819088
C	1.208895	2.592573	-4.456084
O	0.890778	1.891482	-5.406510
O	1.772886	3.819715	-4.569225
C	1.986852	4.266207	-5.916207
H	2.445834	5.267032	-5.833064
H	1.028114	4.323448	-6.470168
H	2.661066	3.573494	-6.459293
H	1.436015	3.083584	1.306486
$end

$rem
JOBTYPE		SP
EXCHANGE	HF
CORRELATION	pRIMP2
BASIS		cc-pvtz
METHOD		rimp2
AUX_BASIS	rimp2-cc-pvtz
SOLVENT_METHOD	PCM
PURECART	11111
SYMMETRY	false
MEM_TOTAL	110000
SCF_CONVERGENCE = 6
THRESH=10
GUI = 2
$end



$solvent
dielectric 4.90
$end
--------------------------------------------------------------
 ----------------------------------------------------------------
             Standard Nuclear Orientation (Angstroms)
    I     Atom           X                Y                Z
 ----------------------------------------------------------------
    1      C      -0.3205890000    -8.5177020000     0.0145600000
    2      C       0.7372400000    -7.6415750000    -0.1802110000
    3      S      -1.8423560000    -7.6386340000     0.2995530000
    4      C       0.3664880000    -6.2647850000    -0.1148730000
    5      H       1.7685280000    -7.9660810000    -0.3680610000
    6      C      -1.0386370000    -6.0727140000     0.1312360000
    7      C      -1.5881970000    -4.7870490000     0.2534350000
    8      C       1.2588310000    -5.1628010000    -0.2490140000
    9      C       0.7096950000    -3.8748170000    -0.1225130000
   10      C      -0.6974300000    -3.6839520000     0.1210430000
   11      O       2.5533230000    -5.4997720000    -0.5059330000
   12      O      -2.8883690000    -4.4590550000     0.5126970000
   13      C      -3.9276250000    -5.3290630000     0.0808690000
   14      H      -4.8696560000    -4.7556940000     0.1731590000
   15      H      -4.0074590000    -6.2380950000     0.7163630000
   16      H      -3.7895650000    -5.6372620000    -0.9780720000
   17      C       3.6000640000    -4.5722610000    -0.2469490000
   18      H       4.5448870000    -5.1397430000    -0.3445740000
   19      H       3.5320740000    -4.1531310000     0.7798980000
   20      H       3.6123780000    -3.7395310000    -0.9832610000
   21      C      -1.0642460000    -2.3066540000     0.1880090000
   22      S       1.5173600000    -2.3065010000    -0.2786440000
   23      C       0.0000000000    -1.4351850000     0.0000000000
   24      H      -2.0946850000    -1.9781380000     0.3730170000
   25      H      -0.3222460000    -9.6140330000     0.0184740000
   26      C       0.0000000000     0.0000000000     0.0000000000
   27      S       0.3827990000     0.8197950000     1.5075410000
   28      C       1.0466870000     2.2453250000     0.7188730000
   29      C       0.3829180000     0.8193890000    -1.0678720000
   30      C       0.9683230000     2.0802670000    -0.6864100000
   31      S       0.2825610000     0.5974320000    -2.8055160000
   32      C       1.0178390000     2.1873240000    -3.0545300000
   33      C       1.3149600000     2.8303060000    -1.8625510000
   34      F       1.8754980000     4.0437510000    -1.8190880000
   35      C       1.2088950000     2.5925730000    -4.4560840000
   36      O       0.8907780000     1.8914820000    -5.4065100000
   37      O       1.7728860000     3.8197150000    -4.5692250000
   38      C       1.9868520000     4.2662070000    -5.9162070000
   39      H       2.4458340000     5.2670320000    -5.8330640000
   40      H       1.0281140000     4.3234480000    -6.4701680000
   41      H       2.6610660000     3.5734940000    -6.4592930000
   42      H       1.4360150000     3.0835840000     1.3064860000
 ----------------------------------------------------------------
 Nuclear Repulsion Energy =        3287.87563069 hartrees
 There are      119 alpha and      119 beta electrons
 Requested basis set is cc-pVTZ
 There are 376 shells and 1068 basis functions

 Total QAlloc Memory Limit 110000 MB
 Mega-Array Size       188 MB
 MEM_STATIC part       192 MB
 Discretize the solute cavity surface with Lebedev spheres
	Using 110 Lebedev grid points for each H atom
	Using 194 Lebedev grid points for other atoms
	Atomic van der Waals radii will be scaled by 1.20
 Remove points where switching function is < 1.0e-08
 Keep 2905 surface tesserae and discard 4151 interior tesserae
 Molecular Surface Area = 443.791 Angst**2
 Requested basis set is rimp2-cc-pVTZ
 There are 833 shells and 2903 basis functions
 A cutoff of  1.0D-10 yielded  30903 shell pairs
 There are    237333 function pairs (    308254 Cartesian)
 Smallest overlap matrix eigenvalue = 2.21E-05

 Scale SEOQF with 1.000000e-01/1.000000e-02/1.000000e-02

 Standard Electronic Orientation quadrupole field applied
 Nucleus-field energy     =     0.0000000439 hartrees
 Guess from superposition of atomic densities
 Warning:  Energy on first SCF cycle will be non-variational
 SAD guess density has 238.000000 electrons

 -----------------------------------------------------------------------
  General SCF calculation program by
  Eric Jon Sundstrom, Paul Horn, Yuezhi Mao, Dmitri Zuev, Alec White,
  David Stuck, Shaama M.S., Shane Yost, Joonho Lee, David Small,
  Daniel Levine, Susi Lehtola, Hugh Burton, Evgeny Epifanovsky,
  Bang C. Huynh
 -----------------------------------------------------------------------
 Hartree-Fock
 using 64 threads for integral computing
 -------------------------------------------------------
 OpenMP Integral computing Module                
 Release: version 1.0, May 2013, Q-Chem Inc. Pittsburgh 
 -------------------------------------------------------
 A restricted SCF calculation will be
 performed using DIIS
 SCF converges when DIIS error is below 1.0e-06
 ---------------------------------------
  Cycle       Energy         DIIS error
 ---------------------------------------
    1   -2765.2135841780      1.75e-02  
    2   -2753.8726893195      1.56e-03  
    3   -2754.2102438025      8.60e-04  
    4   -2754.2912391227      2.56e-04  
    5   -2754.3028629004      6.94e-05  
    6   -2754.3039446258      2.37e-05  
    7   -2754.3041806946      1.14e-05  
    8   -2754.3042578936      4.32e-06  
    9   -2754.3042726213      1.70e-06  
   10   -2754.3042744313      7.57e-07  Convergence criterion met
 ---------------------------------------
 SCF time:   CPU 6404.70s  wall 238.00s 

************** Final PCM Free Energy Summary **************
 G_electrostatic  =      -0.01891174 hartree =     -11.86729351 kcal/mol
 G_cavitation     =       0.00000000 hartree =       0.00000000 kcal/mol
 G_dispersion     =       0.00000000 hartree =       0.00000000 kcal/mol
 G_repulsion      =       0.00000000 hartree =       0.00000000 kcal/mol
 --------------------------------------------------
 Non-electrostatic Free Energy =       0.00000000 hartree =       0.00000000 kcal/mol
 Total                         =      -0.01891174 hartree =     -11.86729351 kcal/mol
 --------------------------------------------------
 SCF Energy (H0 + V/2)                       =   -2754.30427443 
 Solute Internal Energy (H0)                 =   -2754.28536270 
 Total Free Energy (H0 + V/2 + non-elec)     =   -2754.30427443 hartree
                                             = -1728352.01822145 kcal/mol
***********************************************************

 SCF   energy in the final basis set =    -2754.3042744313
 Total energy in the final basis set =    -2754.3042744313


 --------------------------------------------------------------
  Generalized many-body perturbation theory program
  by Joonho Lee, Fazle Rob, Xintian Feng, Evgeny Epifanovsky

 No regularization used 
 (reg. param. = 0.0000e+00)
  (P|Q)^-1/2 Time:  CPU 290.93 s  wall 5.39 s

 In RI-MP2 calculation: 
 # of frozen core orbitals: 45

 Components of the RIMP2 correlation energy:
        aaaa    correlation energy =        -0.6694824143 a.u.
        abab    correlation energy =        -3.7129204075 a.u.
        bbbb    correlation energy =        -0.6694824143 a.u.
        non-Brillouin singles      =        -0.0000000000 a.u.
        total same-spin energy     =        -1.3389648285 a.u.
        total opposite-spin energy =        -3.7129204075 a.u.

 Total  RIMP2   correlation energy =        -5.0518852360 a.u.
        RIMP2         total energy =     -2759.3561596674 a.u.

 RI-MP2 Energy Time:  CPU 3948.14 s  wall 65.37 s
 
 --------------------------------------------------------------
 
                    Orbital Energies (a.u.)
 --------------------------------------------------------------
 
 Alpha MOs
 -- Occupied --
-92.0140 -91.9985 -91.9877 -91.9862 -26.3431 -20.6143 -20.5920 -20.5913
-20.5606 -11.4088 -11.3822 -11.3186 -11.3178 -11.3128 -11.3027 -11.2966
-11.2914 -11.2899 -11.2886 -11.2867 -11.2860 -11.2854 -11.2840 -11.2835
-11.2798 -11.2593 -11.2589 -11.2555 -11.2498  -9.0125  -8.9984  -8.9881
 -8.9861  -6.6932  -6.6925  -6.6921  -6.6794  -6.6787  -6.6776  -6.6690
 -6.6683  -6.6674  -6.6671  -6.6664  -6.6656  -1.6602  -1.4668  -1.4161
 -1.4141  -1.3694  -1.2216  -1.1936  -1.1647  -1.1356  -1.0839  -1.0514
 -1.0411  -1.0222  -1.0010  -0.9871  -0.9621  -0.9597  -0.9501  -0.9385
 -0.8954  -0.8672  -0.8498  -0.8107  -0.7922  -0.7879  -0.7858  -0.7647
 -0.7549  -0.7333  -0.7250  -0.7094  -0.7000  -0.6847  -0.6827  -0.6804
 -0.6735  -0.6588  -0.6573  -0.6524  -0.6299  -0.6198  -0.6170  -0.6054
 -0.5975  -0.5856  -0.5770  -0.5686  -0.5655  -0.5610  -0.5553  -0.5462
 -0.5330  -0.5306  -0.5231  -0.5156  -0.5146  -0.5089  -0.5039  -0.4948
 -0.4893  -0.4800  -0.4745  -0.4731  -0.4686  -0.4663  -0.4608  -0.4042
 -0.3983  -0.3859  -0.3559  -0.3496  -0.3148  -0.2979  -0.2588
 -- Virtual --
  0.0344   0.0609   0.0988   0.1257   0.1359   0.1447   0.1513   0.1554
  0.1561   0.1591   0.1610   0.1712   0.1812   0.1826   0.1882   0.1901
  0.2008   0.2043   0.2150   0.2161   0.2203   0.2215   0.2241   0.2284
  0.2315   0.2380   0.2415   0.2476   0.2546   0.2646   0.2709   0.2761
  0.2826   0.3016   0.3219   0.3294   0.3324   0.3351   0.3420   0.3440
  0.3492   0.3526   0.3681   0.3749   0.3800   0.3840   0.3851   0.3875
  0.3887   0.3946   0.3981   0.4018   0.4098   0.4110   0.4189   0.4219
  0.4234   0.4277   0.4365   0.4407   0.4451   0.4505   0.4560   0.4589
  0.4608   0.4631   0.4661   0.4706   0.4738   0.4790   0.4840   0.4880
  0.4902   0.4976   0.5016   0.5090   0.5122   0.5156   0.5193   0.5224
  0.5275   0.5322   0.5359   0.5391   0.5424   0.5431   0.5472   0.5491
  0.5516   0.5561   0.5581   0.5617   0.5686   0.5704   0.5717   0.5828
  0.5836   0.5892   0.5952   0.5981   0.6015   0.6039   0.6081   0.6102
  0.6142   0.6188   0.6198   0.6228   0.6241   0.6283   0.6309   0.6348
  0.6382   0.6407   0.6475   0.6489   0.6493   0.6538   0.6599   0.6604
  0.6733   0.6799   0.6843   0.6850   0.6909   0.6941   0.6990   0.7050
  0.7107   0.7135   0.7150   0.7231   0.7273   0.7308   0.7410   0.7454
  0.7512   0.7553   0.7620   0.7647   0.7744   0.7819   0.7933   0.8035
  0.8062   0.8113   0.8166   0.8202   0.8220   0.8237   0.8359   0.8429
  0.8457   0.8520   0.8558   0.8652   0.8704   0.8711   0.8765   0.8806
  0.8828   0.8914   0.8969   0.9043   0.9079   0.9101   0.9201   0.9284
  0.9335   0.9350   0.9397   0.9453   0.9460   0.9514   0.9600   0.9691
  0.9707   0.9743   0.9799   0.9852   0.9907   0.9962   1.0005   1.0049
  1.0066   1.0147   1.0160   1.0186   1.0261   1.0274   1.0386   1.0401
  1.0453   1.0484   1.0522   1.0605   1.0665   1.0707   1.0740   1.0800
  1.0833   1.0876   1.0915   1.0960   1.0970   1.1024   1.1068   1.1094
  1.1166   1.1175   1.1305   1.1332   1.1408   1.1437   1.1494   1.1533
  1.1642   1.1694   1.1709   1.1796   1.1800   1.1844   1.1880   1.1992
  1.2045   1.2050   1.2080   1.2154   1.2172   1.2195   1.2246   1.2281
  1.2303   1.2351   1.2436   1.2514   1.2540   1.2621   1.2653   1.2682
  1.2738   1.2748   1.2813   1.2849   1.3022   1.3094   1.3122   1.3162
  1.3242   1.3263   1.3283   1.3362   1.3489   1.3586   1.3643   1.3690
  1.3715   1.3850   1.3901   1.3970   1.4019   1.4084   1.4117   1.4171
  1.4314   1.4347   1.4391   1.4668   1.4708   1.4764   1.4848   1.4885
  1.4929   1.4985   1.5022   1.5079   1.5129   1.5198   1.5227   1.5323
  1.5371   1.5380   1.5402   1.5434   1.5494   1.5505   1.5650   1.5711
  1.5729   1.5819   1.5830   1.5910   1.6041   1.6121   1.6178   1.6255
  1.6355   1.6443   1.6488   1.6559   1.6643   1.6682   1.6693   1.6741
  1.6850   1.6946   1.6997   1.7026   1.7078   1.7221   1.7305   1.7512
  1.7597   1.7633   1.7742   1.7807   1.7896   1.8011   1.8127   1.8166
  1.8212   1.8242   1.8357   1.8520   1.8552   1.8655   1.8697   1.8748
  1.8822   1.8889   1.8960   1.9050   1.9125   1.9178   1.9263   1.9319
  1.9366   1.9483   1.9523   1.9603   1.9685   1.9747   1.9807   1.9859
  1.9959   1.9997   2.0035   2.0110   2.0182   2.0306   2.0478   2.0503
  2.0607   2.0809   2.0888   2.0952   2.0983   2.1088   2.1192   2.1348
  2.1437   2.1589   2.1615   2.1715   2.1773   2.1829   2.1902   2.1954
  2.1989   2.2021   2.2087   2.2121   2.2272   2.2336   2.2375   2.2411
  2.2472   2.2546   2.2591   2.2656   2.2704   2.2791   2.2879   2.2954
  2.3041   2.3064   2.3159   2.3272   2.3353   2.3419   2.3521   2.3594
  2.3657   2.3699   2.3840   2.3944   2.4018   2.4082   2.4209   2.4240
  2.4294   2.4364   2.4502   2.4532   2.4566   2.4749   2.4855   2.4896
  2.4984   2.5018   2.5119   2.5264   2.5321   2.5423   2.5528   2.5539
  2.5659   2.5724   2.5828   2.5921   2.6025   2.6111   2.6162   2.6179
  2.6256   2.6279   2.6338   2.6361   2.6431   2.6497   2.6569   2.6672
  2.6770   2.6804   2.6884   2.6940   2.7000   2.7013   2.7086   2.7111
  2.7194   2.7255   2.7284   2.7412   2.7447   2.7536   2.7614   2.7762
  2.7809   2.7858   2.7884   2.7955   2.8080   2.8087   2.8166   2.8213
  2.8298   2.8389   2.8419   2.8451   2.8535   2.8574   2.8640   2.8727
  2.8757   2.8810   2.8877   2.8894   2.8951   2.9123   2.9200   2.9297
  2.9456   2.9483   2.9553   2.9624   2.9662   2.9775   2.9807   2.9886
  3.0031   3.0093   3.0160   3.0220   3.0238   3.0263   3.0328   3.0380
  3.0451   3.0545   3.0621   3.0660   3.0820   3.0926   3.0962   3.0990
  3.1020   3.1042   3.1095   3.1134   3.1174   3.1240   3.1341   3.1441
  3.1498   3.1540   3.1562   3.1623   3.1660   3.1751   3.1782   3.1860
  3.1883   3.1963   3.1971   3.2100   3.2143   3.2186   3.2242   3.2306
  3.2316   3.2388   3.2455   3.2501   3.2516   3.2544   3.2607   3.2699
  3.2729   3.2747   3.2844   3.2847   3.2917   3.2945   3.3013   3.3056
  3.3162   3.3195   3.3257   3.3286   3.3337   3.3403   3.3437   3.3474
  3.3521   3.3582   3.3589   3.3610   3.3665   3.3679   3.3714   3.3807
  3.3871   3.3879   3.3921   3.3986   3.4022   3.4042   3.4057   3.4198
  3.4245   3.4267   3.4341   3.4368   3.4438   3.4485   3.4524   3.4564
  3.4640   3.4692   3.4705   3.4724   3.4738   3.4787   3.4861   3.4867
  3.4966   3.4999   3.5068   3.5125   3.5163   3.5271   3.5290   3.5328
  3.5402   3.5441   3.5565   3.5619   3.5633   3.5659   3.5723   3.5784
  3.5807   3.5893   3.5971   3.5996   3.6000   3.6023   3.6111   3.6147
  3.6257   3.6284   3.6344   3.6404   3.6505   3.6524   3.6582   3.6663
  3.6705   3.6741   3.6790   3.6807   3.6893   3.6907   3.6956   3.7059
  3.7086   3.7133   3.7173   3.7205   3.7257   3.7371   3.7384   3.7442
  3.7454   3.7509   3.7561   3.7655   3.7681   3.7752   3.7777   3.7913
  3.7943   3.7966   3.8014   3.8037   3.8068   3.8099   3.8158   3.8180
  3.8234   3.8359   3.8448   3.8470   3.8537   3.8620   3.8646   3.8728
  3.8752   3.8784   3.8869   3.8897   3.8971   3.9060   3.9095   3.9144
  3.9275   3.9286   3.9364   3.9513   3.9559   3.9616   3.9696   3.9781
  3.9838   3.9884   3.9957   4.0048   4.0101   4.0179   4.0258   4.0345
  4.0439   4.0563   4.0642   4.0683   4.0786   4.0829   4.0891   4.0956
  4.1090   4.1195   4.1273   4.1371   4.1405   4.1464   4.1505   4.1585
  4.1607   4.1665   4.1692   4.1736   4.1800   4.1823   4.1891   4.2035
  4.2045   4.2095   4.2180   4.2308   4.2373   4.2450   4.2502   4.2654
  4.2743   4.2785   4.2907   4.3137   4.3166   4.3229   4.3331   4.3420
  4.3480   4.3567   4.3593   4.3680   4.3747   4.3847   4.3875   4.3934
  4.4024   4.4085   4.4123   4.4216   4.4294   4.4319   4.4373   4.4486
  4.4532   4.4687   4.4711   4.4836   4.4985   4.5044   4.5067   4.5209
  4.5343   4.5420   4.5451   4.5534   4.5642   4.5703   4.5789   4.5850
  4.5942   4.6069   4.6113   4.6213   4.6339   4.6494   4.6517   4.6546
  4.6650   4.6727   4.6834   4.6839   4.6903   4.7210   4.7271   4.7312
  4.7444   4.7607   4.7659   4.7700   4.7790   4.7863   4.8000   4.8147
  4.8291   4.8463   4.8481   4.8536   4.8659   4.8760   4.9132   4.9183
  4.9272   4.9458   4.9460   4.9537   4.9613   4.9659   4.9872   4.9943
  5.0056   5.0092   5.0114   5.0134   5.0429   5.0483   5.0587   5.0738
  5.0846   5.0974   5.1170   5.1207   5.1595   5.1687   5.1758   5.1938
  5.2020   5.2175   5.2440   5.2511   5.2534   5.2563   5.2594   5.2832
  5.2945   5.3099   5.3128   5.3297   5.3417   5.3509   5.3552   5.3620
  5.3713   5.3963   5.3993   5.4134   5.4265   5.4309   5.4614   5.4637
  5.4852   5.4877   5.4958   5.5076   5.5128   5.5235   5.5397   5.5578
  5.5764   5.5802   5.5841   5.6058   5.6222   5.6261   5.6372   5.6644
  5.7108   5.7247   5.7553   5.7756   5.8079   5.8149   5.8367   5.8556
  5.8700   5.8774   5.8997   5.9152   5.9297   5.9751   5.9885   6.0422
  6.0494   6.0676   6.0925   6.1508   6.1549   6.1714   6.1768   6.1857
  6.2275   6.2483   6.2618   6.2634   6.2783   6.2889   6.2977   6.3241
  6.4100   6.4423   6.4506   6.4744   6.5392   6.5483   6.5557   6.6022
  6.6526   6.6614   6.6718   6.6915   6.7456   6.7990   6.8298   6.8371
  6.8600   6.8922   6.9785   7.1196   7.1357   7.2044   7.2055   7.2160
  7.2334   7.3104   7.3195   7.3308   7.3634   7.3634   7.4063   7.4138
  7.4790   7.4858   7.4876   7.5225   7.5503   7.6151   7.7085   7.7732
  7.7890   7.7964   7.8931   7.9176   7.9437   7.9585   8.0989   8.1345
  8.4026   8.9222   9.0198   9.3631   9.4762   9.6572  10.1493  10.6048
 11.1692  11.5022  11.7684  11.9250  12.1252  12.1551  12.4119  12.5637
 12.6915  12.9250  12.9930  13.2124  13.2794  13.3857  13.7681  13.8468
 13.9011  14.0111  14.0315  14.4012  15.1926
 --------------------------------------------------------------
 
          Ground-State Mulliken Net Atomic Charges

     Atom                 Charge (a.u.)
  ----------------------------------------
      1 C                    -0.188089
      2 C                    -0.254614
      3 S                    -0.022721
      4 C                    -0.013337
      5 H                     0.196321
      6 C                    -0.028254
      7 C                     0.242756
      8 C                     0.239628
      9 C                    -0.041777
     10 C                    -0.021094
     11 O                    -0.333413
     12 O                    -0.339733
     13 C                    -0.085745
     14 H                     0.122549
     15 H                     0.090929
     16 H                     0.094359
     17 C                    -0.086606
     18 H                     0.124798
     19 H                     0.094136
     20 H                     0.090362
     21 C                    -0.223056
     22 S                     0.000544
     23 C                    -0.068409
     24 H                     0.197123
     25 H                     0.206408
     26 C                    -0.001252
     27 S                     0.111899
     28 C                    -0.182713
     29 C                    -0.047167
     30 C                    -0.078515
     31 S                     0.020162
     32 C                    -0.153735
     33 C                     0.390062
     34 F                    -0.206535
     35 C                     0.446715
     36 O                    -0.461333
     37 O                    -0.300988
     38 C                    -0.058417
     39 H                     0.121216
     40 H                     0.095102
     41 H                     0.095003
     42 H                     0.217432
  ----------------------------------------
  Sum of atomic charges =     0.000000

 -----------------------------------------------------------------
                    Cartesian Multipole Moments
 -----------------------------------------------------------------
    Charge (ESU x 10^10)
                 0.0000
    Dipole Moment (Debye)
         X       1.3045      Y       0.9666      Z       2.7137
       Tot       3.1623
    Quadrupole Moments (Debye-Ang)
        XX    -174.1583     XY       6.8369     YY    -162.6999
        XZ      -1.5547     YZ      -5.2534     ZZ    -206.3168
    Octopole Moments (Debye-Ang^2)
       XXX    -185.9979    XXY     283.8861    XYY     -51.2122
       YYY     887.4573    XXZ     159.2115    XYZ     -31.8648
       YYZ     115.8543    XZZ     -20.5089    YZZ     484.0184
       ZZZ     558.0040
    Hexadecapole Moments (Debye-Ang^3)
      XXXX   -2882.8572   XXXY   -1158.6958   XXYY   -3723.2941
      XYYY   -1053.3916   YYYY  -18731.2504   XXXZ     780.5785
      XXYZ     453.8018   XYYZ     178.0075   YYYZ    1258.4464
      XXZZ   -1350.7650   XYZZ    -182.9969   YYZZ   -4257.2982
      XZZZ     588.2694   YZZZ     980.6435   ZZZZ   -5465.8834
 -----------------------------------------------------------------
 Total job time:  308.00s(wall), 10460.31s(cpu) 
 Mon Jan  8 19:34:02 2024

        *************************************************************
        *                                                           *
        *  Thank you very much for using Q-Chem.  Have a nice day.  *
        *                                                           *
        *************************************************************


0 sent ACK to 0 
now end server 0 ... 
cleanup process ... done
remove work dirs ./qchem2714871.0 -- ./qchem2714871.0
rm -rf ./qchem2714871.0
rm -rf ./qchem2714871
