You are running Q-Chem version: 5.4.0

#
# job setting
#
local host:  exp-1-18
current dir: /home/rramji/project-csd799/aromodel/ptb7fout-qchem/rotation-run
input file:  Dimethoxy_Benzodithiophene_Phi_40_Theta_250_Methylcarbonyl_3_Fluoro_Thienothiophene.qcin
output file: 
nprocs     : 1
nthreads   : 64
#
# qchem installation setting
#
QC:          /cm/shared/apps/spack/cpu/opt/spack/linux-centos8-zen2/gcc-10.2.0/qchem-5.4-akfmr7b3t57bfs6qan3padb2wnb2i7cl
QCAUX:       /cm/shared/apps/spack/cpu/opt/spack/linux-centos8-zen2/gcc-10.2.0/qchem-5.4-akfmr7b3t57bfs6qan3padb2wnb2i7cl/qcaux
QCPROG:      /cm/shared/apps/spack/cpu/opt/spack/linux-centos8-zen2/gcc-10.2.0/qchem-5.4-akfmr7b3t57bfs6qan3padb2wnb2i7cl/exe/qcprog.exe
QCPROG_S:    /cm/shared/apps/spack/cpu/opt/spack/linux-centos8-zen2/gcc-10.2.0/qchem-5.4-akfmr7b3t57bfs6qan3padb2wnb2i7cl/exe/qcprog.exe_s
PARALLEL:    -DPARALLEL
QCMPI:       mpich
#
# qchem directory setting
#
qcrun:       qchem1962002
QCSCRATCH:   .
QCLOCALSCR:  
QCTMPDIR:    .
QCFILEPREF:  ./qchem1962002
QCSAVEDIR:   
workdirs:    ./qchem1962002
workdir0:    ./qchem1962002
partmpdirs =  
#
# parallel setting
#
QCRSH:           ssh
QCMPI:           mpich
QCMPIRUN:        /cm/shared/apps/spack/cpu/opt/spack/linux-centos8-zen2/gcc-10.2.0/qchem-5.4-akfmr7b3t57bfs6qan3padb2wnb2i7cl/bin/mpi/mpirun_qchem
QCMACHINEFILE:   ./qchem1962002/hostfile
exp-1-18

#
# env setting
#
exported envs:   QC QCAUX QCSCRATCH QCRUNNAME QCFILEPREF QCPROG QCPROG_S GUIFILE

Running Job 1 of 1 Dimethoxy_Benzodithiophene_Phi_40_Theta_250_Methylcarbonyl_3_Fluoro_Thienothiophene.qcin
qchem Dimethoxy_Benzodithiophene_Phi_40_Theta_250_Methylcarbonyl_3_Fluoro_Thienothiophene.qcin_1962002.0 ./qchem1962002/ 1
/cm/shared/apps/spack/cpu/opt/spack/linux-centos8-zen2/gcc-10.2.0/qchem-5.4-akfmr7b3t57bfs6qan3padb2wnb2i7cl/bin/mpi/mpirun_qchem -machinefile ./qchem1962002/hostfile -np 1 /cm/shared/apps/spack/cpu/opt/spack/linux-centos8-zen2/gcc-10.2.0/qchem-5.4-akfmr7b3t57bfs6qan3padb2wnb2i7cl/exe/qcprog.exe Dimethoxy_Benzodithiophene_Phi_40_Theta_250_Methylcarbonyl_3_Fluoro_Thienothiophene.qcin_1962002.0 ./qchem1962002/

Process 0 of 1 is on exp-1-18 - thread support 0
initial socket setup ...start
initial socket setup ...done 
now start server 0 ... 
                  Welcome to Q-Chem
     A Quantum Leap Into The Future Of Chemistry


 Q-Chem 5.4, Q-Chem, Inc., Pleasanton, CA (2021)

 License issued to: University of California, San Diego (site)

 E. Epifanovsky,  A. T. B. Gilbert,  Xintian Feng,  Joonho Lee,  Yuezhi Mao,  
 N. Mardirossian,  P. Pokhilko,  A. White,  M. Wormit,  M. P. Coons,  
 A. L. Dempwolff,  Zhengting Gan,  D. Hait,  P. R. Horn,  L. D. Jacobson,  
 I. Kaliman,  J. Kussmann,  A. W. Lange,  Ka Un Lao,  D. S. Levine,  Jie Liu,  
 S. C. McKenzie,  A. F. Morrison,  K. Nanda,  F. Plasser,  D. R. Rehn,  
 M. L. Vidal,  Zhi-Qiang You,  Ying Zhu,  B. Alam,  B. Albrecht,  
 A. Aldossary,  E. Alguire,  J. H. Andersen,  D. Barton,  K. Begam,  A. Behn,  
 Y. A. Bernard,  E. J. Berquist,  H. Burton,  A. Carreras,  K. Carter-Fenk,  
 R. Chakraborty,  A. D. Chien,  K. D. Closser,  V. Cofer-Shabica,  
 S. Dasgupta,  Jia Deng,  M. de Wergifosse,  M. Diedenhofen,  Hainam Do,  
 S. Ehlert,  Po-Tung Fang,  S. Fatehi,  Qingguo Feng,  J. Gayvert,  
 Qinghui Ge,  G. Gidofalvi,  M. Goldey,  J. Gomes,  C. Gonzalez-Espinoza,  
 S. Gulania,  A. Gunina,  M. W. D. Hanson-Heine,  P. H. P. Harbach,  
 A. W. Hauser,  M. F. Herbst,  M. Hernandez Vera,  M. Hodecker,  
 Z. C. Holden,  S. Houck,  Xunkun Huang,  Kerwin Hui,  B. C. Huynh,  
 M. Ivanov,  Hyunjun Ji,  Hanjie Jiang,  B. Kaduk,  S. Kaehler,  
 K. Khistyaev,  Jaehoon Kim,  P. Klunzinger,  Z. Koczor-Benda,  
 Joong Hoon Koh,  D. Kosenkov,  L. Koulias,  T. Kowalczyk,  C. M. Krauter,  
 K. Kue,  A. Kunitsa,  T. Kus,  A. Landau,  K. V. Lawler,  D. Lefrancois,  
 S. Lehtola,  Rain Li,  Yi-Pei Li,  Jiashu Liang,  M. Liebenthal,  
 Hung-Hsuan Lin,  You-Sheng Lin,  Fenglai Liu,  Kuan-Yu Liu,  
 M. Loipersberger,  A. Luenser,  A. Manjanath,  P. Manohar,  E. Mansoor,  
 S. F. Manzer,  Shan-Ping Mao,  A. V. Marenich,  T. Markovich,  S. Mason,  
 S. A. Maurer,  P. F. McLaughlin,  M. F. S. J. Menger,  J.-M. Mewes,  
 S. A. Mewes,  P. Morgante,  J. W. Mullinax,  T. S. Nguyen-Beck,  
 K. J. Oosterbaan,  G. Paran,  Alexander C. Paul,  Suranjan K. Paul,  
 F. Pavosevic,  Zheng Pei,  S. Prager,  E. I. Proynov,  E. Ramos,  B. Rana,  
 A. E. Rask,  A. Rettig,  R. M. Richard,  F. Rob,  E. Rossomme,  T. Scheele,  
 M. Scheurer,  M. Schneider,  N. Sergueev,  S. M. Sharada,  W. Skomorowski,  
 D. W. Small,  C. J. Stein,  Yu-Chuan Su,  E. J. Sundstrom,  Zhen Tao,  
 J. Thirman,  T. Tsuchimochi,  N. M. Tubman,  S. P. Veccham,  O. Vydrov,  
 J. Wenzel,  J. Witte,  A. Yamada,  Kun Yao,  S. Yeganeh,  S. R. Yost,  
 A. Zech,  Igor Ying Zhang,  Xing Zhang,  Yu Zhang,  D. Zuev,  
 A. Aspuru-Guzik,  A. T. Bell,  N. A. Besley,  K. B. Bravaya,  B. R. Brooks,  
 D. Casanova,  Jeng-Da Chai,  S. Coriani,  C. J. Cramer,  
 A. E. DePrince, III,  R. A. DiStasio Jr.,  A. Dreuw,  B. D. Dunietz,  
 T. R. Furlani,  W. A. Goddard III,  S. Grimme,  S. Hammes-Schiffer,  
 T. Head-Gordon,  W. J. Hehre,  Chao-Ping Hsu,  T.-C. Jagau,  Yousung Jung,  
 A. Klamt,  Jing Kong,  D. S. Lambrecht,  WanZhen Liang,  N. J. Mayhall,  
 C. W. McCurdy,  J. B. Neaton,  C. Ochsenfeld,  J. A. Parkhill,  R. Peverati,  
 V. A. Rassolov,  Yihan Shao,  L. V. Slipchenko,  T. Stauch,  R. P. Steele,  
 J. E. Subotnik,  A. J. W. Thom,  A. Tkatchenko,  D. G. Truhlar,  
 T. Van Voorhis,  T. A. Wesolowski,  K. B. Whaley,  H. L. Woodcock III,  
 P. M. Zimmerman,  S. Faraji,  P. M. W. Gill,  M. Head-Gordon,  
 J. M. Herbert,  A. I. Krylov

 Contributors to earlier versions of Q-Chem not listed above: 
 R. D. Adamson,  B. Austin,  R. Baer,  J. Baker,  G. J. O. Beran,  
 K. Brandhorst,  S. T. Brown,  E. F. C. Byrd,  A. K. Chakraborty,  
 G. K. L. Chan,  Chun-Min Chang,  Yunqing Chen,  C.-L. Cheng,  
 Siu Hung Chien,  D. M. Chipman,  D. L. Crittenden,  H. Dachsel,  
 R. J. Doerksen,  A. D. Dutoi,  R. G. Edgar,  J. Fosso-Tande,  
 L. Fusti-Molnar,  D. Ghosh,  A. Ghysels,  A. Golubeva-Zadorozhnaya,  
 J. Gonthier,  M. S. Gordon,  S. R. Gwaltney,  G. Hawkins,  J. E. Herr,  
 A. Heyden,  S. Hirata,  E. G. Hohenstein,  G. Kedziora,  F. J. Keil,  
 C. Kelley,  Jihan Kim,  R. A. King,  R. Z. Khaliullin,  P. P. Korambath,  
 W. Kurlancheek,  A. Laurent,  A. M. Lee,  M. S. Lee,  S. V. Levchenko,  
 Ching Yeh Lin,  D. Liotard,  E. Livshits,  R. C. Lochan,  I. Lotan,  
 L. A. Martinez-Martinez,  P. E. Maslen,  N. Nair,  D. P. O'Neill,  
 D. Neuhauser,  E. Neuscamman,  C. M. Oana,  R. Olivares-Amaya,  R. Olson,  
 T. M. Perrine,  B. Peters,  P. A. Pieniazek,  A. Prociuk,  Y. M. Rhee,  
 J. Ritchie,  M. A. Rohrdanz,  E. Rosta,  N. J. Russ,  H. F. Schaefer III,  
 M. W. Schmidt,  N. E. Schultz,  S. Sharma,  N. Shenvi,  C. D. Sherrill,  
 A. C. Simmonett,  A. Sodt,  T. Stein,  D. Stuck,  K. S. Thanthiriwatte,  
 V. Vanovschi,  L. Vogt,  Tao Wang,  A. Warshel,  M. A. Watson,  
 C. F. Williams,  Q. Wu,  X. Xu,  Jun Yang,  W. Zhang,  Yan Zhao

 Please cite Q-Chem as follows:
 Y. Shao et al., Mol. Phys. 113, 184-215 (2015)
 DOI: 10.1080/00268976.2014.952696

 Q-Chem 5.4.0 for Intel X86 EM64T Linux

 Parts of Q-Chem use Armadillo 9.800.1 (Horizon Scraper).
 http://arma.sourceforge.net/

 Q-Chem begins on Tue Jan  9 01:26:09 2024  

 Host: 
0

     Scratch files written to ./qchem1962002//
 May1621 |scratch|qcdevops|jenkins|workspace|build_RNUM    
 Parallel job on  1  processors
 Processing $rem in /cm/shared/apps/spack/cpu/opt/spack/linux-centos8-zen2/gcc-10.2.0/qchem-5.4-akfmr7b3t57bfs6qan3padb2wnb2i7cl/config/preferences:
 Processing $rem in /home/rramji/.qchemrc:
 Symmetry turned off for PCM/SM12/SMD calculation
 Core orbitals will be frozen

 Checking the input file for inconsistencies... 	...done.

 Q-Chem warning in module forms1/BasisType.C, line 2236:

 You are not using the predefined 5D/6D in this basis set.


--------------------------------------------------------------
User input:
--------------------------------------------------------------
$molecule
0 1
C	0.313191	-8.517702	-0.070009
C	-0.694746	-7.641575	0.305494
S	1.762350	-7.638634	-0.614924
C	-0.340973	-6.264785	0.176768
H	-1.677747	-7.966081	0.669571
C	1.000069	-6.072714	-0.309600
C	1.520060	-4.787049	-0.525372
C	-1.196466	-5.162801	0.463825
C	-0.677639	-3.874817	0.243888
C	0.665815	-3.683952	-0.240312
O	-2.426678	-5.499772	0.941626
O	2.755460	-4.459055	-1.006468
C	3.853913	-5.329063	-0.761666
H	4.765607	-4.755694	-1.016135
H	3.822182	-6.238095	-1.401368
H	3.901833	-5.637262	0.305161
C	-3.502489	-4.572261	0.868342
H	-4.416005	-5.139743	1.128551
H	-3.613841	-4.153131	-0.154712
H	-3.386756	-3.739531	1.595605
C	1.015430	-2.306654	-0.369957
S	-1.445922	-2.306501	0.537898
C	-0.000000	-1.435185	-0.000000
H	1.998088	-1.978138	-0.731088
H	0.314143	-9.614033	-0.074151
C	0.000000	0.000000	0.000000
S	0.581934	0.692785	1.507541
C	1.592155	1.897915	0.718873
C	0.581944	0.692363	-1.067872
C	1.473741	1.758764	-0.686410
S	0.427560	0.503942	-2.805516
C	1.549278	1.849357	-3.054530
C	2.002690	2.393529	-1.862551
F	2.858191	3.420549	-1.819088
C	1.838710	2.191348	-4.456084
O	1.349977	1.596481	-5.406510
O	2.701091	3.230705	-4.569225
C	3.023327	3.606605	-5.916207
H	3.725703	4.454534	-5.833064
H	2.112072	3.910035	-6.470168
H	3.495281	2.762996	-6.459293
H	2.185174	2.606846	1.306486
$end

$rem
JOBTYPE		SP
EXCHANGE	HF
CORRELATION	pRIMP2
BASIS		cc-pvtz
METHOD		rimp2
AUX_BASIS	rimp2-cc-pvtz
SOLVENT_METHOD	PCM
PURECART	11111
SYMMETRY	false
MEM_TOTAL	110000
SCF_CONVERGENCE = 6
THRESH=10
GUI = 2
$end



$solvent
dielectric 4.90
$end
--------------------------------------------------------------
 ----------------------------------------------------------------
             Standard Nuclear Orientation (Angstroms)
    I     Atom           X                Y                Z
 ----------------------------------------------------------------
    1      C       0.3131910000    -8.5177020000    -0.0700090000
    2      C      -0.6947460000    -7.6415750000     0.3054940000
    3      S       1.7623500000    -7.6386340000    -0.6149240000
    4      C      -0.3409730000    -6.2647850000     0.1767680000
    5      H      -1.6777470000    -7.9660810000     0.6695710000
    6      C       1.0000690000    -6.0727140000    -0.3096000000
    7      C       1.5200600000    -4.7870490000    -0.5253720000
    8      C      -1.1964660000    -5.1628010000     0.4638250000
    9      C      -0.6776390000    -3.8748170000     0.2438880000
   10      C       0.6658150000    -3.6839520000    -0.2403120000
   11      O      -2.4266780000    -5.4997720000     0.9416260000
   12      O       2.7554600000    -4.4590550000    -1.0064680000
   13      C       3.8539130000    -5.3290630000    -0.7616660000
   14      H       4.7656070000    -4.7556940000    -1.0161350000
   15      H       3.8221820000    -6.2380950000    -1.4013680000
   16      H       3.9018330000    -5.6372620000     0.3051610000
   17      C      -3.5024890000    -4.5722610000     0.8683420000
   18      H      -4.4160050000    -5.1397430000     1.1285510000
   19      H      -3.6138410000    -4.1531310000    -0.1547120000
   20      H      -3.3867560000    -3.7395310000     1.5956050000
   21      C       1.0154300000    -2.3066540000    -0.3699570000
   22      S      -1.4459220000    -2.3065010000     0.5378980000
   23      C       0.0000000000    -1.4351850000     0.0000000000
   24      H       1.9980880000    -1.9781380000    -0.7310880000
   25      H       0.3141430000    -9.6140330000    -0.0741510000
   26      C       0.0000000000     0.0000000000     0.0000000000
   27      S       0.5819340000     0.6927850000     1.5075410000
   28      C       1.5921550000     1.8979150000     0.7188730000
   29      C       0.5819440000     0.6923630000    -1.0678720000
   30      C       1.4737410000     1.7587640000    -0.6864100000
   31      S       0.4275600000     0.5039420000    -2.8055160000
   32      C       1.5492780000     1.8493570000    -3.0545300000
   33      C       2.0026900000     2.3935290000    -1.8625510000
   34      F       2.8581910000     3.4205490000    -1.8190880000
   35      C       1.8387100000     2.1913480000    -4.4560840000
   36      O       1.3499770000     1.5964810000    -5.4065100000
   37      O       2.7010910000     3.2307050000    -4.5692250000
   38      C       3.0233270000     3.6066050000    -5.9162070000
   39      H       3.7257030000     4.4545340000    -5.8330640000
   40      H       2.1120720000     3.9100350000    -6.4701680000
   41      H       3.4952810000     2.7629960000    -6.4592930000
   42      H       2.1851740000     2.6068460000     1.3064860000
 ----------------------------------------------------------------
 Nuclear Repulsion Energy =        3303.93934075 hartrees
 There are      119 alpha and      119 beta electrons
 Requested basis set is cc-pVTZ
 There are 376 shells and 1068 basis functions

 Total QAlloc Memory Limit 110000 MB
 Mega-Array Size       188 MB
 MEM_STATIC part       192 MB
 Discretize the solute cavity surface with Lebedev spheres
	Using 110 Lebedev grid points for each H atom
	Using 194 Lebedev grid points for other atoms
	Atomic van der Waals radii will be scaled by 1.20
 Remove points where switching function is < 1.0e-08
 Keep 2875 surface tesserae and discard 4181 interior tesserae
 Molecular Surface Area = 441.628 Angst**2
 Requested basis set is rimp2-cc-pVTZ
 There are 833 shells and 2903 basis functions
 A cutoff of  1.0D-10 yielded  31359 shell pairs
 There are    240543 function pairs (    312206 Cartesian)
 Smallest overlap matrix eigenvalue = 2.18E-05

 Scale SEOQF with 1.000000e-01/1.000000e-02/1.000000e-02

 Standard Electronic Orientation quadrupole field applied
 Nucleus-field energy     =     0.0000000476 hartrees
 Guess from superposition of atomic densities
 Warning:  Energy on first SCF cycle will be non-variational
 SAD guess density has 238.000000 electrons

 -----------------------------------------------------------------------
  General SCF calculation program by
  Eric Jon Sundstrom, Paul Horn, Yuezhi Mao, Dmitri Zuev, Alec White,
  David Stuck, Shaama M.S., Shane Yost, Joonho Lee, David Small,
  Daniel Levine, Susi Lehtola, Hugh Burton, Evgeny Epifanovsky,
  Bang C. Huynh
 -----------------------------------------------------------------------
 Hartree-Fock
 using 64 threads for integral computing
 -------------------------------------------------------
 OpenMP Integral computing Module                
 Release: version 1.0, May 2013, Q-Chem Inc. Pittsburgh 
 -------------------------------------------------------
 A restricted SCF calculation will be
 performed using DIIS
 SCF converges when DIIS error is below 1.0e-06
 ---------------------------------------
  Cycle       Energy         DIIS error
 ---------------------------------------
    1   -2765.2399472516      1.75e-02  
    2   -2753.8550410088      1.56e-03  
    3   -2754.1933267469      8.60e-04  
    4   -2754.2743059267      2.56e-04  
    5   -2754.2859581072      6.97e-05  
    6   -2754.2870517326      2.41e-05  
    7   -2754.2872906966      1.14e-05  
    8   -2754.2873695942      4.51e-06  
    9   -2754.2873845331      1.81e-06  
   10   -2754.2873865596      9.19e-07  Convergence criterion met
 ---------------------------------------
 SCF time:   CPU 6144.76s  wall 235.00s 

************** Final PCM Free Energy Summary **************
 G_electrostatic  =      -0.01948047 hartree =     -12.22418150 kcal/mol
 G_cavitation     =       0.00000000 hartree =       0.00000000 kcal/mol
 G_dispersion     =       0.00000000 hartree =       0.00000000 kcal/mol
 G_repulsion      =       0.00000000 hartree =       0.00000000 kcal/mol
 --------------------------------------------------
 Non-electrostatic Free Energy =       0.00000000 hartree =       0.00000000 kcal/mol
 Total                         =      -0.01948047 hartree =     -12.22418150 kcal/mol
 --------------------------------------------------
 SCF Energy (H0 + V/2)                       =   -2754.28738656 
 Solute Internal Energy (H0)                 =   -2754.26790609 
 Total Free Energy (H0 + V/2 + non-elec)     =   -2754.28738656 hartree
                                             = -1728341.42092199 kcal/mol
***********************************************************

 SCF   energy in the final basis set =    -2754.2873865596
 Total energy in the final basis set =    -2754.2873865596


 --------------------------------------------------------------
  Generalized many-body perturbation theory program
  by Joonho Lee, Fazle Rob, Xintian Feng, Evgeny Epifanovsky

 No regularization used 
 (reg. param. = 0.0000e+00)
  (P|Q)^-1/2 Time:  CPU 199.89 s  wall 3.62 s

 In RI-MP2 calculation: 
 # of frozen core orbitals: 45

 Components of the RIMP2 correlation energy:
        aaaa    correlation energy =        -0.6703097172 a.u.
        abab    correlation energy =        -3.7154171757 a.u.
        bbbb    correlation energy =        -0.6703097172 a.u.
        non-Brillouin singles      =        -0.0000000000 a.u.
        total same-spin energy     =        -1.3406194343 a.u.
        total opposite-spin energy =        -3.7154171757 a.u.

 Total  RIMP2   correlation energy =        -5.0560366100 a.u.
        RIMP2         total energy =     -2759.3434231696 a.u.

 RI-MP2 Energy Time:  CPU 2673.11 s  wall 46.66 s
 
 --------------------------------------------------------------
 
                    Orbital Energies (a.u.)
 --------------------------------------------------------------
 
 Alpha MOs
 -- Occupied --
-92.0134 -92.0014 -91.9851 -91.9840 -26.3441 -20.6147 -20.5913 -20.5900
-20.5610 -11.4093 -11.3836 -11.3210 -11.3175 -11.3155 -11.3091 -11.2970
-11.2913 -11.2888 -11.2861 -11.2854 -11.2853 -11.2828 -11.2827 -11.2826
-11.2782 -11.2588 -11.2567 -11.2515 -11.2490  -9.0123  -9.0012  -8.9850
 -8.9847  -6.6929  -6.6922  -6.6918  -6.6822  -6.6814  -6.6804  -6.6660
 -6.6656  -6.6654  -6.6649  -6.6646  -6.6640  -1.6612  -1.4672  -1.4153
 -1.4128  -1.3699  -1.2248  -1.1921  -1.1640  -1.1370  -1.0837  -1.0500
 -1.0428  -1.0234  -0.9991  -0.9867  -0.9623  -0.9592  -0.9493  -0.9392
 -0.8938  -0.8685  -0.8468  -0.8098  -0.7955  -0.7879  -0.7848  -0.7634
 -0.7553  -0.7322  -0.7260  -0.7106  -0.7005  -0.6851  -0.6817  -0.6806
 -0.6739  -0.6583  -0.6576  -0.6516  -0.6288  -0.6189  -0.6162  -0.6064
 -0.5988  -0.5853  -0.5739  -0.5700  -0.5658  -0.5618  -0.5538  -0.5497
 -0.5309  -0.5261  -0.5221  -0.5155  -0.5135  -0.5085  -0.5038  -0.4941
 -0.4877  -0.4815  -0.4746  -0.4734  -0.4682  -0.4644  -0.4594  -0.4059
 -0.3944  -0.3855  -0.3582  -0.3474  -0.3174  -0.2978  -0.2550
 -- Virtual --
  0.0309   0.0606   0.0939   0.1257   0.1392   0.1419   0.1505   0.1547
  0.1560   0.1585   0.1610   0.1704   0.1809   0.1847   0.1883   0.1924
  0.1967   0.2048   0.2145   0.2153   0.2203   0.2218   0.2245   0.2281
  0.2342   0.2359   0.2445   0.2473   0.2539   0.2639   0.2682   0.2792
  0.2837   0.3005   0.3154   0.3299   0.3337   0.3366   0.3426   0.3468
  0.3530   0.3546   0.3662   0.3732   0.3775   0.3832   0.3851   0.3865
  0.3897   0.3931   0.3975   0.4056   0.4096   0.4169   0.4193   0.4242
  0.4268   0.4285   0.4337   0.4410   0.4454   0.4486   0.4529   0.4561
  0.4587   0.4641   0.4686   0.4719   0.4739   0.4817   0.4879   0.4901
  0.4927   0.4955   0.5025   0.5054   0.5113   0.5185   0.5187   0.5245
  0.5272   0.5288   0.5333   0.5373   0.5412   0.5424   0.5449   0.5484
  0.5512   0.5530   0.5557   0.5585   0.5677   0.5707   0.5756   0.5801
  0.5817   0.5909   0.5947   0.5979   0.5988   0.6022   0.6100   0.6140
  0.6162   0.6175   0.6189   0.6217   0.6223   0.6275   0.6313   0.6385
  0.6391   0.6439   0.6443   0.6485   0.6519   0.6578   0.6621   0.6652
  0.6713   0.6816   0.6839   0.6881   0.6896   0.6940   0.7012   0.7087
  0.7117   0.7135   0.7197   0.7208   0.7281   0.7336   0.7454   0.7477
  0.7541   0.7577   0.7621   0.7659   0.7735   0.7833   0.7888   0.8003
  0.8035   0.8075   0.8115   0.8212   0.8227   0.8328   0.8345   0.8413
  0.8488   0.8494   0.8551   0.8645   0.8687   0.8722   0.8790   0.8843
  0.8909   0.8927   0.9000   0.9077   0.9134   0.9148   0.9184   0.9203
  0.9352   0.9393   0.9436   0.9442   0.9518   0.9551   0.9554   0.9667
  0.9678   0.9745   0.9785   0.9831   0.9861   0.9920   0.9977   1.0032
  1.0040   1.0119   1.0192   1.0211   1.0259   1.0276   1.0351   1.0396
  1.0424   1.0522   1.0570   1.0604   1.0636   1.0700   1.0748   1.0777
  1.0833   1.0888   1.0916   1.1005   1.1008   1.1080   1.1109   1.1141
  1.1185   1.1199   1.1214   1.1344   1.1412   1.1457   1.1543   1.1563
  1.1632   1.1705   1.1755   1.1786   1.1802   1.1852   1.1874   1.1933
  1.1967   1.2048   1.2098   1.2132   1.2173   1.2207   1.2228   1.2310
  1.2356   1.2398   1.2429   1.2545   1.2583   1.2636   1.2662   1.2702
  1.2752   1.2788   1.2804   1.2876   1.2970   1.3054   1.3110   1.3136
  1.3252   1.3283   1.3319   1.3448   1.3557   1.3612   1.3693   1.3724
  1.3766   1.3845   1.3901   1.3986   1.4055   1.4102   1.4142   1.4233
  1.4284   1.4329   1.4503   1.4564   1.4703   1.4780   1.4829   1.4905
  1.4928   1.4983   1.5031   1.5074   1.5121   1.5136   1.5264   1.5345
  1.5372   1.5394   1.5398   1.5455   1.5475   1.5551   1.5587   1.5665
  1.5773   1.5825   1.5861   1.5962   1.5989   1.6057   1.6166   1.6254
  1.6384   1.6452   1.6516   1.6555   1.6623   1.6681   1.6751   1.6798
  1.6817   1.6875   1.6968   1.7003   1.7111   1.7233   1.7306   1.7463
  1.7563   1.7609   1.7748   1.7807   1.7883   1.7959   1.8102   1.8186
  1.8220   1.8243   1.8364   1.8472   1.8552   1.8644   1.8712   1.8763
  1.8877   1.8930   1.8986   1.9023   1.9133   1.9230   1.9299   1.9366
  1.9415   1.9520   1.9525   1.9613   1.9654   1.9726   1.9785   1.9835
  1.9895   1.9977   2.0096   2.0112   2.0248   2.0296   2.0445   2.0647
  2.0712   2.0752   2.0924   2.0991   2.1005   2.1184   2.1304   2.1355
  2.1567   2.1601   2.1630   2.1664   2.1727   2.1798   2.1874   2.1897
  2.1971   2.2011   2.2055   2.2154   2.2270   2.2271   2.2355   2.2396
  2.2433   2.2451   2.2561   2.2689   2.2745   2.2809   2.2888   2.2964
  2.3007   2.3103   2.3171   2.3212   2.3384   2.3451   2.3548   2.3599
  2.3672   2.3721   2.3788   2.3894   2.3969   2.4041   2.4133   2.4248
  2.4265   2.4334   2.4401   2.4510   2.4632   2.4653   2.4832   2.4880
  2.4915   2.5020   2.5085   2.5218   2.5272   2.5458   2.5546   2.5604
  2.5640   2.5694   2.5825   2.5835   2.6024   2.6037   2.6171   2.6205
  2.6253   2.6329   2.6353   2.6434   2.6481   2.6514   2.6669   2.6729
  2.6756   2.6790   2.6830   2.6912   2.7012   2.7030   2.7076   2.7123
  2.7186   2.7265   2.7362   2.7394   2.7450   2.7577   2.7649   2.7766
  2.7845   2.7870   2.7990   2.7997   2.8055   2.8116   2.8145   2.8155
  2.8269   2.8365   2.8456   2.8485   2.8525   2.8625   2.8671   2.8734
  2.8756   2.8827   2.8840   2.8871   2.8915   2.9042   2.9237   2.9290
  2.9416   2.9517   2.9536   2.9609   2.9681   2.9747   2.9833   2.9913
  3.0083   3.0123   3.0151   3.0232   3.0256   3.0299   3.0363   3.0396
  3.0443   3.0505   3.0608   3.0690   3.0787   3.0839   3.0877   3.0954
  3.1010   3.1057   3.1095   3.1155   3.1204   3.1262   3.1272   3.1431
  3.1507   3.1519   3.1563   3.1632   3.1652   3.1724   3.1801   3.1810
  3.1882   3.1912   3.2065   3.2099   3.2165   3.2170   3.2192   3.2250
  3.2266   3.2405   3.2444   3.2484   3.2529   3.2537   3.2570   3.2680
  3.2720   3.2773   3.2823   3.2901   3.2910   3.2942   3.3023   3.3041
  3.3112   3.3194   3.3254   3.3296   3.3370   3.3425   3.3485   3.3519
  3.3534   3.3576   3.3631   3.3641   3.3683   3.3694   3.3751   3.3803
  3.3891   3.3932   3.3978   3.3988   3.4018   3.4095   3.4113   3.4173
  3.4213   3.4232   3.4274   3.4378   3.4434   3.4525   3.4534   3.4559
  3.4607   3.4647   3.4677   3.4744   3.4772   3.4846   3.4860   3.4945
  3.4958   3.5067   3.5153   3.5179   3.5245   3.5294   3.5345   3.5365
  3.5426   3.5499   3.5534   3.5574   3.5667   3.5704   3.5724   3.5771
  3.5823   3.5878   3.5920   3.5980   3.6002   3.6051   3.6098   3.6171
  3.6210   3.6278   3.6324   3.6397   3.6427   3.6498   3.6559   3.6597
  3.6679   3.6727   3.6794   3.6824   3.6844   3.6910   3.6926   3.7057
  3.7075   3.7100   3.7129   3.7212   3.7318   3.7372   3.7396   3.7494
  3.7552   3.7581   3.7594   3.7735   3.7748   3.7830   3.7891   3.7911
  3.7947   3.8028   3.8051   3.8076   3.8094   3.8113   3.8165   3.8305
  3.8355   3.8401   3.8444   3.8540   3.8564   3.8630   3.8644   3.8713
  3.8800   3.8812   3.8868   3.8912   3.8960   3.9049   3.9136   3.9206
  3.9283   3.9310   3.9378   3.9500   3.9586   3.9603   3.9675   3.9771
  3.9880   3.9931   4.0025   4.0058   4.0155   4.0278   4.0346   4.0374
  4.0441   4.0503   4.0618   4.0660   4.0686   4.0823   4.0887   4.0942
  4.1113   4.1219   4.1272   4.1332   4.1388   4.1463   4.1493   4.1515
  4.1587   4.1642   4.1673   4.1711   4.1770   4.1890   4.1908   4.2021
  4.2057   4.2162   4.2304   4.2340   4.2427   4.2461   4.2487   4.2735
  4.2770   4.2875   4.3011   4.3136   4.3284   4.3355   4.3419   4.3553
  4.3580   4.3622   4.3668   4.3732   4.3766   4.3822   4.3928   4.3980
  4.4068   4.4078   4.4150   4.4216   4.4278   4.4342   4.4388   4.4458
  4.4544   4.4715   4.4843   4.4884   4.5017   4.5056   4.5129   4.5214
  4.5415   4.5479   4.5509   4.5566   4.5617   4.5776   4.5867   4.5975
  4.6030   4.6087   4.6140   4.6247   4.6345   4.6460   4.6487   4.6617
  4.6636   4.6693   4.6745   4.6908   4.6912   4.7029   4.7317   4.7372
  4.7470   4.7596   4.7668   4.7735   4.7826   4.7855   4.7976   4.8242
  4.8308   4.8416   4.8495   4.8509   4.8617   4.8731   4.8767   4.9144
  4.9370   4.9449   4.9538   4.9573   4.9640   4.9700   4.9770   4.9920
  5.0065   5.0089   5.0143   5.0220   5.0345   5.0385   5.0623   5.0705
  5.0841   5.0983   5.1080   5.1220   5.1592   5.1625   5.1741   5.1997
  5.2017   5.2152   5.2443   5.2475   5.2519   5.2565   5.2582   5.2781
  5.2996   5.3084   5.3159   5.3243   5.3349   5.3456   5.3514   5.3641
  5.3901   5.3921   5.4005   5.4066   5.4262   5.4268   5.4354   5.4646
  5.4828   5.4851   5.4997   5.5087   5.5126   5.5219   5.5363   5.5621
  5.5730   5.5816   5.5885   5.6067   5.6218   5.6294   5.6439   5.6616
  5.7173   5.7230   5.7436   5.7673   5.8076   5.8149   5.8350   5.8559
  5.8725   5.8814   5.9076   5.9244   5.9293   5.9722   5.9987   6.0324
  6.0419   6.0765   6.0961   6.1481   6.1505   6.1719   6.1782   6.1841
  6.2333   6.2445   6.2606   6.2615   6.2707   6.2863   6.3039   6.3378
  6.4068   6.4442   6.4502   6.4794   6.5391   6.5489   6.5571   6.6010
  6.6551   6.6611   6.6714   6.6964   6.7449   6.8008   6.8296   6.8349
  6.8597   6.8941   6.9782   7.1217   7.1358   7.2040   7.2049   7.2166
  7.2347   7.3101   7.3208   7.3304   7.3625   7.3627   7.4054   7.4134
  7.4794   7.4849   7.4874   7.5208   7.5496   7.6142   7.6991   7.7723
  7.7890   7.7976   7.8917   7.9202   7.9417   7.9585   8.0646   8.1332
  8.4115   8.9213   9.0240   9.3623   9.4799   9.6618  10.1616  10.5220
 11.2198  11.4386  11.7659  12.0139  12.1135  12.1342  12.4131  12.5803
 12.6757  12.9112  12.9823  13.2173  13.3298  13.3854  13.7709  13.8476
 13.9018  14.0234  14.0347  14.4967  15.1972
 --------------------------------------------------------------
 
          Ground-State Mulliken Net Atomic Charges

     Atom                 Charge (a.u.)
  ----------------------------------------
      1 C                    -0.191330
      2 C                    -0.254231
      3 S                    -0.024599
      4 C                    -0.017734
      5 H                     0.195902
      6 C                    -0.027954
      7 C                     0.238272
      8 C                     0.244039
      9 C                    -0.048588
     10 C                    -0.017564
     11 O                    -0.333715
     12 O                    -0.340517
     13 C                    -0.085708
     14 H                     0.122003
     15 H                     0.091091
     16 H                     0.093270
     17 C                    -0.086610
     18 H                     0.124618
     19 H                     0.094473
     20 H                     0.089375
     21 C                    -0.226663
     22 S                    -0.015502
     23 C                    -0.017132
     24 H                     0.198042
     25 H                     0.205791
     26 C                    -0.074298
     27 S                     0.116739
     28 C                    -0.162534
     29 C                    -0.040368
     30 C                    -0.075973
     31 S                     0.038213
     32 C                    -0.152735
     33 C                     0.391657
     34 F                    -0.206000
     35 C                     0.446979
     36 O                    -0.461678
     37 O                    -0.301140
     38 C                    -0.058349
     39 H                     0.121259
     40 H                     0.095201
     41 H                     0.095102
     42 H                     0.218896
  ----------------------------------------
  Sum of atomic charges =     0.000000

 -----------------------------------------------------------------
                    Cartesian Multipole Moments
 -----------------------------------------------------------------
    Charge (ESU x 10^10)
                 0.0000
    Dipole Moment (Debye)
         X       2.2465      Y       1.4194      Z       3.0915
       Tot       4.0766
    Quadrupole Moments (Debye-Ang)
        XX    -170.7398     XY       7.7027     YY    -169.6248
        XZ      -7.2599     YZ      -6.7344     ZZ    -205.5685
    Octopole Moments (Debye-Ang^2)
       XXX    -386.6415    XXY     324.0464    XYY    -103.7097
       YYY     976.1713    XXZ     152.3719    XYZ     -17.2198
       YYZ     143.5179    XZZ     -80.2643    YZZ     497.1194
       ZZZ     562.8543
    Hexadecapole Moments (Debye-Ang^3)
      XXXX   -3540.9395   XXXY    -317.4117   XXYY   -3693.1518
      XYYY    -322.5328   YYYY  -18193.6990   XXXZ    1191.6845
      XXYZ     261.0779   XYYZ     239.0505   YYYZ     945.0210
      XXZZ   -1323.0173   XYZZ     211.8014   YYZZ   -4285.0679
      XZZZ    1020.5403   YZZZ     672.7468   ZZZZ   -5628.3414
 -----------------------------------------------------------------
 Total job time:  298.67s(wall), 9032.89s(cpu) 
 Tue Jan  9 01:31:08 2024

        *************************************************************
        *                                                           *
        *  Thank you very much for using Q-Chem.  Have a nice day.  *
        *                                                           *
        *************************************************************


0 sent ACK to 0 
now end server 0 ... 
cleanup process ... done
remove work dirs ./qchem1962002.0 -- ./qchem1962002.0
rm -rf ./qchem1962002.0
rm -rf ./qchem1962002
