You are running Q-Chem version: 5.4.0

#
# job setting
#
local host:  exp-1-18
current dir: /home/rramji/project-csd799/aromodel/ptb7fout-qchem/rotation-run
input file:  Dimethoxy_Benzodithiophene_Phi_40_Theta_60_Methylcarbonyl_3_Fluoro_Thienothiophene.qcin
output file: 
nprocs     : 1
nthreads   : 64
#
# qchem installation setting
#
QC:          /cm/shared/apps/spack/cpu/opt/spack/linux-centos8-zen2/gcc-10.2.0/qchem-5.4-akfmr7b3t57bfs6qan3padb2wnb2i7cl
QCAUX:       /cm/shared/apps/spack/cpu/opt/spack/linux-centos8-zen2/gcc-10.2.0/qchem-5.4-akfmr7b3t57bfs6qan3padb2wnb2i7cl/qcaux
QCPROG:      /cm/shared/apps/spack/cpu/opt/spack/linux-centos8-zen2/gcc-10.2.0/qchem-5.4-akfmr7b3t57bfs6qan3padb2wnb2i7cl/exe/qcprog.exe
QCPROG_S:    /cm/shared/apps/spack/cpu/opt/spack/linux-centos8-zen2/gcc-10.2.0/qchem-5.4-akfmr7b3t57bfs6qan3padb2wnb2i7cl/exe/qcprog.exe_s
PARALLEL:    -DPARALLEL
QCMPI:       mpich
#
# qchem directory setting
#
qcrun:       qchem1907911
QCSCRATCH:   .
QCLOCALSCR:  
QCTMPDIR:    .
QCFILEPREF:  ./qchem1907911
QCSAVEDIR:   
workdirs:    ./qchem1907911
workdir0:    ./qchem1907911
partmpdirs =  
#
# parallel setting
#
QCRSH:           ssh
QCMPI:           mpich
QCMPIRUN:        /cm/shared/apps/spack/cpu/opt/spack/linux-centos8-zen2/gcc-10.2.0/qchem-5.4-akfmr7b3t57bfs6qan3padb2wnb2i7cl/bin/mpi/mpirun_qchem
QCMACHINEFILE:   ./qchem1907911/hostfile
exp-1-18

#
# env setting
#
exported envs:   QC QCAUX QCSCRATCH QCRUNNAME QCFILEPREF QCPROG QCPROG_S GUIFILE

Running Job 1 of 1 Dimethoxy_Benzodithiophene_Phi_40_Theta_60_Methylcarbonyl_3_Fluoro_Thienothiophene.qcin
qchem Dimethoxy_Benzodithiophene_Phi_40_Theta_60_Methylcarbonyl_3_Fluoro_Thienothiophene.qcin_1907911.0 ./qchem1907911/ 1
/cm/shared/apps/spack/cpu/opt/spack/linux-centos8-zen2/gcc-10.2.0/qchem-5.4-akfmr7b3t57bfs6qan3padb2wnb2i7cl/bin/mpi/mpirun_qchem -machinefile ./qchem1907911/hostfile -np 1 /cm/shared/apps/spack/cpu/opt/spack/linux-centos8-zen2/gcc-10.2.0/qchem-5.4-akfmr7b3t57bfs6qan3padb2wnb2i7cl/exe/qcprog.exe Dimethoxy_Benzodithiophene_Phi_40_Theta_60_Methylcarbonyl_3_Fluoro_Thienothiophene.qcin_1907911.0 ./qchem1907911/

Process 0 of 1 is on exp-1-18 - thread support 0
initial socket setup ...start
initial socket setup ...done 
now start server 0 ... 
                  Welcome to Q-Chem
     A Quantum Leap Into The Future Of Chemistry


 Q-Chem 5.4, Q-Chem, Inc., Pleasanton, CA (2021)

 License issued to: University of California, San Diego (site)

 E. Epifanovsky,  A. T. B. Gilbert,  Xintian Feng,  Joonho Lee,  Yuezhi Mao,  
 N. Mardirossian,  P. Pokhilko,  A. White,  M. Wormit,  M. P. Coons,  
 A. L. Dempwolff,  Zhengting Gan,  D. Hait,  P. R. Horn,  L. D. Jacobson,  
 I. Kaliman,  J. Kussmann,  A. W. Lange,  Ka Un Lao,  D. S. Levine,  Jie Liu,  
 S. C. McKenzie,  A. F. Morrison,  K. Nanda,  F. Plasser,  D. R. Rehn,  
 M. L. Vidal,  Zhi-Qiang You,  Ying Zhu,  B. Alam,  B. Albrecht,  
 A. Aldossary,  E. Alguire,  J. H. Andersen,  D. Barton,  K. Begam,  A. Behn,  
 Y. A. Bernard,  E. J. Berquist,  H. Burton,  A. Carreras,  K. Carter-Fenk,  
 R. Chakraborty,  A. D. Chien,  K. D. Closser,  V. Cofer-Shabica,  
 S. Dasgupta,  Jia Deng,  M. de Wergifosse,  M. Diedenhofen,  Hainam Do,  
 S. Ehlert,  Po-Tung Fang,  S. Fatehi,  Qingguo Feng,  J. Gayvert,  
 Qinghui Ge,  G. Gidofalvi,  M. Goldey,  J. Gomes,  C. Gonzalez-Espinoza,  
 S. Gulania,  A. Gunina,  M. W. D. Hanson-Heine,  P. H. P. Harbach,  
 A. W. Hauser,  M. F. Herbst,  M. Hernandez Vera,  M. Hodecker,  
 Z. C. Holden,  S. Houck,  Xunkun Huang,  Kerwin Hui,  B. C. Huynh,  
 M. Ivanov,  Hyunjun Ji,  Hanjie Jiang,  B. Kaduk,  S. Kaehler,  
 K. Khistyaev,  Jaehoon Kim,  P. Klunzinger,  Z. Koczor-Benda,  
 Joong Hoon Koh,  D. Kosenkov,  L. Koulias,  T. Kowalczyk,  C. M. Krauter,  
 K. Kue,  A. Kunitsa,  T. Kus,  A. Landau,  K. V. Lawler,  D. Lefrancois,  
 S. Lehtola,  Rain Li,  Yi-Pei Li,  Jiashu Liang,  M. Liebenthal,  
 Hung-Hsuan Lin,  You-Sheng Lin,  Fenglai Liu,  Kuan-Yu Liu,  
 M. Loipersberger,  A. Luenser,  A. Manjanath,  P. Manohar,  E. Mansoor,  
 S. F. Manzer,  Shan-Ping Mao,  A. V. Marenich,  T. Markovich,  S. Mason,  
 S. A. Maurer,  P. F. McLaughlin,  M. F. S. J. Menger,  J.-M. Mewes,  
 S. A. Mewes,  P. Morgante,  J. W. Mullinax,  T. S. Nguyen-Beck,  
 K. J. Oosterbaan,  G. Paran,  Alexander C. Paul,  Suranjan K. Paul,  
 F. Pavosevic,  Zheng Pei,  S. Prager,  E. I. Proynov,  E. Ramos,  B. Rana,  
 A. E. Rask,  A. Rettig,  R. M. Richard,  F. Rob,  E. Rossomme,  T. Scheele,  
 M. Scheurer,  M. Schneider,  N. Sergueev,  S. M. Sharada,  W. Skomorowski,  
 D. W. Small,  C. J. Stein,  Yu-Chuan Su,  E. J. Sundstrom,  Zhen Tao,  
 J. Thirman,  T. Tsuchimochi,  N. M. Tubman,  S. P. Veccham,  O. Vydrov,  
 J. Wenzel,  J. Witte,  A. Yamada,  Kun Yao,  S. Yeganeh,  S. R. Yost,  
 A. Zech,  Igor Ying Zhang,  Xing Zhang,  Yu Zhang,  D. Zuev,  
 A. Aspuru-Guzik,  A. T. Bell,  N. A. Besley,  K. B. Bravaya,  B. R. Brooks,  
 D. Casanova,  Jeng-Da Chai,  S. Coriani,  C. J. Cramer,  
 A. E. DePrince, III,  R. A. DiStasio Jr.,  A. Dreuw,  B. D. Dunietz,  
 T. R. Furlani,  W. A. Goddard III,  S. Grimme,  S. Hammes-Schiffer,  
 T. Head-Gordon,  W. J. Hehre,  Chao-Ping Hsu,  T.-C. Jagau,  Yousung Jung,  
 A. Klamt,  Jing Kong,  D. S. Lambrecht,  WanZhen Liang,  N. J. Mayhall,  
 C. W. McCurdy,  J. B. Neaton,  C. Ochsenfeld,  J. A. Parkhill,  R. Peverati,  
 V. A. Rassolov,  Yihan Shao,  L. V. Slipchenko,  T. Stauch,  R. P. Steele,  
 J. E. Subotnik,  A. J. W. Thom,  A. Tkatchenko,  D. G. Truhlar,  
 T. Van Voorhis,  T. A. Wesolowski,  K. B. Whaley,  H. L. Woodcock III,  
 P. M. Zimmerman,  S. Faraji,  P. M. W. Gill,  M. Head-Gordon,  
 J. M. Herbert,  A. I. Krylov

 Contributors to earlier versions of Q-Chem not listed above: 
 R. D. Adamson,  B. Austin,  R. Baer,  J. Baker,  G. J. O. Beran,  
 K. Brandhorst,  S. T. Brown,  E. F. C. Byrd,  A. K. Chakraborty,  
 G. K. L. Chan,  Chun-Min Chang,  Yunqing Chen,  C.-L. Cheng,  
 Siu Hung Chien,  D. M. Chipman,  D. L. Crittenden,  H. Dachsel,  
 R. J. Doerksen,  A. D. Dutoi,  R. G. Edgar,  J. Fosso-Tande,  
 L. Fusti-Molnar,  D. Ghosh,  A. Ghysels,  A. Golubeva-Zadorozhnaya,  
 J. Gonthier,  M. S. Gordon,  S. R. Gwaltney,  G. Hawkins,  J. E. Herr,  
 A. Heyden,  S. Hirata,  E. G. Hohenstein,  G. Kedziora,  F. J. Keil,  
 C. Kelley,  Jihan Kim,  R. A. King,  R. Z. Khaliullin,  P. P. Korambath,  
 W. Kurlancheek,  A. Laurent,  A. M. Lee,  M. S. Lee,  S. V. Levchenko,  
 Ching Yeh Lin,  D. Liotard,  E. Livshits,  R. C. Lochan,  I. Lotan,  
 L. A. Martinez-Martinez,  P. E. Maslen,  N. Nair,  D. P. O'Neill,  
 D. Neuhauser,  E. Neuscamman,  C. M. Oana,  R. Olivares-Amaya,  R. Olson,  
 T. M. Perrine,  B. Peters,  P. A. Pieniazek,  A. Prociuk,  Y. M. Rhee,  
 J. Ritchie,  M. A. Rohrdanz,  E. Rosta,  N. J. Russ,  H. F. Schaefer III,  
 M. W. Schmidt,  N. E. Schultz,  S. Sharma,  N. Shenvi,  C. D. Sherrill,  
 A. C. Simmonett,  A. Sodt,  T. Stein,  D. Stuck,  K. S. Thanthiriwatte,  
 V. Vanovschi,  L. Vogt,  Tao Wang,  A. Warshel,  M. A. Watson,  
 C. F. Williams,  Q. Wu,  X. Xu,  Jun Yang,  W. Zhang,  Yan Zhao

 Please cite Q-Chem as follows:
 Y. Shao et al., Mol. Phys. 113, 184-215 (2015)
 DOI: 10.1080/00268976.2014.952696

 Q-Chem 5.4.0 for Intel X86 EM64T Linux

 Parts of Q-Chem use Armadillo 9.800.1 (Horizon Scraper).
 http://arma.sourceforge.net/

 Q-Chem begins on Mon Jan  8 19:17:39 2024  

 Host: 
0

     Scratch files written to ./qchem1907911//
 May1621 |scratch|qcdevops|jenkins|workspace|build_RNUM    
 Parallel job on  1  processors
 Processing $rem in /cm/shared/apps/spack/cpu/opt/spack/linux-centos8-zen2/gcc-10.2.0/qchem-5.4-akfmr7b3t57bfs6qan3padb2wnb2i7cl/config/preferences:
 Processing $rem in /home/rramji/.qchemrc:
 Symmetry turned off for PCM/SM12/SMD calculation
 Core orbitals will be frozen

 Checking the input file for inconsistencies... 	...done.

 Q-Chem warning in module forms1/BasisType.C, line 2236:

 You are not using the predefined 5D/6D in this basis set.


--------------------------------------------------------------
User input:
--------------------------------------------------------------
$molecule
0 1
C	-0.296276	-8.517702	0.123330
C	0.631143	-7.641575	-0.421494
S	-1.628795	-7.638634	0.911611
C	0.305097	-6.264785	-0.233291
H	1.535988	-7.966081	-0.950737
C	-0.931114	-6.072714	0.478557
C	-1.405737	-4.787049	0.781346
C	1.097747	-5.162801	-0.664542
C	0.624993	-3.874817	-0.357854
C	-0.613970	-3.683952	0.352278
O	2.226300	-5.499772	-1.348709
O	-2.538827	-4.459055	1.469658
C	-3.663102	-5.329063	1.419319
H	-4.516756	-4.755694	1.828237
H	-3.520769	-6.238095	2.043793
H	-3.895546	-5.637262	0.377021
C	3.298492	-4.572261	-1.463351
H	4.152945	-5.139743	-1.878237
H	3.585804	-4.153131	-0.475176
H	3.058230	-3.739531	-2.159469
C	-0.935761	-2.306654	0.540664
S	1.330550	-2.306501	-0.780808
C	-0.000000	-1.435185	-0.000000
H	-1.840780	-1.978138	1.066946
H	-0.296494	-9.614033	0.127575
C	0.000000	0.000000	0.000000
S	0.581934	0.692785	1.507541
C	1.592155	1.897915	0.718873
C	0.581944	0.692363	-1.067872
C	1.473741	1.758764	-0.686410
S	0.427560	0.503942	-2.805516
C	1.549278	1.849357	-3.054530
C	2.002690	2.393529	-1.862551
F	2.858191	3.420549	-1.819088
C	1.838710	2.191348	-4.456084
O	1.349977	1.596481	-5.406510
O	2.701091	3.230705	-4.569225
C	3.023327	3.606605	-5.916207
H	3.725703	4.454534	-5.833064
H	2.112072	3.910035	-6.470168
H	3.495281	2.762996	-6.459293
H	2.185174	2.606846	1.306486
$end

$rem
JOBTYPE		SP
EXCHANGE	HF
CORRELATION	pRIMP2
BASIS		cc-pvtz
METHOD		rimp2
AUX_BASIS	rimp2-cc-pvtz
SOLVENT_METHOD	PCM
PURECART	11111
SYMMETRY	false
MEM_TOTAL	110000
SCF_CONVERGENCE = 6
THRESH=10
GUI = 2
$end



$solvent
dielectric 4.90
$end
--------------------------------------------------------------
 ----------------------------------------------------------------
             Standard Nuclear Orientation (Angstroms)
    I     Atom           X                Y                Z
 ----------------------------------------------------------------
    1      C      -0.2962760000    -8.5177020000     0.1233300000
    2      C       0.6311430000    -7.6415750000    -0.4214940000
    3      S      -1.6287950000    -7.6386340000     0.9116110000
    4      C       0.3050970000    -6.2647850000    -0.2332910000
    5      H       1.5359880000    -7.9660810000    -0.9507370000
    6      C      -0.9311140000    -6.0727140000     0.4785570000
    7      C      -1.4057370000    -4.7870490000     0.7813460000
    8      C       1.0977470000    -5.1628010000    -0.6645420000
    9      C       0.6249930000    -3.8748170000    -0.3578540000
   10      C      -0.6139700000    -3.6839520000     0.3522780000
   11      O       2.2263000000    -5.4997720000    -1.3487090000
   12      O      -2.5388270000    -4.4590550000     1.4696580000
   13      C      -3.6631020000    -5.3290630000     1.4193190000
   14      H      -4.5167560000    -4.7556940000     1.8282370000
   15      H      -3.5207690000    -6.2380950000     2.0437930000
   16      H      -3.8955460000    -5.6372620000     0.3770210000
   17      C       3.2984920000    -4.5722610000    -1.4633510000
   18      H       4.1529450000    -5.1397430000    -1.8782370000
   19      H       3.5858040000    -4.1531310000    -0.4751760000
   20      H       3.0582300000    -3.7395310000    -2.1594690000
   21      C      -0.9357610000    -2.3066540000     0.5406640000
   22      S       1.3305500000    -2.3065010000    -0.7808080000
   23      C       0.0000000000    -1.4351850000     0.0000000000
   24      H      -1.8407800000    -1.9781380000     1.0669460000
   25      H      -0.2964940000    -9.6140330000     0.1275750000
   26      C       0.0000000000     0.0000000000     0.0000000000
   27      S       0.5819340000     0.6927850000     1.5075410000
   28      C       1.5921550000     1.8979150000     0.7188730000
   29      C       0.5819440000     0.6923630000    -1.0678720000
   30      C       1.4737410000     1.7587640000    -0.6864100000
   31      S       0.4275600000     0.5039420000    -2.8055160000
   32      C       1.5492780000     1.8493570000    -3.0545300000
   33      C       2.0026900000     2.3935290000    -1.8625510000
   34      F       2.8581910000     3.4205490000    -1.8190880000
   35      C       1.8387100000     2.1913480000    -4.4560840000
   36      O       1.3499770000     1.5964810000    -5.4065100000
   37      O       2.7010910000     3.2307050000    -4.5692250000
   38      C       3.0233270000     3.6066050000    -5.9162070000
   39      H       3.7257030000     4.4545340000    -5.8330640000
   40      H       2.1120720000     3.9100350000    -6.4701680000
   41      H       3.4952810000     2.7629960000    -6.4592930000
   42      H       2.1851740000     2.6068460000     1.3064860000
 ----------------------------------------------------------------
 Nuclear Repulsion Energy =        3317.96775640 hartrees
 There are      119 alpha and      119 beta electrons
 Requested basis set is cc-pVTZ
 There are 376 shells and 1068 basis functions

 Total QAlloc Memory Limit 110000 MB
 Mega-Array Size       188 MB
 MEM_STATIC part       192 MB
 Discretize the solute cavity surface with Lebedev spheres
	Using 110 Lebedev grid points for each H atom
	Using 194 Lebedev grid points for other atoms
	Atomic van der Waals radii will be scaled by 1.20
 Remove points where switching function is < 1.0e-08
 Keep 2871 surface tesserae and discard 4185 interior tesserae
 Molecular Surface Area = 439.431 Angst**2
 Requested basis set is rimp2-cc-pVTZ
 There are 833 shells and 2903 basis functions
 A cutoff of  1.0D-10 yielded  31394 shell pairs
 There are    240724 function pairs (    312484 Cartesian)
 Smallest overlap matrix eigenvalue = 2.18E-05

 Scale SEOQF with 1.000000e-01/1.000000e-02/1.000000e-02

 Standard Electronic Orientation quadrupole field applied
 Nucleus-field energy     =     0.0000000447 hartrees
 Guess from superposition of atomic densities
 Warning:  Energy on first SCF cycle will be non-variational
 SAD guess density has 238.000000 electrons

 -----------------------------------------------------------------------
  General SCF calculation program by
  Eric Jon Sundstrom, Paul Horn, Yuezhi Mao, Dmitri Zuev, Alec White,
  David Stuck, Shaama M.S., Shane Yost, Joonho Lee, David Small,
  Daniel Levine, Susi Lehtola, Hugh Burton, Evgeny Epifanovsky,
  Bang C. Huynh
 -----------------------------------------------------------------------
 Hartree-Fock
 using 64 threads for integral computing
 -------------------------------------------------------
 OpenMP Integral computing Module                
 Release: version 1.0, May 2013, Q-Chem Inc. Pittsburgh 
 -------------------------------------------------------
 A restricted SCF calculation will be
 performed using DIIS
 SCF converges when DIIS error is below 1.0e-06
 ---------------------------------------
  Cycle       Energy         DIIS error
 ---------------------------------------
    1   -2765.2519924564      1.75e-02  
    2   -2753.8536452582      1.56e-03  
    3   -2754.1919727266      8.64e-04  
    4   -2754.2739699129      2.56e-04  
    5   -2754.2856357746      6.94e-05  
    6   -2754.2867186631      2.39e-05  
    7   -2754.2869549661      1.14e-05  
    8   -2754.2870327623      4.38e-06  
    9   -2754.2870478979      1.76e-06  
   10   -2754.2870498882      8.20e-07  Convergence criterion met
 ---------------------------------------
 SCF time:   CPU 6406.02s  wall 242.00s 

************** Final PCM Free Energy Summary **************
 G_electrostatic  =      -0.01937581 hartree =     -12.15850601 kcal/mol
 G_cavitation     =       0.00000000 hartree =       0.00000000 kcal/mol
 G_dispersion     =       0.00000000 hartree =       0.00000000 kcal/mol
 G_repulsion      =       0.00000000 hartree =       0.00000000 kcal/mol
 --------------------------------------------------
 Non-electrostatic Free Energy =       0.00000000 hartree =       0.00000000 kcal/mol
 Total                         =      -0.01937581 hartree =     -12.15850601 kcal/mol
 --------------------------------------------------
 SCF Energy (H0 + V/2)                       =   -2754.28704989 
 Solute Internal Energy (H0)                 =   -2754.26767408 
 Total Free Energy (H0 + V/2 + non-elec)     =   -2754.28704989 hartree
                                             = -1728341.20965749 kcal/mol
***********************************************************

 SCF   energy in the final basis set =    -2754.2870498882
 Total energy in the final basis set =    -2754.2870498882


 --------------------------------------------------------------
  Generalized many-body perturbation theory program
  by Joonho Lee, Fazle Rob, Xintian Feng, Evgeny Epifanovsky

 No regularization used 
 (reg. param. = 0.0000e+00)
  (P|Q)^-1/2 Time:  CPU 241.98 s  wall 4.16 s

 In RI-MP2 calculation: 
 # of frozen core orbitals: 45

 Components of the RIMP2 correlation energy:
        aaaa    correlation energy =        -0.6707768055 a.u.
        abab    correlation energy =        -3.7160895558 a.u.
        bbbb    correlation energy =        -0.6707768055 a.u.
        non-Brillouin singles      =        -0.0000000000 a.u.
        total same-spin energy     =        -1.3415536110 a.u.
        total opposite-spin energy =        -3.7160895558 a.u.

 Total  RIMP2   correlation energy =        -5.0576431668 a.u.
        RIMP2         total energy =     -2759.3446930550 a.u.

 RI-MP2 Energy Time:  CPU 3524.03 s  wall 61.09 s
 
 --------------------------------------------------------------
 
                    Orbital Energies (a.u.)
 --------------------------------------------------------------
 
 Alpha MOs
 -- Occupied --
-92.0144 -92.0018 -91.9858 -91.9851 -26.3441 -20.6150 -20.5913 -20.5899
-20.5614 -11.4097 -11.3837 -11.3203 -11.3176 -11.3151 -11.3076 -11.2977
-11.2904 -11.2890 -11.2863 -11.2861 -11.2853 -11.2845 -11.2829 -11.2825
-11.2781 -11.2581 -11.2566 -11.2489 -11.2489  -9.0131  -9.0017  -8.9863
 -8.9850  -6.6938  -6.6930  -6.6926  -6.6827  -6.6819  -6.6809  -6.6673
 -6.6666  -6.6660  -6.6656  -6.6654  -6.6645  -1.6612  -1.4675  -1.4153
 -1.4127  -1.3702  -1.2258  -1.1920  -1.1640  -1.1373  -1.0840  -1.0501
 -1.0425  -1.0242  -0.9996  -0.9866  -0.9638  -0.9582  -0.9493  -0.9392
 -0.8943  -0.8689  -0.8472  -0.8134  -0.7927  -0.7860  -0.7841  -0.7641
 -0.7554  -0.7321  -0.7261  -0.7105  -0.6989  -0.6855  -0.6822  -0.6807
 -0.6741  -0.6586  -0.6578  -0.6516  -0.6291  -0.6188  -0.6163  -0.6066
 -0.5985  -0.5851  -0.5764  -0.5682  -0.5646  -0.5617  -0.5545  -0.5439
 -0.5319  -0.5306  -0.5221  -0.5154  -0.5145  -0.5086  -0.5057  -0.4957
 -0.4881  -0.4815  -0.4750  -0.4736  -0.4684  -0.4642  -0.4590  -0.4074
 -0.3991  -0.3829  -0.3540  -0.3509  -0.3214  -0.2927  -0.2547
 -- Virtual --
  0.0295   0.0586   0.0921   0.1254   0.1360   0.1480   0.1521   0.1548
  0.1563   0.1587   0.1611   0.1729   0.1799   0.1822   0.1874   0.1920
  0.2041   0.2069   0.2133   0.2149   0.2208   0.2230   0.2244   0.2280
  0.2297   0.2399   0.2417   0.2476   0.2544   0.2642   0.2712   0.2725
  0.2849   0.3001   0.3138   0.3262   0.3340   0.3365   0.3421   0.3460
  0.3481   0.3536   0.3722   0.3760   0.3800   0.3836   0.3850   0.3882
  0.3888   0.3945   0.3978   0.4062   0.4092   0.4155   0.4194   0.4216
  0.4238   0.4271   0.4361   0.4433   0.4449   0.4525   0.4530   0.4570
  0.4629   0.4661   0.4693   0.4712   0.4740   0.4859   0.4868   0.4924
  0.4950   0.4971   0.5013   0.5059   0.5111   0.5150   0.5199   0.5240
  0.5279   0.5320   0.5363   0.5375   0.5427   0.5444   0.5479   0.5504
  0.5509   0.5576   0.5585   0.5622   0.5710   0.5719   0.5744   0.5784
  0.5872   0.5890   0.5972   0.5978   0.6041   0.6061   0.6064   0.6105
  0.6151   0.6166   0.6201   0.6218   0.6274   0.6292   0.6332   0.6365
  0.6382   0.6413   0.6461   0.6479   0.6520   0.6550   0.6606   0.6681
  0.6726   0.6803   0.6843   0.6905   0.6934   0.6982   0.7040   0.7055
  0.7144   0.7163   0.7201   0.7230   0.7269   0.7300   0.7366   0.7447
  0.7538   0.7586   0.7635   0.7660   0.7777   0.7835   0.7928   0.7975
  0.8059   0.8139   0.8163   0.8180   0.8221   0.8248   0.8305   0.8415
  0.8466   0.8536   0.8572   0.8602   0.8681   0.8744   0.8811   0.8831
  0.8882   0.8928   0.8981   0.9075   0.9123   0.9133   0.9230   0.9238
  0.9316   0.9371   0.9421   0.9427   0.9513   0.9554   0.9614   0.9696
  0.9750   0.9771   0.9794   0.9824   0.9908   0.9968   1.0005   1.0043
  1.0080   1.0137   1.0171   1.0191   1.0274   1.0281   1.0340   1.0364
  1.0418   1.0471   1.0563   1.0630   1.0662   1.0735   1.0781   1.0808
  1.0845   1.0860   1.0968   1.0986   1.1025   1.1075   1.1096   1.1136
  1.1171   1.1204   1.1305   1.1367   1.1420   1.1494   1.1507   1.1549
  1.1642   1.1691   1.1736   1.1744   1.1819   1.1866   1.1908   1.1957
  1.1990   1.2026   1.2063   1.2122   1.2181   1.2201   1.2232   1.2282
  1.2366   1.2398   1.2461   1.2506   1.2565   1.2652   1.2691   1.2712
  1.2715   1.2786   1.2822   1.2864   1.3027   1.3086   1.3157   1.3213
  1.3266   1.3332   1.3355   1.3466   1.3529   1.3660   1.3672   1.3742
  1.3765   1.3843   1.3921   1.3982   1.4008   1.4063   1.4105   1.4156
  1.4250   1.4366   1.4433   1.4626   1.4761   1.4782   1.4851   1.4857
  1.4933   1.4967   1.5021   1.5092   1.5113   1.5190   1.5250   1.5349
  1.5364   1.5385   1.5391   1.5438   1.5501   1.5561   1.5645   1.5707
  1.5741   1.5832   1.5862   1.5929   1.5991   1.6049   1.6125   1.6305
  1.6386   1.6426   1.6510   1.6564   1.6664   1.6697   1.6757   1.6787
  1.6875   1.6969   1.7022   1.7050   1.7112   1.7307   1.7348   1.7388
  1.7526   1.7553   1.7676   1.7849   1.7908   1.8022   1.8114   1.8180
  1.8222   1.8289   1.8334   1.8423   1.8586   1.8664   1.8694   1.8776
  1.8785   1.8897   1.8977   1.9038   1.9071   1.9136   1.9292   1.9319
  1.9370   1.9460   1.9534   1.9666   1.9717   1.9744   1.9850   1.9864
  1.9951   2.0016   2.0056   2.0169   2.0261   2.0320   2.0459   2.0549
  2.0579   2.0818   2.0844   2.0965   2.1018   2.1189   2.1273   2.1376
  2.1444   2.1606   2.1648   2.1699   2.1762   2.1809   2.1886   2.1924
  2.1988   2.2014   2.2061   2.2204   2.2267   2.2304   2.2397   2.2447
  2.2462   2.2542   2.2646   2.2709   2.2791   2.2841   2.2926   2.2944
  2.2965   2.3057   2.3126   2.3202   2.3366   2.3431   2.3564   2.3669
  2.3695   2.3737   2.3788   2.3936   2.3964   2.4096   2.4175   2.4244
  2.4306   2.4375   2.4428   2.4484   2.4559   2.4784   2.4824   2.4868
  2.4972   2.5017   2.5086   2.5259   2.5273   2.5345   2.5433   2.5535
  2.5599   2.5699   2.5783   2.5853   2.5991   2.6123   2.6171   2.6214
  2.6264   2.6290   2.6353   2.6400   2.6426   2.6508   2.6569   2.6647
  2.6728   2.6765   2.6885   2.6961   2.7006   2.7035   2.7073   2.7146
  2.7228   2.7286   2.7297   2.7436   2.7474   2.7568   2.7643   2.7821
  2.7843   2.7870   2.7918   2.7987   2.8047   2.8115   2.8151   2.8231
  2.8307   2.8358   2.8389   2.8456   2.8522   2.8544   2.8696   2.8723
  2.8779   2.8822   2.8903   2.8935   2.9011   2.9136   2.9207   2.9375
  2.9433   2.9526   2.9553   2.9617   2.9661   2.9788   2.9839   2.9995
  3.0078   3.0092   3.0170   3.0234   3.0253   3.0321   3.0345   3.0429
  3.0459   3.0494   3.0630   3.0706   3.0847   3.0941   3.0954   3.0972
  3.1020   3.1055   3.1110   3.1187   3.1211   3.1250   3.1313   3.1412
  3.1506   3.1539   3.1564   3.1633   3.1661   3.1738   3.1810   3.1863
  3.1900   3.1949   3.1995   3.2115   3.2138   3.2173   3.2197   3.2240
  3.2311   3.2369   3.2452   3.2482   3.2497   3.2559   3.2624   3.2686
  3.2728   3.2773   3.2850   3.2890   3.2917   3.2940   3.2986   3.3035
  3.3103   3.3184   3.3261   3.3303   3.3349   3.3411   3.3469   3.3504
  3.3509   3.3569   3.3610   3.3626   3.3665   3.3679   3.3769   3.3798
  3.3832   3.3901   3.3915   3.3975   3.4022   3.4065   3.4155   3.4206
  3.4236   3.4273   3.4295   3.4371   3.4442   3.4459   3.4515   3.4590
  3.4629   3.4638   3.4664   3.4703   3.4734   3.4787   3.4877   3.4935
  3.5005   3.5040   3.5130   3.5167   3.5216   3.5301   3.5320   3.5363
  3.5398   3.5441   3.5568   3.5595   3.5630   3.5749   3.5794   3.5826
  3.5879   3.5928   3.5957   3.5977   3.6013   3.6059   3.6064   3.6202
  3.6268   3.6308   3.6382   3.6408   3.6459   3.6545   3.6624   3.6651
  3.6715   3.6758   3.6804   3.6834   3.6853   3.6931   3.6971   3.7054
  3.7074   3.7154   3.7196   3.7231   3.7303   3.7376   3.7404   3.7471
  3.7513   3.7574   3.7602   3.7726   3.7763   3.7769   3.7886   3.7948
  3.7964   3.7999   3.8038   3.8077   3.8084   3.8123   3.8144   3.8281
  3.8339   3.8381   3.8495   3.8560   3.8598   3.8619   3.8654   3.8696
  3.8764   3.8835   3.8869   3.8911   3.8997   3.9060   3.9132   3.9154
  3.9257   3.9316   3.9330   3.9492   3.9585   3.9691   3.9721   3.9816
  3.9863   3.9906   3.9985   4.0066   4.0140   4.0231   4.0267   4.0369
  4.0480   4.0561   4.0624   4.0681   4.0747   4.0874   4.0897   4.0941
  4.1074   4.1169   4.1229   4.1321   4.1389   4.1456   4.1509   4.1611
  4.1633   4.1643   4.1674   4.1705   4.1842   4.1853   4.1904   4.2014
  4.2068   4.2117   4.2188   4.2309   4.2409   4.2497   4.2540   4.2642
  4.2690   4.2857   4.3026   4.3077   4.3228   4.3295   4.3400   4.3418
  4.3538   4.3596   4.3612   4.3708   4.3779   4.3817   4.3902   4.4010
  4.4048   4.4100   4.4123   4.4262   4.4283   4.4331   4.4429   4.4530
  4.4548   4.4688   4.4741   4.4921   4.4971   4.5022   4.5134   4.5246
  4.5286   4.5433   4.5470   4.5543   4.5609   4.5765   4.5793   4.5897
  4.6001   4.6069   4.6169   4.6255   4.6403   4.6411   4.6490   4.6562
  4.6658   4.6762   4.6778   4.6860   4.7025   4.7101   4.7302   4.7441
  4.7463   4.7569   4.7613   4.7713   4.7828   4.7887   4.8059   4.8192
  4.8301   4.8419   4.8444   4.8543   4.8652   4.8778   4.8966   4.9141
  4.9215   4.9482   4.9493   4.9594   4.9652   4.9694   4.9774   4.9904
  5.0065   5.0087   5.0120   5.0256   5.0405   5.0441   5.0607   5.0762
  5.0868   5.0931   5.1128   5.1224   5.1604   5.1706   5.1744   5.1954
  5.2062   5.2183   5.2425   5.2482   5.2519   5.2540   5.2574   5.2848
  5.2976   5.3113   5.3192   5.3283   5.3440   5.3505   5.3578   5.3644
  5.3740   5.3982   5.4004   5.4044   5.4259   5.4265   5.4456   5.4648
  5.4678   5.4848   5.4952   5.5081   5.5123   5.5192   5.5359   5.5553
  5.5772   5.5809   5.5842   5.6065   5.6215   5.6279   5.6378   5.6622
  5.7144   5.7231   5.7505   5.7706   5.8073   5.8166   5.8375   5.8559
  5.8731   5.8804   5.9051   5.9290   5.9321   5.9801   5.9920   6.0418
  6.0468   6.0703   6.0949   6.1503   6.1575   6.1719   6.1777   6.1852
  6.2279   6.2478   6.2613   6.2630   6.2791   6.2902   6.2988   6.3280
  6.4134   6.4436   6.4499   6.4751   6.5393   6.5496   6.5574   6.6011
  6.6545   6.6613   6.6711   6.6966   6.7449   6.8000   6.8295   6.8384
  6.8594   6.8938   6.9780   7.1231   7.1363   7.2038   7.2046   7.2169
  7.2349   7.3098   7.3209   7.3318   7.3624   7.3627   7.4051   7.4132
  7.4796   7.4848   7.4885   7.5206   7.5496   7.6142   7.7114   7.7722
  7.7890   7.7971   7.8963   7.9188   7.9442   7.9619   8.1012   8.1342
  8.4207   8.9212   9.0249   9.3623   9.4805   9.6632  10.1827  10.4981
 11.2023  11.4163  11.7680  11.9717  12.1261  12.1660  12.4194  12.5706
 12.6741  12.9328  13.0003  13.2417  13.3559  13.3860  13.7730  13.8478
 13.9042  14.0139  14.0347  14.4176  15.2036
 --------------------------------------------------------------
 
          Ground-State Mulliken Net Atomic Charges

     Atom                 Charge (a.u.)
  ----------------------------------------
      1 C                    -0.191614
      2 C                    -0.254100
      3 S                    -0.024919
      4 C                    -0.017590
      5 H                     0.195900
      6 C                    -0.025411
      7 C                     0.233534
      8 C                     0.240493
      9 C                    -0.043866
     10 C                    -0.008296
     11 O                    -0.333423
     12 O                    -0.340301
     13 C                    -0.085646
     14 H                     0.121983
     15 H                     0.090630
     16 H                     0.093799
     17 C                    -0.087700
     18 H                     0.125069
     19 H                     0.093841
     20 H                     0.090397
     21 C                    -0.258979
     22 S                    -0.010536
     23 C                    -0.026025
     24 H                     0.195043
     25 H                     0.205783
     26 C                    -0.038025
     27 S                     0.122810
     28 C                    -0.166247
     29 C                    -0.062532
     30 C                    -0.074415
     31 S                     0.047588
     32 C                    -0.150546
     33 C                     0.394057
     34 F                    -0.206160
     35 C                     0.446433
     36 O                    -0.461404
     37 O                    -0.301001
     38 C                    -0.058328
     39 H                     0.121364
     40 H                     0.095292
     41 H                     0.095055
     42 H                     0.217997
  ----------------------------------------
  Sum of atomic charges =     0.000000

 -----------------------------------------------------------------
                    Cartesian Multipole Moments
 -----------------------------------------------------------------
    Charge (ESU x 10^10)
                 0.0000
    Dipole Moment (Debye)
         X       2.2987      Y       1.4466      Z       2.4873
       Tot       3.6829
    Quadrupole Moments (Debye-Ang)
        XX    -172.3789     XY       8.8588     YY    -169.6976
        XZ     -11.4459     YZ      -4.1698     ZZ    -203.4716
    Octopole Moments (Debye-Ang^2)
       XXX    -300.0034    XXY     332.1589    XYY     -89.3793
       YYY     977.7147    XXZ     142.5999    XYZ       2.6806
       YYZ     127.3845    XZZ     -39.9639    YZZ     489.0037
       ZZZ     533.6621
    Hexadecapole Moments (Debye-Ang^3)
      XXXX   -3327.5388   XXXY   -1272.7233   XXYY   -3692.4624
      XYYY   -1221.3709   YYYY  -18207.0545   XXXZ    1297.3409
      XXYZ     362.7400   XYYZ     187.1506   YYYZ    1298.0636
      XXZZ   -1281.6151   XYZZ    -163.1170   YYZZ   -4282.7583
      XZZZ    1162.3224   YZZZ    1032.1178   ZZZZ   -5914.2744
 -----------------------------------------------------------------
 Total job time:  329.86s(wall), 10132.41s(cpu) 
 Mon Jan  8 19:23:09 2024

        *************************************************************
        *                                                           *
        *  Thank you very much for using Q-Chem.  Have a nice day.  *
        *                                                           *
        *************************************************************


0 sent ACK to 0 
now end server 0 ... 
cleanup process ... done
remove work dirs ./qchem1907911.0 -- ./qchem1907911.0
rm -rf ./qchem1907911.0
rm -rf ./qchem1907911
