You are running Q-Chem version: 5.4.0

#
# job setting
#
local host:  exp-7-31
current dir: /home/rramji/project-csd799/aromodel/ptb7fout-qchem/rotation-run
input file:  Dimethoxy_Benzodithiophene_Phi_15_Theta_150_Methylcarbonyl_3_Fluoro_Thienothiophene.qcin
output file: 
nprocs     : 1
nthreads   : 64
#
# qchem installation setting
#
QC:          /cm/shared/apps/spack/cpu/opt/spack/linux-centos8-zen2/gcc-10.2.0/qchem-5.4-akfmr7b3t57bfs6qan3padb2wnb2i7cl
QCAUX:       /cm/shared/apps/spack/cpu/opt/spack/linux-centos8-zen2/gcc-10.2.0/qchem-5.4-akfmr7b3t57bfs6qan3padb2wnb2i7cl/qcaux
QCPROG:      /cm/shared/apps/spack/cpu/opt/spack/linux-centos8-zen2/gcc-10.2.0/qchem-5.4-akfmr7b3t57bfs6qan3padb2wnb2i7cl/exe/qcprog.exe
QCPROG_S:    /cm/shared/apps/spack/cpu/opt/spack/linux-centos8-zen2/gcc-10.2.0/qchem-5.4-akfmr7b3t57bfs6qan3padb2wnb2i7cl/exe/qcprog.exe_s
PARALLEL:    -DPARALLEL
QCMPI:       mpich
#
# qchem directory setting
#
qcrun:       qchem3976089
QCSCRATCH:   .
QCLOCALSCR:  
QCTMPDIR:    .
QCFILEPREF:  ./qchem3976089
QCSAVEDIR:   
workdirs:    ./qchem3976089
workdir0:    ./qchem3976089
partmpdirs =  
#
# parallel setting
#
QCRSH:           ssh
QCMPI:           mpich
QCMPIRUN:        /cm/shared/apps/spack/cpu/opt/spack/linux-centos8-zen2/gcc-10.2.0/qchem-5.4-akfmr7b3t57bfs6qan3padb2wnb2i7cl/bin/mpi/mpirun_qchem
QCMACHINEFILE:   ./qchem3976089/hostfile
exp-7-31

#
# env setting
#
exported envs:   QC QCAUX QCSCRATCH QCRUNNAME QCFILEPREF QCPROG QCPROG_S GUIFILE

Running Job 1 of 1 Dimethoxy_Benzodithiophene_Phi_15_Theta_150_Methylcarbonyl_3_Fluoro_Thienothiophene.qcin
qchem Dimethoxy_Benzodithiophene_Phi_15_Theta_150_Methylcarbonyl_3_Fluoro_Thienothiophene.qcin_3976089.0 ./qchem3976089/ 1
/cm/shared/apps/spack/cpu/opt/spack/linux-centos8-zen2/gcc-10.2.0/qchem-5.4-akfmr7b3t57bfs6qan3padb2wnb2i7cl/bin/mpi/mpirun_qchem -machinefile ./qchem3976089/hostfile -np 1 /cm/shared/apps/spack/cpu/opt/spack/linux-centos8-zen2/gcc-10.2.0/qchem-5.4-akfmr7b3t57bfs6qan3padb2wnb2i7cl/exe/qcprog.exe Dimethoxy_Benzodithiophene_Phi_15_Theta_150_Methylcarbonyl_3_Fluoro_Thienothiophene.qcin_3976089.0 ./qchem3976089/

Process 0 of 1 is on exp-7-31 - thread support 0
initial socket setup ...start
initial socket setup ...done 
now start server 0 ... 
                  Welcome to Q-Chem
     A Quantum Leap Into The Future Of Chemistry


 Q-Chem 5.4, Q-Chem, Inc., Pleasanton, CA (2021)

 License issued to: University of California, San Diego (site)

 E. Epifanovsky,  A. T. B. Gilbert,  Xintian Feng,  Joonho Lee,  Yuezhi Mao,  
 N. Mardirossian,  P. Pokhilko,  A. White,  M. Wormit,  M. P. Coons,  
 A. L. Dempwolff,  Zhengting Gan,  D. Hait,  P. R. Horn,  L. D. Jacobson,  
 I. Kaliman,  J. Kussmann,  A. W. Lange,  Ka Un Lao,  D. S. Levine,  Jie Liu,  
 S. C. McKenzie,  A. F. Morrison,  K. Nanda,  F. Plasser,  D. R. Rehn,  
 M. L. Vidal,  Zhi-Qiang You,  Ying Zhu,  B. Alam,  B. Albrecht,  
 A. Aldossary,  E. Alguire,  J. H. Andersen,  D. Barton,  K. Begam,  A. Behn,  
 Y. A. Bernard,  E. J. Berquist,  H. Burton,  A. Carreras,  K. Carter-Fenk,  
 R. Chakraborty,  A. D. Chien,  K. D. Closser,  V. Cofer-Shabica,  
 S. Dasgupta,  Jia Deng,  M. de Wergifosse,  M. Diedenhofen,  Hainam Do,  
 S. Ehlert,  Po-Tung Fang,  S. Fatehi,  Qingguo Feng,  J. Gayvert,  
 Qinghui Ge,  G. Gidofalvi,  M. Goldey,  J. Gomes,  C. Gonzalez-Espinoza,  
 S. Gulania,  A. Gunina,  M. W. D. Hanson-Heine,  P. H. P. Harbach,  
 A. W. Hauser,  M. F. Herbst,  M. Hernandez Vera,  M. Hodecker,  
 Z. C. Holden,  S. Houck,  Xunkun Huang,  Kerwin Hui,  B. C. Huynh,  
 M. Ivanov,  Hyunjun Ji,  Hanjie Jiang,  B. Kaduk,  S. Kaehler,  
 K. Khistyaev,  Jaehoon Kim,  P. Klunzinger,  Z. Koczor-Benda,  
 Joong Hoon Koh,  D. Kosenkov,  L. Koulias,  T. Kowalczyk,  C. M. Krauter,  
 K. Kue,  A. Kunitsa,  T. Kus,  A. Landau,  K. V. Lawler,  D. Lefrancois,  
 S. Lehtola,  Rain Li,  Yi-Pei Li,  Jiashu Liang,  M. Liebenthal,  
 Hung-Hsuan Lin,  You-Sheng Lin,  Fenglai Liu,  Kuan-Yu Liu,  
 M. Loipersberger,  A. Luenser,  A. Manjanath,  P. Manohar,  E. Mansoor,  
 S. F. Manzer,  Shan-Ping Mao,  A. V. Marenich,  T. Markovich,  S. Mason,  
 S. A. Maurer,  P. F. McLaughlin,  M. F. S. J. Menger,  J.-M. Mewes,  
 S. A. Mewes,  P. Morgante,  J. W. Mullinax,  T. S. Nguyen-Beck,  
 K. J. Oosterbaan,  G. Paran,  Alexander C. Paul,  Suranjan K. Paul,  
 F. Pavosevic,  Zheng Pei,  S. Prager,  E. I. Proynov,  E. Ramos,  B. Rana,  
 A. E. Rask,  A. Rettig,  R. M. Richard,  F. Rob,  E. Rossomme,  T. Scheele,  
 M. Scheurer,  M. Schneider,  N. Sergueev,  S. M. Sharada,  W. Skomorowski,  
 D. W. Small,  C. J. Stein,  Yu-Chuan Su,  E. J. Sundstrom,  Zhen Tao,  
 J. Thirman,  T. Tsuchimochi,  N. M. Tubman,  S. P. Veccham,  O. Vydrov,  
 J. Wenzel,  J. Witte,  A. Yamada,  Kun Yao,  S. Yeganeh,  S. R. Yost,  
 A. Zech,  Igor Ying Zhang,  Xing Zhang,  Yu Zhang,  D. Zuev,  
 A. Aspuru-Guzik,  A. T. Bell,  N. A. Besley,  K. B. Bravaya,  B. R. Brooks,  
 D. Casanova,  Jeng-Da Chai,  S. Coriani,  C. J. Cramer,  
 A. E. DePrince, III,  R. A. DiStasio Jr.,  A. Dreuw,  B. D. Dunietz,  
 T. R. Furlani,  W. A. Goddard III,  S. Grimme,  S. Hammes-Schiffer,  
 T. Head-Gordon,  W. J. Hehre,  Chao-Ping Hsu,  T.-C. Jagau,  Yousung Jung,  
 A. Klamt,  Jing Kong,  D. S. Lambrecht,  WanZhen Liang,  N. J. Mayhall,  
 C. W. McCurdy,  J. B. Neaton,  C. Ochsenfeld,  J. A. Parkhill,  R. Peverati,  
 V. A. Rassolov,  Yihan Shao,  L. V. Slipchenko,  T. Stauch,  R. P. Steele,  
 J. E. Subotnik,  A. J. W. Thom,  A. Tkatchenko,  D. G. Truhlar,  
 T. Van Voorhis,  T. A. Wesolowski,  K. B. Whaley,  H. L. Woodcock III,  
 P. M. Zimmerman,  S. Faraji,  P. M. W. Gill,  M. Head-Gordon,  
 J. M. Herbert,  A. I. Krylov

 Contributors to earlier versions of Q-Chem not listed above: 
 R. D. Adamson,  B. Austin,  R. Baer,  J. Baker,  G. J. O. Beran,  
 K. Brandhorst,  S. T. Brown,  E. F. C. Byrd,  A. K. Chakraborty,  
 G. K. L. Chan,  Chun-Min Chang,  Yunqing Chen,  C.-L. Cheng,  
 Siu Hung Chien,  D. M. Chipman,  D. L. Crittenden,  H. Dachsel,  
 R. J. Doerksen,  A. D. Dutoi,  R. G. Edgar,  J. Fosso-Tande,  
 L. Fusti-Molnar,  D. Ghosh,  A. Ghysels,  A. Golubeva-Zadorozhnaya,  
 J. Gonthier,  M. S. Gordon,  S. R. Gwaltney,  G. Hawkins,  J. E. Herr,  
 A. Heyden,  S. Hirata,  E. G. Hohenstein,  G. Kedziora,  F. J. Keil,  
 C. Kelley,  Jihan Kim,  R. A. King,  R. Z. Khaliullin,  P. P. Korambath,  
 W. Kurlancheek,  A. Laurent,  A. M. Lee,  M. S. Lee,  S. V. Levchenko,  
 Ching Yeh Lin,  D. Liotard,  E. Livshits,  R. C. Lochan,  I. Lotan,  
 L. A. Martinez-Martinez,  P. E. Maslen,  N. Nair,  D. P. O'Neill,  
 D. Neuhauser,  E. Neuscamman,  C. M. Oana,  R. Olivares-Amaya,  R. Olson,  
 T. M. Perrine,  B. Peters,  P. A. Pieniazek,  A. Prociuk,  Y. M. Rhee,  
 J. Ritchie,  M. A. Rohrdanz,  E. Rosta,  N. J. Russ,  H. F. Schaefer III,  
 M. W. Schmidt,  N. E. Schultz,  S. Sharma,  N. Shenvi,  C. D. Sherrill,  
 A. C. Simmonett,  A. Sodt,  T. Stein,  D. Stuck,  K. S. Thanthiriwatte,  
 V. Vanovschi,  L. Vogt,  Tao Wang,  A. Warshel,  M. A. Watson,  
 C. F. Williams,  Q. Wu,  X. Xu,  Jun Yang,  W. Zhang,  Yan Zhao

 Please cite Q-Chem as follows:
 Y. Shao et al., Mol. Phys. 113, 184-215 (2015)
 DOI: 10.1080/00268976.2014.952696

 Q-Chem 5.4.0 for Intel X86 EM64T Linux

 Parts of Q-Chem use Armadillo 9.800.1 (Horizon Scraper).
 http://arma.sourceforge.net/

 Q-Chem begins on Mon Jan  8 20:02:19 2024  

 Host: 
0

     Scratch files written to ./qchem3976089//
 May1621 |scratch|qcdevops|jenkins|workspace|build_RNUM    
 Parallel job on  1  processors
 Processing $rem in /cm/shared/apps/spack/cpu/opt/spack/linux-centos8-zen2/gcc-10.2.0/qchem-5.4-akfmr7b3t57bfs6qan3padb2wnb2i7cl/config/preferences:
 Processing $rem in /home/rramji/.qchemrc:
 Symmetry turned off for PCM/SM12/SMD calculation
 Core orbitals will be frozen

 Checking the input file for inconsistencies... 	...done.

 Q-Chem warning in module forms1/BasisType.C, line 2236:

 You are not using the predefined 5D/6D in this basis set.


--------------------------------------------------------------
User input:
--------------------------------------------------------------
$molecule
0 1
C	-0.123330	-8.517702	-0.296276
C	0.421494	-7.641575	0.631143
S	-0.911611	-7.638634	-1.628795
C	0.233291	-6.264785	0.305097
H	0.950737	-7.966081	1.535988
C	-0.478557	-6.072714	-0.931114
C	-0.781346	-4.787049	-1.405737
C	0.664542	-5.162801	1.097747
C	0.357854	-3.874817	0.624993
C	-0.352278	-3.683952	-0.613970
O	1.348709	-5.499772	2.226300
O	-1.469658	-4.459055	-2.538827
C	-1.419319	-5.329063	-3.663102
H	-1.828237	-4.755694	-4.516756
H	-2.043793	-6.238095	-3.520769
H	-0.377021	-5.637262	-3.895546
C	1.463351	-4.572261	3.298492
H	1.878237	-5.139743	4.152945
H	0.475176	-4.153131	3.585804
H	2.159469	-3.739531	3.058230
C	-0.540664	-2.306654	-0.935761
S	0.780808	-2.306501	1.330550
C	0.000000	-1.435185	0.000000
H	-1.066946	-1.978138	-1.840780
H	-0.127575	-9.614033	-0.296494
C	0.000000	0.000000	0.000000
S	0.234628	0.873813	1.507541
C	0.640889	2.392969	0.718873
C	0.234815	0.873434	-1.067872
C	0.592377	2.216811	-0.686410
S	0.174526	0.637422	-2.805516
C	0.622551	2.330840	-3.054530
C	0.803505	3.015647	-1.862551
F	1.144815	4.307994	-1.819088
C	0.740334	2.763108	-4.456084
O	0.548793	2.017428	-5.406510
O	1.082665	4.069544	-4.569225
C	1.215848	4.546407	-5.916207
H	1.494066	5.611729	-5.833064
H	0.261736	4.436296	-6.470168
H	2.000108	3.981294	-6.459293
H	0.878739	3.286099	1.306486
$end

$rem
JOBTYPE		SP
EXCHANGE	HF
CORRELATION	pRIMP2
BASIS		cc-pvtz
METHOD		rimp2
AUX_BASIS	rimp2-cc-pvtz
SOLVENT_METHOD	PCM
PURECART	11111
SYMMETRY	false
MEM_TOTAL	110000
SCF_CONVERGENCE = 6
THRESH=10
GUI = 2
$end



$solvent
dielectric 4.90
$end
--------------------------------------------------------------
 ----------------------------------------------------------------
             Standard Nuclear Orientation (Angstroms)
    I     Atom           X                Y                Z
 ----------------------------------------------------------------
    1      C      -0.1233300000    -8.5177020000    -0.2962760000
    2      C       0.4214940000    -7.6415750000     0.6311430000
    3      S      -0.9116110000    -7.6386340000    -1.6287950000
    4      C       0.2332910000    -6.2647850000     0.3050970000
    5      H       0.9507370000    -7.9660810000     1.5359880000
    6      C      -0.4785570000    -6.0727140000    -0.9311140000
    7      C      -0.7813460000    -4.7870490000    -1.4057370000
    8      C       0.6645420000    -5.1628010000     1.0977470000
    9      C       0.3578540000    -3.8748170000     0.6249930000
   10      C      -0.3522780000    -3.6839520000    -0.6139700000
   11      O       1.3487090000    -5.4997720000     2.2263000000
   12      O      -1.4696580000    -4.4590550000    -2.5388270000
   13      C      -1.4193190000    -5.3290630000    -3.6631020000
   14      H      -1.8282370000    -4.7556940000    -4.5167560000
   15      H      -2.0437930000    -6.2380950000    -3.5207690000
   16      H      -0.3770210000    -5.6372620000    -3.8955460000
   17      C       1.4633510000    -4.5722610000     3.2984920000
   18      H       1.8782370000    -5.1397430000     4.1529450000
   19      H       0.4751760000    -4.1531310000     3.5858040000
   20      H       2.1594690000    -3.7395310000     3.0582300000
   21      C      -0.5406640000    -2.3066540000    -0.9357610000
   22      S       0.7808080000    -2.3065010000     1.3305500000
   23      C       0.0000000000    -1.4351850000     0.0000000000
   24      H      -1.0669460000    -1.9781380000    -1.8407800000
   25      H      -0.1275750000    -9.6140330000    -0.2964940000
   26      C       0.0000000000     0.0000000000     0.0000000000
   27      S       0.2346280000     0.8738130000     1.5075410000
   28      C       0.6408890000     2.3929690000     0.7188730000
   29      C       0.2348150000     0.8734340000    -1.0678720000
   30      C       0.5923770000     2.2168110000    -0.6864100000
   31      S       0.1745260000     0.6374220000    -2.8055160000
   32      C       0.6225510000     2.3308400000    -3.0545300000
   33      C       0.8035050000     3.0156470000    -1.8625510000
   34      F       1.1448150000     4.3079940000    -1.8190880000
   35      C       0.7403340000     2.7631080000    -4.4560840000
   36      O       0.5487930000     2.0174280000    -5.4065100000
   37      O       1.0826650000     4.0695440000    -4.5692250000
   38      C       1.2158480000     4.5464070000    -5.9162070000
   39      H       1.4940660000     5.6117290000    -5.8330640000
   40      H       0.2617360000     4.4362960000    -6.4701680000
   41      H       2.0001080000     3.9812940000    -6.4592930000
   42      H       0.8787390000     3.2860990000     1.3064860000
 ----------------------------------------------------------------
 Nuclear Repulsion Energy =        3283.24661422 hartrees
 There are      119 alpha and      119 beta electrons
 Requested basis set is cc-pVTZ
 There are 376 shells and 1068 basis functions

 Total QAlloc Memory Limit 110000 MB
 Mega-Array Size       188 MB
 MEM_STATIC part       192 MB
 Discretize the solute cavity surface with Lebedev spheres
	Using 110 Lebedev grid points for each H atom
	Using 194 Lebedev grid points for other atoms
	Atomic van der Waals radii will be scaled by 1.20
 Remove points where switching function is < 1.0e-08
 Keep 2900 surface tesserae and discard 4156 interior tesserae
 Molecular Surface Area = 438.202 Angst**2
 Requested basis set is rimp2-cc-pVTZ
 There are 833 shells and 2903 basis functions
 A cutoff of  1.0D-10 yielded  30896 shell pairs
 There are    237312 function pairs (    308157 Cartesian)
 Smallest overlap matrix eigenvalue = 2.20E-05

 Scale SEOQF with 1.000000e-01/1.000000e-02/1.000000e-02

 Standard Electronic Orientation quadrupole field applied
 Nucleus-field energy     =     0.0000000215 hartrees
 Guess from superposition of atomic densities
 Warning:  Energy on first SCF cycle will be non-variational
 SAD guess density has 238.000000 electrons

 -----------------------------------------------------------------------
  General SCF calculation program by
  Eric Jon Sundstrom, Paul Horn, Yuezhi Mao, Dmitri Zuev, Alec White,
  David Stuck, Shaama M.S., Shane Yost, Joonho Lee, David Small,
  Daniel Levine, Susi Lehtola, Hugh Burton, Evgeny Epifanovsky,
  Bang C. Huynh
 -----------------------------------------------------------------------
 Hartree-Fock
 using 64 threads for integral computing
 -------------------------------------------------------
 OpenMP Integral computing Module                
 Release: version 1.0, May 2013, Q-Chem Inc. Pittsburgh 
 -------------------------------------------------------
 A restricted SCF calculation will be
 performed using DIIS
 SCF converges when DIIS error is below 1.0e-06
 ---------------------------------------
  Cycle       Energy         DIIS error
 ---------------------------------------
    1   -2765.2286317304      1.75e-02  
    2   -2753.8789956546      1.56e-03  
    3   -2754.2182898653      8.62e-04  
    4   -2754.2998333650      2.56e-04  
    5   -2754.3114784717      6.93e-05  
    6   -2754.3125609992      2.37e-05  
    7   -2754.3127959446      1.14e-05  
    8   -2754.3128732141      4.25e-06  
    9   -2754.3128878288      1.70e-06  
   10   -2754.3128896489      7.21e-07  Convergence criterion met
 ---------------------------------------
 SCF time:   CPU 6296.43s  wall 244.00s 

************** Final PCM Free Energy Summary **************
 G_electrostatic  =      -0.01857888 hartree =     -11.65842195 kcal/mol
 G_cavitation     =       0.00000000 hartree =       0.00000000 kcal/mol
 G_dispersion     =       0.00000000 hartree =       0.00000000 kcal/mol
 G_repulsion      =       0.00000000 hartree =       0.00000000 kcal/mol
 --------------------------------------------------
 Non-electrostatic Free Energy =       0.00000000 hartree =       0.00000000 kcal/mol
 Total                         =      -0.01857888 hartree =     -11.65842195 kcal/mol
 --------------------------------------------------
 SCF Energy (H0 + V/2)                       =   -2754.31288965 
 Solute Internal Energy (H0)                 =   -2754.29431077 
 Total Free Energy (H0 + V/2 + non-elec)     =   -2754.31288965 hartree
                                             = -1728357.42435207 kcal/mol
***********************************************************

 SCF   energy in the final basis set =    -2754.3128896489
 Total energy in the final basis set =    -2754.3128896489


 --------------------------------------------------------------
  Generalized many-body perturbation theory program
  by Joonho Lee, Fazle Rob, Xintian Feng, Evgeny Epifanovsky

 No regularization used 
 (reg. param. = 0.0000e+00)
  (P|Q)^-1/2 Time:  CPU 181.39 s  wall 2.89 s

 In RI-MP2 calculation: 
 # of frozen core orbitals: 45

 Components of the RIMP2 correlation energy:
        aaaa    correlation energy =        -0.6699812025 a.u.
        abab    correlation energy =        -3.7127122183 a.u.
        bbbb    correlation energy =        -0.6699812025 a.u.
        non-Brillouin singles      =        -0.0000000000 a.u.
        total same-spin energy     =        -1.3399624049 a.u.
        total opposite-spin energy =        -3.7127122183 a.u.

 Total  RIMP2   correlation energy =        -5.0526746232 a.u.
        RIMP2         total energy =     -2759.3655642721 a.u.

 RI-MP2 Energy Time:  CPU 4180.89 s  wall 67.77 s
 
 --------------------------------------------------------------
 
                    Orbital Energies (a.u.)
 --------------------------------------------------------------
 
 Alpha MOs
 -- Occupied --
-92.0159 -91.9993 -91.9915 -91.9861 -26.3435 -20.6148 -20.5929 -20.5906
-20.5613 -11.4095 -11.3827 -11.3199 -11.3168 -11.3111 -11.3016 -11.2997
-11.2977 -11.2966 -11.2888 -11.2877 -11.2860 -11.2858 -11.2853 -11.2840
-11.2792 -11.2616 -11.2583 -11.2545 -11.2498  -9.0146  -8.9992  -8.9920
 -8.9860  -6.6954  -6.6948  -6.6943  -6.6802  -6.6795  -6.6784  -6.6730
 -6.6723  -6.6713  -6.6670  -6.6664  -6.6655  -1.6605  -1.4673  -1.4169
 -1.4134  -1.3700  -1.2224  -1.1947  -1.1661  -1.1368  -1.0853  -1.0520
 -1.0420  -1.0237  -1.0018  -0.9883  -0.9638  -0.9599  -0.9504  -0.9392
 -0.8964  -0.8682  -0.8519  -0.8085  -0.7984  -0.7877  -0.7863  -0.7643
 -0.7554  -0.7340  -0.7254  -0.7100  -0.7018  -0.6854  -0.6832  -0.6808
 -0.6739  -0.6593  -0.6583  -0.6523  -0.6305  -0.6197  -0.6170  -0.6030
 -0.5984  -0.5866  -0.5783  -0.5706  -0.5655  -0.5602  -0.5557  -0.5481
 -0.5356  -0.5307  -0.5222  -0.5183  -0.5168  -0.5113  -0.5051  -0.4951
 -0.4877  -0.4809  -0.4763  -0.4742  -0.4691  -0.4671  -0.4613  -0.4225
 -0.3963  -0.3847  -0.3596  -0.3496  -0.3254  -0.2908  -0.2516
 -- Virtual --
  0.0258   0.0609   0.1093   0.1252   0.1334   0.1482   0.1553   0.1560
  0.1583   0.1607   0.1648   0.1732   0.1823   0.1873   0.1886   0.1972
  0.2009   0.2054   0.2151   0.2199   0.2217   0.2222   0.2247   0.2275
  0.2359   0.2385   0.2437   0.2498   0.2609   0.2623   0.2738   0.2809
  0.2958   0.3049   0.3245   0.3340   0.3382   0.3418   0.3464   0.3503
  0.3533   0.3589   0.3680   0.3765   0.3837   0.3846   0.3865   0.3897
  0.3927   0.3945   0.4004   0.4065   0.4086   0.4153   0.4191   0.4248
  0.4320   0.4375   0.4402   0.4459   0.4486   0.4489   0.4547   0.4572
  0.4632   0.4658   0.4708   0.4754   0.4762   0.4852   0.4887   0.4940
  0.4981   0.5002   0.5028   0.5091   0.5127   0.5142   0.5171   0.5193
  0.5285   0.5298   0.5331   0.5365   0.5419   0.5458   0.5485   0.5517
  0.5546   0.5579   0.5590   0.5606   0.5680   0.5697   0.5724   0.5807
  0.5843   0.5884   0.5929   0.5978   0.6018   0.6077   0.6123   0.6144
  0.6160   0.6162   0.6175   0.6214   0.6228   0.6257   0.6326   0.6342
  0.6352   0.6419   0.6463   0.6511   0.6546   0.6564   0.6649   0.6671
  0.6746   0.6794   0.6827   0.6843   0.6901   0.7009   0.7034   0.7092
  0.7115   0.7189   0.7219   0.7247   0.7345   0.7371   0.7432   0.7489
  0.7533   0.7570   0.7654   0.7705   0.7800   0.7868   0.7919   0.8000
  0.8048   0.8065   0.8157   0.8194   0.8240   0.8296   0.8428   0.8496
  0.8508   0.8585   0.8617   0.8649   0.8718   0.8741   0.8786   0.8847
  0.8866   0.8949   0.8981   0.9094   0.9102   0.9186   0.9215   0.9250
  0.9305   0.9380   0.9412   0.9452   0.9503   0.9537   0.9618   0.9694
  0.9701   0.9755   0.9828   0.9858   0.9938   0.9959   1.0005   1.0016
  1.0044   1.0119   1.0173   1.0202   1.0256   1.0326   1.0380   1.0418
  1.0452   1.0471   1.0572   1.0635   1.0655   1.0737   1.0749   1.0794
  1.0820   1.0900   1.0942   1.0953   1.0990   1.1042   1.1073   1.1134
  1.1182   1.1194   1.1279   1.1333   1.1378   1.1487   1.1534   1.1556
  1.1666   1.1704   1.1717   1.1804   1.1821   1.1862   1.1887   1.1933
  1.2001   1.2062   1.2122   1.2163   1.2190   1.2203   1.2243   1.2315
  1.2349   1.2391   1.2446   1.2490   1.2548   1.2618   1.2659   1.2725
  1.2764   1.2854   1.2882   1.2887   1.2978   1.3058   1.3092   1.3159
  1.3241   1.3261   1.3338   1.3421   1.3465   1.3587   1.3621   1.3645
  1.3726   1.3825   1.3874   1.3932   1.4021   1.4082   1.4132   1.4237
  1.4264   1.4372   1.4421   1.4528   1.4642   1.4714   1.4826   1.4906
  1.4931   1.5014   1.5030   1.5093   1.5117   1.5137   1.5274   1.5293
  1.5321   1.5369   1.5390   1.5409   1.5446   1.5522   1.5601   1.5632
  1.5737   1.5788   1.5850   1.5918   1.6053   1.6121   1.6253   1.6290
  1.6414   1.6441   1.6489   1.6576   1.6610   1.6654   1.6723   1.6818
  1.6870   1.6957   1.7006   1.7105   1.7177   1.7259   1.7362   1.7476
  1.7594   1.7712   1.7726   1.7889   1.7903   1.8007   1.8103   1.8107
  1.8188   1.8275   1.8365   1.8444   1.8606   1.8635   1.8720   1.8737
  1.8768   1.8951   1.9076   1.9091   1.9150   1.9188   1.9251   1.9326
  1.9392   1.9446   1.9494   1.9578   1.9604   1.9750   1.9834   1.9890
  1.9947   1.9980   2.0055   2.0159   2.0230   2.0380   2.0506   2.0575
  2.0671   2.0818   2.0911   2.1005   2.1090   2.1183   2.1299   2.1412
  2.1536   2.1620   2.1648   2.1695   2.1777   2.1872   2.1904   2.1935
  2.1942   2.2004   2.2098   2.2161   2.2185   2.2320   2.2348   2.2408
  2.2460   2.2497   2.2540   2.2620   2.2690   2.2730   2.2855   2.2877
  2.3022   2.3055   2.3123   2.3173   2.3328   2.3455   2.3494   2.3531
  2.3642   2.3703   2.3811   2.3832   2.3975   2.4020   2.4177   2.4260
  2.4309   2.4342   2.4443   2.4574   2.4665   2.4681   2.4810   2.4867
  2.4960   2.5008   2.5088   2.5246   2.5370   2.5453   2.5516   2.5530
  2.5557   2.5742   2.5831   2.5997   2.6013   2.6125   2.6166   2.6204
  2.6227   2.6289   2.6373   2.6381   2.6427   2.6441   2.6625   2.6677
  2.6780   2.6822   2.6873   2.6936   2.6991   2.7051   2.7082   2.7116
  2.7175   2.7267   2.7325   2.7382   2.7461   2.7506   2.7617   2.7701
  2.7820   2.7855   2.7905   2.7944   2.8011   2.8098   2.8146   2.8164
  2.8361   2.8375   2.8412   2.8441   2.8492   2.8578   2.8692   2.8713
  2.8765   2.8773   2.8869   2.8880   2.8944   2.9081   2.9164   2.9390
  2.9475   2.9504   2.9587   2.9620   2.9734   2.9816   2.9825   2.9928
  3.0004   3.0095   3.0144   3.0203   3.0236   3.0285   3.0336   3.0371
  3.0480   3.0530   3.0577   3.0650   3.0802   3.0857   3.0919   3.0979
  3.1041   3.1044   3.1112   3.1135   3.1170   3.1262   3.1344   3.1420
  3.1455   3.1524   3.1534   3.1632   3.1648   3.1666   3.1795   3.1824
  3.1906   3.1919   3.2038   3.2109   3.2170   3.2187   3.2224   3.2277
  3.2309   3.2420   3.2482   3.2570   3.2586   3.2597   3.2646   3.2735
  3.2747   3.2763   3.2836   3.2858   3.2906   3.2975   3.2994   3.3047
  3.3142   3.3163   3.3256   3.3274   3.3324   3.3407   3.3465   3.3486
  3.3530   3.3536   3.3553   3.3663   3.3673   3.3684   3.3696   3.3773
  3.3778   3.3861   3.3906   3.3911   3.3986   3.4057   3.4108   3.4141
  3.4169   3.4230   3.4337   3.4409   3.4422   3.4484   3.4499   3.4536
  3.4548   3.4612   3.4669   3.4698   3.4741   3.4784   3.4803   3.4920
  3.4978   3.5090   3.5120   3.5170   3.5204   3.5277   3.5315   3.5332
  3.5394   3.5427   3.5515   3.5534   3.5589   3.5645   3.5718   3.5740
  3.5776   3.5859   3.5893   3.5954   3.6007   3.6022   3.6078   3.6143
  3.6209   3.6247   3.6342   3.6349   3.6404   3.6496   3.6528   3.6562
  3.6633   3.6672   3.6717   3.6778   3.6830   3.6898   3.6949   3.6997
  3.7038   3.7045   3.7064   3.7113   3.7198   3.7263   3.7315   3.7364
  3.7473   3.7525   3.7531   3.7537   3.7646   3.7753   3.7787   3.7887
  3.7911   3.7935   3.8010   3.8050   3.8078   3.8151   3.8200   3.8226
  3.8327   3.8379   3.8420   3.8501   3.8526   3.8621   3.8692   3.8734
  3.8769   3.8790   3.8860   3.8912   3.8917   3.9063   3.9154   3.9200
  3.9297   3.9316   3.9435   3.9489   3.9514   3.9631   3.9654   3.9774
  3.9828   3.9903   3.9938   4.0056   4.0129   4.0189   4.0300   4.0380
  4.0526   4.0588   4.0647   4.0684   4.0753   4.0780   4.0803   4.0930
  4.0973   4.1127   4.1139   4.1242   4.1366   4.1381   4.1439   4.1502
  4.1564   4.1638   4.1669   4.1717   4.1761   4.1827   4.1895   4.1952
  4.2067   4.2178   4.2243   4.2290   4.2388   4.2500   4.2572   4.2723
  4.2786   4.2871   4.2952   4.3107   4.3254   4.3264   4.3402   4.3420
  4.3587   4.3629   4.3674   4.3716   4.3787   4.3870   4.3878   4.4045
  4.4053   4.4082   4.4129   4.4272   4.4305   4.4328   4.4380   4.4440
  4.4568   4.4688   4.4841   4.4936   4.4955   4.5021   4.5070   4.5231
  4.5343   4.5419   4.5459   4.5530   4.5592   4.5671   4.5799   4.5840
  4.5985   4.6081   4.6136   4.6216   4.6267   4.6465   4.6493   4.6542
  4.6645   4.6705   4.6770   4.6882   4.6957   4.7105   4.7238   4.7289
  4.7385   4.7448   4.7541   4.7703   4.7799   4.7924   4.8012   4.8194
  4.8268   4.8342   4.8505   4.8586   4.8705   4.8817   4.9022   4.9062
  4.9309   4.9430   4.9522   4.9630   4.9692   4.9746   4.9926   5.0011
  5.0058   5.0090   5.0101   5.0253   5.0385   5.0560   5.0608   5.0713
  5.0895   5.1040   5.1190   5.1291   5.1539   5.1653   5.1735   5.1992
  5.2058   5.2246   5.2441   5.2514   5.2543   5.2587   5.2597   5.2850
  5.2962   5.3125   5.3159   5.3247   5.3325   5.3509   5.3561   5.3646
  5.3727   5.3979   5.3998   5.4101   5.4262   5.4345   5.4391   5.4638
  5.4850   5.4863   5.5055   5.5064   5.5142   5.5303   5.5455   5.5699
  5.5768   5.5835   5.5868   5.6062   5.6216   5.6249   5.6466   5.6646
  5.7171   5.7338   5.7537   5.7691   5.8075   5.8144   5.8352   5.8543
  5.8728   5.8820   5.9097   5.9291   5.9657   5.9675   5.9983   6.0420
  6.0551   6.0882   6.1162   6.1505   6.1608   6.1704   6.1784   6.1843
  6.2410   6.2508   6.2614   6.2704   6.2816   6.2893   6.3118   6.3616
  6.4251   6.4456   6.4501   6.4886   6.5393   6.5482   6.5578   6.6034
  6.6550   6.6615   6.6711   6.6993   6.7461   6.8009   6.8301   6.8410
  6.8595   6.8923   6.9778   7.1205   7.1365   7.2039   7.2062   7.2155
  7.2347   7.3098   7.3206   7.3319   7.3630   7.3637   7.4057   7.4133
  7.4786   7.4855   7.4887   7.5241   7.5510   7.6171   7.7099   7.7728
  7.7886   7.7963   7.8909   7.9181   7.9404   7.9598   8.0821   8.1353
  8.4787   8.9218   9.0174   9.3628   9.4732   9.6488  10.0737  10.6334
 11.1720  11.4674  11.7832  11.9788  12.1308  12.1851  12.4205  12.5661
 12.6811  12.9447  13.0562  13.1626  13.2991  13.3857  13.7717  13.8478
 13.9024  14.0210  14.0391  14.6039  15.2008
 --------------------------------------------------------------
 
          Ground-State Mulliken Net Atomic Charges

     Atom                 Charge (a.u.)
  ----------------------------------------
      1 C                    -0.189915
      2 C                    -0.254278
      3 S                    -0.022076
      4 C                    -0.015994
      5 H                     0.196082
      6 C                    -0.026705
      7 C                     0.241498
      8 C                     0.240268
      9 C                    -0.044398
     10 C                    -0.022883
     11 O                    -0.332847
     12 O                    -0.340383
     13 C                    -0.085912
     14 H                     0.123260
     15 H                     0.090974
     16 H                     0.093960
     17 C                    -0.088030
     18 H                     0.125546
     19 H                     0.094728
     20 H                     0.089672
     21 C                    -0.243983
     22 S                    -0.023924
     23 C                    -0.030342
     24 H                     0.196291
     25 H                     0.206222
     26 C                     0.003339
     27 S                     0.081034
     28 C                    -0.177863
     29 C                     0.031927
     30 C                    -0.115351
     31 S                     0.008384
     32 C                    -0.154864
     33 C                     0.396023
     34 F                    -0.206275
     35 C                     0.445570
     36 O                    -0.460689
     37 O                    -0.300784
     38 C                    -0.058442
     39 H                     0.121393
     40 H                     0.095103
     41 H                     0.095131
     42 H                     0.219536
  ----------------------------------------
  Sum of atomic charges =     0.000000

 -----------------------------------------------------------------
                    Cartesian Multipole Moments
 -----------------------------------------------------------------
    Charge (ESU x 10^10)
                 0.0000
    Dipole Moment (Debye)
         X       1.0502      Y       1.2060      Z       2.9810
       Tot       3.3829
    Quadrupole Moments (Debye-Ang)
        XX    -199.1005     XY       2.8598     YY    -161.2340
        XZ       5.0150     YZ      -6.5535     ZZ    -183.0320
    Octopole Moments (Debye-Ang^2)
       XXX    -124.4976    XXY     381.9089    XYY     -25.1698
       YYY     868.3208    XXZ     189.3592    XYZ     -50.7540
       YYZ     119.0779    XZZ     -19.2063    YZZ     363.8176
       ZZZ     597.7213
    Hexadecapole Moments (Debye-Ang^3)
      XXXX    -989.0956   XXXY    -663.6208   XXYY   -4025.9452
      XYYY    -585.6617   YYYY  -19109.7154   XXXZ     -74.6339
      XXYZ     313.7009   XYYZ      87.7281   YYYZ     818.8231
      XXZZ   -1294.1964   XYZZ     -49.7986   YYZZ   -3966.3048
      XZZZ     -79.4555   YZZZ     548.8544   ZZZZ   -7085.2551
 -----------------------------------------------------------------
 Total job time:  315.25s(wall), 10589.64s(cpu) 
 Mon Jan  8 20:07:35 2024

        *************************************************************
        *                                                           *
        *  Thank you very much for using Q-Chem.  Have a nice day.  *
        *                                                           *
        *************************************************************


0 sent ACK to 0 
now end server 0 ... 
cleanup process ... done
remove work dirs ./qchem3976089.0 -- ./qchem3976089.0
rm -rf ./qchem3976089.0
rm -rf ./qchem3976089
