You are running Q-Chem version: 5.4.0

#
# job setting
#
local host:  exp-7-09
current dir: /home/rramji/project-csd799/aromodel/ptb7fout-qchem/rotation-run
input file:  Dimethoxy_Benzodithiophene_Phi_10_Theta_200_Methylcarbonyl_3_Fluoro_Thienothiophene.qcin
output file: 
nprocs     : 1
nthreads   : 64
#
# qchem installation setting
#
QC:          /cm/shared/apps/spack/cpu/opt/spack/linux-centos8-zen2/gcc-10.2.0/qchem-5.4-akfmr7b3t57bfs6qan3padb2wnb2i7cl
QCAUX:       /cm/shared/apps/spack/cpu/opt/spack/linux-centos8-zen2/gcc-10.2.0/qchem-5.4-akfmr7b3t57bfs6qan3padb2wnb2i7cl/qcaux
QCPROG:      /cm/shared/apps/spack/cpu/opt/spack/linux-centos8-zen2/gcc-10.2.0/qchem-5.4-akfmr7b3t57bfs6qan3padb2wnb2i7cl/exe/qcprog.exe
QCPROG_S:    /cm/shared/apps/spack/cpu/opt/spack/linux-centos8-zen2/gcc-10.2.0/qchem-5.4-akfmr7b3t57bfs6qan3padb2wnb2i7cl/exe/qcprog.exe_s
PARALLEL:    -DPARALLEL
QCMPI:       mpich
#
# qchem directory setting
#
qcrun:       qchem30570
QCSCRATCH:   .
QCLOCALSCR:  
QCTMPDIR:    .
QCFILEPREF:  ./qchem30570
QCSAVEDIR:   
workdirs:    ./qchem30570
workdir0:    ./qchem30570
partmpdirs =  
#
# parallel setting
#
QCRSH:           ssh
QCMPI:           mpich
QCMPIRUN:        /cm/shared/apps/spack/cpu/opt/spack/linux-centos8-zen2/gcc-10.2.0/qchem-5.4-akfmr7b3t57bfs6qan3padb2wnb2i7cl/bin/mpi/mpirun_qchem
QCMACHINEFILE:   ./qchem30570/hostfile
exp-7-09

#
# env setting
#
exported envs:   QC QCAUX QCSCRATCH QCRUNNAME QCFILEPREF QCPROG QCPROG_S GUIFILE

Running Job 1 of 1 Dimethoxy_Benzodithiophene_Phi_10_Theta_200_Methylcarbonyl_3_Fluoro_Thienothiophene.qcin
qchem Dimethoxy_Benzodithiophene_Phi_10_Theta_200_Methylcarbonyl_3_Fluoro_Thienothiophene.qcin_30570.0 ./qchem30570/ 1
/cm/shared/apps/spack/cpu/opt/spack/linux-centos8-zen2/gcc-10.2.0/qchem-5.4-akfmr7b3t57bfs6qan3padb2wnb2i7cl/bin/mpi/mpirun_qchem -machinefile ./qchem30570/hostfile -np 1 /cm/shared/apps/spack/cpu/opt/spack/linux-centos8-zen2/gcc-10.2.0/qchem-5.4-akfmr7b3t57bfs6qan3padb2wnb2i7cl/exe/qcprog.exe Dimethoxy_Benzodithiophene_Phi_10_Theta_200_Methylcarbonyl_3_Fluoro_Thienothiophene.qcin_30570.0 ./qchem30570/

Process 0 of 1 is on exp-7-09 - thread support 0
initial socket setup ...start
initial socket setup ...done 
now start server 0 ... 
                  Welcome to Q-Chem
     A Quantum Leap Into The Future Of Chemistry


 Q-Chem 5.4, Q-Chem, Inc., Pleasanton, CA (2021)

 License issued to: University of California, San Diego (site)

 E. Epifanovsky,  A. T. B. Gilbert,  Xintian Feng,  Joonho Lee,  Yuezhi Mao,  
 N. Mardirossian,  P. Pokhilko,  A. White,  M. Wormit,  M. P. Coons,  
 A. L. Dempwolff,  Zhengting Gan,  D. Hait,  P. R. Horn,  L. D. Jacobson,  
 I. Kaliman,  J. Kussmann,  A. W. Lange,  Ka Un Lao,  D. S. Levine,  Jie Liu,  
 S. C. McKenzie,  A. F. Morrison,  K. Nanda,  F. Plasser,  D. R. Rehn,  
 M. L. Vidal,  Zhi-Qiang You,  Ying Zhu,  B. Alam,  B. Albrecht,  
 A. Aldossary,  E. Alguire,  J. H. Andersen,  D. Barton,  K. Begam,  A. Behn,  
 Y. A. Bernard,  E. J. Berquist,  H. Burton,  A. Carreras,  K. Carter-Fenk,  
 R. Chakraborty,  A. D. Chien,  K. D. Closser,  V. Cofer-Shabica,  
 S. Dasgupta,  Jia Deng,  M. de Wergifosse,  M. Diedenhofen,  Hainam Do,  
 S. Ehlert,  Po-Tung Fang,  S. Fatehi,  Qingguo Feng,  J. Gayvert,  
 Qinghui Ge,  G. Gidofalvi,  M. Goldey,  J. Gomes,  C. Gonzalez-Espinoza,  
 S. Gulania,  A. Gunina,  M. W. D. Hanson-Heine,  P. H. P. Harbach,  
 A. W. Hauser,  M. F. Herbst,  M. Hernandez Vera,  M. Hodecker,  
 Z. C. Holden,  S. Houck,  Xunkun Huang,  Kerwin Hui,  B. C. Huynh,  
 M. Ivanov,  Hyunjun Ji,  Hanjie Jiang,  B. Kaduk,  S. Kaehler,  
 K. Khistyaev,  Jaehoon Kim,  P. Klunzinger,  Z. Koczor-Benda,  
 Joong Hoon Koh,  D. Kosenkov,  L. Koulias,  T. Kowalczyk,  C. M. Krauter,  
 K. Kue,  A. Kunitsa,  T. Kus,  A. Landau,  K. V. Lawler,  D. Lefrancois,  
 S. Lehtola,  Rain Li,  Yi-Pei Li,  Jiashu Liang,  M. Liebenthal,  
 Hung-Hsuan Lin,  You-Sheng Lin,  Fenglai Liu,  Kuan-Yu Liu,  
 M. Loipersberger,  A. Luenser,  A. Manjanath,  P. Manohar,  E. Mansoor,  
 S. F. Manzer,  Shan-Ping Mao,  A. V. Marenich,  T. Markovich,  S. Mason,  
 S. A. Maurer,  P. F. McLaughlin,  M. F. S. J. Menger,  J.-M. Mewes,  
 S. A. Mewes,  P. Morgante,  J. W. Mullinax,  T. S. Nguyen-Beck,  
 K. J. Oosterbaan,  G. Paran,  Alexander C. Paul,  Suranjan K. Paul,  
 F. Pavosevic,  Zheng Pei,  S. Prager,  E. I. Proynov,  E. Ramos,  B. Rana,  
 A. E. Rask,  A. Rettig,  R. M. Richard,  F. Rob,  E. Rossomme,  T. Scheele,  
 M. Scheurer,  M. Schneider,  N. Sergueev,  S. M. Sharada,  W. Skomorowski,  
 D. W. Small,  C. J. Stein,  Yu-Chuan Su,  E. J. Sundstrom,  Zhen Tao,  
 J. Thirman,  T. Tsuchimochi,  N. M. Tubman,  S. P. Veccham,  O. Vydrov,  
 J. Wenzel,  J. Witte,  A. Yamada,  Kun Yao,  S. Yeganeh,  S. R. Yost,  
 A. Zech,  Igor Ying Zhang,  Xing Zhang,  Yu Zhang,  D. Zuev,  
 A. Aspuru-Guzik,  A. T. Bell,  N. A. Besley,  K. B. Bravaya,  B. R. Brooks,  
 D. Casanova,  Jeng-Da Chai,  S. Coriani,  C. J. Cramer,  
 A. E. DePrince, III,  R. A. DiStasio Jr.,  A. Dreuw,  B. D. Dunietz,  
 T. R. Furlani,  W. A. Goddard III,  S. Grimme,  S. Hammes-Schiffer,  
 T. Head-Gordon,  W. J. Hehre,  Chao-Ping Hsu,  T.-C. Jagau,  Yousung Jung,  
 A. Klamt,  Jing Kong,  D. S. Lambrecht,  WanZhen Liang,  N. J. Mayhall,  
 C. W. McCurdy,  J. B. Neaton,  C. Ochsenfeld,  J. A. Parkhill,  R. Peverati,  
 V. A. Rassolov,  Yihan Shao,  L. V. Slipchenko,  T. Stauch,  R. P. Steele,  
 J. E. Subotnik,  A. J. W. Thom,  A. Tkatchenko,  D. G. Truhlar,  
 T. Van Voorhis,  T. A. Wesolowski,  K. B. Whaley,  H. L. Woodcock III,  
 P. M. Zimmerman,  S. Faraji,  P. M. W. Gill,  M. Head-Gordon,  
 J. M. Herbert,  A. I. Krylov

 Contributors to earlier versions of Q-Chem not listed above: 
 R. D. Adamson,  B. Austin,  R. Baer,  J. Baker,  G. J. O. Beran,  
 K. Brandhorst,  S. T. Brown,  E. F. C. Byrd,  A. K. Chakraborty,  
 G. K. L. Chan,  Chun-Min Chang,  Yunqing Chen,  C.-L. Cheng,  
 Siu Hung Chien,  D. M. Chipman,  D. L. Crittenden,  H. Dachsel,  
 R. J. Doerksen,  A. D. Dutoi,  R. G. Edgar,  J. Fosso-Tande,  
 L. Fusti-Molnar,  D. Ghosh,  A. Ghysels,  A. Golubeva-Zadorozhnaya,  
 J. Gonthier,  M. S. Gordon,  S. R. Gwaltney,  G. Hawkins,  J. E. Herr,  
 A. Heyden,  S. Hirata,  E. G. Hohenstein,  G. Kedziora,  F. J. Keil,  
 C. Kelley,  Jihan Kim,  R. A. King,  R. Z. Khaliullin,  P. P. Korambath,  
 W. Kurlancheek,  A. Laurent,  A. M. Lee,  M. S. Lee,  S. V. Levchenko,  
 Ching Yeh Lin,  D. Liotard,  E. Livshits,  R. C. Lochan,  I. Lotan,  
 L. A. Martinez-Martinez,  P. E. Maslen,  N. Nair,  D. P. O'Neill,  
 D. Neuhauser,  E. Neuscamman,  C. M. Oana,  R. Olivares-Amaya,  R. Olson,  
 T. M. Perrine,  B. Peters,  P. A. Pieniazek,  A. Prociuk,  Y. M. Rhee,  
 J. Ritchie,  M. A. Rohrdanz,  E. Rosta,  N. J. Russ,  H. F. Schaefer III,  
 M. W. Schmidt,  N. E. Schultz,  S. Sharma,  N. Shenvi,  C. D. Sherrill,  
 A. C. Simmonett,  A. Sodt,  T. Stein,  D. Stuck,  K. S. Thanthiriwatte,  
 V. Vanovschi,  L. Vogt,  Tao Wang,  A. Warshel,  M. A. Watson,  
 C. F. Williams,  Q. Wu,  X. Xu,  Jun Yang,  W. Zhang,  Yan Zhao

 Please cite Q-Chem as follows:
 Y. Shao et al., Mol. Phys. 113, 184-215 (2015)
 DOI: 10.1080/00268976.2014.952696

 Q-Chem 5.4.0 for Intel X86 EM64T Linux

 Parts of Q-Chem use Armadillo 9.800.1 (Horizon Scraper).
 http://arma.sourceforge.net/

 Q-Chem begins on Tue Jan  9 01:10:31 2024  

 Host: 
0

     Scratch files written to ./qchem30570//
 May1621 |scratch|qcdevops|jenkins|workspace|build_RNUM    
 Parallel job on  1  processors
 Processing $rem in /cm/shared/apps/spack/cpu/opt/spack/linux-centos8-zen2/gcc-10.2.0/qchem-5.4-akfmr7b3t57bfs6qan3padb2wnb2i7cl/config/preferences:
 Processing $rem in /home/rramji/.qchemrc:
 Symmetry turned off for PCM/SM12/SMD calculation
 Core orbitals will be frozen

 Checking the input file for inconsistencies... 	...done.

 Q-Chem warning in module forms1/BasisType.C, line 2236:

 You are not using the predefined 5D/6D in this basis set.


--------------------------------------------------------------
User input:
--------------------------------------------------------------
$molecule
0 1
C	0.147685	-8.517702	-0.284919
C	-0.212552	-7.641575	0.728574
S	0.661757	-7.638634	-1.745304
C	-0.083761	-6.264785	0.374824
H	-0.565513	-7.966081	1.715621
C	0.405665	-6.072714	-0.965104
C	0.574617	-4.787049	-1.502136
C	-0.413763	-5.162801	1.214687
C	-0.248748	-3.874817	0.675870
C	0.243888	-3.683952	-0.664513
O	-0.838511	-5.499772	2.464209
O	1.000176	-4.459055	-2.757750
C	1.893778	-5.329063	-3.441858
H	2.284868	-4.755694	-4.303826
H	1.383341	-6.238095	-3.828743
H	2.741817	-5.637262	-2.792824
C	-1.586168	-4.572261	3.241222
H	-1.974033	-5.139743	4.108274
H	-2.441448	-4.153131	2.668916
H	-0.954660	-3.739531	3.620041
C	0.369302	-2.306654	-1.015668
S	-0.517367	-2.306501	1.453394
C	-0.000000	-1.435185	-0.000000
H	0.724300	-1.978138	-2.000559
H	0.145124	-9.614033	-0.288311
C	0.000000	0.000000	0.000000
S	0.157577	0.890937	1.507541
C	0.429889	2.439720	0.718873
C	0.157797	0.890576	-1.067872
C	0.396915	2.260004	-0.686410
S	0.118307	0.650207	-2.805516
C	0.417036	2.376229	-3.054530
C	0.537616	3.074202	-1.862551
F	0.764992	4.391378	-1.819088
C	0.496696	2.817118	-4.456084
O	0.370874	2.057582	-5.406510
O	0.723861	4.148418	-4.569225
C	0.814976	4.635075	-5.916207
H	0.999286	5.720591	-5.833064
H	-0.125909	4.442226	-6.470168
H	1.645504	4.140465	-6.459293
H	0.588993	3.350182	1.306486
$end

$rem
JOBTYPE		SP
EXCHANGE	HF
CORRELATION	pRIMP2
BASIS		cc-pvtz
METHOD		rimp2
AUX_BASIS	rimp2-cc-pvtz
SOLVENT_METHOD	PCM
PURECART	11111
SYMMETRY	false
MEM_TOTAL	110000
SCF_CONVERGENCE = 6
THRESH=10
GUI = 2
$end



$solvent
dielectric 4.90
$end
--------------------------------------------------------------
 ----------------------------------------------------------------
             Standard Nuclear Orientation (Angstroms)
    I     Atom           X                Y                Z
 ----------------------------------------------------------------
    1      C       0.1476850000    -8.5177020000    -0.2849190000
    2      C      -0.2125520000    -7.6415750000     0.7285740000
    3      S       0.6617570000    -7.6386340000    -1.7453040000
    4      C      -0.0837610000    -6.2647850000     0.3748240000
    5      H      -0.5655130000    -7.9660810000     1.7156210000
    6      C       0.4056650000    -6.0727140000    -0.9651040000
    7      C       0.5746170000    -4.7870490000    -1.5021360000
    8      C      -0.4137630000    -5.1628010000     1.2146870000
    9      C      -0.2487480000    -3.8748170000     0.6758700000
   10      C       0.2438880000    -3.6839520000    -0.6645130000
   11      O      -0.8385110000    -5.4997720000     2.4642090000
   12      O       1.0001760000    -4.4590550000    -2.7577500000
   13      C       1.8937780000    -5.3290630000    -3.4418580000
   14      H       2.2848680000    -4.7556940000    -4.3038260000
   15      H       1.3833410000    -6.2380950000    -3.8287430000
   16      H       2.7418170000    -5.6372620000    -2.7928240000
   17      C      -1.5861680000    -4.5722610000     3.2412220000
   18      H      -1.9740330000    -5.1397430000     4.1082740000
   19      H      -2.4414480000    -4.1531310000     2.6689160000
   20      H      -0.9546600000    -3.7395310000     3.6200410000
   21      C       0.3693020000    -2.3066540000    -1.0156680000
   22      S      -0.5173670000    -2.3065010000     1.4533940000
   23      C       0.0000000000    -1.4351850000     0.0000000000
   24      H       0.7243000000    -1.9781380000    -2.0005590000
   25      H       0.1451240000    -9.6140330000    -0.2883110000
   26      C       0.0000000000     0.0000000000     0.0000000000
   27      S       0.1575770000     0.8909370000     1.5075410000
   28      C       0.4298890000     2.4397200000     0.7188730000
   29      C       0.1577970000     0.8905760000    -1.0678720000
   30      C       0.3969150000     2.2600040000    -0.6864100000
   31      S       0.1183070000     0.6502070000    -2.8055160000
   32      C       0.4170360000     2.3762290000    -3.0545300000
   33      C       0.5376160000     3.0742020000    -1.8625510000
   34      F       0.7649920000     4.3913780000    -1.8190880000
   35      C       0.4966960000     2.8171180000    -4.4560840000
   36      O       0.3708740000     2.0575820000    -5.4065100000
   37      O       0.7238610000     4.1484180000    -4.5692250000
   38      C       0.8149760000     4.6350750000    -5.9162070000
   39      H       0.9992860000     5.7205910000    -5.8330640000
   40      H      -0.1259090000     4.4422260000    -6.4701680000
   41      H       1.6455040000     4.1404650000    -6.4592930000
   42      H       0.5889930000     3.3501820000     1.3064860000
 ----------------------------------------------------------------
 Nuclear Repulsion Energy =        3281.31657576 hartrees
 There are      119 alpha and      119 beta electrons
 Requested basis set is cc-pVTZ
 There are 376 shells and 1068 basis functions

 Total QAlloc Memory Limit 110000 MB
 Mega-Array Size       188 MB
 MEM_STATIC part       192 MB
 Discretize the solute cavity surface with Lebedev spheres
	Using 110 Lebedev grid points for each H atom
	Using 194 Lebedev grid points for other atoms
	Atomic van der Waals radii will be scaled by 1.20
 Remove points where switching function is < 1.0e-08
 Keep 2905 surface tesserae and discard 4151 interior tesserae
 Molecular Surface Area = 437.221 Angst**2
 Requested basis set is rimp2-cc-pVTZ
 There are 833 shells and 2903 basis functions
 A cutoff of  1.0D-10 yielded  30883 shell pairs
 There are    237285 function pairs (    308146 Cartesian)
 Smallest overlap matrix eigenvalue = 2.11E-05

 Scale SEOQF with 1.000000e-01/1.000000e-02/1.000000e-02

 Standard Electronic Orientation quadrupole field applied
 Nucleus-field energy     =     0.0000000199 hartrees
 Guess from superposition of atomic densities
 Warning:  Energy on first SCF cycle will be non-variational
 SAD guess density has 238.000000 electrons

 -----------------------------------------------------------------------
  General SCF calculation program by
  Eric Jon Sundstrom, Paul Horn, Yuezhi Mao, Dmitri Zuev, Alec White,
  David Stuck, Shaama M.S., Shane Yost, Joonho Lee, David Small,
  Daniel Levine, Susi Lehtola, Hugh Burton, Evgeny Epifanovsky,
  Bang C. Huynh
 -----------------------------------------------------------------------
 Hartree-Fock
 using 64 threads for integral computing
 -------------------------------------------------------
 OpenMP Integral computing Module                
 Release: version 1.0, May 2013, Q-Chem Inc. Pittsburgh 
 -------------------------------------------------------
 A restricted SCF calculation will be
 performed using DIIS
 SCF converges when DIIS error is below 1.0e-06
 ---------------------------------------
  Cycle       Energy         DIIS error
 ---------------------------------------
    1   -2765.2319670430      1.75e-02  
    2   -2753.8810274493      1.56e-03  
    3   -2754.2205227126      8.62e-04  
    4   -2754.3020153150      2.56e-04  
    5   -2754.3136527413      6.93e-05  
    6   -2754.3147359059      2.37e-05  
    7   -2754.3149710105      1.14e-05  
    8   -2754.3150486535      4.27e-06  
    9   -2754.3150634217      1.73e-06  
   10   -2754.3150653190      7.52e-07  Convergence criterion met
 ---------------------------------------
 SCF time:   CPU 6127.14s  wall 234.00s 

************** Final PCM Free Energy Summary **************
 G_electrostatic  =      -0.01838866 hartree =     -11.53905959 kcal/mol
 G_cavitation     =       0.00000000 hartree =       0.00000000 kcal/mol
 G_dispersion     =       0.00000000 hartree =       0.00000000 kcal/mol
 G_repulsion      =       0.00000000 hartree =       0.00000000 kcal/mol
 --------------------------------------------------
 Non-electrostatic Free Energy =       0.00000000 hartree =       0.00000000 kcal/mol
 Total                         =      -0.01838866 hartree =     -11.53905959 kcal/mol
 --------------------------------------------------
 SCF Energy (H0 + V/2)                       =   -2754.31506532 
 Solute Internal Energy (H0)                 =   -2754.29667666 
 Total Free Energy (H0 + V/2 + non-elec)     =   -2754.31506532 hartree
                                             = -1728358.78960563 kcal/mol
***********************************************************

 SCF   energy in the final basis set =    -2754.3150653190
 Total energy in the final basis set =    -2754.3150653190


 --------------------------------------------------------------
  Generalized many-body perturbation theory program
  by Joonho Lee, Fazle Rob, Xintian Feng, Evgeny Epifanovsky

 No regularization used 
 (reg. param. = 0.0000e+00)
  (P|Q)^-1/2 Time:  CPU 264.63 s  wall 4.60 s

 In RI-MP2 calculation: 
 # of frozen core orbitals: 45

 Components of the RIMP2 correlation energy:
        aaaa    correlation energy =        -0.6700462890 a.u.
        abab    correlation energy =        -3.7125973456 a.u.
        bbbb    correlation energy =        -0.6700462890 a.u.
        non-Brillouin singles      =        -0.0000000000 a.u.
        total same-spin energy     =        -1.3400925781 a.u.
        total opposite-spin energy =        -3.7125973456 a.u.

 Total  RIMP2   correlation energy =        -5.0526899237 a.u.
        RIMP2         total energy =     -2759.3677552426 a.u.

 RI-MP2 Energy Time:  CPU 2861.01 s  wall 46.84 s
 
 --------------------------------------------------------------
 
                    Orbital Energies (a.u.)
 --------------------------------------------------------------
 
 Alpha MOs
 -- Occupied --
-92.0162 -91.9994 -91.9910 -91.9864 -26.3435 -20.6148 -20.5930 -20.5910
-20.5613 -11.4095 -11.3827 -11.3201 -11.3176 -11.3104 -11.3014 -11.2998
-11.2978 -11.2973 -11.2888 -11.2877 -11.2871 -11.2859 -11.2855 -11.2844
-11.2796 -11.2622 -11.2588 -11.2561 -11.2501  -9.0149  -8.9993  -8.9916
 -8.9863  -6.6956  -6.6951  -6.6945  -6.6803  -6.6796  -6.6785  -6.6726
 -6.6720  -6.6710  -6.6673  -6.6667  -6.6658  -1.6605  -1.4673  -1.4171
 -1.4138  -1.3700  -1.2222  -1.1952  -1.1664  -1.1368  -1.0858  -1.0524
 -1.0421  -1.0237  -1.0021  -0.9887  -0.9641  -0.9599  -0.9506  -0.9395
 -0.8967  -0.8682  -0.8523  -0.8084  -0.7992  -0.7882  -0.7864  -0.7645
 -0.7554  -0.7346  -0.7254  -0.7100  -0.7022  -0.6857  -0.6837  -0.6809
 -0.6739  -0.6595  -0.6587  -0.6525  -0.6309  -0.6200  -0.6171  -0.6027
 -0.5983  -0.5837  -0.5798  -0.5712  -0.5650  -0.5619  -0.5550  -0.5501
 -0.5356  -0.5304  -0.5247  -0.5187  -0.5166  -0.5099  -0.5063  -0.4961
 -0.4878  -0.4813  -0.4770  -0.4740  -0.4694  -0.4662  -0.4601  -0.4258
 -0.3964  -0.3848  -0.3608  -0.3492  -0.3272  -0.2894  -0.2510
 -- Virtual --
  0.0251   0.0590   0.1122   0.1238   0.1288   0.1504   0.1552   0.1560
  0.1596   0.1611   0.1670   0.1725   0.1819   0.1862   0.1911   0.1988
  0.2043   0.2059   0.2151   0.2183   0.2218   0.2225   0.2241   0.2278
  0.2384   0.2436   0.2462   0.2517   0.2574   0.2659   0.2751   0.2860
  0.2936   0.3069   0.3248   0.3341   0.3369   0.3413   0.3501   0.3534
  0.3577   0.3620   0.3685   0.3796   0.3818   0.3843   0.3869   0.3873
  0.3927   0.3970   0.4034   0.4077   0.4093   0.4147   0.4210   0.4244
  0.4320   0.4392   0.4417   0.4460   0.4486   0.4534   0.4573   0.4599
  0.4640   0.4690   0.4738   0.4797   0.4838   0.4849   0.4909   0.4917
  0.4996   0.5022   0.5041   0.5077   0.5128   0.5175   0.5195   0.5214
  0.5296   0.5310   0.5330   0.5381   0.5396   0.5423   0.5486   0.5509
  0.5523   0.5546   0.5614   0.5617   0.5657   0.5688   0.5729   0.5804
  0.5884   0.5914   0.5928   0.5971   0.6056   0.6061   0.6129   0.6131
  0.6143   0.6176   0.6215   0.6225   0.6244   0.6276   0.6318   0.6328
  0.6347   0.6396   0.6457   0.6479   0.6528   0.6577   0.6631   0.6693
  0.6759   0.6815   0.6882   0.6909   0.6925   0.7011   0.7096   0.7119
  0.7139   0.7168   0.7195   0.7295   0.7346   0.7369   0.7460   0.7483
  0.7574   0.7607   0.7667   0.7766   0.7828   0.7847   0.8026   0.8071
  0.8091   0.8138   0.8212   0.8217   0.8254   0.8338   0.8457   0.8477
  0.8503   0.8567   0.8602   0.8666   0.8724   0.8751   0.8798   0.8832
  0.8955   0.9008   0.9018   0.9046   0.9106   0.9193   0.9210   0.9293
  0.9326   0.9361   0.9424   0.9492   0.9523   0.9577   0.9618   0.9679
  0.9791   0.9799   0.9825   0.9890   0.9907   0.9949   1.0006   1.0039
  1.0073   1.0125   1.0167   1.0199   1.0286   1.0339   1.0358   1.0406
  1.0467   1.0548   1.0581   1.0608   1.0664   1.0729   1.0789   1.0836
  1.0841   1.0881   1.0923   1.0984   1.0995   1.1055   1.1081   1.1144
  1.1165   1.1224   1.1351   1.1353   1.1439   1.1521   1.1545   1.1611
  1.1617   1.1684   1.1750   1.1813   1.1865   1.1868   1.1912   1.1975
  1.2065   1.2082   1.2168   1.2195   1.2221   1.2288   1.2312   1.2325
  1.2347   1.2392   1.2487   1.2508   1.2576   1.2648   1.2656   1.2706
  1.2746   1.2777   1.2900   1.2985   1.3064   1.3090   1.3117   1.3206
  1.3259   1.3276   1.3356   1.3475   1.3499   1.3597   1.3690   1.3693
  1.3754   1.3809   1.3915   1.3927   1.4075   1.4149   1.4191   1.4250
  1.4326   1.4352   1.4401   1.4465   1.4655   1.4782   1.4812   1.4840
  1.4919   1.5003   1.5025   1.5089   1.5117   1.5135   1.5201   1.5304
  1.5324   1.5385   1.5406   1.5422   1.5455   1.5522   1.5592   1.5675
  1.5740   1.5757   1.5881   1.5950   1.6083   1.6158   1.6271   1.6291
  1.6339   1.6373   1.6519   1.6544   1.6601   1.6668   1.6715   1.6811
  1.6864   1.6966   1.7035   1.7115   1.7164   1.7262   1.7376   1.7520
  1.7589   1.7716   1.7756   1.7876   1.7905   1.8031   1.8127   1.8167
  1.8217   1.8327   1.8436   1.8472   1.8598   1.8662   1.8701   1.8738
  1.8810   1.8846   1.8967   1.9034   1.9125   1.9194   1.9226   1.9336
  1.9405   1.9428   1.9528   1.9608   1.9635   1.9734   1.9884   1.9923
  1.9972   2.0010   2.0049   2.0269   2.0330   2.0414   2.0557   2.0609
  2.0690   2.0838   2.0898   2.0980   2.1080   2.1183   2.1328   2.1406
  2.1502   2.1603   2.1643   2.1681   2.1770   2.1870   2.1899   2.1948
  2.1983   2.2041   2.2097   2.2175   2.2265   2.2304   2.2356   2.2419
  2.2477   2.2528   2.2578   2.2655   2.2720   2.2729   2.2813   2.2932
  2.3007   2.3097   2.3146   2.3186   2.3355   2.3466   2.3507   2.3539
  2.3647   2.3682   2.3835   2.3866   2.3951   2.4092   2.4150   2.4271
  2.4298   2.4371   2.4462   2.4533   2.4548   2.4696   2.4831   2.4857
  2.4979   2.5008   2.5080   2.5236   2.5366   2.5400   2.5473   2.5603
  2.5660   2.5715   2.5840   2.5984   2.6041   2.6144   2.6187   2.6229
  2.6297   2.6308   2.6327   2.6393   2.6436   2.6521   2.6552   2.6761
  2.6794   2.6828   2.6852   2.6883   2.7031   2.7042   2.7077   2.7129
  2.7175   2.7256   2.7289   2.7425   2.7459   2.7475   2.7567   2.7745
  2.7837   2.7908   2.7924   2.7979   2.8009   2.8116   2.8128   2.8201
  2.8323   2.8348   2.8386   2.8410   2.8504   2.8527   2.8663   2.8713
  2.8744   2.8822   2.8835   2.8903   2.8962   2.9035   2.9197   2.9343
  2.9479   2.9490   2.9551   2.9681   2.9705   2.9759   2.9826   2.9897
  2.9973   3.0077   3.0098   3.0141   3.0228   3.0239   3.0324   3.0404
  3.0466   3.0579   3.0667   3.0680   3.0790   3.0861   3.0898   3.0995
  3.1041   3.1090   3.1114   3.1134   3.1203   3.1226   3.1329   3.1466
  3.1485   3.1506   3.1562   3.1611   3.1660   3.1663   3.1773   3.1787
  3.1864   3.2001   3.2063   3.2111   3.2160   3.2173   3.2229   3.2284
  3.2302   3.2366   3.2399   3.2468   3.2553   3.2591   3.2618   3.2652
  3.2714   3.2746   3.2824   3.2836   3.2899   3.2960   3.3006   3.3050
  3.3056   3.3117   3.3247   3.3280   3.3321   3.3352   3.3408   3.3437
  3.3457   3.3558   3.3583   3.3600   3.3632   3.3654   3.3690   3.3765
  3.3795   3.3895   3.3897   3.3934   3.3967   3.3994   3.4050   3.4108
  3.4210   3.4232   3.4348   3.4357   3.4382   3.4414   3.4462   3.4546
  3.4612   3.4646   3.4675   3.4709   3.4757   3.4775   3.4834   3.4860
  3.4918   3.5027   3.5070   3.5097   3.5201   3.5220   3.5312   3.5322
  3.5371   3.5478   3.5519   3.5545   3.5596   3.5628   3.5792   3.5807
  3.5835   3.5873   3.5924   3.5949   3.5989   3.6012   3.6035   3.6095
  3.6140   3.6234   3.6307   3.6330   3.6374   3.6429   3.6472   3.6564
  3.6640   3.6683   3.6779   3.6809   3.6848   3.6860   3.6948   3.6962
  3.7042   3.7058   3.7070   3.7177   3.7231   3.7237   3.7265   3.7352
  3.7404   3.7466   3.7554   3.7660   3.7704   3.7751   3.7837   3.7847
  3.7871   3.7951   3.8031   3.8052   3.8105   3.8133   3.8171   3.8237
  3.8257   3.8342   3.8386   3.8492   3.8531   3.8607   3.8646   3.8740
  3.8763   3.8778   3.8896   3.8941   3.9037   3.9063   3.9145   3.9230
  3.9294   3.9308   3.9435   3.9499   3.9518   3.9636   3.9731   3.9838
  3.9849   3.9924   3.9938   4.0051   4.0130   4.0264   4.0297   4.0438
  4.0516   4.0538   4.0669   4.0695   4.0730   4.0744   4.0808   4.0919
  4.0965   4.1100   4.1122   4.1216   4.1315   4.1435   4.1462   4.1560
  4.1573   4.1661   4.1666   4.1698   4.1806   4.1829   4.1895   4.2000
  4.2039   4.2148   4.2254   4.2392   4.2474   4.2525   4.2576   4.2681
  4.2749   4.2848   4.2965   4.3120   4.3201   4.3282   4.3395   4.3420
  4.3575   4.3587   4.3667   4.3764   4.3785   4.3847   4.3885   4.4042
  4.4080   4.4108   4.4120   4.4220   4.4284   4.4345   4.4413   4.4535
  4.4559   4.4696   4.4847   4.4926   4.5012   4.5071   4.5172   4.5263
  4.5351   4.5409   4.5420   4.5509   4.5588   4.5777   4.5801   4.5821
  4.5943   4.5980   4.6188   4.6245   4.6328   4.6439   4.6468   4.6560
  4.6564   4.6669   4.6756   4.6829   4.6988   4.7052   4.7175   4.7313
  4.7444   4.7519   4.7708   4.7770   4.7815   4.7891   4.7994   4.8218
  4.8306   4.8447   4.8501   4.8561   4.8691   4.8763   4.8840   4.9227
  4.9367   4.9386   4.9484   4.9582   4.9672   4.9807   4.9911   4.9984
  5.0063   5.0090   5.0176   5.0277   5.0391   5.0520   5.0585   5.0731
  5.0895   5.1075   5.1187   5.1350   5.1491   5.1634   5.1732   5.2038
  5.2069   5.2219   5.2495   5.2503   5.2534   5.2564   5.2583   5.2862
  5.2977   5.3120   5.3178   5.3283   5.3378   5.3510   5.3543   5.3760
  5.3804   5.3921   5.3995   5.4076   5.4224   5.4263   5.4347   5.4636
  5.4850   5.4876   5.5066   5.5108   5.5147   5.5313   5.5408   5.5715
  5.5765   5.5866   5.5908   5.6060   5.6185   5.6217   5.6573   5.6685
  5.7187   5.7423   5.7538   5.7847   5.8075   5.8214   5.8405   5.8555
  5.8734   5.8863   5.9134   5.9291   5.9687   5.9881   6.0042   6.0425
  6.0554   6.0959   6.1253   6.1505   6.1612   6.1705   6.1791   6.1858
  6.2412   6.2515   6.2614   6.2716   6.2845   6.2995   6.3235   6.4011
  6.4282   6.4501   6.4554   6.5030   6.5392   6.5494   6.5590   6.6053
  6.6561   6.6617   6.6712   6.7010   6.7463   6.8028   6.8299   6.8412
  6.8596   6.8927   6.9786   7.1195   7.1364   7.2040   7.2066   7.2152
  7.2353   7.3099   7.3213   7.3321   7.3631   7.3639   7.4063   7.4133
  7.4776   7.4855   7.4894   7.5252   7.5514   7.6167   7.7045   7.7728
  7.7894   7.7966   7.8948   7.9184   7.9426   7.9625   8.0796   8.1347
  8.5650   8.9218   9.0216   9.3628   9.4742   9.6479  10.0540  10.6264
 11.1491  11.4496  11.7877  11.9791  12.1359  12.2271  12.4207  12.5590
 12.6662  12.9511  13.0546  13.1240  13.3335  13.3876  13.7699  13.8474
 13.9023  14.0238  14.0448  14.7746  15.2151
 --------------------------------------------------------------
 
          Ground-State Mulliken Net Atomic Charges

     Atom                 Charge (a.u.)
  ----------------------------------------
      1 C                    -0.189417
      2 C                    -0.254000
      3 S                    -0.021217
      4 C                    -0.017439
      5 H                     0.196169
      6 C                    -0.028073
      7 C                     0.243834
      8 C                     0.242995
      9 C                    -0.041588
     10 C                    -0.027885
     11 O                    -0.333085
     12 O                    -0.339688
     13 C                    -0.086288
     14 H                     0.123392
     15 H                     0.091390
     16 H                     0.093792
     17 C                    -0.088254
     18 H                     0.126004
     19 H                     0.095297
     20 H                     0.089367
     21 C                    -0.220734
     22 S                    -0.035107
     23 C                    -0.003512
     24 H                     0.191819
     25 H                     0.206379
     26 C                     0.004791
     27 S                     0.091930
     28 C                    -0.197295
     29 C                    -0.008034
     30 C                    -0.109975
     31 S                     0.011646
     32 C                    -0.161593
     33 C                     0.406807
     34 F                    -0.206772
     35 C                     0.442925
     36 O                    -0.460859
     37 O                    -0.300652
     38 C                    -0.058626
     39 H                     0.121459
     40 H                     0.095269
     41 H                     0.095110
     42 H                     0.219716
  ----------------------------------------
  Sum of atomic charges =     0.000000

 -----------------------------------------------------------------
                    Cartesian Multipole Moments
 -----------------------------------------------------------------
    Charge (ESU x 10^10)
                 0.0000
    Dipole Moment (Debye)
         X       0.6815      Y       1.0924      Z       3.1599
       Tot       3.4122
    Quadrupole Moments (Debye-Ang)
        XX    -194.0757     XY       1.3841     YY    -159.6905
        XZ     -12.9066     YZ      -7.7274     ZZ    -188.6524
    Octopole Moments (Debye-Ang^2)
       XXX    -123.5488    XXY     347.8504    XYY     -20.6547
       YYY     853.8324    XXZ     183.6962    XYZ      47.4241
       YYZ     119.8328    XZZ     -21.4721    YZZ     389.7648
       ZZZ     602.0515
    Hexadecapole Moments (Debye-Ang^3)
      XXXX    -751.6004   XXXY     -46.9485   XXYY   -3892.4274
      XYYY     -66.1003   YYYY  -19163.7281   XXXZ     695.5049
      XXYZ     368.8149   XYYZ    -118.5908   YYYZ     824.6653
      XXZZ   -1263.1612   XYZZ      62.2103   YYZZ   -4102.7913
      XZZZ     485.2471   YZZZ     545.9509   ZZZZ   -7258.2282
 -----------------------------------------------------------------
 Total job time:  298.05s(wall), 9279.85s(cpu) 
 Tue Jan  9 01:15:29 2024

        *************************************************************
        *                                                           *
        *  Thank you very much for using Q-Chem.  Have a nice day.  *
        *                                                           *
        *************************************************************


0 sent ACK to 0 
now end server 0 ... 
cleanup process ... done
remove work dirs ./qchem30570.0 -- ./qchem30570.0
rm -rf ./qchem30570.0
rm -rf ./qchem30570
