You are running Q-Chem version: 5.4.0

#
# job setting
#
local host:  exp-8-43
current dir: /home/rramji/project-csd799/aromodel/ptb7fout-qchem/rotation-run
input file:  Dimethoxy_Benzodithiophene_Phi_20_Theta_220_Methylcarbonyl_3_Fluoro_Thienothiophene.qcin
output file: 
nprocs     : 1
nthreads   : 64
#
# qchem installation setting
#
QC:          /cm/shared/apps/spack/cpu/opt/spack/linux-centos8-zen2/gcc-10.2.0/qchem-5.4-akfmr7b3t57bfs6qan3padb2wnb2i7cl
QCAUX:       /cm/shared/apps/spack/cpu/opt/spack/linux-centos8-zen2/gcc-10.2.0/qchem-5.4-akfmr7b3t57bfs6qan3padb2wnb2i7cl/qcaux
QCPROG:      /cm/shared/apps/spack/cpu/opt/spack/linux-centos8-zen2/gcc-10.2.0/qchem-5.4-akfmr7b3t57bfs6qan3padb2wnb2i7cl/exe/qcprog.exe
QCPROG_S:    /cm/shared/apps/spack/cpu/opt/spack/linux-centos8-zen2/gcc-10.2.0/qchem-5.4-akfmr7b3t57bfs6qan3padb2wnb2i7cl/exe/qcprog.exe_s
PARALLEL:    -DPARALLEL
QCMPI:       mpich
#
# qchem directory setting
#
qcrun:       qchem2269525
QCSCRATCH:   .
QCLOCALSCR:  
QCTMPDIR:    .
QCFILEPREF:  ./qchem2269525
QCSAVEDIR:   
workdirs:    ./qchem2269525
workdir0:    ./qchem2269525
partmpdirs =  
#
# parallel setting
#
QCRSH:           ssh
QCMPI:           mpich
QCMPIRUN:        /cm/shared/apps/spack/cpu/opt/spack/linux-centos8-zen2/gcc-10.2.0/qchem-5.4-akfmr7b3t57bfs6qan3padb2wnb2i7cl/bin/mpi/mpirun_qchem
QCMACHINEFILE:   ./qchem2269525/hostfile
exp-8-43

#
# env setting
#
exported envs:   QC QCAUX QCSCRATCH QCRUNNAME QCFILEPREF QCPROG QCPROG_S GUIFILE

Running Job 1 of 1 Dimethoxy_Benzodithiophene_Phi_20_Theta_220_Methylcarbonyl_3_Fluoro_Thienothiophene.qcin
qchem Dimethoxy_Benzodithiophene_Phi_20_Theta_220_Methylcarbonyl_3_Fluoro_Thienothiophene.qcin_2269525.0 ./qchem2269525/ 1
/cm/shared/apps/spack/cpu/opt/spack/linux-centos8-zen2/gcc-10.2.0/qchem-5.4-akfmr7b3t57bfs6qan3padb2wnb2i7cl/bin/mpi/mpirun_qchem -machinefile ./qchem2269525/hostfile -np 1 /cm/shared/apps/spack/cpu/opt/spack/linux-centos8-zen2/gcc-10.2.0/qchem-5.4-akfmr7b3t57bfs6qan3padb2wnb2i7cl/exe/qcprog.exe Dimethoxy_Benzodithiophene_Phi_20_Theta_220_Methylcarbonyl_3_Fluoro_Thienothiophene.qcin_2269525.0 ./qchem2269525/

Process 0 of 1 is on exp-8-43 - thread support 0
initial socket setup ...start
initial socket setup ...done 
now start server 0 ... 
                  Welcome to Q-Chem
     A Quantum Leap Into The Future Of Chemistry


 Q-Chem 5.4, Q-Chem, Inc., Pleasanton, CA (2021)

 License issued to: University of California, San Diego (site)

 E. Epifanovsky,  A. T. B. Gilbert,  Xintian Feng,  Joonho Lee,  Yuezhi Mao,  
 N. Mardirossian,  P. Pokhilko,  A. White,  M. Wormit,  M. P. Coons,  
 A. L. Dempwolff,  Zhengting Gan,  D. Hait,  P. R. Horn,  L. D. Jacobson,  
 I. Kaliman,  J. Kussmann,  A. W. Lange,  Ka Un Lao,  D. S. Levine,  Jie Liu,  
 S. C. McKenzie,  A. F. Morrison,  K. Nanda,  F. Plasser,  D. R. Rehn,  
 M. L. Vidal,  Zhi-Qiang You,  Ying Zhu,  B. Alam,  B. Albrecht,  
 A. Aldossary,  E. Alguire,  J. H. Andersen,  D. Barton,  K. Begam,  A. Behn,  
 Y. A. Bernard,  E. J. Berquist,  H. Burton,  A. Carreras,  K. Carter-Fenk,  
 R. Chakraborty,  A. D. Chien,  K. D. Closser,  V. Cofer-Shabica,  
 S. Dasgupta,  Jia Deng,  M. de Wergifosse,  M. Diedenhofen,  Hainam Do,  
 S. Ehlert,  Po-Tung Fang,  S. Fatehi,  Qingguo Feng,  J. Gayvert,  
 Qinghui Ge,  G. Gidofalvi,  M. Goldey,  J. Gomes,  C. Gonzalez-Espinoza,  
 S. Gulania,  A. Gunina,  M. W. D. Hanson-Heine,  P. H. P. Harbach,  
 A. W. Hauser,  M. F. Herbst,  M. Hernandez Vera,  M. Hodecker,  
 Z. C. Holden,  S. Houck,  Xunkun Huang,  Kerwin Hui,  B. C. Huynh,  
 M. Ivanov,  Hyunjun Ji,  Hanjie Jiang,  B. Kaduk,  S. Kaehler,  
 K. Khistyaev,  Jaehoon Kim,  P. Klunzinger,  Z. Koczor-Benda,  
 Joong Hoon Koh,  D. Kosenkov,  L. Koulias,  T. Kowalczyk,  C. M. Krauter,  
 K. Kue,  A. Kunitsa,  T. Kus,  A. Landau,  K. V. Lawler,  D. Lefrancois,  
 S. Lehtola,  Rain Li,  Yi-Pei Li,  Jiashu Liang,  M. Liebenthal,  
 Hung-Hsuan Lin,  You-Sheng Lin,  Fenglai Liu,  Kuan-Yu Liu,  
 M. Loipersberger,  A. Luenser,  A. Manjanath,  P. Manohar,  E. Mansoor,  
 S. F. Manzer,  Shan-Ping Mao,  A. V. Marenich,  T. Markovich,  S. Mason,  
 S. A. Maurer,  P. F. McLaughlin,  M. F. S. J. Menger,  J.-M. Mewes,  
 S. A. Mewes,  P. Morgante,  J. W. Mullinax,  T. S. Nguyen-Beck,  
 K. J. Oosterbaan,  G. Paran,  Alexander C. Paul,  Suranjan K. Paul,  
 F. Pavosevic,  Zheng Pei,  S. Prager,  E. I. Proynov,  E. Ramos,  B. Rana,  
 A. E. Rask,  A. Rettig,  R. M. Richard,  F. Rob,  E. Rossomme,  T. Scheele,  
 M. Scheurer,  M. Schneider,  N. Sergueev,  S. M. Sharada,  W. Skomorowski,  
 D. W. Small,  C. J. Stein,  Yu-Chuan Su,  E. J. Sundstrom,  Zhen Tao,  
 J. Thirman,  T. Tsuchimochi,  N. M. Tubman,  S. P. Veccham,  O. Vydrov,  
 J. Wenzel,  J. Witte,  A. Yamada,  Kun Yao,  S. Yeganeh,  S. R. Yost,  
 A. Zech,  Igor Ying Zhang,  Xing Zhang,  Yu Zhang,  D. Zuev,  
 A. Aspuru-Guzik,  A. T. Bell,  N. A. Besley,  K. B. Bravaya,  B. R. Brooks,  
 D. Casanova,  Jeng-Da Chai,  S. Coriani,  C. J. Cramer,  
 A. E. DePrince, III,  R. A. DiStasio Jr.,  A. Dreuw,  B. D. Dunietz,  
 T. R. Furlani,  W. A. Goddard III,  S. Grimme,  S. Hammes-Schiffer,  
 T. Head-Gordon,  W. J. Hehre,  Chao-Ping Hsu,  T.-C. Jagau,  Yousung Jung,  
 A. Klamt,  Jing Kong,  D. S. Lambrecht,  WanZhen Liang,  N. J. Mayhall,  
 C. W. McCurdy,  J. B. Neaton,  C. Ochsenfeld,  J. A. Parkhill,  R. Peverati,  
 V. A. Rassolov,  Yihan Shao,  L. V. Slipchenko,  T. Stauch,  R. P. Steele,  
 J. E. Subotnik,  A. J. W. Thom,  A. Tkatchenko,  D. G. Truhlar,  
 T. Van Voorhis,  T. A. Wesolowski,  K. B. Whaley,  H. L. Woodcock III,  
 P. M. Zimmerman,  S. Faraji,  P. M. W. Gill,  M. Head-Gordon,  
 J. M. Herbert,  A. I. Krylov

 Contributors to earlier versions of Q-Chem not listed above: 
 R. D. Adamson,  B. Austin,  R. Baer,  J. Baker,  G. J. O. Beran,  
 K. Brandhorst,  S. T. Brown,  E. F. C. Byrd,  A. K. Chakraborty,  
 G. K. L. Chan,  Chun-Min Chang,  Yunqing Chen,  C.-L. Cheng,  
 Siu Hung Chien,  D. M. Chipman,  D. L. Crittenden,  H. Dachsel,  
 R. J. Doerksen,  A. D. Dutoi,  R. G. Edgar,  J. Fosso-Tande,  
 L. Fusti-Molnar,  D. Ghosh,  A. Ghysels,  A. Golubeva-Zadorozhnaya,  
 J. Gonthier,  M. S. Gordon,  S. R. Gwaltney,  G. Hawkins,  J. E. Herr,  
 A. Heyden,  S. Hirata,  E. G. Hohenstein,  G. Kedziora,  F. J. Keil,  
 C. Kelley,  Jihan Kim,  R. A. King,  R. Z. Khaliullin,  P. P. Korambath,  
 W. Kurlancheek,  A. Laurent,  A. M. Lee,  M. S. Lee,  S. V. Levchenko,  
 Ching Yeh Lin,  D. Liotard,  E. Livshits,  R. C. Lochan,  I. Lotan,  
 L. A. Martinez-Martinez,  P. E. Maslen,  N. Nair,  D. P. O'Neill,  
 D. Neuhauser,  E. Neuscamman,  C. M. Oana,  R. Olivares-Amaya,  R. Olson,  
 T. M. Perrine,  B. Peters,  P. A. Pieniazek,  A. Prociuk,  Y. M. Rhee,  
 J. Ritchie,  M. A. Rohrdanz,  E. Rosta,  N. J. Russ,  H. F. Schaefer III,  
 M. W. Schmidt,  N. E. Schultz,  S. Sharma,  N. Shenvi,  C. D. Sherrill,  
 A. C. Simmonett,  A. Sodt,  T. Stein,  D. Stuck,  K. S. Thanthiriwatte,  
 V. Vanovschi,  L. Vogt,  Tao Wang,  A. Warshel,  M. A. Watson,  
 C. F. Williams,  Q. Wu,  X. Xu,  Jun Yang,  W. Zhang,  Yan Zhao

 Please cite Q-Chem as follows:
 Y. Shao et al., Mol. Phys. 113, 184-215 (2015)
 DOI: 10.1080/00268976.2014.952696

 Q-Chem 5.4.0 for Intel X86 EM64T Linux

 Parts of Q-Chem use Armadillo 9.800.1 (Horizon Scraper).
 http://arma.sourceforge.net/

 Q-Chem begins on Tue Jan  9 01:32:51 2024  

 Host: 
0

     Scratch files written to ./qchem2269525//
 May1621 |scratch|qcdevops|jenkins|workspace|build_RNUM    
 Parallel job on  1  processors
 Processing $rem in /cm/shared/apps/spack/cpu/opt/spack/linux-centos8-zen2/gcc-10.2.0/qchem-5.4-akfmr7b3t57bfs6qan3padb2wnb2i7cl/config/preferences:
 Processing $rem in /home/rramji/.qchemrc:
 Symmetry turned off for PCM/SM12/SMD calculation
 Core orbitals will be frozen

 Checking the input file for inconsistencies... 	...done.

 Q-Chem warning in module forms1/BasisType.C, line 2236:

 You are not using the predefined 5D/6D in this basis set.


--------------------------------------------------------------
User input:
--------------------------------------------------------------
$molecule
0 1
C	0.236226	-8.517702	-0.217225
C	-0.448921	-7.641575	0.611939
S	1.218777	-7.638634	-1.413715
C	-0.206907	-6.264785	0.323572
H	-1.118185	-7.966081	1.418739
C	0.711285	-6.072714	-0.768156
C	1.053725	-4.787049	-1.215016
C	-0.804258	-5.162801	0.999917
C	-0.464908	-3.874817	0.550033
C	0.456457	-3.683952	-0.541024
O	-1.630752	-5.499772	2.028811
O	1.883064	-4.459055	-2.249357
C	2.956754	-5.329063	-2.586579
H	3.619069	-4.755694	-3.262802
H	2.609423	-6.238095	-3.124711
H	3.531667	-5.637262	-1.686639
C	-2.599073	-4.572261	2.503251
H	-3.260097	-5.139743	3.185356
H	-3.207034	-4.153131	1.672937
H	-2.135214	-3.739531	3.075213
C	0.694410	-2.306654	-0.828107
S	-0.983256	-2.306501	1.188794
C	-0.000000	-1.435185	-0.000000
H	1.364851	-1.978138	-1.632185
H	0.234980	-9.614033	-0.221288
C	0.000000	0.000000	0.000000
S	0.309893	0.850039	1.507541
C	0.847011	2.328006	0.718873
C	0.310046	0.849645	-1.067872
C	0.783331	2.156746	-0.686410
S	0.229416	0.619785	-2.805516
C	0.823328	2.267711	-3.054530
C	1.063278	2.934142	-1.862551
F	1.515925	4.191824	-1.819088
C	0.978337	2.688069	-4.456084
O	0.722535	1.961921	-5.406510
O	1.433229	3.959697	-4.569225
C	1.607467	4.423139	-5.916207
H	1.977475	5.460158	-5.833064
H	0.647388	4.396602	-6.470168
H	2.339490	3.791823	-6.459293
H	1.161798	3.197007	1.306486
$end

$rem
JOBTYPE		SP
EXCHANGE	HF
CORRELATION	pRIMP2
BASIS		cc-pvtz
METHOD		rimp2
AUX_BASIS	rimp2-cc-pvtz
SOLVENT_METHOD	PCM
PURECART	11111
SYMMETRY	false
MEM_TOTAL	110000
SCF_CONVERGENCE = 6
THRESH=10
GUI = 2
$end



$solvent
dielectric 4.90
$end
--------------------------------------------------------------
 ----------------------------------------------------------------
             Standard Nuclear Orientation (Angstroms)
    I     Atom           X                Y                Z
 ----------------------------------------------------------------
    1      C       0.2362260000    -8.5177020000    -0.2172250000
    2      C      -0.4489210000    -7.6415750000     0.6119390000
    3      S       1.2187770000    -7.6386340000    -1.4137150000
    4      C      -0.2069070000    -6.2647850000     0.3235720000
    5      H      -1.1181850000    -7.9660810000     1.4187390000
    6      C       0.7112850000    -6.0727140000    -0.7681560000
    7      C       1.0537250000    -4.7870490000    -1.2150160000
    8      C      -0.8042580000    -5.1628010000     0.9999170000
    9      C      -0.4649080000    -3.8748170000     0.5500330000
   10      C       0.4564570000    -3.6839520000    -0.5410240000
   11      O      -1.6307520000    -5.4997720000     2.0288110000
   12      O       1.8830640000    -4.4590550000    -2.2493570000
   13      C       2.9567540000    -5.3290630000    -2.5865790000
   14      H       3.6190690000    -4.7556940000    -3.2628020000
   15      H       2.6094230000    -6.2380950000    -3.1247110000
   16      H       3.5316670000    -5.6372620000    -1.6866390000
   17      C      -2.5990730000    -4.5722610000     2.5032510000
   18      H      -3.2600970000    -5.1397430000     3.1853560000
   19      H      -3.2070340000    -4.1531310000     1.6729370000
   20      H      -2.1352140000    -3.7395310000     3.0752130000
   21      C       0.6944100000    -2.3066540000    -0.8281070000
   22      S      -0.9832560000    -2.3065010000     1.1887940000
   23      C       0.0000000000    -1.4351850000     0.0000000000
   24      H       1.3648510000    -1.9781380000    -1.6321850000
   25      H       0.2349800000    -9.6140330000    -0.2212880000
   26      C       0.0000000000     0.0000000000     0.0000000000
   27      S       0.3098930000     0.8500390000     1.5075410000
   28      C       0.8470110000     2.3280060000     0.7188730000
   29      C       0.3100460000     0.8496450000    -1.0678720000
   30      C       0.7833310000     2.1567460000    -0.6864100000
   31      S       0.2294160000     0.6197850000    -2.8055160000
   32      C       0.8233280000     2.2677110000    -3.0545300000
   33      C       1.0632780000     2.9341420000    -1.8625510000
   34      F       1.5159250000     4.1918240000    -1.8190880000
   35      C       0.9783370000     2.6880690000    -4.4560840000
   36      O       0.7225350000     1.9619210000    -5.4065100000
   37      O       1.4332290000     3.9596970000    -4.5692250000
   38      C       1.6074670000     4.4231390000    -5.9162070000
   39      H       1.9774750000     5.4601580000    -5.8330640000
   40      H       0.6473880000     4.3966020000    -6.4701680000
   41      H       2.3394900000     3.7918230000    -6.4592930000
   42      H       1.1617980000     3.1970070000     1.3064860000
 ----------------------------------------------------------------
 Nuclear Repulsion Energy =        3283.74588576 hartrees
 There are      119 alpha and      119 beta electrons
 Requested basis set is cc-pVTZ
 There are 376 shells and 1068 basis functions

 Total QAlloc Memory Limit 110000 MB
 Mega-Array Size       188 MB
 MEM_STATIC part       192 MB
 Discretize the solute cavity surface with Lebedev spheres
	Using 110 Lebedev grid points for each H atom
	Using 194 Lebedev grid points for other atoms
	Atomic van der Waals radii will be scaled by 1.20
 Remove points where switching function is < 1.0e-08
 Keep 2895 surface tesserae and discard 4161 interior tesserae
 Molecular Surface Area = 439.464 Angst**2
 Requested basis set is rimp2-cc-pVTZ
 There are 833 shells and 2903 basis functions
 A cutoff of  1.0D-10 yielded  30944 shell pairs
 There are    237818 function pairs (    308829 Cartesian)
 Smallest overlap matrix eigenvalue = 2.15E-05

 Scale SEOQF with 1.000000e-01/1.000000e-02/1.000000e-02

 Standard Electronic Orientation quadrupole field applied
 Nucleus-field energy     =     0.0000000298 hartrees
 Guess from superposition of atomic densities
 Warning:  Energy on first SCF cycle will be non-variational
 SAD guess density has 238.000000 electrons

 -----------------------------------------------------------------------
  General SCF calculation program by
  Eric Jon Sundstrom, Paul Horn, Yuezhi Mao, Dmitri Zuev, Alec White,
  David Stuck, Shaama M.S., Shane Yost, Joonho Lee, David Small,
  Daniel Levine, Susi Lehtola, Hugh Burton, Evgeny Epifanovsky,
  Bang C. Huynh
 -----------------------------------------------------------------------
 Hartree-Fock
 using 64 threads for integral computing
 -------------------------------------------------------
 OpenMP Integral computing Module                
 Release: version 1.0, May 2013, Q-Chem Inc. Pittsburgh 
 -------------------------------------------------------
 A restricted SCF calculation will be
 performed using DIIS
 SCF converges when DIIS error is below 1.0e-06
 ---------------------------------------
  Cycle       Energy         DIIS error
 ---------------------------------------
    1   -2765.2236898276      1.75e-02  
    2   -2753.8768005050      1.56e-03  
    3   -2754.2156343160      8.61e-04  
    4   -2754.2968879469      2.56e-04  
    5   -2754.3085057451      6.94e-05  
    6   -2754.3095894232      2.38e-05  
    7   -2754.3098249941      1.14e-05  
    8   -2754.3099024988      4.27e-06  
    9   -2754.3099170509      1.69e-06  
   10   -2754.3099188570      7.35e-07  Convergence criterion met
 ---------------------------------------
 SCF time:   CPU 5928.98s  wall 230.00s 

************** Final PCM Free Energy Summary **************
 G_electrostatic  =      -0.01855666 hartree =     -11.64447916 kcal/mol
 G_cavitation     =       0.00000000 hartree =       0.00000000 kcal/mol
 G_dispersion     =       0.00000000 hartree =       0.00000000 kcal/mol
 G_repulsion      =       0.00000000 hartree =       0.00000000 kcal/mol
 --------------------------------------------------
 Non-electrostatic Free Energy =       0.00000000 hartree =       0.00000000 kcal/mol
 Total                         =      -0.01855666 hartree =     -11.64447916 kcal/mol
 --------------------------------------------------
 SCF Energy (H0 + V/2)                       =   -2754.30991886 
 Solute Internal Energy (H0)                 =   -2754.29136220 
 Total Free Energy (H0 + V/2 + non-elec)     =   -2754.30991886 hartree
                                             = -1728355.56015199 kcal/mol
***********************************************************

 SCF   energy in the final basis set =    -2754.3099188570
 Total energy in the final basis set =    -2754.3099188570


 --------------------------------------------------------------
  Generalized many-body perturbation theory program
  by Joonho Lee, Fazle Rob, Xintian Feng, Evgeny Epifanovsky

 No regularization used 
 (reg. param. = 0.0000e+00)
  (P|Q)^-1/2 Time:  CPU 153.20 s  wall 3.19 s

 In RI-MP2 calculation: 
 # of frozen core orbitals: 45

 Components of the RIMP2 correlation energy:
        aaaa    correlation energy =        -0.6698748335 a.u.
        abab    correlation energy =        -3.7128903353 a.u.
        bbbb    correlation energy =        -0.6698748335 a.u.
        non-Brillouin singles      =        -0.0000000000 a.u.
        total same-spin energy     =        -1.3397496670 a.u.
        total opposite-spin energy =        -3.7128903353 a.u.

 Total  RIMP2   correlation energy =        -5.0526400022 a.u.
        RIMP2         total energy =     -2759.3625588592 a.u.

 RI-MP2 Energy Time:  CPU 3486.09 s  wall 57.80 s
 
 --------------------------------------------------------------
 
                    Orbital Energies (a.u.)
 --------------------------------------------------------------
 
 Alpha MOs
 -- Occupied --
-92.0152 -91.9986 -91.9892 -91.9862 -26.3432 -20.6147 -20.5926 -20.5908
-20.5611 -11.4092 -11.3822 -11.3194 -11.3172 -11.3119 -11.3018 -11.2973
-11.2970 -11.2953 -11.2887 -11.2873 -11.2859 -11.2856 -11.2853 -11.2840
-11.2794 -11.2611 -11.2584 -11.2551 -11.2498  -9.0139  -8.9986  -8.9898
 -8.9861  -6.6946  -6.6940  -6.6935  -6.6796  -6.6788  -6.6777  -6.6708
 -6.6701  -6.6692  -6.6671  -6.6664  -6.6656  -1.6603  -1.4671  -1.4166
 -1.4136  -1.3698  -1.2221  -1.1943  -1.1656  -1.1364  -1.0850  -1.0518
 -1.0418  -1.0231  -1.0013  -0.9879  -0.9632  -0.9598  -0.9503  -0.9392
 -0.8959  -0.8678  -0.8509  -0.8081  -0.7981  -0.7875  -0.7864  -0.7642
 -0.7552  -0.7338  -0.7251  -0.7098  -0.7017  -0.6851  -0.6830  -0.6806
 -0.6737  -0.6592  -0.6580  -0.6523  -0.6303  -0.6197  -0.6170  -0.6042
 -0.5981  -0.5827  -0.5781  -0.5709  -0.5654  -0.5617  -0.5545  -0.5496
 -0.5333  -0.5304  -0.5243  -0.5162  -0.5160  -0.5075  -0.5069  -0.4959
 -0.4879  -0.4807  -0.4760  -0.4736  -0.4687  -0.4670  -0.4602  -0.4188
 -0.3953  -0.3855  -0.3588  -0.3502  -0.3243  -0.2908  -0.2529
 -- Virtual --
  0.0294   0.0580   0.1086   0.1239   0.1344   0.1506   0.1534   0.1560
  0.1567   0.1604   0.1608   0.1704   0.1822   0.1866   0.1907   0.1960
  0.2039   0.2048   0.2151   0.2168   0.2211   0.2216   0.2244   0.2280
  0.2344   0.2398   0.2455   0.2485   0.2542   0.2642   0.2746   0.2778
  0.2915   0.2994   0.3257   0.3331   0.3361   0.3401   0.3457   0.3524
  0.3541   0.3602   0.3667   0.3795   0.3812   0.3840   0.3852   0.3860
  0.3917   0.3949   0.4025   0.4083   0.4094   0.4163   0.4231   0.4250
  0.4298   0.4366   0.4398   0.4453   0.4471   0.4516   0.4543   0.4587
  0.4606   0.4642   0.4711   0.4737   0.4818   0.4833   0.4886   0.4921
  0.4983   0.4987   0.5041   0.5101   0.5108   0.5129   0.5153   0.5215
  0.5270   0.5296   0.5332   0.5346   0.5412   0.5433   0.5470   0.5501
  0.5531   0.5535   0.5576   0.5605   0.5677   0.5696   0.5744   0.5799
  0.5887   0.5906   0.5931   0.5990   0.6014   0.6065   0.6079   0.6128
  0.6154   0.6185   0.6207   0.6219   0.6232   0.6267   0.6320   0.6359
  0.6381   0.6400   0.6437   0.6471   0.6509   0.6540   0.6650   0.6687
  0.6743   0.6798   0.6823   0.6850   0.6923   0.6990   0.7030   0.7083
  0.7109   0.7139   0.7206   0.7275   0.7312   0.7354   0.7399   0.7492
  0.7561   0.7588   0.7649   0.7720   0.7774   0.7838   0.7951   0.8009
  0.8028   0.8055   0.8162   0.8207   0.8268   0.8306   0.8409   0.8428
  0.8501   0.8519   0.8553   0.8662   0.8691   0.8735   0.8792   0.8862
  0.8916   0.8969   0.9005   0.9066   0.9073   0.9127   0.9186   0.9221
  0.9300   0.9385   0.9405   0.9481   0.9493   0.9525   0.9601   0.9705
  0.9710   0.9769   0.9814   0.9831   0.9886   0.9939   0.9990   1.0033
  1.0070   1.0135   1.0147   1.0260   1.0303   1.0337   1.0389   1.0449
  1.0473   1.0515   1.0570   1.0619   1.0685   1.0747   1.0758   1.0805
  1.0844   1.0882   1.0919   1.0996   1.1004   1.1062   1.1100   1.1148
  1.1186   1.1229   1.1255   1.1298   1.1394   1.1443   1.1516   1.1539
  1.1593   1.1663   1.1724   1.1811   1.1840   1.1867   1.1891   1.1982
  1.2028   1.2090   1.2145   1.2152   1.2204   1.2222   1.2268   1.2311
  1.2348   1.2364   1.2438   1.2490   1.2589   1.2639   1.2671   1.2710
  1.2729   1.2759   1.2816   1.2977   1.2984   1.3078   1.3136   1.3208
  1.3247   1.3332   1.3379   1.3412   1.3514   1.3579   1.3668   1.3691
  1.3734   1.3834   1.3919   1.3982   1.4043   1.4129   1.4191   1.4261
  1.4326   1.4387   1.4481   1.4542   1.4732   1.4773   1.4864   1.4903
  1.4999   1.5025   1.5036   1.5073   1.5111   1.5178   1.5219   1.5311
  1.5333   1.5392   1.5405   1.5420   1.5461   1.5489   1.5591   1.5658
  1.5744   1.5783   1.5856   1.5984   1.6086   1.6107   1.6176   1.6254
  1.6317   1.6460   1.6541   1.6586   1.6616   1.6658   1.6723   1.6840
  1.6865   1.6952   1.6981   1.7039   1.7159   1.7242   1.7266   1.7477
  1.7594   1.7662   1.7805   1.7812   1.7895   1.8033   1.8115   1.8200
  1.8230   1.8285   1.8363   1.8450   1.8628   1.8670   1.8711   1.8747
  1.8851   1.8928   1.9010   1.9062   1.9162   1.9184   1.9215   1.9368
  1.9385   1.9505   1.9535   1.9559   1.9634   1.9729   1.9765   1.9877
  1.9942   2.0012   2.0063   2.0164   2.0294   2.0360   2.0455   2.0543
  2.0691   2.0824   2.0908   2.0916   2.1064   2.1084   2.1258   2.1401
  2.1545   2.1597   2.1653   2.1678   2.1770   2.1870   2.1938   2.1952
  2.1994   2.2035   2.2058   2.2134   2.2262   2.2279   2.2353   2.2433
  2.2489   2.2528   2.2546   2.2577   2.2741   2.2742   2.2853   2.2921
  2.3009   2.3111   2.3165   2.3211   2.3311   2.3453   2.3505   2.3526
  2.3668   2.3750   2.3833   2.3904   2.3924   2.4070   2.4112   2.4208
  2.4293   2.4338   2.4388   2.4504   2.4563   2.4762   2.4817   2.4848
  2.4937   2.5029   2.5119   2.5216   2.5270   2.5448   2.5481   2.5619
  2.5641   2.5673   2.5848   2.5931   2.6055   2.6137   2.6168   2.6232
  2.6261   2.6305   2.6360   2.6379   2.6435   2.6539   2.6669   2.6691
  2.6777   2.6811   2.6889   2.6931   2.6997   2.7016   2.7084   2.7159
  2.7212   2.7286   2.7316   2.7402   2.7516   2.7541   2.7680   2.7785
  2.7788   2.7885   2.7946   2.7954   2.8010   2.8069   2.8107   2.8195
  2.8233   2.8337   2.8370   2.8424   2.8498   2.8551   2.8646   2.8708
  2.8741   2.8820   2.8837   2.8887   2.8984   2.9031   2.9158   2.9225
  2.9442   2.9518   2.9549   2.9667   2.9710   2.9780   2.9882   2.9967
  2.9984   3.0090   3.0122   3.0133   3.0209   3.0237   3.0324   3.0407
  3.0462   3.0570   3.0645   3.0660   3.0807   3.0832   3.0882   3.0931
  3.0999   3.1023   3.1092   3.1106   3.1185   3.1224   3.1316   3.1449
  3.1501   3.1530   3.1553   3.1603   3.1652   3.1691   3.1784   3.1821
  3.1912   3.1930   3.2028   3.2099   3.2152   3.2177   3.2253   3.2279
  3.2331   3.2361   3.2419   3.2462   3.2536   3.2563   3.2655   3.2698
  3.2708   3.2765   3.2820   3.2860   3.2890   3.2912   3.3025   3.3055
  3.3111   3.3138   3.3243   3.3304   3.3325   3.3369   3.3453   3.3473
  3.3496   3.3559   3.3604   3.3647   3.3657   3.3696   3.3729   3.3828
  3.3838   3.3900   3.3940   3.3961   3.4018   3.4031   3.4067   3.4104
  3.4223   3.4289   3.4350   3.4364   3.4394   3.4452   3.4496   3.4558
  3.4578   3.4607   3.4690   3.4716   3.4740   3.4750   3.4841   3.4883
  3.4960   3.5025   3.5085   3.5113   3.5214   3.5265   3.5305   3.5344
  3.5387   3.5446   3.5496   3.5537   3.5580   3.5624   3.5705   3.5793
  3.5804   3.5848   3.5920   3.5935   3.5958   3.6027   3.6037   3.6129
  3.6184   3.6242   3.6321   3.6335   3.6362   3.6487   3.6556   3.6662
  3.6691   3.6721   3.6765   3.6847   3.6891   3.6907   3.6951   3.6979
  3.7041   3.7058   3.7105   3.7127   3.7214   3.7273   3.7370   3.7398
  3.7449   3.7483   3.7563   3.7665   3.7717   3.7761   3.7805   3.7852
  3.7937   3.7944   3.7999   3.8062   3.8082   3.8152   3.8193   3.8205
  3.8238   3.8358   3.8387   3.8458   3.8501   3.8603   3.8677   3.8724
  3.8777   3.8798   3.8863   3.8924   3.9021   3.9095   3.9116   3.9251
  3.9304   3.9320   3.9447   3.9505   3.9536   3.9624   3.9693   3.9826
  3.9886   3.9907   3.9927   4.0086   4.0120   4.0295   4.0317   4.0358
  4.0458   4.0553   4.0630   4.0671   4.0694   4.0741   4.0828   4.0867
  4.1053   4.1079   4.1201   4.1229   4.1340   4.1426   4.1463   4.1542
  4.1611   4.1645   4.1670   4.1685   4.1792   4.1843   4.1894   4.1953
  4.2045   4.2082   4.2269   4.2373   4.2451   4.2464   4.2568   4.2636
  4.2708   4.2860   4.2977   4.3170   4.3173   4.3252   4.3359   4.3420
  4.3558   4.3591   4.3624   4.3768   4.3782   4.3824   4.3901   4.3950
  4.4036   4.4083   4.4122   4.4218   4.4285   4.4322   4.4388   4.4517
  4.4573   4.4690   4.4828   4.4902   4.5010   4.5033   4.5162   4.5246
  4.5367   4.5411   4.5478   4.5534   4.5591   4.5759   4.5843   4.5893
  4.5977   4.6054   4.6136   4.6267   4.6326   4.6454   4.6458   4.6546
  4.6575   4.6700   4.6799   4.6838   4.6912   4.7064   4.7187   4.7346
  4.7428   4.7537   4.7648   4.7706   4.7806   4.7873   4.7989   4.8230
  4.8314   4.8416   4.8466   4.8525   4.8704   4.8754   4.8825   4.9159
  4.9341   4.9441   4.9527   4.9564   4.9657   4.9736   4.9816   4.9955
  5.0049   5.0090   5.0120   5.0218   5.0299   5.0472   5.0562   5.0717
  5.0828   5.1019   5.1170   5.1236   5.1487   5.1626   5.1723   5.1922
  5.2003   5.2164   5.2444   5.2521   5.2530   5.2541   5.2586   5.2810
  5.2968   5.3085   5.3116   5.3252   5.3395   5.3515   5.3588   5.3662
  5.3796   5.3914   5.3991   5.4067   5.4258   5.4264   5.4311   5.4637
  5.4850   5.4871   5.5060   5.5081   5.5133   5.5298   5.5400   5.5692
  5.5738   5.5842   5.5862   5.6057   5.6177   5.6219   5.6531   5.6661
  5.7154   5.7337   5.7480   5.7780   5.8077   5.8172   5.8363   5.8560
  5.8731   5.8840   5.9124   5.9293   5.9497   5.9778   6.0026   6.0425
  6.0473   6.0861   6.1043   6.1506   6.1613   6.1708   6.1783   6.1870
  6.2385   6.2466   6.2616   6.2705   6.2832   6.2940   6.3069   6.3647
  6.4171   6.4447   6.4503   6.4917   6.5394   6.5488   6.5571   6.6040
  6.6556   6.6613   6.6714   6.6970   6.7460   6.8016   6.8300   6.8378
  6.8598   6.8924   6.9787   7.1194   7.1363   7.2041   7.2061   7.2155
  7.2344   7.3101   7.3205   7.3310   7.3633   7.3637   7.4059   7.4134
  7.4783   7.4857   7.4884   7.5240   7.5511   7.6152   7.7046   7.7731
  7.7891   7.7967   7.8948   7.9181   7.9435   7.9621   8.0837   8.1337
  8.4827   8.9221   9.0227   9.3632   9.4712   9.6543  10.0729  10.5709
 11.1681  11.4386  11.7731  11.9477  12.1302  12.1633  12.4143  12.5570
 12.6567  12.9313  12.9892  13.1478  13.3154  13.3858  13.7705  13.8473
 13.9013  14.0238  14.0421  14.6537  15.2012
 --------------------------------------------------------------
 
          Ground-State Mulliken Net Atomic Charges

     Atom                 Charge (a.u.)
  ----------------------------------------
      1 C                    -0.189667
      2 C                    -0.253762
      3 S                    -0.022059
      4 C                    -0.017300
      5 H                     0.196202
      6 C                    -0.028564
      7 C                     0.240561
      8 C                     0.244359
      9 C                    -0.045283
     10 C                    -0.022182
     11 O                    -0.333361
     12 O                    -0.339352
     13 C                    -0.085927
     14 H                     0.122970
     15 H                     0.091126
     16 H                     0.093578
     17 C                    -0.087244
     18 H                     0.125443
     19 H                     0.095193
     20 H                     0.089135
     21 C                    -0.228412
     22 S                    -0.022707
     23 C                    -0.000662
     24 H                     0.201521
     25 H                     0.206273
     26 C                    -0.020219
     27 S                     0.108958
     28 C                    -0.193885
     29 C                    -0.044812
     30 C                    -0.090542
     31 S                     0.020699
     32 C                    -0.156666
     33 C                     0.400105
     34 F                    -0.207103
     35 C                     0.443861
     36 O                    -0.460854
     37 O                    -0.300792
     38 C                    -0.058398
     39 H                     0.121336
     40 H                     0.095214
     41 H                     0.095037
     42 H                     0.218184
  ----------------------------------------
  Sum of atomic charges =     0.000000

 -----------------------------------------------------------------
                    Cartesian Multipole Moments
 -----------------------------------------------------------------
    Charge (ESU x 10^10)
                 0.0000
    Dipole Moment (Debye)
         X       1.1435      Y       1.0981      Z       3.1614
       Tot       3.5367
    Quadrupole Moments (Debye-Ang)
        XX    -184.0059     XY       3.9705     YY    -161.9698
        XZ     -14.5657     YZ      -7.6507     ZZ    -197.4250
    Octopole Moments (Debye-Ang^2)
       XXX    -224.9659    XXY     318.4049    XYY     -47.3556
       YYY     876.8724    XXZ     173.4457    XYZ      39.9389
       YYZ     125.9649    XZZ     -45.6225    YZZ     437.3206
       ZZZ     592.2381
    Hexadecapole Moments (Debye-Ang^3)
      XXXX   -1720.5133   XXXY    -173.3799   XXYY   -3774.6626
      XYYY    -161.5562   YYYY  -18946.0569   XXXZ    1027.0546
      XXYZ     366.0422   XYYZ     -41.0098   YYYZ     885.3816
      XXZZ   -1224.4999   XYZZ     136.5585   YYZZ   -4211.2810
      XZZZ     887.7991   YZZZ     594.8640   ZZZZ   -6666.8160
 -----------------------------------------------------------------
 Total job time:  315.36s(wall), 10922.48s(cpu) 
 Tue Jan  9 01:38:06 2024

        *************************************************************
        *                                                           *
        *  Thank you very much for using Q-Chem.  Have a nice day.  *
        *                                                           *
        *************************************************************


0 sent ACK to 0 
now end server 0 ... 
cleanup process ... done
remove work dirs ./qchem2269525.0 -- ./qchem2269525.0
rm -rf ./qchem2269525.0
rm -rf ./qchem2269525
