You are running Q-Chem version: 5.4.0

#
# job setting
#
local host:  exp-6-14
current dir: /home/rramji/project-csd799/aromodel/ptb7fout-qchem/rotation-run
input file:  Dimethoxy_Benzodithiophene_Phi_0_Theta_210_Methylcarbonyl_3_Fluoro_Thienothiophene.qcin
output file: 
nprocs     : 1
nthreads   : 64
#
# qchem installation setting
#
QC:          /cm/shared/apps/spack/cpu/opt/spack/linux-centos8-zen2/gcc-10.2.0/qchem-5.4-akfmr7b3t57bfs6qan3padb2wnb2i7cl
QCAUX:       /cm/shared/apps/spack/cpu/opt/spack/linux-centos8-zen2/gcc-10.2.0/qchem-5.4-akfmr7b3t57bfs6qan3padb2wnb2i7cl/qcaux
QCPROG:      /cm/shared/apps/spack/cpu/opt/spack/linux-centos8-zen2/gcc-10.2.0/qchem-5.4-akfmr7b3t57bfs6qan3padb2wnb2i7cl/exe/qcprog.exe
QCPROG_S:    /cm/shared/apps/spack/cpu/opt/spack/linux-centos8-zen2/gcc-10.2.0/qchem-5.4-akfmr7b3t57bfs6qan3padb2wnb2i7cl/exe/qcprog.exe_s
PARALLEL:    -DPARALLEL
QCMPI:       mpich
#
# qchem directory setting
#
qcrun:       qchem1724680
QCSCRATCH:   .
QCLOCALSCR:  
QCTMPDIR:    .
QCFILEPREF:  ./qchem1724680
QCSAVEDIR:   
workdirs:    ./qchem1724680
workdir0:    ./qchem1724680
partmpdirs =  
#
# parallel setting
#
QCRSH:           ssh
QCMPI:           mpich
QCMPIRUN:        /cm/shared/apps/spack/cpu/opt/spack/linux-centos8-zen2/gcc-10.2.0/qchem-5.4-akfmr7b3t57bfs6qan3padb2wnb2i7cl/bin/mpi/mpirun_qchem
QCMACHINEFILE:   ./qchem1724680/hostfile
exp-6-14

#
# env setting
#
exported envs:   QC QCAUX QCSCRATCH QCRUNNAME QCFILEPREF QCPROG QCPROG_S GUIFILE

Running Job 1 of 1 Dimethoxy_Benzodithiophene_Phi_0_Theta_210_Methylcarbonyl_3_Fluoro_Thienothiophene.qcin
qchem Dimethoxy_Benzodithiophene_Phi_0_Theta_210_Methylcarbonyl_3_Fluoro_Thienothiophene.qcin_1724680.0 ./qchem1724680/ 1
/cm/shared/apps/spack/cpu/opt/spack/linux-centos8-zen2/gcc-10.2.0/qchem-5.4-akfmr7b3t57bfs6qan3padb2wnb2i7cl/bin/mpi/mpirun_qchem -machinefile ./qchem1724680/hostfile -np 1 /cm/shared/apps/spack/cpu/opt/spack/linux-centos8-zen2/gcc-10.2.0/qchem-5.4-akfmr7b3t57bfs6qan3padb2wnb2i7cl/exe/qcprog.exe Dimethoxy_Benzodithiophene_Phi_0_Theta_210_Methylcarbonyl_3_Fluoro_Thienothiophene.qcin_1724680.0 ./qchem1724680/

Process 0 of 1 is on exp-6-14 - thread support 0
initial socket setup ...start
initial socket setup ...done 
now start server 0 ... 
                  Welcome to Q-Chem
     A Quantum Leap Into The Future Of Chemistry


 Q-Chem 5.4, Q-Chem, Inc., Pleasanton, CA (2021)

 License issued to: University of California, San Diego (site)

 E. Epifanovsky,  A. T. B. Gilbert,  Xintian Feng,  Joonho Lee,  Yuezhi Mao,  
 N. Mardirossian,  P. Pokhilko,  A. White,  M. Wormit,  M. P. Coons,  
 A. L. Dempwolff,  Zhengting Gan,  D. Hait,  P. R. Horn,  L. D. Jacobson,  
 I. Kaliman,  J. Kussmann,  A. W. Lange,  Ka Un Lao,  D. S. Levine,  Jie Liu,  
 S. C. McKenzie,  A. F. Morrison,  K. Nanda,  F. Plasser,  D. R. Rehn,  
 M. L. Vidal,  Zhi-Qiang You,  Ying Zhu,  B. Alam,  B. Albrecht,  
 A. Aldossary,  E. Alguire,  J. H. Andersen,  D. Barton,  K. Begam,  A. Behn,  
 Y. A. Bernard,  E. J. Berquist,  H. Burton,  A. Carreras,  K. Carter-Fenk,  
 R. Chakraborty,  A. D. Chien,  K. D. Closser,  V. Cofer-Shabica,  
 S. Dasgupta,  Jia Deng,  M. de Wergifosse,  M. Diedenhofen,  Hainam Do,  
 S. Ehlert,  Po-Tung Fang,  S. Fatehi,  Qingguo Feng,  J. Gayvert,  
 Qinghui Ge,  G. Gidofalvi,  M. Goldey,  J. Gomes,  C. Gonzalez-Espinoza,  
 S. Gulania,  A. Gunina,  M. W. D. Hanson-Heine,  P. H. P. Harbach,  
 A. W. Hauser,  M. F. Herbst,  M. Hernandez Vera,  M. Hodecker,  
 Z. C. Holden,  S. Houck,  Xunkun Huang,  Kerwin Hui,  B. C. Huynh,  
 M. Ivanov,  Hyunjun Ji,  Hanjie Jiang,  B. Kaduk,  S. Kaehler,  
 K. Khistyaev,  Jaehoon Kim,  P. Klunzinger,  Z. Koczor-Benda,  
 Joong Hoon Koh,  D. Kosenkov,  L. Koulias,  T. Kowalczyk,  C. M. Krauter,  
 K. Kue,  A. Kunitsa,  T. Kus,  A. Landau,  K. V. Lawler,  D. Lefrancois,  
 S. Lehtola,  Rain Li,  Yi-Pei Li,  Jiashu Liang,  M. Liebenthal,  
 Hung-Hsuan Lin,  You-Sheng Lin,  Fenglai Liu,  Kuan-Yu Liu,  
 M. Loipersberger,  A. Luenser,  A. Manjanath,  P. Manohar,  E. Mansoor,  
 S. F. Manzer,  Shan-Ping Mao,  A. V. Marenich,  T. Markovich,  S. Mason,  
 S. A. Maurer,  P. F. McLaughlin,  M. F. S. J. Menger,  J.-M. Mewes,  
 S. A. Mewes,  P. Morgante,  J. W. Mullinax,  T. S. Nguyen-Beck,  
 K. J. Oosterbaan,  G. Paran,  Alexander C. Paul,  Suranjan K. Paul,  
 F. Pavosevic,  Zheng Pei,  S. Prager,  E. I. Proynov,  E. Ramos,  B. Rana,  
 A. E. Rask,  A. Rettig,  R. M. Richard,  F. Rob,  E. Rossomme,  T. Scheele,  
 M. Scheurer,  M. Schneider,  N. Sergueev,  S. M. Sharada,  W. Skomorowski,  
 D. W. Small,  C. J. Stein,  Yu-Chuan Su,  E. J. Sundstrom,  Zhen Tao,  
 J. Thirman,  T. Tsuchimochi,  N. M. Tubman,  S. P. Veccham,  O. Vydrov,  
 J. Wenzel,  J. Witte,  A. Yamada,  Kun Yao,  S. Yeganeh,  S. R. Yost,  
 A. Zech,  Igor Ying Zhang,  Xing Zhang,  Yu Zhang,  D. Zuev,  
 A. Aspuru-Guzik,  A. T. Bell,  N. A. Besley,  K. B. Bravaya,  B. R. Brooks,  
 D. Casanova,  Jeng-Da Chai,  S. Coriani,  C. J. Cramer,  
 A. E. DePrince, III,  R. A. DiStasio Jr.,  A. Dreuw,  B. D. Dunietz,  
 T. R. Furlani,  W. A. Goddard III,  S. Grimme,  S. Hammes-Schiffer,  
 T. Head-Gordon,  W. J. Hehre,  Chao-Ping Hsu,  T.-C. Jagau,  Yousung Jung,  
 A. Klamt,  Jing Kong,  D. S. Lambrecht,  WanZhen Liang,  N. J. Mayhall,  
 C. W. McCurdy,  J. B. Neaton,  C. Ochsenfeld,  J. A. Parkhill,  R. Peverati,  
 V. A. Rassolov,  Yihan Shao,  L. V. Slipchenko,  T. Stauch,  R. P. Steele,  
 J. E. Subotnik,  A. J. W. Thom,  A. Tkatchenko,  D. G. Truhlar,  
 T. Van Voorhis,  T. A. Wesolowski,  K. B. Whaley,  H. L. Woodcock III,  
 P. M. Zimmerman,  S. Faraji,  P. M. W. Gill,  M. Head-Gordon,  
 J. M. Herbert,  A. I. Krylov

 Contributors to earlier versions of Q-Chem not listed above: 
 R. D. Adamson,  B. Austin,  R. Baer,  J. Baker,  G. J. O. Beran,  
 K. Brandhorst,  S. T. Brown,  E. F. C. Byrd,  A. K. Chakraborty,  
 G. K. L. Chan,  Chun-Min Chang,  Yunqing Chen,  C.-L. Cheng,  
 Siu Hung Chien,  D. M. Chipman,  D. L. Crittenden,  H. Dachsel,  
 R. J. Doerksen,  A. D. Dutoi,  R. G. Edgar,  J. Fosso-Tande,  
 L. Fusti-Molnar,  D. Ghosh,  A. Ghysels,  A. Golubeva-Zadorozhnaya,  
 J. Gonthier,  M. S. Gordon,  S. R. Gwaltney,  G. Hawkins,  J. E. Herr,  
 A. Heyden,  S. Hirata,  E. G. Hohenstein,  G. Kedziora,  F. J. Keil,  
 C. Kelley,  Jihan Kim,  R. A. King,  R. Z. Khaliullin,  P. P. Korambath,  
 W. Kurlancheek,  A. Laurent,  A. M. Lee,  M. S. Lee,  S. V. Levchenko,  
 Ching Yeh Lin,  D. Liotard,  E. Livshits,  R. C. Lochan,  I. Lotan,  
 L. A. Martinez-Martinez,  P. E. Maslen,  N. Nair,  D. P. O'Neill,  
 D. Neuhauser,  E. Neuscamman,  C. M. Oana,  R. Olivares-Amaya,  R. Olson,  
 T. M. Perrine,  B. Peters,  P. A. Pieniazek,  A. Prociuk,  Y. M. Rhee,  
 J. Ritchie,  M. A. Rohrdanz,  E. Rosta,  N. J. Russ,  H. F. Schaefer III,  
 M. W. Schmidt,  N. E. Schultz,  S. Sharma,  N. Shenvi,  C. D. Sherrill,  
 A. C. Simmonett,  A. Sodt,  T. Stein,  D. Stuck,  K. S. Thanthiriwatte,  
 V. Vanovschi,  L. Vogt,  Tao Wang,  A. Warshel,  M. A. Watson,  
 C. F. Williams,  Q. Wu,  X. Xu,  Jun Yang,  W. Zhang,  Yan Zhao

 Please cite Q-Chem as follows:
 Y. Shao et al., Mol. Phys. 113, 184-215 (2015)
 DOI: 10.1080/00268976.2014.952696

 Q-Chem 5.4.0 for Intel X86 EM64T Linux

 Parts of Q-Chem use Armadillo 9.800.1 (Horizon Scraper).
 http://arma.sourceforge.net/

 Q-Chem begins on Tue Jan  9 01:20:26 2024  

 Host: 
0

     Scratch files written to ./qchem1724680//
 May1621 |scratch|qcdevops|jenkins|workspace|build_RNUM    
 Parallel job on  1  processors
 Processing $rem in /cm/shared/apps/spack/cpu/opt/spack/linux-centos8-zen2/gcc-10.2.0/qchem-5.4-akfmr7b3t57bfs6qan3padb2wnb2i7cl/config/preferences:
 Processing $rem in /home/rramji/.qchemrc:
 Symmetry turned off for PCM/SM12/SMD calculation
 Core orbitals will be frozen

 Checking the input file for inconsistencies... 	...done.

 Q-Chem warning in module forms1/BasisType.C, line 2236:

 You are not using the predefined 5D/6D in this basis set.


--------------------------------------------------------------
User input:
--------------------------------------------------------------
$molecule
0 1
C	0.194917	-8.517702	-0.254945
C	-0.335839	-7.641575	0.680596
S	0.954772	-7.638634	-1.603876
C	-0.147576	-6.264785	0.354585
H	-0.854836	-7.966081	1.591356
C	0.567090	-6.072714	-0.879999
C	0.826731	-4.787049	-1.379534
C	-0.618405	-5.162801	1.124384
C	-0.362333	-3.874817	0.622407
C	0.355575	-3.683952	-0.612067
O	-1.253677	-5.499772	2.281166
O	1.463859	-4.459055	-2.542174
C	2.462679	-5.329063	-3.060718
H	2.997507	-4.755694	-3.841678
H	2.027179	-6.238095	-3.530361
H	3.185132	-5.637262	-2.274283
C	-2.124902	-4.572261	2.916545
H	-2.657438	-5.139743	3.703073
H	-2.867810	-4.153131	2.204417
H	-1.568770	-3.739531	3.399269
C	0.540061	-2.306654	-0.936109
S	-0.761887	-2.306501	1.341474
C	0.000000	-1.435185	0.000000
H	1.060690	-1.978138	-1.844392
H	0.192984	-9.614033	-0.258730
C	0.000000	0.000000	0.000000
S	0.000474	0.904764	1.507541
C	-0.000295	2.477305	0.718873
C	0.000752	0.904447	-1.067872
C	-0.001560	2.294593	-0.686410
S	0.003602	0.660872	-2.805516
C	-0.001928	2.412546	-3.054530
C	-0.004381	3.120854	-1.862551
F	-0.009185	4.457503	-1.819088
C	-0.000038	2.860570	-4.456084
O	0.007944	2.090724	-5.406510
O	-0.007501	4.211092	-4.569225
C	-0.002278	4.706177	-5.916207
H	-0.009265	5.807207	-5.833064
H	-0.895381	4.352875	-6.470168
H	0.901521	4.363301	-6.459293
H	-0.001708	3.401562	1.306486
$end

$rem
JOBTYPE		SP
EXCHANGE	HF
CORRELATION	pRIMP2
BASIS		cc-pvtz
METHOD		rimp2
AUX_BASIS	rimp2-cc-pvtz
SOLVENT_METHOD	PCM
PURECART	11111
SYMMETRY	false
MEM_TOTAL	110000
SCF_CONVERGENCE = 6
THRESH=10
GUI = 2
$end



$solvent
dielectric 4.90
$end
--------------------------------------------------------------
 ----------------------------------------------------------------
             Standard Nuclear Orientation (Angstroms)
    I     Atom           X                Y                Z
 ----------------------------------------------------------------
    1      C       0.1949170000    -8.5177020000    -0.2549450000
    2      C      -0.3358390000    -7.6415750000     0.6805960000
    3      S       0.9547720000    -7.6386340000    -1.6038760000
    4      C      -0.1475760000    -6.2647850000     0.3545850000
    5      H      -0.8548360000    -7.9660810000     1.5913560000
    6      C       0.5670900000    -6.0727140000    -0.8799990000
    7      C       0.8267310000    -4.7870490000    -1.3795340000
    8      C      -0.6184050000    -5.1628010000     1.1243840000
    9      C      -0.3623330000    -3.8748170000     0.6224070000
   10      C       0.3555750000    -3.6839520000    -0.6120670000
   11      O      -1.2536770000    -5.4997720000     2.2811660000
   12      O       1.4638590000    -4.4590550000    -2.5421740000
   13      C       2.4626790000    -5.3290630000    -3.0607180000
   14      H       2.9975070000    -4.7556940000    -3.8416780000
   15      H       2.0271790000    -6.2380950000    -3.5303610000
   16      H       3.1851320000    -5.6372620000    -2.2742830000
   17      C      -2.1249020000    -4.5722610000     2.9165450000
   18      H      -2.6574380000    -5.1397430000     3.7030730000
   19      H      -2.8678100000    -4.1531310000     2.2044170000
   20      H      -1.5687700000    -3.7395310000     3.3992690000
   21      C       0.5400610000    -2.3066540000    -0.9361090000
   22      S      -0.7618870000    -2.3065010000     1.3414740000
   23      C       0.0000000000    -1.4351850000     0.0000000000
   24      H       1.0606900000    -1.9781380000    -1.8443920000
   25      H       0.1929840000    -9.6140330000    -0.2587300000
   26      C       0.0000000000     0.0000000000     0.0000000000
   27      S       0.0004740000     0.9047640000     1.5075410000
   28      C      -0.0002950000     2.4773050000     0.7188730000
   29      C       0.0007520000     0.9044470000    -1.0678720000
   30      C      -0.0015600000     2.2945930000    -0.6864100000
   31      S       0.0036020000     0.6608720000    -2.8055160000
   32      C      -0.0019280000     2.4125460000    -3.0545300000
   33      C      -0.0043810000     3.1208540000    -1.8625510000
   34      F      -0.0091850000     4.4575030000    -1.8190880000
   35      C      -0.0000380000     2.8605700000    -4.4560840000
   36      O       0.0079440000     2.0907240000    -5.4065100000
   37      O      -0.0075010000     4.2110920000    -4.5692250000
   38      C      -0.0022780000     4.7061770000    -5.9162070000
   39      H      -0.0092650000     5.8072070000    -5.8330640000
   40      H      -0.8953810000     4.3528750000    -6.4701680000
   41      H       0.9015210000     4.3633010000    -6.4592930000
   42      H      -0.0017080000     3.4015620000     1.3064860000
 ----------------------------------------------------------------
 Nuclear Repulsion Energy =        3276.87783495 hartrees
 There are      119 alpha and      119 beta electrons
 Requested basis set is cc-pVTZ
 There are 376 shells and 1068 basis functions

 Total QAlloc Memory Limit 110000 MB
 Mega-Array Size       188 MB
 MEM_STATIC part       192 MB
 Discretize the solute cavity surface with Lebedev spheres
	Using 110 Lebedev grid points for each H atom
	Using 194 Lebedev grid points for other atoms
	Atomic van der Waals radii will be scaled by 1.20
 Remove points where switching function is < 1.0e-08
 Keep 2854 surface tesserae and discard 4202 interior tesserae
 Molecular Surface Area = 439.138 Angst**2
 Requested basis set is rimp2-cc-pVTZ
 There are 833 shells and 2903 basis functions
 A cutoff of  1.0D-10 yielded  30804 shell pairs
 There are    236736 function pairs (    307446 Cartesian)
 Smallest overlap matrix eigenvalue = 2.18E-05

 Scale SEOQF with 1.000000e-01/1.000000e-02/1.000000e-02

 Standard Electronic Orientation quadrupole field applied
 Nucleus-field energy     =     0.0000000229 hartrees
 Guess from superposition of atomic densities
 Warning:  Energy on first SCF cycle will be non-variational
 SAD guess density has 238.000000 electrons

 -----------------------------------------------------------------------
  General SCF calculation program by
  Eric Jon Sundstrom, Paul Horn, Yuezhi Mao, Dmitri Zuev, Alec White,
  David Stuck, Shaama M.S., Shane Yost, Joonho Lee, David Small,
  Daniel Levine, Susi Lehtola, Hugh Burton, Evgeny Epifanovsky,
  Bang C. Huynh
 -----------------------------------------------------------------------
 Hartree-Fock
 using 64 threads for integral computing
 -------------------------------------------------------
 OpenMP Integral computing Module                
 Release: version 1.0, May 2013, Q-Chem Inc. Pittsburgh 
 -------------------------------------------------------
 A restricted SCF calculation will be
 performed using DIIS
 SCF converges when DIIS error is below 1.0e-06
 ---------------------------------------
  Cycle       Energy         DIIS error
 ---------------------------------------
    1   -2765.2214958353      1.75e-02  
    2   -2753.8835042431      1.56e-03  
    3   -2754.2226354677      8.61e-04  
    4   -2754.3040174796      2.56e-04  
    5   -2754.3156492439      6.93e-05  
    6   -2754.3167335650      2.37e-05  
    7   -2754.3169695944      1.14e-05  
    8   -2754.3170475788      4.27e-06  
    9   -2754.3170624148      1.72e-06  
   10   -2754.3170642892      7.38e-07  Convergence criterion met
 ---------------------------------------
 SCF time:   CPU 6214.44s  wall 233.00s 

************** Final PCM Free Energy Summary **************
 G_electrostatic  =      -0.01850411 hartree =     -11.61150713 kcal/mol
 G_cavitation     =       0.00000000 hartree =       0.00000000 kcal/mol
 G_dispersion     =       0.00000000 hartree =       0.00000000 kcal/mol
 G_repulsion      =       0.00000000 hartree =       0.00000000 kcal/mol
 --------------------------------------------------
 Non-electrostatic Free Energy =       0.00000000 hartree =       0.00000000 kcal/mol
 Total                         =      -0.01850411 hartree =     -11.61150713 kcal/mol
 --------------------------------------------------
 SCF Energy (H0 + V/2)                       =   -2754.31706429 
 Solute Internal Energy (H0)                 =   -2754.29856017 
 Total Free Energy (H0 + V/2 + non-elec)     =   -2754.31706429 hartree
                                             = -1728360.04397836 kcal/mol
***********************************************************

 SCF   energy in the final basis set =    -2754.3170642892
 Total energy in the final basis set =    -2754.3170642892


 --------------------------------------------------------------
  Generalized many-body perturbation theory program
  by Joonho Lee, Fazle Rob, Xintian Feng, Evgeny Epifanovsky

 No regularization used 
 (reg. param. = 0.0000e+00)
  (P|Q)^-1/2 Time:  CPU 183.88 s  wall 3.13 s

 In RI-MP2 calculation: 
 # of frozen core orbitals: 45

 Components of the RIMP2 correlation energy:
        aaaa    correlation energy =        -0.6697616832 a.u.
        abab    correlation energy =        -3.7120296753 a.u.
        bbbb    correlation energy =        -0.6697616832 a.u.
        non-Brillouin singles      =        -0.0000000000 a.u.
        total same-spin energy     =        -1.3395233665 a.u.
        total opposite-spin energy =        -3.7120296753 a.u.

 Total  RIMP2   correlation energy =        -5.0515530418 a.u.
        RIMP2         total energy =     -2759.3686173309 a.u.

 RI-MP2 Energy Time:  CPU 2672.54 s  wall 47.36 s
 
 --------------------------------------------------------------
 
                    Orbital Energies (a.u.)
 --------------------------------------------------------------
 
 Alpha MOs
 -- Occupied --
-92.0159 -91.9982 -91.9915 -91.9865 -26.3431 -20.6146 -20.5930 -20.5912
-20.5611 -11.4092 -11.3821 -11.3201 -11.3179 -11.3092 -11.3015 -11.2994
-11.2974 -11.2967 -11.2887 -11.2877 -11.2870 -11.2856 -11.2853 -11.2844
-11.2798 -11.2621 -11.2590 -11.2567 -11.2501  -9.0145  -8.9982  -8.9920
 -8.9864  -6.6953  -6.6947  -6.6942  -6.6792  -6.6785  -6.6774  -6.6729
 -6.6723  -6.6713  -6.6674  -6.6668  -6.6659  -1.6601  -1.4671  -1.4171
 -1.4140  -1.3698  -1.2215  -1.1952  -1.1663  -1.1363  -1.0856  -1.0525
 -1.0416  -1.0232  -1.0022  -0.9885  -0.9637  -0.9600  -0.9506  -0.9392
 -0.8967  -0.8677  -0.8525  -0.8080  -0.7988  -0.7878  -0.7867  -0.7646
 -0.7552  -0.7345  -0.7250  -0.7096  -0.7021  -0.6853  -0.6836  -0.6806
 -0.6737  -0.6596  -0.6582  -0.6526  -0.6308  -0.6201  -0.6173  -0.6030
 -0.5978  -0.5847  -0.5791  -0.5707  -0.5653  -0.5622  -0.5538  -0.5500
 -0.5355  -0.5304  -0.5247  -0.5179  -0.5164  -0.5088  -0.5067  -0.4961
 -0.4882  -0.4813  -0.4762  -0.4737  -0.4688  -0.4670  -0.4604  -0.4234
 -0.3964  -0.3851  -0.3599  -0.3495  -0.3258  -0.2900  -0.2522
 -- Virtual --
  0.0271   0.0591   0.1119   0.1247   0.1319   0.1499   0.1551   0.1561
  0.1595   0.1609   0.1638   0.1724   0.1820   0.1870   0.1903   0.1995
  0.2039   0.2045   0.2152   0.2174   0.2208   0.2218   0.2246   0.2278
  0.2364   0.2411   0.2451   0.2495   0.2567   0.2650   0.2747   0.2826
  0.2959   0.3017   0.3235   0.3342   0.3400   0.3418   0.3467   0.3524
  0.3544   0.3594   0.3683   0.3767   0.3819   0.3845   0.3861   0.3880
  0.3926   0.3970   0.4038   0.4068   0.4099   0.4163   0.4197   0.4249
  0.4322   0.4352   0.4423   0.4459   0.4484   0.4540   0.4571   0.4594
  0.4627   0.4659   0.4721   0.4804   0.4826   0.4867   0.4916   0.4922
  0.4982   0.5019   0.5036   0.5082   0.5118   0.5169   0.5196   0.5222
  0.5294   0.5296   0.5327   0.5367   0.5391   0.5426   0.5484   0.5513
  0.5526   0.5567   0.5592   0.5628   0.5659   0.5699   0.5710   0.5785
  0.5883   0.5909   0.5927   0.5956   0.6031   0.6081   0.6132   0.6147
  0.6149   0.6174   0.6214   0.6226   0.6240   0.6246   0.6300   0.6308
  0.6352   0.6394   0.6436   0.6474   0.6514   0.6582   0.6619   0.6664
  0.6760   0.6794   0.6845   0.6871   0.6909   0.6988   0.7080   0.7106
  0.7136   0.7153   0.7179   0.7260   0.7340   0.7379   0.7452   0.7489
  0.7569   0.7614   0.7638   0.7769   0.7821   0.7839   0.7948   0.8025
  0.8118   0.8120   0.8140   0.8215   0.8223   0.8283   0.8449   0.8480
  0.8492   0.8561   0.8623   0.8664   0.8691   0.8745   0.8768   0.8903
  0.8949   0.8988   0.9023   0.9044   0.9119   0.9163   0.9210   0.9276
  0.9311   0.9349   0.9422   0.9436   0.9516   0.9608   0.9627   0.9696
  0.9726   0.9799   0.9825   0.9865   0.9893   0.9973   1.0012   1.0035
  1.0089   1.0131   1.0177   1.0217   1.0280   1.0307   1.0338   1.0382
  1.0470   1.0542   1.0551   1.0629   1.0666   1.0746   1.0778   1.0834
  1.0861   1.0890   1.0908   1.0973   1.1002   1.1042   1.1117   1.1126
  1.1147   1.1241   1.1306   1.1381   1.1408   1.1474   1.1537   1.1554
  1.1622   1.1682   1.1728   1.1818   1.1851   1.1860   1.1879   1.1957
  1.2046   1.2108   1.2125   1.2183   1.2198   1.2225   1.2301   1.2330
  1.2366   1.2394   1.2477   1.2500   1.2596   1.2649   1.2674   1.2705
  1.2742   1.2787   1.2839   1.2954   1.3046   1.3109   1.3142   1.3193
  1.3240   1.3284   1.3324   1.3461   1.3539   1.3607   1.3659   1.3716
  1.3793   1.3812   1.3882   1.3970   1.4066   1.4100   1.4226   1.4245
  1.4288   1.4335   1.4424   1.4545   1.4674   1.4749   1.4830   1.4853
  1.4918   1.5014   1.5032   1.5092   1.5125   1.5142   1.5188   1.5300
  1.5324   1.5394   1.5397   1.5426   1.5466   1.5491   1.5567   1.5687
  1.5732   1.5756   1.5849   1.5980   1.6068   1.6129   1.6264   1.6299
  1.6377   1.6416   1.6524   1.6575   1.6592   1.6616   1.6716   1.6839
  1.6852   1.6953   1.7060   1.7140   1.7153   1.7255   1.7376   1.7502
  1.7582   1.7705   1.7752   1.7878   1.7949   1.8007   1.8098   1.8139
  1.8250   1.8317   1.8432   1.8477   1.8532   1.8637   1.8677   1.8707
  1.8772   1.8845   1.8941   1.9125   1.9138   1.9178   1.9237   1.9301
  1.9434   1.9457   1.9516   1.9593   1.9626   1.9729   1.9813   1.9898
  1.9945   1.9998   2.0037   2.0174   2.0295   2.0409   2.0496   2.0563
  2.0712   2.0800   2.0858   2.0984   2.1084   2.1158   2.1342   2.1430
  2.1541   2.1611   2.1678   2.1695   2.1758   2.1871   2.1924   2.1938
  2.1989   2.2022   2.2086   2.2117   2.2286   2.2300   2.2334   2.2377
  2.2486   2.2516   2.2564   2.2654   2.2694   2.2739   2.2849   2.2946
  2.3036   2.3096   2.3145   2.3188   2.3353   2.3437   2.3501   2.3540
  2.3676   2.3694   2.3833   2.3849   2.3967   2.4094   2.4166   2.4250
  2.4292   2.4363   2.4461   2.4489   2.4601   2.4706   2.4795   2.4870
  2.4971   2.5013   2.5081   2.5240   2.5339   2.5403   2.5455   2.5592
  2.5644   2.5716   2.5849   2.6007   2.6049   2.6130   2.6186   2.6247
  2.6291   2.6308   2.6363   2.6395   2.6437   2.6502   2.6568   2.6747
  2.6797   2.6839   2.6869   2.6981   2.7025   2.7030   2.7058   2.7110
  2.7207   2.7217   2.7280   2.7433   2.7455   2.7487   2.7549   2.7707
  2.7799   2.7891   2.7904   2.7956   2.8051   2.8090   2.8124   2.8193
  2.8316   2.8343   2.8394   2.8434   2.8509   2.8538   2.8658   2.8729
  2.8740   2.8819   2.8844   2.8934   2.9022   2.9040   2.9182   2.9238
  2.9456   2.9499   2.9565   2.9652   2.9710   2.9776   2.9838   2.9873
  2.9987   3.0059   3.0097   3.0164   3.0215   3.0237   3.0317   3.0395
  3.0471   3.0576   3.0638   3.0683   3.0805   3.0884   3.0944   3.0997
  3.1013   3.1039   3.1062   3.1122   3.1195   3.1208   3.1326   3.1458
  3.1473   3.1496   3.1564   3.1622   3.1637   3.1695   3.1756   3.1826
  3.1838   3.1988   3.2047   3.2097   3.2171   3.2190   3.2218   3.2290
  3.2387   3.2418   3.2458   3.2493   3.2532   3.2580   3.2643   3.2665
  3.2689   3.2767   3.2800   3.2878   3.2908   3.2938   3.2988   3.3050
  3.3097   3.3141   3.3226   3.3243   3.3312   3.3368   3.3411   3.3415
  3.3451   3.3563   3.3574   3.3593   3.3619   3.3649   3.3708   3.3746
  3.3807   3.3882   3.3888   3.3921   3.3956   3.4012   3.4070   3.4104
  3.4204   3.4281   3.4324   3.4363   3.4399   3.4444   3.4495   3.4553
  3.4590   3.4643   3.4659   3.4741   3.4756   3.4780   3.4843   3.4881
  3.4956   3.4985   3.5038   3.5128   3.5185   3.5239   3.5307   3.5362
  3.5423   3.5465   3.5509   3.5553   3.5561   3.5643   3.5778   3.5815
  3.5824   3.5841   3.5883   3.5940   3.6003   3.6013   3.6036   3.6115
  3.6188   3.6233   3.6310   3.6324   3.6360   3.6400   3.6480   3.6579
  3.6635   3.6651   3.6734   3.6806   3.6839   3.6855   3.6908   3.6939
  3.6990   3.7059   3.7085   3.7147   3.7180   3.7239   3.7346   3.7368
  3.7412   3.7447   3.7545   3.7607   3.7652   3.7755   3.7811   3.7843
  3.7904   3.7928   3.8024   3.8059   3.8087   3.8156   3.8190   3.8216
  3.8269   3.8366   3.8402   3.8474   3.8508   3.8613   3.8682   3.8744
  3.8769   3.8823   3.8859   3.8915   3.9024   3.9073   3.9159   3.9212
  3.9290   3.9340   3.9459   3.9508   3.9535   3.9662   3.9715   3.9797
  3.9917   3.9919   3.9971   4.0062   4.0129   4.0200   4.0303   4.0414
  4.0501   4.0554   4.0674   4.0722   4.0749   4.0772   4.0880   4.0905
  4.0981   4.1081   4.1129   4.1219   4.1296   4.1443   4.1461   4.1558
  4.1591   4.1633   4.1672   4.1698   4.1739   4.1807   4.1889   4.1997
  4.2037   4.2153   4.2251   4.2362   4.2412   4.2520   4.2567   4.2672
  4.2758   4.2852   4.2979   4.3094   4.3148   4.3346   4.3401   4.3421
  4.3579   4.3587   4.3682   4.3727   4.3757   4.3853   4.3871   4.4039
  4.4081   4.4109   4.4121   4.4233   4.4288   4.4355   4.4407   4.4501
  4.4567   4.4691   4.4876   4.4902   4.5025   4.5044   4.5154   4.5300
  4.5336   4.5377   4.5411   4.5554   4.5621   4.5742   4.5781   4.5901
  4.5940   4.5996   4.6126   4.6228   4.6291   4.6411   4.6472   4.6551
  4.6627   4.6677   4.6770   4.6812   4.6954   4.7008   4.7196   4.7296
  4.7461   4.7527   4.7659   4.7703   4.7809   4.7923   4.7977   4.8243
  4.8311   4.8319   4.8508   4.8533   4.8691   4.8793   4.9011   4.9276
  4.9332   4.9376   4.9494   4.9583   4.9670   4.9715   4.9914   5.0013
  5.0063   5.0091   5.0145   5.0203   5.0385   5.0554   5.0618   5.0720
  5.0887   5.1106   5.1202   5.1310   5.1507   5.1633   5.1727   5.2021
  5.2094   5.2243   5.2473   5.2515   5.2523   5.2562   5.2591   5.2863
  5.2979   5.3111   5.3214   5.3312   5.3384   5.3490   5.3537   5.3693
  5.3791   5.3931   5.3989   5.4128   5.4264   5.4309   5.4376   5.4636
  5.4851   5.4861   5.5062   5.5110   5.5145   5.5316   5.5436   5.5704
  5.5758   5.5858   5.5870   5.6056   5.6214   5.6219   5.6549   5.6670
  5.7178   5.7428   5.7538   5.7777   5.8077   5.8188   5.8428   5.8547
  5.8732   5.8844   5.9136   5.9293   5.9679   5.9859   6.0024   6.0425
  6.0554   6.0937   6.1181   6.1506   6.1632   6.1704   6.1791   6.1855
  6.2406   6.2501   6.2616   6.2695   6.2842   6.3028   6.3173   6.3858
  6.4272   6.4467   6.4503   6.4987   6.5392   6.5487   6.5577   6.6046
  6.6554   6.6617   6.6713   6.7003   6.7466   6.8017   6.8302   6.8420
  6.8597   6.8919   6.9784   7.1191   7.1370   7.2041   7.2072   7.2151
  7.2348   7.3100   7.3203   7.3322   7.3634   7.3641   7.4066   7.4135
  7.4777   7.4858   7.4892   7.5255   7.5521   7.6168   7.7085   7.7732
  7.7892   7.7962   7.8947   7.9180   7.9420   7.9628   8.0896   8.1350
  8.5464   8.9221   9.0211   9.3631   9.4720   9.6461  10.0611  10.6635
 11.1584  11.4774  11.7886  11.9797  12.1320  12.2242  12.4203  12.5610
 12.6806  12.9393  13.0641  13.1449  13.3140  13.3866  13.7712  13.8469
 13.9011  14.0229  14.0429  14.6847  15.2056
 --------------------------------------------------------------
 
          Ground-State Mulliken Net Atomic Charges

     Atom                 Charge (a.u.)
  ----------------------------------------
      1 C                    -0.188876
      2 C                    -0.253890
      3 S                    -0.021024
      4 C                    -0.015907
      5 H                     0.196251
      6 C                    -0.028489
      7 C                     0.245326
      8 C                     0.239891
      9 C                    -0.042601
     10 C                    -0.029508
     11 O                    -0.333044
     12 O                    -0.339389
     13 C                    -0.086049
     14 H                     0.123199
     15 H                     0.091318
     16 H                     0.093776
     17 C                    -0.087951
     18 H                     0.125711
     19 H                     0.095371
     20 H                     0.089415
     21 C                    -0.227241
     22 S                    -0.027934
     23 C                    -0.015638
     24 H                     0.196448
     25 H                     0.206420
     26 C                    -0.003631
     27 S                     0.087054
     28 C                    -0.189954
     29 C                     0.020151
     30 C                    -0.117134
     31 S                     0.006641
     32 C                    -0.156022
     33 C                     0.399131
     34 F                    -0.207028
     35 C                     0.444093
     36 O                    -0.460682
     37 O                    -0.300550
     38 C                    -0.058673
     39 H                     0.121389
     40 H                     0.095225
     41 H                     0.095046
     42 H                     0.219360
  ----------------------------------------
  Sum of atomic charges =     0.000000

 -----------------------------------------------------------------
                    Cartesian Multipole Moments
 -----------------------------------------------------------------
    Charge (ESU x 10^10)
                 0.0000
    Dipole Moment (Debye)
         X       0.1521      Y       0.9784      Z       3.1990
       Tot       3.3487
    Quadrupole Moments (Debye-Ang)
        XX    -190.2545     XY      -1.3439     YY    -159.0168
        XZ     -12.6189     YZ      -7.9809     ZZ    -193.0691
    Octopole Moments (Debye-Ang^2)
       XXX     -31.7789    XXY     321.4636    XYY       0.0642
       YYY     844.7722    XXZ     182.9394    XYZ      63.5828
       YYZ     117.8825    XZZ      -9.6734    YZZ     409.2283
       ZZZ     598.8913
    Hexadecapole Moments (Debye-Ang^3)
      XXXX    -967.6802   XXXY     323.7349   XXYY   -3847.6158
      XYYY     259.7961   YYYY  -19234.4741   XXXZ     488.9452
      XXYZ     412.1930   XYYZ    -146.9671   YYYZ     874.5656
      XXZZ   -1232.4007   XYZZ      89.6242   YYZZ   -4154.8915
      XZZZ     436.4601   YZZZ     602.1263   ZZZZ   -7004.1158
 -----------------------------------------------------------------
 Total job time:  287.44s(wall), 9044.47s(cpu) 
 Tue Jan  9 01:25:13 2024

        *************************************************************
        *                                                           *
        *  Thank you very much for using Q-Chem.  Have a nice day.  *
        *                                                           *
        *************************************************************


0 sent ACK to 0 
now end server 0 ... 
cleanup process ... done
remove work dirs ./qchem1724680.0 -- ./qchem1724680.0
rm -rf ./qchem1724680.0
rm -rf ./qchem1724680
