You are running Q-Chem version: 5.4.0

#
# job setting
#
local host:  exp-3-42
current dir: /home/rramji/project-csd799/aromodel/ptb7fout-qchem/rotation-run
input file:  Dimethoxy_Benzodithiophene_Phi_5_Theta_340_Methylcarbonyl_3_Fluoro_Thienothiophene.qcin
output file: 
nprocs     : 1
nthreads   : 64
#
# qchem installation setting
#
QC:          /cm/shared/apps/spack/cpu/opt/spack/linux-centos8-zen2/gcc-10.2.0/qchem-5.4-akfmr7b3t57bfs6qan3padb2wnb2i7cl
QCAUX:       /cm/shared/apps/spack/cpu/opt/spack/linux-centos8-zen2/gcc-10.2.0/qchem-5.4-akfmr7b3t57bfs6qan3padb2wnb2i7cl/qcaux
QCPROG:      /cm/shared/apps/spack/cpu/opt/spack/linux-centos8-zen2/gcc-10.2.0/qchem-5.4-akfmr7b3t57bfs6qan3padb2wnb2i7cl/exe/qcprog.exe
QCPROG_S:    /cm/shared/apps/spack/cpu/opt/spack/linux-centos8-zen2/gcc-10.2.0/qchem-5.4-akfmr7b3t57bfs6qan3padb2wnb2i7cl/exe/qcprog.exe_s
PARALLEL:    -DPARALLEL
QCMPI:       mpich
#
# qchem directory setting
#
qcrun:       qchem1113629
QCSCRATCH:   .
QCLOCALSCR:  
QCTMPDIR:    .
QCFILEPREF:  ./qchem1113629
QCSAVEDIR:   
workdirs:    ./qchem1113629
workdir0:    ./qchem1113629
partmpdirs =  
#
# parallel setting
#
QCRSH:           ssh
QCMPI:           mpich
QCMPIRUN:        /cm/shared/apps/spack/cpu/opt/spack/linux-centos8-zen2/gcc-10.2.0/qchem-5.4-akfmr7b3t57bfs6qan3padb2wnb2i7cl/bin/mpi/mpirun_qchem
QCMACHINEFILE:   ./qchem1113629/hostfile
exp-3-42

#
# env setting
#
exported envs:   QC QCAUX QCSCRATCH QCRUNNAME QCFILEPREF QCPROG QCPROG_S GUIFILE

Running Job 1 of 1 Dimethoxy_Benzodithiophene_Phi_5_Theta_340_Methylcarbonyl_3_Fluoro_Thienothiophene.qcin
qchem Dimethoxy_Benzodithiophene_Phi_5_Theta_340_Methylcarbonyl_3_Fluoro_Thienothiophene.qcin_1113629.0 ./qchem1113629/ 1
/cm/shared/apps/spack/cpu/opt/spack/linux-centos8-zen2/gcc-10.2.0/qchem-5.4-akfmr7b3t57bfs6qan3padb2wnb2i7cl/bin/mpi/mpirun_qchem -machinefile ./qchem1113629/hostfile -np 1 /cm/shared/apps/spack/cpu/opt/spack/linux-centos8-zen2/gcc-10.2.0/qchem-5.4-akfmr7b3t57bfs6qan3padb2wnb2i7cl/exe/qcprog.exe Dimethoxy_Benzodithiophene_Phi_5_Theta_340_Methylcarbonyl_3_Fluoro_Thienothiophene.qcin_1113629.0 ./qchem1113629/

Process 0 of 1 is on exp-3-42 - thread support 0
initial socket setup ...start
initial socket setup ...done 
now start server 0 ... 
                  Welcome to Q-Chem
     A Quantum Leap Into The Future Of Chemistry


 Q-Chem 5.4, Q-Chem, Inc., Pleasanton, CA (2021)

 License issued to: University of California, San Diego (site)

 E. Epifanovsky,  A. T. B. Gilbert,  Xintian Feng,  Joonho Lee,  Yuezhi Mao,  
 N. Mardirossian,  P. Pokhilko,  A. White,  M. Wormit,  M. P. Coons,  
 A. L. Dempwolff,  Zhengting Gan,  D. Hait,  P. R. Horn,  L. D. Jacobson,  
 I. Kaliman,  J. Kussmann,  A. W. Lange,  Ka Un Lao,  D. S. Levine,  Jie Liu,  
 S. C. McKenzie,  A. F. Morrison,  K. Nanda,  F. Plasser,  D. R. Rehn,  
 M. L. Vidal,  Zhi-Qiang You,  Ying Zhu,  B. Alam,  B. Albrecht,  
 A. Aldossary,  E. Alguire,  J. H. Andersen,  D. Barton,  K. Begam,  A. Behn,  
 Y. A. Bernard,  E. J. Berquist,  H. Burton,  A. Carreras,  K. Carter-Fenk,  
 R. Chakraborty,  A. D. Chien,  K. D. Closser,  V. Cofer-Shabica,  
 S. Dasgupta,  Jia Deng,  M. de Wergifosse,  M. Diedenhofen,  Hainam Do,  
 S. Ehlert,  Po-Tung Fang,  S. Fatehi,  Qingguo Feng,  J. Gayvert,  
 Qinghui Ge,  G. Gidofalvi,  M. Goldey,  J. Gomes,  C. Gonzalez-Espinoza,  
 S. Gulania,  A. Gunina,  M. W. D. Hanson-Heine,  P. H. P. Harbach,  
 A. W. Hauser,  M. F. Herbst,  M. Hernandez Vera,  M. Hodecker,  
 Z. C. Holden,  S. Houck,  Xunkun Huang,  Kerwin Hui,  B. C. Huynh,  
 M. Ivanov,  Hyunjun Ji,  Hanjie Jiang,  B. Kaduk,  S. Kaehler,  
 K. Khistyaev,  Jaehoon Kim,  P. Klunzinger,  Z. Koczor-Benda,  
 Joong Hoon Koh,  D. Kosenkov,  L. Koulias,  T. Kowalczyk,  C. M. Krauter,  
 K. Kue,  A. Kunitsa,  T. Kus,  A. Landau,  K. V. Lawler,  D. Lefrancois,  
 S. Lehtola,  Rain Li,  Yi-Pei Li,  Jiashu Liang,  M. Liebenthal,  
 Hung-Hsuan Lin,  You-Sheng Lin,  Fenglai Liu,  Kuan-Yu Liu,  
 M. Loipersberger,  A. Luenser,  A. Manjanath,  P. Manohar,  E. Mansoor,  
 S. F. Manzer,  Shan-Ping Mao,  A. V. Marenich,  T. Markovich,  S. Mason,  
 S. A. Maurer,  P. F. McLaughlin,  M. F. S. J. Menger,  J.-M. Mewes,  
 S. A. Mewes,  P. Morgante,  J. W. Mullinax,  T. S. Nguyen-Beck,  
 K. J. Oosterbaan,  G. Paran,  Alexander C. Paul,  Suranjan K. Paul,  
 F. Pavosevic,  Zheng Pei,  S. Prager,  E. I. Proynov,  E. Ramos,  B. Rana,  
 A. E. Rask,  A. Rettig,  R. M. Richard,  F. Rob,  E. Rossomme,  T. Scheele,  
 M. Scheurer,  M. Schneider,  N. Sergueev,  S. M. Sharada,  W. Skomorowski,  
 D. W. Small,  C. J. Stein,  Yu-Chuan Su,  E. J. Sundstrom,  Zhen Tao,  
 J. Thirman,  T. Tsuchimochi,  N. M. Tubman,  S. P. Veccham,  O. Vydrov,  
 J. Wenzel,  J. Witte,  A. Yamada,  Kun Yao,  S. Yeganeh,  S. R. Yost,  
 A. Zech,  Igor Ying Zhang,  Xing Zhang,  Yu Zhang,  D. Zuev,  
 A. Aspuru-Guzik,  A. T. Bell,  N. A. Besley,  K. B. Bravaya,  B. R. Brooks,  
 D. Casanova,  Jeng-Da Chai,  S. Coriani,  C. J. Cramer,  
 A. E. DePrince, III,  R. A. DiStasio Jr.,  A. Dreuw,  B. D. Dunietz,  
 T. R. Furlani,  W. A. Goddard III,  S. Grimme,  S. Hammes-Schiffer,  
 T. Head-Gordon,  W. J. Hehre,  Chao-Ping Hsu,  T.-C. Jagau,  Yousung Jung,  
 A. Klamt,  Jing Kong,  D. S. Lambrecht,  WanZhen Liang,  N. J. Mayhall,  
 C. W. McCurdy,  J. B. Neaton,  C. Ochsenfeld,  J. A. Parkhill,  R. Peverati,  
 V. A. Rassolov,  Yihan Shao,  L. V. Slipchenko,  T. Stauch,  R. P. Steele,  
 J. E. Subotnik,  A. J. W. Thom,  A. Tkatchenko,  D. G. Truhlar,  
 T. Van Voorhis,  T. A. Wesolowski,  K. B. Whaley,  H. L. Woodcock III,  
 P. M. Zimmerman,  S. Faraji,  P. M. W. Gill,  M. Head-Gordon,  
 J. M. Herbert,  A. I. Krylov

 Contributors to earlier versions of Q-Chem not listed above: 
 R. D. Adamson,  B. Austin,  R. Baer,  J. Baker,  G. J. O. Beran,  
 K. Brandhorst,  S. T. Brown,  E. F. C. Byrd,  A. K. Chakraborty,  
 G. K. L. Chan,  Chun-Min Chang,  Yunqing Chen,  C.-L. Cheng,  
 Siu Hung Chien,  D. M. Chipman,  D. L. Crittenden,  H. Dachsel,  
 R. J. Doerksen,  A. D. Dutoi,  R. G. Edgar,  J. Fosso-Tande,  
 L. Fusti-Molnar,  D. Ghosh,  A. Ghysels,  A. Golubeva-Zadorozhnaya,  
 J. Gonthier,  M. S. Gordon,  S. R. Gwaltney,  G. Hawkins,  J. E. Herr,  
 A. Heyden,  S. Hirata,  E. G. Hohenstein,  G. Kedziora,  F. J. Keil,  
 C. Kelley,  Jihan Kim,  R. A. King,  R. Z. Khaliullin,  P. P. Korambath,  
 W. Kurlancheek,  A. Laurent,  A. M. Lee,  M. S. Lee,  S. V. Levchenko,  
 Ching Yeh Lin,  D. Liotard,  E. Livshits,  R. C. Lochan,  I. Lotan,  
 L. A. Martinez-Martinez,  P. E. Maslen,  N. Nair,  D. P. O'Neill,  
 D. Neuhauser,  E. Neuscamman,  C. M. Oana,  R. Olivares-Amaya,  R. Olson,  
 T. M. Perrine,  B. Peters,  P. A. Pieniazek,  A. Prociuk,  Y. M. Rhee,  
 J. Ritchie,  M. A. Rohrdanz,  E. Rosta,  N. J. Russ,  H. F. Schaefer III,  
 M. W. Schmidt,  N. E. Schultz,  S. Sharma,  N. Shenvi,  C. D. Sherrill,  
 A. C. Simmonett,  A. Sodt,  T. Stein,  D. Stuck,  K. S. Thanthiriwatte,  
 V. Vanovschi,  L. Vogt,  Tao Wang,  A. Warshel,  M. A. Watson,  
 C. F. Williams,  Q. Wu,  X. Xu,  Jun Yang,  W. Zhang,  Yan Zhao

 Please cite Q-Chem as follows:
 Y. Shao et al., Mol. Phys. 113, 184-215 (2015)
 DOI: 10.1080/00268976.2014.952696

 Q-Chem 5.4.0 for Intel X86 EM64T Linux

 Parts of Q-Chem use Armadillo 9.800.1 (Horizon Scraper).
 http://arma.sourceforge.net/

 Q-Chem begins on Tue Jan  9 02:10:44 2024  

 Host: 
0

     Scratch files written to ./qchem1113629//
 May1621 |scratch|qcdevops|jenkins|workspace|build_RNUM    
 Parallel job on  1  processors
 Processing $rem in /cm/shared/apps/spack/cpu/opt/spack/linux-centos8-zen2/gcc-10.2.0/qchem-5.4-akfmr7b3t57bfs6qan3padb2wnb2i7cl/config/preferences:
 Processing $rem in /home/rramji/.qchemrc:
 Symmetry turned off for PCM/SM12/SMD calculation
 Core orbitals will be frozen

 Checking the input file for inconsistencies... 	...done.

 Q-Chem warning in module forms1/BasisType.C, line 2236:

 You are not using the predefined 5D/6D in this basis set.


--------------------------------------------------------------
User input:
--------------------------------------------------------------
$molecule
0 1
C	0.070009	-8.517702	0.313191
C	-0.305494	-7.641575	-0.694746
S	0.614924	-7.638634	1.762350
C	-0.176768	-6.264785	-0.340973
H	-0.669571	-7.966081	-1.677747
C	0.309600	-6.072714	1.000069
C	0.525372	-4.787049	1.520060
C	-0.463825	-5.162801	-1.196466
C	-0.243888	-3.874817	-0.677639
C	0.240312	-3.683952	0.665815
O	-0.941626	-5.499772	-2.426678
O	1.006468	-4.459055	2.755460
C	0.761666	-5.329063	3.853913
H	1.016135	-4.755694	4.765607
H	1.401368	-6.238095	3.822182
H	-0.305161	-5.637262	3.901833
C	-0.868342	-4.572261	-3.502489
H	-1.128551	-5.139743	-4.416005
H	0.154712	-4.153131	-3.613841
H	-1.595605	-3.739531	-3.386756
C	0.369957	-2.306654	1.015430
S	-0.537898	-2.306501	-1.445922
C	-0.000000	-1.435185	-0.000000
H	0.731088	-1.978138	1.998088
H	0.074151	-9.614033	0.314143
C	0.000000	0.000000	0.000000
S	0.079327	0.901280	1.507541
C	0.215617	2.467903	0.718873
C	0.079577	0.900940	-1.067872
C	0.198433	2.285998	-0.686410
S	0.061187	0.658044	-2.805516
C	0.208347	2.403534	-3.054530
C	0.267636	3.109360	-1.862551
F	0.379347	4.441341	-1.819088
C	0.249278	2.849688	-4.456084
O	0.190132	2.082076	-5.406510
O	0.359548	4.195721	-4.569225
C	0.407901	4.688467	-5.916207
H	0.496901	5.785916	-5.833064
H	-0.512596	4.414348	-6.470168
H	1.278377	4.268124	-6.459293
H	0.294764	3.388767	1.306486
$end

$rem
JOBTYPE		SP
EXCHANGE	HF
CORRELATION	pRIMP2
BASIS		cc-pvtz
METHOD		rimp2
AUX_BASIS	rimp2-cc-pvtz
SOLVENT_METHOD	PCM
PURECART	11111
SYMMETRY	false
MEM_TOTAL	110000
SCF_CONVERGENCE = 6
THRESH=10
GUI = 2
$end



$solvent
dielectric 4.90
$end
--------------------------------------------------------------
 ----------------------------------------------------------------
             Standard Nuclear Orientation (Angstroms)
    I     Atom           X                Y                Z
 ----------------------------------------------------------------
    1      C       0.0700090000    -8.5177020000     0.3131910000
    2      C      -0.3054940000    -7.6415750000    -0.6947460000
    3      S       0.6149240000    -7.6386340000     1.7623500000
    4      C      -0.1767680000    -6.2647850000    -0.3409730000
    5      H      -0.6695710000    -7.9660810000    -1.6777470000
    6      C       0.3096000000    -6.0727140000     1.0000690000
    7      C       0.5253720000    -4.7870490000     1.5200600000
    8      C      -0.4638250000    -5.1628010000    -1.1964660000
    9      C      -0.2438880000    -3.8748170000    -0.6776390000
   10      C       0.2403120000    -3.6839520000     0.6658150000
   11      O      -0.9416260000    -5.4997720000    -2.4266780000
   12      O       1.0064680000    -4.4590550000     2.7554600000
   13      C       0.7616660000    -5.3290630000     3.8539130000
   14      H       1.0161350000    -4.7556940000     4.7656070000
   15      H       1.4013680000    -6.2380950000     3.8221820000
   16      H      -0.3051610000    -5.6372620000     3.9018330000
   17      C      -0.8683420000    -4.5722610000    -3.5024890000
   18      H      -1.1285510000    -5.1397430000    -4.4160050000
   19      H       0.1547120000    -4.1531310000    -3.6138410000
   20      H      -1.5956050000    -3.7395310000    -3.3867560000
   21      C       0.3699570000    -2.3066540000     1.0154300000
   22      S      -0.5378980000    -2.3065010000    -1.4459220000
   23      C       0.0000000000    -1.4351850000     0.0000000000
   24      H       0.7310880000    -1.9781380000     1.9980880000
   25      H       0.0741510000    -9.6140330000     0.3141430000
   26      C       0.0000000000     0.0000000000     0.0000000000
   27      S       0.0793270000     0.9012800000     1.5075410000
   28      C       0.2156170000     2.4679030000     0.7188730000
   29      C       0.0795770000     0.9009400000    -1.0678720000
   30      C       0.1984330000     2.2859980000    -0.6864100000
   31      S       0.0611870000     0.6580440000    -2.8055160000
   32      C       0.2083470000     2.4035340000    -3.0545300000
   33      C       0.2676360000     3.1093600000    -1.8625510000
   34      F       0.3793470000     4.4413410000    -1.8190880000
   35      C       0.2492780000     2.8496880000    -4.4560840000
   36      O       0.1901320000     2.0820760000    -5.4065100000
   37      O       0.3595480000     4.1957210000    -4.5692250000
   38      C       0.4079010000     4.6884670000    -5.9162070000
   39      H       0.4969010000     5.7859160000    -5.8330640000
   40      H      -0.5125960000     4.4143480000    -6.4701680000
   41      H       1.2783770000     4.2681240000    -6.4592930000
   42      H       0.2947640000     3.3887670000     1.3064860000
 ----------------------------------------------------------------
 Nuclear Repulsion Energy =        3286.07990078 hartrees
 There are      119 alpha and      119 beta electrons
 Requested basis set is cc-pVTZ
 There are 376 shells and 1068 basis functions

 Total QAlloc Memory Limit 110000 MB
 Mega-Array Size       188 MB
 MEM_STATIC part       192 MB
 Discretize the solute cavity surface with Lebedev spheres
	Using 110 Lebedev grid points for each H atom
	Using 194 Lebedev grid points for other atoms
	Atomic van der Waals radii will be scaled by 1.20
 Remove points where switching function is < 1.0e-08
 Keep 2873 surface tesserae and discard 4183 interior tesserae
 Molecular Surface Area = 436.523 Angst**2
 Requested basis set is rimp2-cc-pVTZ
 There are 833 shells and 2903 basis functions
 A cutoff of  1.0D-10 yielded  30877 shell pairs
 There are    237277 function pairs (    308145 Cartesian)
 Smallest overlap matrix eigenvalue = 2.17E-05

 Scale SEOQF with 1.000000e-01/1.000000e-02/1.000000e-02

 Standard Electronic Orientation quadrupole field applied
 Nucleus-field energy     =     0.0000000172 hartrees
 Guess from superposition of atomic densities
 Warning:  Energy on first SCF cycle will be non-variational
 SAD guess density has 238.000000 electrons

 -----------------------------------------------------------------------
  General SCF calculation program by
  Eric Jon Sundstrom, Paul Horn, Yuezhi Mao, Dmitri Zuev, Alec White,
  David Stuck, Shaama M.S., Shane Yost, Joonho Lee, David Small,
  Daniel Levine, Susi Lehtola, Hugh Burton, Evgeny Epifanovsky,
  Bang C. Huynh
 -----------------------------------------------------------------------
 Hartree-Fock
 using 64 threads for integral computing
 -------------------------------------------------------
 OpenMP Integral computing Module                
 Release: version 1.0, May 2013, Q-Chem Inc. Pittsburgh 
 -------------------------------------------------------
 A restricted SCF calculation will be
 performed using DIIS
 SCF converges when DIIS error is below 1.0e-06
 ---------------------------------------
  Cycle       Energy         DIIS error
 ---------------------------------------
    1   -2765.2303804030      1.75e-02  
    2   -2753.8821535066      1.56e-03  
    3   -2754.2214806557      8.62e-04  
    4   -2754.3031201462      2.56e-04  
    5   -2754.3148070807      6.94e-05  
    6   -2754.3159066051      2.39e-05  
    7   -2754.3161503552      1.15e-05  
    8   -2754.3162319854      4.36e-06  
    9   -2754.3162477430      1.75e-06  
   10   -2754.3162497568      7.60e-07  Convergence criterion met
 ---------------------------------------
 SCF time:   CPU 6398.75s  wall 235.00s 

************** Final PCM Free Energy Summary **************
 G_electrostatic  =      -0.01856448 hartree =     -11.64938653 kcal/mol
 G_cavitation     =       0.00000000 hartree =       0.00000000 kcal/mol
 G_dispersion     =       0.00000000 hartree =       0.00000000 kcal/mol
 G_repulsion      =       0.00000000 hartree =       0.00000000 kcal/mol
 --------------------------------------------------
 Non-electrostatic Free Energy =       0.00000000 hartree =       0.00000000 kcal/mol
 Total                         =      -0.01856448 hartree =     -11.64938653 kcal/mol
 --------------------------------------------------
 SCF Energy (H0 + V/2)                       =   -2754.31624976 
 Solute Internal Energy (H0)                 =   -2754.29768528 
 Total Free Energy (H0 + V/2 + non-elec)     =   -2754.31624976 hartree
                                             = -1728359.53285161 kcal/mol
***********************************************************

 SCF   energy in the final basis set =    -2754.3162497568
 Total energy in the final basis set =    -2754.3162497568


 --------------------------------------------------------------
  Generalized many-body perturbation theory program
  by Joonho Lee, Fazle Rob, Xintian Feng, Evgeny Epifanovsky

 No regularization used 
 (reg. param. = 0.0000e+00)
  (P|Q)^-1/2 Time:  CPU 211.72 s  wall 3.67 s

 In RI-MP2 calculation: 
 # of frozen core orbitals: 45

 Components of the RIMP2 correlation energy:
        aaaa    correlation energy =        -0.6700702565 a.u.
        abab    correlation energy =        -3.7127271470 a.u.
        bbbb    correlation energy =        -0.6700702565 a.u.
        non-Brillouin singles      =        -0.0000000000 a.u.
        total same-spin energy     =        -1.3401405130 a.u.
        total opposite-spin energy =        -3.7127271470 a.u.

 Total  RIMP2   correlation energy =        -5.0528676600 a.u.
        RIMP2         total energy =     -2759.3691174168 a.u.

 RI-MP2 Energy Time:  CPU 2754.67 s  wall 44.86 s
 
 --------------------------------------------------------------
 
                    Orbital Energies (a.u.)
 --------------------------------------------------------------
 
 Alpha MOs
 -- Occupied --
-92.0153 -91.9984 -91.9913 -91.9863 -26.3433 -20.6147 -20.5925 -20.5914
-20.5612 -11.4094 -11.3825 -11.3201 -11.3173 -11.3102 -11.3020 -11.3004
-11.2979 -11.2973 -11.2888 -11.2867 -11.2867 -11.2863 -11.2856 -11.2844
-11.2793 -11.2624 -11.2584 -11.2554 -11.2500  -9.0139  -8.9985  -8.9919
 -8.9863  -6.6946  -6.6941  -6.6935  -6.6795  -6.6788  -6.6776  -6.6729
 -6.6722  -6.6712  -6.6673  -6.6666  -6.6658  -1.6604  -1.4672  -1.4166
 -1.4142  -1.3699  -1.2222  -1.1950  -1.1661  -1.1364  -1.0861  -1.0524
 -1.0416  -1.0240  -1.0024  -0.9884  -0.9643  -0.9586  -0.9501  -0.9409
 -0.8961  -0.8680  -0.8522  -0.8149  -0.7920  -0.7880  -0.7863  -0.7653
 -0.7554  -0.7342  -0.7252  -0.7103  -0.6991  -0.6858  -0.6837  -0.6817
 -0.6738  -0.6593  -0.6582  -0.6527  -0.6310  -0.6200  -0.6169  -0.6031
 -0.5976  -0.5859  -0.5781  -0.5694  -0.5683  -0.5621  -0.5564  -0.5534
 -0.5323  -0.5295  -0.5228  -0.5199  -0.5182  -0.5111  -0.5063  -0.4947
 -0.4877  -0.4791  -0.4769  -0.4746  -0.4702  -0.4651  -0.4598  -0.4253
 -0.3940  -0.3862  -0.3609  -0.3513  -0.3248  -0.2911  -0.2497
 -- Virtual --
  0.0252   0.0599   0.1122   0.1255   0.1364   0.1436   0.1521   0.1551
  0.1571   0.1598   0.1698   0.1779   0.1822   0.1827   0.1925   0.1957
  0.2016   0.2073   0.2134   0.2151   0.2198   0.2229   0.2249   0.2281
  0.2357   0.2388   0.2494   0.2522   0.2588   0.2638   0.2736   0.2891
  0.2989   0.3140   0.3249   0.3293   0.3409   0.3436   0.3518   0.3523
  0.3569   0.3581   0.3744   0.3805   0.3845   0.3858   0.3882   0.3893
  0.3933   0.3992   0.4052   0.4060   0.4103   0.4136   0.4183   0.4243
  0.4291   0.4347   0.4430   0.4447   0.4515   0.4538   0.4581   0.4591
  0.4647   0.4712   0.4722   0.4794   0.4799   0.4853   0.4899   0.4909
  0.4958   0.5000   0.5047   0.5059   0.5132   0.5180   0.5235   0.5272
  0.5285   0.5301   0.5360   0.5402   0.5423   0.5444   0.5475   0.5487
  0.5504   0.5582   0.5605   0.5615   0.5683   0.5685   0.5780   0.5836
  0.5860   0.5910   0.5917   0.5980   0.6014   0.6068   0.6097   0.6134
  0.6150   0.6185   0.6191   0.6233   0.6243   0.6267   0.6282   0.6328
  0.6367   0.6418   0.6475   0.6497   0.6536   0.6604   0.6638   0.6662
  0.6709   0.6798   0.6846   0.6888   0.6924   0.6962   0.7007   0.7098
  0.7122   0.7128   0.7231   0.7254   0.7366   0.7417   0.7476   0.7524
  0.7561   0.7616   0.7688   0.7737   0.7740   0.7905   0.8016   0.8093
  0.8143   0.8149   0.8225   0.8269   0.8296   0.8337   0.8421   0.8453
  0.8559   0.8586   0.8690   0.8707   0.8751   0.8808   0.8833   0.8870
  0.8929   0.8965   0.9011   0.9102   0.9110   0.9146   0.9218   0.9254
  0.9320   0.9364   0.9417   0.9491   0.9547   0.9558   0.9584   0.9714
  0.9724   0.9761   0.9786   0.9837   0.9926   0.9955   1.0004   1.0027
  1.0066   1.0112   1.0157   1.0214   1.0262   1.0330   1.0390   1.0461
  1.0525   1.0550   1.0591   1.0649   1.0680   1.0737   1.0747   1.0838
  1.0862   1.0932   1.0978   1.1006   1.1016   1.1081   1.1092   1.1114
  1.1148   1.1171   1.1247   1.1315   1.1386   1.1485   1.1543   1.1557
  1.1660   1.1716   1.1765   1.1790   1.1847   1.1898   1.1984   1.2021
  1.2060   1.2084   1.2160   1.2174   1.2207   1.2287   1.2303   1.2342
  1.2400   1.2447   1.2462   1.2516   1.2537   1.2610   1.2660   1.2722
  1.2834   1.2864   1.2880   1.2940   1.3004   1.3054   1.3150   1.3218
  1.3261   1.3328   1.3346   1.3433   1.3502   1.3560   1.3586   1.3675
  1.3790   1.3850   1.3871   1.3978   1.4046   1.4074   1.4232   1.4255
  1.4297   1.4352   1.4420   1.4513   1.4676   1.4770   1.4834   1.4875
  1.4912   1.5014   1.5023   1.5081   1.5123   1.5149   1.5271   1.5314
  1.5328   1.5394   1.5396   1.5422   1.5468   1.5514   1.5607   1.5644
  1.5735   1.5786   1.5887   1.5980   1.6086   1.6131   1.6251   1.6304
  1.6384   1.6399   1.6435   1.6552   1.6657   1.6698   1.6760   1.6809
  1.6858   1.6893   1.6969   1.7096   1.7151   1.7292   1.7471   1.7559
  1.7637   1.7728   1.7834   1.7838   1.7906   1.8054   1.8151   1.8193
  1.8248   1.8286   1.8350   1.8437   1.8569   1.8670   1.8691   1.8789
  1.8853   1.8883   1.8968   1.9064   1.9124   1.9139   1.9217   1.9253
  1.9402   1.9457   1.9541   1.9610   1.9714   1.9761   1.9801   1.9945
  1.9997   2.0038   2.0088   2.0125   2.0287   2.0361   2.0493   2.0530
  2.0637   2.0775   2.0899   2.0995   2.1079   2.1186   2.1400   2.1513
  2.1519   2.1596   2.1659   2.1719   2.1761   2.1861   2.1917   2.1962
  2.2030   2.2071   2.2097   2.2199   2.2220   2.2299   2.2409   2.2433
  2.2519   2.2572   2.2628   2.2655   2.2719   2.2748   2.2878   2.2983
  2.3071   2.3130   2.3159   2.3225   2.3262   2.3379   2.3421   2.3516
  2.3672   2.3710   2.3813   2.3830   2.3944   2.4037   2.4157   2.4246
  2.4272   2.4312   2.4382   2.4500   2.4622   2.4732   2.4815   2.4879
  2.4984   2.5041   2.5123   2.5237   2.5331   2.5452   2.5489   2.5579
  2.5621   2.5807   2.5835   2.6001   2.6080   2.6114   2.6186   2.6235
  2.6269   2.6322   2.6346   2.6358   2.6439   2.6469   2.6631   2.6667
  2.6773   2.6823   2.6895   2.6957   2.7006   2.7034   2.7104   2.7125
  2.7203   2.7220   2.7261   2.7402   2.7421   2.7557   2.7602   2.7700
  2.7737   2.7854   2.7886   2.7918   2.8022   2.8066   2.8162   2.8167
  2.8316   2.8354   2.8436   2.8501   2.8551   2.8576   2.8643   2.8699
  2.8740   2.8783   2.8839   2.8960   2.9009   2.9052   2.9268   2.9341
  2.9443   2.9492   2.9559   2.9599   2.9677   2.9786   2.9808   2.9856
  2.9961   3.0064   3.0154   3.0172   3.0233   3.0254   3.0340   3.0378
  3.0435   3.0503   3.0596   3.0702   3.0843   3.0867   3.0941   3.1002
  3.1025   3.1058   3.1118   3.1148   3.1209   3.1267   3.1342   3.1410
  3.1463   3.1524   3.1577   3.1595   3.1616   3.1650   3.1762   3.1800
  3.1861   3.1939   3.1979   3.2126   3.2168   3.2180   3.2240   3.2276
  3.2350   3.2407   3.2444   3.2488   3.2528   3.2616   3.2659   3.2667
  3.2728   3.2767   3.2842   3.2882   3.2901   3.2959   3.2996   3.3062
  3.3079   3.3174   3.3246   3.3257   3.3270   3.3339   3.3451   3.3501
  3.3542   3.3570   3.3580   3.3626   3.3661   3.3675   3.3714   3.3791
  3.3809   3.3870   3.3904   3.3950   3.3999   3.4020   3.4046   3.4113
  3.4139   3.4263   3.4297   3.4342   3.4374   3.4434   3.4474   3.4514
  3.4592   3.4655   3.4683   3.4709   3.4741   3.4773   3.4811   3.4846
  3.4981   3.4985   3.5119   3.5129   3.5202   3.5225   3.5265   3.5324
  3.5372   3.5467   3.5480   3.5557   3.5591   3.5676   3.5708   3.5760
  3.5807   3.5853   3.5868   3.5902   3.6012   3.6030   3.6037   3.6108
  3.6174   3.6270   3.6278   3.6327   3.6356   3.6392   3.6456   3.6553
  3.6592   3.6653   3.6767   3.6809   3.6859   3.6888   3.6952   3.6999
  3.7020   3.7058   3.7100   3.7114   3.7217   3.7326   3.7348   3.7373
  3.7407   3.7541   3.7586   3.7613   3.7685   3.7742   3.7844   3.7873
  3.7930   3.7943   3.7991   3.8075   3.8103   3.8145   3.8181   3.8213
  3.8286   3.8385   3.8414   3.8474   3.8623   3.8700   3.8734   3.8743
  3.8773   3.8775   3.8921   3.8958   3.9047   3.9074   3.9160   3.9279
  3.9289   3.9331   3.9425   3.9511   3.9527   3.9620   3.9713   3.9749
  3.9900   3.9971   4.0059   4.0099   4.0129   4.0245   4.0282   4.0374
  4.0472   4.0538   4.0626   4.0654   4.0684   4.0744   4.0851   4.0922
  4.0965   4.1172   4.1232   4.1266   4.1281   4.1372   4.1434   4.1527
  4.1572   4.1663   4.1670   4.1701   4.1788   4.1867   4.1894   4.1942
  4.2053   4.2123   4.2201   4.2380   4.2407   4.2501   4.2588   4.2615
  4.2770   4.2848   4.2950   4.3096   4.3157   4.3314   4.3344   4.3419
  4.3501   4.3587   4.3676   4.3694   4.3764   4.3839   4.3931   4.4021
  4.4063   4.4085   4.4138   4.4233   4.4294   4.4332   4.4421   4.4524
  4.4583   4.4700   4.4841   4.4873   4.4946   4.5065   4.5187   4.5254
  4.5319   4.5364   4.5492   4.5547   4.5580   4.5746   4.5761   4.5833
  4.5959   4.6023   4.6095   4.6252   4.6335   4.6415   4.6475   4.6526
  4.6566   4.6695   4.6742   4.6843   4.6977   4.7146   4.7314   4.7398
  4.7502   4.7625   4.7698   4.7767   4.7856   4.7948   4.8106   4.8206
  4.8258   4.8334   4.8485   4.8552   4.8598   4.8847   4.8900   4.9072
  4.9299   4.9403   4.9495   4.9541   4.9608   4.9719   4.9836   5.0026
  5.0076   5.0090   5.0140   5.0169   5.0362   5.0486   5.0681   5.0776
  5.0927   5.1054   5.1229   5.1346   5.1627   5.1703   5.1807   5.2087
  5.2105   5.2201   5.2500   5.2513   5.2519   5.2581   5.2783   5.2909
  5.2977   5.3118   5.3147   5.3336   5.3421   5.3509   5.3539   5.3714
  5.3785   5.3963   5.3993   5.4027   5.4263   5.4381   5.4568   5.4637
  5.4785   5.4850   5.5064   5.5085   5.5192   5.5263   5.5407   5.5522
  5.5743   5.5826   5.5860   5.6060   5.6166   5.6217   5.6436   5.6661
  5.7209   5.7325   5.7616   5.7963   5.8076   5.8182   5.8528   5.8568
  5.8736   5.8835   5.9185   5.9292   5.9565   5.9845   6.0048   6.0421
  6.0687   6.0757   6.1067   6.1505   6.1708   6.1736   6.1789   6.2016
  6.2444   6.2615   6.2635   6.2745   6.2859   6.2923   6.3212   6.3519
  6.4323   6.4502   6.4515   6.4804   6.5389   6.5492   6.5569   6.6047
  6.6533   6.6616   6.6712   6.6985   6.7465   6.8010   6.8306   6.8428
  6.8596   6.8929   6.9784   7.1192   7.1382   7.2040   7.2078   7.2158
  7.2339   7.3099   7.3198   7.3326   7.3632   7.3645   7.4066   7.4133
  7.4804   7.4856   7.4893   7.5255   7.5520   7.6184   7.7210   7.7730
  7.7892   7.7964   7.8983   7.9169   7.9442   7.9728   8.1357   8.1377
  8.5117   8.9219   9.0170   9.3629   9.4714   9.6468  10.0488  10.6440
 11.1479  11.4755  11.7916  11.9466  12.1302  12.2352  12.4223  12.5919
 12.7222  12.9476  13.0912  13.2627  13.3181  13.3891  13.7798  13.8476
 13.9058  14.0266  14.0323  14.5481  15.2105
 --------------------------------------------------------------
 
          Ground-State Mulliken Net Atomic Charges

     Atom                 Charge (a.u.)
  ----------------------------------------
      1 C                    -0.190008
      2 C                    -0.253194
      3 S                    -0.022602
      4 C                    -0.016111
      5 H                     0.196433
      6 C                    -0.027633
      7 C                     0.240105
      8 C                     0.242535
      9 C                    -0.039357
     10 C                    -0.020573
     11 O                    -0.332927
     12 O                    -0.340804
     13 C                    -0.085708
     14 H                     0.122292
     15 H                     0.091296
     16 H                     0.093895
     17 C                    -0.088885
     18 H                     0.125790
     19 H                     0.095921
     20 H                     0.090314
     21 C                    -0.265370
     22 S                    -0.031939
     23 C                     0.026691
     24 H                     0.188456
     25 H                     0.206262
     26 C                     0.011382
     27 S                     0.086771
     28 C                    -0.180422
     29 C                     0.011042
     30 C                    -0.127290
     31 S                     0.002985
     32 C                    -0.163364
     33 C                     0.406384
     34 F                    -0.206870
     35 C                     0.444022
     36 O                    -0.461050
     37 O                    -0.300623
     38 C                    -0.058736
     39 H                     0.121424
     40 H                     0.095144
     41 H                     0.095091
     42 H                     0.219231
  ----------------------------------------
  Sum of atomic charges =     0.000000

 -----------------------------------------------------------------
                    Cartesian Multipole Moments
 -----------------------------------------------------------------
    Charge (ESU x 10^10)
                 0.0000
    Dipole Moment (Debye)
         X      -0.0552      Y       1.1512      Z       2.8663
       Tot       3.0893
    Quadrupole Moments (Debye-Ang)
        XX    -201.8127     XY       2.8060     YY    -160.0857
        XZ       2.3111     YZ      -7.6746     ZZ    -181.3312
    Octopole Moments (Debye-Ang^2)
       XXX     -57.5737    XXY     381.1422    XYY     -18.0382
       YYY     854.7176    XXZ     153.1758    XYZ     -20.0561
       YYZ     101.9463    XZZ     -13.1434    YZZ     351.6125
       ZZZ     510.2842
    Hexadecapole Moments (Debye-Ang^3)
      XXXX    -490.0789   XXXY     -20.4558   XXYY   -4043.5708
      XYYY       8.1227   YYYY  -19274.3691   XXXZ    -200.9584
      XXYZ     725.6049   XYYZ      -3.1123   YYYZ    1719.5381
      XXZZ   -1337.2025   XYZZ      46.2731   YYZZ   -3961.5449
      XZZZ    -152.8833   YZZZ    1540.5373   ZZZZ   -7297.5804
 -----------------------------------------------------------------
 Total job time:  294.73s(wall), 9420.76s(cpu) 
 Tue Jan  9 02:15:39 2024

        *************************************************************
        *                                                           *
        *  Thank you very much for using Q-Chem.  Have a nice day.  *
        *                                                           *
        *************************************************************


0 sent ACK to 0 
now end server 0 ... 
cleanup process ... done
remove work dirs ./qchem1113629.0 -- ./qchem1113629.0
rm -rf ./qchem1113629.0
rm -rf ./qchem1113629
