You are running Q-Chem version: 5.4.0

#
# job setting
#
local host:  exp-1-20
current dir: /home/rramji/project-csd799/aromodel/ptb7fout-qchem/rotation-run
input file:  Dimethoxy_Benzodithiophene_Phi_50_Theta_160_Methylcarbonyl_3_Fluoro_Thienothiophene.qcin
output file: 
nprocs     : 1
nthreads   : 64
#
# qchem installation setting
#
QC:          /cm/shared/apps/spack/cpu/opt/spack/linux-centos8-zen2/gcc-10.2.0/qchem-5.4-akfmr7b3t57bfs6qan3padb2wnb2i7cl
QCAUX:       /cm/shared/apps/spack/cpu/opt/spack/linux-centos8-zen2/gcc-10.2.0/qchem-5.4-akfmr7b3t57bfs6qan3padb2wnb2i7cl/qcaux
QCPROG:      /cm/shared/apps/spack/cpu/opt/spack/linux-centos8-zen2/gcc-10.2.0/qchem-5.4-akfmr7b3t57bfs6qan3padb2wnb2i7cl/exe/qcprog.exe
QCPROG_S:    /cm/shared/apps/spack/cpu/opt/spack/linux-centos8-zen2/gcc-10.2.0/qchem-5.4-akfmr7b3t57bfs6qan3padb2wnb2i7cl/exe/qcprog.exe_s
PARALLEL:    -DPARALLEL
QCMPI:       mpich
#
# qchem directory setting
#
qcrun:       qchem3313470
QCSCRATCH:   .
QCLOCALSCR:  
QCTMPDIR:    .
QCFILEPREF:  ./qchem3313470
QCSAVEDIR:   
workdirs:    ./qchem3313470
workdir0:    ./qchem3313470
partmpdirs =  
#
# parallel setting
#
QCRSH:           ssh
QCMPI:           mpich
QCMPIRUN:        /cm/shared/apps/spack/cpu/opt/spack/linux-centos8-zen2/gcc-10.2.0/qchem-5.4-akfmr7b3t57bfs6qan3padb2wnb2i7cl/bin/mpi/mpirun_qchem
QCMACHINEFILE:   ./qchem3313470/hostfile
exp-1-20

#
# env setting
#
exported envs:   QC QCAUX QCSCRATCH QCRUNNAME QCFILEPREF QCPROG QCPROG_S GUIFILE

Running Job 1 of 1 Dimethoxy_Benzodithiophene_Phi_50_Theta_160_Methylcarbonyl_3_Fluoro_Thienothiophene.qcin
qchem Dimethoxy_Benzodithiophene_Phi_50_Theta_160_Methylcarbonyl_3_Fluoro_Thienothiophene.qcin_3313470.0 ./qchem3313470/ 1
/cm/shared/apps/spack/cpu/opt/spack/linux-centos8-zen2/gcc-10.2.0/qchem-5.4-akfmr7b3t57bfs6qan3padb2wnb2i7cl/bin/mpi/mpirun_qchem -machinefile ./qchem3313470/hostfile -np 1 /cm/shared/apps/spack/cpu/opt/spack/linux-centos8-zen2/gcc-10.2.0/qchem-5.4-akfmr7b3t57bfs6qan3padb2wnb2i7cl/exe/qcprog.exe Dimethoxy_Benzodithiophene_Phi_50_Theta_160_Methylcarbonyl_3_Fluoro_Thienothiophene.qcin_3313470.0 ./qchem3313470/

Process 0 of 1 is on exp-1-20 - thread support 0
initial socket setup ...start
initial socket setup ...done 
now start server 0 ... 
                  Welcome to Q-Chem
     A Quantum Leap Into The Future Of Chemistry


 Q-Chem 5.4, Q-Chem, Inc., Pleasanton, CA (2021)

 License issued to: University of California, San Diego (site)

 E. Epifanovsky,  A. T. B. Gilbert,  Xintian Feng,  Joonho Lee,  Yuezhi Mao,  
 N. Mardirossian,  P. Pokhilko,  A. White,  M. Wormit,  M. P. Coons,  
 A. L. Dempwolff,  Zhengting Gan,  D. Hait,  P. R. Horn,  L. D. Jacobson,  
 I. Kaliman,  J. Kussmann,  A. W. Lange,  Ka Un Lao,  D. S. Levine,  Jie Liu,  
 S. C. McKenzie,  A. F. Morrison,  K. Nanda,  F. Plasser,  D. R. Rehn,  
 M. L. Vidal,  Zhi-Qiang You,  Ying Zhu,  B. Alam,  B. Albrecht,  
 A. Aldossary,  E. Alguire,  J. H. Andersen,  D. Barton,  K. Begam,  A. Behn,  
 Y. A. Bernard,  E. J. Berquist,  H. Burton,  A. Carreras,  K. Carter-Fenk,  
 R. Chakraborty,  A. D. Chien,  K. D. Closser,  V. Cofer-Shabica,  
 S. Dasgupta,  Jia Deng,  M. de Wergifosse,  M. Diedenhofen,  Hainam Do,  
 S. Ehlert,  Po-Tung Fang,  S. Fatehi,  Qingguo Feng,  J. Gayvert,  
 Qinghui Ge,  G. Gidofalvi,  M. Goldey,  J. Gomes,  C. Gonzalez-Espinoza,  
 S. Gulania,  A. Gunina,  M. W. D. Hanson-Heine,  P. H. P. Harbach,  
 A. W. Hauser,  M. F. Herbst,  M. Hernandez Vera,  M. Hodecker,  
 Z. C. Holden,  S. Houck,  Xunkun Huang,  Kerwin Hui,  B. C. Huynh,  
 M. Ivanov,  Hyunjun Ji,  Hanjie Jiang,  B. Kaduk,  S. Kaehler,  
 K. Khistyaev,  Jaehoon Kim,  P. Klunzinger,  Z. Koczor-Benda,  
 Joong Hoon Koh,  D. Kosenkov,  L. Koulias,  T. Kowalczyk,  C. M. Krauter,  
 K. Kue,  A. Kunitsa,  T. Kus,  A. Landau,  K. V. Lawler,  D. Lefrancois,  
 S. Lehtola,  Rain Li,  Yi-Pei Li,  Jiashu Liang,  M. Liebenthal,  
 Hung-Hsuan Lin,  You-Sheng Lin,  Fenglai Liu,  Kuan-Yu Liu,  
 M. Loipersberger,  A. Luenser,  A. Manjanath,  P. Manohar,  E. Mansoor,  
 S. F. Manzer,  Shan-Ping Mao,  A. V. Marenich,  T. Markovich,  S. Mason,  
 S. A. Maurer,  P. F. McLaughlin,  M. F. S. J. Menger,  J.-M. Mewes,  
 S. A. Mewes,  P. Morgante,  J. W. Mullinax,  T. S. Nguyen-Beck,  
 K. J. Oosterbaan,  G. Paran,  Alexander C. Paul,  Suranjan K. Paul,  
 F. Pavosevic,  Zheng Pei,  S. Prager,  E. I. Proynov,  E. Ramos,  B. Rana,  
 A. E. Rask,  A. Rettig,  R. M. Richard,  F. Rob,  E. Rossomme,  T. Scheele,  
 M. Scheurer,  M. Schneider,  N. Sergueev,  S. M. Sharada,  W. Skomorowski,  
 D. W. Small,  C. J. Stein,  Yu-Chuan Su,  E. J. Sundstrom,  Zhen Tao,  
 J. Thirman,  T. Tsuchimochi,  N. M. Tubman,  S. P. Veccham,  O. Vydrov,  
 J. Wenzel,  J. Witte,  A. Yamada,  Kun Yao,  S. Yeganeh,  S. R. Yost,  
 A. Zech,  Igor Ying Zhang,  Xing Zhang,  Yu Zhang,  D. Zuev,  
 A. Aspuru-Guzik,  A. T. Bell,  N. A. Besley,  K. B. Bravaya,  B. R. Brooks,  
 D. Casanova,  Jeng-Da Chai,  S. Coriani,  C. J. Cramer,  
 A. E. DePrince, III,  R. A. DiStasio Jr.,  A. Dreuw,  B. D. Dunietz,  
 T. R. Furlani,  W. A. Goddard III,  S. Grimme,  S. Hammes-Schiffer,  
 T. Head-Gordon,  W. J. Hehre,  Chao-Ping Hsu,  T.-C. Jagau,  Yousung Jung,  
 A. Klamt,  Jing Kong,  D. S. Lambrecht,  WanZhen Liang,  N. J. Mayhall,  
 C. W. McCurdy,  J. B. Neaton,  C. Ochsenfeld,  J. A. Parkhill,  R. Peverati,  
 V. A. Rassolov,  Yihan Shao,  L. V. Slipchenko,  T. Stauch,  R. P. Steele,  
 J. E. Subotnik,  A. J. W. Thom,  A. Tkatchenko,  D. G. Truhlar,  
 T. Van Voorhis,  T. A. Wesolowski,  K. B. Whaley,  H. L. Woodcock III,  
 P. M. Zimmerman,  S. Faraji,  P. M. W. Gill,  M. Head-Gordon,  
 J. M. Herbert,  A. I. Krylov

 Contributors to earlier versions of Q-Chem not listed above: 
 R. D. Adamson,  B. Austin,  R. Baer,  J. Baker,  G. J. O. Beran,  
 K. Brandhorst,  S. T. Brown,  E. F. C. Byrd,  A. K. Chakraborty,  
 G. K. L. Chan,  Chun-Min Chang,  Yunqing Chen,  C.-L. Cheng,  
 Siu Hung Chien,  D. M. Chipman,  D. L. Crittenden,  H. Dachsel,  
 R. J. Doerksen,  A. D. Dutoi,  R. G. Edgar,  J. Fosso-Tande,  
 L. Fusti-Molnar,  D. Ghosh,  A. Ghysels,  A. Golubeva-Zadorozhnaya,  
 J. Gonthier,  M. S. Gordon,  S. R. Gwaltney,  G. Hawkins,  J. E. Herr,  
 A. Heyden,  S. Hirata,  E. G. Hohenstein,  G. Kedziora,  F. J. Keil,  
 C. Kelley,  Jihan Kim,  R. A. King,  R. Z. Khaliullin,  P. P. Korambath,  
 W. Kurlancheek,  A. Laurent,  A. M. Lee,  M. S. Lee,  S. V. Levchenko,  
 Ching Yeh Lin,  D. Liotard,  E. Livshits,  R. C. Lochan,  I. Lotan,  
 L. A. Martinez-Martinez,  P. E. Maslen,  N. Nair,  D. P. O'Neill,  
 D. Neuhauser,  E. Neuscamman,  C. M. Oana,  R. Olivares-Amaya,  R. Olson,  
 T. M. Perrine,  B. Peters,  P. A. Pieniazek,  A. Prociuk,  Y. M. Rhee,  
 J. Ritchie,  M. A. Rohrdanz,  E. Rosta,  N. J. Russ,  H. F. Schaefer III,  
 M. W. Schmidt,  N. E. Schultz,  S. Sharma,  N. Shenvi,  C. D. Sherrill,  
 A. C. Simmonett,  A. Sodt,  T. Stein,  D. Stuck,  K. S. Thanthiriwatte,  
 V. Vanovschi,  L. Vogt,  Tao Wang,  A. Warshel,  M. A. Watson,  
 C. F. Williams,  Q. Wu,  X. Xu,  Jun Yang,  W. Zhang,  Yan Zhao

 Please cite Q-Chem as follows:
 Y. Shao et al., Mol. Phys. 113, 184-215 (2015)
 DOI: 10.1080/00268976.2014.952696

 Q-Chem 5.4.0 for Intel X86 EM64T Linux

 Parts of Q-Chem use Armadillo 9.800.1 (Horizon Scraper).
 http://arma.sourceforge.net/

 Q-Chem begins on Mon Jan  8 20:38:59 2024  

 Host: 
0

     Scratch files written to ./qchem3313470//
 May1621 |scratch|qcdevops|jenkins|workspace|build_RNUM    
 Parallel job on  1  processors
 Processing $rem in /cm/shared/apps/spack/cpu/opt/spack/linux-centos8-zen2/gcc-10.2.0/qchem-5.4-akfmr7b3t57bfs6qan3padb2wnb2i7cl/config/preferences:
 Processing $rem in /home/rramji/.qchemrc:
 Symmetry turned off for PCM/SM12/SMD calculation
 Core orbitals will be frozen

 Checking the input file for inconsistencies... 	...done.

 Q-Chem warning in module forms1/BasisType.C, line 2236:

 You are not using the predefined 5D/6D in this basis set.


--------------------------------------------------------------
User input:
--------------------------------------------------------------
$molecule
0 1
C	-0.070009	-8.517702	-0.313191
C	0.305494	-7.641575	0.694746
S	-0.614924	-7.638634	-1.762350
C	0.176768	-6.264785	0.340973
H	0.669571	-7.966081	1.677747
C	-0.309600	-6.072714	-1.000069
C	-0.525372	-4.787049	-1.520060
C	0.463825	-5.162801	1.196466
C	0.243888	-3.874817	0.677639
C	-0.240312	-3.683952	-0.665815
O	0.941626	-5.499772	2.426678
O	-1.006468	-4.459055	-2.755460
C	-0.761666	-5.329063	-3.853913
H	-1.016135	-4.755694	-4.765607
H	-1.401368	-6.238095	-3.822182
H	0.305161	-5.637262	-3.901833
C	0.868342	-4.572261	3.502489
H	1.128551	-5.139743	4.416005
H	-0.154712	-4.153131	3.613841
H	1.595605	-3.739531	3.386756
C	-0.369957	-2.306654	-1.015430
S	0.537898	-2.306501	1.445922
C	0.000000	-1.435185	0.000000
H	-0.731088	-1.978138	-1.998088
H	-0.074151	-9.614033	-0.314143
C	0.000000	0.000000	0.000000
S	0.693394	0.581209	1.507541
C	1.897536	1.592607	0.718873
C	0.693330	0.580791	-1.067872
C	1.756758	1.476132	-0.686410
S	0.508573	0.422041	-2.805516
C	1.846879	1.552232	-3.054530
C	2.387897	2.009402	-1.862551
F	3.408741	2.872264	-1.819088
C	2.191300	1.838768	-4.456084
O	1.606694	1.337806	-5.406510
O	3.221062	2.712584	-4.569225
C	3.603677	3.026817	-5.916207
H	4.442623	3.739898	-5.833064
H	2.758956	3.483875	-6.470168
H	3.921969	2.114070	-6.459293
H	2.604650	2.187790	1.306486
$end

$rem
JOBTYPE		SP
EXCHANGE	HF
CORRELATION	pRIMP2
BASIS		cc-pvtz
METHOD		rimp2
AUX_BASIS	rimp2-cc-pvtz
SOLVENT_METHOD	PCM
PURECART	11111
SYMMETRY	false
MEM_TOTAL	110000
SCF_CONVERGENCE = 6
THRESH=10
GUI = 2
$end



$solvent
dielectric 4.90
$end
--------------------------------------------------------------
 ----------------------------------------------------------------
             Standard Nuclear Orientation (Angstroms)
    I     Atom           X                Y                Z
 ----------------------------------------------------------------
    1      C      -0.0700090000    -8.5177020000    -0.3131910000
    2      C       0.3054940000    -7.6415750000     0.6947460000
    3      S      -0.6149240000    -7.6386340000    -1.7623500000
    4      C       0.1767680000    -6.2647850000     0.3409730000
    5      H       0.6695710000    -7.9660810000     1.6777470000
    6      C      -0.3096000000    -6.0727140000    -1.0000690000
    7      C      -0.5253720000    -4.7870490000    -1.5200600000
    8      C       0.4638250000    -5.1628010000     1.1964660000
    9      C       0.2438880000    -3.8748170000     0.6776390000
   10      C      -0.2403120000    -3.6839520000    -0.6658150000
   11      O       0.9416260000    -5.4997720000     2.4266780000
   12      O      -1.0064680000    -4.4590550000    -2.7554600000
   13      C      -0.7616660000    -5.3290630000    -3.8539130000
   14      H      -1.0161350000    -4.7556940000    -4.7656070000
   15      H      -1.4013680000    -6.2380950000    -3.8221820000
   16      H       0.3051610000    -5.6372620000    -3.9018330000
   17      C       0.8683420000    -4.5722610000     3.5024890000
   18      H       1.1285510000    -5.1397430000     4.4160050000
   19      H      -0.1547120000    -4.1531310000     3.6138410000
   20      H       1.5956050000    -3.7395310000     3.3867560000
   21      C      -0.3699570000    -2.3066540000    -1.0154300000
   22      S       0.5378980000    -2.3065010000     1.4459220000
   23      C       0.0000000000    -1.4351850000     0.0000000000
   24      H      -0.7310880000    -1.9781380000    -1.9980880000
   25      H      -0.0741510000    -9.6140330000    -0.3141430000
   26      C       0.0000000000     0.0000000000     0.0000000000
   27      S       0.6933940000     0.5812090000     1.5075410000
   28      C       1.8975360000     1.5926070000     0.7188730000
   29      C       0.6933300000     0.5807910000    -1.0678720000
   30      C       1.7567580000     1.4761320000    -0.6864100000
   31      S       0.5085730000     0.4220410000    -2.8055160000
   32      C       1.8468790000     1.5522320000    -3.0545300000
   33      C       2.3878970000     2.0094020000    -1.8625510000
   34      F       3.4087410000     2.8722640000    -1.8190880000
   35      C       2.1913000000     1.8387680000    -4.4560840000
   36      O       1.6066940000     1.3378060000    -5.4065100000
   37      O       3.2210620000     2.7125840000    -4.5692250000
   38      C       3.6036770000     3.0268170000    -5.9162070000
   39      H       4.4426230000     3.7398980000    -5.8330640000
   40      H       2.7589560000     3.4838750000    -6.4701680000
   41      H       3.9219690000     2.1140700000    -6.4592930000
   42      H       2.6046500000     2.1877900000     1.3064860000
 ----------------------------------------------------------------
 Nuclear Repulsion Energy =        3336.90496821 hartrees
 There are      119 alpha and      119 beta electrons
 Requested basis set is cc-pVTZ
 There are 376 shells and 1068 basis functions

 Total QAlloc Memory Limit 110000 MB
 Mega-Array Size       188 MB
 MEM_STATIC part       192 MB
 Discretize the solute cavity surface with Lebedev spheres
	Using 110 Lebedev grid points for each H atom
	Using 194 Lebedev grid points for other atoms
	Atomic van der Waals radii will be scaled by 1.20
 Remove points where switching function is < 1.0e-08
 Keep 2845 surface tesserae and discard 4211 interior tesserae
 Molecular Surface Area = 433.271 Angst**2
 Requested basis set is rimp2-cc-pVTZ
 There are 833 shells and 2903 basis functions
 A cutoff of  1.0D-10 yielded  31748 shell pairs
 There are    242964 function pairs (    315121 Cartesian)
 Smallest overlap matrix eigenvalue = 2.17E-05

 Scale SEOQF with 1.000000e-01/1.000000e-02/1.000000e-02

 Standard Electronic Orientation quadrupole field applied
 Nucleus-field energy     =     0.0000000305 hartrees
 Guess from superposition of atomic densities
 Warning:  Energy on first SCF cycle will be non-variational
 SAD guess density has 238.000000 electrons

 -----------------------------------------------------------------------
  General SCF calculation program by
  Eric Jon Sundstrom, Paul Horn, Yuezhi Mao, Dmitri Zuev, Alec White,
  David Stuck, Shaama M.S., Shane Yost, Joonho Lee, David Small,
  Daniel Levine, Susi Lehtola, Hugh Burton, Evgeny Epifanovsky,
  Bang C. Huynh
 -----------------------------------------------------------------------
 Hartree-Fock
 using 64 threads for integral computing
 -------------------------------------------------------
 OpenMP Integral computing Module                
 Release: version 1.0, May 2013, Q-Chem Inc. Pittsburgh 
 -------------------------------------------------------
 A restricted SCF calculation will be
 performed using DIIS
 SCF converges when DIIS error is below 1.0e-06
 ---------------------------------------
  Cycle       Energy         DIIS error
 ---------------------------------------
    1   -2765.3299195484      1.75e-02  
    2   -2753.8278147129      1.57e-03  
    3   -2754.1701161150      8.71e-04  
    4   -2754.2540091508      2.56e-04  
    5   -2754.2658066253      6.94e-05  
    6   -2754.2668945615      2.39e-05  
    7   -2754.2671313368      1.14e-05  
    8   -2754.2672096977      4.32e-06  
    9   -2754.2672250075      1.72e-06  
   10   -2754.2672270253      7.88e-07  Convergence criterion met
 ---------------------------------------
 SCF time:   CPU 6075.10s  wall 245.00s 

************** Final PCM Free Energy Summary **************
 G_electrostatic  =      -0.02042647 hartree =     -12.81780077 kcal/mol
 G_cavitation     =       0.00000000 hartree =       0.00000000 kcal/mol
 G_dispersion     =       0.00000000 hartree =       0.00000000 kcal/mol
 G_repulsion      =       0.00000000 hartree =       0.00000000 kcal/mol
 --------------------------------------------------
 Non-electrostatic Free Energy =       0.00000000 hartree =       0.00000000 kcal/mol
 Total                         =      -0.02042647 hartree =     -12.81780077 kcal/mol
 --------------------------------------------------
 SCF Energy (H0 + V/2)                       =   -2754.26722703 
 Solute Internal Energy (H0)                 =   -2754.24680056 
 Total Free Energy (H0 + V/2 + non-elec)     =   -2754.26722703 hartree
                                             = -1728328.77062331 kcal/mol
***********************************************************

 SCF   energy in the final basis set =    -2754.2672270253
 Total energy in the final basis set =    -2754.2672270253


 --------------------------------------------------------------
  Generalized many-body perturbation theory program
  by Joonho Lee, Fazle Rob, Xintian Feng, Evgeny Epifanovsky

 No regularization used 
 (reg. param. = 0.0000e+00)
  (P|Q)^-1/2 Time:  CPU 293.07 s  wall 5.02 s

 In RI-MP2 calculation: 
 # of frozen core orbitals: 45

 Components of the RIMP2 correlation energy:
        aaaa    correlation energy =        -0.6722048329 a.u.
        abab    correlation energy =        -3.7186386796 a.u.
        bbbb    correlation energy =        -0.6722048329 a.u.
        non-Brillouin singles      =        -0.0000000000 a.u.
        total same-spin energy     =        -1.3444096659 a.u.
        total opposite-spin energy =        -3.7186386796 a.u.

 Total  RIMP2   correlation energy =        -5.0630483454 a.u.
        RIMP2         total energy =     -2759.3302753708 a.u.

 RI-MP2 Energy Time:  CPU 2992.87 s  wall 49.83 s
 
 --------------------------------------------------------------
 
                    Orbital Energies (a.u.)
 --------------------------------------------------------------
 
 Alpha MOs
 -- Occupied --
-92.0156 -92.0092 -91.9875 -91.9826 -26.3467 -20.6160 -20.5911 -20.5861
-20.5626 -11.4112 -11.3875 -11.3310 -11.3187 -11.3170 -11.3087 -11.2996
-11.2971 -11.2901 -11.2896 -11.2867 -11.2834 -11.2829 -11.2807 -11.2772
-11.2741 -11.2575 -11.2514 -11.2472 -11.2367  -9.0153  -9.0088  -8.9882
 -8.9826  -6.6959  -6.6951  -6.6948  -6.6897  -6.6889  -6.6879  -6.6691
 -6.6684  -6.6674  -6.6636  -6.6630  -6.6621  -1.6636  -1.4686  -1.4150
 -1.4090  -1.3714  -1.2326  -1.1902  -1.1650  -1.1400  -1.0849  -1.0479
 -1.0454  -1.0280  -0.9975  -0.9874  -0.9664  -0.9580  -0.9483  -0.9388
 -0.8936  -0.8721  -0.8465  -0.8121  -0.7984  -0.7865  -0.7826  -0.7616
 -0.7564  -0.7303  -0.7283  -0.7139  -0.6995  -0.6869  -0.6833  -0.6793
 -0.6751  -0.6602  -0.6571  -0.6494  -0.6289  -0.6169  -0.6150  -0.6038
 -0.6021  -0.5882  -0.5791  -0.5703  -0.5633  -0.5619  -0.5543  -0.5412
 -0.5342  -0.5308  -0.5224  -0.5171  -0.5144  -0.5107  -0.5029  -0.4941
 -0.4880  -0.4821  -0.4765  -0.4745  -0.4680  -0.4589  -0.4581  -0.4255
 -0.3935  -0.3800  -0.3613  -0.3451  -0.3276  -0.2918  -0.2455
 -- Virtual --
  0.0174   0.0686   0.0915   0.1254   0.1342   0.1474   0.1545   0.1563
  0.1571   0.1578   0.1640   0.1710   0.1818   0.1842   0.1876   0.1954
  0.2036   0.2105   0.2144   0.2175   0.2225   0.2244   0.2254   0.2264
  0.2360   0.2390   0.2473   0.2504   0.2579   0.2638   0.2748   0.2840
  0.2943   0.2973   0.3154   0.3269   0.3315   0.3430   0.3454   0.3517
  0.3551   0.3606   0.3718   0.3793   0.3827   0.3839   0.3853   0.3889
  0.3911   0.3942   0.3964   0.4057   0.4105   0.4146   0.4186   0.4218
  0.4240   0.4306   0.4369   0.4405   0.4471   0.4506   0.4536   0.4620
  0.4641   0.4700   0.4726   0.4749   0.4803   0.4810   0.4858   0.4947
  0.4978   0.4996   0.5027   0.5075   0.5111   0.5152   0.5181   0.5216
  0.5302   0.5319   0.5337   0.5383   0.5396   0.5418   0.5470   0.5480
  0.5523   0.5558   0.5610   0.5648   0.5662   0.5710   0.5758   0.5822
  0.5867   0.5923   0.5950   0.5968   0.6031   0.6046   0.6083   0.6147
  0.6164   0.6173   0.6206   0.6229   0.6240   0.6307   0.6332   0.6396
  0.6420   0.6446   0.6474   0.6541   0.6576   0.6639   0.6664   0.6713
  0.6737   0.6807   0.6860   0.6881   0.6938   0.7021   0.7029   0.7068
  0.7131   0.7148   0.7216   0.7305   0.7317   0.7396   0.7502   0.7536
  0.7566   0.7618   0.7670   0.7726   0.7818   0.7869   0.7956   0.8013
  0.8069   0.8108   0.8123   0.8163   0.8210   0.8286   0.8393   0.8419
  0.8490   0.8556   0.8599   0.8657   0.8699   0.8724   0.8746   0.8819
  0.8912   0.8931   0.8959   0.9005   0.9152   0.9212   0.9219   0.9257
  0.9320   0.9364   0.9387   0.9486   0.9521   0.9581   0.9598   0.9657
  0.9726   0.9741   0.9767   0.9847   0.9868   0.9935   1.0001   1.0029
  1.0087   1.0130   1.0158   1.0228   1.0232   1.0348   1.0392   1.0452
  1.0485   1.0550   1.0574   1.0631   1.0675   1.0696   1.0789   1.0832
  1.0885   1.0898   1.0958   1.1015   1.1040   1.1077   1.1106   1.1139
  1.1220   1.1237   1.1262   1.1324   1.1429   1.1484   1.1550   1.1568
  1.1627   1.1723   1.1727   1.1791   1.1870   1.1880   1.1919   1.1946
  1.1956   1.2050   1.2113   1.2158   1.2197   1.2230   1.2272   1.2368
  1.2414   1.2463   1.2490   1.2527   1.2574   1.2636   1.2679   1.2731
  1.2766   1.2802   1.2869   1.2873   1.3067   1.3100   1.3126   1.3199
  1.3239   1.3257   1.3356   1.3455   1.3505   1.3534   1.3622   1.3713
  1.3742   1.3765   1.3865   1.3939   1.3992   1.4056   1.4097   1.4212
  1.4252   1.4353   1.4454   1.4496   1.4716   1.4742   1.4827   1.4857
  1.4926   1.5015   1.5034   1.5099   1.5120   1.5195   1.5254   1.5332
  1.5354   1.5367   1.5428   1.5452   1.5480   1.5527   1.5603   1.5662
  1.5728   1.5791   1.5865   1.5915   1.5956   1.6068   1.6227   1.6318
  1.6391   1.6416   1.6544   1.6566   1.6582   1.6644   1.6756   1.6840
  1.6910   1.6987   1.6995   1.7039   1.7141   1.7357   1.7428   1.7502
  1.7563   1.7587   1.7669   1.7763   1.7930   1.7988   1.8063   1.8111
  1.8202   1.8267   1.8351   1.8381   1.8504   1.8619   1.8689   1.8711
  1.8899   1.8920   1.9006   1.9097   1.9187   1.9200   1.9262   1.9319
  1.9402   1.9533   1.9572   1.9603   1.9699   1.9729   1.9779   1.9862
  1.9986   2.0016   2.0093   2.0130   2.0285   2.0353   2.0522   2.0621
  2.0748   2.0815   2.0912   2.0990   2.1034   2.1165   2.1227   2.1505
  2.1543   2.1591   2.1651   2.1685   2.1717   2.1809   2.1914   2.1930
  2.1960   2.2025   2.2113   2.2253   2.2285   2.2314   2.2339   2.2426
  2.2519   2.2549   2.2583   2.2623   2.2672   2.2723   2.2800   2.2881
  2.2966   2.3098   2.3202   2.3260   2.3356   2.3462   2.3484   2.3585
  2.3690   2.3731   2.3852   2.3871   2.3979   2.4064   2.4234   2.4251
  2.4321   2.4363   2.4406   2.4495   2.4632   2.4716   2.4835   2.4867
  2.4903   2.5038   2.5198   2.5257   2.5298   2.5416   2.5476   2.5589
  2.5611   2.5690   2.5745   2.5828   2.5973   2.6097   2.6179   2.6242
  2.6265   2.6316   2.6359   2.6403   2.6463   2.6487   2.6647   2.6691
  2.6702   2.6778   2.6903   2.6944   2.7032   2.7063   2.7082   2.7112
  2.7212   2.7303   2.7347   2.7392   2.7521   2.7571   2.7694   2.7733
  2.7797   2.7843   2.7925   2.7951   2.8027   2.8086   2.8109   2.8160
  2.8248   2.8362   2.8464   2.8503   2.8552   2.8571   2.8625   2.8734
  2.8786   2.8822   2.8828   2.8868   2.9064   2.9171   2.9254   2.9264
  2.9427   2.9494   2.9569   2.9637   2.9736   2.9785   2.9837   2.9945
  3.0100   3.0152   3.0178   3.0228   3.0263   3.0364   3.0409   3.0482
  3.0507   3.0636   3.0662   3.0755   3.0827   3.0913   3.0992   3.1027
  3.1075   3.1102   3.1178   3.1203   3.1256   3.1312   3.1373   3.1431
  3.1487   3.1545   3.1611   3.1644   3.1711   3.1790   3.1826   3.1870
  3.1929   3.2007   3.2079   3.2113   3.2138   3.2174   3.2225   3.2251
  3.2304   3.2378   3.2482   3.2509   3.2542   3.2588   3.2601   3.2670
  3.2682   3.2809   3.2872   3.2940   3.2952   3.3014   3.3027   3.3072
  3.3142   3.3213   3.3253   3.3319   3.3438   3.3448   3.3486   3.3499
  3.3536   3.3577   3.3643   3.3655   3.3705   3.3710   3.3779   3.3815
  3.3842   3.3938   3.3950   3.4003   3.4046   3.4082   3.4106   3.4163
  3.4196   3.4257   3.4291   3.4359   3.4416   3.4486   3.4519   3.4589
  3.4598   3.4623   3.4658   3.4691   3.4753   3.4798   3.4832   3.4868
  3.4943   3.5078   3.5087   3.5210   3.5256   3.5314   3.5341   3.5394
  3.5405   3.5441   3.5534   3.5597   3.5622   3.5736   3.5762   3.5841
  3.5868   3.5936   3.6004   3.6017   3.6056   3.6080   3.6162   3.6218
  3.6236   3.6298   3.6366   3.6417   3.6431   3.6515   3.6598   3.6609
  3.6672   3.6712   3.6827   3.6888   3.6921   3.6980   3.7006   3.7047
  3.7058   3.7093   3.7204   3.7269   3.7287   3.7350   3.7388   3.7470
  3.7569   3.7597   3.7622   3.7712   3.7799   3.7816   3.7861   3.7944
  3.7968   3.7990   3.8059   3.8072   3.8119   3.8200   3.8251   3.8335
  3.8407   3.8456   3.8503   3.8557   3.8584   3.8683   3.8726   3.8767
  3.8792   3.8845   3.8926   3.8934   3.9087   3.9152   3.9178   3.9194
  3.9250   3.9328   3.9395   3.9419   3.9483   3.9577   3.9771   3.9900
  3.9914   3.9960   4.0102   4.0172   4.0238   4.0245   4.0288   4.0359
  4.0454   4.0545   4.0645   4.0699   4.0747   4.0773   4.0887   4.0920
  4.0991   4.1138   4.1193   4.1347   4.1366   4.1443   4.1524   4.1557
  4.1639   4.1656   4.1681   4.1741   4.1823   4.1913   4.1961   4.2052
  4.2116   4.2182   4.2267   4.2382   4.2481   4.2537   4.2554   4.2682
  4.2795   4.2988   4.3184   4.3308   4.3406   4.3420   4.3435   4.3467
  4.3560   4.3585   4.3658   4.3730   4.3820   4.3900   4.3936   4.4022
  4.4104   4.4130   4.4160   4.4249   4.4306   4.4334   4.4383   4.4467
  4.4569   4.4749   4.4839   4.4916   4.5052   4.5091   4.5163   4.5277
  4.5308   4.5428   4.5508   4.5543   4.5666   4.5708   4.5821   4.5869
  4.6004   4.6073   4.6235   4.6262   4.6393   4.6431   4.6531   4.6557
  4.6645   4.6684   4.6836   4.6852   4.6950   4.7190   4.7264   4.7390
  4.7440   4.7543   4.7602   4.7714   4.7861   4.7931   4.7946   4.8143
  4.8302   4.8368   4.8431   4.8520   4.8635   4.8720   4.8879   4.9230
  4.9370   4.9468   4.9500   4.9589   4.9683   4.9791   4.9924   5.0057
  5.0078   5.0099   5.0171   5.0272   5.0406   5.0490   5.0730   5.0744
  5.0872   5.0969   5.1168   5.1233   5.1639   5.1702   5.1809   5.1936
  5.2080   5.2182   5.2273   5.2446   5.2489   5.2564   5.2599   5.2722
  5.2970   5.3044   5.3152   5.3271   5.3302   5.3484   5.3547   5.3706
  5.3824   5.4007   5.4029   5.4058   5.4195   5.4254   5.4310   5.4671
  5.4756   5.4843   5.5033   5.5086   5.5113   5.5171   5.5342   5.5607
  5.5776   5.5803   5.5899   5.6078   5.6204   5.6386   5.6397   5.6593
  5.7175   5.7215   5.7442   5.7596   5.8064   5.8160   5.8335   5.8555
  5.8767   5.8840   5.9063   5.9279   5.9616   5.9690   5.9985   6.0345
  6.0408   6.0754   6.1118   6.1374   6.1496   6.1718   6.1795   6.1816
  6.2324   6.2411   6.2540   6.2604   6.2740   6.2800   6.3140   6.3321
  6.4160   6.4472   6.4489   6.4787   6.5370   6.5505   6.5609   6.5967
  6.6594   6.6605   6.6699   6.6989   6.7436   6.8032   6.8286   6.8384
  6.8583   6.8968   6.9766   7.1259   7.1380   7.2026   7.2030   7.2177
  7.2389   7.3086   7.3252   7.3327   7.3602   7.3610   7.4036   7.4122
  7.4800   7.4825   7.4910   7.5166   7.5482   7.6148   7.7022   7.7697
  7.7877   7.7998   7.8849   7.9225   7.9396   7.9594   8.0614   8.1327
  8.3979   8.9189   9.0210   9.3599   9.4823   9.6595  10.1272  10.4899
 11.2093  11.4064  11.7811  12.0141  12.1341  12.1887  12.4287  12.5855
 12.6985  12.9702  12.9834  13.2565  13.3832  13.4150  13.7854  13.8502
 13.9070  14.0233  14.0390  14.4950  15.2157
 --------------------------------------------------------------
 
          Ground-State Mulliken Net Atomic Charges

     Atom                 Charge (a.u.)
  ----------------------------------------
      1 C                    -0.200394
      2 C                    -0.253049
      3 S                    -0.028208
      4 C                    -0.026614
      5 H                     0.194754
      6 C                    -0.023631
      7 C                     0.227685
      8 C                     0.244170
      9 C                    -0.054021
     10 C                    -0.006149
     11 O                    -0.333134
     12 O                    -0.342513
     13 C                    -0.085771
     14 H                     0.121853
     15 H                     0.090159
     16 H                     0.092193
     17 C                    -0.088197
     18 H                     0.125443
     19 H                     0.094360
     20 H                     0.088780
     21 C                    -0.288044
     22 S                    -0.032881
     23 C                     0.010725
     24 H                     0.187464
     25 H                     0.204292
     26 C                    -0.081580
     27 S                     0.094345
     28 C                    -0.133334
     29 C                     0.071361
     30 C                    -0.120647
     31 S                     0.047912
     32 C                    -0.158818
     33 C                     0.401809
     34 F                    -0.203687
     35 C                     0.448846
     36 O                    -0.461203
     37 O                    -0.301225
     38 C                    -0.058192
     39 H                     0.121649
     40 H                     0.095339
     41 H                     0.095466
     42 H                     0.222686
  ----------------------------------------
  Sum of atomic charges =     0.000000

 -----------------------------------------------------------------
                    Cartesian Multipole Moments
 -----------------------------------------------------------------
    Charge (ESU x 10^10)
                -0.0000
    Dipole Moment (Debye)
         X       3.5993      Y       2.7936      Z       3.0133
       Tot       5.4625
    Quadrupole Moments (Debye-Ang)
        XX    -191.1629     XY       7.2303     YY    -180.2064
        XZ      -3.0615     YZ      -5.8742     ZZ    -180.2550
    Octopole Moments (Debye-Ang^2)
       XXX    -386.9103    XXY     475.2094    XYY    -112.4457
       YYY    1098.1936    XXZ     157.4396    XYZ     -44.1569
       YYZ     161.6219    XZZ     -64.1672    YZZ     393.3491
       ZZZ     596.5092
    Hexadecapole Moments (Debye-Ang^3)
      XXXX   -2416.3793   XXXY    -910.9934   XXYY   -3987.9946
      XYYY    -951.5421   YYYY  -18121.2417   XXXZ     733.1411
      XXYZ      16.9656   XYYZ     273.9850   YYYZ     439.2017
      XXZZ   -1310.1170   XYZZ     -22.5675   YYZZ   -4017.7336
      XZZZ     550.0620   YZZZ     162.2446   ZZZZ   -7280.4005
 -----------------------------------------------------------------
 Total job time:  301.47s(wall), 9235.36s(cpu) 
 Mon Jan  8 20:44:01 2024

        *************************************************************
        *                                                           *
        *  Thank you very much for using Q-Chem.  Have a nice day.  *
        *                                                           *
        *************************************************************


0 sent ACK to 0 
now end server 0 ... 
cleanup process ... done
remove work dirs ./qchem3313470.0 -- ./qchem3313470.0
rm -rf ./qchem3313470.0
rm -rf ./qchem3313470
