You are running Q-Chem version: 5.4.0

#
# job setting
#
local host:  exp-1-20
current dir: /home/rramji/project-csd799/aromodel/ptb7fout-qchem/rotation-run
input file:  Dimethoxy_Benzodithiophene_Phi_50_Theta_50_Methylcarbonyl_3_Fluoro_Thienothiophene.qcin
output file: 
nprocs     : 1
nthreads   : 64
#
# qchem installation setting
#
QC:          /cm/shared/apps/spack/cpu/opt/spack/linux-centos8-zen2/gcc-10.2.0/qchem-5.4-akfmr7b3t57bfs6qan3padb2wnb2i7cl
QCAUX:       /cm/shared/apps/spack/cpu/opt/spack/linux-centos8-zen2/gcc-10.2.0/qchem-5.4-akfmr7b3t57bfs6qan3padb2wnb2i7cl/qcaux
QCPROG:      /cm/shared/apps/spack/cpu/opt/spack/linux-centos8-zen2/gcc-10.2.0/qchem-5.4-akfmr7b3t57bfs6qan3padb2wnb2i7cl/exe/qcprog.exe
QCPROG_S:    /cm/shared/apps/spack/cpu/opt/spack/linux-centos8-zen2/gcc-10.2.0/qchem-5.4-akfmr7b3t57bfs6qan3padb2wnb2i7cl/exe/qcprog.exe_s
PARALLEL:    -DPARALLEL
QCMPI:       mpich
#
# qchem directory setting
#
qcrun:       qchem3286565
QCSCRATCH:   .
QCLOCALSCR:  
QCTMPDIR:    .
QCFILEPREF:  ./qchem3286565
QCSAVEDIR:   
workdirs:    ./qchem3286565
workdir0:    ./qchem3286565
partmpdirs =  
#
# parallel setting
#
QCRSH:           ssh
QCMPI:           mpich
QCMPIRUN:        /cm/shared/apps/spack/cpu/opt/spack/linux-centos8-zen2/gcc-10.2.0/qchem-5.4-akfmr7b3t57bfs6qan3padb2wnb2i7cl/bin/mpi/mpirun_qchem
QCMACHINEFILE:   ./qchem3286565/hostfile
exp-1-20

#
# env setting
#
exported envs:   QC QCAUX QCSCRATCH QCRUNNAME QCFILEPREF QCPROG QCPROG_S GUIFILE

Running Job 1 of 1 Dimethoxy_Benzodithiophene_Phi_50_Theta_50_Methylcarbonyl_3_Fluoro_Thienothiophene.qcin
qchem Dimethoxy_Benzodithiophene_Phi_50_Theta_50_Methylcarbonyl_3_Fluoro_Thienothiophene.qcin_3286565.0 ./qchem3286565/ 1
/cm/shared/apps/spack/cpu/opt/spack/linux-centos8-zen2/gcc-10.2.0/qchem-5.4-akfmr7b3t57bfs6qan3padb2wnb2i7cl/bin/mpi/mpirun_qchem -machinefile ./qchem3286565/hostfile -np 1 /cm/shared/apps/spack/cpu/opt/spack/linux-centos8-zen2/gcc-10.2.0/qchem-5.4-akfmr7b3t57bfs6qan3padb2wnb2i7cl/exe/qcprog.exe Dimethoxy_Benzodithiophene_Phi_50_Theta_50_Methylcarbonyl_3_Fluoro_Thienothiophene.qcin_3286565.0 ./qchem3286565/

Process 0 of 1 is on exp-1-20 - thread support 0
initial socket setup ...start
initial socket setup ...done 
now start server 0 ... 
                  Welcome to Q-Chem
     A Quantum Leap Into The Future Of Chemistry


 Q-Chem 5.4, Q-Chem, Inc., Pleasanton, CA (2021)

 License issued to: University of California, San Diego (site)

 E. Epifanovsky,  A. T. B. Gilbert,  Xintian Feng,  Joonho Lee,  Yuezhi Mao,  
 N. Mardirossian,  P. Pokhilko,  A. White,  M. Wormit,  M. P. Coons,  
 A. L. Dempwolff,  Zhengting Gan,  D. Hait,  P. R. Horn,  L. D. Jacobson,  
 I. Kaliman,  J. Kussmann,  A. W. Lange,  Ka Un Lao,  D. S. Levine,  Jie Liu,  
 S. C. McKenzie,  A. F. Morrison,  K. Nanda,  F. Plasser,  D. R. Rehn,  
 M. L. Vidal,  Zhi-Qiang You,  Ying Zhu,  B. Alam,  B. Albrecht,  
 A. Aldossary,  E. Alguire,  J. H. Andersen,  D. Barton,  K. Begam,  A. Behn,  
 Y. A. Bernard,  E. J. Berquist,  H. Burton,  A. Carreras,  K. Carter-Fenk,  
 R. Chakraborty,  A. D. Chien,  K. D. Closser,  V. Cofer-Shabica,  
 S. Dasgupta,  Jia Deng,  M. de Wergifosse,  M. Diedenhofen,  Hainam Do,  
 S. Ehlert,  Po-Tung Fang,  S. Fatehi,  Qingguo Feng,  J. Gayvert,  
 Qinghui Ge,  G. Gidofalvi,  M. Goldey,  J. Gomes,  C. Gonzalez-Espinoza,  
 S. Gulania,  A. Gunina,  M. W. D. Hanson-Heine,  P. H. P. Harbach,  
 A. W. Hauser,  M. F. Herbst,  M. Hernandez Vera,  M. Hodecker,  
 Z. C. Holden,  S. Houck,  Xunkun Huang,  Kerwin Hui,  B. C. Huynh,  
 M. Ivanov,  Hyunjun Ji,  Hanjie Jiang,  B. Kaduk,  S. Kaehler,  
 K. Khistyaev,  Jaehoon Kim,  P. Klunzinger,  Z. Koczor-Benda,  
 Joong Hoon Koh,  D. Kosenkov,  L. Koulias,  T. Kowalczyk,  C. M. Krauter,  
 K. Kue,  A. Kunitsa,  T. Kus,  A. Landau,  K. V. Lawler,  D. Lefrancois,  
 S. Lehtola,  Rain Li,  Yi-Pei Li,  Jiashu Liang,  M. Liebenthal,  
 Hung-Hsuan Lin,  You-Sheng Lin,  Fenglai Liu,  Kuan-Yu Liu,  
 M. Loipersberger,  A. Luenser,  A. Manjanath,  P. Manohar,  E. Mansoor,  
 S. F. Manzer,  Shan-Ping Mao,  A. V. Marenich,  T. Markovich,  S. Mason,  
 S. A. Maurer,  P. F. McLaughlin,  M. F. S. J. Menger,  J.-M. Mewes,  
 S. A. Mewes,  P. Morgante,  J. W. Mullinax,  T. S. Nguyen-Beck,  
 K. J. Oosterbaan,  G. Paran,  Alexander C. Paul,  Suranjan K. Paul,  
 F. Pavosevic,  Zheng Pei,  S. Prager,  E. I. Proynov,  E. Ramos,  B. Rana,  
 A. E. Rask,  A. Rettig,  R. M. Richard,  F. Rob,  E. Rossomme,  T. Scheele,  
 M. Scheurer,  M. Schneider,  N. Sergueev,  S. M. Sharada,  W. Skomorowski,  
 D. W. Small,  C. J. Stein,  Yu-Chuan Su,  E. J. Sundstrom,  Zhen Tao,  
 J. Thirman,  T. Tsuchimochi,  N. M. Tubman,  S. P. Veccham,  O. Vydrov,  
 J. Wenzel,  J. Witte,  A. Yamada,  Kun Yao,  S. Yeganeh,  S. R. Yost,  
 A. Zech,  Igor Ying Zhang,  Xing Zhang,  Yu Zhang,  D. Zuev,  
 A. Aspuru-Guzik,  A. T. Bell,  N. A. Besley,  K. B. Bravaya,  B. R. Brooks,  
 D. Casanova,  Jeng-Da Chai,  S. Coriani,  C. J. Cramer,  
 A. E. DePrince, III,  R. A. DiStasio Jr.,  A. Dreuw,  B. D. Dunietz,  
 T. R. Furlani,  W. A. Goddard III,  S. Grimme,  S. Hammes-Schiffer,  
 T. Head-Gordon,  W. J. Hehre,  Chao-Ping Hsu,  T.-C. Jagau,  Yousung Jung,  
 A. Klamt,  Jing Kong,  D. S. Lambrecht,  WanZhen Liang,  N. J. Mayhall,  
 C. W. McCurdy,  J. B. Neaton,  C. Ochsenfeld,  J. A. Parkhill,  R. Peverati,  
 V. A. Rassolov,  Yihan Shao,  L. V. Slipchenko,  T. Stauch,  R. P. Steele,  
 J. E. Subotnik,  A. J. W. Thom,  A. Tkatchenko,  D. G. Truhlar,  
 T. Van Voorhis,  T. A. Wesolowski,  K. B. Whaley,  H. L. Woodcock III,  
 P. M. Zimmerman,  S. Faraji,  P. M. W. Gill,  M. Head-Gordon,  
 J. M. Herbert,  A. I. Krylov

 Contributors to earlier versions of Q-Chem not listed above: 
 R. D. Adamson,  B. Austin,  R. Baer,  J. Baker,  G. J. O. Beran,  
 K. Brandhorst,  S. T. Brown,  E. F. C. Byrd,  A. K. Chakraborty,  
 G. K. L. Chan,  Chun-Min Chang,  Yunqing Chen,  C.-L. Cheng,  
 Siu Hung Chien,  D. M. Chipman,  D. L. Crittenden,  H. Dachsel,  
 R. J. Doerksen,  A. D. Dutoi,  R. G. Edgar,  J. Fosso-Tande,  
 L. Fusti-Molnar,  D. Ghosh,  A. Ghysels,  A. Golubeva-Zadorozhnaya,  
 J. Gonthier,  M. S. Gordon,  S. R. Gwaltney,  G. Hawkins,  J. E. Herr,  
 A. Heyden,  S. Hirata,  E. G. Hohenstein,  G. Kedziora,  F. J. Keil,  
 C. Kelley,  Jihan Kim,  R. A. King,  R. Z. Khaliullin,  P. P. Korambath,  
 W. Kurlancheek,  A. Laurent,  A. M. Lee,  M. S. Lee,  S. V. Levchenko,  
 Ching Yeh Lin,  D. Liotard,  E. Livshits,  R. C. Lochan,  I. Lotan,  
 L. A. Martinez-Martinez,  P. E. Maslen,  N. Nair,  D. P. O'Neill,  
 D. Neuhauser,  E. Neuscamman,  C. M. Oana,  R. Olivares-Amaya,  R. Olson,  
 T. M. Perrine,  B. Peters,  P. A. Pieniazek,  A. Prociuk,  Y. M. Rhee,  
 J. Ritchie,  M. A. Rohrdanz,  E. Rosta,  N. J. Russ,  H. F. Schaefer III,  
 M. W. Schmidt,  N. E. Schultz,  S. Sharma,  N. Shenvi,  C. D. Sherrill,  
 A. C. Simmonett,  A. Sodt,  T. Stein,  D. Stuck,  K. S. Thanthiriwatte,  
 V. Vanovschi,  L. Vogt,  Tao Wang,  A. Warshel,  M. A. Watson,  
 C. F. Williams,  Q. Wu,  X. Xu,  Jun Yang,  W. Zhang,  Yan Zhao

 Please cite Q-Chem as follows:
 Y. Shao et al., Mol. Phys. 113, 184-215 (2015)
 DOI: 10.1080/00268976.2014.952696

 Q-Chem 5.4.0 for Intel X86 EM64T Linux

 Parts of Q-Chem use Armadillo 9.800.1 (Horizon Scraper).
 http://arma.sourceforge.net/

 Q-Chem begins on Mon Jan  8 19:12:57 2024  

 Host: 
0

     Scratch files written to ./qchem3286565//
 May1621 |scratch|qcdevops|jenkins|workspace|build_RNUM    
 Parallel job on  1  processors
 Processing $rem in /cm/shared/apps/spack/cpu/opt/spack/linux-centos8-zen2/gcc-10.2.0/qchem-5.4-akfmr7b3t57bfs6qan3padb2wnb2i7cl/config/preferences:
 Processing $rem in /home/rramji/.qchemrc:
 Symmetry turned off for PCM/SM12/SMD calculation
 Core orbitals will be frozen

 Checking the input file for inconsistencies... 	...done.

 Q-Chem warning in module forms1/BasisType.C, line 2236:

 You are not using the predefined 5D/6D in this basis set.


--------------------------------------------------------------
User input:
--------------------------------------------------------------
$molecule
0 1
C	-0.270358	-8.517702	0.172904
C	0.548363	-7.641575	-0.524688
S	-1.445750	-7.638634	1.180599
C	0.259951	-6.264785	-0.282727
H	1.347559	-7.966081	-1.203014
C	-0.833868	-6.072714	0.632972
C	-1.248701	-4.787049	1.013580
C	0.965673	-5.162801	-0.845068
C	0.553357	-3.874817	-0.460946
C	-0.543470	-3.683952	0.453541
O	1.958276	-5.499772	-1.714812
O	-2.245053	-4.459055	1.888193
C	-3.360989	-5.329063	2.033848
H	-4.130667	-4.755694	2.584788
H	-3.112380	-6.238095	2.624118
H	-3.770895	-5.637262	1.047748
C	2.994272	-4.572261	-2.013896
H	3.763700	-5.139743	-2.570853
H	3.448815	-4.153131	-1.090625
H	2.636780	-3.739531	-2.657717
C	-0.827659	-2.306654	0.694943
S	1.174750	-2.306501	-0.999993
C	0.000000	-1.435185	0.000000
H	-1.627541	-1.978138	1.370385
H	-0.269836	-9.614033	0.177122
C	0.000000	0.000000	0.000000
S	0.693394	0.581209	1.507541
C	1.897536	1.592607	0.718873
C	0.693330	0.580791	-1.067872
C	1.756758	1.476132	-0.686410
S	0.508573	0.422041	-2.805516
C	1.846879	1.552232	-3.054530
C	2.387897	2.009402	-1.862551
F	3.408741	2.872264	-1.819088
C	2.191300	1.838768	-4.456084
O	1.606694	1.337806	-5.406510
O	3.221062	2.712584	-4.569225
C	3.603677	3.026817	-5.916207
H	4.442623	3.739898	-5.833064
H	2.758956	3.483875	-6.470168
H	3.921969	2.114070	-6.459293
H	2.604650	2.187790	1.306486
$end

$rem
JOBTYPE		SP
EXCHANGE	HF
CORRELATION	pRIMP2
BASIS		cc-pvtz
METHOD		rimp2
AUX_BASIS	rimp2-cc-pvtz
SOLVENT_METHOD	PCM
PURECART	11111
SYMMETRY	false
MEM_TOTAL	110000
SCF_CONVERGENCE = 6
THRESH=10
GUI = 2
$end



$solvent
dielectric 4.90
$end
--------------------------------------------------------------
 ----------------------------------------------------------------
             Standard Nuclear Orientation (Angstroms)
    I     Atom           X                Y                Z
 ----------------------------------------------------------------
    1      C      -0.2703580000    -8.5177020000     0.1729040000
    2      C       0.5483630000    -7.6415750000    -0.5246880000
    3      S      -1.4457500000    -7.6386340000     1.1805990000
    4      C       0.2599510000    -6.2647850000    -0.2827270000
    5      H       1.3475590000    -7.9660810000    -1.2030140000
    6      C      -0.8338680000    -6.0727140000     0.6329720000
    7      C      -1.2487010000    -4.7870490000     1.0135800000
    8      C       0.9656730000    -5.1628010000    -0.8450680000
    9      C       0.5533570000    -3.8748170000    -0.4609460000
   10      C      -0.5434700000    -3.6839520000     0.4535410000
   11      O       1.9582760000    -5.4997720000    -1.7148120000
   12      O      -2.2450530000    -4.4590550000     1.8881930000
   13      C      -3.3609890000    -5.3290630000     2.0338480000
   14      H      -4.1306670000    -4.7556940000     2.5847880000
   15      H      -3.1123800000    -6.2380950000     2.6241180000
   16      H      -3.7708950000    -5.6372620000     1.0477480000
   17      C       2.9942720000    -4.5722610000    -2.0138960000
   18      H       3.7637000000    -5.1397430000    -2.5708530000
   19      H       3.4488150000    -4.1531310000    -1.0906250000
   20      H       2.6367800000    -3.7395310000    -2.6577170000
   21      C      -0.8276590000    -2.3066540000     0.6949430000
   22      S       1.1747500000    -2.3065010000    -0.9999930000
   23      C       0.0000000000    -1.4351850000     0.0000000000
   24      H      -1.6275410000    -1.9781380000     1.3703850000
   25      H      -0.2698360000    -9.6140330000     0.1771220000
   26      C       0.0000000000     0.0000000000     0.0000000000
   27      S       0.6933940000     0.5812090000     1.5075410000
   28      C       1.8975360000     1.5926070000     0.7188730000
   29      C       0.6933300000     0.5807910000    -1.0678720000
   30      C       1.7567580000     1.4761320000    -0.6864100000
   31      S       0.5085730000     0.4220410000    -2.8055160000
   32      C       1.8468790000     1.5522320000    -3.0545300000
   33      C       2.3878970000     2.0094020000    -1.8625510000
   34      F       3.4087410000     2.8722640000    -1.8190880000
   35      C       2.1913000000     1.8387680000    -4.4560840000
   36      O       1.6066940000     1.3378060000    -5.4065100000
   37      O       3.2210620000     2.7125840000    -4.5692250000
   38      C       3.6036770000     3.0268170000    -5.9162070000
   39      H       4.4426230000     3.7398980000    -5.8330640000
   40      H       2.7589560000     3.4838750000    -6.4701680000
   41      H       3.9219690000     2.1140700000    -6.4592930000
   42      H       2.6046500000     2.1877900000     1.3064860000
 ----------------------------------------------------------------
 Nuclear Repulsion Energy =        3344.44496953 hartrees
 There are      119 alpha and      119 beta electrons
 Requested basis set is cc-pVTZ
 There are 376 shells and 1068 basis functions

 Total QAlloc Memory Limit 110000 MB
 Mega-Array Size       188 MB
 MEM_STATIC part       192 MB
 Discretize the solute cavity surface with Lebedev spheres
	Using 110 Lebedev grid points for each H atom
	Using 194 Lebedev grid points for other atoms
	Atomic van der Waals radii will be scaled by 1.20
 Remove points where switching function is < 1.0e-08
 Keep 2868 surface tesserae and discard 4188 interior tesserae
 Molecular Surface Area = 436.785 Angst**2
 Requested basis set is rimp2-cc-pVTZ
 There are 833 shells and 2903 basis functions
 A cutoff of  1.0D-10 yielded  31904 shell pairs
 There are    243764 function pairs (    316155 Cartesian)
 Smallest overlap matrix eigenvalue = 2.15E-05

 Scale SEOQF with 1.000000e-01/1.000000e-02/1.000000e-02

 Standard Electronic Orientation quadrupole field applied
 Nucleus-field energy     =     0.0000000449 hartrees
 Guess from superposition of atomic densities
 Warning:  Energy on first SCF cycle will be non-variational
 SAD guess density has 238.000000 electrons

 -----------------------------------------------------------------------
  General SCF calculation program by
  Eric Jon Sundstrom, Paul Horn, Yuezhi Mao, Dmitri Zuev, Alec White,
  David Stuck, Shaama M.S., Shane Yost, Joonho Lee, David Small,
  Daniel Levine, Susi Lehtola, Hugh Burton, Evgeny Epifanovsky,
  Bang C. Huynh
 -----------------------------------------------------------------------
 Hartree-Fock
 using 64 threads for integral computing
 -------------------------------------------------------
 OpenMP Integral computing Module                
 Release: version 1.0, May 2013, Q-Chem Inc. Pittsburgh 
 -------------------------------------------------------
 A restricted SCF calculation will be
 performed using DIIS
 SCF converges when DIIS error is below 1.0e-06
 ---------------------------------------
  Cycle       Energy         DIIS error
 ---------------------------------------
    1   -2765.2977231363      1.75e-02  
    2   -2753.8323924477      1.57e-03  
    3   -2754.1718955380      8.70e-04  
    4   -2754.2552589296      2.56e-04  
    5   -2754.2670005403      6.95e-05  
    6   -2754.2680852371      2.39e-05  
    7   -2754.2683202002      1.14e-05  
    8   -2754.2683975240      4.36e-06  
    9   -2754.2684127356      1.72e-06  
   10   -2754.2684147978      7.99e-07  Convergence criterion met
 ---------------------------------------
 SCF time:   CPU 6239.43s  wall 238.00s 

************** Final PCM Free Energy Summary **************
 G_electrostatic  =      -0.01999423 hartree =     -12.54656572 kcal/mol
 G_cavitation     =       0.00000000 hartree =       0.00000000 kcal/mol
 G_dispersion     =       0.00000000 hartree =       0.00000000 kcal/mol
 G_repulsion      =       0.00000000 hartree =       0.00000000 kcal/mol
 --------------------------------------------------
 Non-electrostatic Free Energy =       0.00000000 hartree =       0.00000000 kcal/mol
 Total                         =      -0.01999423 hartree =     -12.54656572 kcal/mol
 --------------------------------------------------
 SCF Energy (H0 + V/2)                       =   -2754.26841480 
 Solute Internal Energy (H0)                 =   -2754.24842057 
 Total Free Energy (H0 + V/2 + non-elec)     =   -2754.26841480 hartree
                                             = -1728329.51596176 kcal/mol
***********************************************************

 SCF   energy in the final basis set =    -2754.2684147978
 Total energy in the final basis set =    -2754.2684147978


 --------------------------------------------------------------
  Generalized many-body perturbation theory program
  by Joonho Lee, Fazle Rob, Xintian Feng, Evgeny Epifanovsky

 No regularization used 
 (reg. param. = 0.0000e+00)
  (P|Q)^-1/2 Time:  CPU 268.02 s  wall 4.41 s

 In RI-MP2 calculation: 
 # of frozen core orbitals: 45

 Components of the RIMP2 correlation energy:
        aaaa    correlation energy =        -0.6719725197 a.u.
        abab    correlation energy =        -3.7189261095 a.u.
        bbbb    correlation energy =        -0.6719725197 a.u.
        non-Brillouin singles      =        -0.0000000000 a.u.
        total same-spin energy     =        -1.3439450394 a.u.
        total opposite-spin energy =        -3.7189261095 a.u.

 Total  RIMP2   correlation energy =        -5.0628711489 a.u.
        RIMP2         total energy =     -2759.3312859467 a.u.

 RI-MP2 Energy Time:  CPU 2844.20 s  wall 48.75 s
 
 --------------------------------------------------------------
 
                    Orbital Energies (a.u.)
 --------------------------------------------------------------
 
 Alpha MOs
 -- Occupied --
-92.0152 -92.0052 -91.9840 -91.9838 -26.3453 -20.6156 -20.5907 -20.5883
-20.5620 -11.4105 -11.3853 -11.3279 -11.3167 -11.3131 -11.3121 -11.2986
-11.2914 -11.2894 -11.2879 -11.2860 -11.2844 -11.2813 -11.2799 -11.2781
-11.2762 -11.2569 -11.2541 -11.2480 -11.2423  -9.0142  -9.0051  -8.9848
 -8.9838  -6.6948  -6.6940  -6.6936  -6.6860  -6.6852  -6.6842  -6.6657
 -6.6650  -6.6648  -6.6641  -6.6640  -6.6633  -1.6623  -1.4681  -1.4146
 -1.4111  -1.3708  -1.2303  -1.1903  -1.1636  -1.1388  -1.0846  -1.0487
 -1.0434  -1.0262  -0.9981  -0.9864  -0.9651  -0.9569  -0.9485  -0.9397
 -0.8931  -0.8707  -0.8450  -0.8156  -0.7938  -0.7850  -0.7819  -0.7635
 -0.7557  -0.7308  -0.7272  -0.7116  -0.6982  -0.6863  -0.6830  -0.6795
 -0.6747  -0.6598  -0.6571  -0.6506  -0.6287  -0.6177  -0.6156  -0.6079
 -0.5991  -0.5848  -0.5757  -0.5688  -0.5649  -0.5606  -0.5534  -0.5422
 -0.5320  -0.5296  -0.5210  -0.5163  -0.5141  -0.5088  -0.5066  -0.4958
 -0.4876  -0.4824  -0.4758  -0.4738  -0.4683  -0.4617  -0.4574  -0.4104
 -0.3984  -0.3807  -0.3550  -0.3491  -0.3247  -0.2905  -0.2509
 -- Virtual --
  0.0245   0.0577   0.0895   0.1254   0.1368   0.1490   0.1523   0.1535
  0.1567   0.1578   0.1615   0.1736   0.1795   0.1827   0.1871   0.1939
  0.2036   0.2057   0.2126   0.2145   0.2211   0.2239   0.2249   0.2273
  0.2289   0.2387   0.2434   0.2481   0.2545   0.2630   0.2698   0.2723
  0.2869   0.2993   0.3101   0.3248   0.3322   0.3367   0.3433   0.3479
  0.3504   0.3544   0.3690   0.3774   0.3801   0.3836   0.3846   0.3869
  0.3895   0.3927   0.3985   0.4058   0.4111   0.4183   0.4189   0.4212
  0.4271   0.4319   0.4368   0.4417   0.4464   0.4494   0.4532   0.4582
  0.4620   0.4644   0.4691   0.4724   0.4770   0.4878   0.4896   0.4938
  0.4959   0.4997   0.5014   0.5036   0.5083   0.5152   0.5213   0.5227
  0.5322   0.5330   0.5355   0.5370   0.5403   0.5428   0.5485   0.5527
  0.5551   0.5578   0.5610   0.5638   0.5696   0.5721   0.5763   0.5786
  0.5835   0.5933   0.5976   0.5984   0.6039   0.6061   0.6080   0.6108
  0.6148   0.6169   0.6204   0.6210   0.6308   0.6325   0.6337   0.6381
  0.6411   0.6438   0.6461   0.6481   0.6540   0.6559   0.6607   0.6672
  0.6764   0.6811   0.6833   0.6905   0.6951   0.7016   0.7050   0.7078
  0.7155   0.7170   0.7180   0.7269   0.7309   0.7342   0.7422   0.7455
  0.7531   0.7599   0.7646   0.7671   0.7781   0.7832   0.7898   0.8013
  0.8060   0.8116   0.8191   0.8201   0.8236   0.8255   0.8335   0.8398
  0.8466   0.8505   0.8613   0.8635   0.8692   0.8739   0.8825   0.8838
  0.8911   0.8947   0.8999   0.9092   0.9135   0.9173   0.9215   0.9249
  0.9304   0.9376   0.9429   0.9458   0.9510   0.9560   0.9623   0.9696
  0.9734   0.9756   0.9782   0.9844   0.9930   0.9961   1.0029   1.0072
  1.0086   1.0113   1.0191   1.0233   1.0267   1.0319   1.0382   1.0418
  1.0441   1.0471   1.0573   1.0622   1.0715   1.0733   1.0795   1.0820
  1.0865   1.0894   1.0974   1.1022   1.1046   1.1080   1.1132   1.1151
  1.1188   1.1250   1.1322   1.1399   1.1427   1.1474   1.1530   1.1564
  1.1657   1.1704   1.1771   1.1777   1.1817   1.1873   1.1906   1.1922
  1.2013   1.2059   1.2078   1.2134   1.2197   1.2218   1.2247   1.2318
  1.2371   1.2419   1.2474   1.2525   1.2583   1.2664   1.2706   1.2739
  1.2745   1.2790   1.2894   1.2942   1.3029   1.3079   1.3157   1.3227
  1.3281   1.3322   1.3386   1.3453   1.3545   1.3678   1.3730   1.3783
  1.3836   1.3847   1.3883   1.3989   1.4021   1.4085   1.4117   1.4159
  1.4196   1.4377   1.4488   1.4587   1.4744   1.4772   1.4847   1.4911
  1.4926   1.4986   1.5022   1.5090   1.5110   1.5151   1.5217   1.5330
  1.5360   1.5372   1.5388   1.5440   1.5503   1.5542   1.5645   1.5669
  1.5738   1.5814   1.5881   1.5947   1.5997   1.6045   1.6172   1.6325
  1.6378   1.6438   1.6542   1.6605   1.6650   1.6684   1.6781   1.6838
  1.6917   1.6987   1.7059   1.7067   1.7125   1.7312   1.7352   1.7400
  1.7524   1.7536   1.7663   1.7891   1.7927   1.8012   1.8095   1.8165
  1.8214   1.8291   1.8375   1.8436   1.8584   1.8631   1.8707   1.8781
  1.8796   1.8857   1.8966   1.9034   1.9067   1.9127   1.9281   1.9306
  1.9340   1.9428   1.9535   1.9698   1.9731   1.9760   1.9806   1.9867
  1.9993   2.0004   2.0094   2.0244   2.0295   2.0459   2.0568   2.0600
  2.0669   2.0798   2.0909   2.0951   2.1094   2.1116   2.1313   2.1349
  2.1402   2.1611   2.1662   2.1708   2.1727   2.1768   2.1859   2.1910
  2.1980   2.2040   2.2077   2.2220   2.2224   2.2312   2.2403   2.2465
  2.2493   2.2611   2.2675   2.2739   2.2788   2.2829   2.2902   2.2953
  2.2998   2.3093   2.3162   2.3218   2.3360   2.3429   2.3580   2.3648
  2.3679   2.3771   2.3841   2.3923   2.3965   2.4164   2.4206   2.4262
  2.4328   2.4365   2.4448   2.4487   2.4581   2.4763   2.4800   2.4836
  2.4902   2.5027   2.5062   2.5168   2.5236   2.5356   2.5396   2.5564
  2.5585   2.5664   2.5817   2.5879   2.5946   2.6140   2.6196   2.6211
  2.6241   2.6311   2.6402   2.6406   2.6427   2.6507   2.6589   2.6631
  2.6750   2.6771   2.6909   2.6930   2.7025   2.7036   2.7066   2.7163
  2.7188   2.7316   2.7384   2.7438   2.7487   2.7550   2.7652   2.7827
  2.7845   2.7925   2.7942   2.7993   2.8047   2.8119   2.8224   2.8256
  2.8273   2.8403   2.8427   2.8456   2.8553   2.8578   2.8697   2.8733
  2.8780   2.8851   2.8917   2.8951   2.9068   2.9195   2.9282   2.9352
  2.9471   2.9524   2.9590   2.9630   2.9718   2.9793   2.9827   3.0013
  3.0121   3.0148   3.0190   3.0237   3.0256   3.0340   3.0349   3.0394
  3.0476   3.0574   3.0632   3.0708   3.0853   3.0879   3.0910   3.1010
  3.1022   3.1098   3.1135   3.1203   3.1238   3.1290   3.1364   3.1406
  3.1497   3.1533   3.1586   3.1631   3.1698   3.1726   3.1812   3.1868
  3.1915   3.1969   3.2071   3.2105   3.2124   3.2151   3.2177   3.2246
  3.2327   3.2392   3.2451   3.2480   3.2499   3.2559   3.2618   3.2688
  3.2710   3.2830   3.2850   3.2890   3.2936   3.2968   3.3029   3.3118
  3.3157   3.3187   3.3282   3.3333   3.3346   3.3445   3.3477   3.3524
  3.3543   3.3559   3.3596   3.3646   3.3698   3.3734   3.3770   3.3801
  3.3842   3.3936   3.3949   3.3959   3.3987   3.4090   3.4131   3.4188
  3.4218   3.4248   3.4323   3.4354   3.4468   3.4493   3.4511   3.4585
  3.4618   3.4649   3.4681   3.4724   3.4731   3.4813   3.4895   3.4943
  3.5028   3.5110   3.5166   3.5204   3.5264   3.5304   3.5352   3.5371
  3.5400   3.5474   3.5573   3.5587   3.5675   3.5776   3.5791   3.5855
  3.5925   3.5928   3.5952   3.5967   3.6018   3.6059   3.6100   3.6241
  3.6262   3.6317   3.6386   3.6405   3.6465   3.6560   3.6581   3.6661
  3.6728   3.6760   3.6785   3.6841   3.6858   3.6933   3.7031   3.7051
  3.7057   3.7125   3.7205   3.7254   3.7303   3.7373   3.7409   3.7463
  3.7521   3.7615   3.7635   3.7751   3.7785   3.7826   3.7901   3.7961
  3.7992   3.8023   3.8039   3.8067   3.8116   3.8141   3.8202   3.8308
  3.8395   3.8451   3.8561   3.8612   3.8632   3.8648   3.8679   3.8723
  3.8804   3.8840   3.8865   3.8956   3.9027   3.9061   3.9168   3.9208
  3.9271   3.9327   3.9375   3.9499   3.9594   3.9635   3.9729   3.9877
  3.9955   3.9999   4.0121   4.0128   4.0139   4.0282   4.0354   4.0389
  4.0527   4.0564   4.0641   4.0682   4.0798   4.0875   4.0939   4.0973
  4.1009   4.1115   4.1239   4.1334   4.1424   4.1469   4.1525   4.1600
  4.1618   4.1661   4.1679   4.1721   4.1852   4.1895   4.1920   4.2031
  4.2049   4.2060   4.2164   4.2414   4.2453   4.2502   4.2541   4.2660
  4.2769   4.2870   4.3081   4.3104   4.3275   4.3336   4.3389   4.3413
  4.3568   4.3639   4.3649   4.3734   4.3790   4.3815   4.3916   4.4055
  4.4086   4.4119   4.4143   4.4251   4.4289   4.4395   4.4439   4.4516
  4.4617   4.4730   4.4759   4.4947   4.5018   4.5049   4.5156   4.5238
  4.5301   4.5470   4.5515   4.5558   4.5605   4.5761   4.5786   4.5948
  4.6030   4.6112   4.6221   4.6252   4.6377   4.6456   4.6505   4.6575
  4.6700   4.6786   4.6806   4.6884   4.7020   4.7120   4.7344   4.7416
  4.7483   4.7564   4.7657   4.7726   4.7819   4.7857   4.8018   4.8177
  4.8305   4.8401   4.8473   4.8559   4.8629   4.8828   4.8894   4.9015
  4.9239   4.9495   4.9591   4.9619   4.9662   4.9697   4.9831   4.9954
  5.0084   5.0092   5.0112   5.0315   5.0398   5.0470   5.0596   5.0717
  5.0884   5.0956   5.1163   5.1292   5.1627   5.1735   5.1806   5.2006
  5.2132   5.2210   5.2423   5.2446   5.2513   5.2549   5.2568   5.2820
  5.2989   5.3103   5.3174   5.3287   5.3341   5.3502   5.3543   5.3693
  5.3748   5.3942   5.4013   5.4027   5.4189   5.4256   5.4374   5.4660
  5.4720   5.4845   5.4974   5.5084   5.5129   5.5175   5.5349   5.5558
  5.5770   5.5816   5.5857   5.6073   5.6209   5.6265   5.6383   5.6608
  5.7172   5.7222   5.7482   5.7626   5.8068   5.8164   5.8361   5.8564
  5.8751   5.8833   5.9071   5.9285   5.9385   5.9809   5.9979   6.0410
  6.0443   6.0730   6.0970   6.1498   6.1666   6.1724   6.1791   6.1884
  6.2315   6.2462   6.2608   6.2619   6.2774   6.2831   6.3031   6.3332
  6.4155   6.4449   6.4493   6.4775   6.5387   6.5507   6.5589   6.5983
  6.6570   6.6615   6.6705   6.6993   6.7445   6.8015   6.8289   6.8394
  6.8588   6.8954   6.9775   7.1253   7.1370   7.2032   7.2038   7.2178
  7.2365   7.3093   7.3224   7.3329   7.3614   7.3619   7.4042   7.4126
  7.4803   7.4838   7.4900   7.5186   7.5492   7.6136   7.7108   7.7712
  7.7886   7.7982   7.8951   7.9209   7.9442   7.9628   8.0902   8.1334
  8.4189   8.9202   9.0276   9.3615   9.4819   9.6630  10.1852  10.4699
 11.2302  11.3988  11.7723  12.0188  12.1286  12.1871  12.4307  12.5774
 12.6791  12.9420  12.9966  13.2524  13.3860  13.4504  13.7835  13.8498
 13.9077  14.0185  14.0400  14.4596  15.2126
 --------------------------------------------------------------
 
          Ground-State Mulliken Net Atomic Charges

     Atom                 Charge (a.u.)
  ----------------------------------------
      1 C                    -0.195623
      2 C                    -0.253557
      3 S                    -0.027043
      4 C                    -0.022200
      5 H                     0.195498
      6 C                    -0.024015
      7 C                     0.228323
      8 C                     0.241921
      9 C                    -0.046154
     10 C                    -0.001460
     11 O                    -0.333360
     12 O                    -0.340935
     13 C                    -0.085679
     14 H                     0.121384
     15 H                     0.090437
     16 H                     0.093181
     17 C                    -0.088403
     18 H                     0.125168
     19 H                     0.093386
     20 H                     0.090501
     21 C                    -0.292752
     22 S                    -0.020911
     23 C                     0.015876
     24 H                     0.191796
     25 H                     0.205077
     26 C                    -0.108081
     27 S                     0.132006
     28 C                    -0.146383
     29 C                    -0.013590
     30 C                    -0.088644
     31 S                     0.065260
     32 C                    -0.151273
     33 C                     0.398795
     34 F                    -0.205692
     35 C                     0.446640
     36 O                    -0.461558
     37 O                    -0.300991
     38 C                    -0.058225
     39 H                     0.121508
     40 H                     0.095394
     41 H                     0.095151
     42 H                     0.219226
  ----------------------------------------
  Sum of atomic charges =     0.000000

 -----------------------------------------------------------------
                    Cartesian Multipole Moments
 -----------------------------------------------------------------
    Charge (ESU x 10^10)
                 0.0000
    Dipole Moment (Debye)
         X       3.1239      Y       1.9261      Z       2.2422
       Tot       4.3007
    Quadrupole Moments (Debye-Ang)
        XX    -172.2512     XY       8.9910     YY    -176.3017
        XZ     -15.2781     YZ      -2.9398     ZZ    -199.7011
    Octopole Moments (Debye-Ang^2)
       XXX    -357.5587    XXY     376.5261    XYY    -114.4802
       YYY    1066.7463    XXZ     130.7250    XYZ      17.8440
       YYZ     135.4846    XZZ     -52.4643    YZZ     487.3662
       ZZZ     520.4324
    Hexadecapole Moments (Debye-Ang^3)
      XXXX   -3607.5600   XXXY   -1213.8482   XXYY   -3719.9112
      XYYY   -1214.0570   YYYY  -17877.8251   XXXZ    1520.7849
      XXYZ     296.3536   XYYZ     230.4444   YYYZ    1245.7115
      XXZZ   -1231.0653   XYZZ    -139.6455   YYZZ   -4276.0032
      XZZZ    1352.5275   YZZZ     991.6864   ZZZZ   -6266.6233
 -----------------------------------------------------------------
 Total job time:  291.77s(wall), 9206.86s(cpu) 
 Mon Jan  8 19:17:49 2024

        *************************************************************
        *                                                           *
        *  Thank you very much for using Q-Chem.  Have a nice day.  *
        *                                                           *
        *************************************************************


0 sent ACK to 0 
now end server 0 ... 
cleanup process ... done
remove work dirs ./qchem3286565.0 -- ./qchem3286565.0
rm -rf ./qchem3286565.0
rm -rf ./qchem3286565
