You are running Q-Chem version: 5.4.0

#
# job setting
#
local host:  exp-7-09
current dir: /home/rramji/project-csd799/aromodel/ptb7fout-qchem/rotation-run
input file:  Dimethoxy_Benzodithiophene_Phi_10_Theta_70_Methylcarbonyl_3_Fluoro_Thienothiophene.qcin
output file: 
nprocs     : 1
nthreads   : 64
#
# qchem installation setting
#
QC:          /cm/shared/apps/spack/cpu/opt/spack/linux-centos8-zen2/gcc-10.2.0/qchem-5.4-akfmr7b3t57bfs6qan3padb2wnb2i7cl
QCAUX:       /cm/shared/apps/spack/cpu/opt/spack/linux-centos8-zen2/gcc-10.2.0/qchem-5.4-akfmr7b3t57bfs6qan3padb2wnb2i7cl/qcaux
QCPROG:      /cm/shared/apps/spack/cpu/opt/spack/linux-centos8-zen2/gcc-10.2.0/qchem-5.4-akfmr7b3t57bfs6qan3padb2wnb2i7cl/exe/qcprog.exe
QCPROG_S:    /cm/shared/apps/spack/cpu/opt/spack/linux-centos8-zen2/gcc-10.2.0/qchem-5.4-akfmr7b3t57bfs6qan3padb2wnb2i7cl/exe/qcprog.exe_s
PARALLEL:    -DPARALLEL
QCMPI:       mpich
#
# qchem directory setting
#
qcrun:       qchem4174778
QCSCRATCH:   .
QCLOCALSCR:  
QCTMPDIR:    .
QCFILEPREF:  ./qchem4174778
QCSAVEDIR:   
workdirs:    ./qchem4174778
workdir0:    ./qchem4174778
partmpdirs =  
#
# parallel setting
#
QCRSH:           ssh
QCMPI:           mpich
QCMPIRUN:        /cm/shared/apps/spack/cpu/opt/spack/linux-centos8-zen2/gcc-10.2.0/qchem-5.4-akfmr7b3t57bfs6qan3padb2wnb2i7cl/bin/mpi/mpirun_qchem
QCMACHINEFILE:   ./qchem4174778/hostfile
exp-7-09

#
# env setting
#
exported envs:   QC QCAUX QCSCRATCH QCRUNNAME QCFILEPREF QCPROG QCPROG_S GUIFILE

Running Job 1 of 1 Dimethoxy_Benzodithiophene_Phi_10_Theta_70_Methylcarbonyl_3_Fluoro_Thienothiophene.qcin
qchem Dimethoxy_Benzodithiophene_Phi_10_Theta_70_Methylcarbonyl_3_Fluoro_Thienothiophene.qcin_4174778.0 ./qchem4174778/ 1
/cm/shared/apps/spack/cpu/opt/spack/linux-centos8-zen2/gcc-10.2.0/qchem-5.4-akfmr7b3t57bfs6qan3padb2wnb2i7cl/bin/mpi/mpirun_qchem -machinefile ./qchem4174778/hostfile -np 1 /cm/shared/apps/spack/cpu/opt/spack/linux-centos8-zen2/gcc-10.2.0/qchem-5.4-akfmr7b3t57bfs6qan3padb2wnb2i7cl/exe/qcprog.exe Dimethoxy_Benzodithiophene_Phi_10_Theta_70_Methylcarbonyl_3_Fluoro_Thienothiophene.qcin_4174778.0 ./qchem4174778/

Process 0 of 1 is on exp-7-09 - thread support 0
initial socket setup ...start
initial socket setup ...done 
now start server 0 ... 
                  Welcome to Q-Chem
     A Quantum Leap Into The Future Of Chemistry


 Q-Chem 5.4, Q-Chem, Inc., Pleasanton, CA (2021)

 License issued to: University of California, San Diego (site)

 E. Epifanovsky,  A. T. B. Gilbert,  Xintian Feng,  Joonho Lee,  Yuezhi Mao,  
 N. Mardirossian,  P. Pokhilko,  A. White,  M. Wormit,  M. P. Coons,  
 A. L. Dempwolff,  Zhengting Gan,  D. Hait,  P. R. Horn,  L. D. Jacobson,  
 I. Kaliman,  J. Kussmann,  A. W. Lange,  Ka Un Lao,  D. S. Levine,  Jie Liu,  
 S. C. McKenzie,  A. F. Morrison,  K. Nanda,  F. Plasser,  D. R. Rehn,  
 M. L. Vidal,  Zhi-Qiang You,  Ying Zhu,  B. Alam,  B. Albrecht,  
 A. Aldossary,  E. Alguire,  J. H. Andersen,  D. Barton,  K. Begam,  A. Behn,  
 Y. A. Bernard,  E. J. Berquist,  H. Burton,  A. Carreras,  K. Carter-Fenk,  
 R. Chakraborty,  A. D. Chien,  K. D. Closser,  V. Cofer-Shabica,  
 S. Dasgupta,  Jia Deng,  M. de Wergifosse,  M. Diedenhofen,  Hainam Do,  
 S. Ehlert,  Po-Tung Fang,  S. Fatehi,  Qingguo Feng,  J. Gayvert,  
 Qinghui Ge,  G. Gidofalvi,  M. Goldey,  J. Gomes,  C. Gonzalez-Espinoza,  
 S. Gulania,  A. Gunina,  M. W. D. Hanson-Heine,  P. H. P. Harbach,  
 A. W. Hauser,  M. F. Herbst,  M. Hernandez Vera,  M. Hodecker,  
 Z. C. Holden,  S. Houck,  Xunkun Huang,  Kerwin Hui,  B. C. Huynh,  
 M. Ivanov,  Hyunjun Ji,  Hanjie Jiang,  B. Kaduk,  S. Kaehler,  
 K. Khistyaev,  Jaehoon Kim,  P. Klunzinger,  Z. Koczor-Benda,  
 Joong Hoon Koh,  D. Kosenkov,  L. Koulias,  T. Kowalczyk,  C. M. Krauter,  
 K. Kue,  A. Kunitsa,  T. Kus,  A. Landau,  K. V. Lawler,  D. Lefrancois,  
 S. Lehtola,  Rain Li,  Yi-Pei Li,  Jiashu Liang,  M. Liebenthal,  
 Hung-Hsuan Lin,  You-Sheng Lin,  Fenglai Liu,  Kuan-Yu Liu,  
 M. Loipersberger,  A. Luenser,  A. Manjanath,  P. Manohar,  E. Mansoor,  
 S. F. Manzer,  Shan-Ping Mao,  A. V. Marenich,  T. Markovich,  S. Mason,  
 S. A. Maurer,  P. F. McLaughlin,  M. F. S. J. Menger,  J.-M. Mewes,  
 S. A. Mewes,  P. Morgante,  J. W. Mullinax,  T. S. Nguyen-Beck,  
 K. J. Oosterbaan,  G. Paran,  Alexander C. Paul,  Suranjan K. Paul,  
 F. Pavosevic,  Zheng Pei,  S. Prager,  E. I. Proynov,  E. Ramos,  B. Rana,  
 A. E. Rask,  A. Rettig,  R. M. Richard,  F. Rob,  E. Rossomme,  T. Scheele,  
 M. Scheurer,  M. Schneider,  N. Sergueev,  S. M. Sharada,  W. Skomorowski,  
 D. W. Small,  C. J. Stein,  Yu-Chuan Su,  E. J. Sundstrom,  Zhen Tao,  
 J. Thirman,  T. Tsuchimochi,  N. M. Tubman,  S. P. Veccham,  O. Vydrov,  
 J. Wenzel,  J. Witte,  A. Yamada,  Kun Yao,  S. Yeganeh,  S. R. Yost,  
 A. Zech,  Igor Ying Zhang,  Xing Zhang,  Yu Zhang,  D. Zuev,  
 A. Aspuru-Guzik,  A. T. Bell,  N. A. Besley,  K. B. Bravaya,  B. R. Brooks,  
 D. Casanova,  Jeng-Da Chai,  S. Coriani,  C. J. Cramer,  
 A. E. DePrince, III,  R. A. DiStasio Jr.,  A. Dreuw,  B. D. Dunietz,  
 T. R. Furlani,  W. A. Goddard III,  S. Grimme,  S. Hammes-Schiffer,  
 T. Head-Gordon,  W. J. Hehre,  Chao-Ping Hsu,  T.-C. Jagau,  Yousung Jung,  
 A. Klamt,  Jing Kong,  D. S. Lambrecht,  WanZhen Liang,  N. J. Mayhall,  
 C. W. McCurdy,  J. B. Neaton,  C. Ochsenfeld,  J. A. Parkhill,  R. Peverati,  
 V. A. Rassolov,  Yihan Shao,  L. V. Slipchenko,  T. Stauch,  R. P. Steele,  
 J. E. Subotnik,  A. J. W. Thom,  A. Tkatchenko,  D. G. Truhlar,  
 T. Van Voorhis,  T. A. Wesolowski,  K. B. Whaley,  H. L. Woodcock III,  
 P. M. Zimmerman,  S. Faraji,  P. M. W. Gill,  M. Head-Gordon,  
 J. M. Herbert,  A. I. Krylov

 Contributors to earlier versions of Q-Chem not listed above: 
 R. D. Adamson,  B. Austin,  R. Baer,  J. Baker,  G. J. O. Beran,  
 K. Brandhorst,  S. T. Brown,  E. F. C. Byrd,  A. K. Chakraborty,  
 G. K. L. Chan,  Chun-Min Chang,  Yunqing Chen,  C.-L. Cheng,  
 Siu Hung Chien,  D. M. Chipman,  D. L. Crittenden,  H. Dachsel,  
 R. J. Doerksen,  A. D. Dutoi,  R. G. Edgar,  J. Fosso-Tande,  
 L. Fusti-Molnar,  D. Ghosh,  A. Ghysels,  A. Golubeva-Zadorozhnaya,  
 J. Gonthier,  M. S. Gordon,  S. R. Gwaltney,  G. Hawkins,  J. E. Herr,  
 A. Heyden,  S. Hirata,  E. G. Hohenstein,  G. Kedziora,  F. J. Keil,  
 C. Kelley,  Jihan Kim,  R. A. King,  R. Z. Khaliullin,  P. P. Korambath,  
 W. Kurlancheek,  A. Laurent,  A. M. Lee,  M. S. Lee,  S. V. Levchenko,  
 Ching Yeh Lin,  D. Liotard,  E. Livshits,  R. C. Lochan,  I. Lotan,  
 L. A. Martinez-Martinez,  P. E. Maslen,  N. Nair,  D. P. O'Neill,  
 D. Neuhauser,  E. Neuscamman,  C. M. Oana,  R. Olivares-Amaya,  R. Olson,  
 T. M. Perrine,  B. Peters,  P. A. Pieniazek,  A. Prociuk,  Y. M. Rhee,  
 J. Ritchie,  M. A. Rohrdanz,  E. Rosta,  N. J. Russ,  H. F. Schaefer III,  
 M. W. Schmidt,  N. E. Schultz,  S. Sharma,  N. Shenvi,  C. D. Sherrill,  
 A. C. Simmonett,  A. Sodt,  T. Stein,  D. Stuck,  K. S. Thanthiriwatte,  
 V. Vanovschi,  L. Vogt,  Tao Wang,  A. Warshel,  M. A. Watson,  
 C. F. Williams,  Q. Wu,  X. Xu,  Jun Yang,  W. Zhang,  Yan Zhao

 Please cite Q-Chem as follows:
 Y. Shao et al., Mol. Phys. 113, 184-215 (2015)
 DOI: 10.1080/00268976.2014.952696

 Q-Chem 5.4.0 for Intel X86 EM64T Linux

 Parts of Q-Chem use Armadillo 9.800.1 (Horizon Scraper).
 http://arma.sourceforge.net/

 Q-Chem begins on Mon Jan  8 19:23:07 2024  

 Host: 
0

     Scratch files written to ./qchem4174778//
 May1621 |scratch|qcdevops|jenkins|workspace|build_RNUM    
 Parallel job on  1  processors
 Processing $rem in /cm/shared/apps/spack/cpu/opt/spack/linux-centos8-zen2/gcc-10.2.0/qchem-5.4-akfmr7b3t57bfs6qan3padb2wnb2i7cl/config/preferences:
 Processing $rem in /home/rramji/.qchemrc:
 Symmetry turned off for PCM/SM12/SMD calculation
 Core orbitals will be frozen

 Checking the input file for inconsistencies... 	...done.

 Q-Chem warning in module forms1/BasisType.C, line 2236:

 You are not using the predefined 5D/6D in this basis set.


--------------------------------------------------------------
User input:
--------------------------------------------------------------
$molecule
0 1
C	-0.313191	-8.517702	0.070009
C	0.694746	-7.641575	-0.305494
S	-1.762350	-7.638634	0.614924
C	0.340973	-6.264785	-0.176768
H	1.677747	-7.966081	-0.669571
C	-1.000069	-6.072714	0.309600
C	-1.520060	-4.787049	0.525372
C	1.196466	-5.162801	-0.463825
C	0.677639	-3.874817	-0.243888
C	-0.665815	-3.683952	0.240312
O	2.426678	-5.499772	-0.941626
O	-2.755460	-4.459055	1.006468
C	-3.853913	-5.329063	0.761666
H	-4.765607	-4.755694	1.016135
H	-3.822182	-6.238095	1.401368
H	-3.901833	-5.637262	-0.305161
C	3.502489	-4.572261	-0.868342
H	4.416005	-5.139743	-1.128551
H	3.613841	-4.153131	0.154712
H	3.386756	-3.739531	-1.595605
C	-1.015430	-2.306654	0.369957
S	1.445922	-2.306501	-0.537898
C	-0.000000	-1.435185	-0.000000
H	-1.998088	-1.978138	0.731088
H	-0.314143	-9.614033	0.074151
C	0.000000	0.000000	0.000000
S	0.157577	0.890937	1.507541
C	0.429889	2.439720	0.718873
C	0.157797	0.890576	-1.067872
C	0.396915	2.260004	-0.686410
S	0.118307	0.650207	-2.805516
C	0.417036	2.376229	-3.054530
C	0.537616	3.074202	-1.862551
F	0.764992	4.391378	-1.819088
C	0.496696	2.817118	-4.456084
O	0.370874	2.057582	-5.406510
O	0.723861	4.148418	-4.569225
C	0.814976	4.635075	-5.916207
H	0.999286	5.720591	-5.833064
H	-0.125909	4.442226	-6.470168
H	1.645504	4.140465	-6.459293
H	0.588993	3.350182	1.306486
$end

$rem
JOBTYPE		SP
EXCHANGE	HF
CORRELATION	pRIMP2
BASIS		cc-pvtz
METHOD		rimp2
AUX_BASIS	rimp2-cc-pvtz
SOLVENT_METHOD	PCM
PURECART	11111
SYMMETRY	false
MEM_TOTAL	110000
SCF_CONVERGENCE = 6
THRESH=10
GUI = 2
$end



$solvent
dielectric 4.90
$end
--------------------------------------------------------------
 ----------------------------------------------------------------
             Standard Nuclear Orientation (Angstroms)
    I     Atom           X                Y                Z
 ----------------------------------------------------------------
    1      C      -0.3131910000    -8.5177020000     0.0700090000
    2      C       0.6947460000    -7.6415750000    -0.3054940000
    3      S      -1.7623500000    -7.6386340000     0.6149240000
    4      C       0.3409730000    -6.2647850000    -0.1767680000
    5      H       1.6777470000    -7.9660810000    -0.6695710000
    6      C      -1.0000690000    -6.0727140000     0.3096000000
    7      C      -1.5200600000    -4.7870490000     0.5253720000
    8      C       1.1964660000    -5.1628010000    -0.4638250000
    9      C       0.6776390000    -3.8748170000    -0.2438880000
   10      C      -0.6658150000    -3.6839520000     0.2403120000
   11      O       2.4266780000    -5.4997720000    -0.9416260000
   12      O      -2.7554600000    -4.4590550000     1.0064680000
   13      C      -3.8539130000    -5.3290630000     0.7616660000
   14      H      -4.7656070000    -4.7556940000     1.0161350000
   15      H      -3.8221820000    -6.2380950000     1.4013680000
   16      H      -3.9018330000    -5.6372620000    -0.3051610000
   17      C       3.5024890000    -4.5722610000    -0.8683420000
   18      H       4.4160050000    -5.1397430000    -1.1285510000
   19      H       3.6138410000    -4.1531310000     0.1547120000
   20      H       3.3867560000    -3.7395310000    -1.5956050000
   21      C      -1.0154300000    -2.3066540000     0.3699570000
   22      S       1.4459220000    -2.3065010000    -0.5378980000
   23      C       0.0000000000    -1.4351850000     0.0000000000
   24      H      -1.9980880000    -1.9781380000     0.7310880000
   25      H      -0.3141430000    -9.6140330000     0.0741510000
   26      C       0.0000000000     0.0000000000     0.0000000000
   27      S       0.1575770000     0.8909370000     1.5075410000
   28      C       0.4298890000     2.4397200000     0.7188730000
   29      C       0.1577970000     0.8905760000    -1.0678720000
   30      C       0.3969150000     2.2600040000    -0.6864100000
   31      S       0.1183070000     0.6502070000    -2.8055160000
   32      C       0.4170360000     2.3762290000    -3.0545300000
   33      C       0.5376160000     3.0742020000    -1.8625510000
   34      F       0.7649920000     4.3913780000    -1.8190880000
   35      C       0.4966960000     2.8171180000    -4.4560840000
   36      O       0.3708740000     2.0575820000    -5.4065100000
   37      O       0.7238610000     4.1484180000    -4.5692250000
   38      C       0.8149760000     4.6350750000    -5.9162070000
   39      H       0.9992860000     5.7205910000    -5.8330640000
   40      H      -0.1259090000     4.4422260000    -6.4701680000
   41      H       1.6455040000     4.1404650000    -6.4592930000
   42      H       0.5889930000     3.3501820000     1.3064860000
 ----------------------------------------------------------------
 Nuclear Repulsion Energy =        3275.69987006 hartrees
 There are      119 alpha and      119 beta electrons
 Requested basis set is cc-pVTZ
 There are 376 shells and 1068 basis functions

 Total QAlloc Memory Limit 110000 MB
 Mega-Array Size       188 MB
 MEM_STATIC part       192 MB
 Discretize the solute cavity surface with Lebedev spheres
	Using 110 Lebedev grid points for each H atom
	Using 194 Lebedev grid points for other atoms
	Atomic van der Waals radii will be scaled by 1.20
 Remove points where switching function is < 1.0e-08
 Keep 2916 surface tesserae and discard 4140 interior tesserae
 Molecular Surface Area = 442.706 Angst**2
 Requested basis set is rimp2-cc-pVTZ
 There are 833 shells and 2903 basis functions
 A cutoff of  1.0D-10 yielded  30694 shell pairs
 There are    236164 function pairs (    306858 Cartesian)
 Smallest overlap matrix eigenvalue = 2.21E-05

 Scale SEOQF with 1.000000e-01/1.000000e-02/1.000000e-02

 Standard Electronic Orientation quadrupole field applied
 Nucleus-field energy     =     0.0000000388 hartrees
 Guess from superposition of atomic densities
 Warning:  Energy on first SCF cycle will be non-variational
 SAD guess density has 238.000000 electrons

 -----------------------------------------------------------------------
  General SCF calculation program by
  Eric Jon Sundstrom, Paul Horn, Yuezhi Mao, Dmitri Zuev, Alec White,
  David Stuck, Shaama M.S., Shane Yost, Joonho Lee, David Small,
  Daniel Levine, Susi Lehtola, Hugh Burton, Evgeny Epifanovsky,
  Bang C. Huynh
 -----------------------------------------------------------------------
 Hartree-Fock
 using 64 threads for integral computing
 -------------------------------------------------------
 OpenMP Integral computing Module                
 Release: version 1.0, May 2013, Q-Chem Inc. Pittsburgh 
 -------------------------------------------------------
 A restricted SCF calculation will be
 performed using DIIS
 SCF converges when DIIS error is below 1.0e-06
 ---------------------------------------
  Cycle       Energy         DIIS error
 ---------------------------------------
    1   -2765.2020941018      1.75e-02  
    2   -2753.8819603481      1.56e-03  
    3   -2754.2194712099      8.60e-04  
    4   -2754.3003390057      2.56e-04  
    5   -2754.3119565042      6.94e-05  
    6   -2754.3130405265      2.37e-05  
    7   -2754.3132779405      1.14e-05  
    8   -2754.3133558807      4.30e-06  
    9   -2754.3133706631      1.68e-06  
   10   -2754.3133724303      7.06e-07  Convergence criterion met
 ---------------------------------------
 SCF time:   CPU 6237.37s  wall 241.00s 

************** Final PCM Free Energy Summary **************
 G_electrostatic  =      -0.01870161 hartree =     -11.73543609 kcal/mol
 G_cavitation     =       0.00000000 hartree =       0.00000000 kcal/mol
 G_dispersion     =       0.00000000 hartree =       0.00000000 kcal/mol
 G_repulsion      =       0.00000000 hartree =       0.00000000 kcal/mol
 --------------------------------------------------
 Non-electrostatic Free Energy =       0.00000000 hartree =       0.00000000 kcal/mol
 Total                         =      -0.01870161 hartree =     -11.73543609 kcal/mol
 --------------------------------------------------
 SCF Energy (H0 + V/2)                       =   -2754.31337243 
 Solute Internal Energy (H0)                 =   -2754.29467082 
 Total Free Energy (H0 + V/2 + non-elec)     =   -2754.31337243 hartree
                                             = -1728357.72730198 kcal/mol
***********************************************************

 SCF   energy in the final basis set =    -2754.3133724303
 Total energy in the final basis set =    -2754.3133724303


 --------------------------------------------------------------
  Generalized many-body perturbation theory program
  by Joonho Lee, Fazle Rob, Xintian Feng, Evgeny Epifanovsky

 No regularization used 
 (reg. param. = 0.0000e+00)
  (P|Q)^-1/2 Time:  CPU 253.01 s  wall 4.52 s

 In RI-MP2 calculation: 
 # of frozen core orbitals: 45

 Components of the RIMP2 correlation energy:
        aaaa    correlation energy =        -0.6691531504 a.u.
        abab    correlation energy =        -3.7116631181 a.u.
        bbbb    correlation energy =        -0.6691531504 a.u.
        non-Brillouin singles      =        -0.0000000000 a.u.
        total same-spin energy     =        -1.3383063008 a.u.
        total opposite-spin energy =        -3.7116631181 a.u.

 Total  RIMP2   correlation energy =        -5.0499694190 a.u.
        RIMP2         total energy =     -2759.3633418493 a.u.

 RI-MP2 Energy Time:  CPU 2707.69 s  wall 44.53 s
 
 --------------------------------------------------------------
 
                    Orbital Energies (a.u.)
 --------------------------------------------------------------
 
 Alpha MOs
 -- Occupied --
-92.0148 -91.9968 -91.9892 -91.9866 -26.3426 -20.6142 -20.5923 -20.5919
-20.5605 -11.4086 -11.3814 -11.3192 -11.3186 -11.3088 -11.2999 -11.2966
-11.2964 -11.2919 -11.2885 -11.2869 -11.2864 -11.2863 -11.2841 -11.2836
-11.2803 -11.2606 -11.2595 -11.2578 -11.2501  -9.0131  -8.9968  -8.9895
 -8.9865  -6.6938  -6.6932  -6.6927  -6.6778  -6.6771  -6.6760  -6.6705
 -6.6698  -6.6688  -6.6675  -6.6669  -6.6660  -1.6597  -1.4667  -1.4165
 -1.4146  -1.3693  -1.2201  -1.1945  -1.1653  -1.1350  -1.0845  -1.0521
 -1.0405  -1.0219  -1.0018  -0.9877  -0.9624  -0.9596  -0.9503  -0.9387
 -0.8959  -0.8667  -0.8513  -0.8108  -0.7918  -0.7885  -0.7865  -0.7651
 -0.7549  -0.7340  -0.7245  -0.7091  -0.7000  -0.6846  -0.6834  -0.6803
 -0.6733  -0.6592  -0.6572  -0.6528  -0.6305  -0.6202  -0.6172  -0.6048
 -0.5969  -0.5850  -0.5776  -0.5693  -0.5663  -0.5598  -0.5559  -0.5508
 -0.5322  -0.5304  -0.5241  -0.5161  -0.5149  -0.5085  -0.5046  -0.4956
 -0.4895  -0.4793  -0.4751  -0.4728  -0.4694  -0.4660  -0.4606  -0.4076
 -0.3986  -0.3861  -0.3570  -0.3487  -0.3182  -0.2948  -0.2587
 -- Virtual --
  0.0356   0.0594   0.1090   0.1241   0.1356   0.1462   0.1506   0.1554
  0.1560   0.1589   0.1604   0.1726   0.1801   0.1825   0.1879   0.1913
  0.2023   0.2043   0.2151   0.2165   0.2201   0.2217   0.2242   0.2286
  0.2319   0.2365   0.2419   0.2475   0.2547   0.2658   0.2707   0.2782
  0.2837   0.3015   0.3262   0.3303   0.3348   0.3375   0.3421   0.3454
  0.3492   0.3521   0.3686   0.3784   0.3826   0.3844   0.3849   0.3881
  0.3894   0.3980   0.4014   0.4018   0.4087   0.4102   0.4193   0.4210
  0.4257   0.4291   0.4370   0.4419   0.4462   0.4511   0.4561   0.4605
  0.4614   0.4617   0.4671   0.4725   0.4730   0.4790   0.4830   0.4870
  0.4934   0.4985   0.5025   0.5067   0.5123   0.5150   0.5196   0.5230
  0.5278   0.5333   0.5343   0.5409   0.5433   0.5452   0.5462   0.5492
  0.5521   0.5541   0.5576   0.5621   0.5675   0.5690   0.5756   0.5770
  0.5827   0.5892   0.5919   0.5957   0.5987   0.6046   0.6076   0.6081
  0.6148   0.6157   0.6195   0.6225   0.6230   0.6282   0.6303   0.6352
  0.6370   0.6436   0.6461   0.6466   0.6503   0.6570   0.6589   0.6637
  0.6710   0.6790   0.6827   0.6874   0.6911   0.6971   0.7009   0.7059
  0.7113   0.7147   0.7158   0.7213   0.7269   0.7276   0.7420   0.7503
  0.7539   0.7543   0.7620   0.7658   0.7762   0.7880   0.7918   0.8028
  0.8085   0.8117   0.8164   0.8177   0.8222   0.8267   0.8322   0.8404
  0.8433   0.8521   0.8618   0.8630   0.8717   0.8724   0.8787   0.8828
  0.8852   0.8935   0.8999   0.9030   0.9092   0.9114   0.9195   0.9282
  0.9319   0.9383   0.9410   0.9466   0.9495   0.9518   0.9583   0.9676
  0.9689   0.9753   0.9808   0.9829   0.9898   0.9941   0.9989   1.0031
  1.0073   1.0133   1.0166   1.0209   1.0278   1.0312   1.0382   1.0403
  1.0462   1.0490   1.0557   1.0618   1.0669   1.0705   1.0741   1.0801
  1.0805   1.0861   1.0913   1.0962   1.1005   1.1038   1.1057   1.1130
  1.1137   1.1155   1.1257   1.1351   1.1424   1.1425   1.1499   1.1526
  1.1636   1.1684   1.1737   1.1747   1.1799   1.1859   1.1874   1.2002
  1.2021   1.2069   1.2112   1.2149   1.2164   1.2259   1.2268   1.2290
  1.2338   1.2386   1.2459   1.2503   1.2618   1.2642   1.2654   1.2709
  1.2749   1.2795   1.2834   1.2978   1.3032   1.3058   1.3098   1.3151
  1.3164   1.3241   1.3313   1.3447   1.3489   1.3566   1.3632   1.3708
  1.3755   1.3867   1.3898   1.3990   1.4012   1.4069   1.4127   1.4182
  1.4309   1.4357   1.4419   1.4623   1.4692   1.4733   1.4862   1.4911
  1.4933   1.4969   1.5026   1.5088   1.5142   1.5162   1.5266   1.5330
  1.5334   1.5381   1.5401   1.5450   1.5480   1.5511   1.5569   1.5685
  1.5739   1.5822   1.5836   1.5945   1.6027   1.6129   1.6256   1.6308
  1.6371   1.6443   1.6497   1.6568   1.6644   1.6683   1.6708   1.6821
  1.6893   1.6956   1.6988   1.7069   1.7115   1.7230   1.7329   1.7550
  1.7602   1.7691   1.7759   1.7801   1.7893   1.7991   1.8127   1.8178
  1.8219   1.8235   1.8308   1.8525   1.8569   1.8636   1.8670   1.8697
  1.8825   1.8871   1.8916   1.9055   1.9101   1.9200   1.9238   1.9328
  1.9376   1.9519   1.9593   1.9617   1.9698   1.9751   1.9813   1.9878
  1.9988   2.0026   2.0078   2.0157   2.0176   2.0331   2.0369   2.0519
  2.0585   2.0847   2.0877   2.0942   2.1009   2.1175   2.1261   2.1306
  2.1427   2.1589   2.1614   2.1689   2.1772   2.1866   2.1940   2.1972
  2.1979   2.2056   2.2081   2.2132   2.2206   2.2300   2.2368   2.2428
  2.2456   2.2570   2.2594   2.2697   2.2718   2.2791   2.2865   2.2981
  2.3067   2.3085   2.3164   2.3331   2.3357   2.3399   2.3509   2.3593
  2.3667   2.3713   2.3834   2.3927   2.3982   2.4076   2.4158   2.4237
  2.4281   2.4355   2.4462   2.4501   2.4589   2.4734   2.4823   2.4872
  2.4977   2.5039   2.5119   2.5251   2.5336   2.5403   2.5514   2.5561
  2.5663   2.5781   2.5819   2.6028   2.6056   2.6119   2.6174   2.6240
  2.6262   2.6279   2.6344   2.6368   2.6437   2.6529   2.6612   2.6703
  2.6776   2.6793   2.6866   2.6945   2.6974   2.7003   2.7054   2.7102
  2.7174   2.7242   2.7328   2.7409   2.7436   2.7514   2.7549   2.7685
  2.7793   2.7839   2.7850   2.7975   2.8002   2.8084   2.8161   2.8202
  2.8258   2.8376   2.8413   2.8445   2.8506   2.8571   2.8617   2.8712
  2.8774   2.8791   2.8858   2.8938   2.9021   2.9043   2.9217   2.9292
  2.9340   2.9479   2.9545   2.9654   2.9711   2.9783   2.9835   2.9884
  3.0048   3.0058   3.0145   3.0210   3.0238   3.0270   3.0365   3.0420
  3.0458   3.0597   3.0623   3.0753   3.0818   3.0892   3.0953   3.1001
  3.1036   3.1048   3.1082   3.1162   3.1202   3.1252   3.1342   3.1424
  3.1503   3.1536   3.1551   3.1650   3.1676   3.1755   3.1790   3.1806
  3.1856   3.1945   3.1997   3.2101   3.2173   3.2181   3.2236   3.2298
  3.2336   3.2372   3.2447   3.2496   3.2520   3.2567   3.2610   3.2693
  3.2724   3.2753   3.2818   3.2895   3.2908   3.2924   3.3016   3.3052
  3.3110   3.3199   3.3245   3.3270   3.3311   3.3384   3.3429   3.3466
  3.3496   3.3533   3.3567   3.3616   3.3658   3.3715   3.3744   3.3796
  3.3858   3.3882   3.3929   3.3951   3.4013   3.4035   3.4056   3.4153
  3.4208   3.4313   3.4350   3.4366   3.4403   3.4441   3.4504   3.4522
  3.4559   3.4641   3.4687   3.4707   3.4742   3.4781   3.4865   3.4888
  3.4926   3.5018   3.5096   3.5118   3.5161   3.5269   3.5288   3.5354
  3.5458   3.5466   3.5506   3.5578   3.5614   3.5636   3.5665   3.5768
  3.5794   3.5854   3.5892   3.5976   3.5995   3.6063   3.6094   3.6211
  3.6238   3.6249   3.6318   3.6326   3.6351   3.6507   3.6570   3.6630
  3.6651   3.6684   3.6760   3.6824   3.6883   3.6912   3.6935   3.7013
  3.7034   3.7063   3.7071   3.7135   3.7226   3.7310   3.7352   3.7416
  3.7444   3.7493   3.7510   3.7629   3.7672   3.7739   3.7763   3.7899
  3.7908   3.7962   3.8019   3.8049   3.8091   3.8116   3.8162   3.8210
  3.8297   3.8365   3.8420   3.8465   3.8538   3.8595   3.8681   3.8717
  3.8759   3.8821   3.8891   3.8937   3.8967   3.9077   3.9129   3.9179
  3.9278   3.9323   3.9435   3.9495   3.9580   3.9647   3.9775   3.9835
  3.9886   3.9950   4.0027   4.0048   4.0093   4.0149   4.0238   4.0335
  4.0441   4.0609   4.0630   4.0681   4.0765   4.0787   4.0811   4.0903
  4.1121   4.1181   4.1249   4.1362   4.1404   4.1447   4.1483   4.1505
  4.1592   4.1665   4.1679   4.1739   4.1775   4.1834   4.1893   4.2024
  4.2064   4.2083   4.2170   4.2321   4.2431   4.2472   4.2568   4.2646
  4.2727   4.2831   4.2922   4.3101   4.3186   4.3253   4.3299   4.3421
  4.3510   4.3560   4.3598   4.3659   4.3751   4.3804   4.3891   4.3909
  4.4065   4.4088   4.4130   4.4227   4.4304   4.4323   4.4355   4.4504
  4.4584   4.4674   4.4804   4.4851   4.5018   4.5048   4.5146   4.5238
  4.5303   4.5371   4.5485   4.5531   4.5605   4.5694   4.5795   4.5817
  4.5920   4.6042   4.6053   4.6231   4.6312   4.6500   4.6517   4.6597
  4.6651   4.6691   4.6809   4.6840   4.6884   4.7165   4.7307   4.7321
  4.7428   4.7594   4.7703   4.7730   4.7739   4.7880   4.8085   4.8197
  4.8278   4.8433   4.8475   4.8557   4.8661   4.8850   4.9166   4.9187
  4.9297   4.9418   4.9469   4.9574   4.9632   4.9746   4.9859   4.9883
  5.0060   5.0087   5.0093   5.0134   5.0431   5.0515   5.0617   5.0713
  5.0847   5.1064   5.1161   5.1243   5.1598   5.1701   5.1775   5.1942
  5.2068   5.2219   5.2446   5.2516   5.2548   5.2568   5.2608   5.2819
  5.2929   5.3082   5.3121   5.3292   5.3398   5.3511   5.3533   5.3630
  5.3718   5.3963   5.3983   5.4164   5.4266   5.4358   5.4544   5.4633
  5.4853   5.4888   5.5063   5.5087   5.5135   5.5278   5.5468   5.5575
  5.5760   5.5807   5.5846   5.6056   5.6223   5.6233   5.6368   5.6659
  5.7129   5.7275   5.7594   5.7819   5.8081   5.8144   5.8451   5.8560
  5.8715   5.8787   5.9077   5.9258   5.9298   5.9761   5.9900   6.0427
  6.0647   6.0693   6.0924   6.1509   6.1660   6.1719   6.1769   6.1912
  6.2330   6.2513   6.2619   6.2666   6.2802   6.2895   6.3039   6.3273
  6.4135   6.4414   6.4507   6.4747   6.5390   6.5479   6.5553   6.6032
  6.6523   6.6616   6.6719   6.6945   6.7462   6.7991   6.8302   6.8385
  6.8602   6.8916   6.9788   7.1195   7.1365   7.2045   7.2069   7.2155
  7.2334   7.3105   7.3189   7.3313   7.3638   7.3640   7.4071   7.4139
  7.4786   7.4863   7.4875   7.5246   7.5513   7.6157   7.7114   7.7737
  7.7895   7.7962   7.8959   7.9179   7.9439   7.9587   8.1107   8.1352
  8.4649   8.9226   9.0200   9.3635   9.4747   9.6526  10.1271  10.6625
 11.1532  11.5318  11.7799  11.9105  12.1234  12.1793  12.4117  12.5721
 12.7114  12.9479  13.0288  13.1978  13.2786  13.3866  13.7711  13.8466
 13.9012  14.0124  14.0314  14.4009  15.1913
 --------------------------------------------------------------
 
          Ground-State Mulliken Net Atomic Charges

     Atom                 Charge (a.u.)
  ----------------------------------------
      1 C                    -0.187397
      2 C                    -0.254401
      3 S                    -0.022082
      4 C                    -0.013221
      5 H                     0.196493
      6 C                    -0.027501
      7 C                     0.245597
      8 C                     0.238485
      9 C                    -0.041956
     10 C                    -0.026211
     11 O                    -0.333231
     12 O                    -0.339853
     13 C                    -0.085806
     14 H                     0.122660
     15 H                     0.091111
     16 H                     0.094441
     17 C                    -0.086516
     18 H                     0.124887
     19 H                     0.094333
     20 H                     0.090541
     21 C                    -0.228446
     22 S                    -0.000245
     23 C                    -0.052442
     24 H                     0.197101
     25 H                     0.206565
     26 C                    -0.000735
     27 S                     0.109160
     28 C                    -0.188955
     29 C                    -0.019463
     30 C                    -0.098984
     31 S                     0.011982
     32 C                    -0.154096
     33 C                     0.391674
     34 F                    -0.207133
     35 C                     0.445543
     36 O                    -0.461163
     37 O                    -0.300697
     38 C                    -0.058581
     39 H                     0.121193
     40 H                     0.095068
     41 H                     0.094961
     42 H                     0.217318
  ----------------------------------------
  Sum of atomic charges =     0.000000

 -----------------------------------------------------------------
                    Cartesian Multipole Moments
 -----------------------------------------------------------------
    Charge (ESU x 10^10)
                -0.0000
    Dipole Moment (Debye)
         X       0.4594      Y       0.8169      Z       2.7877
       Tot       2.9410
    Quadrupole Moments (Debye-Ang)
        XX    -176.6679     XY       3.5982     YY    -159.6035
        XZ      -4.1543     YZ      -5.9950     ZZ    -206.3823
    Octopole Moments (Debye-Ang^2)
       XXX     -53.0160    XXY     261.1642    XYY     -17.0161
       YYY     847.0547    XXZ     167.7829    XYZ       3.5181
       YYZ     105.1923    XZZ       3.5528    YZZ     474.9728
       ZZZ     548.6380
    Hexadecapole Moments (Debye-Ang^3)
      XXXX   -2235.7781   XXXY    -785.8736   XXYY   -3735.3600
      XYYY    -700.7821   YYYY  -19123.9633   XXXZ     524.3343
      XXYZ     559.3550   XYYZ      54.9910   YYYZ    1390.4504
      XXZZ   -1337.0520   XYZZ    -188.4511   YYZZ   -4267.4867
      XZZZ     526.7337   YZZZ    1167.7293   ZZZZ   -5640.0913
 -----------------------------------------------------------------
 Total job time:  296.74s(wall), 9406.78s(cpu) 
 Mon Jan  8 19:28:04 2024

        *************************************************************
        *                                                           *
        *  Thank you very much for using Q-Chem.  Have a nice day.  *
        *                                                           *
        *************************************************************


0 sent ACK to 0 
now end server 0 ... 
cleanup process ... done
remove work dirs ./qchem4174778.0 -- ./qchem4174778.0
rm -rf ./qchem4174778.0
rm -rf ./qchem4174778
