You are running Q-Chem version: 5.4.0

#
# job setting
#
local host:  exp-1-20
current dir: /home/rramji/project-csd799/aromodel/ptb7fout-qchem/rotation-run
input file:  Dimethoxy_Benzodithiophene_Phi_50_Theta_280_Methylcarbonyl_3_Fluoro_Thienothiophene.qcin
output file: 
nprocs     : 1
nthreads   : 64
#
# qchem installation setting
#
QC:          /cm/shared/apps/spack/cpu/opt/spack/linux-centos8-zen2/gcc-10.2.0/qchem-5.4-akfmr7b3t57bfs6qan3padb2wnb2i7cl
QCAUX:       /cm/shared/apps/spack/cpu/opt/spack/linux-centos8-zen2/gcc-10.2.0/qchem-5.4-akfmr7b3t57bfs6qan3padb2wnb2i7cl/qcaux
QCPROG:      /cm/shared/apps/spack/cpu/opt/spack/linux-centos8-zen2/gcc-10.2.0/qchem-5.4-akfmr7b3t57bfs6qan3padb2wnb2i7cl/exe/qcprog.exe
QCPROG_S:    /cm/shared/apps/spack/cpu/opt/spack/linux-centos8-zen2/gcc-10.2.0/qchem-5.4-akfmr7b3t57bfs6qan3padb2wnb2i7cl/exe/qcprog.exe_s
PARALLEL:    -DPARALLEL
QCMPI:       mpich
#
# qchem directory setting
#
qcrun:       qchem3364451
QCSCRATCH:   .
QCLOCALSCR:  
QCTMPDIR:    .
QCFILEPREF:  ./qchem3364451
QCSAVEDIR:   
workdirs:    ./qchem3364451
workdir0:    ./qchem3364451
partmpdirs =  
#
# parallel setting
#
QCRSH:           ssh
QCMPI:           mpich
QCMPIRUN:        /cm/shared/apps/spack/cpu/opt/spack/linux-centos8-zen2/gcc-10.2.0/qchem-5.4-akfmr7b3t57bfs6qan3padb2wnb2i7cl/bin/mpi/mpirun_qchem
QCMACHINEFILE:   ./qchem3364451/hostfile
exp-1-20

#
# env setting
#
exported envs:   QC QCAUX QCSCRATCH QCRUNNAME QCFILEPREF QCPROG QCPROG_S GUIFILE

Running Job 1 of 1 Dimethoxy_Benzodithiophene_Phi_50_Theta_280_Methylcarbonyl_3_Fluoro_Thienothiophene.qcin
qchem Dimethoxy_Benzodithiophene_Phi_50_Theta_280_Methylcarbonyl_3_Fluoro_Thienothiophene.qcin_3364451.0 ./qchem3364451/ 1
/cm/shared/apps/spack/cpu/opt/spack/linux-centos8-zen2/gcc-10.2.0/qchem-5.4-akfmr7b3t57bfs6qan3padb2wnb2i7cl/bin/mpi/mpirun_qchem -machinefile ./qchem3364451/hostfile -np 1 /cm/shared/apps/spack/cpu/opt/spack/linux-centos8-zen2/gcc-10.2.0/qchem-5.4-akfmr7b3t57bfs6qan3padb2wnb2i7cl/exe/qcprog.exe Dimethoxy_Benzodithiophene_Phi_50_Theta_280_Methylcarbonyl_3_Fluoro_Thienothiophene.qcin_3364451.0 ./qchem3364451/

Process 0 of 1 is on exp-1-20 - thread support 0
initial socket setup ...start
initial socket setup ...done 
now start server 0 ... 
                  Welcome to Q-Chem
     A Quantum Leap Into The Future Of Chemistry


 Q-Chem 5.4, Q-Chem, Inc., Pleasanton, CA (2021)

 License issued to: University of California, San Diego (site)

 E. Epifanovsky,  A. T. B. Gilbert,  Xintian Feng,  Joonho Lee,  Yuezhi Mao,  
 N. Mardirossian,  P. Pokhilko,  A. White,  M. Wormit,  M. P. Coons,  
 A. L. Dempwolff,  Zhengting Gan,  D. Hait,  P. R. Horn,  L. D. Jacobson,  
 I. Kaliman,  J. Kussmann,  A. W. Lange,  Ka Un Lao,  D. S. Levine,  Jie Liu,  
 S. C. McKenzie,  A. F. Morrison,  K. Nanda,  F. Plasser,  D. R. Rehn,  
 M. L. Vidal,  Zhi-Qiang You,  Ying Zhu,  B. Alam,  B. Albrecht,  
 A. Aldossary,  E. Alguire,  J. H. Andersen,  D. Barton,  K. Begam,  A. Behn,  
 Y. A. Bernard,  E. J. Berquist,  H. Burton,  A. Carreras,  K. Carter-Fenk,  
 R. Chakraborty,  A. D. Chien,  K. D. Closser,  V. Cofer-Shabica,  
 S. Dasgupta,  Jia Deng,  M. de Wergifosse,  M. Diedenhofen,  Hainam Do,  
 S. Ehlert,  Po-Tung Fang,  S. Fatehi,  Qingguo Feng,  J. Gayvert,  
 Qinghui Ge,  G. Gidofalvi,  M. Goldey,  J. Gomes,  C. Gonzalez-Espinoza,  
 S. Gulania,  A. Gunina,  M. W. D. Hanson-Heine,  P. H. P. Harbach,  
 A. W. Hauser,  M. F. Herbst,  M. Hernandez Vera,  M. Hodecker,  
 Z. C. Holden,  S. Houck,  Xunkun Huang,  Kerwin Hui,  B. C. Huynh,  
 M. Ivanov,  Hyunjun Ji,  Hanjie Jiang,  B. Kaduk,  S. Kaehler,  
 K. Khistyaev,  Jaehoon Kim,  P. Klunzinger,  Z. Koczor-Benda,  
 Joong Hoon Koh,  D. Kosenkov,  L. Koulias,  T. Kowalczyk,  C. M. Krauter,  
 K. Kue,  A. Kunitsa,  T. Kus,  A. Landau,  K. V. Lawler,  D. Lefrancois,  
 S. Lehtola,  Rain Li,  Yi-Pei Li,  Jiashu Liang,  M. Liebenthal,  
 Hung-Hsuan Lin,  You-Sheng Lin,  Fenglai Liu,  Kuan-Yu Liu,  
 M. Loipersberger,  A. Luenser,  A. Manjanath,  P. Manohar,  E. Mansoor,  
 S. F. Manzer,  Shan-Ping Mao,  A. V. Marenich,  T. Markovich,  S. Mason,  
 S. A. Maurer,  P. F. McLaughlin,  M. F. S. J. Menger,  J.-M. Mewes,  
 S. A. Mewes,  P. Morgante,  J. W. Mullinax,  T. S. Nguyen-Beck,  
 K. J. Oosterbaan,  G. Paran,  Alexander C. Paul,  Suranjan K. Paul,  
 F. Pavosevic,  Zheng Pei,  S. Prager,  E. I. Proynov,  E. Ramos,  B. Rana,  
 A. E. Rask,  A. Rettig,  R. M. Richard,  F. Rob,  E. Rossomme,  T. Scheele,  
 M. Scheurer,  M. Schneider,  N. Sergueev,  S. M. Sharada,  W. Skomorowski,  
 D. W. Small,  C. J. Stein,  Yu-Chuan Su,  E. J. Sundstrom,  Zhen Tao,  
 J. Thirman,  T. Tsuchimochi,  N. M. Tubman,  S. P. Veccham,  O. Vydrov,  
 J. Wenzel,  J. Witte,  A. Yamada,  Kun Yao,  S. Yeganeh,  S. R. Yost,  
 A. Zech,  Igor Ying Zhang,  Xing Zhang,  Yu Zhang,  D. Zuev,  
 A. Aspuru-Guzik,  A. T. Bell,  N. A. Besley,  K. B. Bravaya,  B. R. Brooks,  
 D. Casanova,  Jeng-Da Chai,  S. Coriani,  C. J. Cramer,  
 A. E. DePrince, III,  R. A. DiStasio Jr.,  A. Dreuw,  B. D. Dunietz,  
 T. R. Furlani,  W. A. Goddard III,  S. Grimme,  S. Hammes-Schiffer,  
 T. Head-Gordon,  W. J. Hehre,  Chao-Ping Hsu,  T.-C. Jagau,  Yousung Jung,  
 A. Klamt,  Jing Kong,  D. S. Lambrecht,  WanZhen Liang,  N. J. Mayhall,  
 C. W. McCurdy,  J. B. Neaton,  C. Ochsenfeld,  J. A. Parkhill,  R. Peverati,  
 V. A. Rassolov,  Yihan Shao,  L. V. Slipchenko,  T. Stauch,  R. P. Steele,  
 J. E. Subotnik,  A. J. W. Thom,  A. Tkatchenko,  D. G. Truhlar,  
 T. Van Voorhis,  T. A. Wesolowski,  K. B. Whaley,  H. L. Woodcock III,  
 P. M. Zimmerman,  S. Faraji,  P. M. W. Gill,  M. Head-Gordon,  
 J. M. Herbert,  A. I. Krylov

 Contributors to earlier versions of Q-Chem not listed above: 
 R. D. Adamson,  B. Austin,  R. Baer,  J. Baker,  G. J. O. Beran,  
 K. Brandhorst,  S. T. Brown,  E. F. C. Byrd,  A. K. Chakraborty,  
 G. K. L. Chan,  Chun-Min Chang,  Yunqing Chen,  C.-L. Cheng,  
 Siu Hung Chien,  D. M. Chipman,  D. L. Crittenden,  H. Dachsel,  
 R. J. Doerksen,  A. D. Dutoi,  R. G. Edgar,  J. Fosso-Tande,  
 L. Fusti-Molnar,  D. Ghosh,  A. Ghysels,  A. Golubeva-Zadorozhnaya,  
 J. Gonthier,  M. S. Gordon,  S. R. Gwaltney,  G. Hawkins,  J. E. Herr,  
 A. Heyden,  S. Hirata,  E. G. Hohenstein,  G. Kedziora,  F. J. Keil,  
 C. Kelley,  Jihan Kim,  R. A. King,  R. Z. Khaliullin,  P. P. Korambath,  
 W. Kurlancheek,  A. Laurent,  A. M. Lee,  M. S. Lee,  S. V. Levchenko,  
 Ching Yeh Lin,  D. Liotard,  E. Livshits,  R. C. Lochan,  I. Lotan,  
 L. A. Martinez-Martinez,  P. E. Maslen,  N. Nair,  D. P. O'Neill,  
 D. Neuhauser,  E. Neuscamman,  C. M. Oana,  R. Olivares-Amaya,  R. Olson,  
 T. M. Perrine,  B. Peters,  P. A. Pieniazek,  A. Prociuk,  Y. M. Rhee,  
 J. Ritchie,  M. A. Rohrdanz,  E. Rosta,  N. J. Russ,  H. F. Schaefer III,  
 M. W. Schmidt,  N. E. Schultz,  S. Sharma,  N. Shenvi,  C. D. Sherrill,  
 A. C. Simmonett,  A. Sodt,  T. Stein,  D. Stuck,  K. S. Thanthiriwatte,  
 V. Vanovschi,  L. Vogt,  Tao Wang,  A. Warshel,  M. A. Watson,  
 C. F. Williams,  Q. Wu,  X. Xu,  Jun Yang,  W. Zhang,  Yan Zhao

 Please cite Q-Chem as follows:
 Y. Shao et al., Mol. Phys. 113, 184-215 (2015)
 DOI: 10.1080/00268976.2014.952696

 Q-Chem 5.4.0 for Intel X86 EM64T Linux

 Parts of Q-Chem use Armadillo 9.800.1 (Horizon Scraper).
 http://arma.sourceforge.net/

 Q-Chem begins on Tue Jan  9 02:02:48 2024  

 Host: 
0

     Scratch files written to ./qchem3364451//
 May1621 |scratch|qcdevops|jenkins|workspace|build_RNUM    
 Parallel job on  1  processors
 Processing $rem in /cm/shared/apps/spack/cpu/opt/spack/linux-centos8-zen2/gcc-10.2.0/qchem-5.4-akfmr7b3t57bfs6qan3padb2wnb2i7cl/config/preferences:
 Processing $rem in /home/rramji/.qchemrc:
 Symmetry turned off for PCM/SM12/SMD calculation
 Core orbitals will be frozen

 Checking the input file for inconsistencies... 	...done.

 Q-Chem warning in module forms1/BasisType.C, line 2236:

 You are not using the predefined 5D/6D in this basis set.


--------------------------------------------------------------
User input:
--------------------------------------------------------------
$molecule
0 1
C	0.306235	-8.517702	0.095966
C	-0.754415	-7.641575	-0.082807
S	1.833702	-7.638634	0.348635
C	-0.383675	-6.264785	-0.017401
H	-1.787757	-7.966081	-0.259008
C	1.020885	-6.072714	0.231913
C	1.579097	-4.787049	0.305044
C	-1.268082	-5.162801	-0.196549
C	-0.708796	-3.874817	-0.127606
C	0.696769	-3.683952	0.124792
O	-2.572378	-5.499772	-0.397867
O	2.889532	-4.459055	0.506103
C	3.718420	-5.329063	1.267335
H	4.635204	-4.755694	1.502804
H	4.010790	-6.238095	0.697471
H	3.226506	-5.637262	2.215194
C	-3.467415	-4.572261	-0.999238
H	-4.388648	-5.139743	-1.230649
H	-3.052323	-4.153131	-1.940905
H	-3.730819	-3.739531	-0.311543
C	1.064366	-2.306654	0.187323
S	-1.521154	-2.306501	-0.257128
C	0.000000	-1.435185	0.000000
H	2.095939	-1.978138	0.365903
H	0.309131	-9.614033	0.092855
C	0.000000	0.000000	0.000000
S	0.693394	0.581209	1.507541
C	1.897536	1.592607	0.718873
C	0.693330	0.580791	-1.067872
C	1.756758	1.476132	-0.686410
S	0.508573	0.422041	-2.805516
C	1.846879	1.552232	-3.054530
C	2.387897	2.009402	-1.862551
F	3.408741	2.872264	-1.819088
C	2.191300	1.838768	-4.456084
O	1.606694	1.337806	-5.406510
O	3.221062	2.712584	-4.569225
C	3.603677	3.026817	-5.916207
H	4.442623	3.739898	-5.833064
H	2.758956	3.483875	-6.470168
H	3.921969	2.114070	-6.459293
H	2.604650	2.187790	1.306486
$end

$rem
JOBTYPE		SP
EXCHANGE	HF
CORRELATION	pRIMP2
BASIS		cc-pvtz
METHOD		rimp2
AUX_BASIS	rimp2-cc-pvtz
SOLVENT_METHOD	PCM
PURECART	11111
SYMMETRY	false
MEM_TOTAL	110000
SCF_CONVERGENCE = 6
THRESH=10
GUI = 2
$end



$solvent
dielectric 4.90
$end
--------------------------------------------------------------
 ----------------------------------------------------------------
             Standard Nuclear Orientation (Angstroms)
    I     Atom           X                Y                Z
 ----------------------------------------------------------------
    1      C       0.3062350000    -8.5177020000     0.0959660000
    2      C      -0.7544150000    -7.6415750000    -0.0828070000
    3      S       1.8337020000    -7.6386340000     0.3486350000
    4      C      -0.3836750000    -6.2647850000    -0.0174010000
    5      H      -1.7877570000    -7.9660810000    -0.2590080000
    6      C       1.0208850000    -6.0727140000     0.2319130000
    7      C       1.5790970000    -4.7870490000     0.3050440000
    8      C      -1.2680820000    -5.1628010000    -0.1965490000
    9      C      -0.7087960000    -3.8748170000    -0.1276060000
   10      C       0.6967690000    -3.6839520000     0.1247920000
   11      O      -2.5723780000    -5.4997720000    -0.3978670000
   12      O       2.8895320000    -4.4590550000     0.5061030000
   13      C       3.7184200000    -5.3290630000     1.2673350000
   14      H       4.6352040000    -4.7556940000     1.5028040000
   15      H       4.0107900000    -6.2380950000     0.6974710000
   16      H       3.2265060000    -5.6372620000     2.2151940000
   17      C      -3.4674150000    -4.5722610000    -0.9992380000
   18      H      -4.3886480000    -5.1397430000    -1.2306490000
   19      H      -3.0523230000    -4.1531310000    -1.9409050000
   20      H      -3.7308190000    -3.7395310000    -0.3115430000
   21      C       1.0643660000    -2.3066540000     0.1873230000
   22      S      -1.5211540000    -2.3065010000    -0.2571280000
   23      C       0.0000000000    -1.4351850000     0.0000000000
   24      H       2.0959390000    -1.9781380000     0.3659030000
   25      H       0.3091310000    -9.6140330000     0.0928550000
   26      C       0.0000000000     0.0000000000     0.0000000000
   27      S       0.6933940000     0.5812090000     1.5075410000
   28      C       1.8975360000     1.5926070000     0.7188730000
   29      C       0.6933300000     0.5807910000    -1.0678720000
   30      C       1.7567580000     1.4761320000    -0.6864100000
   31      S       0.5085730000     0.4220410000    -2.8055160000
   32      C       1.8468790000     1.5522320000    -3.0545300000
   33      C       2.3878970000     2.0094020000    -1.8625510000
   34      F       3.4087410000     2.8722640000    -1.8190880000
   35      C       2.1913000000     1.8387680000    -4.4560840000
   36      O       1.6066940000     1.3378060000    -5.4065100000
   37      O       3.2210620000     2.7125840000    -4.5692250000
   38      C       3.6036770000     3.0268170000    -5.9162070000
   39      H       4.4426230000     3.7398980000    -5.8330640000
   40      H       2.7589560000     3.4838750000    -6.4701680000
   41      H       3.9219690000     2.1140700000    -6.4592930000
   42      H       2.6046500000     2.1877900000     1.3064860000
 ----------------------------------------------------------------
 Nuclear Repulsion Energy =        3321.35499808 hartrees
 There are      119 alpha and      119 beta electrons
 Requested basis set is cc-pVTZ
 There are 376 shells and 1068 basis functions

 Total QAlloc Memory Limit 110000 MB
 Mega-Array Size       188 MB
 MEM_STATIC part       192 MB
 Discretize the solute cavity surface with Lebedev spheres
	Using 110 Lebedev grid points for each H atom
	Using 194 Lebedev grid points for other atoms
	Atomic van der Waals radii will be scaled by 1.20
 Remove points where switching function is < 1.0e-08
 Keep 2906 surface tesserae and discard 4150 interior tesserae
 Molecular Surface Area = 441.334 Angst**2
 Requested basis set is rimp2-cc-pVTZ
 There are 833 shells and 2903 basis functions
 A cutoff of  1.0D-10 yielded  31603 shell pairs
 There are    242159 function pairs (    314320 Cartesian)
 Smallest overlap matrix eigenvalue = 2.19E-05

 Scale SEOQF with 1.000000e-01/1.000000e-02/1.000000e-02

 Standard Electronic Orientation quadrupole field applied
 Nucleus-field energy     =     0.0000000521 hartrees
 Guess from superposition of atomic densities
 Warning:  Energy on first SCF cycle will be non-variational
 SAD guess density has 238.000000 electrons

 -----------------------------------------------------------------------
  General SCF calculation program by
  Eric Jon Sundstrom, Paul Horn, Yuezhi Mao, Dmitri Zuev, Alec White,
  David Stuck, Shaama M.S., Shane Yost, Joonho Lee, David Small,
  Daniel Levine, Susi Lehtola, Hugh Burton, Evgeny Epifanovsky,
  Bang C. Huynh
 -----------------------------------------------------------------------
 Hartree-Fock
 using 64 threads for integral computing
 -------------------------------------------------------
 OpenMP Integral computing Module                
 Release: version 1.0, May 2013, Q-Chem Inc. Pittsburgh 
 -------------------------------------------------------
 A restricted SCF calculation will be
 performed using DIIS
 SCF converges when DIIS error is below 1.0e-06
 ---------------------------------------
  Cycle       Energy         DIIS error
 ---------------------------------------
    1   -2765.2688026021      1.75e-02  
    2   -2753.8365245893      1.56e-03  
    3   -2754.1751011563      8.62e-04  
    4   -2754.2567803966      2.57e-04  
    5   -2754.2685664846      6.97e-05  
    6   -2754.2696801745      2.44e-05  
    7   -2754.2699299466      1.17e-05  
    8   -2754.2700144168      4.76e-06  
    9   -2754.2700313537      1.98e-06  
   10   -2754.2700338991      1.04e-06  
   11   -2754.2700345300      3.99e-07  Convergence criterion met
 ---------------------------------------
 SCF time:   CPU 6494.39s  wall 265.00s 

************** Final PCM Free Energy Summary **************
 G_electrostatic  =      -0.01994996 hartree =     -12.51878689 kcal/mol
 G_cavitation     =       0.00000000 hartree =       0.00000000 kcal/mol
 G_dispersion     =       0.00000000 hartree =       0.00000000 kcal/mol
 G_repulsion      =       0.00000000 hartree =       0.00000000 kcal/mol
 --------------------------------------------------
 Non-electrostatic Free Energy =       0.00000000 hartree =       0.00000000 kcal/mol
 Total                         =      -0.01994996 hartree =     -12.51878689 kcal/mol
 --------------------------------------------------
 SCF Energy (H0 + V/2)                       =   -2754.27003453 
 Solute Internal Energy (H0)                 =   -2754.25008457 
 Total Free Energy (H0 + V/2 + non-elec)     =   -2754.27003453 hartree
                                             = -1728330.53235907 kcal/mol
***********************************************************

 SCF   energy in the final basis set =    -2754.2700345300
 Total energy in the final basis set =    -2754.2700345300


 --------------------------------------------------------------
  Generalized many-body perturbation theory program
  by Joonho Lee, Fazle Rob, Xintian Feng, Evgeny Epifanovsky

 No regularization used 
 (reg. param. = 0.0000e+00)
  (P|Q)^-1/2 Time:  CPU 7272.76 s  wall 120.48 s

 In RI-MP2 calculation: 
 # of frozen core orbitals: 45

 Components of the RIMP2 correlation energy:
        aaaa    correlation energy =        -0.6710341798 a.u.
        abab    correlation energy =        -3.7173673421 a.u.
        bbbb    correlation energy =        -0.6710341798 a.u.
        non-Brillouin singles      =        -0.0000000000 a.u.
        total same-spin energy     =        -1.3420683597 a.u.
        total opposite-spin energy =        -3.7173673421 a.u.

 Total  RIMP2   correlation energy =        -5.0594357017 a.u.
        RIMP2         total energy =     -2759.3294702317 a.u.

 RI-MP2 Energy Time:  CPU 12474.91 s  wall 206.95 s
 
 --------------------------------------------------------------
 
                    Orbital Energies (a.u.)
 --------------------------------------------------------------
 
 Alpha MOs
 -- Occupied --
-92.0135 -92.0050 -91.9842 -91.9822 -26.3451 -20.6148 -20.5907 -20.5893
-20.5610 -11.4095 -11.3852 -11.3270 -11.3167 -11.3156 -11.3137 -11.2969
-11.2914 -11.2889 -11.2857 -11.2855 -11.2852 -11.2817 -11.2806 -11.2771
-11.2744 -11.2579 -11.2550 -11.2484 -11.2477  -9.0125  -9.0047  -8.9842
 -8.9828  -6.6931  -6.6923  -6.6920  -6.6857  -6.6849  -6.6839  -6.6652
 -6.6646  -6.6637  -6.6637  -6.6630  -6.6622  -1.6621  -1.4673  -1.4146
 -1.4121  -1.3700  -1.2281  -1.1909  -1.1638  -1.1380  -1.0835  -1.0488
 -1.0439  -1.0245  -0.9979  -0.9865  -0.9632  -0.9581  -0.9486  -0.9396
 -0.8926  -0.8696  -0.8444  -0.8131  -0.7937  -0.7875  -0.7839  -0.7631
 -0.7554  -0.7312  -0.7268  -0.7115  -0.6994  -0.6854  -0.6821  -0.6801
 -0.6740  -0.6586  -0.6571  -0.6511  -0.6285  -0.6183  -0.6151  -0.6073
 -0.5996  -0.5887  -0.5735  -0.5687  -0.5658  -0.5634  -0.5531  -0.5490
 -0.5311  -0.5234  -0.5197  -0.5150  -0.5125  -0.5097  -0.5028  -0.4926
 -0.4880  -0.4829  -0.4744  -0.4731  -0.4679  -0.4618  -0.4584  -0.4031
 -0.3943  -0.3854  -0.3625  -0.3412  -0.3103  -0.3060  -0.2539
 -- Virtual --
  0.0275   0.0675   0.0837   0.1256   0.1365   0.1446   0.1509   0.1518
  0.1565   0.1572   0.1616   0.1773   0.1786   0.1840   0.1852   0.1932
  0.1953   0.2051   0.2129   0.2149   0.2202   0.2220   0.2249   0.2279
  0.2317   0.2395   0.2410   0.2479   0.2554   0.2628   0.2665   0.2774
  0.2842   0.2995   0.3100   0.3260   0.3321   0.3362   0.3401   0.3471
  0.3513   0.3535   0.3636   0.3693   0.3757   0.3811   0.3849   0.3873
  0.3884   0.3916   0.3970   0.4006   0.4086   0.4111   0.4195   0.4208
  0.4255   0.4296   0.4357   0.4427   0.4470   0.4508   0.4515   0.4571
  0.4643   0.4672   0.4691   0.4721   0.4781   0.4819   0.4845   0.4881
  0.4918   0.4977   0.5044   0.5081   0.5094   0.5181   0.5204   0.5224
  0.5253   0.5307   0.5365   0.5367   0.5410   0.5416   0.5439   0.5466
  0.5525   0.5540   0.5573   0.5598   0.5678   0.5713   0.5753   0.5783
  0.5818   0.5900   0.5941   0.5973   0.5983   0.6018   0.6098   0.6138
  0.6176   0.6181   0.6193   0.6207   0.6226   0.6287   0.6325   0.6382
  0.6393   0.6432   0.6481   0.6497   0.6521   0.6562   0.6622   0.6689
  0.6721   0.6750   0.6861   0.6887   0.6933   0.6960   0.7008   0.7040
  0.7110   0.7166   0.7183   0.7215   0.7296   0.7355   0.7436   0.7458
  0.7563   0.7592   0.7644   0.7681   0.7729   0.7801   0.7894   0.8035
  0.8064   0.8145   0.8181   0.8211   0.8248   0.8338   0.8370   0.8426
  0.8468   0.8504   0.8573   0.8636   0.8657   0.8720   0.8771   0.8834
  0.8896   0.8942   0.9050   0.9055   0.9098   0.9147   0.9156   0.9213
  0.9333   0.9392   0.9410   0.9496   0.9518   0.9547   0.9576   0.9675
  0.9736   0.9745   0.9782   0.9802   0.9858   0.9900   0.9986   1.0010
  1.0068   1.0124   1.0136   1.0197   1.0279   1.0310   1.0341   1.0398
  1.0436   1.0448   1.0539   1.0585   1.0624   1.0709   1.0772   1.0829
  1.0852   1.0868   1.0930   1.0989   1.1030   1.1049   1.1087   1.1135
  1.1172   1.1199   1.1245   1.1336   1.1421   1.1452   1.1521   1.1556
  1.1662   1.1679   1.1804   1.1815   1.1850   1.1875   1.1912   1.1932
  1.1951   1.2084   1.2120   1.2140   1.2178   1.2217   1.2257   1.2304
  1.2346   1.2399   1.2446   1.2518   1.2556   1.2641   1.2683   1.2746
  1.2769   1.2817   1.2827   1.2858   1.2987   1.3052   1.3088   1.3164
  1.3202   1.3295   1.3377   1.3425   1.3581   1.3618   1.3680   1.3725
  1.3809   1.3859   1.3932   1.4009   1.4049   1.4092   1.4134   1.4214
  1.4338   1.4422   1.4496   1.4632   1.4719   1.4787   1.4832   1.4897
  1.4995   1.5020   1.5023   1.5058   1.5105   1.5148   1.5204   1.5278
  1.5342   1.5380   1.5407   1.5420   1.5459   1.5506   1.5585   1.5685
  1.5737   1.5752   1.5848   1.5946   1.5975   1.6090   1.6225   1.6319
  1.6366   1.6480   1.6530   1.6596   1.6639   1.6682   1.6729   1.6776
  1.6847   1.6925   1.6992   1.6996   1.7090   1.7226   1.7327   1.7444
  1.7521   1.7694   1.7724   1.7831   1.7871   1.7961   1.8002   1.8153
  1.8167   1.8256   1.8360   1.8424   1.8546   1.8659   1.8712   1.8754
  1.8832   1.8934   1.9032   1.9058   1.9136   1.9198   1.9276   1.9328
  1.9399   1.9405   1.9571   1.9647   1.9690   1.9718   1.9757   1.9857
  1.9943   1.9982   2.0030   2.0063   2.0153   2.0359   2.0421   2.0634
  2.0748   2.0797   2.0900   2.0965   2.0994   2.1027   2.1230   2.1487
  2.1550   2.1585   2.1620   2.1710   2.1768   2.1793   2.1818   2.1920
  2.1932   2.1987   2.1996   2.2143   2.2202   2.2284   2.2352   2.2384
  2.2427   2.2538   2.2592   2.2668   2.2741   2.2763   2.2855   2.2948
  2.3039   2.3100   2.3200   2.3268   2.3337   2.3508   2.3533   2.3546
  2.3676   2.3714   2.3843   2.3893   2.3971   2.4082   2.4137   2.4269
  2.4320   2.4353   2.4467   2.4512   2.4559   2.4772   2.4813   2.4873
  2.4956   2.5007   2.5060   2.5170   2.5286   2.5395   2.5546   2.5573
  2.5633   2.5715   2.5741   2.5897   2.6026   2.6120   2.6193   2.6226
  2.6288   2.6316   2.6386   2.6429   2.6499   2.6530   2.6622   2.6643
  2.6696   2.6815   2.6892   2.6992   2.7020   2.7054   2.7093   2.7220
  2.7257   2.7298   2.7312   2.7409   2.7464   2.7523   2.7692   2.7748
  2.7850   2.7941   2.7950   2.7985   2.8066   2.8094   2.8157   2.8200
  2.8294   2.8367   2.8448   2.8523   2.8560   2.8587   2.8679   2.8748
  2.8771   2.8835   2.8901   2.8911   2.9022   2.9171   2.9236   2.9286
  2.9428   2.9471   2.9561   2.9588   2.9700   2.9731   2.9813   2.9885
  2.9993   3.0098   3.0172   3.0231   3.0313   3.0342   3.0352   3.0384
  3.0466   3.0606   3.0691   3.0706   3.0863   3.0896   3.0934   3.0975
  3.1009   3.1059   3.1120   3.1146   3.1181   3.1244   3.1291   3.1438
  3.1499   3.1517   3.1544   3.1595   3.1622   3.1691   3.1819   3.1847
  3.1888   3.1937   3.2061   3.2099   3.2139   3.2200   3.2227   3.2292
  3.2300   3.2406   3.2439   3.2476   3.2523   3.2582   3.2654   3.2708
  3.2742   3.2796   3.2836   3.2938   3.2969   3.2984   3.3031   3.3100
  3.3172   3.3228   3.3308   3.3317   3.3396   3.3435   3.3464   3.3524
  3.3570   3.3629   3.3641   3.3671   3.3679   3.3721   3.3785   3.3880
  3.3906   3.3931   3.3943   3.4004   3.4040   3.4076   3.4103   3.4134
  3.4248   3.4287   3.4343   3.4349   3.4473   3.4486   3.4509   3.4530
  3.4620   3.4671   3.4687   3.4733   3.4779   3.4827   3.4852   3.4919
  3.4993   3.5080   3.5138   3.5150   3.5264   3.5286   3.5341   3.5348
  3.5410   3.5450   3.5503   3.5563   3.5612   3.5687   3.5714   3.5771
  3.5826   3.5881   3.5940   3.6001   3.6042   3.6061   3.6098   3.6176
  3.6233   3.6245   3.6342   3.6385   3.6427   3.6532   3.6627   3.6638
  3.6721   3.6753   3.6817   3.6894   3.6906   3.6919   3.6972   3.7054
  3.7063   3.7106   3.7161   3.7220   3.7281   3.7371   3.7383   3.7496
  3.7537   3.7569   3.7587   3.7720   3.7784   3.7831   3.7891   3.7933
  3.7991   3.8001   3.8052   3.8079   3.8085   3.8192   3.8235   3.8307
  3.8404   3.8428   3.8525   3.8535   3.8592   3.8676   3.8706   3.8749
  3.8804   3.8844   3.8885   3.8953   3.8972   3.9045   3.9225   3.9256
  3.9296   3.9352   3.9427   3.9468   3.9570   3.9720   3.9790   3.9874
  3.9971   4.0041   4.0072   4.0146   4.0190   4.0213   4.0312   4.0393
  4.0508   4.0535   4.0613   4.0685   4.0707   4.0828   4.0880   4.0972
  4.1065   4.1206   4.1271   4.1370   4.1398   4.1442   4.1454   4.1492
  4.1576   4.1638   4.1666   4.1761   4.1809   4.1908   4.1972   4.2004
  4.2095   4.2132   4.2235   4.2316   4.2414   4.2466   4.2502   4.2689
  4.2787   4.2923   4.3006   4.3220   4.3347   4.3384   4.3420   4.3546
  4.3573   4.3616   4.3685   4.3734   4.3833   4.3849   4.3976   4.4055
  4.4123   4.4124   4.4174   4.4235   4.4276   4.4391   4.4398   4.4451
  4.4616   4.4720   4.4815   4.4882   4.4974   4.5046   4.5068   4.5215
  4.5405   4.5480   4.5523   4.5594   4.5665   4.5793   4.5830   4.5928
  4.5966   4.6085   4.6147   4.6244   4.6351   4.6401   4.6486   4.6547
  4.6640   4.6723   4.6750   4.6924   4.6952   4.7019   4.7369   4.7391
  4.7503   4.7550   4.7684   4.7783   4.7876   4.7893   4.8042   4.8181
  4.8293   4.8391   4.8498   4.8529   4.8625   4.8761   4.8934   4.9180
  4.9416   4.9459   4.9525   4.9573   4.9664   4.9733   4.9888   5.0020
  5.0087   5.0096   5.0144   5.0225   5.0259   5.0401   5.0640   5.0707
  5.0849   5.0939   5.1066   5.1243   5.1600   5.1622   5.1762   5.1966
  5.2067   5.2178   5.2384   5.2462   5.2479   5.2543   5.2573   5.2769
  5.2963   5.3065   5.3159   5.3266   5.3362   5.3489   5.3514   5.3660
  5.3909   5.3919   5.3998   5.4069   5.4224   5.4261   5.4385   5.4655
  5.4717   5.4849   5.5031   5.5094   5.5140   5.5179   5.5349   5.5565
  5.5748   5.5813   5.5902   5.6071   5.6218   5.6354   5.6447   5.6612
  5.7172   5.7226   5.7442   5.7610   5.8075   5.8165   5.8384   5.8565
  5.8733   5.8790   5.9038   5.9293   5.9422   5.9728   5.9917   6.0216
  6.0415   6.0723   6.0905   6.1309   6.1504   6.1725   6.1783   6.1823
  6.2313   6.2413   6.2468   6.2614   6.2703   6.2806   6.2968   6.3267
  6.4037   6.4431   6.4501   6.4762   6.5378   6.5497   6.5574   6.5975
  6.6554   6.6608   6.6713   6.6971   6.7444   6.8010   6.8292   6.8359
  6.8596   6.8956   6.9781   7.1240   7.1366   7.2038   7.2040   7.2173
  7.2354   7.3101   7.3213   7.3309   7.3615   7.3620   7.4047   7.4133
  7.4798   7.4840   7.4885   7.5173   7.5494   7.6144   7.6998   7.7713
  7.7890   7.7982   7.8874   7.9224   7.9421   7.9567   8.0588   8.1328
  8.3767   8.9203   9.0243   9.3613   9.4788   9.6614  10.1543  10.5483
 11.2302  11.4721  11.7726  12.0103  12.1282  12.1593  12.4221  12.5868
 12.7232  12.9506  12.9706  13.2665  13.3860  13.4197  13.7777  13.8482
 13.9047  14.0220  14.0350  14.4295  15.1971
 --------------------------------------------------------------
 
          Ground-State Mulliken Net Atomic Charges

     Atom                 Charge (a.u.)
  ----------------------------------------
      1 C                    -0.193659
      2 C                    -0.254065
      3 S                    -0.026875
      4 C                    -0.018632
      5 H                     0.195695
      6 C                    -0.027311
      7 C                     0.233596
      8 C                     0.242359
      9 C                    -0.046003
     10 C                    -0.017103
     11 O                    -0.333708
     12 O                    -0.341680
     13 C                    -0.085704
     14 H                     0.121337
     15 H                     0.090970
     16 H                     0.093132
     17 C                    -0.086169
     18 H                     0.124236
     19 H                     0.094408
     20 H                     0.089519
     21 C                    -0.243055
     22 S                    -0.016117
     23 C                    -0.022596
     24 H                     0.195873
     25 H                     0.205349
     26 C                    -0.120793
     27 S                     0.120746
     28 C                    -0.145586
     29 C                     0.040297
     30 C                    -0.101083
     31 S                     0.041936
     32 C                    -0.154852
     33 C                     0.393370
     34 F                    -0.204895
     35 C                     0.448267
     36 O                    -0.462596
     37 O                    -0.301402
     38 C                    -0.058271
     39 H                     0.121257
     40 H                     0.095097
     41 H                     0.095225
     42 H                     0.219485
  ----------------------------------------
  Sum of atomic charges =     0.000000

 -----------------------------------------------------------------
                    Cartesian Multipole Moments
 -----------------------------------------------------------------
    Charge (ESU x 10^10)
                -0.0000
    Dipole Moment (Debye)
         X       2.7325      Y       1.6394      Z       2.9569
       Tot       4.3471
    Quadrupole Moments (Debye-Ang)
        XX    -171.5351     XY       9.0937     YY    -175.1220
        XZ       3.6642     YZ      -5.8849     ZZ    -201.3035
    Octopole Moments (Debye-Ang^2)
       XXX    -446.7873    XXY     371.8320    XYY    -134.5740
       YYY    1055.6799    XXZ     136.1185    XYZ     -75.6146
       YYZ     149.5899    XZZ     -86.0867    YZZ     490.8385
       ZZZ     533.3305
    Hexadecapole Moments (Debye-Ang^3)
      XXXX   -4224.9297   XXXY    -271.3675   XXYY   -3795.4584
      XYYY    -324.7648   YYYY  -17790.3502   XXXZ     923.8563
      XXYZ     242.1460   XYYZ     437.7253   YYYZ    1062.8671
      XXZZ   -1288.1204   XYZZ     189.3333   YYZZ   -4202.1074
      XZZZ     531.2364   YZZZ     841.5631   ZZZZ   -5560.0709
 -----------------------------------------------------------------
 Total job time:  479.47s(wall), 19199.73s(cpu) 
 Tue Jan  9 02:10:48 2024

        *************************************************************
        *                                                           *
        *  Thank you very much for using Q-Chem.  Have a nice day.  *
        *                                                           *
        *************************************************************


0 sent ACK to 0 
now end server 0 ... 
cleanup process ... done
remove work dirs ./qchem3364451.0 -- ./qchem3364451.0
rm -rf ./qchem3364451.0
rm -rf ./qchem3364451
