You are running Q-Chem version: 5.4.0

#
# job setting
#
local host:  exp-3-46
current dir: /home/rramji/project-csd799/aromodel/ptb7fout-qchem/rotation-run
input file:  Dimethoxy_Benzodithiophene_Phi_60_Theta_130_Methylcarbonyl_3_Fluoro_Thienothiophene.qcin
output file: 
nprocs     : 1
nthreads   : 64
#
# qchem installation setting
#
QC:          /cm/shared/apps/spack/cpu/opt/spack/linux-centos8-zen2/gcc-10.2.0/qchem-5.4-akfmr7b3t57bfs6qan3padb2wnb2i7cl
QCAUX:       /cm/shared/apps/spack/cpu/opt/spack/linux-centos8-zen2/gcc-10.2.0/qchem-5.4-akfmr7b3t57bfs6qan3padb2wnb2i7cl/qcaux
QCPROG:      /cm/shared/apps/spack/cpu/opt/spack/linux-centos8-zen2/gcc-10.2.0/qchem-5.4-akfmr7b3t57bfs6qan3padb2wnb2i7cl/exe/qcprog.exe
QCPROG_S:    /cm/shared/apps/spack/cpu/opt/spack/linux-centos8-zen2/gcc-10.2.0/qchem-5.4-akfmr7b3t57bfs6qan3padb2wnb2i7cl/exe/qcprog.exe_s
PARALLEL:    -DPARALLEL
QCMPI:       mpich
#
# qchem directory setting
#
qcrun:       qchem1630877
QCSCRATCH:   .
QCLOCALSCR:  
QCTMPDIR:    .
QCFILEPREF:  ./qchem1630877
QCSAVEDIR:   
workdirs:    ./qchem1630877
workdir0:    ./qchem1630877
partmpdirs =  
#
# parallel setting
#
QCRSH:           ssh
QCMPI:           mpich
QCMPIRUN:        /cm/shared/apps/spack/cpu/opt/spack/linux-centos8-zen2/gcc-10.2.0/qchem-5.4-akfmr7b3t57bfs6qan3padb2wnb2i7cl/bin/mpi/mpirun_qchem
QCMACHINEFILE:   ./qchem1630877/hostfile
exp-3-46

#
# env setting
#
exported envs:   QC QCAUX QCSCRATCH QCRUNNAME QCFILEPREF QCPROG QCPROG_S GUIFILE

Running Job 1 of 1 Dimethoxy_Benzodithiophene_Phi_60_Theta_130_Methylcarbonyl_3_Fluoro_Thienothiophene.qcin
qchem Dimethoxy_Benzodithiophene_Phi_60_Theta_130_Methylcarbonyl_3_Fluoro_Thienothiophene.qcin_1630877.0 ./qchem1630877/ 1
/cm/shared/apps/spack/cpu/opt/spack/linux-centos8-zen2/gcc-10.2.0/qchem-5.4-akfmr7b3t57bfs6qan3padb2wnb2i7cl/bin/mpi/mpirun_qchem -machinefile ./qchem1630877/hostfile -np 1 /cm/shared/apps/spack/cpu/opt/spack/linux-centos8-zen2/gcc-10.2.0/qchem-5.4-akfmr7b3t57bfs6qan3padb2wnb2i7cl/exe/qcprog.exe Dimethoxy_Benzodithiophene_Phi_60_Theta_130_Methylcarbonyl_3_Fluoro_Thienothiophene.qcin_1630877.0 ./qchem1630877/

Process 0 of 1 is on exp-3-46 - thread support 0
initial socket setup ...start
initial socket setup ...done 
now start server 0 ... 
                  Welcome to Q-Chem
     A Quantum Leap Into The Future Of Chemistry


 Q-Chem 5.4, Q-Chem, Inc., Pleasanton, CA (2021)

 License issued to: University of California, San Diego (site)

 E. Epifanovsky,  A. T. B. Gilbert,  Xintian Feng,  Joonho Lee,  Yuezhi Mao,  
 N. Mardirossian,  P. Pokhilko,  A. White,  M. Wormit,  M. P. Coons,  
 A. L. Dempwolff,  Zhengting Gan,  D. Hait,  P. R. Horn,  L. D. Jacobson,  
 I. Kaliman,  J. Kussmann,  A. W. Lange,  Ka Un Lao,  D. S. Levine,  Jie Liu,  
 S. C. McKenzie,  A. F. Morrison,  K. Nanda,  F. Plasser,  D. R. Rehn,  
 M. L. Vidal,  Zhi-Qiang You,  Ying Zhu,  B. Alam,  B. Albrecht,  
 A. Aldossary,  E. Alguire,  J. H. Andersen,  D. Barton,  K. Begam,  A. Behn,  
 Y. A. Bernard,  E. J. Berquist,  H. Burton,  A. Carreras,  K. Carter-Fenk,  
 R. Chakraborty,  A. D. Chien,  K. D. Closser,  V. Cofer-Shabica,  
 S. Dasgupta,  Jia Deng,  M. de Wergifosse,  M. Diedenhofen,  Hainam Do,  
 S. Ehlert,  Po-Tung Fang,  S. Fatehi,  Qingguo Feng,  J. Gayvert,  
 Qinghui Ge,  G. Gidofalvi,  M. Goldey,  J. Gomes,  C. Gonzalez-Espinoza,  
 S. Gulania,  A. Gunina,  M. W. D. Hanson-Heine,  P. H. P. Harbach,  
 A. W. Hauser,  M. F. Herbst,  M. Hernandez Vera,  M. Hodecker,  
 Z. C. Holden,  S. Houck,  Xunkun Huang,  Kerwin Hui,  B. C. Huynh,  
 M. Ivanov,  Hyunjun Ji,  Hanjie Jiang,  B. Kaduk,  S. Kaehler,  
 K. Khistyaev,  Jaehoon Kim,  P. Klunzinger,  Z. Koczor-Benda,  
 Joong Hoon Koh,  D. Kosenkov,  L. Koulias,  T. Kowalczyk,  C. M. Krauter,  
 K. Kue,  A. Kunitsa,  T. Kus,  A. Landau,  K. V. Lawler,  D. Lefrancois,  
 S. Lehtola,  Rain Li,  Yi-Pei Li,  Jiashu Liang,  M. Liebenthal,  
 Hung-Hsuan Lin,  You-Sheng Lin,  Fenglai Liu,  Kuan-Yu Liu,  
 M. Loipersberger,  A. Luenser,  A. Manjanath,  P. Manohar,  E. Mansoor,  
 S. F. Manzer,  Shan-Ping Mao,  A. V. Marenich,  T. Markovich,  S. Mason,  
 S. A. Maurer,  P. F. McLaughlin,  M. F. S. J. Menger,  J.-M. Mewes,  
 S. A. Mewes,  P. Morgante,  J. W. Mullinax,  T. S. Nguyen-Beck,  
 K. J. Oosterbaan,  G. Paran,  Alexander C. Paul,  Suranjan K. Paul,  
 F. Pavosevic,  Zheng Pei,  S. Prager,  E. I. Proynov,  E. Ramos,  B. Rana,  
 A. E. Rask,  A. Rettig,  R. M. Richard,  F. Rob,  E. Rossomme,  T. Scheele,  
 M. Scheurer,  M. Schneider,  N. Sergueev,  S. M. Sharada,  W. Skomorowski,  
 D. W. Small,  C. J. Stein,  Yu-Chuan Su,  E. J. Sundstrom,  Zhen Tao,  
 J. Thirman,  T. Tsuchimochi,  N. M. Tubman,  S. P. Veccham,  O. Vydrov,  
 J. Wenzel,  J. Witte,  A. Yamada,  Kun Yao,  S. Yeganeh,  S. R. Yost,  
 A. Zech,  Igor Ying Zhang,  Xing Zhang,  Yu Zhang,  D. Zuev,  
 A. Aspuru-Guzik,  A. T. Bell,  N. A. Besley,  K. B. Bravaya,  B. R. Brooks,  
 D. Casanova,  Jeng-Da Chai,  S. Coriani,  C. J. Cramer,  
 A. E. DePrince, III,  R. A. DiStasio Jr.,  A. Dreuw,  B. D. Dunietz,  
 T. R. Furlani,  W. A. Goddard III,  S. Grimme,  S. Hammes-Schiffer,  
 T. Head-Gordon,  W. J. Hehre,  Chao-Ping Hsu,  T.-C. Jagau,  Yousung Jung,  
 A. Klamt,  Jing Kong,  D. S. Lambrecht,  WanZhen Liang,  N. J. Mayhall,  
 C. W. McCurdy,  J. B. Neaton,  C. Ochsenfeld,  J. A. Parkhill,  R. Peverati,  
 V. A. Rassolov,  Yihan Shao,  L. V. Slipchenko,  T. Stauch,  R. P. Steele,  
 J. E. Subotnik,  A. J. W. Thom,  A. Tkatchenko,  D. G. Truhlar,  
 T. Van Voorhis,  T. A. Wesolowski,  K. B. Whaley,  H. L. Woodcock III,  
 P. M. Zimmerman,  S. Faraji,  P. M. W. Gill,  M. Head-Gordon,  
 J. M. Herbert,  A. I. Krylov

 Contributors to earlier versions of Q-Chem not listed above: 
 R. D. Adamson,  B. Austin,  R. Baer,  J. Baker,  G. J. O. Beran,  
 K. Brandhorst,  S. T. Brown,  E. F. C. Byrd,  A. K. Chakraborty,  
 G. K. L. Chan,  Chun-Min Chang,  Yunqing Chen,  C.-L. Cheng,  
 Siu Hung Chien,  D. M. Chipman,  D. L. Crittenden,  H. Dachsel,  
 R. J. Doerksen,  A. D. Dutoi,  R. G. Edgar,  J. Fosso-Tande,  
 L. Fusti-Molnar,  D. Ghosh,  A. Ghysels,  A. Golubeva-Zadorozhnaya,  
 J. Gonthier,  M. S. Gordon,  S. R. Gwaltney,  G. Hawkins,  J. E. Herr,  
 A. Heyden,  S. Hirata,  E. G. Hohenstein,  G. Kedziora,  F. J. Keil,  
 C. Kelley,  Jihan Kim,  R. A. King,  R. Z. Khaliullin,  P. P. Korambath,  
 W. Kurlancheek,  A. Laurent,  A. M. Lee,  M. S. Lee,  S. V. Levchenko,  
 Ching Yeh Lin,  D. Liotard,  E. Livshits,  R. C. Lochan,  I. Lotan,  
 L. A. Martinez-Martinez,  P. E. Maslen,  N. Nair,  D. P. O'Neill,  
 D. Neuhauser,  E. Neuscamman,  C. M. Oana,  R. Olivares-Amaya,  R. Olson,  
 T. M. Perrine,  B. Peters,  P. A. Pieniazek,  A. Prociuk,  Y. M. Rhee,  
 J. Ritchie,  M. A. Rohrdanz,  E. Rosta,  N. J. Russ,  H. F. Schaefer III,  
 M. W. Schmidt,  N. E. Schultz,  S. Sharma,  N. Shenvi,  C. D. Sherrill,  
 A. C. Simmonett,  A. Sodt,  T. Stein,  D. Stuck,  K. S. Thanthiriwatte,  
 V. Vanovschi,  L. Vogt,  Tao Wang,  A. Warshel,  M. A. Watson,  
 C. F. Williams,  Q. Wu,  X. Xu,  Jun Yang,  W. Zhang,  Yan Zhao

 Please cite Q-Chem as follows:
 Y. Shao et al., Mol. Phys. 113, 184-215 (2015)
 DOI: 10.1080/00268976.2014.952696

 Q-Chem 5.4.0 for Intel X86 EM64T Linux

 Parts of Q-Chem use Armadillo 9.800.1 (Horizon Scraper).
 http://arma.sourceforge.net/

 Q-Chem begins on Mon Jan  8 19:54:05 2024  

 Host: 
0

     Scratch files written to ./qchem1630877//
 May1621 |scratch|qcdevops|jenkins|workspace|build_RNUM    
 Parallel job on  1  processors
 Processing $rem in /cm/shared/apps/spack/cpu/opt/spack/linux-centos8-zen2/gcc-10.2.0/qchem-5.4-akfmr7b3t57bfs6qan3padb2wnb2i7cl/config/preferences:
 Processing $rem in /home/rramji/.qchemrc:
 Symmetry turned off for PCM/SM12/SMD calculation
 Core orbitals will be frozen

 Checking the input file for inconsistencies... 	...done.

 Q-Chem warning in module forms1/BasisType.C, line 2236:

 You are not using the predefined 5D/6D in this basis set.


--------------------------------------------------------------
User input:
--------------------------------------------------------------
$molecule
0 1
C	-0.217225	-8.517702	-0.236226
C	0.611939	-7.641575	0.448921
S	-1.413715	-7.638634	-1.218777
C	0.323572	-6.264785	0.206907
H	1.418739	-7.966081	1.118185
C	-0.768156	-6.072714	-0.711285
C	-1.215016	-4.787049	-1.053725
C	0.999917	-5.162801	0.804258
C	0.550033	-3.874817	0.464908
C	-0.541024	-3.683952	-0.456457
O	2.028811	-5.499772	1.630752
O	-2.249357	-4.459055	-1.883064
C	-2.586579	-5.329063	-2.956754
H	-3.262802	-4.755694	-3.619069
H	-3.124711	-6.238095	-2.609423
H	-1.686639	-5.637262	-3.531667
C	2.503251	-4.572261	2.599073
H	3.185356	-5.139743	3.260097
H	1.672937	-4.153131	3.207034
H	3.075213	-3.739531	2.135214
C	-0.828107	-2.306654	-0.694410
S	1.188794	-2.306501	0.983256
C	-0.000000	-1.435185	-0.000000
H	-1.632185	-1.978138	-1.364851
H	-0.221288	-9.614033	-0.234980
C	0.000000	0.000000	0.000000
S	0.783786	0.451972	1.507541
C	2.145261	1.238908	0.718873
C	0.783650	0.451572	-1.067872
C	1.986396	1.148648	-0.686410
S	0.574133	0.327317	-2.805516
C	2.088363	1.207943	-3.054530
C	2.700548	1.564221	-1.862551
F	3.855718	2.236706	-1.819088
C	2.477307	1.430318	-4.456084
O	1.814592	1.038482	-5.406510
O	3.643162	2.112042	-4.569225
C	4.074530	2.355061	-5.916207
H	5.024556	2.911627	-5.833064
H	3.322010	2.951860	-6.470168
H	4.229490	1.400910	-6.459293
H	2.944986	1.702260	1.306486
$end

$rem
JOBTYPE		SP
EXCHANGE	HF
CORRELATION	pRIMP2
BASIS		cc-pvtz
METHOD		rimp2
AUX_BASIS	rimp2-cc-pvtz
SOLVENT_METHOD	PCM
PURECART	11111
SYMMETRY	false
MEM_TOTAL	110000
SCF_CONVERGENCE = 6
THRESH=10
GUI = 2
$end



$solvent
dielectric 4.90
$end
--------------------------------------------------------------
 ----------------------------------------------------------------
             Standard Nuclear Orientation (Angstroms)
    I     Atom           X                Y                Z
 ----------------------------------------------------------------
    1      C      -0.2172250000    -8.5177020000    -0.2362260000
    2      C       0.6119390000    -7.6415750000     0.4489210000
    3      S      -1.4137150000    -7.6386340000    -1.2187770000
    4      C       0.3235720000    -6.2647850000     0.2069070000
    5      H       1.4187390000    -7.9660810000     1.1181850000
    6      C      -0.7681560000    -6.0727140000    -0.7112850000
    7      C      -1.2150160000    -4.7870490000    -1.0537250000
    8      C       0.9999170000    -5.1628010000     0.8042580000
    9      C       0.5500330000    -3.8748170000     0.4649080000
   10      C      -0.5410240000    -3.6839520000    -0.4564570000
   11      O       2.0288110000    -5.4997720000     1.6307520000
   12      O      -2.2493570000    -4.4590550000    -1.8830640000
   13      C      -2.5865790000    -5.3290630000    -2.9567540000
   14      H      -3.2628020000    -4.7556940000    -3.6190690000
   15      H      -3.1247110000    -6.2380950000    -2.6094230000
   16      H      -1.6866390000    -5.6372620000    -3.5316670000
   17      C       2.5032510000    -4.5722610000     2.5990730000
   18      H       3.1853560000    -5.1397430000     3.2600970000
   19      H       1.6729370000    -4.1531310000     3.2070340000
   20      H       3.0752130000    -3.7395310000     2.1352140000
   21      C      -0.8281070000    -2.3066540000    -0.6944100000
   22      S       1.1887940000    -2.3065010000     0.9832560000
   23      C       0.0000000000    -1.4351850000     0.0000000000
   24      H      -1.6321850000    -1.9781380000    -1.3648510000
   25      H      -0.2212880000    -9.6140330000    -0.2349800000
   26      C       0.0000000000     0.0000000000     0.0000000000
   27      S       0.7837860000     0.4519720000     1.5075410000
   28      C       2.1452610000     1.2389080000     0.7188730000
   29      C       0.7836500000     0.4515720000    -1.0678720000
   30      C       1.9863960000     1.1486480000    -0.6864100000
   31      S       0.5741330000     0.3273170000    -2.8055160000
   32      C       2.0883630000     1.2079430000    -3.0545300000
   33      C       2.7005480000     1.5642210000    -1.8625510000
   34      F       3.8557180000     2.2367060000    -1.8190880000
   35      C       2.4773070000     1.4303180000    -4.4560840000
   36      O       1.8145920000     1.0384820000    -5.4065100000
   37      O       3.6431620000     2.1120420000    -4.5692250000
   38      C       4.0745300000     2.3550610000    -5.9162070000
   39      H       5.0245560000     2.9116270000    -5.8330640000
   40      H       3.3220100000     2.9518600000    -6.4701680000
   41      H       4.2294900000     1.4009100000    -6.4592930000
   42      H       2.9449860000     1.7022600000     1.3064860000
 ----------------------------------------------------------------
 Nuclear Repulsion Energy =        3359.57510012 hartrees
 There are      119 alpha and      119 beta electrons
 Requested basis set is cc-pVTZ
 There are 376 shells and 1068 basis functions

 Total QAlloc Memory Limit 110000 MB
 Mega-Array Size       188 MB
 MEM_STATIC part       192 MB
 Discretize the solute cavity surface with Lebedev spheres
	Using 110 Lebedev grid points for each H atom
	Using 194 Lebedev grid points for other atoms
	Atomic van der Waals radii will be scaled by 1.20
 Remove points where switching function is < 1.0e-08
 Keep 2876 surface tesserae and discard 4180 interior tesserae
 Molecular Surface Area = 435.269 Angst**2
 Requested basis set is rimp2-cc-pVTZ
 There are 833 shells and 2903 basis functions
 A cutoff of  1.0D-10 yielded  31953 shell pairs
 There are    244407 function pairs (    316982 Cartesian)
 Smallest overlap matrix eigenvalue = 2.16E-05

 Scale SEOQF with 1.000000e-01/1.000000e-02/1.000000e-02

 Standard Electronic Orientation quadrupole field applied
 Nucleus-field energy     =     0.0000000453 hartrees
 Guess from superposition of atomic densities
 Warning:  Energy on first SCF cycle will be non-variational
 SAD guess density has 238.000000 electrons

 -----------------------------------------------------------------------
  General SCF calculation program by
  Eric Jon Sundstrom, Paul Horn, Yuezhi Mao, Dmitri Zuev, Alec White,
  David Stuck, Shaama M.S., Shane Yost, Joonho Lee, David Small,
  Daniel Levine, Susi Lehtola, Hugh Burton, Evgeny Epifanovsky,
  Bang C. Huynh
 -----------------------------------------------------------------------
 Hartree-Fock
 using 64 threads for integral computing
 -------------------------------------------------------
 OpenMP Integral computing Module                
 Release: version 1.0, May 2013, Q-Chem Inc. Pittsburgh 
 -------------------------------------------------------
 A restricted SCF calculation will be
 performed using DIIS
 SCF converges when DIIS error is below 1.0e-06
 ---------------------------------------
  Cycle       Energy         DIIS error
 ---------------------------------------
    1   -2765.3625964781      1.76e-02  
    2   -2753.8046179040      1.57e-03  
    3   -2754.1470014089      8.76e-04  
    4   -2754.2321036205      2.56e-04  
    5   -2754.2440059640      6.97e-05  
    6   -2754.2451126009      2.42e-05  
    7   -2754.2453587636      1.16e-05  
    8   -2754.2454414464      4.47e-06  
    9   -2754.2454584328      1.78e-06  
   10   -2754.2454607926      7.88e-07  Convergence criterion met
 ---------------------------------------
 SCF time:   CPU 6700.81s  wall 245.00s 

************** Final PCM Free Energy Summary **************
 G_electrostatic  =      -0.02116994 hartree =     -13.28433719 kcal/mol
 G_cavitation     =       0.00000000 hartree =       0.00000000 kcal/mol
 G_dispersion     =       0.00000000 hartree =       0.00000000 kcal/mol
 G_repulsion      =       0.00000000 hartree =       0.00000000 kcal/mol
 --------------------------------------------------
 Non-electrostatic Free Energy =       0.00000000 hartree =       0.00000000 kcal/mol
 Total                         =      -0.02116994 hartree =     -13.28433719 kcal/mol
 --------------------------------------------------
 SCF Energy (H0 + V/2)                       =   -2754.24546079 
 Solute Internal Energy (H0)                 =   -2754.22429085 
 Total Free Energy (H0 + V/2 + non-elec)     =   -2754.24546079 hartree
                                             = -1728315.11210611 kcal/mol
***********************************************************

 SCF   energy in the final basis set =    -2754.2454607926
 Total energy in the final basis set =    -2754.2454607926


 --------------------------------------------------------------
  Generalized many-body perturbation theory program
  by Joonho Lee, Fazle Rob, Xintian Feng, Evgeny Epifanovsky

 No regularization used 
 (reg. param. = 0.0000e+00)
  (P|Q)^-1/2 Time:  CPU 165.55 s  wall 3.36 s

 In RI-MP2 calculation: 
 # of frozen core orbitals: 45

 Components of the RIMP2 correlation energy:
        aaaa    correlation energy =        -0.6727443283 a.u.
        abab    correlation energy =        -3.7202776795 a.u.
        bbbb    correlation energy =        -0.6727443283 a.u.
        non-Brillouin singles      =        -0.0000000000 a.u.
        total same-spin energy     =        -1.3454886565 a.u.
        total opposite-spin energy =        -3.7202776795 a.u.

 Total  RIMP2   correlation energy =        -5.0657663360 a.u.
        RIMP2         total energy =     -2759.3112271286 a.u.

 RI-MP2 Energy Time:  CPU 2825.22 s  wall 47.40 s
 
 --------------------------------------------------------------
 
                    Orbital Energies (a.u.)
 --------------------------------------------------------------
 
 Alpha MOs
 -- Occupied --
-92.0143 -92.0107 -91.9846 -91.9822 -26.3469 -20.6158 -20.5905 -20.5858
-20.5623 -11.4110 -11.3879 -11.3372 -11.3251 -11.3158 -11.3082 -11.2991
-11.2934 -11.2896 -11.2895 -11.2864 -11.2829 -11.2799 -11.2755 -11.2740
-11.2716 -11.2553 -11.2511 -11.2469 -11.2344  -9.0143  -9.0102  -8.9854
 -8.9822  -6.6949  -6.6939  -6.6938  -6.6910  -6.6903  -6.6893  -6.6663
 -6.6654  -6.6645  -6.6632  -6.6626  -6.6617  -1.6639  -1.4684  -1.4144
 -1.4087  -1.3712  -1.2363  -1.1890  -1.1654  -1.1400  -1.0843  -1.0468
 -1.0461  -1.0282  -0.9966  -0.9868  -0.9663  -0.9577  -0.9480  -0.9381
 -0.8927  -0.8727  -0.8440  -0.8130  -0.7973  -0.7840  -0.7830  -0.7618
 -0.7562  -0.7294  -0.7286  -0.7142  -0.6989  -0.6867  -0.6835  -0.6776
 -0.6750  -0.6609  -0.6566  -0.6491  -0.6288  -0.6166  -0.6147  -0.6082
 -0.5998  -0.5918  -0.5774  -0.5705  -0.5632  -0.5624  -0.5521  -0.5337
 -0.5328  -0.5305  -0.5196  -0.5175  -0.5120  -0.5113  -0.5022  -0.4918
 -0.4876  -0.4844  -0.4766  -0.4742  -0.4717  -0.4589  -0.4534  -0.4145
 -0.3961  -0.3794  -0.3549  -0.3486  -0.3201  -0.2964  -0.2487
 -- Virtual --
  0.0189   0.0742   0.0761   0.1277   0.1388   0.1413   0.1508   0.1529
  0.1564   0.1581   0.1643   0.1713   0.1798   0.1850   0.1882   0.1909
  0.2034   0.2061   0.2120   0.2143   0.2207   0.2245   0.2250   0.2282
  0.2310   0.2348   0.2450   0.2488   0.2568   0.2605   0.2704   0.2772
  0.2947   0.2996   0.3048   0.3261   0.3345   0.3391   0.3399   0.3441
  0.3525   0.3555   0.3633   0.3683   0.3733   0.3835   0.3847   0.3866
  0.3894   0.3902   0.3953   0.4041   0.4099   0.4116   0.4127   0.4218
  0.4267   0.4301   0.4363   0.4409   0.4451   0.4483   0.4518   0.4556
  0.4635   0.4673   0.4715   0.4756   0.4820   0.4844   0.4867   0.4904
  0.4926   0.4979   0.5026   0.5058   0.5122   0.5163   0.5208   0.5245
  0.5283   0.5318   0.5359   0.5385   0.5399   0.5423   0.5448   0.5460
  0.5526   0.5580   0.5600   0.5638   0.5649   0.5697   0.5777   0.5819
  0.5881   0.5936   0.5976   0.6005   0.6047   0.6074   0.6109   0.6112
  0.6141   0.6190   0.6193   0.6221   0.6274   0.6304   0.6353   0.6370
  0.6432   0.6442   0.6464   0.6532   0.6557   0.6620   0.6632   0.6695
  0.6780   0.6809   0.6847   0.6860   0.6903   0.6975   0.7016   0.7110
  0.7125   0.7171   0.7211   0.7253   0.7308   0.7411   0.7453   0.7534
  0.7561   0.7625   0.7674   0.7693   0.7773   0.7877   0.7938   0.8016
  0.8069   0.8094   0.8137   0.8194   0.8243   0.8311   0.8343   0.8398
  0.8475   0.8536   0.8572   0.8604   0.8649   0.8688   0.8742   0.8799
  0.8895   0.8949   0.9035   0.9069   0.9129   0.9228   0.9245   0.9263
  0.9355   0.9380   0.9449   0.9486   0.9524   0.9566   0.9589   0.9704
  0.9715   0.9784   0.9807   0.9844   0.9883   0.9962   1.0041   1.0077
  1.0123   1.0184   1.0208   1.0253   1.0299   1.0337   1.0374   1.0421
  1.0436   1.0532   1.0611   1.0624   1.0669   1.0767   1.0780   1.0835
  1.0876   1.0940   1.1004   1.1026   1.1051   1.1066   1.1120   1.1155
  1.1169   1.1267   1.1289   1.1349   1.1386   1.1458   1.1518   1.1605
  1.1613   1.1686   1.1717   1.1803   1.1833   1.1893   1.1934   1.1950
  1.2002   1.2083   1.2104   1.2147   1.2193   1.2241   1.2276   1.2350
  1.2381   1.2454   1.2485   1.2515   1.2628   1.2655   1.2727   1.2759
  1.2788   1.2812   1.2877   1.2901   1.2971   1.3059   1.3133   1.3197
  1.3249   1.3343   1.3354   1.3419   1.3543   1.3559   1.3687   1.3743
  1.3796   1.3872   1.3907   1.3956   1.4014   1.4080   1.4171   1.4303
  1.4350   1.4373   1.4414   1.4489   1.4685   1.4701   1.4860   1.4900
  1.4976   1.4998   1.5023   1.5107   1.5126   1.5137   1.5285   1.5321
  1.5351   1.5373   1.5389   1.5436   1.5465   1.5529   1.5569   1.5719
  1.5735   1.5814   1.5874   1.5968   1.5992   1.6016   1.6218   1.6351
  1.6414   1.6477   1.6561   1.6571   1.6657   1.6700   1.6791   1.6841
  1.6935   1.6958   1.7024   1.7103   1.7129   1.7177   1.7383   1.7446
  1.7523   1.7630   1.7644   1.7750   1.7931   1.7972   1.8023   1.8159
  1.8188   1.8311   1.8342   1.8479   1.8530   1.8642   1.8723   1.8769
  1.8818   1.8885   1.8957   1.9000   1.9147   1.9204   1.9295   1.9312
  1.9403   1.9461   1.9499   1.9619   1.9689   1.9743   1.9778   1.9843
  1.9927   2.0012   2.0098   2.0115   2.0258   2.0389   2.0500   2.0590
  2.0695   2.0820   2.0857   2.0911   2.1148   2.1204   2.1278   2.1381
  2.1510   2.1576   2.1619   2.1709   2.1753   2.1778   2.1821   2.1906
  2.1979   2.2044   2.2174   2.2242   2.2298   2.2346   2.2365   2.2458
  2.2502   2.2528   2.2654   2.2683   2.2721   2.2819   2.2905   2.2948
  2.2997   2.3109   2.3207   2.3264   2.3355   2.3440   2.3552   2.3639
  2.3694   2.3756   2.3827   2.3897   2.4012   2.4078   2.4256   2.4284
  2.4367   2.4386   2.4433   2.4567   2.4691   2.4787   2.4821   2.4850
  2.5007   2.5019   2.5151   2.5269   2.5377   2.5426   2.5507   2.5597
  2.5684   2.5759   2.5803   2.5873   2.6019   2.6179   2.6206   2.6266
  2.6310   2.6347   2.6388   2.6410   2.6506   2.6580   2.6621   2.6658
  2.6724   2.6775   2.6932   2.6974   2.7040   2.7054   2.7081   2.7195
  2.7251   2.7280   2.7380   2.7485   2.7538   2.7605   2.7651   2.7725
  2.7805   2.7839   2.7916   2.8019   2.8047   2.8084   2.8105   2.8149
  2.8309   2.8408   2.8465   2.8472   2.8526   2.8581   2.8759   2.8766
  2.8785   2.8810   2.8903   2.8985   2.9050   2.9157   2.9235   2.9382
  2.9461   2.9516   2.9566   2.9657   2.9702   2.9798   2.9847   2.9895
  3.0114   3.0185   3.0227   3.0232   3.0311   3.0368   3.0404   3.0453
  3.0481   3.0604   3.0648   3.0687   3.0756   3.0887   3.0971   3.0986
  3.1021   3.1081   3.1176   3.1181   3.1207   3.1263   3.1406   3.1460
  3.1536   3.1545   3.1574   3.1644   3.1712   3.1779   3.1829   3.1871
  3.1909   3.2015   3.2077   3.2124   3.2155   3.2193   3.2248   3.2286
  3.2364   3.2390   3.2513   3.2529   3.2538   3.2601   3.2661   3.2708
  3.2758   3.2777   3.2828   3.2932   3.2962   3.3014   3.3031   3.3114
  3.3161   3.3194   3.3231   3.3319   3.3422   3.3453   3.3477   3.3525
  3.3562   3.3603   3.3620   3.3645   3.3698   3.3731   3.3794   3.3810
  3.3885   3.3943   3.3958   3.3990   3.4017   3.4061   3.4133   3.4201
  3.4237   3.4283   3.4305   3.4325   3.4472   3.4505   3.4515   3.4595
  3.4634   3.4648   3.4681   3.4727   3.4776   3.4802   3.4825   3.4939
  3.5008   3.5111   3.5147   3.5230   3.5308   3.5320   3.5346   3.5404
  3.5445   3.5471   3.5499   3.5583   3.5653   3.5748   3.5786   3.5894
  3.5912   3.5955   3.5998   3.6009   3.6043   3.6107   3.6148   3.6231
  3.6298   3.6338   3.6380   3.6405   3.6527   3.6559   3.6620   3.6631
  3.6721   3.6806   3.6848   3.6877   3.6897   3.6970   3.7012   3.7037
  3.7054   3.7104   3.7182   3.7251   3.7319   3.7383   3.7460   3.7550
  3.7554   3.7637   3.7650   3.7697   3.7763   3.7846   3.7906   3.7940
  3.7990   3.8010   3.8045   3.8078   3.8139   3.8166   3.8212   3.8291
  3.8351   3.8442   3.8520   3.8574   3.8633   3.8682   3.8698   3.8761
  3.8792   3.8879   3.8947   3.8977   3.9097   3.9128   3.9225   3.9284
  3.9338   3.9352   3.9411   3.9459   3.9524   3.9642   3.9774   3.9886
  4.0013   4.0064   4.0116   4.0192   4.0216   4.0263   4.0398   4.0496
  4.0549   4.0575   4.0666   4.0699   4.0762   4.0819   4.0921   4.0976
  4.1043   4.1209   4.1271   4.1327   4.1438   4.1477   4.1505   4.1553
  4.1621   4.1666   4.1696   4.1738   4.1848   4.1909   4.1953   4.2006
  4.2083   4.2152   4.2268   4.2295   4.2491   4.2520   4.2664   4.2704
  4.2832   4.3027   4.3066   4.3220   4.3298   4.3412   4.3471   4.3548
  4.3574   4.3584   4.3681   4.3729   4.3858   4.3880   4.3966   4.4060
  4.4111   4.4143   4.4153   4.4268   4.4291   4.4340   4.4406   4.4516
  4.4535   4.4754   4.4856   4.4936   4.5052   4.5075   4.5229   4.5246
  4.5340   4.5427   4.5522   4.5644   4.5692   4.5760   4.5855   4.5883
  4.6085   4.6129   4.6212   4.6298   4.6349   4.6431   4.6502   4.6506
  4.6620   4.6729   4.6752   4.6858   4.6887   4.7038   4.7305   4.7446
  4.7461   4.7529   4.7672   4.7692   4.7817   4.7852   4.7934   4.8169
  4.8324   4.8367   4.8431   4.8583   4.8635   4.8787   4.8987   4.9334
  4.9368   4.9446   4.9538   4.9661   4.9677   4.9719   4.9919   4.9979
  5.0083   5.0116   5.0141   5.0218   5.0442   5.0511   5.0709   5.0784
  5.0878   5.0940   5.1144   5.1306   5.1615   5.1717   5.1786   5.1922
  5.2068   5.2153   5.2283   5.2395   5.2489   5.2557   5.2572   5.2692
  5.2974   5.3042   5.3158   5.3243   5.3335   5.3500   5.3541   5.3665
  5.3819   5.3975   5.4007   5.4036   5.4198   5.4255   5.4298   5.4671
  5.4695   5.4844   5.5013   5.5082   5.5112   5.5167   5.5335   5.5592
  5.5780   5.5817   5.5869   5.6080   5.6206   5.6257   5.6391   5.6591
  5.7167   5.7214   5.7450   5.7587   5.8065   5.8166   5.8371   5.8560
  5.8763   5.8855   5.9026   5.9281   5.9638   5.9863   6.0278   6.0391
  6.0578   6.0749   6.1174   6.1426   6.1497   6.1723   6.1797   6.1820
  6.2291   6.2434   6.2462   6.2605   6.2734   6.2815   6.3072   6.3304
  6.4130   6.4470   6.4490   6.4779   6.5359   6.5511   6.5608   6.5951
  6.6592   6.6601   6.6701   6.6994   6.7432   6.8030   6.8281   6.8392
  6.8584   6.8967   6.9770   7.1258   7.1391   7.2029   7.2031   7.2182
  7.2384   7.3089   7.3245   7.3328   7.3599   7.3607   7.4034   7.4123
  7.4815   7.4823   7.4910   7.5156   7.5488   7.6137   7.7109   7.7695
  7.7875   7.8000   7.8853   7.9227   7.9455   7.9568   8.0776   8.1317
  8.3501   8.9187   9.0247   9.3596   9.4785   9.6606  10.1385  10.5610
 11.2460  11.4686  11.7785  12.0704  12.1355  12.1956  12.4442  12.5806
 12.7061  12.9522  13.0118  13.2791  13.3844  13.5549  13.8139  13.8495
 13.9072  14.0200  14.0519  14.4477  15.2130
 --------------------------------------------------------------
 
          Ground-State Mulliken Net Atomic Charges

     Atom                 Charge (a.u.)
  ----------------------------------------
      1 C                    -0.200179
      2 C                    -0.253101
      3 S                    -0.029262
      4 C                    -0.026707
      5 H                     0.194667
      6 C                    -0.024268
      7 C                     0.227267
      8 C                     0.242517
      9 C                    -0.057017
     10 C                    -0.003974
     11 O                    -0.333522
     12 O                    -0.341674
     13 C                    -0.085596
     14 H                     0.121212
     15 H                     0.089724
     16 H                     0.092391
     17 C                    -0.086902
     18 H                     0.124980
     19 H                     0.093787
     20 H                     0.088152
     21 C                    -0.304936
     22 S                    -0.027384
     23 C                     0.012392
     24 H                     0.191635
     25 H                     0.204192
     26 C                    -0.145292
     27 S                     0.109969
     28 C                    -0.122068
     29 C                     0.103042
     30 C                    -0.113370
     31 S                     0.060342
     32 C                    -0.152921
     33 C                     0.393013
     34 F                    -0.203647
     35 C                     0.449165
     36 O                    -0.461903
     37 O                    -0.301338
     38 C                    -0.058115
     39 H                     0.121548
     40 H                     0.095301
     41 H                     0.095471
     42 H                     0.222413
  ----------------------------------------
  Sum of atomic charges =     0.000000

 -----------------------------------------------------------------
                    Cartesian Multipole Moments
 -----------------------------------------------------------------
    Charge (ESU x 10^10)
                -0.0000
    Dipole Moment (Debye)
         X       4.4489      Y       2.4893      Z       2.7342
       Tot       5.7849
    Quadrupole Moments (Debye-Ang)
        XX    -179.9588     XY       6.1589     YY    -183.9588
        XZ       5.2906     YZ      -3.6171     ZZ    -187.9550
    Octopole Moments (Debye-Ang^2)
       XXX    -398.8226    XXY     461.6904    XYY    -131.3135
       YYY    1175.7691    XXZ     141.4299    XYZ     -84.2182
       YYZ     165.5919    XZZ     -70.5549    YZZ     447.5432
       ZZZ     586.4647
    Hexadecapole Moments (Debye-Ang^3)
      XXXX   -3964.3484   XXXY   -1062.7852   XXYY   -3962.1464
      XYYY   -1108.1464   YYYY  -17621.5754   XXXZ     638.9597
      XXYZ       9.8028   XYYZ     493.4504   YYYZ     399.1559
      XXZZ   -1197.5572   XYZZ     -85.5238   YYZZ   -4075.8451
      XZZZ     409.3005   YZZZ     129.7251   ZZZZ   -6453.6933
 -----------------------------------------------------------------
 Total job time:  310.59s(wall), 9641.93s(cpu) 
 Mon Jan  8 19:59:16 2024

        *************************************************************
        *                                                           *
        *  Thank you very much for using Q-Chem.  Have a nice day.  *
        *                                                           *
        *************************************************************


0 sent ACK to 0 
now end server 0 ... 
cleanup process ... done
remove work dirs ./qchem1630877.0 -- ./qchem1630877.0
rm -rf ./qchem1630877.0
rm -rf ./qchem1630877
