You are running Q-Chem version: 5.4.0

#
# job setting
#
local host:  exp-7-09
current dir: /home/rramji/project-csd799/aromodel/ptb7fout-qchem/rotation-run
input file:  Dimethoxy_Benzodithiophene_Phi_10_Theta_300_Methylcarbonyl_3_Fluoro_Thienothiophene.qcin
output file: 
nprocs     : 1
nthreads   : 64
#
# qchem installation setting
#
QC:          /cm/shared/apps/spack/cpu/opt/spack/linux-centos8-zen2/gcc-10.2.0/qchem-5.4-akfmr7b3t57bfs6qan3padb2wnb2i7cl
QCAUX:       /cm/shared/apps/spack/cpu/opt/spack/linux-centos8-zen2/gcc-10.2.0/qchem-5.4-akfmr7b3t57bfs6qan3padb2wnb2i7cl/qcaux
QCPROG:      /cm/shared/apps/spack/cpu/opt/spack/linux-centos8-zen2/gcc-10.2.0/qchem-5.4-akfmr7b3t57bfs6qan3padb2wnb2i7cl/exe/qcprog.exe
QCPROG_S:    /cm/shared/apps/spack/cpu/opt/spack/linux-centos8-zen2/gcc-10.2.0/qchem-5.4-akfmr7b3t57bfs6qan3padb2wnb2i7cl/exe/qcprog.exe_s
PARALLEL:    -DPARALLEL
QCMPI:       mpich
#
# qchem directory setting
#
qcrun:       qchem39971
QCSCRATCH:   .
QCLOCALSCR:  
QCTMPDIR:    .
QCFILEPREF:  ./qchem39971
QCSAVEDIR:   
workdirs:    ./qchem39971
workdir0:    ./qchem39971
partmpdirs =  
#
# parallel setting
#
QCRSH:           ssh
QCMPI:           mpich
QCMPIRUN:        /cm/shared/apps/spack/cpu/opt/spack/linux-centos8-zen2/gcc-10.2.0/qchem-5.4-akfmr7b3t57bfs6qan3padb2wnb2i7cl/bin/mpi/mpirun_qchem
QCMACHINEFILE:   ./qchem39971/hostfile
exp-7-09

#
# env setting
#
exported envs:   QC QCAUX QCSCRATCH QCRUNNAME QCFILEPREF QCPROG QCPROG_S GUIFILE

Running Job 1 of 1 Dimethoxy_Benzodithiophene_Phi_10_Theta_300_Methylcarbonyl_3_Fluoro_Thienothiophene.qcin
qchem Dimethoxy_Benzodithiophene_Phi_10_Theta_300_Methylcarbonyl_3_Fluoro_Thienothiophene.qcin_39971.0 ./qchem39971/ 1
/cm/shared/apps/spack/cpu/opt/spack/linux-centos8-zen2/gcc-10.2.0/qchem-5.4-akfmr7b3t57bfs6qan3padb2wnb2i7cl/bin/mpi/mpirun_qchem -machinefile ./qchem39971/hostfile -np 1 /cm/shared/apps/spack/cpu/opt/spack/linux-centos8-zen2/gcc-10.2.0/qchem-5.4-akfmr7b3t57bfs6qan3padb2wnb2i7cl/exe/qcprog.exe Dimethoxy_Benzodithiophene_Phi_10_Theta_300_Methylcarbonyl_3_Fluoro_Thienothiophene.qcin_39971.0 ./qchem39971/

Process 0 of 1 is on exp-7-09 - thread support 0
initial socket setup ...start
initial socket setup ...done 
now start server 0 ... 
                  Welcome to Q-Chem
     A Quantum Leap Into The Future Of Chemistry


 Q-Chem 5.4, Q-Chem, Inc., Pleasanton, CA (2021)

 License issued to: University of California, San Diego (site)

 E. Epifanovsky,  A. T. B. Gilbert,  Xintian Feng,  Joonho Lee,  Yuezhi Mao,  
 N. Mardirossian,  P. Pokhilko,  A. White,  M. Wormit,  M. P. Coons,  
 A. L. Dempwolff,  Zhengting Gan,  D. Hait,  P. R. Horn,  L. D. Jacobson,  
 I. Kaliman,  J. Kussmann,  A. W. Lange,  Ka Un Lao,  D. S. Levine,  Jie Liu,  
 S. C. McKenzie,  A. F. Morrison,  K. Nanda,  F. Plasser,  D. R. Rehn,  
 M. L. Vidal,  Zhi-Qiang You,  Ying Zhu,  B. Alam,  B. Albrecht,  
 A. Aldossary,  E. Alguire,  J. H. Andersen,  D. Barton,  K. Begam,  A. Behn,  
 Y. A. Bernard,  E. J. Berquist,  H. Burton,  A. Carreras,  K. Carter-Fenk,  
 R. Chakraborty,  A. D. Chien,  K. D. Closser,  V. Cofer-Shabica,  
 S. Dasgupta,  Jia Deng,  M. de Wergifosse,  M. Diedenhofen,  Hainam Do,  
 S. Ehlert,  Po-Tung Fang,  S. Fatehi,  Qingguo Feng,  J. Gayvert,  
 Qinghui Ge,  G. Gidofalvi,  M. Goldey,  J. Gomes,  C. Gonzalez-Espinoza,  
 S. Gulania,  A. Gunina,  M. W. D. Hanson-Heine,  P. H. P. Harbach,  
 A. W. Hauser,  M. F. Herbst,  M. Hernandez Vera,  M. Hodecker,  
 Z. C. Holden,  S. Houck,  Xunkun Huang,  Kerwin Hui,  B. C. Huynh,  
 M. Ivanov,  Hyunjun Ji,  Hanjie Jiang,  B. Kaduk,  S. Kaehler,  
 K. Khistyaev,  Jaehoon Kim,  P. Klunzinger,  Z. Koczor-Benda,  
 Joong Hoon Koh,  D. Kosenkov,  L. Koulias,  T. Kowalczyk,  C. M. Krauter,  
 K. Kue,  A. Kunitsa,  T. Kus,  A. Landau,  K. V. Lawler,  D. Lefrancois,  
 S. Lehtola,  Rain Li,  Yi-Pei Li,  Jiashu Liang,  M. Liebenthal,  
 Hung-Hsuan Lin,  You-Sheng Lin,  Fenglai Liu,  Kuan-Yu Liu,  
 M. Loipersberger,  A. Luenser,  A. Manjanath,  P. Manohar,  E. Mansoor,  
 S. F. Manzer,  Shan-Ping Mao,  A. V. Marenich,  T. Markovich,  S. Mason,  
 S. A. Maurer,  P. F. McLaughlin,  M. F. S. J. Menger,  J.-M. Mewes,  
 S. A. Mewes,  P. Morgante,  J. W. Mullinax,  T. S. Nguyen-Beck,  
 K. J. Oosterbaan,  G. Paran,  Alexander C. Paul,  Suranjan K. Paul,  
 F. Pavosevic,  Zheng Pei,  S. Prager,  E. I. Proynov,  E. Ramos,  B. Rana,  
 A. E. Rask,  A. Rettig,  R. M. Richard,  F. Rob,  E. Rossomme,  T. Scheele,  
 M. Scheurer,  M. Schneider,  N. Sergueev,  S. M. Sharada,  W. Skomorowski,  
 D. W. Small,  C. J. Stein,  Yu-Chuan Su,  E. J. Sundstrom,  Zhen Tao,  
 J. Thirman,  T. Tsuchimochi,  N. M. Tubman,  S. P. Veccham,  O. Vydrov,  
 J. Wenzel,  J. Witte,  A. Yamada,  Kun Yao,  S. Yeganeh,  S. R. Yost,  
 A. Zech,  Igor Ying Zhang,  Xing Zhang,  Yu Zhang,  D. Zuev,  
 A. Aspuru-Guzik,  A. T. Bell,  N. A. Besley,  K. B. Bravaya,  B. R. Brooks,  
 D. Casanova,  Jeng-Da Chai,  S. Coriani,  C. J. Cramer,  
 A. E. DePrince, III,  R. A. DiStasio Jr.,  A. Dreuw,  B. D. Dunietz,  
 T. R. Furlani,  W. A. Goddard III,  S. Grimme,  S. Hammes-Schiffer,  
 T. Head-Gordon,  W. J. Hehre,  Chao-Ping Hsu,  T.-C. Jagau,  Yousung Jung,  
 A. Klamt,  Jing Kong,  D. S. Lambrecht,  WanZhen Liang,  N. J. Mayhall,  
 C. W. McCurdy,  J. B. Neaton,  C. Ochsenfeld,  J. A. Parkhill,  R. Peverati,  
 V. A. Rassolov,  Yihan Shao,  L. V. Slipchenko,  T. Stauch,  R. P. Steele,  
 J. E. Subotnik,  A. J. W. Thom,  A. Tkatchenko,  D. G. Truhlar,  
 T. Van Voorhis,  T. A. Wesolowski,  K. B. Whaley,  H. L. Woodcock III,  
 P. M. Zimmerman,  S. Faraji,  P. M. W. Gill,  M. Head-Gordon,  
 J. M. Herbert,  A. I. Krylov

 Contributors to earlier versions of Q-Chem not listed above: 
 R. D. Adamson,  B. Austin,  R. Baer,  J. Baker,  G. J. O. Beran,  
 K. Brandhorst,  S. T. Brown,  E. F. C. Byrd,  A. K. Chakraborty,  
 G. K. L. Chan,  Chun-Min Chang,  Yunqing Chen,  C.-L. Cheng,  
 Siu Hung Chien,  D. M. Chipman,  D. L. Crittenden,  H. Dachsel,  
 R. J. Doerksen,  A. D. Dutoi,  R. G. Edgar,  J. Fosso-Tande,  
 L. Fusti-Molnar,  D. Ghosh,  A. Ghysels,  A. Golubeva-Zadorozhnaya,  
 J. Gonthier,  M. S. Gordon,  S. R. Gwaltney,  G. Hawkins,  J. E. Herr,  
 A. Heyden,  S. Hirata,  E. G. Hohenstein,  G. Kedziora,  F. J. Keil,  
 C. Kelley,  Jihan Kim,  R. A. King,  R. Z. Khaliullin,  P. P. Korambath,  
 W. Kurlancheek,  A. Laurent,  A. M. Lee,  M. S. Lee,  S. V. Levchenko,  
 Ching Yeh Lin,  D. Liotard,  E. Livshits,  R. C. Lochan,  I. Lotan,  
 L. A. Martinez-Martinez,  P. E. Maslen,  N. Nair,  D. P. O'Neill,  
 D. Neuhauser,  E. Neuscamman,  C. M. Oana,  R. Olivares-Amaya,  R. Olson,  
 T. M. Perrine,  B. Peters,  P. A. Pieniazek,  A. Prociuk,  Y. M. Rhee,  
 J. Ritchie,  M. A. Rohrdanz,  E. Rosta,  N. J. Russ,  H. F. Schaefer III,  
 M. W. Schmidt,  N. E. Schultz,  S. Sharma,  N. Shenvi,  C. D. Sherrill,  
 A. C. Simmonett,  A. Sodt,  T. Stein,  D. Stuck,  K. S. Thanthiriwatte,  
 V. Vanovschi,  L. Vogt,  Tao Wang,  A. Warshel,  M. A. Watson,  
 C. F. Williams,  Q. Wu,  X. Xu,  Jun Yang,  W. Zhang,  Yan Zhao

 Please cite Q-Chem as follows:
 Y. Shao et al., Mol. Phys. 113, 184-215 (2015)
 DOI: 10.1080/00268976.2014.952696

 Q-Chem 5.4.0 for Intel X86 EM64T Linux

 Parts of Q-Chem use Armadillo 9.800.1 (Horizon Scraper).
 http://arma.sourceforge.net/

 Q-Chem begins on Tue Jan  9 02:01:15 2024  

 Host: 
0

     Scratch files written to ./qchem39971//
 May1621 |scratch|qcdevops|jenkins|workspace|build_RNUM    
 Parallel job on  1  processors
 Processing $rem in /cm/shared/apps/spack/cpu/opt/spack/linux-centos8-zen2/gcc-10.2.0/qchem-5.4-akfmr7b3t57bfs6qan3padb2wnb2i7cl/config/preferences:
 Processing $rem in /home/rramji/.qchemrc:
 Symmetry turned off for PCM/SM12/SMD calculation
 Core orbitals will be frozen

 Checking the input file for inconsistencies... 	...done.

 Q-Chem warning in module forms1/BasisType.C, line 2236:

 You are not using the predefined 5D/6D in this basis set.


--------------------------------------------------------------
User input:
--------------------------------------------------------------
$molecule
0 1
C	0.254945	-8.517702	0.194917
C	-0.680596	-7.641575	-0.335839
S	1.603876	-7.638634	0.954772
C	-0.354585	-6.264785	-0.147576
H	-1.591356	-7.966081	-0.854836
C	0.879999	-6.072714	0.567090
C	1.379534	-4.787049	0.826731
C	-1.124384	-5.162801	-0.618405
C	-0.622407	-3.874817	-0.362333
C	0.612067	-3.683952	0.355575
O	-2.281166	-5.499772	-1.253677
O	2.542174	-4.459055	1.463859
C	3.060718	-5.329063	2.462679
H	3.841678	-4.755694	2.997507
H	3.530361	-6.238095	2.027179
H	2.274283	-5.637262	3.185132
C	-2.916545	-4.572261	-2.124902
H	-3.703073	-5.139743	-2.657438
H	-2.204417	-4.153131	-2.867810
H	-3.399269	-3.739531	-1.568770
C	0.936109	-2.306654	0.540061
S	-1.341474	-2.306501	-0.761887
C	-0.000000	-1.435185	-0.000000
H	1.844392	-1.978138	1.060690
H	0.258730	-9.614033	0.192984
C	0.000000	0.000000	0.000000
S	0.157577	0.890937	1.507541
C	0.429889	2.439720	0.718873
C	0.157797	0.890576	-1.067872
C	0.396915	2.260004	-0.686410
S	0.118307	0.650207	-2.805516
C	0.417036	2.376229	-3.054530
C	0.537616	3.074202	-1.862551
F	0.764992	4.391378	-1.819088
C	0.496696	2.817118	-4.456084
O	0.370874	2.057582	-5.406510
O	0.723861	4.148418	-4.569225
C	0.814976	4.635075	-5.916207
H	0.999286	5.720591	-5.833064
H	-0.125909	4.442226	-6.470168
H	1.645504	4.140465	-6.459293
H	0.588993	3.350182	1.306486
$end

$rem
JOBTYPE		SP
EXCHANGE	HF
CORRELATION	pRIMP2
BASIS		cc-pvtz
METHOD		rimp2
AUX_BASIS	rimp2-cc-pvtz
SOLVENT_METHOD	PCM
PURECART	11111
SYMMETRY	false
MEM_TOTAL	110000
SCF_CONVERGENCE = 6
THRESH=10
GUI = 2
$end



$solvent
dielectric 4.90
$end
--------------------------------------------------------------
 ----------------------------------------------------------------
             Standard Nuclear Orientation (Angstroms)
    I     Atom           X                Y                Z
 ----------------------------------------------------------------
    1      C       0.2549450000    -8.5177020000     0.1949170000
    2      C      -0.6805960000    -7.6415750000    -0.3358390000
    3      S       1.6038760000    -7.6386340000     0.9547720000
    4      C      -0.3545850000    -6.2647850000    -0.1475760000
    5      H      -1.5913560000    -7.9660810000    -0.8548360000
    6      C       0.8799990000    -6.0727140000     0.5670900000
    7      C       1.3795340000    -4.7870490000     0.8267310000
    8      C      -1.1243840000    -5.1628010000    -0.6184050000
    9      C      -0.6224070000    -3.8748170000    -0.3623330000
   10      C       0.6120670000    -3.6839520000     0.3555750000
   11      O      -2.2811660000    -5.4997720000    -1.2536770000
   12      O       2.5421740000    -4.4590550000     1.4638590000
   13      C       3.0607180000    -5.3290630000     2.4626790000
   14      H       3.8416780000    -4.7556940000     2.9975070000
   15      H       3.5303610000    -6.2380950000     2.0271790000
   16      H       2.2742830000    -5.6372620000     3.1851320000
   17      C      -2.9165450000    -4.5722610000    -2.1249020000
   18      H      -3.7030730000    -5.1397430000    -2.6574380000
   19      H      -2.2044170000    -4.1531310000    -2.8678100000
   20      H      -3.3992690000    -3.7395310000    -1.5687700000
   21      C       0.9361090000    -2.3066540000     0.5400610000
   22      S      -1.3414740000    -2.3065010000    -0.7618870000
   23      C       0.0000000000    -1.4351850000     0.0000000000
   24      H       1.8443920000    -1.9781380000     1.0606900000
   25      H       0.2587300000    -9.6140330000     0.1929840000
   26      C       0.0000000000     0.0000000000     0.0000000000
   27      S       0.1575770000     0.8909370000     1.5075410000
   28      C       0.4298890000     2.4397200000     0.7188730000
   29      C       0.1577970000     0.8905760000    -1.0678720000
   30      C       0.3969150000     2.2600040000    -0.6864100000
   31      S       0.1183070000     0.6502070000    -2.8055160000
   32      C       0.4170360000     2.3762290000    -3.0545300000
   33      C       0.5376160000     3.0742020000    -1.8625510000
   34      F       0.7649920000     4.3913780000    -1.8190880000
   35      C       0.4966960000     2.8171180000    -4.4560840000
   36      O       0.3708740000     2.0575820000    -5.4065100000
   37      O       0.7238610000     4.1484180000    -4.5692250000
   38      C       0.8149760000     4.6350750000    -5.9162070000
   39      H       0.9992860000     5.7205910000    -5.8330640000
   40      H      -0.1259090000     4.4422260000    -6.4701680000
   41      H       1.6455040000     4.1404650000    -6.4592930000
   42      H       0.5889930000     3.3501820000     1.3064860000
 ----------------------------------------------------------------
 Nuclear Repulsion Energy =        3274.92318214 hartrees
 There are      119 alpha and      119 beta electrons
 Requested basis set is cc-pVTZ
 There are 376 shells and 1068 basis functions

 Total QAlloc Memory Limit 110000 MB
 Mega-Array Size       188 MB
 MEM_STATIC part       192 MB
 Discretize the solute cavity surface with Lebedev spheres
	Using 110 Lebedev grid points for each H atom
	Using 194 Lebedev grid points for other atoms
	Atomic van der Waals radii will be scaled by 1.20
 Remove points where switching function is < 1.0e-08
 Keep 2887 surface tesserae and discard 4169 interior tesserae
 Molecular Surface Area = 442.320 Angst**2
 Requested basis set is rimp2-cc-pVTZ
 There are 833 shells and 2903 basis functions
 A cutoff of  1.0D-10 yielded  30775 shell pairs
 There are    236763 function pairs (    307588 Cartesian)
 Smallest overlap matrix eigenvalue = 2.20E-05

 Scale SEOQF with 1.000000e-01/1.000000e-02/1.000000e-02

 Standard Electronic Orientation quadrupole field applied
 Nucleus-field energy     =     0.0000000330 hartrees
 Guess from superposition of atomic densities
 Warning:  Energy on first SCF cycle will be non-variational
 SAD guess density has 238.000000 electrons

 -----------------------------------------------------------------------
  General SCF calculation program by
  Eric Jon Sundstrom, Paul Horn, Yuezhi Mao, Dmitri Zuev, Alec White,
  David Stuck, Shaama M.S., Shane Yost, Joonho Lee, David Small,
  Daniel Levine, Susi Lehtola, Hugh Burton, Evgeny Epifanovsky,
  Bang C. Huynh
 -----------------------------------------------------------------------
 Hartree-Fock
 using 64 threads for integral computing
 -------------------------------------------------------
 OpenMP Integral computing Module                
 Release: version 1.0, May 2013, Q-Chem Inc. Pittsburgh 
 -------------------------------------------------------
 A restricted SCF calculation will be
 performed using DIIS
 SCF converges when DIIS error is below 1.0e-06
 ---------------------------------------
  Cycle       Energy         DIIS error
 ---------------------------------------
    1   -2765.2046735706      1.75e-02  
    2   -2753.8821151030      1.56e-03  
    3   -2754.2198595464      8.59e-04  
    4   -2754.3007625651      2.56e-04  
    5   -2754.3124007209      6.94e-05  
    6   -2754.3134881292      2.37e-05  
    7   -2754.3137267613      1.15e-05  
    8   -2754.3138051753      4.29e-06  
    9   -2754.3138199537      1.67e-06  
   10   -2754.3138217009      6.94e-07  Convergence criterion met
 ---------------------------------------
 SCF time:   CPU 6183.78s  wall 247.00s 

************** Final PCM Free Energy Summary **************
 G_electrostatic  =      -0.01861370 hartree =     -11.68027258 kcal/mol
 G_cavitation     =       0.00000000 hartree =       0.00000000 kcal/mol
 G_dispersion     =       0.00000000 hartree =       0.00000000 kcal/mol
 G_repulsion      =       0.00000000 hartree =       0.00000000 kcal/mol
 --------------------------------------------------
 Non-electrostatic Free Energy =       0.00000000 hartree =       0.00000000 kcal/mol
 Total                         =      -0.01861370 hartree =     -11.68027258 kcal/mol
 --------------------------------------------------
 SCF Energy (H0 + V/2)                       =   -2754.31382170 
 Solute Internal Energy (H0)                 =   -2754.29520800 
 Total Free Energy (H0 + V/2 + non-elec)     =   -2754.31382170 hartree
                                             = -1728358.00922352 kcal/mol
***********************************************************

 SCF   energy in the final basis set =    -2754.3138217009
 Total energy in the final basis set =    -2754.3138217009


 --------------------------------------------------------------
  Generalized many-body perturbation theory program
  by Joonho Lee, Fazle Rob, Xintian Feng, Evgeny Epifanovsky

 No regularization used 
 (reg. param. = 0.0000e+00)
  (P|Q)^-1/2 Time:  CPU 286.15 s  wall 5.46 s

 In RI-MP2 calculation: 
 # of frozen core orbitals: 45

 Components of the RIMP2 correlation energy:
        aaaa    correlation energy =        -0.6693244181 a.u.
        abab    correlation energy =        -3.7118892444 a.u.
        bbbb    correlation energy =        -0.6693244181 a.u.
        non-Brillouin singles      =        -0.0000000000 a.u.
        total same-spin energy     =        -1.3386488362 a.u.
        total opposite-spin energy =        -3.7118892444 a.u.

 Total  RIMP2   correlation energy =        -5.0505380805 a.u.
        RIMP2         total energy =     -2759.3643597815 a.u.

 RI-MP2 Energy Time:  CPU 2705.45 s  wall 45.86 s
 
 --------------------------------------------------------------
 
                    Orbital Energies (a.u.)
 --------------------------------------------------------------
 
 Alpha MOs
 -- Occupied --
-92.0154 -91.9971 -91.9895 -91.9865 -26.3427 -20.6143 -20.5923 -20.5917
-20.5606 -11.4088 -11.3816 -11.3193 -11.3182 -11.3088 -11.3004 -11.2976
-11.2965 -11.2938 -11.2885 -11.2867 -11.2864 -11.2862 -11.2841 -11.2840
-11.2799 -11.2610 -11.2591 -11.2576 -11.2500  -9.0137  -8.9972  -8.9899
 -8.9864  -6.6944  -6.6938  -6.6933  -6.6782  -6.6774  -6.6763  -6.6708
 -6.6701  -6.6692  -6.6674  -6.6667  -6.6659  -1.6598  -1.4667  -1.4164
 -1.4145  -1.3694  -1.2204  -1.1945  -1.1655  -1.1352  -1.0848  -1.0520
 -1.0408  -1.0222  -1.0017  -0.9879  -0.9627  -0.9593  -0.9501  -0.9392
 -0.8957  -0.8669  -0.8513  -0.8117  -0.7916  -0.7885  -0.7867  -0.7650
 -0.7550  -0.7339  -0.7247  -0.7094  -0.6997  -0.6848  -0.6834  -0.6805
 -0.6734  -0.6592  -0.6572  -0.6527  -0.6305  -0.6201  -0.6169  -0.6043
 -0.5971  -0.5859  -0.5767  -0.5697  -0.5671  -0.5621  -0.5550  -0.5525
 -0.5309  -0.5295  -0.5230  -0.5167  -0.5153  -0.5093  -0.5047  -0.4943
 -0.4893  -0.4785  -0.4762  -0.4730  -0.4706  -0.4656  -0.4609  -0.4109
 -0.3972  -0.3863  -0.3586  -0.3479  -0.3197  -0.2941  -0.2569
 -- Virtual --
  0.0337   0.0606   0.1110   0.1237   0.1347   0.1487   0.1512   0.1535
  0.1559   0.1575   0.1614   0.1762   0.1811   0.1840   0.1863   0.1916
  0.2000   0.2033   0.2133   0.2153   0.2192   0.2217   0.2256   0.2284
  0.2332   0.2374   0.2424   0.2500   0.2564   0.2632   0.2698   0.2773
  0.2846   0.3049   0.3264   0.3283   0.3361   0.3423   0.3430   0.3472
  0.3511   0.3547   0.3723   0.3773   0.3835   0.3845   0.3858   0.3869
  0.3878   0.3980   0.3993   0.4068   0.4085   0.4146   0.4213   0.4243
  0.4258   0.4285   0.4349   0.4451   0.4482   0.4491   0.4560   0.4577
  0.4592   0.4644   0.4650   0.4728   0.4750   0.4816   0.4845   0.4869
  0.4904   0.5025   0.5056   0.5072   0.5110   0.5140   0.5184   0.5232
  0.5249   0.5287   0.5358   0.5363   0.5422   0.5445   0.5454   0.5473
  0.5530   0.5558   0.5602   0.5609   0.5635   0.5693   0.5766   0.5780
  0.5831   0.5866   0.5928   0.5944   0.5972   0.6060   0.6072   0.6125
  0.6156   0.6168   0.6218   0.6228   0.6235   0.6254   0.6288   0.6323
  0.6372   0.6427   0.6475   0.6497   0.6521   0.6573   0.6612   0.6663
  0.6681   0.6815   0.6875   0.6891   0.6916   0.6987   0.7014   0.7052
  0.7115   0.7127   0.7182   0.7198   0.7265   0.7305   0.7444   0.7478
  0.7555   0.7576   0.7623   0.7676   0.7742   0.7768   0.7988   0.8025
  0.8033   0.8101   0.8126   0.8179   0.8227   0.8250   0.8354   0.8364
  0.8514   0.8518   0.8583   0.8636   0.8671   0.8745   0.8806   0.8857
  0.8922   0.8950   0.9025   0.9065   0.9093   0.9131   0.9169   0.9208
  0.9303   0.9328   0.9410   0.9437   0.9483   0.9589   0.9629   0.9660
  0.9734   0.9780   0.9811   0.9852   0.9882   0.9946   0.9976   1.0011
  1.0028   1.0076   1.0187   1.0251   1.0291   1.0306   1.0370   1.0454
  1.0464   1.0507   1.0561   1.0590   1.0626   1.0700   1.0758   1.0795
  1.0824   1.0842   1.0923   1.0968   1.1006   1.1059   1.1068   1.1108
  1.1138   1.1143   1.1224   1.1315   1.1387   1.1472   1.1549   1.1561
  1.1647   1.1695   1.1768   1.1779   1.1840   1.1884   1.1903   1.1950
  1.2029   1.2063   1.2128   1.2139   1.2171   1.2216   1.2232   1.2307
  1.2358   1.2384   1.2418   1.2440   1.2532   1.2631   1.2666   1.2733
  1.2759   1.2800   1.2848   1.2880   1.2949   1.3029   1.3099   1.3125
  1.3264   1.3279   1.3340   1.3378   1.3463   1.3596   1.3630   1.3694
  1.3764   1.3843   1.3896   1.3997   1.4097   1.4127   1.4176   1.4232
  1.4307   1.4363   1.4386   1.4559   1.4700   1.4755   1.4858   1.4895
  1.4962   1.5011   1.5038   1.5066   1.5125   1.5149   1.5188   1.5258
  1.5304   1.5385   1.5399   1.5430   1.5454   1.5519   1.5582   1.5678
  1.5745   1.5777   1.5840   1.5958   1.6008   1.6202   1.6237   1.6320
  1.6404   1.6463   1.6516   1.6599   1.6631   1.6677   1.6753   1.6824
  1.6889   1.6939   1.7019   1.7102   1.7155   1.7206   1.7335   1.7507
  1.7573   1.7775   1.7812   1.7834   1.7899   1.8054   1.8113   1.8149
  1.8234   1.8280   1.8323   1.8500   1.8535   1.8653   1.8711   1.8771
  1.8835   1.8900   1.8947   1.8987   1.9129   1.9204   1.9271   1.9289
  1.9409   1.9426   1.9568   1.9618   1.9701   1.9714   1.9837   1.9892
  1.9973   2.0011   2.0034   2.0094   2.0211   2.0257   2.0453   2.0539
  2.0714   2.0774   2.0886   2.0969   2.1035   2.1163   2.1168   2.1394
  2.1530   2.1601   2.1611   2.1679   2.1759   2.1857   2.1911   2.1963
  2.1995   2.2000   2.2086   2.2208   2.2231   2.2338   2.2365   2.2429
  2.2518   2.2543   2.2595   2.2605   2.2748   2.2789   2.2860   2.3018
  2.3051   2.3108   2.3182   2.3303   2.3350   2.3423   2.3505   2.3598
  2.3689   2.3714   2.3790   2.3946   2.3971   2.4026   2.4134   2.4254
  2.4300   2.4322   2.4425   2.4555   2.4600   2.4690   2.4758   2.4876
  2.4940   2.5023   2.5057   2.5252   2.5328   2.5463   2.5493   2.5592
  2.5619   2.5758   2.5807   2.5946   2.6071   2.6152   2.6164   2.6254
  2.6295   2.6325   2.6363   2.6404   2.6435   2.6526   2.6620   2.6704
  2.6802   2.6823   2.6886   2.6939   2.6973   2.7043   2.7054   2.7154
  2.7187   2.7317   2.7344   2.7375   2.7426   2.7589   2.7647   2.7679
  2.7772   2.7812   2.7884   2.7947   2.7987   2.8077   2.8152   2.8227
  2.8292   2.8353   2.8383   2.8408   2.8474   2.8520   2.8588   2.8734
  2.8770   2.8816   2.8872   2.8943   2.9002   2.9042   2.9160   2.9335
  2.9371   2.9482   2.9583   2.9621   2.9710   2.9722   2.9825   2.9886
  2.9949   3.0078   3.0133   3.0215   3.0237   3.0322   3.0369   3.0422
  3.0468   3.0532   3.0607   3.0757   3.0875   3.0886   3.0941   3.0987
  3.1040   3.1057   3.1110   3.1199   3.1218   3.1319   3.1352   3.1379
  3.1485   3.1522   3.1568   3.1607   3.1656   3.1679   3.1758   3.1843
  3.1861   3.1929   3.2035   3.2107   3.2170   3.2186   3.2217   3.2241
  3.2345   3.2411   3.2438   3.2489   3.2514   3.2612   3.2653   3.2687
  3.2745   3.2771   3.2802   3.2880   3.2890   3.2932   3.3009   3.3040
  3.3178   3.3235   3.3254   3.3279   3.3317   3.3349   3.3433   3.3460
  3.3523   3.3554   3.3595   3.3636   3.3668   3.3692   3.3742   3.3793
  3.3843   3.3869   3.3928   3.3979   3.4028   3.4064   3.4106   3.4155
  3.4180   3.4296   3.4322   3.4348   3.4423   3.4442   3.4483   3.4527
  3.4612   3.4627   3.4656   3.4699   3.4729   3.4741   3.4829   3.4862
  3.4937   3.4998   3.5095   3.5124   3.5175   3.5275   3.5290   3.5366
  3.5388   3.5448   3.5503   3.5572   3.5654   3.5692   3.5714   3.5801
  3.5814   3.5845   3.5904   3.5937   3.5962   3.6048   3.6086   3.6095
  3.6174   3.6213   3.6321   3.6342   3.6429   3.6461   3.6548   3.6576
  3.6618   3.6688   3.6786   3.6821   3.6857   3.6887   3.6961   3.7037
  3.7045   3.7064   3.7125   3.7152   3.7212   3.7300   3.7333   3.7366
  3.7480   3.7523   3.7567   3.7571   3.7684   3.7715   3.7835   3.7869
  3.7928   3.7967   3.8039   3.8045   3.8083   3.8141   3.8151   3.8181
  3.8254   3.8357   3.8409   3.8478   3.8518   3.8618   3.8666   3.8719
  3.8754   3.8834   3.8897   3.8907   3.8968   3.9024   3.9132   3.9229
  3.9254   3.9308   3.9426   3.9502   3.9556   3.9683   3.9709   3.9775
  3.9871   3.9948   4.0044   4.0072   4.0148   4.0211   4.0269   4.0336
  4.0521   4.0604   4.0662   4.0676   4.0700   4.0818   4.0852   4.0950
  4.1038   4.1151   4.1203   4.1258   4.1335   4.1384   4.1509   4.1520
  4.1599   4.1631   4.1670   4.1706   4.1775   4.1876   4.1888   4.1988
  4.2054   4.2122   4.2235   4.2371   4.2405   4.2552   4.2565   4.2636
  4.2717   4.2828   4.2979   4.3121   4.3213   4.3235   4.3348   4.3420
  4.3428   4.3551   4.3598   4.3656   4.3733   4.3802   4.3850   4.3910
  4.4019   4.4090   4.4131   4.4246   4.4305   4.4310   4.4413   4.4446
  4.4611   4.4654   4.4828   4.4855   4.4944   4.5036   4.5171   4.5254
  4.5360   4.5368   4.5481   4.5565   4.5580   4.5693   4.5735   4.5831
  4.5917   4.6039   4.6158   4.6241   4.6300   4.6407   4.6499   4.6554
  4.6565   4.6727   4.6791   4.6804   4.6912   4.7189   4.7296   4.7392
  4.7410   4.7584   4.7631   4.7719   4.7821   4.7833   4.8178   4.8220
  4.8283   4.8396   4.8472   4.8580   4.8600   4.8922   4.9164   4.9228
  4.9396   4.9426   4.9515   4.9591   4.9650   4.9801   4.9837   4.9986
  5.0073   5.0092   5.0140   5.0185   5.0387   5.0439   5.0666   5.0748
  5.0850   5.0976   5.1198   5.1251   5.1601   5.1639   5.1777   5.1962
  5.2067   5.2199   5.2474   5.2508   5.2524   5.2581   5.2633   5.2702
  5.2941   5.3036   5.3133   5.3293   5.3379   5.3458   5.3515   5.3646
  5.3793   5.3964   5.3992   5.4141   5.4266   5.4278   5.4471   5.4635
  5.4844   5.4853   5.5071   5.5080   5.5169   5.5286   5.5510   5.5587
  5.5769   5.5815   5.5852   5.6059   5.6222   5.6311   5.6394   5.6660
  5.7165   5.7320   5.7599   5.7735   5.8080   5.8144   5.8438   5.8541
  5.8728   5.8796   5.9113   5.9297   5.9439   5.9777   5.9913   6.0423
  6.0616   6.0706   6.0891   6.1509   6.1710   6.1713   6.1763   6.1937
  6.2355   6.2455   6.2619   6.2697   6.2790   6.2838   6.3025   6.3309
  6.4128   6.4418   6.4507   6.4749   6.5381   6.5480   6.5556   6.6021
  6.6526   6.6616   6.6717   6.6948   6.7463   6.7993   6.8303   6.8382
  6.8601   6.8921   6.9785   7.1196   7.1374   7.2044   7.2073   7.2157
  7.2334   7.3104   7.3190   7.3308   7.3637   7.3641   7.4067   7.4138
  7.4791   7.4862   7.4886   7.5239   7.5514   7.6162   7.7105   7.7736
  7.7892   7.7962   7.8930   7.9173   7.9423   7.9576   8.0922   8.1354
  8.4521   8.9225   9.0171   9.3634   9.4717   9.6496  10.1106  10.6850
 11.1573  11.5534  11.7812  11.9069  12.1270  12.1963  12.4128  12.5863
 12.7396  12.9412  13.0536  13.1985  13.2780  13.3884  13.7745  13.8468
 13.9033  14.0186  14.0316  14.4308  15.1953
 --------------------------------------------------------------
 
          Ground-State Mulliken Net Atomic Charges

     Atom                 Charge (a.u.)
  ----------------------------------------
      1 C                    -0.188343
      2 C                    -0.253820
      3 S                    -0.022027
      4 C                    -0.015063
      5 H                     0.196466
      6 C                    -0.027727
      7 C                     0.241111
      8 C                     0.242341
      9 C                    -0.047485
     10 C                    -0.028150
     11 O                    -0.333439
     12 O                    -0.340163
     13 C                    -0.085775
     14 H                     0.122501
     15 H                     0.091289
     16 H                     0.093921
     17 C                    -0.087067
     18 H                     0.124719
     19 H                     0.095693
     20 H                     0.089813
     21 C                    -0.226044
     22 S                    -0.000324
     23 C                    -0.033066
     24 H                     0.199701
     25 H                     0.206439
     26 C                    -0.030220
     27 S                     0.105235
     28 C                    -0.186958
     29 C                     0.011705
     30 C                    -0.109844
     31 S                     0.008008
     32 C                    -0.151866
     33 C                     0.392391
     34 F                    -0.206936
     35 C                     0.444854
     36 O                    -0.461149
     37 O                    -0.300672
     38 C                    -0.058610
     39 H                     0.121216
     40 H                     0.094989
     41 H                     0.095041
     42 H                     0.217313
  ----------------------------------------
  Sum of atomic charges =     0.000000

 -----------------------------------------------------------------
                    Cartesian Multipole Moments
 -----------------------------------------------------------------
    Charge (ESU x 10^10)
                -0.0000
    Dipole Moment (Debye)
         X       0.2642      Y       0.9013      Z       3.1958
       Tot       3.3310
    Quadrupole Moments (Debye-Ang)
        XX    -188.3528     XY       3.1785     YY    -160.0516
        XZ      11.4463     YZ      -8.5669     ZZ    -194.7358
    Octopole Moments (Debye-Ang^2)
       XXX    -139.7234    XXY     319.4419    XYY     -30.9752
       YYY     851.1213    XXZ     162.9956    XYZ     -74.0294
       YYZ     111.5288    XZZ     -25.5351    YZZ     417.1458
       ZZZ     525.3696
    Hexadecapole Moments (Debye-Ang^3)
      XXXX   -1941.9023   XXXY     149.0955   XXYY   -3932.4204
      XYYY     135.9802   YYYY  -19156.1604   XXXZ    -156.7460
      XXYZ     607.7139   XYYZ     179.0884   YYYZ    1515.7545
      XXZZ   -1232.1647   XYZZ     129.6623   YYZZ   -4071.6066
      XZZZ    -304.0042   YZZZ    1359.6503   ZZZZ   -6143.8301
 -----------------------------------------------------------------
 Total job time:  305.11s(wall), 9473.38s(cpu) 
 Tue Jan  9 02:06:20 2024

        *************************************************************
        *                                                           *
        *  Thank you very much for using Q-Chem.  Have a nice day.  *
        *                                                           *
        *************************************************************


0 sent ACK to 0 
now end server 0 ... 
cleanup process ... done
remove work dirs ./qchem39971.0 -- ./qchem39971.0
rm -rf ./qchem39971.0
rm -rf ./qchem39971
