You are running Q-Chem version: 5.4.0

#
# job setting
#
local host:  exp-9-41
current dir: /home/rramji/project-csd799/aromodel/ptb7fout-qchem/rotation-run
input file:  Dimethoxy_Benzodithiophene_Phi_25_Theta_220_Methylcarbonyl_3_Fluoro_Thienothiophene.qcin
output file: 
nprocs     : 1
nthreads   : 64
#
# qchem installation setting
#
QC:          /cm/shared/apps/spack/cpu/opt/spack/linux-centos8-zen2/gcc-10.2.0/qchem-5.4-akfmr7b3t57bfs6qan3padb2wnb2i7cl
QCAUX:       /cm/shared/apps/spack/cpu/opt/spack/linux-centos8-zen2/gcc-10.2.0/qchem-5.4-akfmr7b3t57bfs6qan3padb2wnb2i7cl/qcaux
QCPROG:      /cm/shared/apps/spack/cpu/opt/spack/linux-centos8-zen2/gcc-10.2.0/qchem-5.4-akfmr7b3t57bfs6qan3padb2wnb2i7cl/exe/qcprog.exe
QCPROG_S:    /cm/shared/apps/spack/cpu/opt/spack/linux-centos8-zen2/gcc-10.2.0/qchem-5.4-akfmr7b3t57bfs6qan3padb2wnb2i7cl/exe/qcprog.exe_s
PARALLEL:    -DPARALLEL
QCMPI:       mpich
#
# qchem directory setting
#
qcrun:       qchem2762290
QCSCRATCH:   .
QCLOCALSCR:  
QCTMPDIR:    .
QCFILEPREF:  ./qchem2762290
QCSAVEDIR:   
workdirs:    ./qchem2762290
workdir0:    ./qchem2762290
partmpdirs =  
#
# parallel setting
#
QCRSH:           ssh
QCMPI:           mpich
QCMPIRUN:        /cm/shared/apps/spack/cpu/opt/spack/linux-centos8-zen2/gcc-10.2.0/qchem-5.4-akfmr7b3t57bfs6qan3padb2wnb2i7cl/bin/mpi/mpirun_qchem
QCMACHINEFILE:   ./qchem2762290/hostfile
exp-9-41

#
# env setting
#
exported envs:   QC QCAUX QCSCRATCH QCRUNNAME QCFILEPREF QCPROG QCPROG_S GUIFILE

Running Job 1 of 1 Dimethoxy_Benzodithiophene_Phi_25_Theta_220_Methylcarbonyl_3_Fluoro_Thienothiophene.qcin
qchem Dimethoxy_Benzodithiophene_Phi_25_Theta_220_Methylcarbonyl_3_Fluoro_Thienothiophene.qcin_2762290.0 ./qchem2762290/ 1
/cm/shared/apps/spack/cpu/opt/spack/linux-centos8-zen2/gcc-10.2.0/qchem-5.4-akfmr7b3t57bfs6qan3padb2wnb2i7cl/bin/mpi/mpirun_qchem -machinefile ./qchem2762290/hostfile -np 1 /cm/shared/apps/spack/cpu/opt/spack/linux-centos8-zen2/gcc-10.2.0/qchem-5.4-akfmr7b3t57bfs6qan3padb2wnb2i7cl/exe/qcprog.exe Dimethoxy_Benzodithiophene_Phi_25_Theta_220_Methylcarbonyl_3_Fluoro_Thienothiophene.qcin_2762290.0 ./qchem2762290/

Process 0 of 1 is on exp-9-41 - thread support 0
initial socket setup ...start
initial socket setup ...done 
now start server 0 ... 
                  Welcome to Q-Chem
     A Quantum Leap Into The Future Of Chemistry


 Q-Chem 5.4, Q-Chem, Inc., Pleasanton, CA (2021)

 License issued to: University of California, San Diego (site)

 E. Epifanovsky,  A. T. B. Gilbert,  Xintian Feng,  Joonho Lee,  Yuezhi Mao,  
 N. Mardirossian,  P. Pokhilko,  A. White,  M. Wormit,  M. P. Coons,  
 A. L. Dempwolff,  Zhengting Gan,  D. Hait,  P. R. Horn,  L. D. Jacobson,  
 I. Kaliman,  J. Kussmann,  A. W. Lange,  Ka Un Lao,  D. S. Levine,  Jie Liu,  
 S. C. McKenzie,  A. F. Morrison,  K. Nanda,  F. Plasser,  D. R. Rehn,  
 M. L. Vidal,  Zhi-Qiang You,  Ying Zhu,  B. Alam,  B. Albrecht,  
 A. Aldossary,  E. Alguire,  J. H. Andersen,  D. Barton,  K. Begam,  A. Behn,  
 Y. A. Bernard,  E. J. Berquist,  H. Burton,  A. Carreras,  K. Carter-Fenk,  
 R. Chakraborty,  A. D. Chien,  K. D. Closser,  V. Cofer-Shabica,  
 S. Dasgupta,  Jia Deng,  M. de Wergifosse,  M. Diedenhofen,  Hainam Do,  
 S. Ehlert,  Po-Tung Fang,  S. Fatehi,  Qingguo Feng,  J. Gayvert,  
 Qinghui Ge,  G. Gidofalvi,  M. Goldey,  J. Gomes,  C. Gonzalez-Espinoza,  
 S. Gulania,  A. Gunina,  M. W. D. Hanson-Heine,  P. H. P. Harbach,  
 A. W. Hauser,  M. F. Herbst,  M. Hernandez Vera,  M. Hodecker,  
 Z. C. Holden,  S. Houck,  Xunkun Huang,  Kerwin Hui,  B. C. Huynh,  
 M. Ivanov,  Hyunjun Ji,  Hanjie Jiang,  B. Kaduk,  S. Kaehler,  
 K. Khistyaev,  Jaehoon Kim,  P. Klunzinger,  Z. Koczor-Benda,  
 Joong Hoon Koh,  D. Kosenkov,  L. Koulias,  T. Kowalczyk,  C. M. Krauter,  
 K. Kue,  A. Kunitsa,  T. Kus,  A. Landau,  K. V. Lawler,  D. Lefrancois,  
 S. Lehtola,  Rain Li,  Yi-Pei Li,  Jiashu Liang,  M. Liebenthal,  
 Hung-Hsuan Lin,  You-Sheng Lin,  Fenglai Liu,  Kuan-Yu Liu,  
 M. Loipersberger,  A. Luenser,  A. Manjanath,  P. Manohar,  E. Mansoor,  
 S. F. Manzer,  Shan-Ping Mao,  A. V. Marenich,  T. Markovich,  S. Mason,  
 S. A. Maurer,  P. F. McLaughlin,  M. F. S. J. Menger,  J.-M. Mewes,  
 S. A. Mewes,  P. Morgante,  J. W. Mullinax,  T. S. Nguyen-Beck,  
 K. J. Oosterbaan,  G. Paran,  Alexander C. Paul,  Suranjan K. Paul,  
 F. Pavosevic,  Zheng Pei,  S. Prager,  E. I. Proynov,  E. Ramos,  B. Rana,  
 A. E. Rask,  A. Rettig,  R. M. Richard,  F. Rob,  E. Rossomme,  T. Scheele,  
 M. Scheurer,  M. Schneider,  N. Sergueev,  S. M. Sharada,  W. Skomorowski,  
 D. W. Small,  C. J. Stein,  Yu-Chuan Su,  E. J. Sundstrom,  Zhen Tao,  
 J. Thirman,  T. Tsuchimochi,  N. M. Tubman,  S. P. Veccham,  O. Vydrov,  
 J. Wenzel,  J. Witte,  A. Yamada,  Kun Yao,  S. Yeganeh,  S. R. Yost,  
 A. Zech,  Igor Ying Zhang,  Xing Zhang,  Yu Zhang,  D. Zuev,  
 A. Aspuru-Guzik,  A. T. Bell,  N. A. Besley,  K. B. Bravaya,  B. R. Brooks,  
 D. Casanova,  Jeng-Da Chai,  S. Coriani,  C. J. Cramer,  
 A. E. DePrince, III,  R. A. DiStasio Jr.,  A. Dreuw,  B. D. Dunietz,  
 T. R. Furlani,  W. A. Goddard III,  S. Grimme,  S. Hammes-Schiffer,  
 T. Head-Gordon,  W. J. Hehre,  Chao-Ping Hsu,  T.-C. Jagau,  Yousung Jung,  
 A. Klamt,  Jing Kong,  D. S. Lambrecht,  WanZhen Liang,  N. J. Mayhall,  
 C. W. McCurdy,  J. B. Neaton,  C. Ochsenfeld,  J. A. Parkhill,  R. Peverati,  
 V. A. Rassolov,  Yihan Shao,  L. V. Slipchenko,  T. Stauch,  R. P. Steele,  
 J. E. Subotnik,  A. J. W. Thom,  A. Tkatchenko,  D. G. Truhlar,  
 T. Van Voorhis,  T. A. Wesolowski,  K. B. Whaley,  H. L. Woodcock III,  
 P. M. Zimmerman,  S. Faraji,  P. M. W. Gill,  M. Head-Gordon,  
 J. M. Herbert,  A. I. Krylov

 Contributors to earlier versions of Q-Chem not listed above: 
 R. D. Adamson,  B. Austin,  R. Baer,  J. Baker,  G. J. O. Beran,  
 K. Brandhorst,  S. T. Brown,  E. F. C. Byrd,  A. K. Chakraborty,  
 G. K. L. Chan,  Chun-Min Chang,  Yunqing Chen,  C.-L. Cheng,  
 Siu Hung Chien,  D. M. Chipman,  D. L. Crittenden,  H. Dachsel,  
 R. J. Doerksen,  A. D. Dutoi,  R. G. Edgar,  J. Fosso-Tande,  
 L. Fusti-Molnar,  D. Ghosh,  A. Ghysels,  A. Golubeva-Zadorozhnaya,  
 J. Gonthier,  M. S. Gordon,  S. R. Gwaltney,  G. Hawkins,  J. E. Herr,  
 A. Heyden,  S. Hirata,  E. G. Hohenstein,  G. Kedziora,  F. J. Keil,  
 C. Kelley,  Jihan Kim,  R. A. King,  R. Z. Khaliullin,  P. P. Korambath,  
 W. Kurlancheek,  A. Laurent,  A. M. Lee,  M. S. Lee,  S. V. Levchenko,  
 Ching Yeh Lin,  D. Liotard,  E. Livshits,  R. C. Lochan,  I. Lotan,  
 L. A. Martinez-Martinez,  P. E. Maslen,  N. Nair,  D. P. O'Neill,  
 D. Neuhauser,  E. Neuscamman,  C. M. Oana,  R. Olivares-Amaya,  R. Olson,  
 T. M. Perrine,  B. Peters,  P. A. Pieniazek,  A. Prociuk,  Y. M. Rhee,  
 J. Ritchie,  M. A. Rohrdanz,  E. Rosta,  N. J. Russ,  H. F. Schaefer III,  
 M. W. Schmidt,  N. E. Schultz,  S. Sharma,  N. Shenvi,  C. D. Sherrill,  
 A. C. Simmonett,  A. Sodt,  T. Stein,  D. Stuck,  K. S. Thanthiriwatte,  
 V. Vanovschi,  L. Vogt,  Tao Wang,  A. Warshel,  M. A. Watson,  
 C. F. Williams,  Q. Wu,  X. Xu,  Jun Yang,  W. Zhang,  Yan Zhao

 Please cite Q-Chem as follows:
 Y. Shao et al., Mol. Phys. 113, 184-215 (2015)
 DOI: 10.1080/00268976.2014.952696

 Q-Chem 5.4.0 for Intel X86 EM64T Linux

 Parts of Q-Chem use Armadillo 9.800.1 (Horizon Scraper).
 http://arma.sourceforge.net/

 Q-Chem begins on Tue Jan  9 01:10:31 2024  

 Host: 
0

     Scratch files written to ./qchem2762290//
 May1621 |scratch|qcdevops|jenkins|workspace|build_RNUM    
 Parallel job on  1  processors
 Processing $rem in /cm/shared/apps/spack/cpu/opt/spack/linux-centos8-zen2/gcc-10.2.0/qchem-5.4-akfmr7b3t57bfs6qan3padb2wnb2i7cl/config/preferences:
 Processing $rem in /home/rramji/.qchemrc:
 Symmetry turned off for PCM/SM12/SMD calculation
 Core orbitals will be frozen

 Checking the input file for inconsistencies... 	...done.

 Q-Chem warning in module forms1/BasisType.C, line 2236:

 You are not using the predefined 5D/6D in this basis set.


--------------------------------------------------------------
User input:
--------------------------------------------------------------
$molecule
0 1
C	0.236226	-8.517702	-0.217225
C	-0.448921	-7.641575	0.611939
S	1.218777	-7.638634	-1.413715
C	-0.206907	-6.264785	0.323572
H	-1.118185	-7.966081	1.418739
C	0.711285	-6.072714	-0.768156
C	1.053725	-4.787049	-1.215016
C	-0.804258	-5.162801	0.999917
C	-0.464908	-3.874817	0.550033
C	0.456457	-3.683952	-0.541024
O	-1.630752	-5.499772	2.028811
O	1.883064	-4.459055	-2.249357
C	2.956754	-5.329063	-2.586579
H	3.619069	-4.755694	-3.262802
H	2.609423	-6.238095	-3.124711
H	3.531667	-5.637262	-1.686639
C	-2.599073	-4.572261	2.503251
H	-3.260097	-5.139743	3.185356
H	-3.207034	-4.153131	1.672937
H	-2.135214	-3.739531	3.075213
C	0.694410	-2.306654	-0.828107
S	-0.983256	-2.306501	1.188794
C	-0.000000	-1.435185	-0.000000
H	1.364851	-1.978138	-1.632185
H	0.234980	-9.614033	-0.221288
C	0.000000	0.000000	0.000000
S	0.382799	0.819795	1.507541
C	1.046687	2.245325	0.718873
C	0.382918	0.819389	-1.067872
C	0.968323	2.080267	-0.686410
S	0.282561	0.597432	-2.805516
C	1.017839	2.187324	-3.054530
C	1.314960	2.830306	-1.862551
F	1.875498	4.043751	-1.819088
C	1.208895	2.592573	-4.456084
O	0.890778	1.891482	-5.406510
O	1.772886	3.819715	-4.569225
C	1.986852	4.266207	-5.916207
H	2.445834	5.267032	-5.833064
H	1.028114	4.323448	-6.470168
H	2.661066	3.573494	-6.459293
H	1.436015	3.083584	1.306486
$end

$rem
JOBTYPE		SP
EXCHANGE	HF
CORRELATION	pRIMP2
BASIS		cc-pvtz
METHOD		rimp2
AUX_BASIS	rimp2-cc-pvtz
SOLVENT_METHOD	PCM
PURECART	11111
SYMMETRY	false
MEM_TOTAL	110000
SCF_CONVERGENCE = 6
THRESH=10
GUI = 2
$end



$solvent
dielectric 4.90
$end
--------------------------------------------------------------
 ----------------------------------------------------------------
             Standard Nuclear Orientation (Angstroms)
    I     Atom           X                Y                Z
 ----------------------------------------------------------------
    1      C       0.2362260000    -8.5177020000    -0.2172250000
    2      C      -0.4489210000    -7.6415750000     0.6119390000
    3      S       1.2187770000    -7.6386340000    -1.4137150000
    4      C      -0.2069070000    -6.2647850000     0.3235720000
    5      H      -1.1181850000    -7.9660810000     1.4187390000
    6      C       0.7112850000    -6.0727140000    -0.7681560000
    7      C       1.0537250000    -4.7870490000    -1.2150160000
    8      C      -0.8042580000    -5.1628010000     0.9999170000
    9      C      -0.4649080000    -3.8748170000     0.5500330000
   10      C       0.4564570000    -3.6839520000    -0.5410240000
   11      O      -1.6307520000    -5.4997720000     2.0288110000
   12      O       1.8830640000    -4.4590550000    -2.2493570000
   13      C       2.9567540000    -5.3290630000    -2.5865790000
   14      H       3.6190690000    -4.7556940000    -3.2628020000
   15      H       2.6094230000    -6.2380950000    -3.1247110000
   16      H       3.5316670000    -5.6372620000    -1.6866390000
   17      C      -2.5990730000    -4.5722610000     2.5032510000
   18      H      -3.2600970000    -5.1397430000     3.1853560000
   19      H      -3.2070340000    -4.1531310000     1.6729370000
   20      H      -2.1352140000    -3.7395310000     3.0752130000
   21      C       0.6944100000    -2.3066540000    -0.8281070000
   22      S      -0.9832560000    -2.3065010000     1.1887940000
   23      C       0.0000000000    -1.4351850000     0.0000000000
   24      H       1.3648510000    -1.9781380000    -1.6321850000
   25      H       0.2349800000    -9.6140330000    -0.2212880000
   26      C       0.0000000000     0.0000000000     0.0000000000
   27      S       0.3827990000     0.8197950000     1.5075410000
   28      C       1.0466870000     2.2453250000     0.7188730000
   29      C       0.3829180000     0.8193890000    -1.0678720000
   30      C       0.9683230000     2.0802670000    -0.6864100000
   31      S       0.2825610000     0.5974320000    -2.8055160000
   32      C       1.0178390000     2.1873240000    -3.0545300000
   33      C       1.3149600000     2.8303060000    -1.8625510000
   34      F       1.8754980000     4.0437510000    -1.8190880000
   35      C       1.2088950000     2.5925730000    -4.4560840000
   36      O       0.8907780000     1.8914820000    -5.4065100000
   37      O       1.7728860000     3.8197150000    -4.5692250000
   38      C       1.9868520000     4.2662070000    -5.9162070000
   39      H       2.4458340000     5.2670320000    -5.8330640000
   40      H       1.0281140000     4.3234480000    -6.4701680000
   41      H       2.6610660000     3.5734940000    -6.4592930000
   42      H       1.4360150000     3.0835840000     1.3064860000
 ----------------------------------------------------------------
 Nuclear Repulsion Energy =        3288.88970901 hartrees
 There are      119 alpha and      119 beta electrons
 Requested basis set is cc-pVTZ
 There are 376 shells and 1068 basis functions

 Total QAlloc Memory Limit 110000 MB
 Mega-Array Size       188 MB
 MEM_STATIC part       192 MB
 Discretize the solute cavity surface with Lebedev spheres
	Using 110 Lebedev grid points for each H atom
	Using 194 Lebedev grid points for other atoms
	Atomic van der Waals radii will be scaled by 1.20
 Remove points where switching function is < 1.0e-08
 Keep 2888 surface tesserae and discard 4168 interior tesserae
 Molecular Surface Area = 439.278 Angst**2
 Requested basis set is rimp2-cc-pVTZ
 There are 833 shells and 2903 basis functions
 A cutoff of  1.0D-10 yielded  31062 shell pairs
 There are    238548 function pairs (    309703 Cartesian)
 Smallest overlap matrix eigenvalue = 2.14E-05

 Scale SEOQF with 1.000000e-01/1.000000e-02/1.000000e-02

 Standard Electronic Orientation quadrupole field applied
 Nucleus-field energy     =     0.0000000312 hartrees
 Guess from superposition of atomic densities
 Warning:  Energy on first SCF cycle will be non-variational
 SAD guess density has 238.000000 electrons

 -----------------------------------------------------------------------
  General SCF calculation program by
  Eric Jon Sundstrom, Paul Horn, Yuezhi Mao, Dmitri Zuev, Alec White,
  David Stuck, Shaama M.S., Shane Yost, Joonho Lee, David Small,
  Daniel Levine, Susi Lehtola, Hugh Burton, Evgeny Epifanovsky,
  Bang C. Huynh
 -----------------------------------------------------------------------
 Hartree-Fock
 using 64 threads for integral computing
 -------------------------------------------------------
 OpenMP Integral computing Module                
 Release: version 1.0, May 2013, Q-Chem Inc. Pittsburgh 
 -------------------------------------------------------
 A restricted SCF calculation will be
 performed using DIIS
 SCF converges when DIIS error is below 1.0e-06
 ---------------------------------------
  Cycle       Energy         DIIS error
 ---------------------------------------
    1   -2765.2299835335      1.75e-02  
    2   -2753.8726941013      1.56e-03  
    3   -2754.2116239131      8.61e-04  
    4   -2754.2929233355      2.56e-04  
    5   -2754.3045418148      6.94e-05  
    6   -2754.3056250632      2.38e-05  
    7   -2754.3058602975      1.14e-05  
    8   -2754.3059375950      4.27e-06  
    9   -2754.3059520524      1.68e-06  
   10   -2754.3059538477      7.46e-07  Convergence criterion met
 ---------------------------------------
 SCF time:   CPU 6261.85s  wall 236.00s 

************** Final PCM Free Energy Summary **************
 G_electrostatic  =      -0.01865266 hartree =     -11.70472146 kcal/mol
 G_cavitation     =       0.00000000 hartree =       0.00000000 kcal/mol
 G_dispersion     =       0.00000000 hartree =       0.00000000 kcal/mol
 G_repulsion      =       0.00000000 hartree =       0.00000000 kcal/mol
 --------------------------------------------------
 Non-electrostatic Free Energy =       0.00000000 hartree =       0.00000000 kcal/mol
 Total                         =      -0.01865266 hartree =     -11.70472146 kcal/mol
 --------------------------------------------------
 SCF Energy (H0 + V/2)                       =   -2754.30595385 
 Solute Internal Energy (H0)                 =   -2754.28730119 
 Total Free Energy (H0 + V/2 + non-elec)     =   -2754.30595385 hartree
                                             = -1728353.07207111 kcal/mol
***********************************************************

 SCF   energy in the final basis set =    -2754.3059538477
 Total energy in the final basis set =    -2754.3059538477


 --------------------------------------------------------------
  Generalized many-body perturbation theory program
  by Joonho Lee, Fazle Rob, Xintian Feng, Evgeny Epifanovsky

 No regularization used 
 (reg. param. = 0.0000e+00)
  (P|Q)^-1/2 Time:  CPU 184.85 s  wall 3.07 s

 In RI-MP2 calculation: 
 # of frozen core orbitals: 45

 Components of the RIMP2 correlation energy:
        aaaa    correlation energy =        -0.6700643345 a.u.
        abab    correlation energy =        -3.7135014924 a.u.
        bbbb    correlation energy =        -0.6700643345 a.u.
        non-Brillouin singles      =        -0.0000000000 a.u.
        total same-spin energy     =        -1.3401286689 a.u.
        total opposite-spin energy =        -3.7135014924 a.u.

 Total  RIMP2   correlation energy =        -5.0536301613 a.u.
        RIMP2         total energy =     -2759.3595840090 a.u.

 RI-MP2 Energy Time:  CPU 3310.73 s  wall 53.51 s
 
 --------------------------------------------------------------
 
                    Orbital Energies (a.u.)
 --------------------------------------------------------------
 
 Alpha MOs
 -- Occupied --
-92.0151 -91.9993 -91.9885 -91.9859 -26.3434 -20.6147 -20.5924 -20.5905
-20.5612 -11.4094 -11.3825 -11.3191 -11.3167 -11.3137 -11.3031 -11.2975
-11.2956 -11.2946 -11.2888 -11.2871 -11.2856 -11.2854 -11.2854 -11.2837
-11.2790 -11.2607 -11.2580 -11.2538 -11.2496  -9.0138  -8.9993  -8.9891
 -8.9858  -6.6945  -6.6939  -6.6934  -6.6803  -6.6795  -6.6784  -6.6701
 -6.6694  -6.6685  -6.6668  -6.6662  -6.6653  -1.6605  -1.4672  -1.4164
 -1.4133  -1.3699  -1.2229  -1.1939  -1.1654  -1.1367  -1.0849  -1.0514
 -1.0422  -1.0234  -1.0008  -0.9878  -0.9632  -0.9597  -0.9501  -0.9393
 -0.8955  -0.8681  -0.8502  -0.8083  -0.7980  -0.7875  -0.7861  -0.7640
 -0.7553  -0.7335  -0.7254  -0.7100  -0.7015  -0.6852  -0.6827  -0.6808
 -0.6738  -0.6589  -0.6581  -0.6521  -0.6301  -0.6195  -0.6168  -0.6045
 -0.5984  -0.5826  -0.5776  -0.5708  -0.5653  -0.5616  -0.5549  -0.5492
 -0.5327  -0.5304  -0.5240  -0.5160  -0.5157  -0.5074  -0.5069  -0.4958
 -0.4877  -0.4809  -0.4760  -0.4737  -0.4687  -0.4666  -0.4599  -0.4184
 -0.3948  -0.3853  -0.3586  -0.3503  -0.3243  -0.2909  -0.2525
 -- Virtual --
  0.0290   0.0580   0.1064   0.1238   0.1346   0.1508   0.1527   0.1560
  0.1564   0.1602   0.1609   0.1701   0.1823   0.1863   0.1911   0.1958
  0.2040   0.2047   0.2150   0.2167   0.2213   0.2217   0.2244   0.2279
  0.2342   0.2397   0.2460   0.2486   0.2540   0.2640   0.2743   0.2773
  0.2908   0.2995   0.3247   0.3337   0.3358   0.3385   0.3460   0.3517
  0.3535   0.3605   0.3667   0.3794   0.3824   0.3834   0.3847   0.3862
  0.3914   0.3946   0.4021   0.4081   0.4102   0.4164   0.4237   0.4259
  0.4289   0.4367   0.4386   0.4443   0.4470   0.4512   0.4538   0.4593
  0.4593   0.4633   0.4707   0.4729   0.4812   0.4830   0.4888   0.4920
  0.4976   0.4988   0.5044   0.5091   0.5107   0.5122   0.5152   0.5216
  0.5255   0.5301   0.5338   0.5356   0.5413   0.5433   0.5465   0.5502
  0.5534   0.5539   0.5577   0.5602   0.5672   0.5697   0.5750   0.5814
  0.5887   0.5904   0.5943   0.5985   0.6030   0.6066   0.6072   0.6124
  0.6157   0.6181   0.6214   0.6218   0.6231   0.6272   0.6326   0.6368
  0.6395   0.6402   0.6441   0.6480   0.6508   0.6535   0.6660   0.6688
  0.6742   0.6801   0.6828   0.6852   0.6925   0.6991   0.7032   0.7053
  0.7113   0.7138   0.7205   0.7271   0.7316   0.7344   0.7399   0.7487
  0.7557   0.7594   0.7658   0.7718   0.7765   0.7844   0.7960   0.8009
  0.8015   0.8045   0.8164   0.8202   0.8251   0.8322   0.8384   0.8431
  0.8487   0.8511   0.8551   0.8660   0.8697   0.8744   0.8793   0.8847
  0.8902   0.8974   0.9009   0.9066   0.9089   0.9129   0.9171   0.9226
  0.9292   0.9394   0.9414   0.9468   0.9484   0.9533   0.9592   0.9698
  0.9708   0.9767   0.9818   0.9833   0.9883   0.9931   0.9985   1.0029
  1.0052   1.0139   1.0152   1.0265   1.0306   1.0339   1.0397   1.0455
  1.0486   1.0504   1.0574   1.0607   1.0689   1.0737   1.0760   1.0786
  1.0847   1.0902   1.0924   1.0980   1.1006   1.1075   1.1110   1.1149
  1.1184   1.1226   1.1258   1.1288   1.1399   1.1440   1.1519   1.1538
  1.1588   1.1673   1.1712   1.1822   1.1845   1.1862   1.1903   1.1961
  1.2021   1.2087   1.2130   1.2144   1.2203   1.2225   1.2278   1.2317
  1.2346   1.2366   1.2438   1.2498   1.2589   1.2634   1.2672   1.2708
  1.2736   1.2767   1.2825   1.2926   1.2983   1.3092   1.3130   1.3217
  1.3255   1.3346   1.3382   1.3431   1.3525   1.3565   1.3664   1.3701
  1.3733   1.3851   1.3926   1.3956   1.4041   1.4131   1.4187   1.4258
  1.4279   1.4406   1.4486   1.4544   1.4732   1.4777   1.4870   1.4915
  1.4992   1.5026   1.5034   1.5078   1.5106   1.5184   1.5210   1.5314
  1.5336   1.5390   1.5404   1.5423   1.5463   1.5489   1.5617   1.5655
  1.5753   1.5775   1.5851   1.5976   1.6086   1.6114   1.6129   1.6258
  1.6315   1.6465   1.6549   1.6606   1.6613   1.6675   1.6726   1.6824
  1.6861   1.6956   1.6967   1.7026   1.7149   1.7250   1.7262   1.7469
  1.7589   1.7638   1.7793   1.7813   1.7908   1.8035   1.8119   1.8200
  1.8237   1.8280   1.8362   1.8456   1.8606   1.8674   1.8702   1.8751
  1.8866   1.8954   1.8999   1.9086   1.9164   1.9191   1.9217   1.9341
  1.9402   1.9482   1.9514   1.9568   1.9660   1.9730   1.9772   1.9865
  1.9917   2.0013   2.0090   2.0163   2.0303   2.0354   2.0482   2.0531
  2.0686   2.0842   2.0895   2.0947   2.1050   2.1086   2.1251   2.1388
  2.1534   2.1597   2.1647   2.1673   2.1776   2.1878   2.1930   2.1943
  2.1993   2.2030   2.2063   2.2141   2.2267   2.2281   2.2370   2.2429
  2.2471   2.2522   2.2544   2.2575   2.2748   2.2750   2.2861   2.2915
  2.2989   2.3111   2.3170   2.3194   2.3291   2.3463   2.3483   2.3529
  2.3662   2.3739   2.3820   2.3895   2.3923   2.4077   2.4090   2.4198
  2.4294   2.4347   2.4391   2.4495   2.4561   2.4773   2.4816   2.4845
  2.4928   2.5028   2.5113   2.5206   2.5271   2.5448   2.5483   2.5621
  2.5630   2.5675   2.5846   2.5900   2.6034   2.6135   2.6167   2.6235
  2.6255   2.6294   2.6357   2.6376   2.6434   2.6530   2.6660   2.6697
  2.6767   2.6801   2.6895   2.6944   2.6989   2.7022   2.7081   2.7166
  2.7215   2.7279   2.7326   2.7410   2.7494   2.7551   2.7672   2.7772
  2.7826   2.7897   2.7944   2.7971   2.8025   2.8065   2.8098   2.8207
  2.8225   2.8359   2.8372   2.8430   2.8495   2.8558   2.8656   2.8707
  2.8744   2.8818   2.8827   2.8881   2.8983   2.9033   2.9162   2.9217
  2.9486   2.9509   2.9557   2.9658   2.9692   2.9799   2.9877   2.9975
  3.0024   3.0098   3.0131   3.0160   3.0213   3.0238   3.0330   3.0415
  3.0472   3.0568   3.0638   3.0681   3.0768   3.0827   3.0884   3.0932
  3.0998   3.1027   3.1101   3.1107   3.1182   3.1231   3.1311   3.1436
  3.1507   3.1541   3.1544   3.1618   3.1655   3.1678   3.1787   3.1818
  3.1888   3.1945   3.2052   3.2112   3.2138   3.2178   3.2249   3.2272
  3.2330   3.2349   3.2421   3.2486   3.2527   3.2557   3.2652   3.2681
  3.2717   3.2743   3.2831   3.2852   3.2884   3.2922   3.3025   3.3060
  3.3072   3.3150   3.3255   3.3307   3.3330   3.3380   3.3457   3.3491
  3.3509   3.3555   3.3613   3.3651   3.3667   3.3718   3.3730   3.3845
  3.3862   3.3905   3.3951   3.3970   3.4014   3.4047   3.4061   3.4139
  3.4231   3.4280   3.4343   3.4375   3.4394   3.4477   3.4509   3.4562
  3.4565   3.4603   3.4690   3.4712   3.4727   3.4752   3.4855   3.4913
  3.4952   3.5030   3.5069   3.5132   3.5196   3.5271   3.5309   3.5345
  3.5382   3.5437   3.5482   3.5538   3.5593   3.5625   3.5710   3.5788
  3.5820   3.5838   3.5926   3.5934   3.5969   3.6031   3.6048   3.6130
  3.6191   3.6247   3.6303   3.6344   3.6359   3.6500   3.6556   3.6670
  3.6703   3.6749   3.6763   3.6840   3.6880   3.6953   3.6976   3.6996
  3.7039   3.7061   3.7117   3.7184   3.7210   3.7278   3.7397   3.7412
  3.7477   3.7513   3.7569   3.7699   3.7746   3.7755   3.7826   3.7846
  3.7924   3.7958   3.8023   3.8059   3.8089   3.8132   3.8202   3.8224
  3.8249   3.8382   3.8404   3.8460   3.8528   3.8597   3.8665   3.8726
  3.8782   3.8801   3.8864   3.8913   3.9025   3.9072   3.9124   3.9254
  3.9262   3.9325   3.9448   3.9498   3.9540   3.9593   3.9681   3.9840
  3.9885   3.9894   3.9937   4.0079   4.0114   4.0294   4.0333   4.0352
  4.0456   4.0545   4.0648   4.0668   4.0692   4.0740   4.0847   4.0870
  4.1046   4.1099   4.1222   4.1255   4.1352   4.1435   4.1470   4.1534
  4.1615   4.1644   4.1667   4.1684   4.1794   4.1880   4.1901   4.1947
  4.2044   4.2083   4.2260   4.2382   4.2430   4.2452   4.2568   4.2647
  4.2706   4.2864   4.2986   4.3176   4.3212   4.3276   4.3354   4.3420
  4.3563   4.3594   4.3626   4.3767   4.3789   4.3819   4.3921   4.3937
  4.4046   4.4083   4.4126   4.4215   4.4285   4.4325   4.4385   4.4525
  4.4574   4.4697   4.4815   4.4917   4.5011   4.5027   4.5172   4.5242
  4.5384   4.5412   4.5503   4.5534   4.5595   4.5764   4.5860   4.5877
  4.5974   4.6066   4.6151   4.6264   4.6346   4.6448   4.6484   4.6542
  4.6571   4.6706   4.6780   4.6842   4.6898   4.7102   4.7178   4.7360
  4.7416   4.7527   4.7643   4.7684   4.7808   4.7865   4.8007   4.8226
  4.8315   4.8443   4.8459   4.8549   4.8702   4.8740   4.8769   4.9121
  4.9344   4.9426   4.9538   4.9565   4.9664   4.9706   4.9817   4.9939
  5.0049   5.0090   5.0138   5.0223   5.0327   5.0472   5.0544   5.0713
  5.0834   5.0995   5.1157   5.1221   5.1501   5.1626   5.1722   5.1919
  5.1998   5.2162   5.2439   5.2527   5.2530   5.2542   5.2583   5.2802
  5.2969   5.3073   5.3120   5.3256   5.3404   5.3513   5.3607   5.3657
  5.3813   5.3905   5.3994   5.4056   5.4255   5.4263   5.4322   5.4640
  5.4850   5.4880   5.5031   5.5077   5.5133   5.5287   5.5392   5.5697
  5.5735   5.5841   5.5861   5.6059   5.6178   5.6218   5.6520   5.6651
  5.7160   5.7306   5.7460   5.7784   5.8076   5.8169   5.8340   5.8560
  5.8731   5.8840   5.9123   5.9293   5.9446   5.9777   6.0031   6.0424
  6.0445   6.0847   6.1038   6.1505   6.1598   6.1710   6.1786   6.1866
  6.2384   6.2473   6.2615   6.2709   6.2811   6.2905   6.3084   6.3616
  6.4146   6.4456   6.4502   6.4888   6.5395   6.5489   6.5574   6.6038
  6.6556   6.6613   6.6713   6.6977   6.7458   6.8018   6.8299   6.8373
  6.8597   6.8927   6.9785   7.1198   7.1361   7.2040   7.2058   7.2157
  7.2347   7.3100   7.3209   7.3311   7.3631   7.3634   7.4056   7.4134
  7.4784   7.4855   7.4884   7.5233   7.5507   7.6149   7.7038   7.7729
  7.7891   7.7970   7.8947   7.9185   7.9436   7.9622   8.0796   8.1335
  8.4699   8.9220   9.0226   9.3630   9.4718   9.6574  10.0793  10.5415
 11.1739  11.4221  11.7691  11.9512  12.1276  12.1538  12.4140  12.5567
 12.6525  12.9298  12.9759  13.1479  13.3192  13.3854  13.7702  13.8476
 13.9014  14.0239  14.0418  14.6519  15.2013
 --------------------------------------------------------------
 
          Ground-State Mulliken Net Atomic Charges

     Atom                 Charge (a.u.)
  ----------------------------------------
      1 C                    -0.190354
      2 C                    -0.253764
      3 S                    -0.022598
      4 C                    -0.017874
      5 H                     0.196115
      6 C                    -0.028214
      7 C                     0.239887
      8 C                     0.244913
      9 C                    -0.044293
     10 C                    -0.021861
     11 O                    -0.333409
     12 O                    -0.339536
     13 C                    -0.085903
     14 H                     0.122843
     15 H                     0.091080
     16 H                     0.093469
     17 C                    -0.087281
     18 H                     0.125441
     19 H                     0.095122
     20 H                     0.089096
     21 C                    -0.231105
     22 S                    -0.025439
     23 C                     0.000660
     24 H                     0.201629
     25 H                     0.206140
     26 C                    -0.025444
     27 S                     0.112151
     28 C                    -0.190990
     29 C                    -0.049351
     30 C                    -0.086766
     31 S                     0.025212
     32 C                    -0.156913
     33 C                     0.400377
     34 F                    -0.206927
     35 C                     0.444173
     36 O                    -0.460918
     37 O                    -0.300877
     38 C                    -0.058426
     39 H                     0.121380
     40 H                     0.095260
     41 H                     0.095051
     42 H                     0.218244
  ----------------------------------------
  Sum of atomic charges =     0.000000

 -----------------------------------------------------------------
                    Cartesian Multipole Moments
 -----------------------------------------------------------------
    Charge (ESU x 10^10)
                 0.0000
    Dipole Moment (Debye)
         X       1.4178      Y       1.2179      Z       3.1396
       Tot       3.6539
    Quadrupole Moments (Debye-Ang)
        XX    -183.0186     XY       5.0826     YY    -163.6376
        XZ     -15.1054     YZ      -7.4304     ZZ    -197.3340
    Octopole Moments (Debye-Ang^2)
       XXX    -267.8341    XXY     328.3602    XYY     -59.8649
       YYY     896.8974    XXZ     169.5401    XYZ      35.8125
       YYZ     130.2843    XZZ     -53.0755    YZZ     440.9232
       ZZZ     591.7614
    Hexadecapole Moments (Debye-Ang^3)
      XXXX   -1932.2894   XXXY    -272.7064   XXYY   -3764.3932
      XYYY    -259.0097   YYYY  -18802.6995   XXXZ    1144.7652
      XXYZ     330.1210   XYYZ     -12.1309   YYYZ     859.0298
      XXZZ   -1222.3350   XYZZ     139.2310   YYZZ   -4215.1728
      XZZZ     972.6870   YZZZ     558.8809   ZZZZ   -6665.3484
 -----------------------------------------------------------------
 Total job time:  295.50s(wall), 9775.07s(cpu) 
 Tue Jan  9 01:15:27 2024

        *************************************************************
        *                                                           *
        *  Thank you very much for using Q-Chem.  Have a nice day.  *
        *                                                           *
        *************************************************************


0 sent ACK to 0 
now end server 0 ... 
cleanup process ... done
remove work dirs ./qchem2762290.0 -- ./qchem2762290.0
rm -rf ./qchem2762290.0
rm -rf ./qchem2762290
