You are running Q-Chem version: 5.4.0

#
# job setting
#
local host:  exp-7-31
current dir: /home/rramji/project-csd799/aromodel/ptb7fout-qchem/rotation-run
input file:  Dimethoxy_Benzodithiophene_Phi_15_Theta_70_Methylcarbonyl_3_Fluoro_Thienothiophene.qcin
output file: 
nprocs     : 1
nthreads   : 64
#
# qchem installation setting
#
QC:          /cm/shared/apps/spack/cpu/opt/spack/linux-centos8-zen2/gcc-10.2.0/qchem-5.4-akfmr7b3t57bfs6qan3padb2wnb2i7cl
QCAUX:       /cm/shared/apps/spack/cpu/opt/spack/linux-centos8-zen2/gcc-10.2.0/qchem-5.4-akfmr7b3t57bfs6qan3padb2wnb2i7cl/qcaux
QCPROG:      /cm/shared/apps/spack/cpu/opt/spack/linux-centos8-zen2/gcc-10.2.0/qchem-5.4-akfmr7b3t57bfs6qan3padb2wnb2i7cl/exe/qcprog.exe
QCPROG_S:    /cm/shared/apps/spack/cpu/opt/spack/linux-centos8-zen2/gcc-10.2.0/qchem-5.4-akfmr7b3t57bfs6qan3padb2wnb2i7cl/exe/qcprog.exe_s
PARALLEL:    -DPARALLEL
QCMPI:       mpich
#
# qchem directory setting
#
qcrun:       qchem3969444
QCSCRATCH:   .
QCLOCALSCR:  
QCTMPDIR:    .
QCFILEPREF:  ./qchem3969444
QCSAVEDIR:   
workdirs:    ./qchem3969444
workdir0:    ./qchem3969444
partmpdirs =  
#
# parallel setting
#
QCRSH:           ssh
QCMPI:           mpich
QCMPIRUN:        /cm/shared/apps/spack/cpu/opt/spack/linux-centos8-zen2/gcc-10.2.0/qchem-5.4-akfmr7b3t57bfs6qan3padb2wnb2i7cl/bin/mpi/mpirun_qchem
QCMACHINEFILE:   ./qchem3969444/hostfile
exp-7-31

#
# env setting
#
exported envs:   QC QCAUX QCSCRATCH QCRUNNAME QCFILEPREF QCPROG QCPROG_S GUIFILE

Running Job 1 of 1 Dimethoxy_Benzodithiophene_Phi_15_Theta_70_Methylcarbonyl_3_Fluoro_Thienothiophene.qcin
qchem Dimethoxy_Benzodithiophene_Phi_15_Theta_70_Methylcarbonyl_3_Fluoro_Thienothiophene.qcin_3969444.0 ./qchem3969444/ 1
/cm/shared/apps/spack/cpu/opt/spack/linux-centos8-zen2/gcc-10.2.0/qchem-5.4-akfmr7b3t57bfs6qan3padb2wnb2i7cl/bin/mpi/mpirun_qchem -machinefile ./qchem3969444/hostfile -np 1 /cm/shared/apps/spack/cpu/opt/spack/linux-centos8-zen2/gcc-10.2.0/qchem-5.4-akfmr7b3t57bfs6qan3padb2wnb2i7cl/exe/qcprog.exe Dimethoxy_Benzodithiophene_Phi_15_Theta_70_Methylcarbonyl_3_Fluoro_Thienothiophene.qcin_3969444.0 ./qchem3969444/

Process 0 of 1 is on exp-7-31 - thread support 0
initial socket setup ...start
initial socket setup ...done 
now start server 0 ... 
                  Welcome to Q-Chem
     A Quantum Leap Into The Future Of Chemistry


 Q-Chem 5.4, Q-Chem, Inc., Pleasanton, CA (2021)

 License issued to: University of California, San Diego (site)

 E. Epifanovsky,  A. T. B. Gilbert,  Xintian Feng,  Joonho Lee,  Yuezhi Mao,  
 N. Mardirossian,  P. Pokhilko,  A. White,  M. Wormit,  M. P. Coons,  
 A. L. Dempwolff,  Zhengting Gan,  D. Hait,  P. R. Horn,  L. D. Jacobson,  
 I. Kaliman,  J. Kussmann,  A. W. Lange,  Ka Un Lao,  D. S. Levine,  Jie Liu,  
 S. C. McKenzie,  A. F. Morrison,  K. Nanda,  F. Plasser,  D. R. Rehn,  
 M. L. Vidal,  Zhi-Qiang You,  Ying Zhu,  B. Alam,  B. Albrecht,  
 A. Aldossary,  E. Alguire,  J. H. Andersen,  D. Barton,  K. Begam,  A. Behn,  
 Y. A. Bernard,  E. J. Berquist,  H. Burton,  A. Carreras,  K. Carter-Fenk,  
 R. Chakraborty,  A. D. Chien,  K. D. Closser,  V. Cofer-Shabica,  
 S. Dasgupta,  Jia Deng,  M. de Wergifosse,  M. Diedenhofen,  Hainam Do,  
 S. Ehlert,  Po-Tung Fang,  S. Fatehi,  Qingguo Feng,  J. Gayvert,  
 Qinghui Ge,  G. Gidofalvi,  M. Goldey,  J. Gomes,  C. Gonzalez-Espinoza,  
 S. Gulania,  A. Gunina,  M. W. D. Hanson-Heine,  P. H. P. Harbach,  
 A. W. Hauser,  M. F. Herbst,  M. Hernandez Vera,  M. Hodecker,  
 Z. C. Holden,  S. Houck,  Xunkun Huang,  Kerwin Hui,  B. C. Huynh,  
 M. Ivanov,  Hyunjun Ji,  Hanjie Jiang,  B. Kaduk,  S. Kaehler,  
 K. Khistyaev,  Jaehoon Kim,  P. Klunzinger,  Z. Koczor-Benda,  
 Joong Hoon Koh,  D. Kosenkov,  L. Koulias,  T. Kowalczyk,  C. M. Krauter,  
 K. Kue,  A. Kunitsa,  T. Kus,  A. Landau,  K. V. Lawler,  D. Lefrancois,  
 S. Lehtola,  Rain Li,  Yi-Pei Li,  Jiashu Liang,  M. Liebenthal,  
 Hung-Hsuan Lin,  You-Sheng Lin,  Fenglai Liu,  Kuan-Yu Liu,  
 M. Loipersberger,  A. Luenser,  A. Manjanath,  P. Manohar,  E. Mansoor,  
 S. F. Manzer,  Shan-Ping Mao,  A. V. Marenich,  T. Markovich,  S. Mason,  
 S. A. Maurer,  P. F. McLaughlin,  M. F. S. J. Menger,  J.-M. Mewes,  
 S. A. Mewes,  P. Morgante,  J. W. Mullinax,  T. S. Nguyen-Beck,  
 K. J. Oosterbaan,  G. Paran,  Alexander C. Paul,  Suranjan K. Paul,  
 F. Pavosevic,  Zheng Pei,  S. Prager,  E. I. Proynov,  E. Ramos,  B. Rana,  
 A. E. Rask,  A. Rettig,  R. M. Richard,  F. Rob,  E. Rossomme,  T. Scheele,  
 M. Scheurer,  M. Schneider,  N. Sergueev,  S. M. Sharada,  W. Skomorowski,  
 D. W. Small,  C. J. Stein,  Yu-Chuan Su,  E. J. Sundstrom,  Zhen Tao,  
 J. Thirman,  T. Tsuchimochi,  N. M. Tubman,  S. P. Veccham,  O. Vydrov,  
 J. Wenzel,  J. Witte,  A. Yamada,  Kun Yao,  S. Yeganeh,  S. R. Yost,  
 A. Zech,  Igor Ying Zhang,  Xing Zhang,  Yu Zhang,  D. Zuev,  
 A. Aspuru-Guzik,  A. T. Bell,  N. A. Besley,  K. B. Bravaya,  B. R. Brooks,  
 D. Casanova,  Jeng-Da Chai,  S. Coriani,  C. J. Cramer,  
 A. E. DePrince, III,  R. A. DiStasio Jr.,  A. Dreuw,  B. D. Dunietz,  
 T. R. Furlani,  W. A. Goddard III,  S. Grimme,  S. Hammes-Schiffer,  
 T. Head-Gordon,  W. J. Hehre,  Chao-Ping Hsu,  T.-C. Jagau,  Yousung Jung,  
 A. Klamt,  Jing Kong,  D. S. Lambrecht,  WanZhen Liang,  N. J. Mayhall,  
 C. W. McCurdy,  J. B. Neaton,  C. Ochsenfeld,  J. A. Parkhill,  R. Peverati,  
 V. A. Rassolov,  Yihan Shao,  L. V. Slipchenko,  T. Stauch,  R. P. Steele,  
 J. E. Subotnik,  A. J. W. Thom,  A. Tkatchenko,  D. G. Truhlar,  
 T. Van Voorhis,  T. A. Wesolowski,  K. B. Whaley,  H. L. Woodcock III,  
 P. M. Zimmerman,  S. Faraji,  P. M. W. Gill,  M. Head-Gordon,  
 J. M. Herbert,  A. I. Krylov

 Contributors to earlier versions of Q-Chem not listed above: 
 R. D. Adamson,  B. Austin,  R. Baer,  J. Baker,  G. J. O. Beran,  
 K. Brandhorst,  S. T. Brown,  E. F. C. Byrd,  A. K. Chakraborty,  
 G. K. L. Chan,  Chun-Min Chang,  Yunqing Chen,  C.-L. Cheng,  
 Siu Hung Chien,  D. M. Chipman,  D. L. Crittenden,  H. Dachsel,  
 R. J. Doerksen,  A. D. Dutoi,  R. G. Edgar,  J. Fosso-Tande,  
 L. Fusti-Molnar,  D. Ghosh,  A. Ghysels,  A. Golubeva-Zadorozhnaya,  
 J. Gonthier,  M. S. Gordon,  S. R. Gwaltney,  G. Hawkins,  J. E. Herr,  
 A. Heyden,  S. Hirata,  E. G. Hohenstein,  G. Kedziora,  F. J. Keil,  
 C. Kelley,  Jihan Kim,  R. A. King,  R. Z. Khaliullin,  P. P. Korambath,  
 W. Kurlancheek,  A. Laurent,  A. M. Lee,  M. S. Lee,  S. V. Levchenko,  
 Ching Yeh Lin,  D. Liotard,  E. Livshits,  R. C. Lochan,  I. Lotan,  
 L. A. Martinez-Martinez,  P. E. Maslen,  N. Nair,  D. P. O'Neill,  
 D. Neuhauser,  E. Neuscamman,  C. M. Oana,  R. Olivares-Amaya,  R. Olson,  
 T. M. Perrine,  B. Peters,  P. A. Pieniazek,  A. Prociuk,  Y. M. Rhee,  
 J. Ritchie,  M. A. Rohrdanz,  E. Rosta,  N. J. Russ,  H. F. Schaefer III,  
 M. W. Schmidt,  N. E. Schultz,  S. Sharma,  N. Shenvi,  C. D. Sherrill,  
 A. C. Simmonett,  A. Sodt,  T. Stein,  D. Stuck,  K. S. Thanthiriwatte,  
 V. Vanovschi,  L. Vogt,  Tao Wang,  A. Warshel,  M. A. Watson,  
 C. F. Williams,  Q. Wu,  X. Xu,  Jun Yang,  W. Zhang,  Yan Zhao

 Please cite Q-Chem as follows:
 Y. Shao et al., Mol. Phys. 113, 184-215 (2015)
 DOI: 10.1080/00268976.2014.952696

 Q-Chem 5.4.0 for Intel X86 EM64T Linux

 Parts of Q-Chem use Armadillo 9.800.1 (Horizon Scraper).
 http://arma.sourceforge.net/

 Q-Chem begins on Mon Jan  8 19:22:40 2024  

 Host: 
0

     Scratch files written to ./qchem3969444//
 May1621 |scratch|qcdevops|jenkins|workspace|build_RNUM    
 Parallel job on  1  processors
 Processing $rem in /cm/shared/apps/spack/cpu/opt/spack/linux-centos8-zen2/gcc-10.2.0/qchem-5.4-akfmr7b3t57bfs6qan3padb2wnb2i7cl/config/preferences:
 Processing $rem in /home/rramji/.qchemrc:
 Symmetry turned off for PCM/SM12/SMD calculation
 Core orbitals will be frozen

 Checking the input file for inconsistencies... 	...done.

 Q-Chem warning in module forms1/BasisType.C, line 2236:

 You are not using the predefined 5D/6D in this basis set.


--------------------------------------------------------------
User input:
--------------------------------------------------------------
$molecule
0 1
C	-0.313191	-8.517702	0.070009
C	0.694746	-7.641575	-0.305494
S	-1.762350	-7.638634	0.614924
C	0.340973	-6.264785	-0.176768
H	1.677747	-7.966081	-0.669571
C	-1.000069	-6.072714	0.309600
C	-1.520060	-4.787049	0.525372
C	1.196466	-5.162801	-0.463825
C	0.677639	-3.874817	-0.243888
C	-0.665815	-3.683952	0.240312
O	2.426678	-5.499772	-0.941626
O	-2.755460	-4.459055	1.006468
C	-3.853913	-5.329063	0.761666
H	-4.765607	-4.755694	1.016135
H	-3.822182	-6.238095	1.401368
H	-3.901833	-5.637262	-0.305161
C	3.502489	-4.572261	-0.868342
H	4.416005	-5.139743	-1.128551
H	3.613841	-4.153131	0.154712
H	3.386756	-3.739531	-1.595605
C	-1.015430	-2.306654	0.369957
S	1.445922	-2.306501	-0.537898
C	0.000000	-1.435185	0.000000
H	-1.998088	-1.978138	0.731088
H	-0.314143	-9.614033	0.074151
C	0.000000	0.000000	0.000000
S	0.234628	0.873813	1.507541
C	0.640889	2.392969	0.718873
C	0.234815	0.873434	-1.067872
C	0.592377	2.216811	-0.686410
S	0.174526	0.637422	-2.805516
C	0.622551	2.330840	-3.054530
C	0.803505	3.015647	-1.862551
F	1.144815	4.307994	-1.819088
C	0.740334	2.763108	-4.456084
O	0.548793	2.017428	-5.406510
O	1.082665	4.069544	-4.569225
C	1.215848	4.546407	-5.916207
H	1.494066	5.611729	-5.833064
H	0.261736	4.436296	-6.470168
H	2.000108	3.981294	-6.459293
H	0.878739	3.286099	1.306486
$end

$rem
JOBTYPE		SP
EXCHANGE	HF
CORRELATION	pRIMP2
BASIS		cc-pvtz
METHOD		rimp2
AUX_BASIS	rimp2-cc-pvtz
SOLVENT_METHOD	PCM
PURECART	11111
SYMMETRY	false
MEM_TOTAL	110000
SCF_CONVERGENCE = 6
THRESH=10
GUI = 2
$end



$solvent
dielectric 4.90
$end
--------------------------------------------------------------
 ----------------------------------------------------------------
             Standard Nuclear Orientation (Angstroms)
    I     Atom           X                Y                Z
 ----------------------------------------------------------------
    1      C      -0.3131910000    -8.5177020000     0.0700090000
    2      C       0.6947460000    -7.6415750000    -0.3054940000
    3      S      -1.7623500000    -7.6386340000     0.6149240000
    4      C       0.3409730000    -6.2647850000    -0.1767680000
    5      H       1.6777470000    -7.9660810000    -0.6695710000
    6      C      -1.0000690000    -6.0727140000     0.3096000000
    7      C      -1.5200600000    -4.7870490000     0.5253720000
    8      C       1.1964660000    -5.1628010000    -0.4638250000
    9      C       0.6776390000    -3.8748170000    -0.2438880000
   10      C      -0.6658150000    -3.6839520000     0.2403120000
   11      O       2.4266780000    -5.4997720000    -0.9416260000
   12      O      -2.7554600000    -4.4590550000     1.0064680000
   13      C      -3.8539130000    -5.3290630000     0.7616660000
   14      H      -4.7656070000    -4.7556940000     1.0161350000
   15      H      -3.8221820000    -6.2380950000     1.4013680000
   16      H      -3.9018330000    -5.6372620000    -0.3051610000
   17      C       3.5024890000    -4.5722610000    -0.8683420000
   18      H       4.4160050000    -5.1397430000    -1.1285510000
   19      H       3.6138410000    -4.1531310000     0.1547120000
   20      H       3.3867560000    -3.7395310000    -1.5956050000
   21      C      -1.0154300000    -2.3066540000     0.3699570000
   22      S       1.4459220000    -2.3065010000    -0.5378980000
   23      C       0.0000000000    -1.4351850000     0.0000000000
   24      H      -1.9980880000    -1.9781380000     0.7310880000
   25      H      -0.3141430000    -9.6140330000     0.0741510000
   26      C       0.0000000000     0.0000000000     0.0000000000
   27      S       0.2346280000     0.8738130000     1.5075410000
   28      C       0.6408890000     2.3929690000     0.7188730000
   29      C       0.2348150000     0.8734340000    -1.0678720000
   30      C       0.5923770000     2.2168110000    -0.6864100000
   31      S       0.1745260000     0.6374220000    -2.8055160000
   32      C       0.6225510000     2.3308400000    -3.0545300000
   33      C       0.8035050000     3.0156470000    -1.8625510000
   34      F       1.1448150000     4.3079940000    -1.8190880000
   35      C       0.7403340000     2.7631080000    -4.4560840000
   36      O       0.5487930000     2.0174280000    -5.4065100000
   37      O       1.0826650000     4.0695440000    -4.5692250000
   38      C       1.2158480000     4.5464070000    -5.9162070000
   39      H       1.4940660000     5.6117290000    -5.8330640000
   40      H       0.2617360000     4.4362960000    -6.4701680000
   41      H       2.0001080000     3.9812940000    -6.4592930000
   42      H       0.8787390000     3.2860990000     1.3064860000
 ----------------------------------------------------------------
 Nuclear Repulsion Energy =        3279.25591327 hartrees
 There are      119 alpha and      119 beta electrons
 Requested basis set is cc-pVTZ
 There are 376 shells and 1068 basis functions

 Total QAlloc Memory Limit 110000 MB
 Mega-Array Size       188 MB
 MEM_STATIC part       192 MB
 Discretize the solute cavity surface with Lebedev spheres
	Using 110 Lebedev grid points for each H atom
	Using 194 Lebedev grid points for other atoms
	Atomic van der Waals radii will be scaled by 1.20
 Remove points where switching function is < 1.0e-08
 Keep 2911 surface tesserae and discard 4145 interior tesserae
 Molecular Surface Area = 442.269 Angst**2
 Requested basis set is rimp2-cc-pVTZ
 There are 833 shells and 2903 basis functions
 A cutoff of  1.0D-10 yielded  30760 shell pairs
 There are    236588 function pairs (    307354 Cartesian)
 Smallest overlap matrix eigenvalue = 2.21E-05

 Scale SEOQF with 1.000000e-01/1.000000e-02/1.000000e-02

 Standard Electronic Orientation quadrupole field applied
 Nucleus-field energy     =     0.0000000397 hartrees
 Guess from superposition of atomic densities
 Warning:  Energy on first SCF cycle will be non-variational
 SAD guess density has 238.000000 electrons

 -----------------------------------------------------------------------
  General SCF calculation program by
  Eric Jon Sundstrom, Paul Horn, Yuezhi Mao, Dmitri Zuev, Alec White,
  David Stuck, Shaama M.S., Shane Yost, Joonho Lee, David Small,
  Daniel Levine, Susi Lehtola, Hugh Burton, Evgeny Epifanovsky,
  Bang C. Huynh
 -----------------------------------------------------------------------
 Hartree-Fock
 using 64 threads for integral computing
 -------------------------------------------------------
 OpenMP Integral computing Module                
 Release: version 1.0, May 2013, Q-Chem Inc. Pittsburgh 
 -------------------------------------------------------
 A restricted SCF calculation will be
 performed using DIIS
 SCF converges when DIIS error is below 1.0e-06
 ---------------------------------------
  Cycle       Energy         DIIS error
 ---------------------------------------
    1   -2765.2053147977      1.75e-02  
    2   -2753.8798537545      1.56e-03  
    3   -2754.2173906769      8.60e-04  
    4   -2754.2982938880      2.56e-04  
    5   -2754.3099103503      6.94e-05  
    6   -2754.3109938674      2.37e-05  
    7   -2754.3112311917      1.14e-05  
    8   -2754.3113091203      4.31e-06  
    9   -2754.3113239486      1.68e-06  
   10   -2754.3113257358      7.17e-07  Convergence criterion met
 ---------------------------------------
 SCF time:   CPU 6220.29s  wall 237.00s 

************** Final PCM Free Energy Summary **************
 G_electrostatic  =      -0.01874247 hartree =     -11.76107946 kcal/mol
 G_cavitation     =       0.00000000 hartree =       0.00000000 kcal/mol
 G_dispersion     =       0.00000000 hartree =       0.00000000 kcal/mol
 G_repulsion      =       0.00000000 hartree =       0.00000000 kcal/mol
 --------------------------------------------------
 Non-electrostatic Free Energy =       0.00000000 hartree =       0.00000000 kcal/mol
 Total                         =      -0.01874247 hartree =     -11.76107946 kcal/mol
 --------------------------------------------------
 SCF Energy (H0 + V/2)                       =   -2754.31132574 
 Solute Internal Energy (H0)                 =   -2754.29258326 
 Total Free Energy (H0 + V/2 + non-elec)     =   -2754.31132574 hartree
                                             = -1728356.44298177 kcal/mol
***********************************************************

 SCF   energy in the final basis set =    -2754.3113257358
 Total energy in the final basis set =    -2754.3113257358


 --------------------------------------------------------------
  Generalized many-body perturbation theory program
  by Joonho Lee, Fazle Rob, Xintian Feng, Evgeny Epifanovsky

 No regularization used 
 (reg. param. = 0.0000e+00)
  (P|Q)^-1/2 Time:  CPU 215.50 s  wall 3.87 s

 In RI-MP2 calculation: 
 # of frozen core orbitals: 45

 Components of the RIMP2 correlation energy:
        aaaa    correlation energy =        -0.6692624990 a.u.
        abab    correlation energy =        -3.7119995984 a.u.
        bbbb    correlation energy =        -0.6692624990 a.u.
        non-Brillouin singles      =        -0.0000000000 a.u.
        total same-spin energy     =        -1.3385249980 a.u.
        total opposite-spin energy =        -3.7119995984 a.u.

 Total  RIMP2   correlation energy =        -5.0505245964 a.u.
        RIMP2         total energy =     -2759.3618503322 a.u.

 RI-MP2 Energy Time:  CPU 2681.54 s  wall 43.50 s
 
 --------------------------------------------------------------
 
                    Orbital Energies (a.u.)
 --------------------------------------------------------------
 
 Alpha MOs
 -- Occupied --
-92.0146 -91.9972 -91.9889 -91.9865 -26.3427 -20.6143 -20.5923 -20.5918
-20.5606 -11.4087 -11.3815 -11.3191 -11.3183 -11.3097 -11.3004 -11.2965
-11.2955 -11.2915 -11.2885 -11.2869 -11.2862 -11.2861 -11.2840 -11.2838
-11.2801 -11.2603 -11.2593 -11.2572 -11.2501  -9.0130  -8.9972  -8.9893
 -8.9864  -6.6937  -6.6931  -6.6926  -6.6782  -6.6775  -6.6764  -6.6702
 -6.6695  -6.6686  -6.6674  -6.6668  -6.6659  -1.6598  -1.4667  -1.4164
 -1.4145  -1.3694  -1.2205  -1.1943  -1.1652  -1.1351  -1.0844  -1.0520
 -1.0407  -1.0220  -1.0016  -0.9876  -0.9624  -0.9595  -0.9502  -0.9387
 -0.8958  -0.8668  -0.8509  -0.8110  -0.7918  -0.7883  -0.7864  -0.7650
 -0.7549  -0.7338  -0.7247  -0.7092  -0.6999  -0.6847  -0.6832  -0.6803
 -0.6734  -0.6591  -0.6572  -0.6527  -0.6303  -0.6201  -0.6172  -0.6049
 -0.5971  -0.5849  -0.5775  -0.5691  -0.5660  -0.5601  -0.5558  -0.5498
 -0.5324  -0.5304  -0.5239  -0.5160  -0.5149  -0.5085  -0.5046  -0.4956
 -0.4894  -0.4795  -0.4750  -0.4729  -0.4693  -0.4660  -0.4606  -0.4072
 -0.3987  -0.3859  -0.3567  -0.3490  -0.3182  -0.2948  -0.2585
 -- Virtual --
  0.0353   0.0593   0.1065   0.1244   0.1358   0.1460   0.1509   0.1554
  0.1561   0.1592   0.1605   0.1722   0.1800   0.1824   0.1880   0.1912
  0.2026   0.2044   0.2151   0.2165   0.2202   0.2218   0.2241   0.2286
  0.2316   0.2373   0.2417   0.2475   0.2546   0.2658   0.2710   0.2772
  0.2839   0.3015   0.3251   0.3301   0.3345   0.3366   0.3422   0.3453
  0.3491   0.3523   0.3691   0.3782   0.3817   0.3844   0.3851   0.3880
  0.3894   0.3976   0.4009   0.4021   0.4092   0.4101   0.4191   0.4212
  0.4249   0.4293   0.4385   0.4408   0.4453   0.4513   0.4563   0.4600
  0.4614   0.4618   0.4671   0.4720   0.4730   0.4800   0.4836   0.4876
  0.4916   0.4982   0.5021   0.5073   0.5126   0.5148   0.5201   0.5223
  0.5283   0.5329   0.5342   0.5410   0.5431   0.5455   0.5457   0.5492
  0.5514   0.5546   0.5583   0.5620   0.5680   0.5693   0.5749   0.5779
  0.5824   0.5911   0.5915   0.5964   0.5989   0.6046   0.6071   0.6087
  0.6147   0.6161   0.6198   0.6229   0.6230   0.6284   0.6302   0.6352
  0.6370   0.6428   0.6463   0.6478   0.6498   0.6574   0.6591   0.6634
  0.6713   0.6785   0.6833   0.6872   0.6916   0.6962   0.7008   0.7048
  0.7113   0.7144   0.7155   0.7217   0.7277   0.7280   0.7411   0.7487
  0.7543   0.7548   0.7625   0.7656   0.7764   0.7861   0.7934   0.8036
  0.8075   0.8114   0.8159   0.8184   0.8222   0.8262   0.8322   0.8412
  0.8443   0.8518   0.8606   0.8631   0.8715   0.8732   0.8771   0.8827
  0.8846   0.8926   0.8990   0.9030   0.9091   0.9109   0.9199   0.9277
  0.9326   0.9370   0.9414   0.9460   0.9486   0.9498   0.9597   0.9679
  0.9690   0.9768   0.9807   0.9834   0.9918   0.9931   0.9989   1.0040
  1.0083   1.0134   1.0150   1.0209   1.0268   1.0302   1.0383   1.0404
  1.0465   1.0508   1.0550   1.0617   1.0681   1.0697   1.0738   1.0802
  1.0812   1.0854   1.0923   1.0967   1.0979   1.1044   1.1059   1.1122
  1.1150   1.1157   1.1280   1.1347   1.1415   1.1448   1.1495   1.1527
  1.1625   1.1676   1.1729   1.1752   1.1801   1.1861   1.1871   1.2005
  1.2027   1.2064   1.2106   1.2150   1.2171   1.2245   1.2267   1.2287
  1.2330   1.2365   1.2457   1.2495   1.2616   1.2627   1.2659   1.2704
  1.2746   1.2778   1.2834   1.2964   1.3037   1.3059   1.3130   1.3138
  1.3193   1.3234   1.3301   1.3419   1.3461   1.3566   1.3637   1.3709
  1.3725   1.3863   1.3875   1.3989   1.4015   1.4065   1.4117   1.4177
  1.4322   1.4361   1.4410   1.4641   1.4697   1.4755   1.4855   1.4913
  1.4916   1.4970   1.5025   1.5090   1.5141   1.5179   1.5251   1.5333
  1.5348   1.5381   1.5400   1.5444   1.5483   1.5509   1.5581   1.5693
  1.5736   1.5823   1.5843   1.5941   1.6039   1.6102   1.6254   1.6287
  1.6361   1.6431   1.6481   1.6567   1.6643   1.6694   1.6717   1.6797
  1.6886   1.6947   1.6997   1.7025   1.7110   1.7230   1.7326   1.7534
  1.7591   1.7652   1.7758   1.7790   1.7894   1.7991   1.8120   1.8183
  1.8217   1.8230   1.8330   1.8529   1.8602   1.8623   1.8679   1.8704
  1.8816   1.8864   1.8931   1.9062   1.9100   1.9191   1.9248   1.9332
  1.9367   1.9521   1.9587   1.9600   1.9704   1.9776   1.9811   1.9875
  1.9977   2.0009   2.0077   2.0112   2.0205   2.0325   2.0394   2.0526
  2.0566   2.0835   2.0890   2.0931   2.1005   2.1161   2.1247   2.1320
  2.1438   2.1590   2.1614   2.1694   2.1774   2.1856   2.1938   2.1961
  2.1994   2.2069   2.2073   2.2124   2.2213   2.2298   2.2371   2.2442
  2.2448   2.2573   2.2590   2.2685   2.2712   2.2793   2.2880   2.2977
  2.3054   2.3071   2.3163   2.3309   2.3365   2.3397   2.3509   2.3592
  2.3679   2.3709   2.3828   2.3932   2.3975   2.4072   2.4178   2.4239
  2.4280   2.4357   2.4473   2.4503   2.4562   2.4740   2.4835   2.4868
  2.4980   2.5033   2.5106   2.5255   2.5333   2.5404   2.5514   2.5559
  2.5679   2.5759   2.5814   2.6005   2.6058   2.6116   2.6163   2.6244
  2.6267   2.6271   2.6332   2.6366   2.6435   2.6508   2.6602   2.6680
  2.6783   2.6796   2.6867   2.6936   2.6975   2.7001   2.7063   2.7109
  2.7175   2.7247   2.7317   2.7417   2.7451   2.7525   2.7554   2.7694
  2.7800   2.7847   2.7872   2.7963   2.8023   2.8092   2.8175   2.8202
  2.8263   2.8382   2.8425   2.8446   2.8525   2.8591   2.8611   2.8712
  2.8763   2.8798   2.8856   2.8937   2.8996   2.9051   2.9209   2.9274
  2.9385   2.9477   2.9544   2.9670   2.9685   2.9791   2.9832   2.9898
  3.0047   3.0065   3.0155   3.0208   3.0238   3.0256   3.0352   3.0414
  3.0452   3.0601   3.0620   3.0681   3.0813   3.0905   3.0960   3.0997
  3.1040   3.1042   3.1077   3.1147   3.1190   3.1241   3.1344   3.1425
  3.1504   3.1541   3.1545   3.1643   3.1681   3.1759   3.1787   3.1828
  3.1860   3.1945   3.1990   3.2106   3.2168   3.2174   3.2243   3.2305
  3.2329   3.2367   3.2442   3.2487   3.2520   3.2558   3.2593   3.2699
  3.2727   3.2745   3.2827   3.2872   3.2913   3.2931   3.3019   3.3054
  3.3136   3.3204   3.3251   3.3274   3.3306   3.3400   3.3449   3.3473
  3.3494   3.3544   3.3577   3.3614   3.3660   3.3707   3.3751   3.3784
  3.3867   3.3892   3.3918   3.3930   3.4002   3.4037   3.4050   3.4167
  3.4216   3.4310   3.4356   3.4365   3.4415   3.4442   3.4526   3.4537
  3.4590   3.4661   3.4703   3.4712   3.4740   3.4780   3.4850   3.4890
  3.4935   3.5016   3.5075   3.5122   3.5147   3.5272   3.5277   3.5341
  3.5439   3.5478   3.5517   3.5581   3.5608   3.5640   3.5676   3.5763
  3.5801   3.5870   3.5914   3.5981   3.6004   3.6054   3.6095   3.6202
  3.6241   3.6278   3.6326   3.6348   3.6381   3.6509   3.6594   3.6635
  3.6676   3.6714   3.6757   3.6825   3.6887   3.6905   3.6969   3.6986
  3.7057   3.7062   3.7093   3.7146   3.7234   3.7330   3.7378   3.7425
  3.7441   3.7497   3.7518   3.7630   3.7672   3.7745   3.7763   3.7902
  3.7929   3.7962   3.8008   3.8038   3.8075   3.8117   3.8177   3.8202
  3.8291   3.8359   3.8415   3.8443   3.8551   3.8600   3.8669   3.8714
  3.8766   3.8799   3.8892   3.8941   3.8949   3.9085   3.9127   3.9181
  3.9283   3.9311   3.9413   3.9504   3.9570   3.9640   3.9750   3.9819
  3.9878   3.9934   3.9990   4.0024   4.0081   4.0165   4.0231   4.0335
  4.0426   4.0600   4.0621   4.0682   4.0769   4.0820   4.0825   4.0907
  4.1113   4.1186   4.1247   4.1371   4.1401   4.1455   4.1475   4.1532
  4.1591   4.1667   4.1697   4.1747   4.1763   4.1833   4.1893   4.2033
  4.2055   4.2075   4.2168   4.2314   4.2429   4.2456   4.2537   4.2663
  4.2729   4.2826   4.2897   4.3116   4.3187   4.3230   4.3312   4.3421
  4.3515   4.3554   4.3595   4.3668   4.3748   4.3818   4.3887   4.3916
  4.4061   4.4086   4.4127   4.4225   4.4301   4.4322   4.4360   4.4506
  4.4566   4.4683   4.4772   4.4852   4.5009   4.5049   4.5130   4.5228
  4.5314   4.5383   4.5463   4.5527   4.5608   4.5701   4.5795   4.5824
  4.5920   4.6037   4.6064   4.6226   4.6318   4.6500   4.6520   4.6582
  4.6646   4.6700   4.6815   4.6844   4.6886   4.7199   4.7299   4.7314
  4.7433   4.7627   4.7704   4.7712   4.7748   4.7886   4.8070   4.8153
  4.8279   4.8444   4.8478   4.8549   4.8661   4.8806   4.9148   4.9172
  4.9280   4.9429   4.9454   4.9579   4.9618   4.9693   4.9858   4.9874
  5.0054   5.0089   5.0093   5.0131   5.0431   5.0510   5.0605   5.0720
  5.0849   5.1036   5.1156   5.1226   5.1595   5.1699   5.1766   5.1934
  5.2042   5.2197   5.2419   5.2515   5.2548   5.2563   5.2604   5.2820
  5.2936   5.3093   5.3121   5.3291   5.3411   5.3511   5.3544   5.3625
  5.3711   5.3962   5.3984   5.4159   5.4266   5.4346   5.4564   5.4635
  5.4853   5.4893   5.5032   5.5071   5.5130   5.5262   5.5435   5.5561
  5.5759   5.5805   5.5842   5.6056   5.6222   5.6232   5.6370   5.6656
  5.7121   5.7262   5.7582   5.7823   5.8080   5.8148   5.8422   5.8560
  5.8711   5.8779   5.9046   5.9204   5.9297   5.9764   5.9891   6.0426
  6.0631   6.0679   6.0938   6.1509   6.1638   6.1717   6.1771   6.1899
  6.2318   6.2521   6.2619   6.2660   6.2801   6.2910   6.3036   6.3258
  6.4134   6.4419   6.4507   6.4748   6.5392   6.5481   6.5555   6.6033
  6.6524   6.6615   6.6718   6.6940   6.7461   6.7991   6.8301   6.8384
  6.8601   6.8918   6.9787   7.1197   7.1363   7.2045   7.2065   7.2156
  7.2333   7.3105   7.3191   7.3313   7.3637   7.3638   7.4069   7.4138
  7.4787   7.4862   7.4875   7.5243   7.5509   7.6154   7.7115   7.7736
  7.7894   7.7962   7.8957   7.9177   7.9439   7.9586   8.1113   8.1350
  8.4508   8.9225   9.0202   9.3634   9.4753   9.6539  10.1345  10.6376
 11.1553  11.5133  11.7755  11.9103  12.1235  12.1716  12.4117  12.5694
 12.7010  12.9466  13.0154  13.2024  13.2794  13.3862  13.7703  13.8466
 13.9013  14.0119  14.0315  14.4052  15.1917
 --------------------------------------------------------------
 
          Ground-State Mulliken Net Atomic Charges

     Atom                 Charge (a.u.)
  ----------------------------------------
      1 C                    -0.187575
      2 C                    -0.254523
      3 S                    -0.022303
      4 C                    -0.013334
      5 H                     0.196442
      6 C                    -0.027468
      7 C                     0.244441
      8 C                     0.239040
      9 C                    -0.041664
     10 C                    -0.022425
     11 O                    -0.333273
     12 O                    -0.339841
     13 C                    -0.085789
     14 H                     0.122616
     15 H                     0.091094
     16 H                     0.094401
     17 C                    -0.086650
     18 H                     0.124912
     19 H                     0.094297
     20 H                     0.090546
     21 C                    -0.231056
     22 S                     0.000054
     23 C                    -0.053180
     24 H                     0.196897
     25 H                     0.206521
     26 C                     0.004629
     27 S                     0.110173
     28 C                    -0.188605
     29 C                    -0.037104
     30 C                    -0.090690
     31 S                     0.015239
     32 C                    -0.153889
     33 C                     0.391178
     34 F                    -0.207018
     35 C                     0.445768
     36 O                    -0.461147
     37 O                    -0.300777
     38 C                    -0.058431
     39 H                     0.121198
     40 H                     0.095050
     41 H                     0.094959
     42 H                     0.217287
  ----------------------------------------
  Sum of atomic charges =     0.000000

 -----------------------------------------------------------------
                    Cartesian Multipole Moments
 -----------------------------------------------------------------
    Charge (ESU x 10^10)
                 0.0000
    Dipole Moment (Debye)
         X       0.7209      Y       0.8601      Z       2.7649
       Tot       2.9839
    Quadrupole Moments (Debye-Ang)
        XX    -176.1122     XY       4.8345     YY    -160.4078
        XZ      -4.7804     YZ      -5.8428     ZZ    -206.2869
    Octopole Moments (Debye-Ang^2)
       XXX     -99.9573    XXY     267.0977    XYY     -28.3550
       YYY     856.9148    XXZ     165.4059    XYZ      -1.5442
       YYZ     107.5362    XZZ      -4.3837    YZZ     476.9122
       ZZZ     548.2768
    Hexadecapole Moments (Debye-Ang^3)
      XXXX   -2364.6047   XXXY    -922.0065   XXYY   -3727.2199
      XYYY    -822.9886   YYYY  -19030.1552   XXXZ     657.0966
      XXYZ     537.2669   XYYZ      75.7930   YYYZ    1379.1524
      XXZZ   -1335.7108   XYZZ    -185.6282   YYZZ   -4268.8723
      XZZZ     616.4377   YZZZ    1147.2452   ZZZZ   -5638.5360
 -----------------------------------------------------------------
 Total job time:  284.45s(wall), 9043.23s(cpu) 
 Mon Jan  8 19:27:24 2024

        *************************************************************
        *                                                           *
        *  Thank you very much for using Q-Chem.  Have a nice day.  *
        *                                                           *
        *************************************************************


0 sent ACK to 0 
now end server 0 ... 
cleanup process ... done
remove work dirs ./qchem3969444.0 -- ./qchem3969444.0
rm -rf ./qchem3969444.0
rm -rf ./qchem3969444
