You are running Q-Chem version: 5.4.0

#
# job setting
#
local host:  exp-1-20
current dir: /home/rramji/project-csd799/aromodel/ptb7fout-qchem/rotation-run
input file:  Dimethoxy_Benzodithiophene_Phi_50_Theta_260_Methylcarbonyl_3_Fluoro_Thienothiophene.qcin
output file: 
nprocs     : 1
nthreads   : 64
#
# qchem installation setting
#
QC:          /cm/shared/apps/spack/cpu/opt/spack/linux-centos8-zen2/gcc-10.2.0/qchem-5.4-akfmr7b3t57bfs6qan3padb2wnb2i7cl
QCAUX:       /cm/shared/apps/spack/cpu/opt/spack/linux-centos8-zen2/gcc-10.2.0/qchem-5.4-akfmr7b3t57bfs6qan3padb2wnb2i7cl/qcaux
QCPROG:      /cm/shared/apps/spack/cpu/opt/spack/linux-centos8-zen2/gcc-10.2.0/qchem-5.4-akfmr7b3t57bfs6qan3padb2wnb2i7cl/exe/qcprog.exe
QCPROG_S:    /cm/shared/apps/spack/cpu/opt/spack/linux-centos8-zen2/gcc-10.2.0/qchem-5.4-akfmr7b3t57bfs6qan3padb2wnb2i7cl/exe/qcprog.exe_s
PARALLEL:    -DPARALLEL
QCMPI:       mpich
#
# qchem directory setting
#
qcrun:       qchem3361402
QCSCRATCH:   .
QCLOCALSCR:  
QCTMPDIR:    .
QCFILEPREF:  ./qchem3361402
QCSAVEDIR:   
workdirs:    ./qchem3361402
workdir0:    ./qchem3361402
partmpdirs =  
#
# parallel setting
#
QCRSH:           ssh
QCMPI:           mpich
QCMPIRUN:        /cm/shared/apps/spack/cpu/opt/spack/linux-centos8-zen2/gcc-10.2.0/qchem-5.4-akfmr7b3t57bfs6qan3padb2wnb2i7cl/bin/mpi/mpirun_qchem
QCMACHINEFILE:   ./qchem3361402/hostfile
exp-1-20

#
# env setting
#
exported envs:   QC QCAUX QCSCRATCH QCRUNNAME QCFILEPREF QCPROG QCPROG_S GUIFILE

Running Job 1 of 1 Dimethoxy_Benzodithiophene_Phi_50_Theta_260_Methylcarbonyl_3_Fluoro_Thienothiophene.qcin
qchem Dimethoxy_Benzodithiophene_Phi_50_Theta_260_Methylcarbonyl_3_Fluoro_Thienothiophene.qcin_3361402.0 ./qchem3361402/ 1
/cm/shared/apps/spack/cpu/opt/spack/linux-centos8-zen2/gcc-10.2.0/qchem-5.4-akfmr7b3t57bfs6qan3padb2wnb2i7cl/bin/mpi/mpirun_qchem -machinefile ./qchem3361402/hostfile -np 1 /cm/shared/apps/spack/cpu/opt/spack/linux-centos8-zen2/gcc-10.2.0/qchem-5.4-akfmr7b3t57bfs6qan3padb2wnb2i7cl/exe/qcprog.exe Dimethoxy_Benzodithiophene_Phi_50_Theta_260_Methylcarbonyl_3_Fluoro_Thienothiophene.qcin_3361402.0 ./qchem3361402/

Process 0 of 1 is on exp-1-20 - thread support 0
initial socket setup ...start
initial socket setup ...done 
now start server 0 ... 
                  Welcome to Q-Chem
     A Quantum Leap Into The Future Of Chemistry


 Q-Chem 5.4, Q-Chem, Inc., Pleasanton, CA (2021)

 License issued to: University of California, San Diego (site)

 E. Epifanovsky,  A. T. B. Gilbert,  Xintian Feng,  Joonho Lee,  Yuezhi Mao,  
 N. Mardirossian,  P. Pokhilko,  A. White,  M. Wormit,  M. P. Coons,  
 A. L. Dempwolff,  Zhengting Gan,  D. Hait,  P. R. Horn,  L. D. Jacobson,  
 I. Kaliman,  J. Kussmann,  A. W. Lange,  Ka Un Lao,  D. S. Levine,  Jie Liu,  
 S. C. McKenzie,  A. F. Morrison,  K. Nanda,  F. Plasser,  D. R. Rehn,  
 M. L. Vidal,  Zhi-Qiang You,  Ying Zhu,  B. Alam,  B. Albrecht,  
 A. Aldossary,  E. Alguire,  J. H. Andersen,  D. Barton,  K. Begam,  A. Behn,  
 Y. A. Bernard,  E. J. Berquist,  H. Burton,  A. Carreras,  K. Carter-Fenk,  
 R. Chakraborty,  A. D. Chien,  K. D. Closser,  V. Cofer-Shabica,  
 S. Dasgupta,  Jia Deng,  M. de Wergifosse,  M. Diedenhofen,  Hainam Do,  
 S. Ehlert,  Po-Tung Fang,  S. Fatehi,  Qingguo Feng,  J. Gayvert,  
 Qinghui Ge,  G. Gidofalvi,  M. Goldey,  J. Gomes,  C. Gonzalez-Espinoza,  
 S. Gulania,  A. Gunina,  M. W. D. Hanson-Heine,  P. H. P. Harbach,  
 A. W. Hauser,  M. F. Herbst,  M. Hernandez Vera,  M. Hodecker,  
 Z. C. Holden,  S. Houck,  Xunkun Huang,  Kerwin Hui,  B. C. Huynh,  
 M. Ivanov,  Hyunjun Ji,  Hanjie Jiang,  B. Kaduk,  S. Kaehler,  
 K. Khistyaev,  Jaehoon Kim,  P. Klunzinger,  Z. Koczor-Benda,  
 Joong Hoon Koh,  D. Kosenkov,  L. Koulias,  T. Kowalczyk,  C. M. Krauter,  
 K. Kue,  A. Kunitsa,  T. Kus,  A. Landau,  K. V. Lawler,  D. Lefrancois,  
 S. Lehtola,  Rain Li,  Yi-Pei Li,  Jiashu Liang,  M. Liebenthal,  
 Hung-Hsuan Lin,  You-Sheng Lin,  Fenglai Liu,  Kuan-Yu Liu,  
 M. Loipersberger,  A. Luenser,  A. Manjanath,  P. Manohar,  E. Mansoor,  
 S. F. Manzer,  Shan-Ping Mao,  A. V. Marenich,  T. Markovich,  S. Mason,  
 S. A. Maurer,  P. F. McLaughlin,  M. F. S. J. Menger,  J.-M. Mewes,  
 S. A. Mewes,  P. Morgante,  J. W. Mullinax,  T. S. Nguyen-Beck,  
 K. J. Oosterbaan,  G. Paran,  Alexander C. Paul,  Suranjan K. Paul,  
 F. Pavosevic,  Zheng Pei,  S. Prager,  E. I. Proynov,  E. Ramos,  B. Rana,  
 A. E. Rask,  A. Rettig,  R. M. Richard,  F. Rob,  E. Rossomme,  T. Scheele,  
 M. Scheurer,  M. Schneider,  N. Sergueev,  S. M. Sharada,  W. Skomorowski,  
 D. W. Small,  C. J. Stein,  Yu-Chuan Su,  E. J. Sundstrom,  Zhen Tao,  
 J. Thirman,  T. Tsuchimochi,  N. M. Tubman,  S. P. Veccham,  O. Vydrov,  
 J. Wenzel,  J. Witte,  A. Yamada,  Kun Yao,  S. Yeganeh,  S. R. Yost,  
 A. Zech,  Igor Ying Zhang,  Xing Zhang,  Yu Zhang,  D. Zuev,  
 A. Aspuru-Guzik,  A. T. Bell,  N. A. Besley,  K. B. Bravaya,  B. R. Brooks,  
 D. Casanova,  Jeng-Da Chai,  S. Coriani,  C. J. Cramer,  
 A. E. DePrince, III,  R. A. DiStasio Jr.,  A. Dreuw,  B. D. Dunietz,  
 T. R. Furlani,  W. A. Goddard III,  S. Grimme,  S. Hammes-Schiffer,  
 T. Head-Gordon,  W. J. Hehre,  Chao-Ping Hsu,  T.-C. Jagau,  Yousung Jung,  
 A. Klamt,  Jing Kong,  D. S. Lambrecht,  WanZhen Liang,  N. J. Mayhall,  
 C. W. McCurdy,  J. B. Neaton,  C. Ochsenfeld,  J. A. Parkhill,  R. Peverati,  
 V. A. Rassolov,  Yihan Shao,  L. V. Slipchenko,  T. Stauch,  R. P. Steele,  
 J. E. Subotnik,  A. J. W. Thom,  A. Tkatchenko,  D. G. Truhlar,  
 T. Van Voorhis,  T. A. Wesolowski,  K. B. Whaley,  H. L. Woodcock III,  
 P. M. Zimmerman,  S. Faraji,  P. M. W. Gill,  M. Head-Gordon,  
 J. M. Herbert,  A. I. Krylov

 Contributors to earlier versions of Q-Chem not listed above: 
 R. D. Adamson,  B. Austin,  R. Baer,  J. Baker,  G. J. O. Beran,  
 K. Brandhorst,  S. T. Brown,  E. F. C. Byrd,  A. K. Chakraborty,  
 G. K. L. Chan,  Chun-Min Chang,  Yunqing Chen,  C.-L. Cheng,  
 Siu Hung Chien,  D. M. Chipman,  D. L. Crittenden,  H. Dachsel,  
 R. J. Doerksen,  A. D. Dutoi,  R. G. Edgar,  J. Fosso-Tande,  
 L. Fusti-Molnar,  D. Ghosh,  A. Ghysels,  A. Golubeva-Zadorozhnaya,  
 J. Gonthier,  M. S. Gordon,  S. R. Gwaltney,  G. Hawkins,  J. E. Herr,  
 A. Heyden,  S. Hirata,  E. G. Hohenstein,  G. Kedziora,  F. J. Keil,  
 C. Kelley,  Jihan Kim,  R. A. King,  R. Z. Khaliullin,  P. P. Korambath,  
 W. Kurlancheek,  A. Laurent,  A. M. Lee,  M. S. Lee,  S. V. Levchenko,  
 Ching Yeh Lin,  D. Liotard,  E. Livshits,  R. C. Lochan,  I. Lotan,  
 L. A. Martinez-Martinez,  P. E. Maslen,  N. Nair,  D. P. O'Neill,  
 D. Neuhauser,  E. Neuscamman,  C. M. Oana,  R. Olivares-Amaya,  R. Olson,  
 T. M. Perrine,  B. Peters,  P. A. Pieniazek,  A. Prociuk,  Y. M. Rhee,  
 J. Ritchie,  M. A. Rohrdanz,  E. Rosta,  N. J. Russ,  H. F. Schaefer III,  
 M. W. Schmidt,  N. E. Schultz,  S. Sharma,  N. Shenvi,  C. D. Sherrill,  
 A. C. Simmonett,  A. Sodt,  T. Stein,  D. Stuck,  K. S. Thanthiriwatte,  
 V. Vanovschi,  L. Vogt,  Tao Wang,  A. Warshel,  M. A. Watson,  
 C. F. Williams,  Q. Wu,  X. Xu,  Jun Yang,  W. Zhang,  Yan Zhao

 Please cite Q-Chem as follows:
 Y. Shao et al., Mol. Phys. 113, 184-215 (2015)
 DOI: 10.1080/00268976.2014.952696

 Q-Chem 5.4.0 for Intel X86 EM64T Linux

 Parts of Q-Chem use Armadillo 9.800.1 (Horizon Scraper).
 http://arma.sourceforge.net/

 Q-Chem begins on Tue Jan  9 01:48:38 2024  

 Host: 
0

     Scratch files written to ./qchem3361402//
 May1621 |scratch|qcdevops|jenkins|workspace|build_RNUM    
 Parallel job on  1  processors
 Processing $rem in /cm/shared/apps/spack/cpu/opt/spack/linux-centos8-zen2/gcc-10.2.0/qchem-5.4-akfmr7b3t57bfs6qan3padb2wnb2i7cl/config/preferences:
 Processing $rem in /home/rramji/.qchemrc:
 Symmetry turned off for PCM/SM12/SMD calculation
 Core orbitals will be frozen

 Checking the input file for inconsistencies... 	...done.

 Q-Chem warning in module forms1/BasisType.C, line 2236:

 You are not using the predefined 5D/6D in this basis set.


--------------------------------------------------------------
User input:
--------------------------------------------------------------
$molecule
0 1
C	0.320589	-8.517702	-0.014560
C	-0.737240	-7.641575	0.180211
S	1.842356	-7.638634	-0.299553
C	-0.366488	-6.264785	0.114873
H	-1.768528	-7.966081	0.368061
C	1.038637	-6.072714	-0.131236
C	1.588197	-4.787049	-0.253435
C	-1.258831	-5.162801	0.249014
C	-0.709695	-3.874817	0.122513
C	0.697430	-3.683952	-0.121043
O	-2.553323	-5.499772	0.505933
O	2.888369	-4.459055	-0.512697
C	3.927625	-5.329063	-0.080869
H	4.869656	-4.755694	-0.173159
H	4.007459	-6.238095	-0.716363
H	3.789565	-5.637262	0.978072
C	-3.600064	-4.572261	0.246949
H	-4.544887	-5.139743	0.344574
H	-3.532074	-4.153131	-0.779898
H	-3.612378	-3.739531	0.983261
C	1.064246	-2.306654	-0.188009
S	-1.517360	-2.306501	0.278644
C	0.000000	-1.435185	0.000000
H	2.094685	-1.978138	-0.373017
H	0.322246	-9.614033	-0.018474
C	0.000000	0.000000	0.000000
S	0.693394	0.581209	1.507541
C	1.897536	1.592607	0.718873
C	0.693330	0.580791	-1.067872
C	1.756758	1.476132	-0.686410
S	0.508573	0.422041	-2.805516
C	1.846879	1.552232	-3.054530
C	2.387897	2.009402	-1.862551
F	3.408741	2.872264	-1.819088
C	2.191300	1.838768	-4.456084
O	1.606694	1.337806	-5.406510
O	3.221062	2.712584	-4.569225
C	3.603677	3.026817	-5.916207
H	4.442623	3.739898	-5.833064
H	2.758956	3.483875	-6.470168
H	3.921969	2.114070	-6.459293
H	2.604650	2.187790	1.306486
$end

$rem
JOBTYPE		SP
EXCHANGE	HF
CORRELATION	pRIMP2
BASIS		cc-pvtz
METHOD		rimp2
AUX_BASIS	rimp2-cc-pvtz
SOLVENT_METHOD	PCM
PURECART	11111
SYMMETRY	false
MEM_TOTAL	110000
SCF_CONVERGENCE = 6
THRESH=10
GUI = 2
$end



$solvent
dielectric 4.90
$end
--------------------------------------------------------------
 ----------------------------------------------------------------
             Standard Nuclear Orientation (Angstroms)
    I     Atom           X                Y                Z
 ----------------------------------------------------------------
    1      C       0.3205890000    -8.5177020000    -0.0145600000
    2      C      -0.7372400000    -7.6415750000     0.1802110000
    3      S       1.8423560000    -7.6386340000    -0.2995530000
    4      C      -0.3664880000    -6.2647850000     0.1148730000
    5      H      -1.7685280000    -7.9660810000     0.3680610000
    6      C       1.0386370000    -6.0727140000    -0.1312360000
    7      C       1.5881970000    -4.7870490000    -0.2534350000
    8      C      -1.2588310000    -5.1628010000     0.2490140000
    9      C      -0.7096950000    -3.8748170000     0.1225130000
   10      C       0.6974300000    -3.6839520000    -0.1210430000
   11      O      -2.5533230000    -5.4997720000     0.5059330000
   12      O       2.8883690000    -4.4590550000    -0.5126970000
   13      C       3.9276250000    -5.3290630000    -0.0808690000
   14      H       4.8696560000    -4.7556940000    -0.1731590000
   15      H       4.0074590000    -6.2380950000    -0.7163630000
   16      H       3.7895650000    -5.6372620000     0.9780720000
   17      C      -3.6000640000    -4.5722610000     0.2469490000
   18      H      -4.5448870000    -5.1397430000     0.3445740000
   19      H      -3.5320740000    -4.1531310000    -0.7798980000
   20      H      -3.6123780000    -3.7395310000     0.9832610000
   21      C       1.0642460000    -2.3066540000    -0.1880090000
   22      S      -1.5173600000    -2.3065010000     0.2786440000
   23      C       0.0000000000    -1.4351850000     0.0000000000
   24      H       2.0946850000    -1.9781380000    -0.3730170000
   25      H       0.3222460000    -9.6140330000    -0.0184740000
   26      C       0.0000000000     0.0000000000     0.0000000000
   27      S       0.6933940000     0.5812090000     1.5075410000
   28      C       1.8975360000     1.5926070000     0.7188730000
   29      C       0.6933300000     0.5807910000    -1.0678720000
   30      C       1.7567580000     1.4761320000    -0.6864100000
   31      S       0.5085730000     0.4220410000    -2.8055160000
   32      C       1.8468790000     1.5522320000    -3.0545300000
   33      C       2.3878970000     2.0094020000    -1.8625510000
   34      F       3.4087410000     2.8722640000    -1.8190880000
   35      C       2.1913000000     1.8387680000    -4.4560840000
   36      O       1.6066940000     1.3378060000    -5.4065100000
   37      O       3.2210620000     2.7125840000    -4.5692250000
   38      C       3.6036770000     3.0268170000    -5.9162070000
   39      H       4.4426230000     3.7398980000    -5.8330640000
   40      H       2.7589560000     3.4838750000    -6.4701680000
   41      H       3.9219690000     2.1140700000    -6.4592930000
   42      H       2.6046500000     2.1877900000     1.3064860000
 ----------------------------------------------------------------
 Nuclear Repulsion Energy =        3322.92458137 hartrees
 There are      119 alpha and      119 beta electrons
 Requested basis set is cc-pVTZ
 There are 376 shells and 1068 basis functions

 Total QAlloc Memory Limit 110000 MB
 Mega-Array Size       188 MB
 MEM_STATIC part       192 MB
 Discretize the solute cavity surface with Lebedev spheres
	Using 110 Lebedev grid points for each H atom
	Using 194 Lebedev grid points for other atoms
	Atomic van der Waals radii will be scaled by 1.20
 Remove points where switching function is < 1.0e-08
 Keep 2882 surface tesserae and discard 4174 interior tesserae
 Molecular Surface Area = 441.563 Angst**2
 Requested basis set is rimp2-cc-pVTZ
 There are 833 shells and 2903 basis functions
 A cutoff of  1.0D-10 yielded  31749 shell pairs
 There are    243083 function pairs (    315347 Cartesian)
 Smallest overlap matrix eigenvalue = 2.19E-05

 Scale SEOQF with 1.000000e-01/1.000000e-02/1.000000e-02

 Standard Electronic Orientation quadrupole field applied
 Nucleus-field energy     =     0.0000000533 hartrees
 Guess from superposition of atomic densities
 Warning:  Energy on first SCF cycle will be non-variational
 SAD guess density has 238.000000 electrons

 -----------------------------------------------------------------------
  General SCF calculation program by
  Eric Jon Sundstrom, Paul Horn, Yuezhi Mao, Dmitri Zuev, Alec White,
  David Stuck, Shaama M.S., Shane Yost, Joonho Lee, David Small,
  Daniel Levine, Susi Lehtola, Hugh Burton, Evgeny Epifanovsky,
  Bang C. Huynh
 -----------------------------------------------------------------------
 Hartree-Fock
 using 64 threads for integral computing
 -------------------------------------------------------
 OpenMP Integral computing Module                
 Release: version 1.0, May 2013, Q-Chem Inc. Pittsburgh 
 -------------------------------------------------------
 A restricted SCF calculation will be
 performed using DIIS
 SCF converges when DIIS error is below 1.0e-06
 ---------------------------------------
  Cycle       Energy         DIIS error
 ---------------------------------------
    1   -2765.2674915890      1.75e-02  
    2   -2753.8372759842      1.56e-03  
    3   -2754.1760080573      8.62e-04  
    4   -2754.2575604728      2.56e-04  
    5   -2754.2693025946      7.00e-05  
    6   -2754.2704155336      2.46e-05  
    7   -2754.2706623504      1.16e-05  
    8   -2754.2707453440      4.78e-06  
    9   -2754.2707615475      1.99e-06  
   10   -2754.2707640427      1.04e-06  
   11   -2754.2707646575      3.86e-07  Convergence criterion met
 ---------------------------------------
 SCF time:   CPU 6430.24s  wall 265.00s 

************** Final PCM Free Energy Summary **************
 G_electrostatic  =      -0.02007903 hartree =     -12.59978288 kcal/mol
 G_cavitation     =       0.00000000 hartree =       0.00000000 kcal/mol
 G_dispersion     =       0.00000000 hartree =       0.00000000 kcal/mol
 G_repulsion      =       0.00000000 hartree =       0.00000000 kcal/mol
 --------------------------------------------------
 Non-electrostatic Free Energy =       0.00000000 hartree =       0.00000000 kcal/mol
 Total                         =      -0.02007903 hartree =     -12.59978288 kcal/mol
 --------------------------------------------------
 SCF Energy (H0 + V/2)                       =   -2754.27076466 
 Solute Internal Energy (H0)                 =   -2754.25068563 
 Total Free Energy (H0 + V/2 + non-elec)     =   -2754.27076466 hartree
                                             = -1728330.99052102 kcal/mol
***********************************************************

 SCF   energy in the final basis set =    -2754.2707646575
 Total energy in the final basis set =    -2754.2707646575


 --------------------------------------------------------------
  Generalized many-body perturbation theory program
  by Joonho Lee, Fazle Rob, Xintian Feng, Evgeny Epifanovsky

 No regularization used 
 (reg. param. = 0.0000e+00)
  (P|Q)^-1/2 Time:  CPU 220.99 s  wall 3.69 s

 In RI-MP2 calculation: 
 # of frozen core orbitals: 45

 Components of the RIMP2 correlation energy:
        aaaa    correlation energy =        -0.6709423306 a.u.
        abab    correlation energy =        -3.7172080785 a.u.
        bbbb    correlation energy =        -0.6709423306 a.u.
        non-Brillouin singles      =        -0.0000000000 a.u.
        total same-spin energy     =        -1.3418846612 a.u.
        total opposite-spin energy =        -3.7172080785 a.u.

 Total  RIMP2   correlation energy =        -5.0590927397 a.u.
        RIMP2         total energy =     -2759.3298573972 a.u.

 RI-MP2 Energy Time:  CPU 14177.62 s  wall 235.26 s
 
 --------------------------------------------------------------
 
                    Orbital Energies (a.u.)
 --------------------------------------------------------------
 
 Alpha MOs
 -- Occupied --
-92.0130 -92.0044 -91.9843 -91.9816 -26.3450 -20.6149 -20.5907 -20.5893
-20.5612 -11.4096 -11.3851 -11.3276 -11.3166 -11.3148 -11.3139 -11.2972
-11.2906 -11.2890 -11.2859 -11.2855 -11.2852 -11.2817 -11.2807 -11.2773
-11.2740 -11.2578 -11.2553 -11.2484 -11.2481  -9.0121  -9.0041  -8.9843
 -8.9823  -6.6927  -6.6919  -6.6916  -6.6851  -6.6843  -6.6833  -6.6653
 -6.6646  -6.6638  -6.6633  -6.6625  -6.6617  -1.6621  -1.4674  -1.4146
 -1.4122  -1.3701  -1.2280  -1.1909  -1.1637  -1.1380  -1.0835  -1.0489
 -1.0439  -1.0244  -0.9979  -0.9865  -0.9629  -0.9584  -0.9487  -0.9394
 -0.8928  -0.8695  -0.8444  -0.8115  -0.7950  -0.7877  -0.7838  -0.7629
 -0.7554  -0.7313  -0.7268  -0.7115  -0.6999  -0.6855  -0.6819  -0.6801
 -0.6741  -0.6586  -0.6572  -0.6511  -0.6283  -0.6184  -0.6156  -0.6076
 -0.5994  -0.5870  -0.5729  -0.5694  -0.5657  -0.5622  -0.5533  -0.5486
 -0.5311  -0.5239  -0.5202  -0.5158  -0.5125  -0.5089  -0.5031  -0.4933
 -0.4873  -0.4828  -0.4746  -0.4733  -0.4675  -0.4625  -0.4587  -0.4023
 -0.3941  -0.3849  -0.3605  -0.3436  -0.3144  -0.3021  -0.2539
 -- Virtual --
  0.0279   0.0628   0.0866   0.1267   0.1374   0.1424   0.1509   0.1535
  0.1564   0.1577   0.1613   0.1725   0.1796   0.1844   0.1878   0.1929
  0.1943   0.2053   0.2138   0.2149   0.2203   0.2221   0.2248   0.2278
  0.2331   0.2375   0.2435   0.2472   0.2545   0.2636   0.2667   0.2790
  0.2839   0.2981   0.3099   0.3299   0.3315   0.3348   0.3405   0.3468
  0.3513   0.3533   0.3637   0.3718   0.3754   0.3820   0.3850   0.3873
  0.3881   0.3913   0.3969   0.4031   0.4091   0.4120   0.4202   0.4220
  0.4274   0.4294   0.4341   0.4411   0.4475   0.4489   0.4520   0.4562
  0.4622   0.4648   0.4699   0.4721   0.4744   0.4796   0.4878   0.4908
  0.4934   0.4960   0.5021   0.5070   0.5110   0.5198   0.5217   0.5240
  0.5279   0.5290   0.5329   0.5380   0.5397   0.5423   0.5440   0.5481
  0.5499   0.5545   0.5556   0.5583   0.5682   0.5719   0.5758   0.5779
  0.5810   0.5913   0.5957   0.5970   0.5982   0.6000   0.6089   0.6134
  0.6159   0.6182   0.6196   0.6203   0.6237   0.6290   0.6320   0.6383
  0.6407   0.6431   0.6459   0.6501   0.6523   0.6560   0.6637   0.6678
  0.6723   0.6842   0.6863   0.6885   0.6929   0.6958   0.6995   0.7073
  0.7126   0.7147   0.7187   0.7240   0.7304   0.7377   0.7444   0.7498
  0.7529   0.7586   0.7625   0.7685   0.7737   0.7833   0.7866   0.8002
  0.8067   0.8093   0.8133   0.8180   0.8226   0.8325   0.8362   0.8430
  0.8487   0.8499   0.8562   0.8620   0.8683   0.8716   0.8793   0.8847
  0.8917   0.8934   0.9018   0.9046   0.9117   0.9157   0.9196   0.9209
  0.9339   0.9416   0.9422   0.9433   0.9518   0.9564   0.9580   0.9625
  0.9742   0.9751   0.9771   0.9838   0.9854   0.9936   0.9978   1.0005
  1.0049   1.0143   1.0180   1.0205   1.0266   1.0286   1.0367   1.0382
  1.0396   1.0480   1.0591   1.0613   1.0665   1.0706   1.0757   1.0831
  1.0850   1.0896   1.0941   1.0970   1.1036   1.1082   1.1119   1.1143
  1.1186   1.1219   1.1244   1.1342   1.1429   1.1470   1.1537   1.1592
  1.1614   1.1738   1.1790   1.1796   1.1834   1.1866   1.1902   1.1916
  1.1959   1.2066   1.2111   1.2147   1.2191   1.2208   1.2226   1.2312
  1.2338   1.2388   1.2442   1.2529   1.2568   1.2643   1.2669   1.2744
  1.2779   1.2802   1.2841   1.2901   1.3018   1.3069   1.3080   1.3137
  1.3218   1.3270   1.3334   1.3443   1.3547   1.3615   1.3705   1.3729
  1.3809   1.3815   1.3907   1.4031   1.4055   1.4094   1.4131   1.4232
  1.4318   1.4348   1.4425   1.4594   1.4738   1.4795   1.4845   1.4901
  1.4946   1.5000   1.5063   1.5086   1.5108   1.5124   1.5245   1.5333
  1.5352   1.5386   1.5402   1.5461   1.5482   1.5523   1.5604   1.5714
  1.5744   1.5788   1.5863   1.5935   1.5992   1.6063   1.6204   1.6297
  1.6405   1.6473   1.6549   1.6586   1.6615   1.6674   1.6771   1.6784
  1.6867   1.6890   1.6986   1.7001   1.7097   1.7225   1.7316   1.7421
  1.7564   1.7612   1.7722   1.7826   1.7866   1.7960   1.8043   1.8177
  1.8219   1.8228   1.8366   1.8488   1.8523   1.8612   1.8702   1.8751
  1.8850   1.8926   1.8972   1.9025   1.9153   1.9272   1.9308   1.9332
  1.9402   1.9485   1.9550   1.9626   1.9668   1.9738   1.9778   1.9828
  1.9864   1.9969   2.0079   2.0106   2.0198   2.0236   2.0436   2.0655
  2.0741   2.0756   2.0903   2.0994   2.1017   2.1184   2.1282   2.1367
  2.1526   2.1597   2.1642   2.1662   2.1733   2.1801   2.1847   2.1910
  2.1946   2.2012   2.2028   2.2150   2.2245   2.2268   2.2332   2.2383
  2.2421   2.2530   2.2582   2.2650   2.2739   2.2772   2.2849   2.2984
  2.3058   2.3089   2.3202   2.3254   2.3377   2.3473   2.3556   2.3631
  2.3676   2.3762   2.3807   2.3893   2.3975   2.4107   2.4142   2.4250
  2.4304   2.4350   2.4433   2.4501   2.4537   2.4688   2.4814   2.4920
  2.4943   2.5000   2.5047   2.5171   2.5284   2.5402   2.5549   2.5569
  2.5634   2.5729   2.5751   2.5856   2.6023   2.6076   2.6178   2.6227
  2.6278   2.6307   2.6375   2.6432   2.6506   2.6524   2.6667   2.6698
  2.6749   2.6781   2.6870   2.6965   2.7042   2.7047   2.7074   2.7134
  2.7223   2.7263   2.7381   2.7401   2.7469   2.7588   2.7685   2.7807
  2.7842   2.7899   2.7940   2.8043   2.8062   2.8091   2.8138   2.8159
  2.8276   2.8394   2.8460   2.8526   2.8539   2.8624   2.8724   2.8755
  2.8771   2.8796   2.8851   2.8891   2.8954   2.9079   2.9250   2.9332
  2.9406   2.9513   2.9581   2.9607   2.9685   2.9765   2.9856   2.9957
  3.0050   3.0113   3.0185   3.0231   3.0287   3.0345   3.0353   3.0420
  3.0451   3.0588   3.0623   3.0723   3.0810   3.0853   3.0893   3.0971
  3.1025   3.1055   3.1108   3.1166   3.1189   3.1252   3.1299   3.1447
  3.1508   3.1529   3.1568   3.1592   3.1626   3.1722   3.1799   3.1833
  3.1863   3.1940   3.2036   3.2099   3.2148   3.2187   3.2218   3.2257
  3.2266   3.2410   3.2452   3.2474   3.2533   3.2559   3.2672   3.2694
  3.2736   3.2790   3.2822   3.2933   3.2943   3.2956   3.3010   3.3088
  3.3142   3.3223   3.3264   3.3305   3.3399   3.3436   3.3502   3.3526
  3.3541   3.3602   3.3615   3.3648   3.3665   3.3692   3.3779   3.3859
  3.3888   3.3933   3.3962   3.4020   3.4068   3.4099   3.4138   3.4180
  3.4209   3.4250   3.4292   3.4360   3.4426   3.4499   3.4518   3.4544
  3.4610   3.4631   3.4675   3.4743   3.4799   3.4856   3.4868   3.4923
  3.5013   3.5103   3.5143   3.5156   3.5259   3.5320   3.5321   3.5364
  3.5436   3.5476   3.5522   3.5550   3.5661   3.5687   3.5740   3.5798
  3.5871   3.5913   3.5949   3.6002   3.6034   3.6059   3.6144   3.6174
  3.6247   3.6264   3.6328   3.6395   3.6463   3.6512   3.6611   3.6669
  3.6686   3.6771   3.6814   3.6845   3.6866   3.6914   3.6938   3.7057
  3.7079   3.7124   3.7163   3.7213   3.7299   3.7382   3.7392   3.7488
  3.7543   3.7573   3.7620   3.7722   3.7782   3.7837   3.7898   3.7908
  3.7996   3.8019   3.8047   3.8072   3.8100   3.8148   3.8296   3.8322
  3.8364   3.8392   3.8464   3.8554   3.8620   3.8671   3.8702   3.8729
  3.8802   3.8844   3.8890   3.8937   3.9004   3.9057   3.9146   3.9245
  3.9313   3.9340   3.9397   3.9478   3.9600   3.9712   3.9743   3.9847
  3.9939   4.0001   4.0057   4.0157   4.0178   4.0255   4.0371   4.0406
  4.0461   4.0495   4.0610   4.0679   4.0694   4.0836   4.0900   4.1010
  4.1181   4.1211   4.1327   4.1380   4.1410   4.1481   4.1488   4.1514
  4.1556   4.1650   4.1674   4.1752   4.1806   4.1908   4.1922   4.2033
  4.2061   4.2183   4.2245   4.2299   4.2411   4.2453   4.2535   4.2763
  4.2785   4.2925   4.3023   4.3209   4.3350   4.3416   4.3440   4.3557
  4.3581   4.3639   4.3704   4.3745   4.3810   4.3881   4.3968   4.4028
  4.4095   4.4132   4.4183   4.4239   4.4279   4.4354   4.4419   4.4488
  4.4567   4.4740   4.4847   4.4861   4.5020   4.5061   4.5103   4.5221
  4.5411   4.5494   4.5524   4.5589   4.5619   4.5783   4.5869   4.5945
  4.6053   4.6096   4.6146   4.6276   4.6369   4.6459   4.6471   4.6571
  4.6641   4.6725   4.6729   4.6929   4.6970   4.7039   4.7325   4.7378
  4.7496   4.7566   4.7695   4.7770   4.7876   4.7910   4.7975   4.8211
  4.8303   4.8426   4.8498   4.8522   4.8597   4.8728   4.8780   4.9201
  4.9394   4.9470   4.9509   4.9614   4.9673   4.9681   4.9855   4.9938
  5.0088   5.0091   5.0163   5.0206   5.0370   5.0383   5.0636   5.0709
  5.0843   5.0966   5.1047   5.1266   5.1616   5.1632   5.1754   5.2011
  5.2080   5.2177   5.2412   5.2472   5.2502   5.2542   5.2574   5.2788
  5.2991   5.3073   5.3165   5.3248   5.3332   5.3474   5.3516   5.3650
  5.3881   5.3922   5.4007   5.4053   5.4224   5.4261   5.4353   5.4654
  5.4770   5.4849   5.5049   5.5098   5.5148   5.5178   5.5350   5.5588
  5.5753   5.5811   5.5897   5.6070   5.6216   5.6356   5.6449   5.6607
  5.7191   5.7224   5.7445   5.7641   5.8074   5.8163   5.8429   5.8566
  5.8732   5.8813   5.9054   5.9291   5.9402   5.9705   5.9945   6.0240
  6.0413   6.0734   6.0942   6.1358   6.1503   6.1724   6.1783   6.1825
  6.2282   6.2446   6.2528   6.2613   6.2707   6.2843   6.3019   6.3316
  6.4063   6.4440   6.4500   6.4780   6.5383   6.5496   6.5576   6.5986
  6.6556   6.6607   6.6712   6.6979   6.7443   6.8014   6.8291   6.8353
  6.8595   6.8953   6.9780   7.1234   7.1362   7.2037   7.2041   7.2173
  7.2353   7.3099   7.3215   7.3309   7.3616   7.3620   7.4047   7.4132
  7.4798   7.4840   7.4878   7.5184   7.5492   7.6140   7.6972   7.7714
  7.7889   7.7983   7.8887   7.9223   7.9408   7.9571   8.0567   8.1328
  8.4050   8.9204   9.0261   9.3614   9.4810   9.6641  10.1792  10.5451
 11.2446  11.4631  11.7710  12.0508  12.1272  12.1374  12.4214  12.5872
 12.7035  12.9177  12.9975  13.2521  13.3818  13.3885  13.7734  13.8481
 13.9029  14.0229  14.0344  14.4547  15.1975
 --------------------------------------------------------------
 
          Ground-State Mulliken Net Atomic Charges

     Atom                 Charge (a.u.)
  ----------------------------------------
      1 C                    -0.193162
      2 C                    -0.254244
      3 S                    -0.026522
      4 C                    -0.018521
      5 H                     0.195701
      6 C                    -0.026853
      7 C                     0.234127
      8 C                     0.243027
      9 C                    -0.047592
     10 C                    -0.018147
     11 O                    -0.333793
     12 O                    -0.341385
     13 C                    -0.085734
     14 H                     0.121482
     15 H                     0.091000
     16 H                     0.093110
     17 C                    -0.086484
     18 H                     0.124307
     19 H                     0.094269
     20 H                     0.089555
     21 C                    -0.237807
     22 S                    -0.018560
     23 C                    -0.015394
     24 H                     0.195769
     25 H                     0.205417
     26 C                    -0.114447
     27 S                     0.121760
     28 C                    -0.142525
     29 C                     0.000204
     30 C                    -0.090152
     31 S                     0.048701
     32 C                    -0.153425
     33 C                     0.393786
     34 F                    -0.205248
     35 C                     0.448019
     36 O                    -0.462166
     37 O                    -0.301323
     38 C                    -0.058270
     39 H                     0.121272
     40 H                     0.095173
     41 H                     0.095226
     42 H                     0.219849
  ----------------------------------------
  Sum of atomic charges =     0.000000

 -----------------------------------------------------------------
                    Cartesian Multipole Moments
 -----------------------------------------------------------------
    Charge (ESU x 10^10)
                -0.0000
    Dipole Moment (Debye)
         X       2.8768      Y       1.5877      Z       2.9946
       Tot       4.4457
    Quadrupole Moments (Debye-Ang)
        XX    -167.6034     XY       8.5004     YY    -174.6778
        XZ      -3.7278     YZ      -5.9614     ZZ    -205.1759
    Octopole Moments (Debye-Ang^2)
       XXX    -444.8985    XXY     352.4122    XYY    -132.4608
       YYY    1052.6110    XXZ     140.7923    XYZ     -38.5898
       YYZ     153.3649    XZZ     -90.7149    YZZ     510.1807
       ZZZ     550.8361
    Hexadecapole Moments (Debye-Ang^3)
      XXXX   -4236.8613   XXXY    -272.9612   XXYY   -3719.0463
      XYYY    -317.5382   YYYY  -17765.2085   XXXZ    1206.9189
      XXYZ     193.3226   XYYZ     375.0409   YYYZ     891.0770
      XXZZ   -1334.7870   XYZZ     214.8338   YYZZ   -4276.6140
      XZZZ     948.2745   YZZZ     644.6159   ZZZZ   -5451.5450
 -----------------------------------------------------------------
 Total job time:  527.16s(wall), 20818.42s(cpu) 
 Tue Jan  9 01:57:25 2024

        *************************************************************
        *                                                           *
        *  Thank you very much for using Q-Chem.  Have a nice day.  *
        *                                                           *
        *************************************************************


0 sent ACK to 0 
now end server 0 ... 
cleanup process ... done
remove work dirs ./qchem3361402.0 -- ./qchem3361402.0
rm -rf ./qchem3361402.0
rm -rf ./qchem3361402
