You are running Q-Chem version: 5.4.0

#
# job setting
#
local host:  exp-3-46
current dir: /home/rramji/project-csd799/aromodel/ptb7fout-qchem/rotation-run
input file:  Dimethoxy_Benzodithiophene_Phi_60_Theta_210_Methylcarbonyl_3_Fluoro_Thienothiophene.qcin
output file: 
nprocs     : 1
nthreads   : 64
#
# qchem installation setting
#
QC:          /cm/shared/apps/spack/cpu/opt/spack/linux-centos8-zen2/gcc-10.2.0/qchem-5.4-akfmr7b3t57bfs6qan3padb2wnb2i7cl
QCAUX:       /cm/shared/apps/spack/cpu/opt/spack/linux-centos8-zen2/gcc-10.2.0/qchem-5.4-akfmr7b3t57bfs6qan3padb2wnb2i7cl/qcaux
QCPROG:      /cm/shared/apps/spack/cpu/opt/spack/linux-centos8-zen2/gcc-10.2.0/qchem-5.4-akfmr7b3t57bfs6qan3padb2wnb2i7cl/exe/qcprog.exe
QCPROG_S:    /cm/shared/apps/spack/cpu/opt/spack/linux-centos8-zen2/gcc-10.2.0/qchem-5.4-akfmr7b3t57bfs6qan3padb2wnb2i7cl/exe/qcprog.exe_s
PARALLEL:    -DPARALLEL
QCMPI:       mpich
#
# qchem directory setting
#
qcrun:       qchem1673257
QCSCRATCH:   .
QCLOCALSCR:  
QCTMPDIR:    .
QCFILEPREF:  ./qchem1673257
QCSAVEDIR:   
workdirs:    ./qchem1673257
workdir0:    ./qchem1673257
partmpdirs =  
#
# parallel setting
#
QCRSH:           ssh
QCMPI:           mpich
QCMPIRUN:        /cm/shared/apps/spack/cpu/opt/spack/linux-centos8-zen2/gcc-10.2.0/qchem-5.4-akfmr7b3t57bfs6qan3padb2wnb2i7cl/bin/mpi/mpirun_qchem
QCMACHINEFILE:   ./qchem1673257/hostfile
exp-3-46

#
# env setting
#
exported envs:   QC QCAUX QCSCRATCH QCRUNNAME QCFILEPREF QCPROG QCPROG_S GUIFILE

Running Job 1 of 1 Dimethoxy_Benzodithiophene_Phi_60_Theta_210_Methylcarbonyl_3_Fluoro_Thienothiophene.qcin
qchem Dimethoxy_Benzodithiophene_Phi_60_Theta_210_Methylcarbonyl_3_Fluoro_Thienothiophene.qcin_1673257.0 ./qchem1673257/ 1
/cm/shared/apps/spack/cpu/opt/spack/linux-centos8-zen2/gcc-10.2.0/qchem-5.4-akfmr7b3t57bfs6qan3padb2wnb2i7cl/bin/mpi/mpirun_qchem -machinefile ./qchem1673257/hostfile -np 1 /cm/shared/apps/spack/cpu/opt/spack/linux-centos8-zen2/gcc-10.2.0/qchem-5.4-akfmr7b3t57bfs6qan3padb2wnb2i7cl/exe/qcprog.exe Dimethoxy_Benzodithiophene_Phi_60_Theta_210_Methylcarbonyl_3_Fluoro_Thienothiophene.qcin_1673257.0 ./qchem1673257/

Process 0 of 1 is on exp-3-46 - thread support 0
initial socket setup ...start
initial socket setup ...done 
now start server 0 ... 
                  Welcome to Q-Chem
     A Quantum Leap Into The Future Of Chemistry


 Q-Chem 5.4, Q-Chem, Inc., Pleasanton, CA (2021)

 License issued to: University of California, San Diego (site)

 E. Epifanovsky,  A. T. B. Gilbert,  Xintian Feng,  Joonho Lee,  Yuezhi Mao,  
 N. Mardirossian,  P. Pokhilko,  A. White,  M. Wormit,  M. P. Coons,  
 A. L. Dempwolff,  Zhengting Gan,  D. Hait,  P. R. Horn,  L. D. Jacobson,  
 I. Kaliman,  J. Kussmann,  A. W. Lange,  Ka Un Lao,  D. S. Levine,  Jie Liu,  
 S. C. McKenzie,  A. F. Morrison,  K. Nanda,  F. Plasser,  D. R. Rehn,  
 M. L. Vidal,  Zhi-Qiang You,  Ying Zhu,  B. Alam,  B. Albrecht,  
 A. Aldossary,  E. Alguire,  J. H. Andersen,  D. Barton,  K. Begam,  A. Behn,  
 Y. A. Bernard,  E. J. Berquist,  H. Burton,  A. Carreras,  K. Carter-Fenk,  
 R. Chakraborty,  A. D. Chien,  K. D. Closser,  V. Cofer-Shabica,  
 S. Dasgupta,  Jia Deng,  M. de Wergifosse,  M. Diedenhofen,  Hainam Do,  
 S. Ehlert,  Po-Tung Fang,  S. Fatehi,  Qingguo Feng,  J. Gayvert,  
 Qinghui Ge,  G. Gidofalvi,  M. Goldey,  J. Gomes,  C. Gonzalez-Espinoza,  
 S. Gulania,  A. Gunina,  M. W. D. Hanson-Heine,  P. H. P. Harbach,  
 A. W. Hauser,  M. F. Herbst,  M. Hernandez Vera,  M. Hodecker,  
 Z. C. Holden,  S. Houck,  Xunkun Huang,  Kerwin Hui,  B. C. Huynh,  
 M. Ivanov,  Hyunjun Ji,  Hanjie Jiang,  B. Kaduk,  S. Kaehler,  
 K. Khistyaev,  Jaehoon Kim,  P. Klunzinger,  Z. Koczor-Benda,  
 Joong Hoon Koh,  D. Kosenkov,  L. Koulias,  T. Kowalczyk,  C. M. Krauter,  
 K. Kue,  A. Kunitsa,  T. Kus,  A. Landau,  K. V. Lawler,  D. Lefrancois,  
 S. Lehtola,  Rain Li,  Yi-Pei Li,  Jiashu Liang,  M. Liebenthal,  
 Hung-Hsuan Lin,  You-Sheng Lin,  Fenglai Liu,  Kuan-Yu Liu,  
 M. Loipersberger,  A. Luenser,  A. Manjanath,  P. Manohar,  E. Mansoor,  
 S. F. Manzer,  Shan-Ping Mao,  A. V. Marenich,  T. Markovich,  S. Mason,  
 S. A. Maurer,  P. F. McLaughlin,  M. F. S. J. Menger,  J.-M. Mewes,  
 S. A. Mewes,  P. Morgante,  J. W. Mullinax,  T. S. Nguyen-Beck,  
 K. J. Oosterbaan,  G. Paran,  Alexander C. Paul,  Suranjan K. Paul,  
 F. Pavosevic,  Zheng Pei,  S. Prager,  E. I. Proynov,  E. Ramos,  B. Rana,  
 A. E. Rask,  A. Rettig,  R. M. Richard,  F. Rob,  E. Rossomme,  T. Scheele,  
 M. Scheurer,  M. Schneider,  N. Sergueev,  S. M. Sharada,  W. Skomorowski,  
 D. W. Small,  C. J. Stein,  Yu-Chuan Su,  E. J. Sundstrom,  Zhen Tao,  
 J. Thirman,  T. Tsuchimochi,  N. M. Tubman,  S. P. Veccham,  O. Vydrov,  
 J. Wenzel,  J. Witte,  A. Yamada,  Kun Yao,  S. Yeganeh,  S. R. Yost,  
 A. Zech,  Igor Ying Zhang,  Xing Zhang,  Yu Zhang,  D. Zuev,  
 A. Aspuru-Guzik,  A. T. Bell,  N. A. Besley,  K. B. Bravaya,  B. R. Brooks,  
 D. Casanova,  Jeng-Da Chai,  S. Coriani,  C. J. Cramer,  
 A. E. DePrince, III,  R. A. DiStasio Jr.,  A. Dreuw,  B. D. Dunietz,  
 T. R. Furlani,  W. A. Goddard III,  S. Grimme,  S. Hammes-Schiffer,  
 T. Head-Gordon,  W. J. Hehre,  Chao-Ping Hsu,  T.-C. Jagau,  Yousung Jung,  
 A. Klamt,  Jing Kong,  D. S. Lambrecht,  WanZhen Liang,  N. J. Mayhall,  
 C. W. McCurdy,  J. B. Neaton,  C. Ochsenfeld,  J. A. Parkhill,  R. Peverati,  
 V. A. Rassolov,  Yihan Shao,  L. V. Slipchenko,  T. Stauch,  R. P. Steele,  
 J. E. Subotnik,  A. J. W. Thom,  A. Tkatchenko,  D. G. Truhlar,  
 T. Van Voorhis,  T. A. Wesolowski,  K. B. Whaley,  H. L. Woodcock III,  
 P. M. Zimmerman,  S. Faraji,  P. M. W. Gill,  M. Head-Gordon,  
 J. M. Herbert,  A. I. Krylov

 Contributors to earlier versions of Q-Chem not listed above: 
 R. D. Adamson,  B. Austin,  R. Baer,  J. Baker,  G. J. O. Beran,  
 K. Brandhorst,  S. T. Brown,  E. F. C. Byrd,  A. K. Chakraborty,  
 G. K. L. Chan,  Chun-Min Chang,  Yunqing Chen,  C.-L. Cheng,  
 Siu Hung Chien,  D. M. Chipman,  D. L. Crittenden,  H. Dachsel,  
 R. J. Doerksen,  A. D. Dutoi,  R. G. Edgar,  J. Fosso-Tande,  
 L. Fusti-Molnar,  D. Ghosh,  A. Ghysels,  A. Golubeva-Zadorozhnaya,  
 J. Gonthier,  M. S. Gordon,  S. R. Gwaltney,  G. Hawkins,  J. E. Herr,  
 A. Heyden,  S. Hirata,  E. G. Hohenstein,  G. Kedziora,  F. J. Keil,  
 C. Kelley,  Jihan Kim,  R. A. King,  R. Z. Khaliullin,  P. P. Korambath,  
 W. Kurlancheek,  A. Laurent,  A. M. Lee,  M. S. Lee,  S. V. Levchenko,  
 Ching Yeh Lin,  D. Liotard,  E. Livshits,  R. C. Lochan,  I. Lotan,  
 L. A. Martinez-Martinez,  P. E. Maslen,  N. Nair,  D. P. O'Neill,  
 D. Neuhauser,  E. Neuscamman,  C. M. Oana,  R. Olivares-Amaya,  R. Olson,  
 T. M. Perrine,  B. Peters,  P. A. Pieniazek,  A. Prociuk,  Y. M. Rhee,  
 J. Ritchie,  M. A. Rohrdanz,  E. Rosta,  N. J. Russ,  H. F. Schaefer III,  
 M. W. Schmidt,  N. E. Schultz,  S. Sharma,  N. Shenvi,  C. D. Sherrill,  
 A. C. Simmonett,  A. Sodt,  T. Stein,  D. Stuck,  K. S. Thanthiriwatte,  
 V. Vanovschi,  L. Vogt,  Tao Wang,  A. Warshel,  M. A. Watson,  
 C. F. Williams,  Q. Wu,  X. Xu,  Jun Yang,  W. Zhang,  Yan Zhao

 Please cite Q-Chem as follows:
 Y. Shao et al., Mol. Phys. 113, 184-215 (2015)
 DOI: 10.1080/00268976.2014.952696

 Q-Chem 5.4.0 for Intel X86 EM64T Linux

 Parts of Q-Chem use Armadillo 9.800.1 (Horizon Scraper).
 http://arma.sourceforge.net/

 Q-Chem begins on Tue Jan  9 01:17:26 2024  

 Host: 
0

     Scratch files written to ./qchem1673257//
 May1621 |scratch|qcdevops|jenkins|workspace|build_RNUM    
 Parallel job on  1  processors
 Processing $rem in /cm/shared/apps/spack/cpu/opt/spack/linux-centos8-zen2/gcc-10.2.0/qchem-5.4-akfmr7b3t57bfs6qan3padb2wnb2i7cl/config/preferences:
 Processing $rem in /home/rramji/.qchemrc:
 Symmetry turned off for PCM/SM12/SMD calculation
 Core orbitals will be frozen

 Checking the input file for inconsistencies... 	...done.

 Q-Chem warning in module forms1/BasisType.C, line 2236:

 You are not using the predefined 5D/6D in this basis set.


--------------------------------------------------------------
User input:
--------------------------------------------------------------
$molecule
0 1
C	0.194917	-8.517702	-0.254945
C	-0.335839	-7.641575	0.680596
S	0.954772	-7.638634	-1.603876
C	-0.147576	-6.264785	0.354585
H	-0.854836	-7.966081	1.591356
C	0.567090	-6.072714	-0.879999
C	0.826731	-4.787049	-1.379534
C	-0.618405	-5.162801	1.124384
C	-0.362333	-3.874817	0.622407
C	0.355575	-3.683952	-0.612067
O	-1.253677	-5.499772	2.281166
O	1.463859	-4.459055	-2.542174
C	2.462679	-5.329063	-3.060718
H	2.997507	-4.755694	-3.841678
H	2.027179	-6.238095	-3.530361
H	3.185132	-5.637262	-2.274283
C	-2.124902	-4.572261	2.916545
H	-2.657438	-5.139743	3.703073
H	-2.867810	-4.153131	2.204417
H	-1.568770	-3.739531	3.399269
C	0.540061	-2.306654	-0.936109
S	-0.761887	-2.306501	1.341474
C	-0.000000	-1.435185	-0.000000
H	1.060690	-1.978138	-1.844392
H	0.192984	-9.614033	-0.258730
C	0.000000	0.000000	0.000000
S	0.783786	0.451972	1.507541
C	2.145261	1.238908	0.718873
C	0.783650	0.451572	-1.067872
C	1.986396	1.148648	-0.686410
S	0.574133	0.327317	-2.805516
C	2.088363	1.207943	-3.054530
C	2.700548	1.564221	-1.862551
F	3.855718	2.236706	-1.819088
C	2.477307	1.430318	-4.456084
O	1.814592	1.038482	-5.406510
O	3.643162	2.112042	-4.569225
C	4.074530	2.355061	-5.916207
H	5.024556	2.911627	-5.833064
H	3.322010	2.951860	-6.470168
H	4.229490	1.400910	-6.459293
H	2.944986	1.702260	1.306486
$end

$rem
JOBTYPE		SP
EXCHANGE	HF
CORRELATION	pRIMP2
BASIS		cc-pvtz
METHOD		rimp2
AUX_BASIS	rimp2-cc-pvtz
SOLVENT_METHOD	PCM
PURECART	11111
SYMMETRY	false
MEM_TOTAL	110000
SCF_CONVERGENCE = 6
THRESH=10
GUI = 2
$end



$solvent
dielectric 4.90
$end
--------------------------------------------------------------
 ----------------------------------------------------------------
             Standard Nuclear Orientation (Angstroms)
    I     Atom           X                Y                Z
 ----------------------------------------------------------------
    1      C       0.1949170000    -8.5177020000    -0.2549450000
    2      C      -0.3358390000    -7.6415750000     0.6805960000
    3      S       0.9547720000    -7.6386340000    -1.6038760000
    4      C      -0.1475760000    -6.2647850000     0.3545850000
    5      H      -0.8548360000    -7.9660810000     1.5913560000
    6      C       0.5670900000    -6.0727140000    -0.8799990000
    7      C       0.8267310000    -4.7870490000    -1.3795340000
    8      C      -0.6184050000    -5.1628010000     1.1243840000
    9      C      -0.3623330000    -3.8748170000     0.6224070000
   10      C       0.3555750000    -3.6839520000    -0.6120670000
   11      O      -1.2536770000    -5.4997720000     2.2811660000
   12      O       1.4638590000    -4.4590550000    -2.5421740000
   13      C       2.4626790000    -5.3290630000    -3.0607180000
   14      H       2.9975070000    -4.7556940000    -3.8416780000
   15      H       2.0271790000    -6.2380950000    -3.5303610000
   16      H       3.1851320000    -5.6372620000    -2.2742830000
   17      C      -2.1249020000    -4.5722610000     2.9165450000
   18      H      -2.6574380000    -5.1397430000     3.7030730000
   19      H      -2.8678100000    -4.1531310000     2.2044170000
   20      H      -1.5687700000    -3.7395310000     3.3992690000
   21      C       0.5400610000    -2.3066540000    -0.9361090000
   22      S      -0.7618870000    -2.3065010000     1.3414740000
   23      C       0.0000000000    -1.4351850000     0.0000000000
   24      H       1.0606900000    -1.9781380000    -1.8443920000
   25      H       0.1929840000    -9.6140330000    -0.2587300000
   26      C       0.0000000000     0.0000000000     0.0000000000
   27      S       0.7837860000     0.4519720000     1.5075410000
   28      C       2.1452610000     1.2389080000     0.7188730000
   29      C       0.7836500000     0.4515720000    -1.0678720000
   30      C       1.9863960000     1.1486480000    -0.6864100000
   31      S       0.5741330000     0.3273170000    -2.8055160000
   32      C       2.0883630000     1.2079430000    -3.0545300000
   33      C       2.7005480000     1.5642210000    -1.8625510000
   34      F       3.8557180000     2.2367060000    -1.8190880000
   35      C       2.4773070000     1.4303180000    -4.4560840000
   36      O       1.8145920000     1.0384820000    -5.4065100000
   37      O       3.6431620000     2.1120420000    -4.5692250000
   38      C       4.0745300000     2.3550610000    -5.9162070000
   39      H       5.0245560000     2.9116270000    -5.8330640000
   40      H       3.3220100000     2.9518600000    -6.4701680000
   41      H       4.2294900000     1.4009100000    -6.4592930000
   42      H       2.9449860000     1.7022600000     1.3064860000
 ----------------------------------------------------------------
 Nuclear Repulsion Energy =        3362.54258446 hartrees
 There are      119 alpha and      119 beta electrons
 Requested basis set is cc-pVTZ
 There are 376 shells and 1068 basis functions

 Total QAlloc Memory Limit 110000 MB
 Mega-Array Size       188 MB
 MEM_STATIC part       192 MB
 Discretize the solute cavity surface with Lebedev spheres
	Using 110 Lebedev grid points for each H atom
	Using 194 Lebedev grid points for other atoms
	Atomic van der Waals radii will be scaled by 1.20
 Remove points where switching function is < 1.0e-08
 Keep 2822 surface tesserae and discard 4234 interior tesserae
 Molecular Surface Area = 433.838 Angst**2
 Requested basis set is rimp2-cc-pVTZ
 There are 833 shells and 2903 basis functions
 A cutoff of  1.0D-10 yielded  32537 shell pairs
 There are    247657 function pairs (    320813 Cartesian)
 Smallest overlap matrix eigenvalue = 2.16E-05

 Scale SEOQF with 1.000000e-01/1.000000e-02/1.000000e-02

 Standard Electronic Orientation quadrupole field applied
 Nucleus-field energy     =     0.0000000401 hartrees
 Guess from superposition of atomic densities
 Warning:  Energy on first SCF cycle will be non-variational
 SAD guess density has 238.000000 electrons

 -----------------------------------------------------------------------
  General SCF calculation program by
  Eric Jon Sundstrom, Paul Horn, Yuezhi Mao, Dmitri Zuev, Alec White,
  David Stuck, Shaama M.S., Shane Yost, Joonho Lee, David Small,
  Daniel Levine, Susi Lehtola, Hugh Burton, Evgeny Epifanovsky,
  Bang C. Huynh
 -----------------------------------------------------------------------
 Hartree-Fock
 using 64 threads for integral computing
 -------------------------------------------------------
 OpenMP Integral computing Module                
 Release: version 1.0, May 2013, Q-Chem Inc. Pittsburgh 
 -------------------------------------------------------
 A restricted SCF calculation will be
 performed using DIIS
 SCF converges when DIIS error is below 1.0e-06
 ---------------------------------------
  Cycle       Energy         DIIS error
 ---------------------------------------
    1   -2765.3658875431      1.76e-02  
    2   -2753.8080541977      1.57e-03  
    3   -2754.1512710081      8.72e-04  
    4   -2754.2353636524      2.56e-04  
    5   -2754.2471354882      7.01e-05  
    6   -2754.2482458478      2.46e-05  
    7   -2754.2484905934      1.17e-05  
    8   -2754.2485727295      4.59e-06  
    9   -2754.2485886776      1.90e-06  
   10   -2754.2485910485      9.92e-07  Convergence criterion met
 ---------------------------------------
 SCF time:   CPU 6585.65s  wall 238.00s 

************** Final PCM Free Energy Summary **************
 G_electrostatic  =      -0.02094408 hartree =     -13.14260656 kcal/mol
 G_cavitation     =       0.00000000 hartree =       0.00000000 kcal/mol
 G_dispersion     =       0.00000000 hartree =       0.00000000 kcal/mol
 G_repulsion      =       0.00000000 hartree =       0.00000000 kcal/mol
 --------------------------------------------------
 Non-electrostatic Free Energy =       0.00000000 hartree =       0.00000000 kcal/mol
 Total                         =      -0.02094408 hartree =     -13.14260656 kcal/mol
 --------------------------------------------------
 SCF Energy (H0 + V/2)                       =   -2754.24859105 
 Solute Internal Energy (H0)                 =   -2754.22764697 
 Total Free Energy (H0 + V/2 + non-elec)     =   -2754.24859105 hartree
                                             = -1728317.07637136 kcal/mol
***********************************************************

 SCF   energy in the final basis set =    -2754.2485910485
 Total energy in the final basis set =    -2754.2485910485


 --------------------------------------------------------------
  Generalized many-body perturbation theory program
  by Joonho Lee, Fazle Rob, Xintian Feng, Evgeny Epifanovsky

 No regularization used 
 (reg. param. = 0.0000e+00)
  (P|Q)^-1/2 Time:  CPU 153.42 s  wall 3.04 s

 In RI-MP2 calculation: 
 # of frozen core orbitals: 45

 Components of the RIMP2 correlation energy:
        aaaa    correlation energy =        -0.6726121759 a.u.
        abab    correlation energy =        -3.7199308721 a.u.
        bbbb    correlation energy =        -0.6726121759 a.u.
        non-Brillouin singles      =        -0.0000000000 a.u.
        total same-spin energy     =        -1.3452243518 a.u.
        total opposite-spin energy =        -3.7199308721 a.u.

 Total  RIMP2   correlation energy =        -5.0651552240 a.u.
        RIMP2         total energy =     -2759.3137462725 a.u.

 RI-MP2 Energy Time:  CPU 2795.17 s  wall 46.89 s
 
 --------------------------------------------------------------
 
                    Orbital Energies (a.u.)
 --------------------------------------------------------------
 
 Alpha MOs
 -- Occupied --
-92.0166 -92.0100 -91.9828 -91.9811 -26.3469 -20.6162 -20.5903 -20.5864
-20.5628 -11.4114 -11.3876 -11.3383 -11.3223 -11.3160 -11.3092 -11.2999
-11.2969 -11.2908 -11.2898 -11.2857 -11.2834 -11.2804 -11.2783 -11.2742
-11.2720 -11.2561 -11.2516 -11.2471 -11.2353  -9.0161  -9.0097  -8.9827
 -8.9823  -6.6967  -6.6958  -6.6955  -6.6906  -6.6898  -6.6889  -6.6637
 -6.6633  -6.6631  -6.6626  -6.6622  -6.6616  -1.6639  -1.4688  -1.4142
 -1.4093  -1.3715  -1.2361  -1.1894  -1.1649  -1.1407  -1.0860  -1.0481
 -1.0455  -1.0286  -0.9961  -0.9878  -0.9663  -0.9573  -0.9480  -0.9396
 -0.8925  -0.8729  -0.8439  -0.8118  -0.7991  -0.7875  -0.7820  -0.7615
 -0.7563  -0.7304  -0.7286  -0.7146  -0.6997  -0.6870  -0.6832  -0.6795
 -0.6752  -0.6611  -0.6565  -0.6495  -0.6294  -0.6173  -0.6164  -0.6077
 -0.6021  -0.5833  -0.5747  -0.5699  -0.5649  -0.5601  -0.5564  -0.5429
 -0.5322  -0.5278  -0.5209  -0.5160  -0.5127  -0.5079  -0.5061  -0.4954
 -0.4875  -0.4821  -0.4771  -0.4741  -0.4670  -0.4609  -0.4563  -0.4183
 -0.3897  -0.3816  -0.3601  -0.3495  -0.3271  -0.2902  -0.2471
 -- Virtual --
  0.0191   0.0605   0.0869   0.1265   0.1329   0.1470   0.1531   0.1550
  0.1573   0.1575   0.1626   0.1689   0.1816   0.1839   0.1906   0.1947
  0.2034   0.2061   0.2143   0.2180   0.2233   0.2241   0.2259   0.2274
  0.2300   0.2405   0.2467   0.2508   0.2567   0.2616   0.2722   0.2760
  0.2877   0.2968   0.3035   0.3252   0.3342   0.3372   0.3453   0.3509
  0.3556   0.3569   0.3617   0.3753   0.3788   0.3833   0.3859   0.3887
  0.3907   0.3926   0.3950   0.4040   0.4120   0.4127   0.4179   0.4244
  0.4268   0.4368   0.4403   0.4419   0.4459   0.4497   0.4511   0.4584
  0.4652   0.4656   0.4694   0.4777   0.4788   0.4834   0.4883   0.4934
  0.4940   0.4976   0.5037   0.5043   0.5060   0.5114   0.5224   0.5238
  0.5250   0.5342   0.5361   0.5376   0.5396   0.5409   0.5445   0.5529
  0.5543   0.5574   0.5599   0.5641   0.5649   0.5728   0.5782   0.5807
  0.5846   0.5939   0.5951   0.5980   0.6040   0.6080   0.6118   0.6160
  0.6176   0.6196   0.6219   0.6246   0.6261   0.6283   0.6356   0.6390
  0.6410   0.6439   0.6495   0.6538   0.6588   0.6608   0.6663   0.6741
  0.6812   0.6835   0.6916   0.6949   0.6965   0.6999   0.7059   0.7070
  0.7132   0.7172   0.7199   0.7306   0.7390   0.7402   0.7444   0.7506
  0.7543   0.7625   0.7669   0.7705   0.7749   0.7826   0.7918   0.7966
  0.8039   0.8115   0.8119   0.8193   0.8229   0.8292   0.8361   0.8400
  0.8484   0.8562   0.8579   0.8632   0.8694   0.8725   0.8801   0.8826
  0.8947   0.8984   0.9029   0.9080   0.9117   0.9189   0.9238   0.9266
  0.9360   0.9412   0.9422   0.9439   0.9550   0.9637   0.9671   0.9685
  0.9752   0.9771   0.9815   0.9874   0.9928   0.9954   0.9966   1.0046
  1.0083   1.0133   1.0208   1.0261   1.0293   1.0362   1.0385   1.0479
  1.0514   1.0522   1.0562   1.0577   1.0715   1.0744   1.0780   1.0844
  1.0899   1.0939   1.0987   1.0992   1.1064   1.1080   1.1118   1.1145
  1.1227   1.1234   1.1255   1.1358   1.1418   1.1450   1.1476   1.1562
  1.1688   1.1727   1.1743   1.1859   1.1868   1.1899   1.1955   1.1995
  1.2043   1.2123   1.2155   1.2180   1.2215   1.2219   1.2283   1.2351
  1.2370   1.2432   1.2474   1.2550   1.2614   1.2688   1.2707   1.2733
  1.2769   1.2823   1.2881   1.2954   1.3003   1.3093   1.3157   1.3202
  1.3232   1.3303   1.3417   1.3472   1.3512   1.3621   1.3624   1.3733
  1.3777   1.3852   1.3937   1.3989   1.4017   1.4112   1.4197   1.4269
  1.4397   1.4446   1.4528   1.4631   1.4656   1.4772   1.4920   1.4921
  1.4942   1.5014   1.5029   1.5064   1.5087   1.5144   1.5180   1.5338
  1.5346   1.5356   1.5394   1.5446   1.5461   1.5469   1.5576   1.5687
  1.5734   1.5823   1.5849   1.5942   1.6053   1.6108   1.6216   1.6321
  1.6367   1.6480   1.6563   1.6613   1.6637   1.6757   1.6827   1.6873
  1.6882   1.6919   1.6991   1.7040   1.7122   1.7239   1.7392   1.7547
  1.7593   1.7637   1.7765   1.7817   1.7937   1.7963   1.8069   1.8181
  1.8245   1.8286   1.8388   1.8425   1.8555   1.8647   1.8680   1.8757
  1.8869   1.8966   1.8985   1.9070   1.9128   1.9210   1.9284   1.9336
  1.9484   1.9504   1.9527   1.9657   1.9725   1.9748   1.9810   1.9915
  1.9990   2.0009   2.0220   2.0274   2.0296   2.0353   2.0559   2.0631
  2.0730   2.0872   2.0939   2.0966   2.1020   2.1070   2.1224   2.1354
  2.1504   2.1636   2.1652   2.1682   2.1740   2.1806   2.1879   2.1913
  2.1984   2.2037   2.2092   2.2210   2.2232   2.2288   2.2367   2.2412
  2.2536   2.2585   2.2627   2.2669   2.2777   2.2795   2.2870   2.2958
  2.2985   2.3145   2.3165   2.3236   2.3398   2.3474   2.3536   2.3605
  2.3721   2.3804   2.3848   2.3900   2.3964   2.4024   2.4098   2.4245
  2.4276   2.4307   2.4426   2.4497   2.4563   2.4664   2.4771   2.4834
  2.4964   2.4994   2.5066   2.5126   2.5304   2.5369   2.5454   2.5568
  2.5601   2.5655   2.5735   2.5872   2.5911   2.6134   2.6165   2.6247
  2.6255   2.6280   2.6391   2.6407   2.6449   2.6578   2.6639   2.6708
  2.6759   2.6844   2.6923   2.6989   2.7015   2.7035   2.7131   2.7145
  2.7168   2.7310   2.7346   2.7454   2.7519   2.7602   2.7748   2.7801
  2.7888   2.7924   2.7986   2.8044   2.8078   2.8159   2.8217   2.8258
  2.8343   2.8420   2.8450   2.8512   2.8578   2.8600   2.8666   2.8753
  2.8807   2.8872   2.8939   2.8979   2.9092   2.9208   2.9322   2.9407
  2.9511   2.9572   2.9627   2.9689   2.9824   2.9852   2.9905   2.9965
  3.0061   3.0138   3.0225   3.0287   3.0314   3.0373   3.0402   3.0440
  3.0470   3.0567   3.0659   3.0705   3.0812   3.0878   3.0919   3.0983
  3.1024   3.1061   3.1109   3.1171   3.1207   3.1253   3.1351   3.1418
  3.1502   3.1550   3.1586   3.1641   3.1714   3.1757   3.1856   3.1868
  3.1930   3.1998   3.2099   3.2135   3.2173   3.2206   3.2260   3.2282
  3.2310   3.2376   3.2440   3.2504   3.2535   3.2578   3.2670   3.2683
  3.2772   3.2831   3.2857   3.2887   3.2956   3.3013   3.3027   3.3117
  3.3154   3.3248   3.3254   3.3303   3.3330   3.3426   3.3507   3.3553
  3.3555   3.3642   3.3643   3.3675   3.3742   3.3778   3.3804   3.3841
  3.3897   3.3933   3.3959   3.3985   3.4033   3.4067   3.4139   3.4220
  3.4242   3.4265   3.4306   3.4400   3.4428   3.4457   3.4527   3.4557
  3.4639   3.4684   3.4715   3.4769   3.4797   3.4840   3.4909   3.4931
  3.5050   3.5116   3.5175   3.5196   3.5253   3.5298   3.5345   3.5369
  3.5420   3.5489   3.5521   3.5600   3.5667   3.5746   3.5824   3.5845
  3.5891   3.5942   3.5953   3.6033   3.6074   3.6084   3.6134   3.6248
  3.6275   3.6319   3.6375   3.6383   3.6506   3.6540   3.6585   3.6597
  3.6688   3.6759   3.6791   3.6868   3.6905   3.6954   3.7046   3.7050
  3.7098   3.7222   3.7255   3.7263   3.7322   3.7371   3.7401   3.7523
  3.7611   3.7678   3.7747   3.7768   3.7834   3.7872   3.7928   3.7950
  3.7972   3.7992   3.8040   3.8101   3.8183   3.8199   3.8236   3.8310
  3.8357   3.8422   3.8491   3.8587   3.8619   3.8755   3.8766   3.8812
  3.8848   3.8902   3.8942   3.8993   3.9068   3.9123   3.9143   3.9274
  3.9293   3.9322   3.9431   3.9479   3.9562   3.9644   3.9790   3.9875
  3.9961   4.0120   4.0145   4.0160   4.0237   4.0332   4.0369   4.0452
  4.0523   4.0660   4.0673   4.0759   4.0780   4.0870   4.0930   4.1020
  4.1108   4.1216   4.1294   4.1348   4.1407   4.1498   4.1543   4.1582
  4.1647   4.1665   4.1726   4.1784   4.1870   4.1920   4.1968   4.2011
  4.2073   4.2160   4.2287   4.2415   4.2452   4.2568   4.2615   4.2782
  4.2851   4.2927   4.3110   4.3375   4.3406   4.3461   4.3503   4.3528
  4.3584   4.3667   4.3701   4.3779   4.3887   4.3927   4.3970   4.4071
  4.4136   4.4149   4.4196   4.4255   4.4329   4.4362   4.4417   4.4539
  4.4668   4.4767   4.4867   4.4953   4.5047   4.5115   4.5201   4.5290
  4.5371   4.5482   4.5541   4.5606   4.5696   4.5806   4.5871   4.5964
  4.6111   4.6146   4.6278   4.6293   4.6435   4.6486   4.6555   4.6598
  4.6672   4.6764   4.6848   4.6946   4.7011   4.7171   4.7284   4.7406
  4.7474   4.7576   4.7625   4.7668   4.7701   4.7880   4.8009   4.8188
  4.8314   4.8369   4.8440   4.8549   4.8709   4.8755   4.8851   4.9176
  4.9360   4.9478   4.9522   4.9662   4.9683   4.9811   4.9824   4.9933
  5.0080   5.0093   5.0173   5.0240   5.0363   5.0496   5.0684   5.0722
  5.0865   5.0948   5.1159   5.1307   5.1648   5.1733   5.1809   5.2031
  5.2148   5.2260   5.2305   5.2407   5.2461   5.2564   5.2600   5.2848
  5.3001   5.3114   5.3188   5.3270   5.3323   5.3479   5.3576   5.3680
  5.3820   5.3948   5.4023   5.4078   5.4168   5.4252   5.4467   5.4672
  5.4783   5.4842   5.5047   5.5106   5.5136   5.5179   5.5335   5.5653
  5.5792   5.5853   5.5933   5.6082   5.6203   5.6287   5.6463   5.6594
  5.7189   5.7273   5.7470   5.7761   5.8062   5.8167   5.8347   5.8571
  5.8759   5.8881   5.9118   5.9279   5.9521   5.9824   6.0117   6.0390
  6.0416   6.0749   6.1087   6.1495   6.1727   6.1756   6.1810   6.1955
  6.2435   6.2552   6.2604   6.2726   6.2801   6.2853   6.3162   6.3342
  6.4206   6.4487   6.4518   6.4805   6.5424   6.5515   6.5618   6.6001
  6.6585   6.6639   6.6701   6.7123   6.7445   6.8058   6.8289   6.8425
  6.8582   6.8979   6.9770   7.1272   7.1387   7.2027   7.2041   7.2181
  7.2393   7.3089   7.3267   7.3354   7.3599   7.3606   7.4043   7.4121
  7.4804   7.4822   7.4910   7.5168   7.5484   7.6133   7.7147   7.7697
  7.7885   7.8007   7.8915   7.9234   7.9450   7.9668   8.0796   8.1319
  8.4479   8.9190   9.0272   9.3603   9.4773   9.6622  10.1338  10.4910
 11.2213  11.3816  11.7780  12.0378  12.1407  12.2075  12.4528  12.5803
 12.6818  12.9637  12.9872  13.2615  13.3856  13.4698  13.7874  13.8506
 13.9057  14.0248  14.0465  14.5678  15.2060
 --------------------------------------------------------------
 
          Ground-State Mulliken Net Atomic Charges

     Atom                 Charge (a.u.)
  ----------------------------------------
      1 C                    -0.199676
      2 C                    -0.253659
      3 S                    -0.029031
      4 C                    -0.023979
      5 H                     0.194871
      6 C                    -0.022273
      7 C                     0.231294
      8 C                     0.247700
      9 C                    -0.046576
     10 C                    -0.022466
     11 O                    -0.333942
     12 O                    -0.342663
     13 C                    -0.085940
     14 H                     0.121350
     15 H                     0.090673
     16 H                     0.091940
     17 C                    -0.087049
     18 H                     0.124889
     19 H                     0.094648
     20 H                     0.088712
     21 C                    -0.271697
     22 S                    -0.053661
     23 C                     0.025000
     24 H                     0.194500
     25 H                     0.204328
     26 C                    -0.187330
     27 S                     0.132354
     28 C                    -0.120930
     29 C                     0.074454
     30 C                    -0.105662
     31 S                     0.067384
     32 C                    -0.155828
     33 C                     0.399183
     34 F                    -0.204581
     35 C                     0.449022
     36 O                    -0.461623
     37 O                    -0.301118
     38 C                    -0.058040
     39 H                     0.121659
     40 H                     0.095515
     41 H                     0.095346
     42 H                     0.222901
  ----------------------------------------
  Sum of atomic charges =     0.000000

 -----------------------------------------------------------------
                    Cartesian Multipole Moments
 -----------------------------------------------------------------
    Charge (ESU x 10^10)
                -0.0000
    Dipole Moment (Debye)
         X       3.8919      Y       2.4018      Z       2.9639
       Tot       5.4498
    Quadrupole Moments (Debye-Ang)
        XX    -176.5961     XY       7.7044     YY    -183.0125
        XZ     -18.1254     YZ      -5.0999     ZZ    -191.3293
    Octopole Moments (Debye-Ang^2)
       XXX    -469.8126    XXY     445.7016    XYY    -151.1559
       YYY    1169.4035    XXZ     136.3968    XYZ      33.2049
       YYZ     172.3820    XZZ     -88.1051    YZZ     463.3914
       ZZZ     591.1899
    Hexadecapole Moments (Debye-Ang^3)
      XXXX   -3429.4796   XXXY    -336.0696   XXYY   -3815.5632
      XYYY    -436.1258   YYYY  -17573.2592   XXXZ    1662.3534
      XXYZ      12.0600   XYYZ     258.8585   YYYZ     331.3693
      XXZZ   -1200.9819   XYZZ     113.0986   YYZZ   -4215.4606
      XZZZ    1343.8890   YZZZ      63.2944   ZZZZ   -6975.8809
 -----------------------------------------------------------------
 Total job time:  301.24s(wall), 9506.19s(cpu) 
 Tue Jan  9 01:22:27 2024

        *************************************************************
        *                                                           *
        *  Thank you very much for using Q-Chem.  Have a nice day.  *
        *                                                           *
        *************************************************************


0 sent ACK to 0 
now end server 0 ... 
cleanup process ... done
remove work dirs ./qchem1673257.0 -- ./qchem1673257.0
rm -rf ./qchem1673257.0
rm -rf ./qchem1673257
