You are running Q-Chem version: 5.4.0

#
# job setting
#
local host:  exp-1-18
current dir: /home/rramji/project-csd799/aromodel/ptb7fout-qchem/rotation-run
input file:  Dimethoxy_Benzodithiophene_Phi_40_Theta_190_Methylcarbonyl_3_Fluoro_Thienothiophene.qcin
output file: 
nprocs     : 1
nthreads   : 64
#
# qchem installation setting
#
QC:          /cm/shared/apps/spack/cpu/opt/spack/linux-centos8-zen2/gcc-10.2.0/qchem-5.4-akfmr7b3t57bfs6qan3padb2wnb2i7cl
QCAUX:       /cm/shared/apps/spack/cpu/opt/spack/linux-centos8-zen2/gcc-10.2.0/qchem-5.4-akfmr7b3t57bfs6qan3padb2wnb2i7cl/qcaux
QCPROG:      /cm/shared/apps/spack/cpu/opt/spack/linux-centos8-zen2/gcc-10.2.0/qchem-5.4-akfmr7b3t57bfs6qan3padb2wnb2i7cl/exe/qcprog.exe
QCPROG_S:    /cm/shared/apps/spack/cpu/opt/spack/linux-centos8-zen2/gcc-10.2.0/qchem-5.4-akfmr7b3t57bfs6qan3padb2wnb2i7cl/exe/qcprog.exe_s
PARALLEL:    -DPARALLEL
QCMPI:       mpich
#
# qchem directory setting
#
qcrun:       qchem1921142
QCSCRATCH:   .
QCLOCALSCR:  
QCTMPDIR:    .
QCFILEPREF:  ./qchem1921142
QCSAVEDIR:   
workdirs:    ./qchem1921142
workdir0:    ./qchem1921142
partmpdirs =  
#
# parallel setting
#
QCRSH:           ssh
QCMPI:           mpich
QCMPIRUN:        /cm/shared/apps/spack/cpu/opt/spack/linux-centos8-zen2/gcc-10.2.0/qchem-5.4-akfmr7b3t57bfs6qan3padb2wnb2i7cl/bin/mpi/mpirun_qchem
QCMACHINEFILE:   ./qchem1921142/hostfile
exp-1-18

#
# env setting
#
exported envs:   QC QCAUX QCSCRATCH QCRUNNAME QCFILEPREF QCPROG QCPROG_S GUIFILE

Running Job 1 of 1 Dimethoxy_Benzodithiophene_Phi_40_Theta_190_Methylcarbonyl_3_Fluoro_Thienothiophene.qcin
qchem Dimethoxy_Benzodithiophene_Phi_40_Theta_190_Methylcarbonyl_3_Fluoro_Thienothiophene.qcin_1921142.0 ./qchem1921142/ 1
/cm/shared/apps/spack/cpu/opt/spack/linux-centos8-zen2/gcc-10.2.0/qchem-5.4-akfmr7b3t57bfs6qan3padb2wnb2i7cl/bin/mpi/mpirun_qchem -machinefile ./qchem1921142/hostfile -np 1 /cm/shared/apps/spack/cpu/opt/spack/linux-centos8-zen2/gcc-10.2.0/qchem-5.4-akfmr7b3t57bfs6qan3padb2wnb2i7cl/exe/qcprog.exe Dimethoxy_Benzodithiophene_Phi_40_Theta_190_Methylcarbonyl_3_Fluoro_Thienothiophene.qcin_1921142.0 ./qchem1921142/

Process 0 of 1 is on exp-1-18 - thread support 0
initial socket setup ...start
initial socket setup ...done 
now start server 0 ... 
                  Welcome to Q-Chem
     A Quantum Leap Into The Future Of Chemistry


 Q-Chem 5.4, Q-Chem, Inc., Pleasanton, CA (2021)

 License issued to: University of California, San Diego (site)

 E. Epifanovsky,  A. T. B. Gilbert,  Xintian Feng,  Joonho Lee,  Yuezhi Mao,  
 N. Mardirossian,  P. Pokhilko,  A. White,  M. Wormit,  M. P. Coons,  
 A. L. Dempwolff,  Zhengting Gan,  D. Hait,  P. R. Horn,  L. D. Jacobson,  
 I. Kaliman,  J. Kussmann,  A. W. Lange,  Ka Un Lao,  D. S. Levine,  Jie Liu,  
 S. C. McKenzie,  A. F. Morrison,  K. Nanda,  F. Plasser,  D. R. Rehn,  
 M. L. Vidal,  Zhi-Qiang You,  Ying Zhu,  B. Alam,  B. Albrecht,  
 A. Aldossary,  E. Alguire,  J. H. Andersen,  D. Barton,  K. Begam,  A. Behn,  
 Y. A. Bernard,  E. J. Berquist,  H. Burton,  A. Carreras,  K. Carter-Fenk,  
 R. Chakraborty,  A. D. Chien,  K. D. Closser,  V. Cofer-Shabica,  
 S. Dasgupta,  Jia Deng,  M. de Wergifosse,  M. Diedenhofen,  Hainam Do,  
 S. Ehlert,  Po-Tung Fang,  S. Fatehi,  Qingguo Feng,  J. Gayvert,  
 Qinghui Ge,  G. Gidofalvi,  M. Goldey,  J. Gomes,  C. Gonzalez-Espinoza,  
 S. Gulania,  A. Gunina,  M. W. D. Hanson-Heine,  P. H. P. Harbach,  
 A. W. Hauser,  M. F. Herbst,  M. Hernandez Vera,  M. Hodecker,  
 Z. C. Holden,  S. Houck,  Xunkun Huang,  Kerwin Hui,  B. C. Huynh,  
 M. Ivanov,  Hyunjun Ji,  Hanjie Jiang,  B. Kaduk,  S. Kaehler,  
 K. Khistyaev,  Jaehoon Kim,  P. Klunzinger,  Z. Koczor-Benda,  
 Joong Hoon Koh,  D. Kosenkov,  L. Koulias,  T. Kowalczyk,  C. M. Krauter,  
 K. Kue,  A. Kunitsa,  T. Kus,  A. Landau,  K. V. Lawler,  D. Lefrancois,  
 S. Lehtola,  Rain Li,  Yi-Pei Li,  Jiashu Liang,  M. Liebenthal,  
 Hung-Hsuan Lin,  You-Sheng Lin,  Fenglai Liu,  Kuan-Yu Liu,  
 M. Loipersberger,  A. Luenser,  A. Manjanath,  P. Manohar,  E. Mansoor,  
 S. F. Manzer,  Shan-Ping Mao,  A. V. Marenich,  T. Markovich,  S. Mason,  
 S. A. Maurer,  P. F. McLaughlin,  M. F. S. J. Menger,  J.-M. Mewes,  
 S. A. Mewes,  P. Morgante,  J. W. Mullinax,  T. S. Nguyen-Beck,  
 K. J. Oosterbaan,  G. Paran,  Alexander C. Paul,  Suranjan K. Paul,  
 F. Pavosevic,  Zheng Pei,  S. Prager,  E. I. Proynov,  E. Ramos,  B. Rana,  
 A. E. Rask,  A. Rettig,  R. M. Richard,  F. Rob,  E. Rossomme,  T. Scheele,  
 M. Scheurer,  M. Schneider,  N. Sergueev,  S. M. Sharada,  W. Skomorowski,  
 D. W. Small,  C. J. Stein,  Yu-Chuan Su,  E. J. Sundstrom,  Zhen Tao,  
 J. Thirman,  T. Tsuchimochi,  N. M. Tubman,  S. P. Veccham,  O. Vydrov,  
 J. Wenzel,  J. Witte,  A. Yamada,  Kun Yao,  S. Yeganeh,  S. R. Yost,  
 A. Zech,  Igor Ying Zhang,  Xing Zhang,  Yu Zhang,  D. Zuev,  
 A. Aspuru-Guzik,  A. T. Bell,  N. A. Besley,  K. B. Bravaya,  B. R. Brooks,  
 D. Casanova,  Jeng-Da Chai,  S. Coriani,  C. J. Cramer,  
 A. E. DePrince, III,  R. A. DiStasio Jr.,  A. Dreuw,  B. D. Dunietz,  
 T. R. Furlani,  W. A. Goddard III,  S. Grimme,  S. Hammes-Schiffer,  
 T. Head-Gordon,  W. J. Hehre,  Chao-Ping Hsu,  T.-C. Jagau,  Yousung Jung,  
 A. Klamt,  Jing Kong,  D. S. Lambrecht,  WanZhen Liang,  N. J. Mayhall,  
 C. W. McCurdy,  J. B. Neaton,  C. Ochsenfeld,  J. A. Parkhill,  R. Peverati,  
 V. A. Rassolov,  Yihan Shao,  L. V. Slipchenko,  T. Stauch,  R. P. Steele,  
 J. E. Subotnik,  A. J. W. Thom,  A. Tkatchenko,  D. G. Truhlar,  
 T. Van Voorhis,  T. A. Wesolowski,  K. B. Whaley,  H. L. Woodcock III,  
 P. M. Zimmerman,  S. Faraji,  P. M. W. Gill,  M. Head-Gordon,  
 J. M. Herbert,  A. I. Krylov

 Contributors to earlier versions of Q-Chem not listed above: 
 R. D. Adamson,  B. Austin,  R. Baer,  J. Baker,  G. J. O. Beran,  
 K. Brandhorst,  S. T. Brown,  E. F. C. Byrd,  A. K. Chakraborty,  
 G. K. L. Chan,  Chun-Min Chang,  Yunqing Chen,  C.-L. Cheng,  
 Siu Hung Chien,  D. M. Chipman,  D. L. Crittenden,  H. Dachsel,  
 R. J. Doerksen,  A. D. Dutoi,  R. G. Edgar,  J. Fosso-Tande,  
 L. Fusti-Molnar,  D. Ghosh,  A. Ghysels,  A. Golubeva-Zadorozhnaya,  
 J. Gonthier,  M. S. Gordon,  S. R. Gwaltney,  G. Hawkins,  J. E. Herr,  
 A. Heyden,  S. Hirata,  E. G. Hohenstein,  G. Kedziora,  F. J. Keil,  
 C. Kelley,  Jihan Kim,  R. A. King,  R. Z. Khaliullin,  P. P. Korambath,  
 W. Kurlancheek,  A. Laurent,  A. M. Lee,  M. S. Lee,  S. V. Levchenko,  
 Ching Yeh Lin,  D. Liotard,  E. Livshits,  R. C. Lochan,  I. Lotan,  
 L. A. Martinez-Martinez,  P. E. Maslen,  N. Nair,  D. P. O'Neill,  
 D. Neuhauser,  E. Neuscamman,  C. M. Oana,  R. Olivares-Amaya,  R. Olson,  
 T. M. Perrine,  B. Peters,  P. A. Pieniazek,  A. Prociuk,  Y. M. Rhee,  
 J. Ritchie,  M. A. Rohrdanz,  E. Rosta,  N. J. Russ,  H. F. Schaefer III,  
 M. W. Schmidt,  N. E. Schultz,  S. Sharma,  N. Shenvi,  C. D. Sherrill,  
 A. C. Simmonett,  A. Sodt,  T. Stein,  D. Stuck,  K. S. Thanthiriwatte,  
 V. Vanovschi,  L. Vogt,  Tao Wang,  A. Warshel,  M. A. Watson,  
 C. F. Williams,  Q. Wu,  X. Xu,  Jun Yang,  W. Zhang,  Yan Zhao

 Please cite Q-Chem as follows:
 Y. Shao et al., Mol. Phys. 113, 184-215 (2015)
 DOI: 10.1080/00268976.2014.952696

 Q-Chem 5.4.0 for Intel X86 EM64T Linux

 Parts of Q-Chem use Armadillo 9.800.1 (Horizon Scraper).
 http://arma.sourceforge.net/

 Q-Chem begins on Mon Jan  8 20:31:36 2024  

 Host: 
0

     Scratch files written to ./qchem1921142//
 May1621 |scratch|qcdevops|jenkins|workspace|build_RNUM    
 Parallel job on  1  processors
 Processing $rem in /cm/shared/apps/spack/cpu/opt/spack/linux-centos8-zen2/gcc-10.2.0/qchem-5.4-akfmr7b3t57bfs6qan3padb2wnb2i7cl/config/preferences:
 Processing $rem in /home/rramji/.qchemrc:
 Symmetry turned off for PCM/SM12/SMD calculation
 Core orbitals will be frozen

 Checking the input file for inconsistencies... 	...done.

 Q-Chem warning in module forms1/BasisType.C, line 2236:

 You are not using the predefined 5D/6D in this basis set.


--------------------------------------------------------------
User input:
--------------------------------------------------------------
$molecule
0 1
C	0.095966	-8.517702	-0.306235
C	-0.082807	-7.641575	0.754415
S	0.348635	-7.638634	-1.833702
C	-0.017401	-6.264785	0.383675
H	-0.259008	-7.966081	1.787757
C	0.231913	-6.072714	-1.020885
C	0.305044	-4.787049	-1.579097
C	-0.196549	-5.162801	1.268082
C	-0.127606	-3.874817	0.708796
C	0.124792	-3.683952	-0.696769
O	-0.397867	-5.499772	2.572378
O	0.506103	-4.459055	-2.889532
C	1.267335	-5.329063	-3.718420
H	1.502804	-4.755694	-4.635204
H	0.697471	-6.238095	-4.010790
H	2.215194	-5.637262	-3.226506
C	-0.999238	-4.572261	3.467415
H	-1.230649	-5.139743	4.388648
H	-1.940905	-4.153131	3.052323
H	-0.311543	-3.739531	3.730819
C	0.187323	-2.306654	-1.064366
S	-0.257128	-2.306501	1.521154
C	-0.000000	-1.435185	-0.000000
H	0.365903	-1.978138	-2.095939
H	0.092855	-9.614033	-0.309131
C	0.000000	0.000000	0.000000
S	0.581934	0.692785	1.507541
C	1.592155	1.897915	0.718873
C	0.581944	0.692363	-1.067872
C	1.473741	1.758764	-0.686410
S	0.427560	0.503942	-2.805516
C	1.549278	1.849357	-3.054530
C	2.002690	2.393529	-1.862551
F	2.858191	3.420549	-1.819088
C	1.838710	2.191348	-4.456084
O	1.349977	1.596481	-5.406510
O	2.701091	3.230705	-4.569225
C	3.023327	3.606605	-5.916207
H	3.725703	4.454534	-5.833064
H	2.112072	3.910035	-6.470168
H	3.495281	2.762996	-6.459293
H	2.185174	2.606846	1.306486
$end

$rem
JOBTYPE		SP
EXCHANGE	HF
CORRELATION	pRIMP2
BASIS		cc-pvtz
METHOD		rimp2
AUX_BASIS	rimp2-cc-pvtz
SOLVENT_METHOD	PCM
PURECART	11111
SYMMETRY	false
MEM_TOTAL	110000
SCF_CONVERGENCE = 6
THRESH=10
GUI = 2
$end



$solvent
dielectric 4.90
$end
--------------------------------------------------------------
 ----------------------------------------------------------------
             Standard Nuclear Orientation (Angstroms)
    I     Atom           X                Y                Z
 ----------------------------------------------------------------
    1      C       0.0959660000    -8.5177020000    -0.3062350000
    2      C      -0.0828070000    -7.6415750000     0.7544150000
    3      S       0.3486350000    -7.6386340000    -1.8337020000
    4      C      -0.0174010000    -6.2647850000     0.3836750000
    5      H      -0.2590080000    -7.9660810000     1.7877570000
    6      C       0.2319130000    -6.0727140000    -1.0208850000
    7      C       0.3050440000    -4.7870490000    -1.5790970000
    8      C      -0.1965490000    -5.1628010000     1.2680820000
    9      C      -0.1276060000    -3.8748170000     0.7087960000
   10      C       0.1247920000    -3.6839520000    -0.6967690000
   11      O      -0.3978670000    -5.4997720000     2.5723780000
   12      O       0.5061030000    -4.4590550000    -2.8895320000
   13      C       1.2673350000    -5.3290630000    -3.7184200000
   14      H       1.5028040000    -4.7556940000    -4.6352040000
   15      H       0.6974710000    -6.2380950000    -4.0107900000
   16      H       2.2151940000    -5.6372620000    -3.2265060000
   17      C      -0.9992380000    -4.5722610000     3.4674150000
   18      H      -1.2306490000    -5.1397430000     4.3886480000
   19      H      -1.9409050000    -4.1531310000     3.0523230000
   20      H      -0.3115430000    -3.7395310000     3.7308190000
   21      C       0.1873230000    -2.3066540000    -1.0643660000
   22      S      -0.2571280000    -2.3065010000     1.5211540000
   23      C       0.0000000000    -1.4351850000     0.0000000000
   24      H       0.3659030000    -1.9781380000    -2.0959390000
   25      H       0.0928550000    -9.6140330000    -0.3091310000
   26      C       0.0000000000     0.0000000000     0.0000000000
   27      S       0.5819340000     0.6927850000     1.5075410000
   28      C       1.5921550000     1.8979150000     0.7188730000
   29      C       0.5819440000     0.6923630000    -1.0678720000
   30      C       1.4737410000     1.7587640000    -0.6864100000
   31      S       0.4275600000     0.5039420000    -2.8055160000
   32      C       1.5492780000     1.8493570000    -3.0545300000
   33      C       2.0026900000     2.3935290000    -1.8625510000
   34      F       2.8581910000     3.4205490000    -1.8190880000
   35      C       1.8387100000     2.1913480000    -4.4560840000
   36      O       1.3499770000     1.5964810000    -5.4065100000
   37      O       2.7010910000     3.2307050000    -4.5692250000
   38      C       3.0233270000     3.6066050000    -5.9162070000
   39      H       3.7257030000     4.4545340000    -5.8330640000
   40      H       2.1120720000     3.9100350000    -6.4701680000
   41      H       3.4952810000     2.7629960000    -6.4592930000
   42      H       2.1851740000     2.6068460000     1.3064860000
 ----------------------------------------------------------------
 Nuclear Repulsion Energy =        3317.18396735 hartrees
 There are      119 alpha and      119 beta electrons
 Requested basis set is cc-pVTZ
 There are 376 shells and 1068 basis functions

 Total QAlloc Memory Limit 110000 MB
 Mega-Array Size       188 MB
 MEM_STATIC part       192 MB
 Discretize the solute cavity surface with Lebedev spheres
	Using 110 Lebedev grid points for each H atom
	Using 194 Lebedev grid points for other atoms
	Atomic van der Waals radii will be scaled by 1.20
 Remove points where switching function is < 1.0e-08
 Keep 2866 surface tesserae and discard 4190 interior tesserae
 Molecular Surface Area = 434.350 Angst**2
 Requested basis set is rimp2-cc-pVTZ
 There are 833 shells and 2903 basis functions
 A cutoff of  1.0D-10 yielded  31555 shell pairs
 There are    241683 function pairs (    313582 Cartesian)
 Smallest overlap matrix eigenvalue = 2.13E-05

 Scale SEOQF with 1.000000e-01/1.000000e-02/1.000000e-02

 Standard Electronic Orientation quadrupole field applied
 Nucleus-field energy     =     0.0000000260 hartrees
 Guess from superposition of atomic densities
 Warning:  Energy on first SCF cycle will be non-variational
 SAD guess density has 238.000000 electrons

 -----------------------------------------------------------------------
  General SCF calculation program by
  Eric Jon Sundstrom, Paul Horn, Yuezhi Mao, Dmitri Zuev, Alec White,
  David Stuck, Shaama M.S., Shane Yost, Joonho Lee, David Small,
  Daniel Levine, Susi Lehtola, Hugh Burton, Evgeny Epifanovsky,
  Bang C. Huynh
 -----------------------------------------------------------------------
 Hartree-Fock
 using 64 threads for integral computing
 -------------------------------------------------------
 OpenMP Integral computing Module                
 Release: version 1.0, May 2013, Q-Chem Inc. Pittsburgh 
 -------------------------------------------------------
 A restricted SCF calculation will be
 performed using DIIS
 SCF converges when DIIS error is below 1.0e-06
 ---------------------------------------
  Cycle       Energy         DIIS error
 ---------------------------------------
    1   -2765.2921570068      1.75e-02  
    2   -2753.8485027503      1.57e-03  
    3   -2754.1895932776      8.66e-04  
    4   -2754.2722023847      2.56e-04  
    5   -2754.2838885950      6.92e-05  
    6   -2754.2849667535      2.38e-05  
    7   -2754.2851983933      1.13e-05  
    8   -2754.2852738543      4.22e-06  
    9   -2754.2852877736      1.67e-06  
   10   -2754.2852895084      7.51e-07  Convergence criterion met
 ---------------------------------------
 SCF time:   CPU 6391.33s  wall 256.00s 

************** Final PCM Free Energy Summary **************
 G_electrostatic  =      -0.01919827 hartree =     -12.04709935 kcal/mol
 G_cavitation     =       0.00000000 hartree =       0.00000000 kcal/mol
 G_dispersion     =       0.00000000 hartree =       0.00000000 kcal/mol
 G_repulsion      =       0.00000000 hartree =       0.00000000 kcal/mol
 --------------------------------------------------
 Non-electrostatic Free Energy =       0.00000000 hartree =       0.00000000 kcal/mol
 Total                         =      -0.01919827 hartree =     -12.04709935 kcal/mol
 --------------------------------------------------
 SCF Energy (H0 + V/2)                       =   -2754.28528951 
 Solute Internal Energy (H0)                 =   -2754.26609123 
 Total Free Energy (H0 + V/2 + non-elec)     =   -2754.28528951 hartree
                                             = -1728340.10500250 kcal/mol
***********************************************************

 SCF   energy in the final basis set =    -2754.2852895084
 Total energy in the final basis set =    -2754.2852895084


 --------------------------------------------------------------
  Generalized many-body perturbation theory program
  by Joonho Lee, Fazle Rob, Xintian Feng, Evgeny Epifanovsky

 No regularization used 
 (reg. param. = 0.0000e+00)
  (P|Q)^-1/2 Time:  CPU 266.39 s  wall 4.37 s

 In RI-MP2 calculation: 
 # of frozen core orbitals: 45

 Components of the RIMP2 correlation energy:
        aaaa    correlation energy =        -0.6715485161 a.u.
        abab    correlation energy =        -3.7169285006 a.u.
        bbbb    correlation energy =        -0.6715485161 a.u.
        non-Brillouin singles      =        -0.0000000000 a.u.
        total same-spin energy     =        -1.3430970322 a.u.
        total opposite-spin energy =        -3.7169285006 a.u.

 Total  RIMP2   correlation energy =        -5.0600255328 a.u.
        RIMP2         total energy =     -2759.3453150412 a.u.

 RI-MP2 Energy Time:  CPU 2699.28 s  wall 46.56 s
 
 --------------------------------------------------------------
 
                    Orbital Energies (a.u.)
 --------------------------------------------------------------
 
 Alpha MOs
 -- Occupied --
-92.0161 -92.0055 -91.9869 -91.9843 -26.3454 -20.6156 -20.5917 -20.5882
-20.5621 -11.4105 -11.3856 -11.3234 -11.3181 -11.3126 -11.3105 -11.2988
-11.2973 -11.2897 -11.2894 -11.2884 -11.2869 -11.2840 -11.2823 -11.2821
-11.2764 -11.2592 -11.2546 -11.2484 -11.2442  -9.0153  -9.0054  -8.9878
 -8.9842  -6.6960  -6.6953  -6.6948  -6.6863  -6.6856  -6.6845  -6.6688
 -6.6681  -6.6672  -6.6652  -6.6646  -6.6637  -1.6624  -1.4681  -1.4157
 -1.4110  -1.3709  -1.2282  -1.1920  -1.1650  -1.1391  -1.0852  -1.0497
 -1.0444  -1.0263  -0.9989  -0.9878  -0.9652  -0.9588  -0.9492  -0.9397
 -0.8946  -0.8707  -0.8483  -0.8105  -0.7985  -0.7879  -0.7840  -0.7625
 -0.7561  -0.7321  -0.7272  -0.7125  -0.7006  -0.6865  -0.6823  -0.6815
 -0.6747  -0.6597  -0.6579  -0.6507  -0.6297  -0.6181  -0.6158  -0.6040
 -0.6009  -0.5808  -0.5804  -0.5707  -0.5645  -0.5605  -0.5577  -0.5456
 -0.5344  -0.5306  -0.5227  -0.5172  -0.5152  -0.5101  -0.5048  -0.4954
 -0.4869  -0.4821  -0.4770  -0.4746  -0.4695  -0.4624  -0.4579  -0.4262
 -0.3940  -0.3822  -0.3616  -0.3476  -0.3280  -0.2893  -0.2473
 -- Virtual --
  0.0205   0.0617   0.1006   0.1255   0.1285   0.1513   0.1536   0.1567
  0.1575   0.1612   0.1632   0.1718   0.1815   0.1842   0.1913   0.1956
  0.2026   0.2074   0.2147   0.2191   0.2237   0.2241   0.2249   0.2271
  0.2381   0.2448   0.2494   0.2514   0.2573   0.2650   0.2755   0.2874
  0.2911   0.3066   0.3143   0.3307   0.3334   0.3403   0.3454   0.3549
  0.3597   0.3608   0.3701   0.3790   0.3829   0.3837   0.3874   0.3899
  0.3903   0.3959   0.3999   0.4036   0.4104   0.4155   0.4210   0.4241
  0.4306   0.4339   0.4393   0.4429   0.4476   0.4495   0.4553   0.4609
  0.4650   0.4680   0.4712   0.4757   0.4813   0.4841   0.4863   0.4933
  0.4974   0.4984   0.5031   0.5054   0.5089   0.5172   0.5203   0.5224
  0.5277   0.5295   0.5327   0.5369   0.5394   0.5426   0.5460   0.5509
  0.5545   0.5572   0.5590   0.5629   0.5674   0.5701   0.5734   0.5818
  0.5896   0.5904   0.5976   0.5979   0.6025   0.6071   0.6103   0.6157
  0.6166   0.6173   0.6224   0.6229   0.6244   0.6282   0.6326   0.6403
  0.6418   0.6463   0.6486   0.6527   0.6546   0.6607   0.6711   0.6772
  0.6784   0.6827   0.6866   0.6949   0.6972   0.6993   0.7032   0.7077
  0.7128   0.7189   0.7221   0.7266   0.7353   0.7360   0.7426   0.7520
  0.7526   0.7609   0.7684   0.7727   0.7840   0.7849   0.7968   0.8012
  0.8035   0.8064   0.8121   0.8222   0.8270   0.8289   0.8417   0.8442
  0.8497   0.8531   0.8591   0.8657   0.8697   0.8729   0.8831   0.8871
  0.8898   0.8985   0.9003   0.9060   0.9112   0.9193   0.9233   0.9287
  0.9309   0.9404   0.9434   0.9479   0.9498   0.9563   0.9638   0.9683
  0.9704   0.9722   0.9823   0.9837   0.9865   0.9944   1.0013   1.0029
  1.0057   1.0112   1.0177   1.0198   1.0211   1.0324   1.0413   1.0462
  1.0474   1.0507   1.0570   1.0602   1.0650   1.0672   1.0736   1.0822
  1.0862   1.0902   1.0941   1.0999   1.1032   1.1064   1.1109   1.1162
  1.1190   1.1195   1.1284   1.1316   1.1396   1.1478   1.1504   1.1547
  1.1609   1.1701   1.1729   1.1801   1.1836   1.1869   1.1887   1.1946
  1.1988   1.2029   1.2117   1.2150   1.2219   1.2236   1.2258   1.2332
  1.2354   1.2443   1.2494   1.2556   1.2627   1.2640   1.2664   1.2717
  1.2734   1.2768   1.2847   1.2964   1.3038   1.3087   1.3147   1.3170
  1.3252   1.3322   1.3361   1.3447   1.3500   1.3573   1.3641   1.3672
  1.3727   1.3789   1.3826   1.3935   1.3962   1.4077   1.4091   1.4236
  1.4288   1.4370   1.4503   1.4561   1.4695   1.4804   1.4839   1.4874
  1.4953   1.5004   1.5007   1.5087   1.5125   1.5163   1.5254   1.5335
  1.5343   1.5382   1.5419   1.5435   1.5467   1.5513   1.5593   1.5708
  1.5737   1.5799   1.5863   1.5881   1.5979   1.6126   1.6245   1.6320
  1.6401   1.6443   1.6496   1.6550   1.6599   1.6646   1.6765   1.6851
  1.6907   1.6978   1.7001   1.7094   1.7178   1.7302   1.7381   1.7426
  1.7541   1.7631   1.7739   1.7810   1.7948   1.7988   1.8061   1.8170
  1.8233   1.8306   1.8395   1.8480   1.8528   1.8649   1.8677   1.8730
  1.8873   1.8931   1.8978   1.9079   1.9173   1.9292   1.9324   1.9347
  1.9355   1.9406   1.9536   1.9595   1.9695   1.9807   1.9813   1.9930
  1.9980   2.0020   2.0118   2.0250   2.0311   2.0360   2.0473   2.0681
  2.0864   2.0884   2.0915   2.0959   2.1071   2.1164   2.1239   2.1415
  2.1584   2.1626   2.1663   2.1739   2.1782   2.1822   2.1889   2.1916
  2.1992   2.2032   2.2105   2.2174   2.2258   2.2292   2.2348   2.2385
  2.2526   2.2589   2.2612   2.2662   2.2735   2.2761   2.2839   2.2880
  2.2917   2.3131   2.3196   2.3242   2.3345   2.3497   2.3522   2.3658
  2.3711   2.3760   2.3774   2.3865   2.3945   2.4131   2.4202   2.4219
  2.4281   2.4304   2.4363   2.4415   2.4587   2.4679   2.4806   2.4822
  2.4948   2.4986   2.5072   2.5227   2.5286   2.5398   2.5482   2.5582
  2.5606   2.5719   2.5762   2.5885   2.5970   2.6128   2.6155   2.6226
  2.6251   2.6277   2.6339   2.6390   2.6422   2.6482   2.6582   2.6646
  2.6727   2.6810   2.6846   2.6964   2.6988   2.7045   2.7060   2.7073
  2.7134   2.7303   2.7310   2.7462   2.7483   2.7543   2.7646   2.7775
  2.7849   2.7882   2.7925   2.8025   2.8053   2.8079   2.8126   2.8151
  2.8324   2.8373   2.8455   2.8529   2.8534   2.8585   2.8676   2.8759
  2.8773   2.8812   2.8859   2.8917   2.8988   2.9174   2.9247   2.9293
  2.9444   2.9542   2.9589   2.9646   2.9695   2.9828   2.9858   2.9949
  3.0055   3.0082   3.0146   3.0227   3.0322   3.0359   3.0397   3.0409
  3.0445   3.0535   3.0680   3.0771   3.0810   3.0861   3.0931   3.1005
  3.1019   3.1057   3.1103   3.1139   3.1183   3.1223   3.1311   3.1345
  3.1483   3.1538   3.1586   3.1598   3.1642   3.1706   3.1780   3.1836
  3.1938   3.2040   3.2106   3.2119   3.2128   3.2183   3.2269   3.2285
  3.2329   3.2377   3.2400   3.2508   3.2550   3.2596   3.2629   3.2696
  3.2712   3.2770   3.2813   3.2829   3.2921   3.2960   3.2999   3.3087
  3.3108   3.3215   3.3288   3.3325   3.3385   3.3447   3.3483   3.3502
  3.3535   3.3560   3.3630   3.3659   3.3699   3.3724   3.3747   3.3792
  3.3853   3.3900   3.3940   3.3979   3.4019   3.4064   3.4169   3.4176
  3.4247   3.4266   3.4292   3.4371   3.4426   3.4477   3.4493   3.4591
  3.4627   3.4653   3.4712   3.4738   3.4760   3.4795   3.4844   3.4889
  3.4928   3.5024   3.5093   3.5173   3.5230   3.5312   3.5315   3.5354
  3.5405   3.5416   3.5523   3.5550   3.5561   3.5669   3.5761   3.5813
  3.5850   3.5857   3.5921   3.5998   3.6027   3.6065   3.6104   3.6154
  3.6233   3.6263   3.6301   3.6360   3.6437   3.6510   3.6565   3.6602
  3.6627   3.6736   3.6774   3.6837   3.6874   3.6951   3.7029   3.7046
  3.7059   3.7072   3.7158   3.7268   3.7290   3.7316   3.7390   3.7458
  3.7532   3.7572   3.7636   3.7718   3.7799   3.7852   3.7868   3.7909
  3.7960   3.7978   3.8022   3.8078   3.8108   3.8190   3.8221   3.8290
  3.8341   3.8416   3.8444   3.8553   3.8571   3.8623   3.8694   3.8733
  3.8779   3.8814   3.8897   3.8988   3.9006   3.9062   3.9098   3.9188
  3.9276   3.9294   3.9440   3.9482   3.9546   3.9573   3.9688   3.9813
  3.9850   3.9994   4.0032   4.0095   4.0143   4.0281   4.0325   4.0372
  4.0442   4.0530   4.0617   4.0678   4.0709   4.0765   4.0878   4.0933
  4.1027   4.1183   4.1207   4.1299   4.1409   4.1428   4.1507   4.1553
  4.1614   4.1665   4.1716   4.1749   4.1851   4.1911   4.1934   4.2041
  4.2064   4.2124   4.2227   4.2380   4.2443   4.2481   4.2568   4.2661
  4.2764   4.2895   4.3090   4.3219   4.3308   4.3369   4.3413   4.3529
  4.3570   4.3637   4.3658   4.3698   4.3806   4.3822   4.3891   4.4039
  4.4080   4.4125   4.4172   4.4221   4.4285   4.4355   4.4388   4.4491
  4.4525   4.4738   4.4792   4.4892   4.5027   4.5089   4.5141   4.5259
  4.5374   4.5427   4.5479   4.5584   4.5645   4.5695   4.5840   4.5901
  4.5933   4.6154   4.6238   4.6286   4.6355   4.6437   4.6518   4.6534
  4.6720   4.6735   4.6776   4.6852   4.6906   4.7188   4.7334   4.7363
  4.7475   4.7549   4.7568   4.7657   4.7776   4.7937   4.8000   4.8211
  4.8305   4.8379   4.8470   4.8558   4.8666   4.8762   4.8842   4.9048
  4.9294   4.9453   4.9501   4.9605   4.9645   4.9732   4.9923   4.9958
  5.0050   5.0084   5.0171   5.0349   5.0385   5.0497   5.0698   5.0723
  5.0870   5.1026   5.1172   5.1254   5.1617   5.1687   5.1759   5.1969
  5.2046   5.2214   5.2399   5.2468   5.2506   5.2570   5.2602   5.2811
  5.2985   5.3090   5.3152   5.3269   5.3372   5.3489   5.3591   5.3703
  5.3791   5.3952   5.4017   5.4042   5.4164   5.4257   5.4403   5.4657
  5.4843   5.4852   5.5005   5.5072   5.5147   5.5224   5.5359   5.5676
  5.5785   5.5838   5.5903   5.6076   5.6208   5.6252   5.6489   5.6615
  5.7239   5.7249   5.7433   5.7761   5.8068   5.8142   5.8250   5.8556
  5.8752   5.8868   5.9086   5.9284   5.9358   5.9690   6.0029   6.0406
  6.0446   6.0796   6.1113   6.1484   6.1500   6.1715   6.1794   6.1837
  6.2417   6.2481   6.2554   6.2608   6.2731   6.2815   6.3143   6.3446
  6.4162   6.4481   6.4493   6.4812   6.5384   6.5498   6.5598   6.6008
  6.6578   6.6609   6.6705   6.7023   6.7443   6.8028   6.8289   6.8389
  6.8591   6.8959   6.9773   7.1237   7.1365   7.2032   7.2044   7.2168
  7.2377   7.3092   7.3242   7.3330   7.3613   7.3621   7.4041   7.4127
  7.4788   7.4837   7.4905   7.5192   7.5483   7.6152   7.7033   7.7710
  7.7890   7.7989   7.8911   7.9216   7.9425   7.9599   8.0672   8.1329
  8.4628   8.9203   9.0206   9.3613   9.4775   9.6591  10.0932  10.4606
 11.1795  11.3867  11.7745  11.9869  12.1332  12.1817  12.4206  12.5826
 12.6682  12.9709  13.0111  13.1707  13.3675  13.3898  13.7722  13.8500
 13.9047  14.0253  14.0393  14.6124  15.2107
 --------------------------------------------------------------
 
          Ground-State Mulliken Net Atomic Charges

     Atom                 Charge (a.u.)
  ----------------------------------------
      1 C                    -0.195671
      2 C                    -0.253774
      3 S                    -0.025530
      4 C                    -0.021802
      5 H                     0.195403
      6 C                    -0.025320
      7 C                     0.236598
      8 C                     0.246226
      9 C                    -0.045816
     10 C                    -0.015853
     11 O                    -0.333291
     12 O                    -0.341826
     13 C                    -0.086249
     14 H                     0.122751
     15 H                     0.090917
     16 H                     0.092747
     17 C                    -0.088056
     18 H                     0.125682
     19 H                     0.094843
     20 H                     0.089038
     21 C                    -0.250052
     22 S                    -0.044892
     23 C                    -0.009422
     24 H                     0.188261
     25 H                     0.205211
     26 C                    -0.035435
     27 S                     0.106964
     28 C                    -0.166130
     29 C                     0.003272
     30 C                    -0.101054
     31 S                     0.044349
     32 C                    -0.161947
     33 C                     0.403503
     34 F                    -0.204827
     35 C                     0.447552
     36 O                    -0.460994
     37 O                    -0.301032
     38 C                    -0.058286
     39 H                     0.121584
     40 H                     0.095369
     41 H                     0.095220
     42 H                     0.221768
  ----------------------------------------
  Sum of atomic charges =     0.000000

 -----------------------------------------------------------------
                    Cartesian Multipole Moments
 -----------------------------------------------------------------
    Charge (ESU x 10^10)
                -0.0000
    Dipole Moment (Debye)
         X       2.5391      Y       2.1441      Z       3.0793
       Tot       4.5306
    Quadrupole Moments (Debye-Ang)
        XX    -190.9686     XY       7.3732     YY    -172.2479
        XZ     -13.7741     YZ      -6.6036     ZZ    -184.4277
    Octopole Moments (Debye-Ang^2)
       XXX    -361.3238    XXY     427.9109    XYY     -93.8589
       YYY    1000.8308    XXZ     162.4119    XYZ      14.1391
       YYZ     148.9467    XZZ     -60.4359    YZZ     396.9935
       ZZZ     600.8906
    Hexadecapole Moments (Debye-Ang^3)
      XXXX   -1798.3086   XXXY    -636.9040   XXYY   -3890.4986
      XYYY    -664.0135   YYYY  -18381.3303   XXXZ    1218.0366
      XXYZ     128.4301   XYYZ      76.8616   YYYZ     592.7865
      XXZZ   -1291.3037   XYZZ      47.0289   YYZZ   -4087.0404
      XZZZ     828.2385   YZZZ     283.8794   ZZZZ   -7407.3885
 -----------------------------------------------------------------
 Total job time:  313.58s(wall), 9538.86s(cpu) 
 Mon Jan  8 20:36:49 2024

        *************************************************************
        *                                                           *
        *  Thank you very much for using Q-Chem.  Have a nice day.  *
        *                                                           *
        *************************************************************


0 sent ACK to 0 
now end server 0 ... 
cleanup process ... done
remove work dirs ./qchem1921142.0 -- ./qchem1921142.0
rm -rf ./qchem1921142.0
rm -rf ./qchem1921142
