You are running Q-Chem version: 5.4.0

#
# job setting
#
local host:  exp-3-46
current dir: /home/rramji/project-csd799/aromodel/ptb7fout-qchem/rotation-run
input file:  Dimethoxy_Benzodithiophene_Phi_60_Theta_330_Methylcarbonyl_3_Fluoro_Thienothiophene.qcin
output file: 
nprocs     : 1
nthreads   : 64
#
# qchem installation setting
#
QC:          /cm/shared/apps/spack/cpu/opt/spack/linux-centos8-zen2/gcc-10.2.0/qchem-5.4-akfmr7b3t57bfs6qan3padb2wnb2i7cl
QCAUX:       /cm/shared/apps/spack/cpu/opt/spack/linux-centos8-zen2/gcc-10.2.0/qchem-5.4-akfmr7b3t57bfs6qan3padb2wnb2i7cl/qcaux
QCPROG:      /cm/shared/apps/spack/cpu/opt/spack/linux-centos8-zen2/gcc-10.2.0/qchem-5.4-akfmr7b3t57bfs6qan3padb2wnb2i7cl/exe/qcprog.exe
QCPROG_S:    /cm/shared/apps/spack/cpu/opt/spack/linux-centos8-zen2/gcc-10.2.0/qchem-5.4-akfmr7b3t57bfs6qan3padb2wnb2i7cl/exe/qcprog.exe_s
PARALLEL:    -DPARALLEL
QCMPI:       mpich
#
# qchem directory setting
#
qcrun:       qchem1684765
QCSCRATCH:   .
QCLOCALSCR:  
QCTMPDIR:    .
QCFILEPREF:  ./qchem1684765
QCSAVEDIR:   
workdirs:    ./qchem1684765
workdir0:    ./qchem1684765
partmpdirs =  
#
# parallel setting
#
QCRSH:           ssh
QCMPI:           mpich
QCMPIRUN:        /cm/shared/apps/spack/cpu/opt/spack/linux-centos8-zen2/gcc-10.2.0/qchem-5.4-akfmr7b3t57bfs6qan3padb2wnb2i7cl/bin/mpi/mpirun_qchem
QCMACHINEFILE:   ./qchem1684765/hostfile
exp-3-46

#
# env setting
#
exported envs:   QC QCAUX QCSCRATCH QCRUNNAME QCFILEPREF QCPROG QCPROG_S GUIFILE

Running Job 1 of 1 Dimethoxy_Benzodithiophene_Phi_60_Theta_330_Methylcarbonyl_3_Fluoro_Thienothiophene.qcin
qchem Dimethoxy_Benzodithiophene_Phi_60_Theta_330_Methylcarbonyl_3_Fluoro_Thienothiophene.qcin_1684765.0 ./qchem1684765/ 1
/cm/shared/apps/spack/cpu/opt/spack/linux-centos8-zen2/gcc-10.2.0/qchem-5.4-akfmr7b3t57bfs6qan3padb2wnb2i7cl/bin/mpi/mpirun_qchem -machinefile ./qchem1684765/hostfile -np 1 /cm/shared/apps/spack/cpu/opt/spack/linux-centos8-zen2/gcc-10.2.0/qchem-5.4-akfmr7b3t57bfs6qan3padb2wnb2i7cl/exe/qcprog.exe Dimethoxy_Benzodithiophene_Phi_60_Theta_330_Methylcarbonyl_3_Fluoro_Thienothiophene.qcin_1684765.0 ./qchem1684765/

Process 0 of 1 is on exp-3-46 - thread support 0
initial socket setup ...start
initial socket setup ...done 
now start server 0 ... 
                  Welcome to Q-Chem
     A Quantum Leap Into The Future Of Chemistry


 Q-Chem 5.4, Q-Chem, Inc., Pleasanton, CA (2021)

 License issued to: University of California, San Diego (site)

 E. Epifanovsky,  A. T. B. Gilbert,  Xintian Feng,  Joonho Lee,  Yuezhi Mao,  
 N. Mardirossian,  P. Pokhilko,  A. White,  M. Wormit,  M. P. Coons,  
 A. L. Dempwolff,  Zhengting Gan,  D. Hait,  P. R. Horn,  L. D. Jacobson,  
 I. Kaliman,  J. Kussmann,  A. W. Lange,  Ka Un Lao,  D. S. Levine,  Jie Liu,  
 S. C. McKenzie,  A. F. Morrison,  K. Nanda,  F. Plasser,  D. R. Rehn,  
 M. L. Vidal,  Zhi-Qiang You,  Ying Zhu,  B. Alam,  B. Albrecht,  
 A. Aldossary,  E. Alguire,  J. H. Andersen,  D. Barton,  K. Begam,  A. Behn,  
 Y. A. Bernard,  E. J. Berquist,  H. Burton,  A. Carreras,  K. Carter-Fenk,  
 R. Chakraborty,  A. D. Chien,  K. D. Closser,  V. Cofer-Shabica,  
 S. Dasgupta,  Jia Deng,  M. de Wergifosse,  M. Diedenhofen,  Hainam Do,  
 S. Ehlert,  Po-Tung Fang,  S. Fatehi,  Qingguo Feng,  J. Gayvert,  
 Qinghui Ge,  G. Gidofalvi,  M. Goldey,  J. Gomes,  C. Gonzalez-Espinoza,  
 S. Gulania,  A. Gunina,  M. W. D. Hanson-Heine,  P. H. P. Harbach,  
 A. W. Hauser,  M. F. Herbst,  M. Hernandez Vera,  M. Hodecker,  
 Z. C. Holden,  S. Houck,  Xunkun Huang,  Kerwin Hui,  B. C. Huynh,  
 M. Ivanov,  Hyunjun Ji,  Hanjie Jiang,  B. Kaduk,  S. Kaehler,  
 K. Khistyaev,  Jaehoon Kim,  P. Klunzinger,  Z. Koczor-Benda,  
 Joong Hoon Koh,  D. Kosenkov,  L. Koulias,  T. Kowalczyk,  C. M. Krauter,  
 K. Kue,  A. Kunitsa,  T. Kus,  A. Landau,  K. V. Lawler,  D. Lefrancois,  
 S. Lehtola,  Rain Li,  Yi-Pei Li,  Jiashu Liang,  M. Liebenthal,  
 Hung-Hsuan Lin,  You-Sheng Lin,  Fenglai Liu,  Kuan-Yu Liu,  
 M. Loipersberger,  A. Luenser,  A. Manjanath,  P. Manohar,  E. Mansoor,  
 S. F. Manzer,  Shan-Ping Mao,  A. V. Marenich,  T. Markovich,  S. Mason,  
 S. A. Maurer,  P. F. McLaughlin,  M. F. S. J. Menger,  J.-M. Mewes,  
 S. A. Mewes,  P. Morgante,  J. W. Mullinax,  T. S. Nguyen-Beck,  
 K. J. Oosterbaan,  G. Paran,  Alexander C. Paul,  Suranjan K. Paul,  
 F. Pavosevic,  Zheng Pei,  S. Prager,  E. I. Proynov,  E. Ramos,  B. Rana,  
 A. E. Rask,  A. Rettig,  R. M. Richard,  F. Rob,  E. Rossomme,  T. Scheele,  
 M. Scheurer,  M. Schneider,  N. Sergueev,  S. M. Sharada,  W. Skomorowski,  
 D. W. Small,  C. J. Stein,  Yu-Chuan Su,  E. J. Sundstrom,  Zhen Tao,  
 J. Thirman,  T. Tsuchimochi,  N. M. Tubman,  S. P. Veccham,  O. Vydrov,  
 J. Wenzel,  J. Witte,  A. Yamada,  Kun Yao,  S. Yeganeh,  S. R. Yost,  
 A. Zech,  Igor Ying Zhang,  Xing Zhang,  Yu Zhang,  D. Zuev,  
 A. Aspuru-Guzik,  A. T. Bell,  N. A. Besley,  K. B. Bravaya,  B. R. Brooks,  
 D. Casanova,  Jeng-Da Chai,  S. Coriani,  C. J. Cramer,  
 A. E. DePrince, III,  R. A. DiStasio Jr.,  A. Dreuw,  B. D. Dunietz,  
 T. R. Furlani,  W. A. Goddard III,  S. Grimme,  S. Hammes-Schiffer,  
 T. Head-Gordon,  W. J. Hehre,  Chao-Ping Hsu,  T.-C. Jagau,  Yousung Jung,  
 A. Klamt,  Jing Kong,  D. S. Lambrecht,  WanZhen Liang,  N. J. Mayhall,  
 C. W. McCurdy,  J. B. Neaton,  C. Ochsenfeld,  J. A. Parkhill,  R. Peverati,  
 V. A. Rassolov,  Yihan Shao,  L. V. Slipchenko,  T. Stauch,  R. P. Steele,  
 J. E. Subotnik,  A. J. W. Thom,  A. Tkatchenko,  D. G. Truhlar,  
 T. Van Voorhis,  T. A. Wesolowski,  K. B. Whaley,  H. L. Woodcock III,  
 P. M. Zimmerman,  S. Faraji,  P. M. W. Gill,  M. Head-Gordon,  
 J. M. Herbert,  A. I. Krylov

 Contributors to earlier versions of Q-Chem not listed above: 
 R. D. Adamson,  B. Austin,  R. Baer,  J. Baker,  G. J. O. Beran,  
 K. Brandhorst,  S. T. Brown,  E. F. C. Byrd,  A. K. Chakraborty,  
 G. K. L. Chan,  Chun-Min Chang,  Yunqing Chen,  C.-L. Cheng,  
 Siu Hung Chien,  D. M. Chipman,  D. L. Crittenden,  H. Dachsel,  
 R. J. Doerksen,  A. D. Dutoi,  R. G. Edgar,  J. Fosso-Tande,  
 L. Fusti-Molnar,  D. Ghosh,  A. Ghysels,  A. Golubeva-Zadorozhnaya,  
 J. Gonthier,  M. S. Gordon,  S. R. Gwaltney,  G. Hawkins,  J. E. Herr,  
 A. Heyden,  S. Hirata,  E. G. Hohenstein,  G. Kedziora,  F. J. Keil,  
 C. Kelley,  Jihan Kim,  R. A. King,  R. Z. Khaliullin,  P. P. Korambath,  
 W. Kurlancheek,  A. Laurent,  A. M. Lee,  M. S. Lee,  S. V. Levchenko,  
 Ching Yeh Lin,  D. Liotard,  E. Livshits,  R. C. Lochan,  I. Lotan,  
 L. A. Martinez-Martinez,  P. E. Maslen,  N. Nair,  D. P. O'Neill,  
 D. Neuhauser,  E. Neuscamman,  C. M. Oana,  R. Olivares-Amaya,  R. Olson,  
 T. M. Perrine,  B. Peters,  P. A. Pieniazek,  A. Prociuk,  Y. M. Rhee,  
 J. Ritchie,  M. A. Rohrdanz,  E. Rosta,  N. J. Russ,  H. F. Schaefer III,  
 M. W. Schmidt,  N. E. Schultz,  S. Sharma,  N. Shenvi,  C. D. Sherrill,  
 A. C. Simmonett,  A. Sodt,  T. Stein,  D. Stuck,  K. S. Thanthiriwatte,  
 V. Vanovschi,  L. Vogt,  Tao Wang,  A. Warshel,  M. A. Watson,  
 C. F. Williams,  Q. Wu,  X. Xu,  Jun Yang,  W. Zhang,  Yan Zhao

 Please cite Q-Chem as follows:
 Y. Shao et al., Mol. Phys. 113, 184-215 (2015)
 DOI: 10.1080/00268976.2014.952696

 Q-Chem 5.4.0 for Intel X86 EM64T Linux

 Parts of Q-Chem use Armadillo 9.800.1 (Horizon Scraper).
 http://arma.sourceforge.net/

 Q-Chem begins on Tue Jan  9 02:22:52 2024  

 Host: 
0

     Scratch files written to ./qchem1684765//
 May1621 |scratch|qcdevops|jenkins|workspace|build_RNUM    
 Parallel job on  1  processors
 Processing $rem in /cm/shared/apps/spack/cpu/opt/spack/linux-centos8-zen2/gcc-10.2.0/qchem-5.4-akfmr7b3t57bfs6qan3padb2wnb2i7cl/config/preferences:
 Processing $rem in /home/rramji/.qchemrc:
 Symmetry turned off for PCM/SM12/SMD calculation
 Core orbitals will be frozen

 Checking the input file for inconsistencies... 	...done.

 Q-Chem warning in module forms1/BasisType.C, line 2236:

 You are not using the predefined 5D/6D in this basis set.


--------------------------------------------------------------
User input:
--------------------------------------------------------------
$molecule
0 1
C	0.123330	-8.517702	0.296276
C	-0.421494	-7.641575	-0.631143
S	0.911611	-7.638634	1.628795
C	-0.233291	-6.264785	-0.305097
H	-0.950737	-7.966081	-1.535988
C	0.478557	-6.072714	0.931114
C	0.781346	-4.787049	1.405737
C	-0.664542	-5.162801	-1.097747
C	-0.357854	-3.874817	-0.624993
C	0.352278	-3.683952	0.613970
O	-1.348709	-5.499772	-2.226300
O	1.469658	-4.459055	2.538827
C	1.419319	-5.329063	3.663102
H	1.828237	-4.755694	4.516756
H	2.043793	-6.238095	3.520769
H	0.377021	-5.637262	3.895546
C	-1.463351	-4.572261	-3.298492
H	-1.878237	-5.139743	-4.152945
H	-0.475176	-4.153131	-3.585804
H	-2.159469	-3.739531	-3.058230
C	0.540664	-2.306654	0.935761
S	-0.780808	-2.306501	-1.330550
C	-0.000000	-1.435185	-0.000000
H	1.066946	-1.978138	1.840780
H	0.127575	-9.614033	0.296494
C	0.000000	0.000000	0.000000
S	0.783786	0.451972	1.507541
C	2.145261	1.238908	0.718873
C	0.783650	0.451572	-1.067872
C	1.986396	1.148648	-0.686410
S	0.574133	0.327317	-2.805516
C	2.088363	1.207943	-3.054530
C	2.700548	1.564221	-1.862551
F	3.855718	2.236706	-1.819088
C	2.477307	1.430318	-4.456084
O	1.814592	1.038482	-5.406510
O	3.643162	2.112042	-4.569225
C	4.074530	2.355061	-5.916207
H	5.024556	2.911627	-5.833064
H	3.322010	2.951860	-6.470168
H	4.229490	1.400910	-6.459293
H	2.944986	1.702260	1.306486
$end

$rem
JOBTYPE		SP
EXCHANGE	HF
CORRELATION	pRIMP2
BASIS		cc-pvtz
METHOD		rimp2
AUX_BASIS	rimp2-cc-pvtz
SOLVENT_METHOD	PCM
PURECART	11111
SYMMETRY	false
MEM_TOTAL	110000
SCF_CONVERGENCE = 6
THRESH=10
GUI = 2
$end



$solvent
dielectric 4.90
$end
--------------------------------------------------------------
 ----------------------------------------------------------------
             Standard Nuclear Orientation (Angstroms)
    I     Atom           X                Y                Z
 ----------------------------------------------------------------
    1      C       0.1233300000    -8.5177020000     0.2962760000
    2      C      -0.4214940000    -7.6415750000    -0.6311430000
    3      S       0.9116110000    -7.6386340000     1.6287950000
    4      C      -0.2332910000    -6.2647850000    -0.3050970000
    5      H      -0.9507370000    -7.9660810000    -1.5359880000
    6      C       0.4785570000    -6.0727140000     0.9311140000
    7      C       0.7813460000    -4.7870490000     1.4057370000
    8      C      -0.6645420000    -5.1628010000    -1.0977470000
    9      C      -0.3578540000    -3.8748170000    -0.6249930000
   10      C       0.3522780000    -3.6839520000     0.6139700000
   11      O      -1.3487090000    -5.4997720000    -2.2263000000
   12      O       1.4696580000    -4.4590550000     2.5388270000
   13      C       1.4193190000    -5.3290630000     3.6631020000
   14      H       1.8282370000    -4.7556940000     4.5167560000
   15      H       2.0437930000    -6.2380950000     3.5207690000
   16      H       0.3770210000    -5.6372620000     3.8955460000
   17      C      -1.4633510000    -4.5722610000    -3.2984920000
   18      H      -1.8782370000    -5.1397430000    -4.1529450000
   19      H      -0.4751760000    -4.1531310000    -3.5858040000
   20      H      -2.1594690000    -3.7395310000    -3.0582300000
   21      C       0.5406640000    -2.3066540000     0.9357610000
   22      S      -0.7808080000    -2.3065010000    -1.3305500000
   23      C       0.0000000000    -1.4351850000     0.0000000000
   24      H       1.0669460000    -1.9781380000     1.8407800000
   25      H       0.1275750000    -9.6140330000     0.2964940000
   26      C       0.0000000000     0.0000000000     0.0000000000
   27      S       0.7837860000     0.4519720000     1.5075410000
   28      C       2.1452610000     1.2389080000     0.7188730000
   29      C       0.7836500000     0.4515720000    -1.0678720000
   30      C       1.9863960000     1.1486480000    -0.6864100000
   31      S       0.5741330000     0.3273170000    -2.8055160000
   32      C       2.0883630000     1.2079430000    -3.0545300000
   33      C       2.7005480000     1.5642210000    -1.8625510000
   34      F       3.8557180000     2.2367060000    -1.8190880000
   35      C       2.4773070000     1.4303180000    -4.4560840000
   36      O       1.8145920000     1.0384820000    -5.4065100000
   37      O       3.6431620000     2.1120420000    -4.5692250000
   38      C       4.0745300000     2.3550610000    -5.9162070000
   39      H       5.0245560000     2.9116270000    -5.8330640000
   40      H       3.3220100000     2.9518600000    -6.4701680000
   41      H       4.2294900000     1.4009100000    -6.4592930000
   42      H       2.9449860000     1.7022600000     1.3064860000
 ----------------------------------------------------------------
 Nuclear Repulsion Energy =        3358.66042616 hartrees
 There are      119 alpha and      119 beta electrons
 Requested basis set is cc-pVTZ
 There are 376 shells and 1068 basis functions

 Total QAlloc Memory Limit 110000 MB
 Mega-Array Size       188 MB
 MEM_STATIC part       192 MB
 Discretize the solute cavity surface with Lebedev spheres
	Using 110 Lebedev grid points for each H atom
	Using 194 Lebedev grid points for other atoms
	Atomic van der Waals radii will be scaled by 1.20
 Remove points where switching function is < 1.0e-08
 Keep 2851 surface tesserae and discard 4205 interior tesserae
 Molecular Surface Area = 432.974 Angst**2
 Requested basis set is rimp2-cc-pVTZ
 There are 833 shells and 2903 basis functions
 A cutoff of  1.0D-10 yielded  32078 shell pairs
 There are    245176 function pairs (    317899 Cartesian)
 Smallest overlap matrix eigenvalue = 2.21E-05

 Scale SEOQF with 1.000000e-01/1.000000e-02/1.000000e-02

 Standard Electronic Orientation quadrupole field applied
 Nucleus-field energy     =     0.0000000372 hartrees
 Guess from superposition of atomic densities
 Warning:  Energy on first SCF cycle will be non-variational
 SAD guess density has 238.000000 electrons

 -----------------------------------------------------------------------
  General SCF calculation program by
  Eric Jon Sundstrom, Paul Horn, Yuezhi Mao, Dmitri Zuev, Alec White,
  David Stuck, Shaama M.S., Shane Yost, Joonho Lee, David Small,
  Daniel Levine, Susi Lehtola, Hugh Burton, Evgeny Epifanovsky,
  Bang C. Huynh
 -----------------------------------------------------------------------
 Hartree-Fock
 using 64 threads for integral computing
 -------------------------------------------------------
 OpenMP Integral computing Module                
 Release: version 1.0, May 2013, Q-Chem Inc. Pittsburgh 
 -------------------------------------------------------
 A restricted SCF calculation will be
 performed using DIIS
 SCF converges when DIIS error is below 1.0e-06
 ---------------------------------------
  Cycle       Energy         DIIS error
 ---------------------------------------
    1   -2765.3682474876      1.76e-02  
    2   -2753.8074378518      1.57e-03  
    3   -2754.1497624705      8.78e-04  
    4   -2754.2354119302      2.57e-04  
    5   -2754.2473754217      6.96e-05  
    6   -2754.2484827805      2.40e-05  
    7   -2754.2487259198      1.16e-05  
    8   -2754.2488067293      4.42e-06  
    9   -2754.2488231627      1.82e-06  
   10   -2754.2488256102      8.19e-07  Convergence criterion met
 ---------------------------------------
 SCF time:   CPU 6655.48s  wall 244.00s 

************** Final PCM Free Energy Summary **************
 G_electrostatic  =      -0.02076415 hartree =     -13.02970192 kcal/mol
 G_cavitation     =       0.00000000 hartree =       0.00000000 kcal/mol
 G_dispersion     =       0.00000000 hartree =       0.00000000 kcal/mol
 G_repulsion      =       0.00000000 hartree =       0.00000000 kcal/mol
 --------------------------------------------------
 Non-electrostatic Free Energy =       0.00000000 hartree =       0.00000000 kcal/mol
 Total                         =      -0.02076415 hartree =     -13.02970192 kcal/mol
 --------------------------------------------------
 SCF Energy (H0 + V/2)                       =   -2754.24882561 
 Solute Internal Energy (H0)                 =   -2754.22806146 
 Total Free Energy (H0 + V/2 + non-elec)     =   -2754.24882561 hartree
                                             = -1728317.22356101 kcal/mol
***********************************************************

 SCF   energy in the final basis set =    -2754.2488256102
 Total energy in the final basis set =    -2754.2488256102


 --------------------------------------------------------------
  Generalized many-body perturbation theory program
  by Joonho Lee, Fazle Rob, Xintian Feng, Evgeny Epifanovsky

 No regularization used 
 (reg. param. = 0.0000e+00)
  (P|Q)^-1/2 Time:  CPU 155.12 s  wall 2.76 s

 In RI-MP2 calculation: 
 # of frozen core orbitals: 45

 Components of the RIMP2 correlation energy:
        aaaa    correlation energy =        -0.6726555056 a.u.
        abab    correlation energy =        -3.7195174486 a.u.
        bbbb    correlation energy =        -0.6726555056 a.u.
        non-Brillouin singles      =        -0.0000000000 a.u.
        total same-spin energy     =        -1.3453110113 a.u.
        total opposite-spin energy =        -3.7195174486 a.u.

 Total  RIMP2   correlation energy =        -5.0648284598 a.u.
        RIMP2         total energy =     -2759.3136540700 a.u.

 RI-MP2 Energy Time:  CPU 2809.10 s  wall 46.91 s
 
 --------------------------------------------------------------
 
                    Orbital Energies (a.u.)
 --------------------------------------------------------------
 
 Alpha MOs
 -- Occupied --
-92.0137 -92.0111 -91.9824 -91.9823 -26.3469 -20.6159 -20.5901 -20.5864
-20.5624 -11.4111 -11.3878 -11.3383 -11.3260 -11.3161 -11.3082 -11.2998
-11.2988 -11.2900 -11.2897 -11.2851 -11.2838 -11.2802 -11.2777 -11.2748
-11.2736 -11.2559 -11.2507 -11.2469 -11.2340  -9.0134  -9.0107  -8.9834
 -8.9824  -6.6940  -6.6931  -6.6929  -6.6916  -6.6908  -6.6898  -6.6644
 -6.6637  -6.6634  -6.6628  -6.6628  -6.6619  -1.6639  -1.4685  -1.4139
 -1.4094  -1.3713  -1.2366  -1.1894  -1.1651  -1.1405  -1.0861  -1.0476
 -1.0454  -1.0292  -0.9966  -0.9874  -0.9672  -0.9553  -0.9473  -0.9414
 -0.8916  -0.8731  -0.8429  -0.8200  -0.7950  -0.7838  -0.7821  -0.7629
 -0.7558  -0.7294  -0.7286  -0.7139  -0.6980  -0.6869  -0.6836  -0.6791
 -0.6751  -0.6612  -0.6562  -0.6496  -0.6298  -0.6168  -0.6151  -0.6057
 -0.6036  -0.5895  -0.5792  -0.5680  -0.5649  -0.5634  -0.5525  -0.5466
 -0.5325  -0.5257  -0.5214  -0.5168  -0.5116  -0.5105  -0.5031  -0.4922
 -0.4869  -0.4812  -0.4769  -0.4736  -0.4644  -0.4611  -0.4545  -0.4235
 -0.3863  -0.3822  -0.3621  -0.3482  -0.3232  -0.2942  -0.2470
 -- Virtual --
  0.0198   0.0744   0.0815   0.1276   0.1340   0.1394   0.1513   0.1562
  0.1568   0.1581   0.1624   0.1776   0.1789   0.1830   0.1930   0.1998
  0.2026   0.2058   0.2071   0.2143   0.2205   0.2238   0.2247   0.2269
  0.2324   0.2417   0.2470   0.2491   0.2579   0.2609   0.2725   0.2792
  0.2876   0.3008   0.3081   0.3214   0.3369   0.3393   0.3402   0.3514
  0.3547   0.3605   0.3670   0.3741   0.3813   0.3836   0.3854   0.3878
  0.3901   0.3923   0.4002   0.4052   0.4084   0.4111   0.4177   0.4241
  0.4273   0.4277   0.4332   0.4413   0.4475   0.4488   0.4515   0.4587
  0.4641   0.4695   0.4736   0.4775   0.4815   0.4863   0.4882   0.4926
  0.4972   0.4992   0.5028   0.5082   0.5113   0.5133   0.5183   0.5210
  0.5271   0.5308   0.5326   0.5349   0.5385   0.5407   0.5448   0.5463
  0.5528   0.5543   0.5597   0.5659   0.5690   0.5715   0.5757   0.5799
  0.5887   0.5917   0.5972   0.5978   0.6042   0.6085   0.6088   0.6122
  0.6153   0.6189   0.6208   0.6216   0.6278   0.6313   0.6328   0.6377
  0.6415   0.6484   0.6517   0.6543   0.6558   0.6647   0.6669   0.6724
  0.6757   0.6848   0.6858   0.6888   0.6961   0.6994   0.7049   0.7088
  0.7149   0.7177   0.7200   0.7242   0.7411   0.7424   0.7448   0.7508
  0.7545   0.7596   0.7673   0.7741   0.7771   0.7860   0.7893   0.7966
  0.8069   0.8157   0.8169   0.8221   0.8240   0.8286   0.8349   0.8446
  0.8462   0.8558   0.8613   0.8645   0.8701   0.8710   0.8760   0.8874
  0.8929   0.8958   0.9057   0.9076   0.9105   0.9135   0.9193   0.9237
  0.9293   0.9324   0.9378   0.9425   0.9493   0.9532   0.9585   0.9634
  0.9656   0.9763   0.9799   0.9866   0.9914   0.9981   0.9999   1.0049
  1.0072   1.0118   1.0201   1.0216   1.0266   1.0317   1.0391   1.0403
  1.0472   1.0508   1.0585   1.0652   1.0688   1.0736   1.0799   1.0809
  1.0853   1.0943   1.0968   1.1039   1.1058   1.1085   1.1102   1.1161
  1.1178   1.1233   1.1333   1.1352   1.1408   1.1469   1.1522   1.1558
  1.1646   1.1696   1.1765   1.1806   1.1893   1.1912   1.1921   1.1967
  1.2035   1.2092   1.2129   1.2162   1.2214   1.2264   1.2326   1.2393
  1.2411   1.2455   1.2483   1.2527   1.2570   1.2618   1.2712   1.2773
  1.2781   1.2882   1.2898   1.2948   1.2995   1.3050   1.3130   1.3158
  1.3218   1.3329   1.3353   1.3442   1.3478   1.3574   1.3661   1.3719
  1.3735   1.3874   1.3881   1.3944   1.4020   1.4098   1.4142   1.4200
  1.4249   1.4320   1.4401   1.4540   1.4601   1.4730   1.4810   1.4819
  1.4905   1.4924   1.5008   1.5054   1.5100   1.5152   1.5287   1.5322
  1.5327   1.5399   1.5400   1.5428   1.5497   1.5511   1.5624   1.5636
  1.5730   1.5772   1.5831   1.5912   1.6044   1.6139   1.6284   1.6351
  1.6374   1.6414   1.6455   1.6551   1.6620   1.6669   1.6782   1.6826
  1.6908   1.6951   1.7047   1.7120   1.7197   1.7296   1.7310   1.7373
  1.7528   1.7540   1.7657   1.7806   1.7871   1.8031   1.8042   1.8139
  1.8146   1.8258   1.8341   1.8442   1.8510   1.8616   1.8725   1.8824
  1.8876   1.8910   1.8973   1.9052   1.9188   1.9208   1.9292   1.9349
  1.9407   1.9480   1.9642   1.9689   1.9759   1.9764   1.9813   1.9915
  1.9987   2.0108   2.0144   2.0228   2.0361   2.0428   2.0515   2.0525
  2.0633   2.0789   2.0874   2.1041   2.1064   2.1152   2.1254   2.1371
  2.1390   2.1587   2.1639   2.1680   2.1720   2.1769   2.1839   2.1900
  2.1971   2.2033   2.2091   2.2155   2.2278   2.2310   2.2339   2.2414
  2.2459   2.2529   2.2615   2.2680   2.2706   2.2825   2.2858   2.2910
  2.2963   2.3096   2.3177   2.3253   2.3314   2.3465   2.3577   2.3586
  2.3682   2.3687   2.3803   2.3901   2.3972   2.4032   2.4163   2.4190
  2.4269   2.4364   2.4387   2.4510   2.4588   2.4686   2.4807   2.4890
  2.4989   2.5023   2.5052   2.5199   2.5282   2.5321   2.5484   2.5557
  2.5623   2.5694   2.5763   2.5902   2.6092   2.6144   2.6183   2.6259
  2.6288   2.6330   2.6409   2.6435   2.6497   2.6510   2.6584   2.6592
  2.6752   2.6844   2.6887   2.6976   2.7036   2.7064   2.7104   2.7189
  2.7254   2.7297   2.7361   2.7440   2.7507   2.7583   2.7646   2.7785
  2.7842   2.7894   2.7960   2.7982   2.8013   2.8096   2.8127   2.8193
  2.8268   2.8345   2.8396   2.8501   2.8533   2.8564   2.8645   2.8678
  2.8782   2.8818   2.8916   2.8955   2.9061   2.9092   2.9261   2.9358
  2.9403   2.9503   2.9528   2.9635   2.9719   2.9833   2.9873   2.9962
  3.0037   3.0166   3.0228   3.0318   3.0343   3.0371   3.0391   3.0504
  3.0557   3.0622   3.0682   3.0750   3.0767   3.0905   3.0975   3.1005
  3.1048   3.1118   3.1142   3.1198   3.1211   3.1302   3.1391   3.1466
  3.1490   3.1572   3.1639   3.1658   3.1737   3.1779   3.1861   3.1875
  3.1966   3.2012   3.2038   3.2106   3.2161   3.2200   3.2255   3.2287
  3.2356   3.2425   3.2475   3.2510   3.2539   3.2604   3.2623   3.2702
  3.2733   3.2786   3.2821   3.2880   3.2960   3.3016   3.3056   3.3090
  3.3129   3.3238   3.3248   3.3325   3.3369   3.3444   3.3497   3.3523
  3.3561   3.3574   3.3636   3.3711   3.3720   3.3747   3.3815   3.3881
  3.3889   3.3917   3.3957   3.4021   3.4057   3.4083   3.4120   3.4164
  3.4247   3.4261   3.4294   3.4398   3.4410   3.4490   3.4533   3.4562
  3.4636   3.4668   3.4692   3.4733   3.4767   3.4800   3.4814   3.4923
  3.4979   3.5050   3.5150   3.5242   3.5289   3.5329   3.5358   3.5408
  3.5439   3.5512   3.5545   3.5653   3.5691   3.5715   3.5749   3.5804
  3.5857   3.5903   3.5958   3.5990   3.6044   3.6066   3.6163   3.6173
  3.6224   3.6246   3.6368   3.6395   3.6437   3.6533   3.6585   3.6629
  3.6764   3.6783   3.6856   3.6902   3.6932   3.6962   3.7047   3.7061
  3.7070   3.7113   3.7204   3.7251   3.7314   3.7347   3.7487   3.7513
  3.7560   3.7671   3.7691   3.7747   3.7814   3.7846   3.7878   3.7927
  3.7960   3.8028   3.8076   3.8092   3.8136   3.8152   3.8174   3.8283
  3.8419   3.8465   3.8500   3.8535   3.8661   3.8692   3.8724   3.8796
  3.8873   3.8888   3.8942   3.8981   3.9052   3.9133   3.9233   3.9298
  3.9329   3.9369   3.9434   3.9483   3.9581   3.9629   3.9868   4.0007
  4.0020   4.0058   4.0115   4.0179   4.0231   4.0278   4.0378   4.0424
  4.0520   4.0583   4.0671   4.0730   4.0831   4.0853   4.0897   4.0974
  4.1042   4.1086   4.1277   4.1404   4.1447   4.1473   4.1504   4.1567
  4.1590   4.1634   4.1665   4.1713   4.1856   4.1902   4.1936   4.2076
  4.2117   4.2250   4.2327   4.2362   4.2431   4.2466   4.2645   4.2703
  4.2801   4.3008   4.3123   4.3219   4.3238   4.3358   4.3411   4.3542
  4.3577   4.3624   4.3673   4.3709   4.3739   4.3911   4.3968   4.4017
  4.4097   4.4132   4.4174   4.4256   4.4295   4.4357   4.4419   4.4487
  4.4611   4.4692   4.4884   4.4952   4.5016   4.5074   4.5166   4.5238
  4.5331   4.5382   4.5461   4.5598   4.5642   4.5804   4.5888   4.5968
  4.6043   4.6165   4.6191   4.6279   4.6385   4.6455   4.6560   4.6590
  4.6667   4.6697   4.6735   4.6825   4.6965   4.7121   4.7375   4.7387
  4.7429   4.7576   4.7683   4.7734   4.7784   4.7931   4.8113   4.8155
  4.8285   4.8360   4.8406   4.8589   4.8655   4.8814   4.8928   4.9072
  4.9379   4.9474   4.9522   4.9533   4.9680   4.9784   4.9813   4.9908
  5.0081   5.0108   5.0177   5.0322   5.0435   5.0452   5.0658   5.0759
  5.0842   5.1006   5.1144   5.1325   5.1643   5.1718   5.1762   5.1907
  5.1994   5.2177   5.2258   5.2392   5.2498   5.2562   5.2575   5.2843
  5.2975   5.3128   5.3160   5.3267   5.3325   5.3493   5.3552   5.3661
  5.3855   5.3916   5.4018   5.4036   5.4208   5.4254   5.4410   5.4650
  5.4680   5.4842   5.5007   5.5104   5.5126   5.5164   5.5335   5.5611
  5.5788   5.5828   5.5892   5.6082   5.6205   5.6335   5.6409   5.6599
  5.7166   5.7208   5.7462   5.7640   5.8064   5.8182   5.8350   5.8568
  5.8751   5.8840   5.9038   5.9280   5.9646   5.9861   6.0264   6.0392
  6.0518   6.0731   6.0956   6.1457   6.1496   6.1734   6.1802   6.1816
  6.2221   6.2416   6.2587   6.2604   6.2763   6.2785   6.3221   6.3274
  6.4301   6.4489   6.4573   6.4773   6.5366   6.5521   6.5620   6.5960
  6.6577   6.6602   6.6700   6.7134   6.7434   6.8057   6.8282   6.8448
  6.8584   6.8984   6.9769   7.1270   7.1404   7.2026   7.2030   7.2183
  7.2391   7.3088   7.3240   7.3370   7.3599   7.3607   7.4034   7.4122
  7.4820   7.4823   7.4936   7.5152   7.5485   7.6147   7.7252   7.7695
  7.7869   7.7999   7.8873   7.9230   7.9471   7.9619   8.1158   8.1353
  8.3527   8.9187   9.0218   9.3597   9.4787   9.6614  10.1589  10.5467
 11.2166  11.4123  11.7785  12.0115  12.1282  12.2172  12.4284  12.5957
 12.7386  12.9482  13.0259  13.2894  13.3838  13.5412  13.8129  13.8503
 13.9092  14.0217  14.0500  14.4281  15.2046
 --------------------------------------------------------------
 
          Ground-State Mulliken Net Atomic Charges

     Atom                 Charge (a.u.)
  ----------------------------------------
      1 C                    -0.201357
      2 C                    -0.252443
      3 S                    -0.030589
      4 C                    -0.025609
      5 H                     0.194963
      6 C                    -0.020801
      7 C                     0.222564
      8 C                     0.245136
      9 C                    -0.042173
     10 C                    -0.000682
     11 O                    -0.333538
     12 O                    -0.343419
     13 C                    -0.085588
     14 H                     0.120356
     15 H                     0.090144
     16 H                     0.092460
     17 C                    -0.087684
     18 H                     0.124551
     19 H                     0.094694
     20 H                     0.089399
     21 C                    -0.319852
     22 S                    -0.042986
     23 C                     0.026028
     24 H                     0.188658
     25 H                     0.204107
     26 C                    -0.145690
     27 S                     0.109792
     28 C                    -0.115246
     29 C                     0.108832
     30 C                    -0.127289
     31 S                     0.064899
     32 C                    -0.160801
     33 C                     0.399698
     34 F                    -0.203702
     35 C                     0.449459
     36 O                    -0.462506
     37 O                    -0.301321
     38 C                    -0.058164
     39 H                     0.121658
     40 H                     0.095262
     41 H                     0.095375
     42 H                     0.223403
  ----------------------------------------
  Sum of atomic charges =     0.000000

 -----------------------------------------------------------------
                    Cartesian Multipole Moments
 -----------------------------------------------------------------
    Charge (ESU x 10^10)
                -0.0000
    Dipole Moment (Debye)
         X       3.3964      Y       2.5616      Z       2.0269
       Tot       4.7123
    Quadrupole Moments (Debye-Ang)
        XX    -186.4125     XY      10.1627     YY    -184.5677
        XZ       0.2043     YZ      -2.6133     ZZ    -181.6695
    Octopole Moments (Debye-Ang^2)
       XXX    -457.1194    XXY     494.6675    XYY    -158.6165
       YYY    1180.5234    XXZ     106.8018    XYZ     -58.7651
       YYZ     143.0428    XZZ     -84.6632    YZZ     414.7072
       ZZZ     502.9099
    Hexadecapole Moments (Debye-Ang^3)
      XXXX   -3214.9329   XXXY    -430.7674   XXYY   -4007.4071
      XYYY    -488.4437   YYYY  -17663.3458   XXXZ     682.2340
      XXYZ     323.7979   XYYZ     409.6474   YYYZ    1244.1440
      XXZZ   -1265.1236   XYZZ      82.4835   YYZZ   -4030.8473
      XZZZ     547.2149   YZZZ     997.8238   ZZZZ   -7070.8302
 -----------------------------------------------------------------
 Total job time:  298.76s(wall), 9775.06s(cpu) 
 Tue Jan  9 02:27:51 2024

        *************************************************************
        *                                                           *
        *  Thank you very much for using Q-Chem.  Have a nice day.  *
        *                                                           *
        *************************************************************


0 sent ACK to 0 
now end server 0 ... 
cleanup process ... done
remove work dirs ./qchem1684765.0 -- ./qchem1684765.0
rm -rf ./qchem1684765.0
rm -rf ./qchem1684765
