You are running Q-Chem version: 5.4.0

#
# job setting
#
local host:  exp-6-14
current dir: /home/rramji/project-csd799/aromodel/ptb7fout-qchem/rotation-run
input file:  Dimethoxy_Benzodithiophene_Phi_0_Theta_290_Methylcarbonyl_3_Fluoro_Thienothiophene.qcin
output file: 
nprocs     : 1
nthreads   : 64
#
# qchem installation setting
#
QC:          /cm/shared/apps/spack/cpu/opt/spack/linux-centos8-zen2/gcc-10.2.0/qchem-5.4-akfmr7b3t57bfs6qan3padb2wnb2i7cl
QCAUX:       /cm/shared/apps/spack/cpu/opt/spack/linux-centos8-zen2/gcc-10.2.0/qchem-5.4-akfmr7b3t57bfs6qan3padb2wnb2i7cl/qcaux
QCPROG:      /cm/shared/apps/spack/cpu/opt/spack/linux-centos8-zen2/gcc-10.2.0/qchem-5.4-akfmr7b3t57bfs6qan3padb2wnb2i7cl/exe/qcprog.exe
QCPROG_S:    /cm/shared/apps/spack/cpu/opt/spack/linux-centos8-zen2/gcc-10.2.0/qchem-5.4-akfmr7b3t57bfs6qan3padb2wnb2i7cl/exe/qcprog.exe_s
PARALLEL:    -DPARALLEL
QCMPI:       mpich
#
# qchem directory setting
#
qcrun:       qchem1732684
QCSCRATCH:   .
QCLOCALSCR:  
QCTMPDIR:    .
QCFILEPREF:  ./qchem1732684
QCSAVEDIR:   
workdirs:    ./qchem1732684
workdir0:    ./qchem1732684
partmpdirs =  
#
# parallel setting
#
QCRSH:           ssh
QCMPI:           mpich
QCMPIRUN:        /cm/shared/apps/spack/cpu/opt/spack/linux-centos8-zen2/gcc-10.2.0/qchem-5.4-akfmr7b3t57bfs6qan3padb2wnb2i7cl/bin/mpi/mpirun_qchem
QCMACHINEFILE:   ./qchem1732684/hostfile
exp-6-14

#
# env setting
#
exported envs:   QC QCAUX QCSCRATCH QCRUNNAME QCFILEPREF QCPROG QCPROG_S GUIFILE

Running Job 1 of 1 Dimethoxy_Benzodithiophene_Phi_0_Theta_290_Methylcarbonyl_3_Fluoro_Thienothiophene.qcin
qchem Dimethoxy_Benzodithiophene_Phi_0_Theta_290_Methylcarbonyl_3_Fluoro_Thienothiophene.qcin_1732684.0 ./qchem1732684/ 1
/cm/shared/apps/spack/cpu/opt/spack/linux-centos8-zen2/gcc-10.2.0/qchem-5.4-akfmr7b3t57bfs6qan3padb2wnb2i7cl/bin/mpi/mpirun_qchem -machinefile ./qchem1732684/hostfile -np 1 /cm/shared/apps/spack/cpu/opt/spack/linux-centos8-zen2/gcc-10.2.0/qchem-5.4-akfmr7b3t57bfs6qan3padb2wnb2i7cl/exe/qcprog.exe Dimethoxy_Benzodithiophene_Phi_0_Theta_290_Methylcarbonyl_3_Fluoro_Thienothiophene.qcin_1732684.0 ./qchem1732684/

Process 0 of 1 is on exp-6-14 - thread support 0
initial socket setup ...start
initial socket setup ...done 
now start server 0 ... 
                  Welcome to Q-Chem
     A Quantum Leap Into The Future Of Chemistry


 Q-Chem 5.4, Q-Chem, Inc., Pleasanton, CA (2021)

 License issued to: University of California, San Diego (site)

 E. Epifanovsky,  A. T. B. Gilbert,  Xintian Feng,  Joonho Lee,  Yuezhi Mao,  
 N. Mardirossian,  P. Pokhilko,  A. White,  M. Wormit,  M. P. Coons,  
 A. L. Dempwolff,  Zhengting Gan,  D. Hait,  P. R. Horn,  L. D. Jacobson,  
 I. Kaliman,  J. Kussmann,  A. W. Lange,  Ka Un Lao,  D. S. Levine,  Jie Liu,  
 S. C. McKenzie,  A. F. Morrison,  K. Nanda,  F. Plasser,  D. R. Rehn,  
 M. L. Vidal,  Zhi-Qiang You,  Ying Zhu,  B. Alam,  B. Albrecht,  
 A. Aldossary,  E. Alguire,  J. H. Andersen,  D. Barton,  K. Begam,  A. Behn,  
 Y. A. Bernard,  E. J. Berquist,  H. Burton,  A. Carreras,  K. Carter-Fenk,  
 R. Chakraborty,  A. D. Chien,  K. D. Closser,  V. Cofer-Shabica,  
 S. Dasgupta,  Jia Deng,  M. de Wergifosse,  M. Diedenhofen,  Hainam Do,  
 S. Ehlert,  Po-Tung Fang,  S. Fatehi,  Qingguo Feng,  J. Gayvert,  
 Qinghui Ge,  G. Gidofalvi,  M. Goldey,  J. Gomes,  C. Gonzalez-Espinoza,  
 S. Gulania,  A. Gunina,  M. W. D. Hanson-Heine,  P. H. P. Harbach,  
 A. W. Hauser,  M. F. Herbst,  M. Hernandez Vera,  M. Hodecker,  
 Z. C. Holden,  S. Houck,  Xunkun Huang,  Kerwin Hui,  B. C. Huynh,  
 M. Ivanov,  Hyunjun Ji,  Hanjie Jiang,  B. Kaduk,  S. Kaehler,  
 K. Khistyaev,  Jaehoon Kim,  P. Klunzinger,  Z. Koczor-Benda,  
 Joong Hoon Koh,  D. Kosenkov,  L. Koulias,  T. Kowalczyk,  C. M. Krauter,  
 K. Kue,  A. Kunitsa,  T. Kus,  A. Landau,  K. V. Lawler,  D. Lefrancois,  
 S. Lehtola,  Rain Li,  Yi-Pei Li,  Jiashu Liang,  M. Liebenthal,  
 Hung-Hsuan Lin,  You-Sheng Lin,  Fenglai Liu,  Kuan-Yu Liu,  
 M. Loipersberger,  A. Luenser,  A. Manjanath,  P. Manohar,  E. Mansoor,  
 S. F. Manzer,  Shan-Ping Mao,  A. V. Marenich,  T. Markovich,  S. Mason,  
 S. A. Maurer,  P. F. McLaughlin,  M. F. S. J. Menger,  J.-M. Mewes,  
 S. A. Mewes,  P. Morgante,  J. W. Mullinax,  T. S. Nguyen-Beck,  
 K. J. Oosterbaan,  G. Paran,  Alexander C. Paul,  Suranjan K. Paul,  
 F. Pavosevic,  Zheng Pei,  S. Prager,  E. I. Proynov,  E. Ramos,  B. Rana,  
 A. E. Rask,  A. Rettig,  R. M. Richard,  F. Rob,  E. Rossomme,  T. Scheele,  
 M. Scheurer,  M. Schneider,  N. Sergueev,  S. M. Sharada,  W. Skomorowski,  
 D. W. Small,  C. J. Stein,  Yu-Chuan Su,  E. J. Sundstrom,  Zhen Tao,  
 J. Thirman,  T. Tsuchimochi,  N. M. Tubman,  S. P. Veccham,  O. Vydrov,  
 J. Wenzel,  J. Witte,  A. Yamada,  Kun Yao,  S. Yeganeh,  S. R. Yost,  
 A. Zech,  Igor Ying Zhang,  Xing Zhang,  Yu Zhang,  D. Zuev,  
 A. Aspuru-Guzik,  A. T. Bell,  N. A. Besley,  K. B. Bravaya,  B. R. Brooks,  
 D. Casanova,  Jeng-Da Chai,  S. Coriani,  C. J. Cramer,  
 A. E. DePrince, III,  R. A. DiStasio Jr.,  A. Dreuw,  B. D. Dunietz,  
 T. R. Furlani,  W. A. Goddard III,  S. Grimme,  S. Hammes-Schiffer,  
 T. Head-Gordon,  W. J. Hehre,  Chao-Ping Hsu,  T.-C. Jagau,  Yousung Jung,  
 A. Klamt,  Jing Kong,  D. S. Lambrecht,  WanZhen Liang,  N. J. Mayhall,  
 C. W. McCurdy,  J. B. Neaton,  C. Ochsenfeld,  J. A. Parkhill,  R. Peverati,  
 V. A. Rassolov,  Yihan Shao,  L. V. Slipchenko,  T. Stauch,  R. P. Steele,  
 J. E. Subotnik,  A. J. W. Thom,  A. Tkatchenko,  D. G. Truhlar,  
 T. Van Voorhis,  T. A. Wesolowski,  K. B. Whaley,  H. L. Woodcock III,  
 P. M. Zimmerman,  S. Faraji,  P. M. W. Gill,  M. Head-Gordon,  
 J. M. Herbert,  A. I. Krylov

 Contributors to earlier versions of Q-Chem not listed above: 
 R. D. Adamson,  B. Austin,  R. Baer,  J. Baker,  G. J. O. Beran,  
 K. Brandhorst,  S. T. Brown,  E. F. C. Byrd,  A. K. Chakraborty,  
 G. K. L. Chan,  Chun-Min Chang,  Yunqing Chen,  C.-L. Cheng,  
 Siu Hung Chien,  D. M. Chipman,  D. L. Crittenden,  H. Dachsel,  
 R. J. Doerksen,  A. D. Dutoi,  R. G. Edgar,  J. Fosso-Tande,  
 L. Fusti-Molnar,  D. Ghosh,  A. Ghysels,  A. Golubeva-Zadorozhnaya,  
 J. Gonthier,  M. S. Gordon,  S. R. Gwaltney,  G. Hawkins,  J. E. Herr,  
 A. Heyden,  S. Hirata,  E. G. Hohenstein,  G. Kedziora,  F. J. Keil,  
 C. Kelley,  Jihan Kim,  R. A. King,  R. Z. Khaliullin,  P. P. Korambath,  
 W. Kurlancheek,  A. Laurent,  A. M. Lee,  M. S. Lee,  S. V. Levchenko,  
 Ching Yeh Lin,  D. Liotard,  E. Livshits,  R. C. Lochan,  I. Lotan,  
 L. A. Martinez-Martinez,  P. E. Maslen,  N. Nair,  D. P. O'Neill,  
 D. Neuhauser,  E. Neuscamman,  C. M. Oana,  R. Olivares-Amaya,  R. Olson,  
 T. M. Perrine,  B. Peters,  P. A. Pieniazek,  A. Prociuk,  Y. M. Rhee,  
 J. Ritchie,  M. A. Rohrdanz,  E. Rosta,  N. J. Russ,  H. F. Schaefer III,  
 M. W. Schmidt,  N. E. Schultz,  S. Sharma,  N. Shenvi,  C. D. Sherrill,  
 A. C. Simmonett,  A. Sodt,  T. Stein,  D. Stuck,  K. S. Thanthiriwatte,  
 V. Vanovschi,  L. Vogt,  Tao Wang,  A. Warshel,  M. A. Watson,  
 C. F. Williams,  Q. Wu,  X. Xu,  Jun Yang,  W. Zhang,  Yan Zhao

 Please cite Q-Chem as follows:
 Y. Shao et al., Mol. Phys. 113, 184-215 (2015)
 DOI: 10.1080/00268976.2014.952696

 Q-Chem 5.4.0 for Intel X86 EM64T Linux

 Parts of Q-Chem use Armadillo 9.800.1 (Horizon Scraper).
 http://arma.sourceforge.net/

 Q-Chem begins on Tue Jan  9 02:03:48 2024  

 Host: 
0

     Scratch files written to ./qchem1732684//
 May1621 |scratch|qcdevops|jenkins|workspace|build_RNUM    
 Parallel job on  1  processors
 Processing $rem in /cm/shared/apps/spack/cpu/opt/spack/linux-centos8-zen2/gcc-10.2.0/qchem-5.4-akfmr7b3t57bfs6qan3padb2wnb2i7cl/config/preferences:
 Processing $rem in /home/rramji/.qchemrc:
 Symmetry turned off for PCM/SM12/SMD calculation
 Core orbitals will be frozen

 Checking the input file for inconsistencies... 	...done.

 Q-Chem warning in module forms1/BasisType.C, line 2236:

 You are not using the predefined 5D/6D in this basis set.


--------------------------------------------------------------
User input:
--------------------------------------------------------------
$molecule
0 1
C	0.284919	-8.517702	0.147685
C	-0.728574	-7.641575	-0.212552
S	1.745304	-7.638634	0.661757
C	-0.374824	-6.264785	-0.083761
H	-1.715621	-7.966081	-0.565513
C	0.965104	-6.072714	0.405665
C	1.502136	-4.787049	0.574617
C	-1.214687	-5.162801	-0.413763
C	-0.675870	-3.874817	-0.248748
C	0.664513	-3.683952	0.243888
O	-2.464209	-5.499772	-0.838511
O	2.757750	-4.459055	1.000176
C	3.441858	-5.329063	1.893778
H	4.303826	-4.755694	2.284868
H	3.828743	-6.238095	1.383341
H	2.792824	-5.637262	2.741817
C	-3.241222	-4.572261	-1.586168
H	-4.108274	-5.139743	-1.974033
H	-2.668916	-4.153131	-2.441448
H	-3.620041	-3.739531	-0.954660
C	1.015668	-2.306654	0.369302
S	-1.453394	-2.306501	-0.517367
C	0.000000	-1.435185	0.000000
H	2.000559	-1.978138	0.724300
H	0.288311	-9.614033	0.145124
C	0.000000	0.000000	0.000000
S	0.000474	0.904764	1.507541
C	-0.000295	2.477305	0.718873
C	0.000752	0.904447	-1.067872
C	-0.001560	2.294593	-0.686410
S	0.003602	0.660872	-2.805516
C	-0.001928	2.412546	-3.054530
C	-0.004381	3.120854	-1.862551
F	-0.009185	4.457503	-1.819088
C	-0.000038	2.860570	-4.456084
O	0.007944	2.090724	-5.406510
O	-0.007501	4.211092	-4.569225
C	-0.002278	4.706177	-5.916207
H	-0.009265	5.807207	-5.833064
H	-0.895381	4.352875	-6.470168
H	0.901521	4.363301	-6.459293
H	-0.001708	3.401562	1.306486
$end

$rem
JOBTYPE		SP
EXCHANGE	HF
CORRELATION	pRIMP2
BASIS		cc-pvtz
METHOD		rimp2
AUX_BASIS	rimp2-cc-pvtz
SOLVENT_METHOD	PCM
PURECART	11111
SYMMETRY	false
MEM_TOTAL	110000
SCF_CONVERGENCE = 6
THRESH=10
GUI = 2
$end



$solvent
dielectric 4.90
$end
--------------------------------------------------------------
 ----------------------------------------------------------------
             Standard Nuclear Orientation (Angstroms)
    I     Atom           X                Y                Z
 ----------------------------------------------------------------
    1      C       0.2849190000    -8.5177020000     0.1476850000
    2      C      -0.7285740000    -7.6415750000    -0.2125520000
    3      S       1.7453040000    -7.6386340000     0.6617570000
    4      C      -0.3748240000    -6.2647850000    -0.0837610000
    5      H      -1.7156210000    -7.9660810000    -0.5655130000
    6      C       0.9651040000    -6.0727140000     0.4056650000
    7      C       1.5021360000    -4.7870490000     0.5746170000
    8      C      -1.2146870000    -5.1628010000    -0.4137630000
    9      C      -0.6758700000    -3.8748170000    -0.2487480000
   10      C       0.6645130000    -3.6839520000     0.2438880000
   11      O      -2.4642090000    -5.4997720000    -0.8385110000
   12      O       2.7577500000    -4.4590550000     1.0001760000
   13      C       3.4418580000    -5.3290630000     1.8937780000
   14      H       4.3038260000    -4.7556940000     2.2848680000
   15      H       3.8287430000    -6.2380950000     1.3833410000
   16      H       2.7928240000    -5.6372620000     2.7418170000
   17      C      -3.2412220000    -4.5722610000    -1.5861680000
   18      H      -4.1082740000    -5.1397430000    -1.9740330000
   19      H      -2.6689160000    -4.1531310000    -2.4414480000
   20      H      -3.6200410000    -3.7395310000    -0.9546600000
   21      C       1.0156680000    -2.3066540000     0.3693020000
   22      S      -1.4533940000    -2.3065010000    -0.5173670000
   23      C       0.0000000000    -1.4351850000     0.0000000000
   24      H       2.0005590000    -1.9781380000     0.7243000000
   25      H       0.2883110000    -9.6140330000     0.1451240000
   26      C       0.0000000000     0.0000000000     0.0000000000
   27      S       0.0004740000     0.9047640000     1.5075410000
   28      C      -0.0002950000     2.4773050000     0.7188730000
   29      C       0.0007520000     0.9044470000    -1.0678720000
   30      C      -0.0015600000     2.2945930000    -0.6864100000
   31      S       0.0036020000     0.6608720000    -2.8055160000
   32      C      -0.0019280000     2.4125460000    -3.0545300000
   33      C      -0.0043810000     3.1208540000    -1.8625510000
   34      F      -0.0091850000     4.4575030000    -1.8190880000
   35      C      -0.0000380000     2.8605700000    -4.4560840000
   36      O       0.0079440000     2.0907240000    -5.4065100000
   37      O      -0.0075010000     4.2110920000    -4.5692250000
   38      C      -0.0022780000     4.7061770000    -5.9162070000
   39      H      -0.0092650000     5.8072070000    -5.8330640000
   40      H      -0.8953810000     4.3528750000    -6.4701680000
   41      H       0.9015210000     4.3633010000    -6.4592930000
   42      H      -0.0017080000     3.4015620000     1.3064860000
 ----------------------------------------------------------------
 Nuclear Repulsion Energy =        3271.72123284 hartrees
 There are      119 alpha and      119 beta electrons
 Requested basis set is cc-pVTZ
 There are 376 shells and 1068 basis functions

 Total QAlloc Memory Limit 110000 MB
 Mega-Array Size       188 MB
 MEM_STATIC part       192 MB
 Discretize the solute cavity surface with Lebedev spheres
	Using 110 Lebedev grid points for each H atom
	Using 194 Lebedev grid points for other atoms
	Atomic van der Waals radii will be scaled by 1.20
 Remove points where switching function is < 1.0e-08
 Keep 2923 surface tesserae and discard 4133 interior tesserae
 Molecular Surface Area = 444.010 Angst**2
 Requested basis set is rimp2-cc-pVTZ
 There are 833 shells and 2903 basis functions
 A cutoff of  1.0D-10 yielded  30673 shell pairs
 There are    236079 function pairs (    306766 Cartesian)
 Smallest overlap matrix eigenvalue = 2.23E-05

 Scale SEOQF with 1.000000e-01/1.000000e-02/1.000000e-02

 Standard Electronic Orientation quadrupole field applied
 Nucleus-field energy     =     0.0000000360 hartrees
 Guess from superposition of atomic densities
 Warning:  Energy on first SCF cycle will be non-variational
 SAD guess density has 238.000000 electrons

 -----------------------------------------------------------------------
  General SCF calculation program by
  Eric Jon Sundstrom, Paul Horn, Yuezhi Mao, Dmitri Zuev, Alec White,
  David Stuck, Shaama M.S., Shane Yost, Joonho Lee, David Small,
  Daniel Levine, Susi Lehtola, Hugh Burton, Evgeny Epifanovsky,
  Bang C. Huynh
 -----------------------------------------------------------------------
 Hartree-Fock
 using 64 threads for integral computing
 -------------------------------------------------------
 OpenMP Integral computing Module                
 Release: version 1.0, May 2013, Q-Chem Inc. Pittsburgh 
 -------------------------------------------------------
 A restricted SCF calculation will be
 performed using DIIS
 SCF converges when DIIS error is below 1.0e-06
 ---------------------------------------
  Cycle       Energy         DIIS error
 ---------------------------------------
    1   -2765.1991889514      1.75e-02  
    2   -2753.8835459325      1.56e-03  
    3   -2754.2210499026      8.59e-04  
    4   -2754.3018208080      2.56e-04  
    5   -2754.3134416216      6.94e-05  
    6   -2754.3145263273      2.37e-05  
    7   -2754.3147639508      1.15e-05  
    8   -2754.3148418810      4.29e-06  
    9   -2754.3148565914      1.67e-06  
   10   -2754.3148583288      6.94e-07  Convergence criterion met
 ---------------------------------------
 SCF time:   CPU 6284.61s  wall 248.00s 

************** Final PCM Free Energy Summary **************
 G_electrostatic  =      -0.01864418 hartree =     -11.69939673 kcal/mol
 G_cavitation     =       0.00000000 hartree =       0.00000000 kcal/mol
 G_dispersion     =       0.00000000 hartree =       0.00000000 kcal/mol
 G_repulsion      =       0.00000000 hartree =       0.00000000 kcal/mol
 --------------------------------------------------
 Non-electrostatic Free Energy =       0.00000000 hartree =       0.00000000 kcal/mol
 Total                         =      -0.01864418 hartree =     -11.69939673 kcal/mol
 --------------------------------------------------
 SCF Energy (H0 + V/2)                       =   -2754.31485833 
 Solute Internal Energy (H0)                 =   -2754.29621415 
 Total Free Energy (H0 + V/2 + non-elec)     =   -2754.31485833 hartree
                                             = -1728358.65971737 kcal/mol
***********************************************************

 SCF   energy in the final basis set =    -2754.3148583288
 Total energy in the final basis set =    -2754.3148583288


 --------------------------------------------------------------
  Generalized many-body perturbation theory program
  by Joonho Lee, Fazle Rob, Xintian Feng, Evgeny Epifanovsky

 No regularization used 
 (reg. param. = 0.0000e+00)
  (P|Q)^-1/2 Time:  CPU 203.52 s  wall 3.48 s

 In RI-MP2 calculation: 
 # of frozen core orbitals: 45

 Components of the RIMP2 correlation energy:
        aaaa    correlation energy =        -0.6690675593 a.u.
        abab    correlation energy =        -3.7114250276 a.u.
        bbbb    correlation energy =        -0.6690675593 a.u.
        non-Brillouin singles      =        -0.0000000000 a.u.
        total same-spin energy     =        -1.3381351185 a.u.
        total opposite-spin energy =        -3.7114250276 a.u.

 Total  RIMP2   correlation energy =        -5.0495601461 a.u.
        RIMP2         total energy =     -2759.3644184749 a.u.

 RI-MP2 Energy Time:  CPU 4542.25 s  wall 75.64 s
 
 --------------------------------------------------------------
 
                    Orbital Energies (a.u.)
 --------------------------------------------------------------
 
 Alpha MOs
 -- Occupied --
-92.0150 -91.9965 -91.9893 -91.9866 -26.3425 -20.6142 -20.5924 -20.5920
-20.5605 -11.4086 -11.3813 -11.3193 -11.3187 -11.3081 -11.2996 -11.2974
-11.2963 -11.2924 -11.2884 -11.2868 -11.2865 -11.2865 -11.2842 -11.2835
-11.2803 -11.2608 -11.2596 -11.2585 -11.2502  -9.0133  -8.9966  -8.9897
 -8.9866  -6.6940  -6.6934  -6.6929  -6.6776  -6.6769  -6.6757  -6.6706
 -6.6699  -6.6690  -6.6675  -6.6669  -6.6661  -1.6596  -1.4666  -1.4165
 -1.4147  -1.3693  -1.2198  -1.1946  -1.1654  -1.1348  -1.0846  -1.0522
 -1.0404  -1.0218  -1.0019  -0.9878  -0.9623  -0.9597  -0.9503  -0.9388
 -0.8959  -0.8666  -0.8515  -0.8107  -0.7918  -0.7889  -0.7866  -0.7651
 -0.7549  -0.7341  -0.7245  -0.7091  -0.7000  -0.6846  -0.6835  -0.6802
 -0.6733  -0.6593  -0.6570  -0.6529  -0.6306  -0.6203  -0.6172  -0.6044
 -0.5968  -0.5850  -0.5772  -0.5697  -0.5670  -0.5617  -0.5554  -0.5509
 -0.5313  -0.5303  -0.5234  -0.5168  -0.5151  -0.5089  -0.5043  -0.4943
 -0.4896  -0.4780  -0.4763  -0.4728  -0.4705  -0.4660  -0.4610  -0.4071
 -0.3982  -0.3867  -0.3577  -0.3481  -0.3177  -0.2955  -0.2586
 -- Virtual --
  0.0358   0.0599   0.1116   0.1243   0.1341   0.1467   0.1502   0.1549
  0.1558   0.1581   0.1611   0.1732   0.1804   0.1838   0.1867   0.1911
  0.1993   0.2037   0.2144   0.2156   0.2196   0.2215   0.2253   0.2284
  0.2348   0.2362   0.2419   0.2493   0.2558   0.2640   0.2697   0.2763
  0.2842   0.3032   0.3262   0.3281   0.3357   0.3397   0.3422   0.3456
  0.3502   0.3535   0.3701   0.3768   0.3838   0.3844   0.3849   0.3854
  0.3875   0.3984   0.4010   0.4039   0.4084   0.4115   0.4211   0.4245
  0.4258   0.4307   0.4332   0.4452   0.4473   0.4485   0.4558   0.4582
  0.4609   0.4622   0.4650   0.4705   0.4750   0.4812   0.4822   0.4836
  0.4898   0.5018   0.5031   0.5064   0.5115   0.5144   0.5192   0.5236
  0.5267   0.5308   0.5364   0.5378   0.5425   0.5449   0.5475   0.5489
  0.5525   0.5544   0.5602   0.5612   0.5661   0.5710   0.5756   0.5784
  0.5803   0.5869   0.5921   0.5941   0.5964   0.6060   0.6088   0.6112
  0.6150   0.6157   0.6224   0.6226   0.6250   0.6265   0.6280   0.6311
  0.6366   0.6414   0.6456   0.6483   0.6521   0.6533   0.6605   0.6653
  0.6664   0.6810   0.6863   0.6885   0.6943   0.6946   0.7012   0.7048
  0.7114   0.7124   0.7161   0.7207   0.7254   0.7289   0.7427   0.7503
  0.7552   0.7575   0.7624   0.7678   0.7750   0.7821   0.7952   0.8032
  0.8057   0.8127   0.8140   0.8178   0.8207   0.8244   0.8349   0.8399
  0.8467   0.8541   0.8603   0.8630   0.8673   0.8739   0.8805   0.8813
  0.8904   0.8917   0.9024   0.9050   0.9071   0.9148   0.9169   0.9257
  0.9310   0.9351   0.9422   0.9448   0.9532   0.9560   0.9622   0.9667
  0.9714   0.9756   0.9783   0.9803   0.9890   0.9940   0.9987   1.0000
  1.0043   1.0118   1.0175   1.0263   1.0271   1.0326   1.0349   1.0398
  1.0455   1.0498   1.0568   1.0585   1.0646   1.0663   1.0745   1.0783
  1.0841   1.0847   1.0944   1.0957   1.1004   1.1045   1.1066   1.1089
  1.1142   1.1168   1.1225   1.1334   1.1388   1.1471   1.1521   1.1540
  1.1619   1.1687   1.1733   1.1774   1.1829   1.1858   1.1930   1.2010
  1.2027   1.2050   1.2098   1.2128   1.2186   1.2233   1.2247   1.2318
  1.2356   1.2400   1.2443   1.2479   1.2567   1.2648   1.2662   1.2711
  1.2759   1.2778   1.2865   1.2902   1.2986   1.3038   1.3066   1.3134
  1.3222   1.3260   1.3332   1.3466   1.3477   1.3590   1.3678   1.3701
  1.3800   1.3835   1.3889   1.4021   1.4104   1.4140   1.4196   1.4203
  1.4262   1.4329   1.4393   1.4593   1.4691   1.4754   1.4868   1.4902
  1.4955   1.4993   1.5036   1.5070   1.5129   1.5160   1.5193   1.5267
  1.5309   1.5388   1.5402   1.5428   1.5457   1.5513   1.5563   1.5689
  1.5765   1.5786   1.5841   1.5960   1.6005   1.6202   1.6262   1.6291
  1.6409   1.6483   1.6525   1.6578   1.6637   1.6675   1.6738   1.6829
  1.6870   1.6931   1.7021   1.7099   1.7139   1.7209   1.7337   1.7541
  1.7607   1.7770   1.7784   1.7868   1.7893   1.8035   1.8096   1.8164
  1.8226   1.8239   1.8291   1.8487   1.8556   1.8608   1.8706   1.8785
  1.8823   1.8865   1.8915   1.8960   1.9092   1.9219   1.9283   1.9359
  1.9383   1.9418   1.9599   1.9621   1.9698   1.9720   1.9783   1.9907
  1.9999   2.0027   2.0090   2.0104   2.0205   2.0296   2.0427   2.0528
  2.0715   2.0770   2.0904   2.0978   2.1015   2.1151   2.1222   2.1369
  2.1441   2.1581   2.1620   2.1675   2.1761   2.1836   2.1944   2.1957
  2.1991   2.2042   2.2107   2.2144   2.2210   2.2319   2.2372   2.2403
  2.2491   2.2585   2.2611   2.2646   2.2754   2.2770   2.2845   2.3028
  2.3052   2.3083   2.3185   2.3306   2.3364   2.3435   2.3492   2.3601
  2.3676   2.3712   2.3839   2.3912   2.4009   2.4044   2.4109   2.4249
  2.4302   2.4324   2.4415   2.4568   2.4636   2.4732   2.4756   2.4873
  2.4957   2.5010   2.5092   2.5247   2.5319   2.5438   2.5510   2.5612
  2.5632   2.5746   2.5849   2.5928   2.6050   2.6146   2.6178   2.6240
  2.6295   2.6311   2.6361   2.6392   2.6435   2.6540   2.6611   2.6703
  2.6773   2.6842   2.6874   2.6928   2.6983   2.7026   2.7043   2.7093
  2.7208   2.7283   2.7290   2.7326   2.7433   2.7546   2.7582   2.7677
  2.7750   2.7815   2.7918   2.7956   2.8029   2.8053   2.8145   2.8222
  2.8266   2.8340   2.8384   2.8412   2.8463   2.8526   2.8609   2.8733
  2.8819   2.8834   2.8843   2.8937   2.8974   2.9060   2.9174   2.9321
  2.9357   2.9497   2.9572   2.9635   2.9719   2.9809   2.9836   2.9879
  3.0010   3.0076   3.0135   3.0188   3.0237   3.0317   3.0372   3.0415
  3.0504   3.0562   3.0638   3.0775   3.0887   3.0899   3.0944   3.0997
  3.1017   3.1052   3.1101   3.1191   3.1219   3.1252   3.1342   3.1417
  3.1487   3.1545   3.1573   3.1648   3.1673   3.1688   3.1786   3.1837
  3.1857   3.1905   3.2002   3.2091   3.2154   3.2181   3.2213   3.2255
  3.2344   3.2420   3.2464   3.2500   3.2522   3.2623   3.2654   3.2691
  3.2705   3.2757   3.2826   3.2884   3.2906   3.2910   3.2971   3.3043
  3.3120   3.3231   3.3253   3.3292   3.3303   3.3343   3.3445   3.3463
  3.3516   3.3543   3.3592   3.3632   3.3674   3.3697   3.3747   3.3771
  3.3855   3.3873   3.3904   3.3962   3.4006   3.4020   3.4119   3.4151
  3.4186   3.4291   3.4324   3.4369   3.4391   3.4444   3.4464   3.4544
  3.4604   3.4617   3.4661   3.4684   3.4719   3.4795   3.4824   3.4866
  3.4970   3.5008   3.5076   3.5128   3.5178   3.5236   3.5295   3.5337
  3.5442   3.5486   3.5530   3.5561   3.5630   3.5652   3.5745   3.5799
  3.5833   3.5853   3.5903   3.5965   3.6000   3.6024   3.6074   3.6101
  3.6185   3.6219   3.6285   3.6324   3.6445   3.6510   3.6551   3.6568
  3.6619   3.6689   3.6788   3.6830   3.6850   3.6888   3.6946   3.7013
  3.7035   3.7061   3.7109   3.7156   3.7203   3.7297   3.7341   3.7420
  3.7469   3.7502   3.7524   3.7586   3.7677   3.7709   3.7845   3.7873
  3.7924   3.7956   3.8027   3.8072   3.8102   3.8119   3.8177   3.8204
  3.8223   3.8355   3.8402   3.8481   3.8541   3.8572   3.8667   3.8723
  3.8757   3.8854   3.8867   3.8923   3.8961   3.9071   3.9125   3.9207
  3.9266   3.9302   3.9428   3.9493   3.9579   3.9702   3.9748   3.9811
  3.9886   3.9989   4.0028   4.0097   4.0143   4.0171   4.0259   4.0329
  4.0538   4.0582   4.0657   4.0673   4.0705   4.0817   4.0875   4.0913
  4.1017   4.1164   4.1271   4.1295   4.1375   4.1407   4.1478   4.1512
  4.1592   4.1628   4.1670   4.1715   4.1777   4.1868   4.1893   4.1984
  4.2058   4.2097   4.2231   4.2372   4.2402   4.2519   4.2568   4.2645
  4.2771   4.2791   4.2969   4.3109   4.3191   4.3226   4.3356   4.3422
  4.3512   4.3528   4.3605   4.3643   4.3733   4.3804   4.3870   4.3928
  4.4035   4.4097   4.4130   4.4244   4.4300   4.4310   4.4421   4.4458
  4.4622   4.4645   4.4819   4.4888   4.4954   4.5037   4.5206   4.5251
  4.5330   4.5365   4.5476   4.5572   4.5605   4.5701   4.5725   4.5821
  4.5933   4.6050   4.6143   4.6234   4.6308   4.6404   4.6497   4.6551
  4.6641   4.6741   4.6772   4.6795   4.6915   4.7191   4.7293   4.7396
  4.7413   4.7537   4.7648   4.7719   4.7806   4.7856   4.8185   4.8220
  4.8275   4.8375   4.8460   4.8580   4.8624   4.8921   4.9228   4.9268
  4.9292   4.9426   4.9500   4.9575   4.9639   4.9787   4.9873   4.9951
  5.0087   5.0093   5.0101   5.0164   5.0408   5.0500   5.0629   5.0714
  5.0848   5.1024   5.1218   5.1284   5.1601   5.1679   5.1805   5.1955
  5.2098   5.2226   5.2477   5.2513   5.2531   5.2587   5.2623   5.2755
  5.2950   5.3055   5.3128   5.3303   5.3387   5.3447   5.3516   5.3671
  5.3771   5.3967   5.3992   5.4153   5.4266   5.4342   5.4526   5.4633
  5.4853   5.4879   5.5068   5.5099   5.5163   5.5295   5.5515   5.5607
  5.5776   5.5812   5.5848   5.6057   5.6223   5.6297   5.6377   5.6663
  5.7149   5.7306   5.7612   5.7756   5.8081   5.8140   5.8472   5.8546
  5.8725   5.8805   5.9103   5.9298   5.9398   5.9755   5.9917   6.0426
  6.0642   6.0716   6.0890   6.1509   6.1703   6.1711   6.1762   6.1937
  6.2342   6.2462   6.2619   6.2683   6.2803   6.2866   6.3005   6.3304
  6.4126   6.4411   6.4507   6.4744   6.5385   6.5476   6.5553   6.6026
  6.6521   6.6616   6.6719   6.6945   6.7464   6.7991   6.8303   6.8386
  6.8602   6.8917   6.9787   7.1194   7.1370   7.2045   7.2074   7.2156
  7.2332   7.3105   7.3187   7.3311   7.3639   7.3642   7.4071   7.4139
  7.4789   7.4864   7.4887   7.5246   7.5515   7.6161   7.7111   7.7737
  7.7896   7.7963   7.8950   7.9178   7.9440   7.9584   8.1011   8.1353
  8.4788   8.9226   9.0192   9.3636   9.4737   9.6516  10.1184  10.6891
 11.1566  11.5667  11.7849  11.9126  12.1246  12.1924  12.4115  12.5800
 12.7312  12.9450  13.0451  13.1879  13.2796  13.3876  13.7719  13.8464
 13.9023  14.0146  14.0312  14.3991  15.1925
 --------------------------------------------------------------
 
          Ground-State Mulliken Net Atomic Charges

     Atom                 Charge (a.u.)
  ----------------------------------------
      1 C                    -0.187473
      2 C                    -0.254205
      3 S                    -0.021803
      4 C                    -0.013620
      5 H                     0.196513
      6 C                    -0.027684
      7 C                     0.244370
      8 C                     0.239610
      9 C                    -0.045812
     10 C                    -0.030647
     11 O                    -0.333386
     12 O                    -0.339907
     13 C                    -0.085899
     14 H                     0.122700
     15 H                     0.091334
     16 H                     0.093982
     17 C                    -0.086999
     18 H                     0.124632
     19 H                     0.095641
     20 H                     0.089842
     21 C                    -0.221605
     22 S                     0.001680
     23 C                    -0.047064
     24 H                     0.197891
     25 H                     0.206572
     26 C                    -0.019162
     27 S                     0.108244
     28 C                    -0.188448
     29 C                     0.007875
     30 C                    -0.109818
     31 S                     0.007582
     32 C                    -0.153441
     33 C                     0.392785
     34 F                    -0.207209
     35 C                     0.444949
     36 O                    -0.461281
     37 O                    -0.300592
     38 C                    -0.058646
     39 H                     0.121218
     40 H                     0.094968
     41 H                     0.095019
     42 H                     0.217294
  ----------------------------------------
  Sum of atomic charges =     0.000000

 -----------------------------------------------------------------
                    Cartesian Multipole Moments
 -----------------------------------------------------------------
    Charge (ESU x 10^10)
                -0.0000
    Dipole Moment (Debye)
         X      -0.1521      Y       0.8003      Z       3.2638
       Tot       3.3639
    Quadrupole Moments (Debye-Ang)
        XX    -184.5067     XY       0.0857     YY    -159.0672
        XZ      11.7606     YZ      -8.7706     ZZ    -199.1191
    Octopole Moments (Debye-Ang^2)
       XXX     -45.9804    XXY     293.1335    XYY      -7.8868
       YYY     840.2346    XXZ     169.3377    XYZ     -58.1884
       YYZ     111.4238    XZZ     -11.8465    YZZ     436.6503
       ZZZ     531.1511
    Hexadecapole Moments (Debye-Ang^3)
      XXXX   -2094.2441   XXXY     485.9265   XXYY   -3887.3594
      XYYY     428.3078   YYYY  -19206.6447   XXXZ    -300.1543
      XXYZ     591.4961   XYYZ     151.1231   YYYZ    1451.7485
      XXZZ   -1265.0215   XYZZ     147.9306   YYZZ   -4122.5223
      XZZZ    -416.1995   YZZZ    1305.4450   ZZZZ   -5824.6793
 -----------------------------------------------------------------
 Total job time:  333.24s(wall), 11000.88s(cpu) 
 Tue Jan  9 02:09:21 2024

        *************************************************************
        *                                                           *
        *  Thank you very much for using Q-Chem.  Have a nice day.  *
        *                                                           *
        *************************************************************


0 sent ACK to 0 
now end server 0 ... 
cleanup process ... done
remove work dirs ./qchem1732684.0 -- ./qchem1732684.0
rm -rf ./qchem1732684.0
rm -rf ./qchem1732684
