You are running Q-Chem version: 5.4.0

#
# job setting
#
local host:  exp-3-46
current dir: /home/rramji/project-csd799/aromodel/ptb7fout-qchem/rotation-run
input file:  Dimethoxy_Benzodithiophene_Phi_60_Theta_280_Methylcarbonyl_3_Fluoro_Thienothiophene.qcin
output file: 
nprocs     : 1
nthreads   : 64
#
# qchem installation setting
#
QC:          /cm/shared/apps/spack/cpu/opt/spack/linux-centos8-zen2/gcc-10.2.0/qchem-5.4-akfmr7b3t57bfs6qan3padb2wnb2i7cl
QCAUX:       /cm/shared/apps/spack/cpu/opt/spack/linux-centos8-zen2/gcc-10.2.0/qchem-5.4-akfmr7b3t57bfs6qan3padb2wnb2i7cl/qcaux
QCPROG:      /cm/shared/apps/spack/cpu/opt/spack/linux-centos8-zen2/gcc-10.2.0/qchem-5.4-akfmr7b3t57bfs6qan3padb2wnb2i7cl/exe/qcprog.exe
QCPROG_S:    /cm/shared/apps/spack/cpu/opt/spack/linux-centos8-zen2/gcc-10.2.0/qchem-5.4-akfmr7b3t57bfs6qan3padb2wnb2i7cl/exe/qcprog.exe_s
PARALLEL:    -DPARALLEL
QCMPI:       mpich
#
# qchem directory setting
#
qcrun:       qchem1680318
QCSCRATCH:   .
QCLOCALSCR:  
QCTMPDIR:    .
QCFILEPREF:  ./qchem1680318
QCSAVEDIR:   
workdirs:    ./qchem1680318
workdir0:    ./qchem1680318
partmpdirs =  
#
# parallel setting
#
QCRSH:           ssh
QCMPI:           mpich
QCMPIRUN:        /cm/shared/apps/spack/cpu/opt/spack/linux-centos8-zen2/gcc-10.2.0/qchem-5.4-akfmr7b3t57bfs6qan3padb2wnb2i7cl/bin/mpi/mpirun_qchem
QCMACHINEFILE:   ./qchem1680318/hostfile
exp-3-46

#
# env setting
#
exported envs:   QC QCAUX QCSCRATCH QCRUNNAME QCFILEPREF QCPROG QCPROG_S GUIFILE

Running Job 1 of 1 Dimethoxy_Benzodithiophene_Phi_60_Theta_280_Methylcarbonyl_3_Fluoro_Thienothiophene.qcin
qchem Dimethoxy_Benzodithiophene_Phi_60_Theta_280_Methylcarbonyl_3_Fluoro_Thienothiophene.qcin_1680318.0 ./qchem1680318/ 1
/cm/shared/apps/spack/cpu/opt/spack/linux-centos8-zen2/gcc-10.2.0/qchem-5.4-akfmr7b3t57bfs6qan3padb2wnb2i7cl/bin/mpi/mpirun_qchem -machinefile ./qchem1680318/hostfile -np 1 /cm/shared/apps/spack/cpu/opt/spack/linux-centos8-zen2/gcc-10.2.0/qchem-5.4-akfmr7b3t57bfs6qan3padb2wnb2i7cl/exe/qcprog.exe Dimethoxy_Benzodithiophene_Phi_60_Theta_280_Methylcarbonyl_3_Fluoro_Thienothiophene.qcin_1680318.0 ./qchem1680318/

Process 0 of 1 is on exp-3-46 - thread support 0
initial socket setup ...start
initial socket setup ...done 
now start server 0 ... 
                  Welcome to Q-Chem
     A Quantum Leap Into The Future Of Chemistry


 Q-Chem 5.4, Q-Chem, Inc., Pleasanton, CA (2021)

 License issued to: University of California, San Diego (site)

 E. Epifanovsky,  A. T. B. Gilbert,  Xintian Feng,  Joonho Lee,  Yuezhi Mao,  
 N. Mardirossian,  P. Pokhilko,  A. White,  M. Wormit,  M. P. Coons,  
 A. L. Dempwolff,  Zhengting Gan,  D. Hait,  P. R. Horn,  L. D. Jacobson,  
 I. Kaliman,  J. Kussmann,  A. W. Lange,  Ka Un Lao,  D. S. Levine,  Jie Liu,  
 S. C. McKenzie,  A. F. Morrison,  K. Nanda,  F. Plasser,  D. R. Rehn,  
 M. L. Vidal,  Zhi-Qiang You,  Ying Zhu,  B. Alam,  B. Albrecht,  
 A. Aldossary,  E. Alguire,  J. H. Andersen,  D. Barton,  K. Begam,  A. Behn,  
 Y. A. Bernard,  E. J. Berquist,  H. Burton,  A. Carreras,  K. Carter-Fenk,  
 R. Chakraborty,  A. D. Chien,  K. D. Closser,  V. Cofer-Shabica,  
 S. Dasgupta,  Jia Deng,  M. de Wergifosse,  M. Diedenhofen,  Hainam Do,  
 S. Ehlert,  Po-Tung Fang,  S. Fatehi,  Qingguo Feng,  J. Gayvert,  
 Qinghui Ge,  G. Gidofalvi,  M. Goldey,  J. Gomes,  C. Gonzalez-Espinoza,  
 S. Gulania,  A. Gunina,  M. W. D. Hanson-Heine,  P. H. P. Harbach,  
 A. W. Hauser,  M. F. Herbst,  M. Hernandez Vera,  M. Hodecker,  
 Z. C. Holden,  S. Houck,  Xunkun Huang,  Kerwin Hui,  B. C. Huynh,  
 M. Ivanov,  Hyunjun Ji,  Hanjie Jiang,  B. Kaduk,  S. Kaehler,  
 K. Khistyaev,  Jaehoon Kim,  P. Klunzinger,  Z. Koczor-Benda,  
 Joong Hoon Koh,  D. Kosenkov,  L. Koulias,  T. Kowalczyk,  C. M. Krauter,  
 K. Kue,  A. Kunitsa,  T. Kus,  A. Landau,  K. V. Lawler,  D. Lefrancois,  
 S. Lehtola,  Rain Li,  Yi-Pei Li,  Jiashu Liang,  M. Liebenthal,  
 Hung-Hsuan Lin,  You-Sheng Lin,  Fenglai Liu,  Kuan-Yu Liu,  
 M. Loipersberger,  A. Luenser,  A. Manjanath,  P. Manohar,  E. Mansoor,  
 S. F. Manzer,  Shan-Ping Mao,  A. V. Marenich,  T. Markovich,  S. Mason,  
 S. A. Maurer,  P. F. McLaughlin,  M. F. S. J. Menger,  J.-M. Mewes,  
 S. A. Mewes,  P. Morgante,  J. W. Mullinax,  T. S. Nguyen-Beck,  
 K. J. Oosterbaan,  G. Paran,  Alexander C. Paul,  Suranjan K. Paul,  
 F. Pavosevic,  Zheng Pei,  S. Prager,  E. I. Proynov,  E. Ramos,  B. Rana,  
 A. E. Rask,  A. Rettig,  R. M. Richard,  F. Rob,  E. Rossomme,  T. Scheele,  
 M. Scheurer,  M. Schneider,  N. Sergueev,  S. M. Sharada,  W. Skomorowski,  
 D. W. Small,  C. J. Stein,  Yu-Chuan Su,  E. J. Sundstrom,  Zhen Tao,  
 J. Thirman,  T. Tsuchimochi,  N. M. Tubman,  S. P. Veccham,  O. Vydrov,  
 J. Wenzel,  J. Witte,  A. Yamada,  Kun Yao,  S. Yeganeh,  S. R. Yost,  
 A. Zech,  Igor Ying Zhang,  Xing Zhang,  Yu Zhang,  D. Zuev,  
 A. Aspuru-Guzik,  A. T. Bell,  N. A. Besley,  K. B. Bravaya,  B. R. Brooks,  
 D. Casanova,  Jeng-Da Chai,  S. Coriani,  C. J. Cramer,  
 A. E. DePrince, III,  R. A. DiStasio Jr.,  A. Dreuw,  B. D. Dunietz,  
 T. R. Furlani,  W. A. Goddard III,  S. Grimme,  S. Hammes-Schiffer,  
 T. Head-Gordon,  W. J. Hehre,  Chao-Ping Hsu,  T.-C. Jagau,  Yousung Jung,  
 A. Klamt,  Jing Kong,  D. S. Lambrecht,  WanZhen Liang,  N. J. Mayhall,  
 C. W. McCurdy,  J. B. Neaton,  C. Ochsenfeld,  J. A. Parkhill,  R. Peverati,  
 V. A. Rassolov,  Yihan Shao,  L. V. Slipchenko,  T. Stauch,  R. P. Steele,  
 J. E. Subotnik,  A. J. W. Thom,  A. Tkatchenko,  D. G. Truhlar,  
 T. Van Voorhis,  T. A. Wesolowski,  K. B. Whaley,  H. L. Woodcock III,  
 P. M. Zimmerman,  S. Faraji,  P. M. W. Gill,  M. Head-Gordon,  
 J. M. Herbert,  A. I. Krylov

 Contributors to earlier versions of Q-Chem not listed above: 
 R. D. Adamson,  B. Austin,  R. Baer,  J. Baker,  G. J. O. Beran,  
 K. Brandhorst,  S. T. Brown,  E. F. C. Byrd,  A. K. Chakraborty,  
 G. K. L. Chan,  Chun-Min Chang,  Yunqing Chen,  C.-L. Cheng,  
 Siu Hung Chien,  D. M. Chipman,  D. L. Crittenden,  H. Dachsel,  
 R. J. Doerksen,  A. D. Dutoi,  R. G. Edgar,  J. Fosso-Tande,  
 L. Fusti-Molnar,  D. Ghosh,  A. Ghysels,  A. Golubeva-Zadorozhnaya,  
 J. Gonthier,  M. S. Gordon,  S. R. Gwaltney,  G. Hawkins,  J. E. Herr,  
 A. Heyden,  S. Hirata,  E. G. Hohenstein,  G. Kedziora,  F. J. Keil,  
 C. Kelley,  Jihan Kim,  R. A. King,  R. Z. Khaliullin,  P. P. Korambath,  
 W. Kurlancheek,  A. Laurent,  A. M. Lee,  M. S. Lee,  S. V. Levchenko,  
 Ching Yeh Lin,  D. Liotard,  E. Livshits,  R. C. Lochan,  I. Lotan,  
 L. A. Martinez-Martinez,  P. E. Maslen,  N. Nair,  D. P. O'Neill,  
 D. Neuhauser,  E. Neuscamman,  C. M. Oana,  R. Olivares-Amaya,  R. Olson,  
 T. M. Perrine,  B. Peters,  P. A. Pieniazek,  A. Prociuk,  Y. M. Rhee,  
 J. Ritchie,  M. A. Rohrdanz,  E. Rosta,  N. J. Russ,  H. F. Schaefer III,  
 M. W. Schmidt,  N. E. Schultz,  S. Sharma,  N. Shenvi,  C. D. Sherrill,  
 A. C. Simmonett,  A. Sodt,  T. Stein,  D. Stuck,  K. S. Thanthiriwatte,  
 V. Vanovschi,  L. Vogt,  Tao Wang,  A. Warshel,  M. A. Watson,  
 C. F. Williams,  Q. Wu,  X. Xu,  Jun Yang,  W. Zhang,  Yan Zhao

 Please cite Q-Chem as follows:
 Y. Shao et al., Mol. Phys. 113, 184-215 (2015)
 DOI: 10.1080/00268976.2014.952696

 Q-Chem 5.4.0 for Intel X86 EM64T Linux

 Parts of Q-Chem use Armadillo 9.800.1 (Horizon Scraper).
 http://arma.sourceforge.net/

 Q-Chem begins on Tue Jan  9 01:55:07 2024  

 Host: 
0

     Scratch files written to ./qchem1680318//
 May1621 |scratch|qcdevops|jenkins|workspace|build_RNUM    
 Parallel job on  1  processors
 Processing $rem in /cm/shared/apps/spack/cpu/opt/spack/linux-centos8-zen2/gcc-10.2.0/qchem-5.4-akfmr7b3t57bfs6qan3padb2wnb2i7cl/config/preferences:
 Processing $rem in /home/rramji/.qchemrc:
 Symmetry turned off for PCM/SM12/SMD calculation
 Core orbitals will be frozen

 Checking the input file for inconsistencies... 	...done.

 Q-Chem warning in module forms1/BasisType.C, line 2236:

 You are not using the predefined 5D/6D in this basis set.


--------------------------------------------------------------
User input:
--------------------------------------------------------------
$molecule
0 1
C	0.306235	-8.517702	0.095966
C	-0.754415	-7.641575	-0.082807
S	1.833702	-7.638634	0.348635
C	-0.383675	-6.264785	-0.017401
H	-1.787757	-7.966081	-0.259008
C	1.020885	-6.072714	0.231913
C	1.579097	-4.787049	0.305044
C	-1.268082	-5.162801	-0.196549
C	-0.708796	-3.874817	-0.127606
C	0.696769	-3.683952	0.124792
O	-2.572378	-5.499772	-0.397867
O	2.889532	-4.459055	0.506103
C	3.718420	-5.329063	1.267335
H	4.635204	-4.755694	1.502804
H	4.010790	-6.238095	0.697471
H	3.226506	-5.637262	2.215194
C	-3.467415	-4.572261	-0.999238
H	-4.388648	-5.139743	-1.230649
H	-3.052323	-4.153131	-1.940905
H	-3.730819	-3.739531	-0.311543
C	1.064366	-2.306654	0.187323
S	-1.521154	-2.306501	-0.257128
C	-0.000000	-1.435185	-0.000000
H	2.095939	-1.978138	0.365903
H	0.309131	-9.614033	0.092855
C	0.000000	0.000000	0.000000
S	0.783786	0.451972	1.507541
C	2.145261	1.238908	0.718873
C	0.783650	0.451572	-1.067872
C	1.986396	1.148648	-0.686410
S	0.574133	0.327317	-2.805516
C	2.088363	1.207943	-3.054530
C	2.700548	1.564221	-1.862551
F	3.855718	2.236706	-1.819088
C	2.477307	1.430318	-4.456084
O	1.814592	1.038482	-5.406510
O	3.643162	2.112042	-4.569225
C	4.074530	2.355061	-5.916207
H	5.024556	2.911627	-5.833064
H	3.322010	2.951860	-6.470168
H	4.229490	1.400910	-6.459293
H	2.944986	1.702260	1.306486
$end

$rem
JOBTYPE		SP
EXCHANGE	HF
CORRELATION	pRIMP2
BASIS		cc-pvtz
METHOD		rimp2
AUX_BASIS	rimp2-cc-pvtz
SOLVENT_METHOD	PCM
PURECART	11111
SYMMETRY	false
MEM_TOTAL	110000
SCF_CONVERGENCE = 6
THRESH=10
GUI = 2
$end



$solvent
dielectric 4.90
$end
--------------------------------------------------------------
 ----------------------------------------------------------------
             Standard Nuclear Orientation (Angstroms)
    I     Atom           X                Y                Z
 ----------------------------------------------------------------
    1      C       0.3062350000    -8.5177020000     0.0959660000
    2      C      -0.7544150000    -7.6415750000    -0.0828070000
    3      S       1.8337020000    -7.6386340000     0.3486350000
    4      C      -0.3836750000    -6.2647850000    -0.0174010000
    5      H      -1.7877570000    -7.9660810000    -0.2590080000
    6      C       1.0208850000    -6.0727140000     0.2319130000
    7      C       1.5790970000    -4.7870490000     0.3050440000
    8      C      -1.2680820000    -5.1628010000    -0.1965490000
    9      C      -0.7087960000    -3.8748170000    -0.1276060000
   10      C       0.6967690000    -3.6839520000     0.1247920000
   11      O      -2.5723780000    -5.4997720000    -0.3978670000
   12      O       2.8895320000    -4.4590550000     0.5061030000
   13      C       3.7184200000    -5.3290630000     1.2673350000
   14      H       4.6352040000    -4.7556940000     1.5028040000
   15      H       4.0107900000    -6.2380950000     0.6974710000
   16      H       3.2265060000    -5.6372620000     2.2151940000
   17      C      -3.4674150000    -4.5722610000    -0.9992380000
   18      H      -4.3886480000    -5.1397430000    -1.2306490000
   19      H      -3.0523230000    -4.1531310000    -1.9409050000
   20      H      -3.7308190000    -3.7395310000    -0.3115430000
   21      C       1.0643660000    -2.3066540000     0.1873230000
   22      S      -1.5211540000    -2.3065010000    -0.2571280000
   23      C       0.0000000000    -1.4351850000     0.0000000000
   24      H       2.0959390000    -1.9781380000     0.3659030000
   25      H       0.3091310000    -9.6140330000     0.0928550000
   26      C       0.0000000000     0.0000000000     0.0000000000
   27      S       0.7837860000     0.4519720000     1.5075410000
   28      C       2.1452610000     1.2389080000     0.7188730000
   29      C       0.7836500000     0.4515720000    -1.0678720000
   30      C       1.9863960000     1.1486480000    -0.6864100000
   31      S       0.5741330000     0.3273170000    -2.8055160000
   32      C       2.0883630000     1.2079430000    -3.0545300000
   33      C       2.7005480000     1.5642210000    -1.8625510000
   34      F       3.8557180000     2.2367060000    -1.8190880000
   35      C       2.4773070000     1.4303180000    -4.4560840000
   36      O       1.8145920000     1.0384820000    -5.4065100000
   37      O       3.6431620000     2.1120420000    -4.5692250000
   38      C       4.0745300000     2.3550610000    -5.9162070000
   39      H       5.0245560000     2.9116270000    -5.8330640000
   40      H       3.3220100000     2.9518600000    -6.4701680000
   41      H       4.2294900000     1.4009100000    -6.4592930000
   42      H       2.9449860000     1.7022600000     1.3064860000
 ----------------------------------------------------------------
 Nuclear Repulsion Energy =        3346.65600394 hartrees
 There are      119 alpha and      119 beta electrons
 Requested basis set is cc-pVTZ
 There are 376 shells and 1068 basis functions

 Total QAlloc Memory Limit 110000 MB
 Mega-Array Size       188 MB
 MEM_STATIC part       192 MB
 Discretize the solute cavity surface with Lebedev spheres
	Using 110 Lebedev grid points for each H atom
	Using 194 Lebedev grid points for other atoms
	Atomic van der Waals radii will be scaled by 1.20
 Remove points where switching function is < 1.0e-08
 Keep 2902 surface tesserae and discard 4154 interior tesserae
 Molecular Surface Area = 439.709 Angst**2
 Requested basis set is rimp2-cc-pVTZ
 There are 833 shells and 2903 basis functions
 A cutoff of  1.0D-10 yielded  32044 shell pairs
 There are    245234 function pairs (    318210 Cartesian)
 Smallest overlap matrix eigenvalue = 2.20E-05

 Scale SEOQF with 1.000000e-01/1.000000e-02/1.000000e-02

 Standard Electronic Orientation quadrupole field applied
 Nucleus-field energy     =     0.0000000559 hartrees
 Guess from superposition of atomic densities
 Warning:  Energy on first SCF cycle will be non-variational
 SAD guess density has 238.000000 electrons

 -----------------------------------------------------------------------
  General SCF calculation program by
  Eric Jon Sundstrom, Paul Horn, Yuezhi Mao, Dmitri Zuev, Alec White,
  David Stuck, Shaama M.S., Shane Yost, Joonho Lee, David Small,
  Daniel Levine, Susi Lehtola, Hugh Burton, Evgeny Epifanovsky,
  Bang C. Huynh
 -----------------------------------------------------------------------
 Hartree-Fock
 using 64 threads for integral computing
 -------------------------------------------------------
 OpenMP Integral computing Module                
 Release: version 1.0, May 2013, Q-Chem Inc. Pittsburgh 
 -------------------------------------------------------
 A restricted SCF calculation will be
 performed using DIIS
 SCF converges when DIIS error is below 1.0e-06
 ---------------------------------------
  Cycle       Energy         DIIS error
 ---------------------------------------
    1   -2765.3153770825      1.76e-02  
    2   -2753.8135520424      1.56e-03  
    3   -2754.1533073843      8.67e-04  
    4   -2754.2363516758      2.57e-04  
    5   -2754.2482725351      7.00e-05  
    6   -2754.2494145435      2.49e-05  
    7   -2754.2496771512      1.19e-05  
    8   -2754.2497683707      5.02e-06  
    9   -2754.2497876589      2.18e-06  
   10   -2754.2497908602      1.15e-06  
   11   -2754.2497917232      4.62e-07  Convergence criterion met
 ---------------------------------------
 SCF time:   CPU 7511.99s  wall 281.00s 

************** Final PCM Free Energy Summary **************
 G_electrostatic  =      -0.02070255 hartree =     -12.99104713 kcal/mol
 G_cavitation     =       0.00000000 hartree =       0.00000000 kcal/mol
 G_dispersion     =       0.00000000 hartree =       0.00000000 kcal/mol
 G_repulsion      =       0.00000000 hartree =       0.00000000 kcal/mol
 --------------------------------------------------
 Non-electrostatic Free Energy =       0.00000000 hartree =       0.00000000 kcal/mol
 Total                         =      -0.02070255 hartree =     -12.99104713 kcal/mol
 --------------------------------------------------
 SCF Energy (H0 + V/2)                       =   -2754.24979172 
 Solute Internal Energy (H0)                 =   -2754.22908917 
 Total Free Energy (H0 + V/2 + non-elec)     =   -2754.24979172 hartree
                                             = -1728317.82980612 kcal/mol
***********************************************************

 SCF   energy in the final basis set =    -2754.2497917232
 Total energy in the final basis set =    -2754.2497917232


 --------------------------------------------------------------
  Generalized many-body perturbation theory program
  by Joonho Lee, Fazle Rob, Xintian Feng, Evgeny Epifanovsky

 No regularization used 
 (reg. param. = 0.0000e+00)
  (P|Q)^-1/2 Time:  CPU 186.01 s  wall 3.40 s

 In RI-MP2 calculation: 
 # of frozen core orbitals: 45

 Components of the RIMP2 correlation energy:
        aaaa    correlation energy =        -0.6718787326 a.u.
        abab    correlation energy =        -3.7191469860 a.u.
        bbbb    correlation energy =        -0.6718787326 a.u.
        non-Brillouin singles      =        -0.0000000000 a.u.
        total same-spin energy     =        -1.3437574652 a.u.
        total opposite-spin energy =        -3.7191469860 a.u.

 Total  RIMP2   correlation energy =        -5.0629044512 a.u.
        RIMP2         total energy =     -2759.3126961745 a.u.

 RI-MP2 Energy Time:  CPU 2834.14 s  wall 47.45 s
 
 --------------------------------------------------------------
 
                    Orbital Energies (a.u.)
 --------------------------------------------------------------
 
 Alpha MOs
 -- Occupied --
-92.0132 -92.0087 -91.9835 -91.9803 -26.3462 -20.6151 -20.5902 -20.5885
-20.5612 -11.4099 -11.3869 -11.3347 -11.3226 -11.3159 -11.3119 -11.2972
-11.2921 -11.2891 -11.2867 -11.2850 -11.2849 -11.2810 -11.2787 -11.2759
-11.2653 -11.2570 -11.2535 -11.2478 -11.2435  -9.0125  -9.0083  -8.9835
 -8.9810  -6.6931  -6.6921  -6.6920  -6.6892  -6.6885  -6.6875  -6.6645
 -6.6638  -6.6630  -6.6619  -6.6612  -6.6603  -1.6632  -1.4676  -1.4141
 -1.4113  -1.3703  -1.2329  -1.1899  -1.1643  -1.1392  -1.0840  -1.0478
 -1.0453  -1.0259  -0.9968  -0.9867  -0.9642  -0.9574  -0.9481  -0.9398
 -0.8918  -0.8711  -0.8421  -0.8146  -0.7946  -0.7870  -0.7830  -0.7627
 -0.7555  -0.7305  -0.7278  -0.7128  -0.6992  -0.6858  -0.6825  -0.6795
 -0.6743  -0.6596  -0.6567  -0.6506  -0.6286  -0.6178  -0.6146  -0.6090
 -0.6002  -0.5898  -0.5738  -0.5686  -0.5656  -0.5631  -0.5526  -0.5464
 -0.5313  -0.5224  -0.5188  -0.5156  -0.5116  -0.5094  -0.5023  -0.4922
 -0.4876  -0.4844  -0.4749  -0.4730  -0.4666  -0.4603  -0.4573  -0.4022
 -0.3922  -0.3858  -0.3647  -0.3384  -0.3130  -0.3054  -0.2516
 -- Virtual --
  0.0235   0.0664   0.0812   0.1263   0.1372   0.1436   0.1501   0.1514
  0.1568   0.1571   0.1620   0.1772   0.1784   0.1841   0.1852   0.1945
  0.1962   0.2055   0.2120   0.2147   0.2204   0.2225   0.2250   0.2277
  0.2314   0.2394   0.2431   0.2477   0.2555   0.2616   0.2666   0.2779
  0.2849   0.2949   0.3055   0.3261   0.3311   0.3322   0.3388   0.3467
  0.3496   0.3537   0.3601   0.3679   0.3756   0.3805   0.3848   0.3871
  0.3889   0.3914   0.3967   0.3991   0.4084   0.4094   0.4185   0.4214
  0.4258   0.4300   0.4361   0.4429   0.4461   0.4499   0.4523   0.4587
  0.4641   0.4687   0.4713   0.4729   0.4787   0.4820   0.4847   0.4860
  0.4931   0.5000   0.5050   0.5067   0.5124   0.5170   0.5202   0.5256
  0.5264   0.5344   0.5356   0.5376   0.5395   0.5416   0.5435   0.5472
  0.5510   0.5544   0.5572   0.5613   0.5691   0.5696   0.5764   0.5811
  0.5846   0.5918   0.5936   0.5955   0.5981   0.6016   0.6084   0.6138
  0.6173   0.6191   0.6196   0.6207   0.6227   0.6302   0.6349   0.6371
  0.6413   0.6436   0.6465   0.6513   0.6525   0.6563   0.6617   0.6708
  0.6754   0.6769   0.6850   0.6896   0.6940   0.7005   0.7020   0.7065
  0.7119   0.7156   0.7185   0.7265   0.7275   0.7409   0.7443   0.7475
  0.7566   0.7606   0.7691   0.7709   0.7747   0.7809   0.7876   0.8016
  0.8043   0.8119   0.8190   0.8212   0.8279   0.8335   0.8394   0.8401
  0.8464   0.8509   0.8554   0.8618   0.8679   0.8706   0.8755   0.8829
  0.8903   0.8965   0.9050   0.9066   0.9127   0.9172   0.9202   0.9228
  0.9350   0.9400   0.9421   0.9484   0.9532   0.9573   0.9597   0.9689
  0.9761   0.9768   0.9810   0.9843   0.9880   0.9941   1.0005   1.0025
  1.0106   1.0126   1.0146   1.0226   1.0297   1.0325   1.0373   1.0388
  1.0433   1.0486   1.0531   1.0589   1.0627   1.0757   1.0769   1.0835
  1.0875   1.0935   1.0942   1.0994   1.1047   1.1056   1.1103   1.1165
  1.1175   1.1268   1.1290   1.1353   1.1463   1.1478   1.1520   1.1555
  1.1620   1.1720   1.1798   1.1821   1.1880   1.1916   1.1955   1.1986
  1.2033   1.2095   1.2129   1.2173   1.2203   1.2245   1.2272   1.2322
  1.2353   1.2393   1.2446   1.2515   1.2568   1.2648   1.2682   1.2758
  1.2784   1.2806   1.2859   1.2867   1.2965   1.3063   1.3122   1.3161
  1.3212   1.3304   1.3398   1.3434   1.3585   1.3615   1.3667   1.3736
  1.3846   1.3867   1.3949   1.3985   1.4031   1.4121   1.4155   1.4225
  1.4343   1.4429   1.4548   1.4675   1.4679   1.4814   1.4876   1.4898
  1.5001   1.5017   1.5062   1.5082   1.5087   1.5151   1.5205   1.5287
  1.5346   1.5371   1.5412   1.5435   1.5473   1.5510   1.5583   1.5656
  1.5734   1.5768   1.5852   1.5939   1.6009   1.6121   1.6217   1.6334
  1.6386   1.6466   1.6550   1.6580   1.6658   1.6684   1.6752   1.6841
  1.6926   1.6941   1.6995   1.7075   1.7086   1.7257   1.7309   1.7416
  1.7517   1.7636   1.7731   1.7793   1.7888   1.7964   1.7979   1.8153
  1.8174   1.8258   1.8374   1.8412   1.8542   1.8687   1.8710   1.8749
  1.8837   1.8908   1.9059   1.9108   1.9149   1.9159   1.9248   1.9343
  1.9398   1.9467   1.9589   1.9637   1.9669   1.9740   1.9806   1.9861
  1.9918   2.0015   2.0039   2.0066   2.0168   2.0315   2.0414   2.0618
  2.0721   2.0769   2.0903   2.0984   2.1008   2.1109   2.1250   2.1531
  2.1557   2.1569   2.1629   2.1674   2.1736   2.1769   2.1825   2.1910
  2.1926   2.1951   2.2001   2.2123   2.2216   2.2257   2.2365   2.2376
  2.2459   2.2528   2.2586   2.2680   2.2739   2.2774   2.2866   2.2953
  2.3042   2.3162   2.3199   2.3283   2.3343   2.3423   2.3517   2.3546
  2.3677   2.3705   2.3863   2.3877   2.3960   2.4066   2.4180   2.4253
  2.4347   2.4372   2.4435   2.4544   2.4654   2.4715   2.4814   2.4886
  2.4940   2.5009   2.5047   2.5175   2.5292   2.5383   2.5545   2.5588
  2.5605   2.5697   2.5779   2.5917   2.6022   2.6150   2.6208   2.6241
  2.6295   2.6335   2.6406   2.6433   2.6507   2.6544   2.6622   2.6661
  2.6693   2.6846   2.6926   2.6994   2.7049   2.7061   2.7084   2.7212
  2.7299   2.7314   2.7419   2.7458   2.7487   2.7557   2.7768   2.7803
  2.7856   2.7900   2.7973   2.8005   2.8096   2.8111   2.8167   2.8191
  2.8320   2.8344   2.8482   2.8516   2.8569   2.8654   2.8710   2.8770
  2.8792   2.8836   2.8907   2.8960   2.9067   2.9229   2.9303   2.9383
  2.9444   2.9502   2.9575   2.9596   2.9779   2.9823   2.9861   2.9897
  2.9997   3.0108   3.0192   3.0231   3.0329   3.0367   3.0401   3.0439
  3.0526   3.0591   3.0676   3.0700   3.0856   3.0884   3.0941   3.1000
  3.1006   3.1080   3.1124   3.1158   3.1207   3.1251   3.1266   3.1432
  3.1511   3.1519   3.1586   3.1609   3.1629   3.1744   3.1836   3.1853
  3.1883   3.1954   3.2064   3.2117   3.2149   3.2202   3.2226   3.2282
  3.2329   3.2409   3.2462   3.2502   3.2544   3.2590   3.2649   3.2736
  3.2761   3.2822   3.2869   3.2893   3.2964   3.3015   3.3040   3.3127
  3.3159   3.3227   3.3311   3.3365   3.3410   3.3455   3.3471   3.3520
  3.3550   3.3636   3.3645   3.3668   3.3704   3.3723   3.3809   3.3881
  3.3905   3.3918   3.3979   3.4021   3.4028   3.4116   3.4142   3.4148
  3.4216   3.4268   3.4364   3.4400   3.4422   3.4493   3.4507   3.4516
  3.4671   3.4683   3.4715   3.4747   3.4806   3.4821   3.4887   3.4973
  3.5067   3.5079   3.5115   3.5170   3.5253   3.5306   3.5343   3.5375
  3.5388   3.5471   3.5512   3.5608   3.5651   3.5706   3.5742   3.5791
  3.5861   3.5911   3.5980   3.6009   3.6069   3.6078   3.6157   3.6186
  3.6268   3.6274   3.6360   3.6369   3.6445   3.6545   3.6630   3.6672
  3.6758   3.6771   3.6835   3.6902   3.6933   3.6950   3.7018   3.7056
  3.7101   3.7117   3.7213   3.7268   3.7301   3.7393   3.7431   3.7502
  3.7544   3.7597   3.7695   3.7730   3.7741   3.7853   3.7887   3.7940
  3.7977   3.8028   3.8070   3.8075   3.8098   3.8171   3.8274   3.8354
  3.8427   3.8442   3.8547   3.8564   3.8645   3.8714   3.8750   3.8804
  3.8830   3.8839   3.8883   3.8982   3.9002   3.9053   3.9237   3.9257
  3.9303   3.9392   3.9437   3.9450   3.9631   3.9759   3.9837   3.9957
  4.0013   4.0092   4.0116   4.0183   4.0237   4.0279   4.0355   4.0454
  4.0521   4.0587   4.0655   4.0692   4.0736   4.0863   4.0933   4.0991
  4.1062   4.1220   4.1317   4.1372   4.1438   4.1449   4.1490   4.1542
  4.1598   4.1646   4.1675   4.1789   4.1873   4.1894   4.1941   4.2030
  4.2106   4.2136   4.2216   4.2326   4.2426   4.2464   4.2673   4.2695
  4.2785   4.2946   4.3034   4.3244   4.3393   4.3415   4.3460   4.3553
  4.3583   4.3622   4.3683   4.3720   4.3854   4.3886   4.4006   4.4086
  4.4125   4.4145   4.4206   4.4238   4.4286   4.4400   4.4466   4.4495
  4.4657   4.4759   4.4835   4.4966   4.5005   4.5059   4.5151   4.5226
  4.5414   4.5510   4.5546   4.5606   4.5648   4.5809   4.5833   4.5897
  4.6008   4.6134   4.6161   4.6251   4.6362   4.6393   4.6489   4.6547
  4.6666   4.6700   4.6772   4.6937   4.6986   4.7027   4.7355   4.7396
  4.7492   4.7601   4.7706   4.7758   4.7860   4.7931   4.8072   4.8229
  4.8310   4.8405   4.8496   4.8526   4.8689   4.8714   4.8922   4.9280
  4.9437   4.9487   4.9516   4.9626   4.9666   4.9722   4.9897   4.9991
  5.0087   5.0114   5.0175   5.0209   5.0284   5.0416   5.0697   5.0760
  5.0875   5.0931   5.1049   5.1279   5.1592   5.1636   5.1765   5.1945
  5.2105   5.2182   5.2324   5.2446   5.2473   5.2556   5.2572   5.2795
  5.2955   5.3076   5.3152   5.3269   5.3363   5.3500   5.3521   5.3653
  5.3851   5.3944   5.4019   5.4067   5.4163   5.4260   5.4378   5.4662
  5.4701   5.4848   5.5016   5.5094   5.5130   5.5247   5.5358   5.5587
  5.5782   5.5813   5.5924   5.6075   5.6215   5.6378   5.6507   5.6621
  5.7183   5.7230   5.7454   5.7635   5.8072   5.8180   5.8447   5.8570
  5.8740   5.8813   5.9035   5.9290   5.9578   5.9889   5.9984   6.0223
  6.0415   6.0723   6.0964   6.1333   6.1502   6.1729   6.1791   6.1823
  6.2276   6.2449   6.2470   6.2612   6.2717   6.2813   6.3019   6.3266
  6.4083   6.4444   6.4499   6.4778   6.5375   6.5504   6.5584   6.5962
  6.6566   6.6607   6.6711   6.7003   6.7440   6.8020   6.8289   6.8369
  6.8594   6.8968   6.9779   7.1255   7.1375   7.2035   7.2037   7.2179
  7.2363   7.3099   7.3225   7.3321   7.3606   7.3613   7.4042   7.4131
  7.4803   7.4829   7.4899   7.5162   7.5493   7.6141   7.7008   7.7703
  7.7891   7.7990   7.8903   7.9239   7.9450   7.9588   8.0638   8.1321
  8.3981   8.9193   9.0275   9.3603   9.4808   9.6657  10.1796  10.5719
 11.2525  11.4891  11.7759  12.0543  12.1413  12.1727  12.4381  12.5889
 12.7365  12.9551  12.9793  13.2781  13.3865  13.5384  13.7930  13.8490
 13.9067  14.0247  14.0415  14.4459  15.1998
 --------------------------------------------------------------
 
          Ground-State Mulliken Net Atomic Charges

     Atom                 Charge (a.u.)
  ----------------------------------------
      1 C                    -0.195793
      2 C                    -0.254187
      3 S                    -0.028846
      4 C                    -0.019847
      5 H                     0.195419
      6 C                    -0.025875
      7 C                     0.228711
      8 C                     0.242645
      9 C                    -0.046474
     10 C                    -0.018707
     11 O                    -0.333761
     12 O                    -0.342611
     13 C                    -0.085796
     14 H                     0.120814
     15 H                     0.090933
     16 H                     0.092896
     17 C                    -0.086232
     18 H                     0.124148
     19 H                     0.094214
     20 H                     0.089602
     21 C                    -0.260424
     22 S                    -0.023289
     23 C                    -0.001401
     24 H                     0.194318
     25 H                     0.204918
     26 C                    -0.176943
     27 S                     0.129498
     28 C                    -0.124976
     29 C                     0.083828
     30 C                    -0.119622
     31 S                     0.057371
     32 C                    -0.155777
     33 C                     0.396285
     34 F                    -0.204181
     35 C                     0.449060
     36 O                    -0.463145
     37 O                    -0.301572
     38 C                    -0.058167
     39 H                     0.121328
     40 H                     0.095148
     41 H                     0.095290
     42 H                     0.221200
  ----------------------------------------
  Sum of atomic charges =     0.000000

 -----------------------------------------------------------------
                    Cartesian Multipole Moments
 -----------------------------------------------------------------
    Charge (ESU x 10^10)
                 0.0000
    Dipole Moment (Debye)
         X       3.4400      Y       1.6931      Z       2.8292
       Tot       4.7649
    Quadrupole Moments (Debye-Ang)
        XX    -168.4755     XY       8.7201     YY    -180.3645
        XZ       2.9799     YZ      -4.8153     ZZ    -200.5905
    Octopole Moments (Debye-Ang^2)
       XXX    -487.9700    XXY     400.7799    XYY    -160.7394
       YYY    1146.9488    XXZ     126.2651    XYZ     -71.3656
       YYZ     159.2919    XZZ     -94.9197    YZZ     504.7279
       ZZZ     531.3773
    Hexadecapole Moments (Debye-Ang^3)
      XXXX   -4734.1020   XXXY    -152.5514   XXYY   -3819.2271
      XYYY    -233.3255   YYYY  -17396.6879   XXXZ    1016.3691
      XXYZ     167.3501   XYYZ     523.9476   YYYZ     884.1549
      XXZZ   -1281.2064   XYZZ     187.8108   YYZZ   -4210.2285
      XZZZ     634.7796   YZZZ     690.3382   ZZZZ   -5551.7902
 -----------------------------------------------------------------
 Total job time:  358.14s(wall), 10594.86s(cpu) 
 Tue Jan  9 02:01:05 2024

        *************************************************************
        *                                                           *
        *  Thank you very much for using Q-Chem.  Have a nice day.  *
        *                                                           *
        *************************************************************


0 sent ACK to 0 
now end server 0 ... 
cleanup process ... done
remove work dirs ./qchem1680318.0 -- ./qchem1680318.0
rm -rf ./qchem1680318.0
rm -rf ./qchem1680318
