You are running Q-Chem version: 5.4.0

#
# job setting
#
local host:  exp-8-43
current dir: /home/rramji/project-csd799/aromodel/ptb7fout-qchem/rotation-run
input file:  Dimethoxy_Benzodithiophene_Phi_20_Theta_330_Methylcarbonyl_3_Fluoro_Thienothiophene.qcin
output file: 
nprocs     : 1
nthreads   : 64
#
# qchem installation setting
#
QC:          /cm/shared/apps/spack/cpu/opt/spack/linux-centos8-zen2/gcc-10.2.0/qchem-5.4-akfmr7b3t57bfs6qan3padb2wnb2i7cl
QCAUX:       /cm/shared/apps/spack/cpu/opt/spack/linux-centos8-zen2/gcc-10.2.0/qchem-5.4-akfmr7b3t57bfs6qan3padb2wnb2i7cl/qcaux
QCPROG:      /cm/shared/apps/spack/cpu/opt/spack/linux-centos8-zen2/gcc-10.2.0/qchem-5.4-akfmr7b3t57bfs6qan3padb2wnb2i7cl/exe/qcprog.exe
QCPROG_S:    /cm/shared/apps/spack/cpu/opt/spack/linux-centos8-zen2/gcc-10.2.0/qchem-5.4-akfmr7b3t57bfs6qan3padb2wnb2i7cl/exe/qcprog.exe_s
PARALLEL:    -DPARALLEL
QCMPI:       mpich
#
# qchem directory setting
#
qcrun:       qchem2305424
QCSCRATCH:   .
QCLOCALSCR:  
QCTMPDIR:    .
QCFILEPREF:  ./qchem2305424
QCSAVEDIR:   
workdirs:    ./qchem2305424
workdir0:    ./qchem2305424
partmpdirs =  
#
# parallel setting
#
QCRSH:           ssh
QCMPI:           mpich
QCMPIRUN:        /cm/shared/apps/spack/cpu/opt/spack/linux-centos8-zen2/gcc-10.2.0/qchem-5.4-akfmr7b3t57bfs6qan3padb2wnb2i7cl/bin/mpi/mpirun_qchem
QCMACHINEFILE:   ./qchem2305424/hostfile
exp-8-43

#
# env setting
#
exported envs:   QC QCAUX QCSCRATCH QCRUNNAME QCFILEPREF QCPROG QCPROG_S GUIFILE

Running Job 1 of 1 Dimethoxy_Benzodithiophene_Phi_20_Theta_330_Methylcarbonyl_3_Fluoro_Thienothiophene.qcin
qchem Dimethoxy_Benzodithiophene_Phi_20_Theta_330_Methylcarbonyl_3_Fluoro_Thienothiophene.qcin_2305424.0 ./qchem2305424/ 1
/cm/shared/apps/spack/cpu/opt/spack/linux-centos8-zen2/gcc-10.2.0/qchem-5.4-akfmr7b3t57bfs6qan3padb2wnb2i7cl/bin/mpi/mpirun_qchem -machinefile ./qchem2305424/hostfile -np 1 /cm/shared/apps/spack/cpu/opt/spack/linux-centos8-zen2/gcc-10.2.0/qchem-5.4-akfmr7b3t57bfs6qan3padb2wnb2i7cl/exe/qcprog.exe Dimethoxy_Benzodithiophene_Phi_20_Theta_330_Methylcarbonyl_3_Fluoro_Thienothiophene.qcin_2305424.0 ./qchem2305424/

Process 0 of 1 is on exp-8-43 - thread support 0
initial socket setup ...start
initial socket setup ...done 
now start server 0 ... 
                  Welcome to Q-Chem
     A Quantum Leap Into The Future Of Chemistry


 Q-Chem 5.4, Q-Chem, Inc., Pleasanton, CA (2021)

 License issued to: University of California, San Diego (site)

 E. Epifanovsky,  A. T. B. Gilbert,  Xintian Feng,  Joonho Lee,  Yuezhi Mao,  
 N. Mardirossian,  P. Pokhilko,  A. White,  M. Wormit,  M. P. Coons,  
 A. L. Dempwolff,  Zhengting Gan,  D. Hait,  P. R. Horn,  L. D. Jacobson,  
 I. Kaliman,  J. Kussmann,  A. W. Lange,  Ka Un Lao,  D. S. Levine,  Jie Liu,  
 S. C. McKenzie,  A. F. Morrison,  K. Nanda,  F. Plasser,  D. R. Rehn,  
 M. L. Vidal,  Zhi-Qiang You,  Ying Zhu,  B. Alam,  B. Albrecht,  
 A. Aldossary,  E. Alguire,  J. H. Andersen,  D. Barton,  K. Begam,  A. Behn,  
 Y. A. Bernard,  E. J. Berquist,  H. Burton,  A. Carreras,  K. Carter-Fenk,  
 R. Chakraborty,  A. D. Chien,  K. D. Closser,  V. Cofer-Shabica,  
 S. Dasgupta,  Jia Deng,  M. de Wergifosse,  M. Diedenhofen,  Hainam Do,  
 S. Ehlert,  Po-Tung Fang,  S. Fatehi,  Qingguo Feng,  J. Gayvert,  
 Qinghui Ge,  G. Gidofalvi,  M. Goldey,  J. Gomes,  C. Gonzalez-Espinoza,  
 S. Gulania,  A. Gunina,  M. W. D. Hanson-Heine,  P. H. P. Harbach,  
 A. W. Hauser,  M. F. Herbst,  M. Hernandez Vera,  M. Hodecker,  
 Z. C. Holden,  S. Houck,  Xunkun Huang,  Kerwin Hui,  B. C. Huynh,  
 M. Ivanov,  Hyunjun Ji,  Hanjie Jiang,  B. Kaduk,  S. Kaehler,  
 K. Khistyaev,  Jaehoon Kim,  P. Klunzinger,  Z. Koczor-Benda,  
 Joong Hoon Koh,  D. Kosenkov,  L. Koulias,  T. Kowalczyk,  C. M. Krauter,  
 K. Kue,  A. Kunitsa,  T. Kus,  A. Landau,  K. V. Lawler,  D. Lefrancois,  
 S. Lehtola,  Rain Li,  Yi-Pei Li,  Jiashu Liang,  M. Liebenthal,  
 Hung-Hsuan Lin,  You-Sheng Lin,  Fenglai Liu,  Kuan-Yu Liu,  
 M. Loipersberger,  A. Luenser,  A. Manjanath,  P. Manohar,  E. Mansoor,  
 S. F. Manzer,  Shan-Ping Mao,  A. V. Marenich,  T. Markovich,  S. Mason,  
 S. A. Maurer,  P. F. McLaughlin,  M. F. S. J. Menger,  J.-M. Mewes,  
 S. A. Mewes,  P. Morgante,  J. W. Mullinax,  T. S. Nguyen-Beck,  
 K. J. Oosterbaan,  G. Paran,  Alexander C. Paul,  Suranjan K. Paul,  
 F. Pavosevic,  Zheng Pei,  S. Prager,  E. I. Proynov,  E. Ramos,  B. Rana,  
 A. E. Rask,  A. Rettig,  R. M. Richard,  F. Rob,  E. Rossomme,  T. Scheele,  
 M. Scheurer,  M. Schneider,  N. Sergueev,  S. M. Sharada,  W. Skomorowski,  
 D. W. Small,  C. J. Stein,  Yu-Chuan Su,  E. J. Sundstrom,  Zhen Tao,  
 J. Thirman,  T. Tsuchimochi,  N. M. Tubman,  S. P. Veccham,  O. Vydrov,  
 J. Wenzel,  J. Witte,  A. Yamada,  Kun Yao,  S. Yeganeh,  S. R. Yost,  
 A. Zech,  Igor Ying Zhang,  Xing Zhang,  Yu Zhang,  D. Zuev,  
 A. Aspuru-Guzik,  A. T. Bell,  N. A. Besley,  K. B. Bravaya,  B. R. Brooks,  
 D. Casanova,  Jeng-Da Chai,  S. Coriani,  C. J. Cramer,  
 A. E. DePrince, III,  R. A. DiStasio Jr.,  A. Dreuw,  B. D. Dunietz,  
 T. R. Furlani,  W. A. Goddard III,  S. Grimme,  S. Hammes-Schiffer,  
 T. Head-Gordon,  W. J. Hehre,  Chao-Ping Hsu,  T.-C. Jagau,  Yousung Jung,  
 A. Klamt,  Jing Kong,  D. S. Lambrecht,  WanZhen Liang,  N. J. Mayhall,  
 C. W. McCurdy,  J. B. Neaton,  C. Ochsenfeld,  J. A. Parkhill,  R. Peverati,  
 V. A. Rassolov,  Yihan Shao,  L. V. Slipchenko,  T. Stauch,  R. P. Steele,  
 J. E. Subotnik,  A. J. W. Thom,  A. Tkatchenko,  D. G. Truhlar,  
 T. Van Voorhis,  T. A. Wesolowski,  K. B. Whaley,  H. L. Woodcock III,  
 P. M. Zimmerman,  S. Faraji,  P. M. W. Gill,  M. Head-Gordon,  
 J. M. Herbert,  A. I. Krylov

 Contributors to earlier versions of Q-Chem not listed above: 
 R. D. Adamson,  B. Austin,  R. Baer,  J. Baker,  G. J. O. Beran,  
 K. Brandhorst,  S. T. Brown,  E. F. C. Byrd,  A. K. Chakraborty,  
 G. K. L. Chan,  Chun-Min Chang,  Yunqing Chen,  C.-L. Cheng,  
 Siu Hung Chien,  D. M. Chipman,  D. L. Crittenden,  H. Dachsel,  
 R. J. Doerksen,  A. D. Dutoi,  R. G. Edgar,  J. Fosso-Tande,  
 L. Fusti-Molnar,  D. Ghosh,  A. Ghysels,  A. Golubeva-Zadorozhnaya,  
 J. Gonthier,  M. S. Gordon,  S. R. Gwaltney,  G. Hawkins,  J. E. Herr,  
 A. Heyden,  S. Hirata,  E. G. Hohenstein,  G. Kedziora,  F. J. Keil,  
 C. Kelley,  Jihan Kim,  R. A. King,  R. Z. Khaliullin,  P. P. Korambath,  
 W. Kurlancheek,  A. Laurent,  A. M. Lee,  M. S. Lee,  S. V. Levchenko,  
 Ching Yeh Lin,  D. Liotard,  E. Livshits,  R. C. Lochan,  I. Lotan,  
 L. A. Martinez-Martinez,  P. E. Maslen,  N. Nair,  D. P. O'Neill,  
 D. Neuhauser,  E. Neuscamman,  C. M. Oana,  R. Olivares-Amaya,  R. Olson,  
 T. M. Perrine,  B. Peters,  P. A. Pieniazek,  A. Prociuk,  Y. M. Rhee,  
 J. Ritchie,  M. A. Rohrdanz,  E. Rosta,  N. J. Russ,  H. F. Schaefer III,  
 M. W. Schmidt,  N. E. Schultz,  S. Sharma,  N. Shenvi,  C. D. Sherrill,  
 A. C. Simmonett,  A. Sodt,  T. Stein,  D. Stuck,  K. S. Thanthiriwatte,  
 V. Vanovschi,  L. Vogt,  Tao Wang,  A. Warshel,  M. A. Watson,  
 C. F. Williams,  Q. Wu,  X. Xu,  Jun Yang,  W. Zhang,  Yan Zhao

 Please cite Q-Chem as follows:
 Y. Shao et al., Mol. Phys. 113, 184-215 (2015)
 DOI: 10.1080/00268976.2014.952696

 Q-Chem 5.4.0 for Intel X86 EM64T Linux

 Parts of Q-Chem use Armadillo 9.800.1 (Horizon Scraper).
 http://arma.sourceforge.net/

 Q-Chem begins on Tue Jan  9 02:32:22 2024  

 Host: 
0

     Scratch files written to ./qchem2305424//
 May1621 |scratch|qcdevops|jenkins|workspace|build_RNUM    
 Parallel job on  1  processors
 Processing $rem in /cm/shared/apps/spack/cpu/opt/spack/linux-centos8-zen2/gcc-10.2.0/qchem-5.4-akfmr7b3t57bfs6qan3padb2wnb2i7cl/config/preferences:
 Processing $rem in /home/rramji/.qchemrc:
 Symmetry turned off for PCM/SM12/SMD calculation
 Core orbitals will be frozen

 Checking the input file for inconsistencies... 	...done.

 Q-Chem warning in module forms1/BasisType.C, line 2236:

 You are not using the predefined 5D/6D in this basis set.


--------------------------------------------------------------
User input:
--------------------------------------------------------------
$molecule
0 1
C	0.123330	-8.517702	0.296276
C	-0.421494	-7.641575	-0.631143
S	0.911611	-7.638634	1.628795
C	-0.233291	-6.264785	-0.305097
H	-0.950737	-7.966081	-1.535988
C	0.478557	-6.072714	0.931114
C	0.781346	-4.787049	1.405737
C	-0.664542	-5.162801	-1.097747
C	-0.357854	-3.874817	-0.624993
C	0.352278	-3.683952	0.613970
O	-1.348709	-5.499772	-2.226300
O	1.469658	-4.459055	2.538827
C	1.419319	-5.329063	3.663102
H	1.828237	-4.755694	4.516756
H	2.043793	-6.238095	3.520769
H	0.377021	-5.637262	3.895546
C	-1.463351	-4.572261	-3.298492
H	-1.878237	-5.139743	-4.152945
H	-0.475176	-4.153131	-3.585804
H	-2.159469	-3.739531	-3.058230
C	0.540664	-2.306654	0.935761
S	-0.780808	-2.306501	-1.330550
C	-0.000000	-1.435185	-0.000000
H	1.066946	-1.978138	1.840780
H	0.127575	-9.614033	0.296494
C	0.000000	0.000000	0.000000
S	0.309893	0.850039	1.507541
C	0.847011	2.328006	0.718873
C	0.310046	0.849645	-1.067872
C	0.783331	2.156746	-0.686410
S	0.229416	0.619785	-2.805516
C	0.823328	2.267711	-3.054530
C	1.063278	2.934142	-1.862551
F	1.515925	4.191824	-1.819088
C	0.978337	2.688069	-4.456084
O	0.722535	1.961921	-5.406510
O	1.433229	3.959697	-4.569225
C	1.607467	4.423139	-5.916207
H	1.977475	5.460158	-5.833064
H	0.647388	4.396602	-6.470168
H	2.339490	3.791823	-6.459293
H	1.161798	3.197007	1.306486
$end

$rem
JOBTYPE		SP
EXCHANGE	HF
CORRELATION	pRIMP2
BASIS		cc-pvtz
METHOD		rimp2
AUX_BASIS	rimp2-cc-pvtz
SOLVENT_METHOD	PCM
PURECART	11111
SYMMETRY	false
MEM_TOTAL	110000
SCF_CONVERGENCE = 6
THRESH=10
GUI = 2
$end



$solvent
dielectric 4.90
$end
--------------------------------------------------------------
 ----------------------------------------------------------------
             Standard Nuclear Orientation (Angstroms)
    I     Atom           X                Y                Z
 ----------------------------------------------------------------
    1      C       0.1233300000    -8.5177020000     0.2962760000
    2      C      -0.4214940000    -7.6415750000    -0.6311430000
    3      S       0.9116110000    -7.6386340000     1.6287950000
    4      C      -0.2332910000    -6.2647850000    -0.3050970000
    5      H      -0.9507370000    -7.9660810000    -1.5359880000
    6      C       0.4785570000    -6.0727140000     0.9311140000
    7      C       0.7813460000    -4.7870490000     1.4057370000
    8      C      -0.6645420000    -5.1628010000    -1.0977470000
    9      C      -0.3578540000    -3.8748170000    -0.6249930000
   10      C       0.3522780000    -3.6839520000     0.6139700000
   11      O      -1.3487090000    -5.4997720000    -2.2263000000
   12      O       1.4696580000    -4.4590550000     2.5388270000
   13      C       1.4193190000    -5.3290630000     3.6631020000
   14      H       1.8282370000    -4.7556940000     4.5167560000
   15      H       2.0437930000    -6.2380950000     3.5207690000
   16      H       0.3770210000    -5.6372620000     3.8955460000
   17      C      -1.4633510000    -4.5722610000    -3.2984920000
   18      H      -1.8782370000    -5.1397430000    -4.1529450000
   19      H      -0.4751760000    -4.1531310000    -3.5858040000
   20      H      -2.1594690000    -3.7395310000    -3.0582300000
   21      C       0.5406640000    -2.3066540000     0.9357610000
   22      S      -0.7808080000    -2.3065010000    -1.3305500000
   23      C       0.0000000000    -1.4351850000     0.0000000000
   24      H       1.0669460000    -1.9781380000     1.8407800000
   25      H       0.1275750000    -9.6140330000     0.2964940000
   26      C       0.0000000000     0.0000000000     0.0000000000
   27      S       0.3098930000     0.8500390000     1.5075410000
   28      C       0.8470110000     2.3280060000     0.7188730000
   29      C       0.3100460000     0.8496450000    -1.0678720000
   30      C       0.7833310000     2.1567460000    -0.6864100000
   31      S       0.2294160000     0.6197850000    -2.8055160000
   32      C       0.8233280000     2.2677110000    -3.0545300000
   33      C       1.0632780000     2.9341420000    -1.8625510000
   34      F       1.5159250000     4.1918240000    -1.8190880000
   35      C       0.9783370000     2.6880690000    -4.4560840000
   36      O       0.7225350000     1.9619210000    -5.4065100000
   37      O       1.4332290000     3.9596970000    -4.5692250000
   38      C       1.6074670000     4.4231390000    -5.9162070000
   39      H       1.9774750000     5.4601580000    -5.8330640000
   40      H       0.6473880000     4.3966020000    -6.4701680000
   41      H       2.3394900000     3.7918230000    -6.4592930000
   42      H       1.1617980000     3.1970070000     1.3064860000
 ----------------------------------------------------------------
 Nuclear Repulsion Energy =        3289.83563180 hartrees
 There are      119 alpha and      119 beta electrons
 Requested basis set is cc-pVTZ
 There are 376 shells and 1068 basis functions

 Total QAlloc Memory Limit 110000 MB
 Mega-Array Size       188 MB
 MEM_STATIC part       192 MB
 Discretize the solute cavity surface with Lebedev spheres
	Using 110 Lebedev grid points for each H atom
	Using 194 Lebedev grid points for other atoms
	Atomic van der Waals radii will be scaled by 1.20
 Remove points where switching function is < 1.0e-08
 Keep 2886 surface tesserae and discard 4170 interior tesserae
 Molecular Surface Area = 437.606 Angst**2
 Requested basis set is rimp2-cc-pVTZ
 There are 833 shells and 2903 basis functions
 A cutoff of  1.0D-10 yielded  30937 shell pairs
 There are    237753 function pairs (    308759 Cartesian)
 Smallest overlap matrix eigenvalue = 2.18E-05

 Scale SEOQF with 1.000000e-01/1.000000e-02/1.000000e-02

 Standard Electronic Orientation quadrupole field applied
 Nucleus-field energy     =     0.0000000226 hartrees
 Guess from superposition of atomic densities
 Warning:  Energy on first SCF cycle will be non-variational
 SAD guess density has 238.000000 electrons

 -----------------------------------------------------------------------
  General SCF calculation program by
  Eric Jon Sundstrom, Paul Horn, Yuezhi Mao, Dmitri Zuev, Alec White,
  David Stuck, Shaama M.S., Shane Yost, Joonho Lee, David Small,
  Daniel Levine, Susi Lehtola, Hugh Burton, Evgeny Epifanovsky,
  Bang C. Huynh
 -----------------------------------------------------------------------
 Hartree-Fock
 using 64 threads for integral computing
 -------------------------------------------------------
 OpenMP Integral computing Module                
 Release: version 1.0, May 2013, Q-Chem Inc. Pittsburgh 
 -------------------------------------------------------
 A restricted SCF calculation will be
 performed using DIIS
 SCF converges when DIIS error is below 1.0e-06
 ---------------------------------------
  Cycle       Energy         DIIS error
 ---------------------------------------
    1   -2765.2327186290      1.75e-02  
    2   -2753.8760246905      1.56e-03  
    3   -2754.2151588392      8.62e-04  
    4   -2754.2968743729      2.56e-04  
    5   -2754.3085634050      6.94e-05  
    6   -2754.3096567298      2.38e-05  
    7   -2754.3098969808      1.15e-05  
    8   -2754.3099763098      4.28e-06  
    9   -2754.3099912605      1.68e-06  
   10   -2754.3099930676      7.05e-07  Convergence criterion met
 ---------------------------------------
 SCF time:   CPU 6125.57s  wall 241.00s 

************** Final PCM Free Energy Summary **************
 G_electrostatic  =      -0.01864308 hartree =     -11.69870639 kcal/mol
 G_cavitation     =       0.00000000 hartree =       0.00000000 kcal/mol
 G_dispersion     =       0.00000000 hartree =       0.00000000 kcal/mol
 G_repulsion      =       0.00000000 hartree =       0.00000000 kcal/mol
 --------------------------------------------------
 Non-electrostatic Free Energy =       0.00000000 hartree =       0.00000000 kcal/mol
 Total                         =      -0.01864308 hartree =     -11.69870639 kcal/mol
 --------------------------------------------------
 SCF Energy (H0 + V/2)                       =   -2754.30999307 
 Solute Internal Energy (H0)                 =   -2754.29134999 
 Total Free Energy (H0 + V/2 + non-elec)     =   -2754.30999307 hartree
                                             = -1728355.60671989 kcal/mol
***********************************************************

 SCF   energy in the final basis set =    -2754.3099930676
 Total energy in the final basis set =    -2754.3099930676


 --------------------------------------------------------------
  Generalized many-body perturbation theory program
  by Joonho Lee, Fazle Rob, Xintian Feng, Evgeny Epifanovsky

 No regularization used 
 (reg. param. = 0.0000e+00)
  (P|Q)^-1/2 Time:  CPU 180.87 s  wall 3.17 s

 In RI-MP2 calculation: 
 # of frozen core orbitals: 45

 Components of the RIMP2 correlation energy:
        aaaa    correlation energy =        -0.6701849753 a.u.
        abab    correlation energy =        -3.7133812376 a.u.
        bbbb    correlation energy =        -0.6701849753 a.u.
        non-Brillouin singles      =        -0.0000000000 a.u.
        total same-spin energy     =        -1.3403699506 a.u.
        total opposite-spin energy =        -3.7133812376 a.u.

 Total  RIMP2   correlation energy =        -5.0537511882 a.u.
        RIMP2         total energy =     -2759.3637442558 a.u.

 RI-MP2 Energy Time:  CPU 2625.49 s  wall 44.91 s
 
 --------------------------------------------------------------
 
                    Orbital Energies (a.u.)
 --------------------------------------------------------------
 
 Alpha MOs
 -- Occupied --
-92.0153 -91.9994 -91.9902 -91.9859 -26.3436 -20.6148 -20.5922 -20.5909
-20.5612 -11.4094 -11.3828 -11.3196 -11.3163 -11.3127 -11.3034 -11.2985
-11.2975 -11.2972 -11.2888 -11.2865 -11.2860 -11.2858 -11.2856 -11.2839
-11.2787 -11.2614 -11.2576 -11.2533 -11.2496  -9.0139  -8.9994  -8.9908
 -8.9858  -6.6947  -6.6941  -6.6935  -6.6804  -6.6797  -6.6785  -6.6718
 -6.6711  -6.6701  -6.6668  -6.6662  -6.6653  -1.6606  -1.4672  -1.4163
 -1.4137  -1.3699  -1.2231  -1.1943  -1.1657  -1.1367  -1.0856  -1.0516
 -1.0420  -1.0241  -1.0015  -0.9880  -0.9642  -0.9585  -0.9497  -0.9407
 -0.8954  -0.8682  -0.8509  -0.8148  -0.7921  -0.7873  -0.7863  -0.7648
 -0.7554  -0.7335  -0.7254  -0.7104  -0.6990  -0.6856  -0.6832  -0.6816
 -0.6738  -0.6591  -0.6581  -0.6523  -0.6304  -0.6196  -0.6164  -0.6034
 -0.5985  -0.5873  -0.5771  -0.5687  -0.5677  -0.5630  -0.5551  -0.5530
 -0.5317  -0.5287  -0.5223  -0.5181  -0.5171  -0.5108  -0.5059  -0.4944
 -0.4880  -0.4791  -0.4768  -0.4739  -0.4699  -0.4651  -0.4598  -0.4230
 -0.3936  -0.3859  -0.3605  -0.3504  -0.3236  -0.2919  -0.2507
 -- Virtual --
  0.0261   0.0620   0.1090   0.1247   0.1364   0.1445   0.1517   0.1553
  0.1571   0.1597   0.1651   0.1785   0.1824   0.1847   0.1910   0.1947
  0.2020   0.2050   0.2110   0.2150   0.2194   0.2224   0.2244   0.2281
  0.2351   0.2396   0.2475   0.2497   0.2584   0.2636   0.2730   0.2831
  0.2934   0.3120   0.3258   0.3305   0.3396   0.3427   0.3476   0.3528
  0.3541   0.3575   0.3731   0.3807   0.3827   0.3847   0.3876   0.3881
  0.3894   0.3978   0.4026   0.4066   0.4126   0.4142   0.4204   0.4215
  0.4270   0.4332   0.4405   0.4425   0.4499   0.4526   0.4542   0.4591
  0.4619   0.4673   0.4702   0.4761   0.4778   0.4835   0.4893   0.4909
  0.4953   0.4991   0.5040   0.5047   0.5088   0.5154   0.5235   0.5244
  0.5270   0.5297   0.5337   0.5368   0.5398   0.5415   0.5446   0.5468
  0.5499   0.5583   0.5603   0.5626   0.5647   0.5692   0.5802   0.5852
  0.5859   0.5907   0.5957   0.5973   0.6022   0.6056   0.6094   0.6138
  0.6162   0.6173   0.6203   0.6237   0.6251   0.6261   0.6309   0.6360
  0.6395   0.6434   0.6486   0.6511   0.6531   0.6608   0.6654   0.6690
  0.6710   0.6772   0.6847   0.6884   0.6913   0.6962   0.7001   0.7083
  0.7122   0.7129   0.7229   0.7259   0.7302   0.7339   0.7444   0.7522
  0.7546   0.7607   0.7686   0.7690   0.7711   0.7819   0.7971   0.8038
  0.8089   0.8147   0.8159   0.8208   0.8263   0.8338   0.8355   0.8461
  0.8509   0.8570   0.8664   0.8690   0.8727   0.8740   0.8805   0.8876
  0.8892   0.8952   0.9017   0.9028   0.9067   0.9109   0.9183   0.9225
  0.9338   0.9366   0.9415   0.9425   0.9500   0.9515   0.9600   0.9689
  0.9743   0.9770   0.9785   0.9826   0.9930   0.9961   0.9991   1.0006
  1.0076   1.0112   1.0183   1.0212   1.0275   1.0284   1.0381   1.0422
  1.0455   1.0549   1.0574   1.0644   1.0678   1.0735   1.0785   1.0812
  1.0838   1.0891   1.0937   1.0957   1.0992   1.1064   1.1080   1.1109
  1.1146   1.1157   1.1235   1.1290   1.1395   1.1406   1.1530   1.1593
  1.1652   1.1716   1.1739   1.1783   1.1817   1.1845   1.1917   1.1973
  1.2006   1.2061   1.2140   1.2180   1.2200   1.2257   1.2269   1.2317
  1.2377   1.2405   1.2442   1.2496   1.2513   1.2613   1.2656   1.2730
  1.2761   1.2823   1.2849   1.2858   1.3004   1.3109   1.3143   1.3204
  1.3218   1.3247   1.3352   1.3419   1.3472   1.3480   1.3578   1.3640
  1.3756   1.3835   1.3906   1.4006   1.4066   1.4081   1.4177   1.4215
  1.4270   1.4367   1.4418   1.4533   1.4661   1.4743   1.4839   1.4858
  1.4918   1.4984   1.5028   1.5087   1.5107   1.5146   1.5269   1.5305
  1.5330   1.5395   1.5407   1.5445   1.5512   1.5549   1.5608   1.5639
  1.5710   1.5761   1.5864   1.5980   1.6018   1.6082   1.6229   1.6325
  1.6382   1.6397   1.6426   1.6556   1.6634   1.6699   1.6789   1.6831
  1.6857   1.6938   1.6988   1.7107   1.7114   1.7259   1.7309   1.7541
  1.7619   1.7722   1.7787   1.7821   1.7882   1.8046   1.8138   1.8156
  1.8225   1.8243   1.8305   1.8476   1.8532   1.8660   1.8711   1.8765
  1.8848   1.8923   1.9026   1.9097   1.9124   1.9180   1.9198   1.9263
  1.9379   1.9445   1.9530   1.9597   1.9715   1.9743   1.9838   1.9864
  1.9980   2.0000   2.0088   2.0150   2.0157   2.0355   2.0470   2.0517
  2.0632   2.0753   2.0924   2.0989   2.1089   2.1165   2.1307   2.1472
  2.1537   2.1615   2.1644   2.1733   2.1773   2.1838   2.1883   2.1935
  2.1998   2.2056   2.2063   2.2223   2.2257   2.2282   2.2392   2.2441
  2.2461   2.2507   2.2598   2.2635   2.2714   2.2779   2.2808   2.2938
  2.3056   2.3147   2.3160   2.3267   2.3275   2.3343   2.3446   2.3529
  2.3678   2.3705   2.3771   2.3855   2.3954   2.4018   2.4191   2.4241
  2.4268   2.4338   2.4415   2.4517   2.4550   2.4682   2.4761   2.4903
  2.4943   2.5020   2.5069   2.5246   2.5340   2.5436   2.5486   2.5537
  2.5589   2.5774   2.5848   2.5978   2.6055   2.6121   2.6169   2.6203
  2.6273   2.6307   2.6316   2.6393   2.6427   2.6508   2.6624   2.6639
  2.6776   2.6807   2.6855   2.6911   2.7005   2.7037   2.7073   2.7135
  2.7199   2.7297   2.7321   2.7348   2.7440   2.7552   2.7597   2.7689
  2.7802   2.7856   2.7886   2.7941   2.7974   2.8053   2.8150   2.8187
  2.8310   2.8364   2.8451   2.8510   2.8519   2.8609   2.8653   2.8726
  2.8769   2.8801   2.8869   2.8904   2.9038   2.9142   2.9235   2.9380
  2.9435   2.9464   2.9547   2.9576   2.9637   2.9750   2.9820   2.9858
  2.9946   3.0074   3.0148   3.0198   3.0234   3.0305   3.0335   3.0388
  3.0444   3.0511   3.0578   3.0618   3.0843   3.0883   3.0926   3.0988
  3.1007   3.1085   3.1110   3.1161   3.1199   3.1248   3.1391   3.1399
  3.1489   3.1528   3.1565   3.1617   3.1637   3.1666   3.1743   3.1815
  3.1893   3.1973   3.1994   3.2110   3.2125   3.2171   3.2223   3.2280
  3.2334   3.2398   3.2424   3.2498   3.2546   3.2628   3.2670   3.2710
  3.2733   3.2774   3.2788   3.2892   3.2916   3.2976   3.2984   3.3092
  3.3177   3.3187   3.3252   3.3282   3.3372   3.3386   3.3462   3.3499
  3.3516   3.3578   3.3592   3.3635   3.3668   3.3728   3.3761   3.3846
  3.3863   3.3900   3.3916   3.3988   3.4008   3.4035   3.4102   3.4118
  3.4161   3.4297   3.4310   3.4354   3.4408   3.4453   3.4479   3.4539
  3.4579   3.4610   3.4640   3.4717   3.4731   3.4825   3.4829   3.4859
  3.4947   3.5017   3.5120   3.5197   3.5224   3.5246   3.5286   3.5310
  3.5351   3.5460   3.5515   3.5592   3.5596   3.5657   3.5731   3.5757
  3.5815   3.5845   3.5890   3.5949   3.5983   3.6037   3.6065   3.6146
  3.6167   3.6246   3.6328   3.6331   3.6397   3.6414   3.6502   3.6603
  3.6621   3.6733   3.6780   3.6805   3.6818   3.6881   3.6946   3.6974
  3.7012   3.7059   3.7109   3.7152   3.7207   3.7323   3.7366   3.7401
  3.7444   3.7524   3.7555   3.7603   3.7713   3.7730   3.7808   3.7853
  3.7936   3.7977   3.8033   3.8088   3.8097   3.8139   3.8186   3.8225
  3.8284   3.8294   3.8406   3.8455   3.8614   3.8655   3.8687   3.8693
  3.8761   3.8806   3.8899   3.8934   3.8941   3.9086   3.9128   3.9250
  3.9312   3.9373   3.9401   3.9472   3.9521   3.9640   3.9651   3.9734
  3.9833   3.9872   4.0056   4.0095   4.0184   4.0232   4.0274   4.0411
  4.0477   4.0577   4.0652   4.0689   4.0760   4.0775   4.0859   4.0891
  4.1042   4.1145   4.1178   4.1243   4.1286   4.1379   4.1487   4.1528
  4.1606   4.1640   4.1662   4.1692   4.1775   4.1887   4.1903   4.1960
  4.2043   4.2126   4.2206   4.2352   4.2413   4.2444   4.2564   4.2627
  4.2763   4.2806   4.2971   4.3067   4.3206   4.3264   4.3323   4.3415
  4.3423   4.3585   4.3653   4.3696   4.3782   4.3808   4.3881   4.3932
  4.4036   4.4085   4.4134   4.4245   4.4303   4.4321   4.4396   4.4496
  4.4536   4.4642   4.4840   4.4862   4.4905   4.5061   4.5108   4.5262
  4.5343   4.5387   4.5498   4.5576   4.5621   4.5645   4.5787   4.5828
  4.5900   4.6008   4.6105   4.6233   4.6285   4.6433   4.6484   4.6516
  4.6573   4.6716   4.6792   4.6822   4.6944   4.7176   4.7357   4.7369
  4.7408   4.7618   4.7684   4.7767   4.7813   4.7879   4.8157   4.8226
  4.8309   4.8414   4.8468   4.8548   4.8594   4.8787   4.9057   4.9127
  4.9213   4.9468   4.9506   4.9542   4.9600   4.9698   4.9833   4.9991
  5.0065   5.0089   5.0128   5.0227   5.0348   5.0409   5.0683   5.0819
  5.0861   5.0994   5.1176   5.1330   5.1619   5.1646   5.1777   5.1965
  5.2030   5.2193   5.2478   5.2495   5.2510   5.2577   5.2613   5.2778
  5.2954   5.3068   5.3133   5.3283   5.3397   5.3506   5.3528   5.3620
  5.3819   5.3965   5.3993   5.4048   5.4262   5.4293   5.4491   5.4641
  5.4763   5.4850   5.5016   5.5079   5.5159   5.5257   5.5430   5.5556
  5.5738   5.5817   5.5854   5.6060   5.6157   5.6217   5.6420   5.6649
  5.7192   5.7311   5.7587   5.7803   5.8076   5.8162   5.8381   5.8548
  5.8734   5.8813   5.9099   5.9292   5.9396   5.9815   5.9884   6.0418
  6.0561   6.0710   6.0967   6.1505   6.1714   6.1717   6.1771   6.1928
  6.2354   6.2506   6.2615   6.2703   6.2764   6.2787   6.3155   6.3338
  6.4199   6.4471   6.4502   6.4755   6.5382   6.5489   6.5568   6.6022
  6.6534   6.6614   6.6712   6.6964   6.7459   6.8004   6.8301   6.8386
  6.8595   6.8929   6.9779   7.1197   7.1368   7.2040   7.2063   7.2160
  7.2341   7.3099   7.3203   7.3315   7.3630   7.3638   7.4057   7.4133
  7.4801   7.4854   7.4893   7.5228   7.5509   7.6176   7.7115   7.7728
  7.7882   7.7966   7.8924   7.9176   7.9427   7.9643   8.0887   8.1356
  8.4184   8.9217   9.0150   9.3628   9.4721   9.6495  10.0722  10.5981
 11.1554  11.4643  11.7793  11.9200  12.1275  12.1994  12.4187  12.5897
 12.7271  12.9357  13.0390  13.2430  13.2856  13.3872  13.7780  13.8475
 13.9048  14.0235  14.0322  14.5058  15.2023
 --------------------------------------------------------------
 
          Ground-State Mulliken Net Atomic Charges

     Atom                 Charge (a.u.)
  ----------------------------------------
      1 C                    -0.191228
      2 C                    -0.253015
      3 S                    -0.023394
      4 C                    -0.017406
      5 H                     0.196264
      6 C                    -0.027121
      7 C                     0.236970
      8 C                     0.244493
      9 C                    -0.041813
     10 C                    -0.020952
     11 O                    -0.333147
     12 O                    -0.340900
     13 C                    -0.085540
     14 H                     0.122124
     15 H                     0.091004
     16 H                     0.093708
     17 C                    -0.088278
     18 H                     0.125300
     19 H                     0.095855
     20 H                     0.089957
     21 C                    -0.256945
     22 S                    -0.021373
     23 C                    -0.003664
     24 H                     0.193095
     25 H                     0.206044
     26 C                    -0.015522
     27 S                     0.087918
     28 C                    -0.171757
     29 C                     0.026249
     30 C                    -0.119144
     31 S                     0.012151
     32 C                    -0.159996
     33 C                     0.400259
     34 F                    -0.206225
     35 C                     0.445765
     36 O                    -0.460977
     37 O                    -0.300915
     38 C                    -0.058459
     39 H                     0.121351
     40 H                     0.095081
     41 H                     0.095116
     42 H                     0.219066
  ----------------------------------------
  Sum of atomic charges =     0.000000

 -----------------------------------------------------------------
                    Cartesian Multipole Moments
 -----------------------------------------------------------------
    Charge (ESU x 10^10)
                 0.0000
    Dipole Moment (Debye)
         X       0.6960      Y       1.3367      Z       2.8328
       Tot       3.2087
    Quadrupole Moments (Debye-Ang)
        XX    -198.2808     XY       6.6360     YY    -163.1342
        XZ       4.3875     YZ      -7.3146     ZZ    -183.0547
    Octopole Moments (Debye-Ang^2)
       XXX    -208.4791    XXY     389.9961    XYY     -53.9993
       YYY     887.4861    XXZ     146.8079    XYZ     -54.9166
       YYZ     109.9613    XZZ     -37.4495    YZZ     366.5693
       ZZZ     512.2575
    Hexadecapole Moments (Debye-Ang^3)
      XXXX   -1162.0097   XXXY    -323.8727   XXYY   -4016.4097
      XYYY    -270.3872   YYYY  -19025.8556   XXXZ      51.0766
      XXYZ     646.6661   XYYZ     110.3524   YYYZ    1659.5278
      XXZZ   -1292.5180   XYZZ      73.5450   YYZZ   -3973.4197
      XZZZ       7.8238   YZZZ    1453.9479   ZZZZ   -7087.3850
 -----------------------------------------------------------------
 Total job time:  291.78s(wall), 8927.00s(cpu) 
 Tue Jan  9 02:37:14 2024

        *************************************************************
        *                                                           *
        *  Thank you very much for using Q-Chem.  Have a nice day.  *
        *                                                           *
        *************************************************************


0 sent ACK to 0 
now end server 0 ... 
cleanup process ... done
remove work dirs ./qchem2305424.0 -- ./qchem2305424.0
rm -rf ./qchem2305424.0
rm -rf ./qchem2305424
