You are running Q-Chem version: 5.4.0

#
# job setting
#
local host:  exp-1-20
current dir: /home/rramji/project-csd799/aromodel/ptb7fout-qchem/rotation-run
input file:  Dimethoxy_Benzodithiophene_Phi_50_Theta_320_Methylcarbonyl_3_Fluoro_Thienothiophene.qcin
output file: 
nprocs     : 1
nthreads   : 64
#
# qchem installation setting
#
QC:          /cm/shared/apps/spack/cpu/opt/spack/linux-centos8-zen2/gcc-10.2.0/qchem-5.4-akfmr7b3t57bfs6qan3padb2wnb2i7cl
QCAUX:       /cm/shared/apps/spack/cpu/opt/spack/linux-centos8-zen2/gcc-10.2.0/qchem-5.4-akfmr7b3t57bfs6qan3padb2wnb2i7cl/qcaux
QCPROG:      /cm/shared/apps/spack/cpu/opt/spack/linux-centos8-zen2/gcc-10.2.0/qchem-5.4-akfmr7b3t57bfs6qan3padb2wnb2i7cl/exe/qcprog.exe
QCPROG_S:    /cm/shared/apps/spack/cpu/opt/spack/linux-centos8-zen2/gcc-10.2.0/qchem-5.4-akfmr7b3t57bfs6qan3padb2wnb2i7cl/exe/qcprog.exe_s
PARALLEL:    -DPARALLEL
QCMPI:       mpich
#
# qchem directory setting
#
qcrun:       qchem3369149
QCSCRATCH:   .
QCLOCALSCR:  
QCTMPDIR:    .
QCFILEPREF:  ./qchem3369149
QCSAVEDIR:   
workdirs:    ./qchem3369149
workdir0:    ./qchem3369149
partmpdirs =  
#
# parallel setting
#
QCRSH:           ssh
QCMPI:           mpich
QCMPIRUN:        /cm/shared/apps/spack/cpu/opt/spack/linux-centos8-zen2/gcc-10.2.0/qchem-5.4-akfmr7b3t57bfs6qan3padb2wnb2i7cl/bin/mpi/mpirun_qchem
QCMACHINEFILE:   ./qchem3369149/hostfile
exp-1-20

#
# env setting
#
exported envs:   QC QCAUX QCSCRATCH QCRUNNAME QCFILEPREF QCPROG QCPROG_S GUIFILE

Running Job 1 of 1 Dimethoxy_Benzodithiophene_Phi_50_Theta_320_Methylcarbonyl_3_Fluoro_Thienothiophene.qcin
qchem Dimethoxy_Benzodithiophene_Phi_50_Theta_320_Methylcarbonyl_3_Fluoro_Thienothiophene.qcin_3369149.0 ./qchem3369149/ 1
/cm/shared/apps/spack/cpu/opt/spack/linux-centos8-zen2/gcc-10.2.0/qchem-5.4-akfmr7b3t57bfs6qan3padb2wnb2i7cl/bin/mpi/mpirun_qchem -machinefile ./qchem3369149/hostfile -np 1 /cm/shared/apps/spack/cpu/opt/spack/linux-centos8-zen2/gcc-10.2.0/qchem-5.4-akfmr7b3t57bfs6qan3padb2wnb2i7cl/exe/qcprog.exe Dimethoxy_Benzodithiophene_Phi_50_Theta_320_Methylcarbonyl_3_Fluoro_Thienothiophene.qcin_3369149.0 ./qchem3369149/

Process 0 of 1 is on exp-1-20 - thread support 0
initial socket setup ...start
initial socket setup ...done 
now start server 0 ... 
                  Welcome to Q-Chem
     A Quantum Leap Into The Future Of Chemistry


 Q-Chem 5.4, Q-Chem, Inc., Pleasanton, CA (2021)

 License issued to: University of California, San Diego (site)

 E. Epifanovsky,  A. T. B. Gilbert,  Xintian Feng,  Joonho Lee,  Yuezhi Mao,  
 N. Mardirossian,  P. Pokhilko,  A. White,  M. Wormit,  M. P. Coons,  
 A. L. Dempwolff,  Zhengting Gan,  D. Hait,  P. R. Horn,  L. D. Jacobson,  
 I. Kaliman,  J. Kussmann,  A. W. Lange,  Ka Un Lao,  D. S. Levine,  Jie Liu,  
 S. C. McKenzie,  A. F. Morrison,  K. Nanda,  F. Plasser,  D. R. Rehn,  
 M. L. Vidal,  Zhi-Qiang You,  Ying Zhu,  B. Alam,  B. Albrecht,  
 A. Aldossary,  E. Alguire,  J. H. Andersen,  D. Barton,  K. Begam,  A. Behn,  
 Y. A. Bernard,  E. J. Berquist,  H. Burton,  A. Carreras,  K. Carter-Fenk,  
 R. Chakraborty,  A. D. Chien,  K. D. Closser,  V. Cofer-Shabica,  
 S. Dasgupta,  Jia Deng,  M. de Wergifosse,  M. Diedenhofen,  Hainam Do,  
 S. Ehlert,  Po-Tung Fang,  S. Fatehi,  Qingguo Feng,  J. Gayvert,  
 Qinghui Ge,  G. Gidofalvi,  M. Goldey,  J. Gomes,  C. Gonzalez-Espinoza,  
 S. Gulania,  A. Gunina,  M. W. D. Hanson-Heine,  P. H. P. Harbach,  
 A. W. Hauser,  M. F. Herbst,  M. Hernandez Vera,  M. Hodecker,  
 Z. C. Holden,  S. Houck,  Xunkun Huang,  Kerwin Hui,  B. C. Huynh,  
 M. Ivanov,  Hyunjun Ji,  Hanjie Jiang,  B. Kaduk,  S. Kaehler,  
 K. Khistyaev,  Jaehoon Kim,  P. Klunzinger,  Z. Koczor-Benda,  
 Joong Hoon Koh,  D. Kosenkov,  L. Koulias,  T. Kowalczyk,  C. M. Krauter,  
 K. Kue,  A. Kunitsa,  T. Kus,  A. Landau,  K. V. Lawler,  D. Lefrancois,  
 S. Lehtola,  Rain Li,  Yi-Pei Li,  Jiashu Liang,  M. Liebenthal,  
 Hung-Hsuan Lin,  You-Sheng Lin,  Fenglai Liu,  Kuan-Yu Liu,  
 M. Loipersberger,  A. Luenser,  A. Manjanath,  P. Manohar,  E. Mansoor,  
 S. F. Manzer,  Shan-Ping Mao,  A. V. Marenich,  T. Markovich,  S. Mason,  
 S. A. Maurer,  P. F. McLaughlin,  M. F. S. J. Menger,  J.-M. Mewes,  
 S. A. Mewes,  P. Morgante,  J. W. Mullinax,  T. S. Nguyen-Beck,  
 K. J. Oosterbaan,  G. Paran,  Alexander C. Paul,  Suranjan K. Paul,  
 F. Pavosevic,  Zheng Pei,  S. Prager,  E. I. Proynov,  E. Ramos,  B. Rana,  
 A. E. Rask,  A. Rettig,  R. M. Richard,  F. Rob,  E. Rossomme,  T. Scheele,  
 M. Scheurer,  M. Schneider,  N. Sergueev,  S. M. Sharada,  W. Skomorowski,  
 D. W. Small,  C. J. Stein,  Yu-Chuan Su,  E. J. Sundstrom,  Zhen Tao,  
 J. Thirman,  T. Tsuchimochi,  N. M. Tubman,  S. P. Veccham,  O. Vydrov,  
 J. Wenzel,  J. Witte,  A. Yamada,  Kun Yao,  S. Yeganeh,  S. R. Yost,  
 A. Zech,  Igor Ying Zhang,  Xing Zhang,  Yu Zhang,  D. Zuev,  
 A. Aspuru-Guzik,  A. T. Bell,  N. A. Besley,  K. B. Bravaya,  B. R. Brooks,  
 D. Casanova,  Jeng-Da Chai,  S. Coriani,  C. J. Cramer,  
 A. E. DePrince, III,  R. A. DiStasio Jr.,  A. Dreuw,  B. D. Dunietz,  
 T. R. Furlani,  W. A. Goddard III,  S. Grimme,  S. Hammes-Schiffer,  
 T. Head-Gordon,  W. J. Hehre,  Chao-Ping Hsu,  T.-C. Jagau,  Yousung Jung,  
 A. Klamt,  Jing Kong,  D. S. Lambrecht,  WanZhen Liang,  N. J. Mayhall,  
 C. W. McCurdy,  J. B. Neaton,  C. Ochsenfeld,  J. A. Parkhill,  R. Peverati,  
 V. A. Rassolov,  Yihan Shao,  L. V. Slipchenko,  T. Stauch,  R. P. Steele,  
 J. E. Subotnik,  A. J. W. Thom,  A. Tkatchenko,  D. G. Truhlar,  
 T. Van Voorhis,  T. A. Wesolowski,  K. B. Whaley,  H. L. Woodcock III,  
 P. M. Zimmerman,  S. Faraji,  P. M. W. Gill,  M. Head-Gordon,  
 J. M. Herbert,  A. I. Krylov

 Contributors to earlier versions of Q-Chem not listed above: 
 R. D. Adamson,  B. Austin,  R. Baer,  J. Baker,  G. J. O. Beran,  
 K. Brandhorst,  S. T. Brown,  E. F. C. Byrd,  A. K. Chakraborty,  
 G. K. L. Chan,  Chun-Min Chang,  Yunqing Chen,  C.-L. Cheng,  
 Siu Hung Chien,  D. M. Chipman,  D. L. Crittenden,  H. Dachsel,  
 R. J. Doerksen,  A. D. Dutoi,  R. G. Edgar,  J. Fosso-Tande,  
 L. Fusti-Molnar,  D. Ghosh,  A. Ghysels,  A. Golubeva-Zadorozhnaya,  
 J. Gonthier,  M. S. Gordon,  S. R. Gwaltney,  G. Hawkins,  J. E. Herr,  
 A. Heyden,  S. Hirata,  E. G. Hohenstein,  G. Kedziora,  F. J. Keil,  
 C. Kelley,  Jihan Kim,  R. A. King,  R. Z. Khaliullin,  P. P. Korambath,  
 W. Kurlancheek,  A. Laurent,  A. M. Lee,  M. S. Lee,  S. V. Levchenko,  
 Ching Yeh Lin,  D. Liotard,  E. Livshits,  R. C. Lochan,  I. Lotan,  
 L. A. Martinez-Martinez,  P. E. Maslen,  N. Nair,  D. P. O'Neill,  
 D. Neuhauser,  E. Neuscamman,  C. M. Oana,  R. Olivares-Amaya,  R. Olson,  
 T. M. Perrine,  B. Peters,  P. A. Pieniazek,  A. Prociuk,  Y. M. Rhee,  
 J. Ritchie,  M. A. Rohrdanz,  E. Rosta,  N. J. Russ,  H. F. Schaefer III,  
 M. W. Schmidt,  N. E. Schultz,  S. Sharma,  N. Shenvi,  C. D. Sherrill,  
 A. C. Simmonett,  A. Sodt,  T. Stein,  D. Stuck,  K. S. Thanthiriwatte,  
 V. Vanovschi,  L. Vogt,  Tao Wang,  A. Warshel,  M. A. Watson,  
 C. F. Williams,  Q. Wu,  X. Xu,  Jun Yang,  W. Zhang,  Yan Zhao

 Please cite Q-Chem as follows:
 Y. Shao et al., Mol. Phys. 113, 184-215 (2015)
 DOI: 10.1080/00268976.2014.952696

 Q-Chem 5.4.0 for Intel X86 EM64T Linux

 Parts of Q-Chem use Armadillo 9.800.1 (Horizon Scraper).
 http://arma.sourceforge.net/

 Q-Chem begins on Tue Jan  9 02:34:16 2024  

 Host: 
0

     Scratch files written to ./qchem3369149//
 May1621 |scratch|qcdevops|jenkins|workspace|build_RNUM    
 Parallel job on  1  processors
 Processing $rem in /cm/shared/apps/spack/cpu/opt/spack/linux-centos8-zen2/gcc-10.2.0/qchem-5.4-akfmr7b3t57bfs6qan3padb2wnb2i7cl/config/preferences:
 Processing $rem in /home/rramji/.qchemrc:
 Symmetry turned off for PCM/SM12/SMD calculation
 Core orbitals will be frozen

 Checking the input file for inconsistencies... 	...done.

 Q-Chem warning in module forms1/BasisType.C, line 2236:

 You are not using the predefined 5D/6D in this basis set.


--------------------------------------------------------------
User input:
--------------------------------------------------------------
$molecule
0 1
C	0.172904	-8.517702	0.270358
C	-0.524688	-7.641575	-0.548363
S	1.180599	-7.638634	1.445750
C	-0.282727	-6.264785	-0.259951
H	-1.203014	-7.966081	-1.347559
C	0.632972	-6.072714	0.833868
C	1.013580	-4.787049	1.248701
C	-0.845068	-5.162801	-0.965673
C	-0.460946	-3.874817	-0.553357
C	0.453541	-3.683952	0.543470
O	-1.714812	-5.499772	-1.958276
O	1.888193	-4.459055	2.245053
C	2.033848	-5.329063	3.360989
H	2.584788	-4.755694	4.130667
H	2.624118	-6.238095	3.112380
H	1.047748	-5.637262	3.770895
C	-2.013896	-4.572261	-2.994272
H	-2.570853	-5.139743	-3.763700
H	-1.090625	-4.153131	-3.448815
H	-2.657717	-3.739531	-2.636780
C	0.694943	-2.306654	0.827659
S	-0.999993	-2.306501	-1.174750
C	0.000000	-1.435185	0.000000
H	1.370385	-1.978138	1.627541
H	0.177122	-9.614033	0.269836
C	0.000000	0.000000	0.000000
S	0.693394	0.581209	1.507541
C	1.897536	1.592607	0.718873
C	0.693330	0.580791	-1.067872
C	1.756758	1.476132	-0.686410
S	0.508573	0.422041	-2.805516
C	1.846879	1.552232	-3.054530
C	2.387897	2.009402	-1.862551
F	3.408741	2.872264	-1.819088
C	2.191300	1.838768	-4.456084
O	1.606694	1.337806	-5.406510
O	3.221062	2.712584	-4.569225
C	3.603677	3.026817	-5.916207
H	4.442623	3.739898	-5.833064
H	2.758956	3.483875	-6.470168
H	3.921969	2.114070	-6.459293
H	2.604650	2.187790	1.306486
$end

$rem
JOBTYPE		SP
EXCHANGE	HF
CORRELATION	pRIMP2
BASIS		cc-pvtz
METHOD		rimp2
AUX_BASIS	rimp2-cc-pvtz
SOLVENT_METHOD	PCM
PURECART	11111
SYMMETRY	false
MEM_TOTAL	110000
SCF_CONVERGENCE = 6
THRESH=10
GUI = 2
$end



$solvent
dielectric 4.90
$end
--------------------------------------------------------------
 ----------------------------------------------------------------
             Standard Nuclear Orientation (Angstroms)
    I     Atom           X                Y                Z
 ----------------------------------------------------------------
    1      C       0.1729040000    -8.5177020000     0.2703580000
    2      C      -0.5246880000    -7.6415750000    -0.5483630000
    3      S       1.1805990000    -7.6386340000     1.4457500000
    4      C      -0.2827270000    -6.2647850000    -0.2599510000
    5      H      -1.2030140000    -7.9660810000    -1.3475590000
    6      C       0.6329720000    -6.0727140000     0.8338680000
    7      C       1.0135800000    -4.7870490000     1.2487010000
    8      C      -0.8450680000    -5.1628010000    -0.9656730000
    9      C      -0.4609460000    -3.8748170000    -0.5533570000
   10      C       0.4535410000    -3.6839520000     0.5434700000
   11      O      -1.7148120000    -5.4997720000    -1.9582760000
   12      O       1.8881930000    -4.4590550000     2.2450530000
   13      C       2.0338480000    -5.3290630000     3.3609890000
   14      H       2.5847880000    -4.7556940000     4.1306670000
   15      H       2.6241180000    -6.2380950000     3.1123800000
   16      H       1.0477480000    -5.6372620000     3.7708950000
   17      C      -2.0138960000    -4.5722610000    -2.9942720000
   18      H      -2.5708530000    -5.1397430000    -3.7637000000
   19      H      -1.0906250000    -4.1531310000    -3.4488150000
   20      H      -2.6577170000    -3.7395310000    -2.6367800000
   21      C       0.6949430000    -2.3066540000     0.8276590000
   22      S      -0.9999930000    -2.3065010000    -1.1747500000
   23      C       0.0000000000    -1.4351850000     0.0000000000
   24      H       1.3703850000    -1.9781380000     1.6275410000
   25      H       0.1771220000    -9.6140330000     0.2698360000
   26      C       0.0000000000     0.0000000000     0.0000000000
   27      S       0.6933940000     0.5812090000     1.5075410000
   28      C       1.8975360000     1.5926070000     0.7188730000
   29      C       0.6933300000     0.5807910000    -1.0678720000
   30      C       1.7567580000     1.4761320000    -0.6864100000
   31      S       0.5085730000     0.4220410000    -2.8055160000
   32      C       1.8468790000     1.5522320000    -3.0545300000
   33      C       2.3878970000     2.0094020000    -1.8625510000
   34      F       3.4087410000     2.8722640000    -1.8190880000
   35      C       2.1913000000     1.8387680000    -4.4560840000
   36      O       1.6066940000     1.3378060000    -5.4065100000
   37      O       3.2210620000     2.7125840000    -4.5692250000
   38      C       3.6036770000     3.0268170000    -5.9162070000
   39      H       4.4426230000     3.7398980000    -5.8330640000
   40      H       2.7589560000     3.4838750000    -6.4701680000
   41      H       3.9219690000     2.1140700000    -6.4592930000
   42      H       2.6046500000     2.1877900000     1.3064860000
 ----------------------------------------------------------------
 Nuclear Repulsion Energy =        3329.90869745 hartrees
 There are      119 alpha and      119 beta electrons
 Requested basis set is cc-pVTZ
 There are 376 shells and 1068 basis functions

 Total QAlloc Memory Limit 110000 MB
 Mega-Array Size       188 MB
 MEM_STATIC part       192 MB
 Discretize the solute cavity surface with Lebedev spheres
	Using 110 Lebedev grid points for each H atom
	Using 194 Lebedev grid points for other atoms
	Atomic van der Waals radii will be scaled by 1.20
 Remove points where switching function is < 1.0e-08
 Keep 2860 surface tesserae and discard 4196 interior tesserae
 Molecular Surface Area = 435.879 Angst**2
 Requested basis set is rimp2-cc-pVTZ
 There are 833 shells and 2903 basis functions
 A cutoff of  1.0D-10 yielded  31572 shell pairs
 There are    241732 function pairs (    313599 Cartesian)
 Smallest overlap matrix eigenvalue = 2.20E-05

 Scale SEOQF with 1.000000e-01/1.000000e-02/1.000000e-02

 Standard Electronic Orientation quadrupole field applied
 Nucleus-field energy     =     0.0000000373 hartrees
 Guess from superposition of atomic densities
 Warning:  Energy on first SCF cycle will be non-variational
 SAD guess density has 238.000000 electrons

 -----------------------------------------------------------------------
  General SCF calculation program by
  Eric Jon Sundstrom, Paul Horn, Yuezhi Mao, Dmitri Zuev, Alec White,
  David Stuck, Shaama M.S., Shane Yost, Joonho Lee, David Small,
  Daniel Levine, Susi Lehtola, Hugh Burton, Evgeny Epifanovsky,
  Bang C. Huynh
 -----------------------------------------------------------------------
 Hartree-Fock
 using 64 threads for integral computing
 -------------------------------------------------------
 OpenMP Integral computing Module                
 Release: version 1.0, May 2013, Q-Chem Inc. Pittsburgh 
 -------------------------------------------------------
 A restricted SCF calculation will be
 performed using DIIS
 SCF converges when DIIS error is below 1.0e-06
 ---------------------------------------
  Cycle       Energy         DIIS error
 ---------------------------------------
    1   -2765.2999059397      1.75e-02  
    2   -2753.8350294170      1.57e-03  
    3   -2754.1753333461      8.69e-04  
    4   -2754.2587988081      2.56e-04  
    5   -2754.2706322670      6.94e-05  
    6   -2754.2717309365      2.39e-05  
    7   -2754.2719731765      1.15e-05  
    8   -2754.2720534999      4.39e-06  
    9   -2754.2720693992      1.76e-06  
   10   -2754.2720715817      8.19e-07  Convergence criterion met
 ---------------------------------------
 SCF time:   CPU 5897.12s  wall 239.00s 

************** Final PCM Free Energy Summary **************
 G_electrostatic  =      -0.01984870 hartree =     -12.45524705 kcal/mol
 G_cavitation     =       0.00000000 hartree =       0.00000000 kcal/mol
 G_dispersion     =       0.00000000 hartree =       0.00000000 kcal/mol
 G_repulsion      =       0.00000000 hartree =       0.00000000 kcal/mol
 --------------------------------------------------
 Non-electrostatic Free Energy =       0.00000000 hartree =       0.00000000 kcal/mol
 Total                         =      -0.01984870 hartree =     -12.45524705 kcal/mol
 --------------------------------------------------
 SCF Energy (H0 + V/2)                       =   -2754.27207158 
 Solute Internal Energy (H0)                 =   -2754.25222288 
 Total Free Energy (H0 + V/2 + non-elec)     =   -2754.27207158 hartree
                                             = -1728331.81062831 kcal/mol
***********************************************************

 SCF   energy in the final basis set =    -2754.2720715817
 Total energy in the final basis set =    -2754.2720715817


 --------------------------------------------------------------
  Generalized many-body perturbation theory program
  by Joonho Lee, Fazle Rob, Xintian Feng, Evgeny Epifanovsky

 No regularization used 
 (reg. param. = 0.0000e+00)
  (P|Q)^-1/2 Time:  CPU 259.42 s  wall 4.78 s

 In RI-MP2 calculation: 
 # of frozen core orbitals: 45

 Components of the RIMP2 correlation energy:
        aaaa    correlation energy =        -0.6716122094 a.u.
        abab    correlation energy =        -3.7174757806 a.u.
        bbbb    correlation energy =        -0.6716122094 a.u.
        non-Brillouin singles      =        -0.0000000000 a.u.
        total same-spin energy     =        -1.3432244187 a.u.
        total opposite-spin energy =        -3.7174757806 a.u.

 Total  RIMP2   correlation energy =        -5.0607001994 a.u.
        RIMP2         total energy =     -2759.3327717811 a.u.

 RI-MP2 Energy Time:  CPU 3258.45 s  wall 54.81 s
 
 --------------------------------------------------------------
 
                    Orbital Energies (a.u.)
 --------------------------------------------------------------
 
 Alpha MOs
 -- Occupied --
-92.0143 -92.0069 -91.9849 -91.9837 -26.3457 -20.6154 -20.5907 -20.5880
-20.5617 -11.4103 -11.3859 -11.3290 -11.3180 -11.3172 -11.3113 -11.2979
-11.2979 -11.2893 -11.2881 -11.2856 -11.2846 -11.2815 -11.2812 -11.2803
-11.2755 -11.2577 -11.2532 -11.2479 -11.2415  -9.0135  -9.0067  -8.9857
 -8.9836  -6.6942  -6.6934  -6.6931  -6.6876  -6.6868  -6.6858  -6.6666
 -6.6659  -6.6650  -6.6646  -6.6640  -6.6631  -1.6627  -1.4679  -1.4147
 -1.4109  -1.3706  -1.2308  -1.1909  -1.1646  -1.1392  -1.0849  -1.0485
 -1.0447  -1.0268  -0.9979  -0.9871  -0.9656  -0.9567  -0.9481  -0.9410
 -0.8926  -0.8711  -0.8452  -0.8174  -0.7937  -0.7846  -0.7843  -0.7632
 -0.7557  -0.7306  -0.7274  -0.7124  -0.6983  -0.6862  -0.6829  -0.6801
 -0.6745  -0.6597  -0.6570  -0.6505  -0.6293  -0.6177  -0.6149  -0.6054
 -0.6020  -0.5899  -0.5767  -0.5669  -0.5655  -0.5652  -0.5532  -0.5484
 -0.5318  -0.5246  -0.5211  -0.5156  -0.5129  -0.5115  -0.5039  -0.4926
 -0.4878  -0.4814  -0.4759  -0.4734  -0.4676  -0.4621  -0.4568  -0.4200
 -0.3895  -0.3845  -0.3622  -0.3467  -0.3217  -0.2952  -0.2496
 -- Virtual --
  0.0232   0.0719   0.0871   0.1250   0.1355   0.1433   0.1505   0.1564
  0.1566   0.1568   0.1621   0.1781   0.1811   0.1831   0.1914   0.1974
  0.2023   0.2036   0.2080   0.2146   0.2195   0.2229   0.2249   0.2276
  0.2323   0.2418   0.2450   0.2481   0.2576   0.2624   0.2708   0.2777
  0.2859   0.3033   0.3104   0.3234   0.3362   0.3387   0.3416   0.3521
  0.3543   0.3580   0.3688   0.3731   0.3817   0.3840   0.3850   0.3884
  0.3900   0.3929   0.3992   0.4064   0.4083   0.4115   0.4177   0.4216
  0.4267   0.4279   0.4329   0.4404   0.4473   0.4486   0.4513   0.4616
  0.4631   0.4671   0.4724   0.4790   0.4824   0.4858   0.4877   0.4893
  0.4955   0.4969   0.5025   0.5066   0.5099   0.5151   0.5189   0.5210
  0.5242   0.5302   0.5331   0.5364   0.5380   0.5405   0.5418   0.5472
  0.5537   0.5546   0.5601   0.5657   0.5675   0.5717   0.5789   0.5819
  0.5883   0.5926   0.5936   0.5993   0.6034   0.6056   0.6092   0.6128
  0.6142   0.6198   0.6208   0.6220   0.6240   0.6328   0.6342   0.6375
  0.6426   0.6467   0.6498   0.6507   0.6582   0.6590   0.6674   0.6715
  0.6745   0.6815   0.6830   0.6881   0.6892   0.6967   0.6998   0.7090
  0.7130   0.7177   0.7199   0.7221   0.7341   0.7408   0.7412   0.7500
  0.7509   0.7569   0.7634   0.7708   0.7746   0.7850   0.7916   0.7991
  0.8061   0.8120   0.8183   0.8234   0.8265   0.8305   0.8382   0.8409
  0.8423   0.8558   0.8626   0.8650   0.8703   0.8725   0.8765   0.8811
  0.8904   0.8921   0.9038   0.9070   0.9104   0.9125   0.9148   0.9226
  0.9315   0.9335   0.9385   0.9432   0.9497   0.9525   0.9582   0.9648
  0.9670   0.9753   0.9785   0.9847   0.9898   0.9957   0.9985   1.0029
  1.0044   1.0095   1.0145   1.0225   1.0260   1.0306   1.0373   1.0437
  1.0445   1.0525   1.0578   1.0614   1.0662   1.0744   1.0787   1.0809
  1.0864   1.0919   1.0948   1.1017   1.1041   1.1076   1.1109   1.1135
  1.1170   1.1244   1.1269   1.1343   1.1360   1.1441   1.1461   1.1575
  1.1641   1.1703   1.1744   1.1790   1.1809   1.1870   1.1891   1.1941
  1.2022   1.2073   1.2115   1.2166   1.2193   1.2254   1.2308   1.2347
  1.2399   1.2463   1.2486   1.2501   1.2547   1.2589   1.2714   1.2756
  1.2764   1.2809   1.2872   1.2897   1.2974   1.3060   1.3087   1.3137
  1.3258   1.3305   1.3344   1.3461   1.3495   1.3616   1.3635   1.3663
  1.3733   1.3854   1.3884   1.3978   1.4066   1.4117   1.4141   1.4205
  1.4261   1.4364   1.4435   1.4544   1.4593   1.4757   1.4811   1.4832
  1.4917   1.4939   1.5017   1.5070   1.5108   1.5147   1.5296   1.5311
  1.5319   1.5400   1.5406   1.5426   1.5490   1.5535   1.5644   1.5649
  1.5737   1.5756   1.5831   1.5920   1.5991   1.6088   1.6282   1.6310
  1.6378   1.6428   1.6507   1.6519   1.6611   1.6655   1.6789   1.6795
  1.6910   1.6951   1.7012   1.7091   1.7158   1.7257   1.7399   1.7422
  1.7485   1.7630   1.7689   1.7811   1.7849   1.8038   1.8061   1.8145
  1.8181   1.8271   1.8316   1.8448   1.8550   1.8626   1.8718   1.8800
  1.8855   1.8902   1.9017   1.9081   1.9216   1.9223   1.9317   1.9379
  1.9407   1.9514   1.9558   1.9587   1.9685   1.9759   1.9794   1.9821
  1.9982   1.9989   2.0090   2.0181   2.0206   2.0393   2.0454   2.0515
  2.0597   2.0733   2.0894   2.1014   2.1029   2.1146   2.1305   2.1334
  2.1486   2.1523   2.1619   2.1708   2.1712   2.1769   2.1828   2.1894
  2.1931   2.1966   2.2076   2.2152   2.2236   2.2302   2.2377   2.2397
  2.2425   2.2553   2.2591   2.2625   2.2661   2.2796   2.2849   2.2879
  2.3001   2.3078   2.3215   2.3270   2.3348   2.3431   2.3527   2.3596
  2.3629   2.3682   2.3769   2.3883   2.3974   2.4053   2.4138   2.4204
  2.4281   2.4354   2.4403   2.4520   2.4569   2.4664   2.4784   2.4900
  2.4944   2.4995   2.5058   2.5217   2.5281   2.5344   2.5488   2.5579
  2.5613   2.5657   2.5794   2.5844   2.6070   2.6116   2.6142   2.6225
  2.6294   2.6332   2.6402   2.6406   2.6458   2.6527   2.6568   2.6615
  2.6774   2.6814   2.6854   2.6974   2.7007   2.7055   2.7068   2.7097
  2.7212   2.7280   2.7355   2.7438   2.7494   2.7521   2.7636   2.7771
  2.7828   2.7877   2.7923   2.7973   2.8021   2.8119   2.8144   2.8180
  2.8253   2.8344   2.8407   2.8452   2.8494   2.8514   2.8640   2.8704
  2.8748   2.8812   2.8871   2.8923   2.8991   2.9103   2.9249   2.9354
  2.9423   2.9500   2.9526   2.9619   2.9689   2.9831   2.9866   2.9958
  3.0039   3.0146   3.0228   3.0281   3.0315   3.0351   3.0366   3.0447
  3.0510   3.0564   3.0675   3.0699   3.0779   3.0891   3.0942   3.0973
  3.1021   3.1095   3.1124   3.1161   3.1211   3.1247   3.1377   3.1435
  3.1481   3.1555   3.1607   3.1645   3.1703   3.1774   3.1826   3.1877
  3.1983   3.2000   3.2050   3.2091   3.2162   3.2193   3.2231   3.2266
  3.2335   3.2385   3.2397   3.2484   3.2509   3.2606   3.2626   3.2678
  3.2725   3.2789   3.2846   3.2925   3.2953   3.2961   3.3073   3.3079
  3.3112   3.3176   3.3243   3.3331   3.3360   3.3396   3.3471   3.3512
  3.3541   3.3574   3.3613   3.3698   3.3706   3.3723   3.3794   3.3820
  3.3882   3.3921   3.3923   3.4002   3.4017   3.4033   3.4105   3.4167
  3.4241   3.4288   3.4315   3.4385   3.4420   3.4482   3.4522   3.4551
  3.4615   3.4648   3.4686   3.4733   3.4749   3.4765   3.4820   3.4870
  3.4958   3.5053   3.5117   3.5229   3.5273   3.5306   3.5333   3.5365
  3.5440   3.5494   3.5534   3.5560   3.5672   3.5708   3.5733   3.5809
  3.5849   3.5894   3.5944   3.5978   3.6026   3.6047   3.6107   3.6174
  3.6207   3.6252   3.6348   3.6371   3.6412   3.6549   3.6576   3.6588
  3.6736   3.6766   3.6855   3.6884   3.6928   3.6948   3.7024   3.7044
  3.7053   3.7111   3.7185   3.7228   3.7299   3.7363   3.7432   3.7524
  3.7545   3.7613   3.7666   3.7682   3.7776   3.7795   3.7881   3.7904
  3.7931   3.7984   3.8037   3.8079   3.8126   3.8143   3.8179   3.8260
  3.8353   3.8435   3.8486   3.8528   3.8585   3.8649   3.8686   3.8766
  3.8836   3.8857   3.8873   3.8979   3.8994   3.9113   3.9203   3.9271
  3.9324   3.9332   3.9460   3.9500   3.9557   3.9639   3.9802   3.9850
  3.9935   4.0017   4.0078   4.0173   4.0196   4.0273   4.0315   4.0409
  4.0520   4.0581   4.0645   4.0698   4.0788   4.0846   4.0890   4.0923
  4.0942   4.1068   4.1203   4.1375   4.1417   4.1432   4.1487   4.1535
  4.1588   4.1658   4.1673   4.1695   4.1832   4.1913   4.1927   4.2057
  4.2097   4.2225   4.2287   4.2328   4.2413   4.2502   4.2573   4.2629
  4.2808   4.2957   4.3098   4.3172   4.3241   4.3311   4.3414   4.3518
  4.3571   4.3623   4.3650   4.3701   4.3732   4.3870   4.3916   4.4012
  4.4082   4.4119   4.4191   4.4260   4.4278   4.4358   4.4419   4.4471
  4.4565   4.4679   4.4847   4.4892   4.4961   4.5056   4.5081   4.5251
  4.5356   4.5395   4.5480   4.5580   4.5615   4.5782   4.5818   4.5955
  4.5986   4.6119   4.6180   4.6292   4.6346   4.6456   4.6527   4.6552
  4.6629   4.6715   4.6775   4.6826   4.6954   4.7086   4.7377   4.7401
  4.7422   4.7578   4.7698   4.7733   4.7751   4.7891   4.8106   4.8239
  4.8288   4.8347   4.8391   4.8585   4.8613   4.8828   4.8913   4.9098
  4.9376   4.9478   4.9527   4.9604   4.9669   4.9746   4.9800   4.9848
  5.0084   5.0103   5.0159   5.0244   5.0377   5.0437   5.0630   5.0748
  5.0823   5.0943   5.1140   5.1291   5.1628   5.1632   5.1753   5.1929
  5.1966   5.2190   5.2287   5.2430   5.2500   5.2556   5.2568   5.2790
  5.2941   5.3073   5.3146   5.3295   5.3348   5.3493   5.3550   5.3645
  5.3897   5.3924   5.4003   5.4075   5.4249   5.4258   5.4407   5.4635
  5.4665   5.4846   5.4991   5.5098   5.5129   5.5148   5.5344   5.5595
  5.5780   5.5808   5.5881   5.6073   5.6211   5.6325   5.6398   5.6606
  5.7166   5.7229   5.7471   5.7611   5.8070   5.8174   5.8342   5.8560
  5.8739   5.8821   5.9029   5.9286   5.9608   5.9867   6.0053   6.0281
  6.0415   6.0732   6.0935   6.1419   6.1500   6.1728   6.1792   6.1823
  6.2259   6.2387   6.2566   6.2609   6.2738   6.2769   6.3131   6.3260
  6.4173   6.4483   6.4496   6.4751   6.5371   6.5506   6.5596   6.5976
  6.6558   6.6604   6.6706   6.7052   6.7440   6.8027   6.8287   6.8403
  6.8590   6.8964   6.9774   7.1244   7.1381   7.2032   7.2035   7.2175
  7.2372   7.3094   7.3224   7.3343   7.3611   7.3616   7.4041   7.4128
  7.4808   7.4835   7.4917   7.5168   7.5493   7.6154   7.7149   7.7707
  7.7875   7.7987   7.8864   7.9218   7.9445   7.9598   8.0862   8.1338
  8.3511   8.9198   9.0207   9.3608   9.4793   9.6596  10.1454  10.5400
 11.2015  11.4213  11.7777  11.9850  12.1244  12.2076  12.4222  12.5917
 12.7419  12.9276  13.0275  13.2807  13.3820  13.4503  13.7947  13.8491
 13.9068  14.0207  14.0404  14.4150  15.2013
 --------------------------------------------------------------
 
          Ground-State Mulliken Net Atomic Charges

     Atom                 Charge (a.u.)
  ----------------------------------------
      1 C                    -0.197368
      2 C                    -0.252948
      3 S                    -0.027830
      4 C                    -0.022012
      5 H                     0.195475
      6 C                    -0.023874
      7 C                     0.228931
      8 C                     0.245309
      9 C                    -0.041058
     10 C                    -0.010346
     11 O                    -0.333408
     12 O                    -0.342302
     13 C                    -0.085700
     14 H                     0.120949
     15 H                     0.090652
     16 H                     0.092833
     17 C                    -0.087649
     18 H                     0.124650
     19 H                     0.095077
     20 H                     0.089585
     21 C                    -0.292010
     22 S                    -0.031979
     23 C                     0.011008
     24 H                     0.192187
     25 H                     0.204812
     26 C                    -0.104923
     27 S                     0.101875
     28 C                    -0.136026
     29 C                     0.071352
     30 C                    -0.114789
     31 S                     0.045633
     32 C                    -0.156297
     33 C                     0.395399
     34 F                    -0.204492
     35 C                     0.448096
     36 O                    -0.462167
     37 O                    -0.301296
     38 C                    -0.058283
     39 H                     0.121475
     40 H                     0.095159
     41 H                     0.095317
     42 H                     0.220982
  ----------------------------------------
  Sum of atomic charges =     0.000000

 -----------------------------------------------------------------
                    Cartesian Multipole Moments
 -----------------------------------------------------------------
    Charge (ESU x 10^10)
                -0.0000
    Dipole Moment (Debye)
         X       2.5714      Y       2.1687      Z       2.4495
       Tot       4.1612
    Quadrupole Moments (Debye-Ang)
        XX    -187.0527     XY      10.5340     YY    -177.4643
        XZ       4.1865     YZ      -4.5764     ZZ    -185.2422
    Octopole Moments (Debye-Ang^2)
       XXX    -427.1414    XXY     451.5523    XYY    -134.5786
       YYY    1075.8703    XXZ     119.2264    XYZ     -79.2191
       YYZ     138.0966    XZZ     -76.9912    YZZ     413.5630
       ZZZ     510.3095
    Hexadecapole Moments (Debye-Ang^3)
      XXXX   -3079.5133   XXXY    -459.1428   XXYY   -3969.6434
      XYYY    -501.1030   YYYY  -17951.5965   XXXZ     527.1015
      XXYZ     374.8196   XYYZ     372.8351   YYYZ    1359.9033
      XXZZ   -1231.4952   XYZZ     101.8814   YYZZ   -4030.2902
      XZZZ     360.8265   YZZZ    1106.6316   ZZZZ   -6799.5173
 -----------------------------------------------------------------
 Total job time:  299.31s(wall), 9264.16s(cpu) 
 Tue Jan  9 02:39:15 2024

        *************************************************************
        *                                                           *
        *  Thank you very much for using Q-Chem.  Have a nice day.  *
        *                                                           *
        *************************************************************


0 sent ACK to 0 
now end server 0 ... 
cleanup process ... done
remove work dirs ./qchem3369149.0 -- ./qchem3369149.0
rm -rf ./qchem3369149.0
rm -rf ./qchem3369149
