ITEM: TIMESTEP
0
ITEM: NUMBER OF ENTRIES
29190
ITEM: BOX BOUNDS pp pp pp
40.0097 119.99
40.0097 119.99
40.0097 119.99
ITEM: ENTRIES index c_1[1] c_1[2] c_1[3] c_1[4] c_1[5] c_2 
1 1 10842 10841 10843 10835 6.66945 
2 1 10834 10840 10833 10835 3.95348 
3 1 10831 10830 10832 10836 5.75186 
4 1 10835 10830 10834 10842 2.30514 
5 1 10830 10831 10835 10844 4.21468 
6 1 37132 37169 37131 37133 2.04293 
7 2 37170 37169 37171 37172 33.5999 
8 2 37170 37169 37171 37173 29.368 
9 1 37131 37137 37130 37132 0.743058 
10 1 10833 10870 10832 10834 10.522 
11 2 10871 10870 10872 10873 29.5282 
12 2 10871 10870 10872 10874 33.797 
13 2 37171 37170 37181 37174 30.2306 
14 2 37171 37170 37182 37174 42.8806 
15 2 10858 10862 10856 10861 41.1587 
16 2 10845 10846 10847 10844 33.6724 
17 2 10845 10846 10848 10844 42.2304 
18 2 10849 10846 10850 10851 29.8602 
19 2 10849 10846 10850 10852 33.1266 
20 2 10856 10846 10858 10859 26.9209 
21 2 10856 10846 10858 10860 33.368 
22 2 10846 10849 10857 10845 41.2995 
23 2 10846 10856 10849 10845 24.1565 
24 2 10861 10858 10864 10866 27.9889 
25 2 24914 24917 24918 24911 35.5097 
26 2 24914 24917 24911 24919 31.8849 
27 2 10858 10863 10856 10861 34.4167 
28 2 24917 24922 24920 24914 40.409 
29 2 10850 10855 10849 10853 29.6432 
30 2 24917 24921 24914 24920 35.0095 
31 2 10864 10861 10867 10869 36.11 
32 2 24909 24913 24899 24911 29.4827 
33 2 24911 24914 24915 24909 30.7664 
34 2 24911 24914 24916 24909 35.971 
35 2 24902 24899 24903 24904 33.1864 
36 2 24909 24899 24911 24912 31.7832 
37 1 26094 26093 26095 26099 1.62112 
38 1 26098 26093 26097 26105 2.76019 
39 1 26093 26094 26098 26107 0.062108 
40 2 24902 24905 24899 24903 36.2803 
41 2 24899 24898 24909 24902 32.2373 
42 2 24899 24898 24910 24902 41.3548 
43 2 26109 26119 26112 26108 28.4181 
44 2 26108 26109 26110 26107 43.4302 
45 2 26108 26109 26111 26107 37.3633 
46 2 26112 26109 26113 26114 28.7209 
47 2 26112 26109 26113 26115 34.6754 
48 2 26119 26109 26121 26122 29.7024 
49 2 26119 26109 26121 26123 30.8036 
50 1 26105 26104 26106 26098 7.13701 
51 1 26097 26103 26096 26098 2.77926 
52 5 26104 26103 26105 26060 1.0317 
53 1 26063 26064 26059 26062 21.9703 
54 2 26121 26126 26119 26124 38.841 
55 2 37433 37436 37437 37430 43.4568 
56 5 9600 9599 9601 9659 0.514131 
57 1 9662 9660 9663 9666 27.4299 
58 1 9660 9659 9662 9664 21.41 
59 1 9595 9601 9594 9596 7.74732 
60 1 9601 9602 9595 9600 1.23963 
61 2 37430 37434 37427 37433 35.5989 
62 2 38077 38082 38076 38080 43.7239 
63 2 37427 37430 37431 37425 40.2937 
64 2 37427 37430 37432 37425 35.647 
65 2 37433 37430 37436 37438 28.8957 
66 4 9659 9661 9660 9600 2.49576 
67 4 9663 9661 9662 9707 0.615212 
68 2 38077 38081 38076 38080 35.1482 
69 1 9708 9707 9709 9701 3.43309 
70 2 23030 23027 23033 23035 30.3287 
71 1 9700 9706 9699 9701 2.4 
72 5 9707 9706 9708 9663 4.49254 
73 2 23033 23030 23036 23038 33.7652 
74 2 23030 23033 23034 23027 28.2724 
75 2 28486 28491 28485 28489 34.167 
76 2 23027 23032 23025 23030 33.6035 
77 1 9704 9705 9698 9703 4.0122 
78 1 9699 9736 9698 9700 9.19484 
79 2 9737 9736 9738 9739 30.1631 
80 2 9737 9736 9738 9740 29.7267 
81 2 9738 9737 9748 9741 28.4985 
82 2 9738 9737 9749 9741 41.9607 
83 2 23015 23025 23018 23014 30.3096 
84 2 9741 9744 9738 9742 34.2368 
85 2 9741 9738 9742 9743 31.6029 
86 2 9748 9738 9750 9751 31.8368 
87 1 9698 9704 9697 9699 3.07623 
88 2 38000 38003 38004 37999 31.6693 
89 2 38000 38003 38005 37999 36.6527 
90 2 23027 23031 23025 23030 37.0172 
91 2 37999 37996 38000 38001 32.3303 
92 2 38006 37996 38008 38009 29.2137 
93 2 9750 9753 9754 9748 34.529 
94 2 9750 9753 9755 9748 39.3503 
95 2 38008 38011 38012 38006 36.8222 
96 2 38008 38011 38013 38006 34.9388 
97 2 38011 38014 38015 38008 31.4909 
98 2 38011 38014 38008 38016 34.2181 
99 2 38014 38019 38017 38011 30.9539 
100 2 37999 38002 37996 38000 35.2856 
101 2 38006 38010 37996 38008 33.6226 
102 2 9753 9756 9757 9750 40.0939 
103 2 9753 9756 9750 9758 29.7128 
104 2 9845 9848 9849 9844 39.9538 
105 2 9845 9848 9850 9844 41.1336 
106 2 9756 9760 9753 9759 30.2913 
107 2 9844 9847 9841 9845 36.0696 
108 1 9802 9839 9801 9803 7.0924 
109 2 9840 9839 9841 9842 27.2215 
110 2 9840 9839 9841 9843 29.0955 
111 2 9844 9841 9845 9846 33.7144 
112 2 9851 9841 9853 9854 26.712 
113 2 9841 9840 9851 9844 37.3709 
114 2 9841 9840 9852 9844 39.3818 
115 2 9756 9761 9759 9753 42.1221 
116 2 38014 38018 38011 38017 25.7761 
117 1 9803 9809 9802 9804 3.01904 
118 5 9810 9809 9811 9766 0.268673 
119 2 9853 9856 9857 9851 39.8635 
120 2 9853 9856 9858 9851 31.1444 
121 2 9851 9855 9841 9853 36.5726 
122 2 37768 37773 37767 37771 29.0838 
123 2 37768 37772 37767 37771 32.3942 
124 2 9877 9876 9878 9879 28.2546 
125 2 9877 9876 9878 9880 30.0277 
126 2 9856 9859 9860 9853 35.1109 
127 2 9856 9859 9853 9861 34.0292 
128 2 9859 9864 9862 9856 37.5612 
129 2 37690 37693 37687 37691 42.6007 
130 1 37760 37759 37761 37753 2.12128 
131 1 37749 37748 37750 37754 9.69144 
132 1 37753 37748 37752 37760 4.82215 
133 1 9871 9874 9870 9872 19.0966 
134 2 1849 1854 1852 1846 27.7152 
135 2 1849 1853 1846 1852 34.9777 
136 2 1846 1849 1850 1844 34.303 
137 2 1846 1849 1851 1844 32.2105 
138 2 1852 1849 1855 1857 33.6564 
139 1 37718 37719 37714 37717 26.3438 
140 3 9874 9875 9876 9871 0.613992 
141 1 37752 37758 37751 37753 0.0251317 
142 5 37759 37758 37760 37715 0.448983 
143 2 1844 1846 1847 1834 33.116 
144 2 1844 1846 1848 1834 39.7453 
145 2 1852 1855 1856 1849 36.4376 
146 2 31076 31073 31079 31081 26.8791 
147 2 1838 1837 1841 1842 34.33 
148 2 1838 1837 1841 1843 29.7735 
149 2 1834 1837 1833 1844 32.6249 
150 2 1837 1838 1839 1834 33.2221 
151 2 1837 1838 1840 1834 37.0923 
152 1 37751 37788 37750 37752 5.93979 
153 2 37789 37788 37790 37791 29.4252 
154 2 37789 37788 37790 37792 28.9619 
155 2 37800 37804 37790 37802 32.0027 
156 2 37808 37813 37811 37805 24.0218 
157 2 31079 31076 31082 31084 35.2298 
158 2 31073 31078 31071 31076 38.6658 
159 2 31061 31071 31064 31060 27.5236 
160 2 37805 37808 37809 37802 35.6047 
161 2 37805 37808 37802 37810 31.1029 
162 2 37802 37805 37806 37800 34.0403 
163 2 37802 37805 37807 37800 34.9076 
164 2 31079 31082 31083 31076 35.7391 
165 2 37808 37812 37805 37811 37.8609 
166 2 31267 31277 31270 31266 28.751 
167 2 31266 31267 31268 31265 30.8747 
168 2 31266 31267 31269 31265 39.1984 
169 2 31270 31267 31271 31272 32.5918 
170 2 31270 31267 31271 31273 27.2301 
171 2 31277 31267 31279 31280 26.14 
172 2 31277 31267 31279 31281 31.1747 
173 2 31267 31270 31278 31266 33.3179 
174 2 31282 31279 31285 31287 30.9388 
175 1 31252 31251 31253 31257 7.54866 
176 1 31256 31251 31255 31263 6.52787 
177 2 31279 31284 31277 31282 36.1136 
178 2 31279 31283 31277 31282 38.4787 
179 1 1755 1756 1760 1769 0.447412 
180 5 1762 1761 1763 1821 1.36803 
181 2 10872 10871 10882 10875 27.4957 
182 2 10872 10871 10883 10875 40.3512 
183 2 31271 31275 31270 31274 35.961 
184 2 31271 31276 31270 31274 29.8213 
185 2 10882 10886 10872 10884 42.0652 
186 2 10875 10872 10876 10877 21.7814 
187 2 10882 10872 10884 10885 29.6923 
188 2 10875 10878 10872 10876 42.4231 
189 2 10884 10887 10888 10882 36.3242 
190 2 10884 10887 10889 10882 35.3777 
191 2 10890 10894 10887 10893 31.0058 
192 4 10837 10836 10838 10897 0.635892 
193 2 24837 24836 24840 24841 31.0248 
194 2 24837 24836 24840 24842 32.8683 
195 2 24833 24836 24832 24843 33.1076 
196 1 10832 10838 10831 10833 1.35718 
197 1 10838 10839 10832 10837 7.27701 
198 1 10898 10897 10900 10902 18.9674 
199 1 10900 10898 10901 10904 25.6155 
200 2 24848 24853 24851 24845 33.6914 
201 2 24836 24837 24838 24833 35.9394 
202 2 24836 24837 24839 24833 30.6683 
203 2 24845 24848 24849 24843 35.9194 
204 2 24845 24848 24850 24843 39.5334 
205 2 24851 24848 24854 24856 25.9459 
206 2 24843 24845 24846 24833 26.8439 
207 2 24843 24845 24847 24833 36.2754 
208 2 24848 24852 24845 24851 32.0358 
209 2 10850 10854 10849 10853 32.3107 
210 2 24946 24948 24949 24936 32.6656 
211 2 24946 24948 24950 24936 33.455 
212 2 24948 24951 24952 24946 35.2844 
213 2 24948 24951 24953 24946 31.2225 
214 2 24954 24951 24957 24959 33.0067 
215 2 10914 10913 10917 10918 30.3532 
216 2 10914 10913 10917 10919 33.6113 
217 2 10910 10913 10909 10920 30.0341 
218 2 10909 10908 10910 10911 33.3658 
219 2 10909 10908 10910 10912 27.605 
220 1 10903 10906 10902 10904 5.39589 
221 2 10910 10921 10913 10909 38.614 
222 2 24951 24955 24948 24954 35.8664 
223 2 24951 24956 24954 24948 35.8174 
224 1 24860 24897 24859 24861 11.2847 
225 2 24898 24897 24899 24900 30.9583 
226 2 24898 24897 24899 24901 23.0821 
227 2 24903 24906 24907 24902 32.6173 
228 2 24903 24906 24908 24902 33.9173 
229 1 24924 24923 24926 24928 32.0213 
230 2 10913 10914 10915 10910 31.66 
231 2 10913 10914 10916 10910 27.4324 
232 1 24865 24866 24859 24864 2.76324 
233 2 27967 27970 27978 27966 40.2817 
234 1 24926 24924 24927 24930 20.9458 
235 2 27971 27976 27970 27974 28.1643 
236 1 24859 24865 24858 24860 0.836827 
237 2 9687 9691 9684 9690 32.7297 
238 2 26139 26142 26143 26138 35.339 
239 2 26139 26142 26144 26138 42.1054 
240 2 27966 27967 27968 27965 36.288 
241 2 27966 27967 27969 27965 37.9532 
242 2 27970 27967 27971 27972 25.1093 
243 2 27970 27967 27971 27973 34.5263 
244 2 27977 27967 27979 27980 30.4093 
245 2 27977 27967 27979 27981 24.3 
246 2 27982 27979 27985 27987 27.2041 
247 2 27967 27977 27970 27966 31.6591 
248 2 9684 9687 9688 9682 30.9059 
249 2 9684 9687 9689 9682 34.9293 
250 2 9690 9687 9693 9695 30.0367 
251 2 27979 27983 27977 27982 34.4423 
252 2 9682 9684 9685 9672 36.1718 
253 2 9682 9684 9686 9672 32.1645 
254 2 9687 9692 9690 9684 37.5048 
255 1 27952 27951 27953 27957 5.67958 
256 1 27956 27951 27955 27963 1.36876 
257 5 27958 27957 27959 28017 3.02401 
258 1 27951 27952 27956 27965 0.49817 
259 2 27979 27984 27977 27982 39.9847 
260 2 9690 9693 9694 9687 37.2269 
261 1 27953 27959 27952 27954 5.27806 
262 1 28018 28017 28020 28022 27.8183 
263 2 28500 28503 28504 28497 38.2173 
264 2 28497 28500 28501 28494 37.5761 
265 2 28494 28498 28492 28497 40.3086 
266 2 28494 28499 28492 28497 33.5202 
267 2 28497 28494 28500 28502 27.6672 
268 2 28482 28492 28485 28481 30.8002 
269 2 28500 28497 28503 28505 33.84 
270 4 28017 28019 28018 27958 1.5817 
271 4 28021 28019 28020 28065 6.09041 
272 2 9671 9670 9672 9673 29.007 
273 2 9671 9670 9672 9674 32.0806 
274 2 28481 28482 28483 28480 34.8957 
275 2 28481 28482 28484 28480 40.5116 
276 2 28485 28482 28486 28487 31.9159 
277 2 28485 28482 28486 28488 29.6659 
278 2 28492 28482 28494 28495 30.6424 
279 2 28492 28482 28494 28496 29.3367 
280 2 28486 28490 28485 28489 34.1246 
281 2 28482 28485 28493 28481 34.2549 
282 1 28467 28466 28468 28472 3.06034 
283 1 28471 28466 28470 28478 5.08126 
284 1 28432 28430 28433 28436 24.0918 
285 1 28436 28437 28432 28435 17.3612 
286 1 28430 28429 28432 28434 24.1882 
287 1 28478 28477 28479 28471 8.45351 
288 2 9742 9745 9746 9741 32.9512 
289 2 9742 9745 9747 9741 41.4389 
290 4 28429 28431 28430 28370 5.74488 
291 4 28433 28431 28432 28477 3.23935 
292 2 9748 9752 9738 9750 34.8105 
293 2 28441 28440 28442 28443 20.1358 
294 2 28441 28440 28442 28444 33.7827 
295 1 28435 28438 28434 28436 17.1754 
296 3 28438 28439 28440 28435 4.96661 
297 1 37923 37926 37922 37924 13.968 
298 2 37929 37928 37930 37931 35.9069 
299 2 37929 37928 37930 37932 29.4727 
300 2 37934 37933 37937 37938 28.6918 
301 2 37934 37933 37937 37939 35.5939 
302 2 37930 37933 37929 37940 30.1785 
303 2 37940 37942 37943 37930 34.0974 
304 2 37940 37942 37944 37930 31.5831 
305 1 9807 9808 9801 9806 9.12837 
306 1 9801 9807 9800 9802 1.35181 
307 2 37763 37764 37765 37762 36.42 
308 2 37763 37764 37766 37762 32.0293 
309 2 37767 37764 37768 37769 28.3753 
310 2 37767 37764 37768 37770 33.1381 
311 2 37774 37764 37776 37777 29.2087 
312 2 37774 37764 37776 37778 32.2804 
313 1 9868 9866 9869 9872 24.8223 
314 3 37926 37927 37928 37923 0.971027 
315 2 37930 37941 37933 37929 37.6172 
316 2 37782 37779 37785 37787 31.7513 
317 2 37779 37782 37783 37776 39.1707 
318 2 37782 37785 37786 37779 34.2094 
319 2 37779 37776 37782 37784 24.792 
320 2 37764 37774 37767 37763 29.3873 
321 1 9914 9913 9915 9907 2.35397 
322 2 37776 37781 37774 37779 37.7375 
323 1 9866 9865 9868 9870 11.4007 
324 2 9917 9918 9919 9916 35.7061 
325 2 9917 9918 9920 9916 31.6618 
326 2 9921 9918 9922 9923 32.2224 
327 2 9921 9918 9922 9924 27.8906 
328 2 9928 9918 9930 9931 29.0392 
329 2 9928 9918 9930 9932 24.9336 
330 2 9918 9921 9929 9917 44.5948 
331 1 9872 9873 9868 9871 19.1393 
332 2 31408 31411 31412 31406 35.947 
333 2 31408 31411 31413 31406 29.5564 
334 2 31414 31419 31417 31411 39.002 
335 2 31411 31414 31415 31408 38.1499 
336 2 31411 31414 31408 31416 34.1961 
337 2 1834 1845 1837 1833 38.613 
338 2 31414 31418 31411 31417 42.3922 
339 1 31259 31260 31253 31258 10.0528 
340 1 31320 31318 31321 31324 23.9404 
341 2 31297 31300 31301 31296 38.4883 
342 2 31297 31300 31302 31296 36.4353 
343 1 31253 31259 31252 31254 1.91653 
344 1 31318 31317 31320 31322 19.4598 
345 4 31317 31319 31318 31258 4.39393 
346 4 31321 31319 31320 31365 1.47505 
347 2 12509 12513 12507 12512 36.7526 
348 1 31251 31252 31256 31265 0.225137 
349 2 12496 12497 12498 12495 33.9959 
350 2 12496 12497 12499 12495 32.5728 
351 2 12500 12497 12501 12502 34.3044 
352 2 12500 12497 12501 12503 24.3682 
353 2 12507 12497 12509 12510 27.7723 
354 2 12507 12497 12509 12511 31.0581 
355 5 31258 31257 31259 31317 4.40004 
356 2 12497 12500 12508 12496 39.0365 
357 2 12497 12507 12500 12496 28.7076 
358 2 12501 12506 12500 12504 30.5211 
359 2 3425 3430 3424 3428 28.9818 
360 2 12512 12509 12515 12517 28.0654 
361 2 12509 12514 12507 12512 40.1312 
362 2 12515 12512 12518 12520 30.9855 
363 2 12515 12518 12519 12512 39.5232 
364 2 12512 12515 12516 12509 35.5691 
365 3 3377 3378 3379 3374 2.68902 
366 2 3380 3379 3381 3382 37.7882 
367 2 3380 3379 3381 3383 25.699 
368 1 3374 3377 3373 3375 15.9571 
369 2 24851 24854 24855 24848 45.4099 
370 2 10954 10958 10953 10957 35.1926 
371 2 10954 10959 10953 10957 33.1718 
372 5 10941 10940 10942 11000 5.21454 
373 1 10904 10905 10900 10903 17.5105 
374 2 10949 10950 10951 10948 43.3286 
375 2 10949 10950 10952 10948 38.2592 
376 2 10953 10950 10954 10955 33.1247 
377 2 10953 10950 10954 10956 25.2384 
378 2 10960 10950 10962 10963 29.2697 
379 2 10960 10950 10962 10964 32.5032 
380 1 10935 10934 10936 10940 4.28641 
381 1 10939 10934 10938 10946 3.08477 
382 2 10950 10953 10961 10949 40.1874 
383 2 10950 10960 10953 10949 30.4901 
384 1 10934 10935 10939 10948 0.404544 
385 3 10906 10907 10908 10903 2.42764 
386 3 24932 24933 24934 24929 6.7773 
387 1 24929 24932 24928 24930 19.9882 
388 2 25506 25509 25510 25503 31.4984 
389 2 24935 24934 24936 24937 28.1807 
390 2 24935 24934 24936 24938 33.7128 
391 2 27971 27975 27970 27974 33.0443 
392 2 27930 27931 27932 27927 32.8777 
393 2 27930 27931 27933 27927 31.4391 
394 1 24930 24931 24926 24929 21.9851 
395 2 34230 34233 34234 34228 35.2401 
396 2 34230 34233 34235 34228 38.2418 
397 2 34236 34233 34239 34241 31.8959 
398 2 34233 34238 34236 34230 38.9986 
399 2 34228 34230 34231 34218 35.6634 
400 2 34228 34230 34232 34218 33.4999 
401 2 34236 34239 34240 34233 38.6394 
402 2 34233 34237 34230 34236 35.1393 
403 2 25012 25016 25002 25014 37.0432 
404 2 25014 25017 25018 25012 36.2912 
405 2 25014 25017 25019 25012 39.8786 
406 2 25020 25025 25023 25017 37.2802 
407 2 25020 25024 25017 25023 26.1775 
408 2 25017 25020 25021 25014 33.9132 
409 2 25017 25020 25014 25022 34.8525 
410 1 27959 27960 27953 27958 10.7493 
411 1 28020 28018 28021 28024 29.0576 
412 3 28026 28027 28028 28023 0.355681 
413 1 28023 28026 28022 28024 8.78907 
414 2 28003 28007 27993 28005 42.0348 
415 2 28005 28008 28009 28003 33.7787 
416 2 28005 28008 28010 28003 34.5405 
417 2 28011 28016 28014 28008 36.0127 
418 2 28011 28015 28008 28014 31.8979 
419 2 28008 28011 28012 28005 41.0163 
420 2 28008 28011 28005 28013 28.441 
421 2 31691 31696 31689 31694 39.3526 
422 2 31694 31691 31697 31699 32.5711 
423 2 31694 31697 31698 31691 31.0591 
424 2 31697 31694 31700 31702 41.8433 
425 2 31697 31700 31701 31694 34.3989 
426 1 28470 28476 28469 28471 1.81182 
427 5 28477 28476 28478 28433 1.27026 
428 2 31679 31689 31682 31678 35.538 
429 2 31691 31695 31689 31694 39.2118 
430 2 31678 31679 31680 31677 34.5588 
431 2 31678 31679 31681 31677 30.2048 
432 2 31682 31679 31683 31684 27.6559 
433 2 31682 31679 31683 31685 31.7682 
434 2 31689 31679 31691 31692 24.1575 
435 2 31689 31679 31691 31693 37.3597 
436 2 31639 31650 31642 31638 35.306 
437 2 31643 31642 31646 31647 36.2086 
438 2 31643 31642 31646 31648 30.7636 
439 2 31639 31642 31638 31649 33.3913 
440 2 31642 31643 31644 31639 39.6148 
441 2 31642 31643 31645 31639 32.926 
442 2 31649 31651 31652 31639 35.3328 
443 2 31649 31651 31653 31639 27.2691 
444 2 31606 31609 31610 31605 39.9215 
445 2 31606 31609 31611 31605 39.0709 
446 3 31635 31636 31637 31632 0.266124 
447 2 31638 31637 31639 31640 31.4702 
448 2 31638 31637 31639 31641 32.0612 
449 1 31632 31635 31631 31633 24.392 
450 1 31633 31634 31629 31632 20.8962 
451 1 31627 31626 31629 31631 27.9393 
452 1 31629 31627 31630 31633 23.8171 
453 4 31626 31628 31627 31567 0.930626 
454 4 31630 31628 31629 31674 1.53545 
455 2 37933 37934 37935 37930 35.6743 
456 2 37933 37934 37936 37930 32.7454 
457 2 24125 24130 24128 24122 51.4359 
458 2 24122 24125 24126 24120 33.3142 
459 2 24122 24125 24127 24120 37.9224 
460 2 24128 24125 24131 24133 35.8691 
461 2 24120 24122 24123 24110 36.7655 
462 2 24120 24122 24124 24110 39.0782 
463 2 24125 24129 24122 24128 36.8631 
464 2 24128 24131 24132 24125 32.8298 
465 2 24113 24114 24115 24110 35.9056 
466 2 24113 24114 24116 24110 38.5347 
467 2 24114 24113 24117 24118 36.5768 
468 2 24114 24113 24117 24119 33.7926 
469 2 24110 24113 24109 24120 20.9125 
470 2 24110 24121 24113 24109 41.5101 
471 1 9903 9902 9904 9908 8.24418 
472 1 9907 9902 9906 9914 8.37798 
473 2 9930 9935 9928 9933 35.8792 
474 2 9933 9930 9936 9938 27.2529 
475 1 9904 9910 9903 9905 2.80227 
476 1 9902 9903 9907 9916 2.39663 
477 5 9909 9908 9910 9968 3.40169 
478 1 9969 9968 9971 9973 21.2921 
479 1 9971 9969 9972 9975 23.3895 
480 2 9930 9934 9928 9933 42.402 
481 2 31330 31341 31333 31329 34.8042 
482 2 9933 9936 9937 9930 38.9466 
483 2 3433 3437 3431 3436 39.1395 
484 3 31326 31327 31328 31323 9.60465 
485 1 31323 31326 31322 31324 3.11583 
486 2 31329 31328 31330 31331 30.938 
487 2 31329 31328 31330 31332 27.5491 
488 2 3483 3482 3484 3485 31.8745 
489 2 3483 3482 3484 3486 31.3421 
490 1 3477 3480 3476 3478 15.1337 
491 2 3484 3495 3487 3483 42.0032 
492 2 3494 3496 3497 3484 34.8238 
493 2 3494 3496 3498 3484 39.866 
494 2 9936 9939 9940 9933 37.6166 
495 2 3488 3487 3491 3492 28.6041 
496 2 3488 3487 3491 3493 37.6986 
497 2 3484 3487 3483 3494 32.8321 
498 5 12444 12446 12445 12384 0.615544 
499 5 12448 12446 12447 12492 0.272126 
500 2 12501 12505 12500 12504 33.8287 
501 2 3487 3488 3489 3484 31.0873 
502 2 3487 3488 3490 3484 35.5014 
503 2 3396 3401 3399 3393 32.5037 
504 2 3393 3396 3397 3391 27.8086 
505 2 3393 3396 3398 3391 35.8448 
506 2 3399 3396 3402 3404 36.1686 
507 2 3396 3400 3393 3399 32.9534 
508 2 3399 3402 3403 3396 31.049 
509 2 3391 3393 3394 3381 32.0791 
510 2 3391 3393 3395 3381 38.0603 
511 2 3381 3392 3384 3380 34.3447 
512 2 12575 12579 12572 12578 36.7443 
513 2 3384 3385 3386 3381 32.9326 
514 2 3384 3385 3387 3381 34.2971 
515 2 12559 12558 12560 12561 30.4565 
516 2 12559 12558 12560 12562 26.3894 
517 2 3385 3384 3388 3389 35.5896 
518 2 3385 3384 3388 3390 31.6798 
519 2 3381 3384 3380 3391 34.1343 
520 2 12575 12580 12578 12572 31.1999 
521 2 12564 12563 12567 12568 26.7928 
522 2 12564 12563 12567 12569 37.3603 
523 2 12560 12563 12559 12570 29.1464 
524 2 12560 12571 12563 12559 40.6048 
525 2 12572 12575 12576 12570 28.0683 
526 2 12572 12575 12577 12570 32.7062 
527 2 12578 12575 12581 12583 39.0128 
528 2 25495 25500 25494 25498 36.5198 
529 3 11009 11010 11011 11006 8.55127 
530 5 25482 25481 25483 25541 0.16083 
531 2 25491 25494 25502 25490 36.4824 
532 2 25490 25491 25492 25489 35.377 
533 2 25490 25491 25493 25489 35.6548 
534 2 25494 25491 25495 25496 32.7114 
535 2 25494 25491 25495 25497 29.2609 
536 2 25501 25491 25503 25504 30.0014 
537 2 25501 25491 25503 25505 31.4105 
538 1 25476 25475 25477 25481 4.42773 
539 1 25480 25475 25479 25487 6.67578 
540 1 11006 11009 11005 11007 12.8478 
541 2 25495 25499 25494 25498 36.6404 
542 2 25509 25506 25512 25514 36.0132 
543 2 25509 25512 25513 25506 42.9466 
544 2 25450 25449 25451 25452 30.5144 
545 2 25450 25449 25451 25453 28.7418 
546 2 25491 25501 25494 25490 35.7951 
547 1 34246 34252 34245 34247 7.26974 
548 5 34253 34252 34254 34209 0.13755 
549 2 25466 25471 25469 25463 41.7713 
550 2 25461 25463 25464 25451 28.9229 
551 2 25461 25463 25465 25451 42.763 
552 2 25469 25472 25473 25466 33.544 
553 2 25463 25466 25467 25461 30.5995 
554 2 25463 25466 25468 25461 37.528 
555 2 25469 25466 25472 25474 33.9796 
556 2 25503 25508 25501 25506 30.9249 
557 2 25503 25507 25501 25506 29.8771 
558 2 25506 25503 25509 25511 31.9647 
559 2 25454 25455 25456 25451 34.4392 
560 2 25454 25455 25457 25451 37.0481 
561 2 25455 25454 25458 25459 27.6265 
562 2 25455 25454 25458 25460 38.662 
563 2 25451 25454 25450 25461 26.113 
564 1 34211 34214 34210 34212 2.01671 
565 1 34254 34253 34255 34247 4.33965 
566 2 25451 25462 25454 25450 43.9811 
567 1 34212 34213 34208 34211 24.3674 
568 2 34221 34222 34223 34218 32.1912 
569 2 34221 34222 34224 34218 39.0957 
570 2 34217 34216 34218 34219 23.3964 
571 2 34217 34216 34218 34220 34.2557 
572 2 34222 34221 34225 34226 31.5523 
573 2 34222 34221 34225 34227 35.2234 
574 2 34218 34221 34217 34228 32.5741 
575 2 34218 34229 34221 34217 37.2955 
576 2 28660 28663 28664 28658 33.4374 
577 2 28660 28663 28665 28658 39.0622 
578 2 28666 28663 28669 28671 32.3371 
579 2 28663 28668 28666 28660 36.5645 
580 2 28658 28660 28661 28648 35.2524 
581 2 28658 28660 28662 28648 37.5034 
582 2 28692 28697 28691 28695 33.1095 
583 2 28692 28696 28691 28695 31.5893 
584 2 31826 31830 31823 31829 30.5278 
585 2 31820 31823 31824 31818 26.4428 
586 2 31820 31823 31825 31818 34.1995 
587 2 31823 31826 31827 31820 37.0789 
588 2 31823 31826 31820 31828 28.3214 
589 2 25123 25128 25126 25120 40.1303 
590 2 31826 31831 31829 31823 38.9767 
591 2 25123 25127 25120 25126 30.4621 
592 2 25120 25123 25124 25117 37.3831 
593 2 25120 25123 25117 25125 26.0656 
594 2 25117 25120 25121 25115 37.4545 
595 2 25117 25120 25122 25115 36.6265 
596 2 31818 31822 31808 31820 31.7735 
597 2 31903 31906 31907 31900 41.2058 
598 2 31900 31903 31904 31897 37.3677 
599 2 31903 31900 31906 31908 28.2001 
600 2 31897 31901 31895 31900 29.9774 
601 2 31897 31902 31895 31900 39.5417 
602 2 31900 31897 31903 31905 30.2786 
603 2 31884 31885 31886 31883 36.3193 
604 2 31884 31885 31887 31883 32.823 
605 2 31888 31885 31889 31890 30.2881 
606 2 31888 31885 31889 31891 30.9922 
607 2 31895 31885 31897 31898 28.9509 
608 2 31895 31885 31897 31899 32.9783 
609 2 31885 31895 31888 31884 33.6119 
610 2 31885 31888 31896 31884 36.9279 
611 2 31889 31893 31888 31892 26.4044 
612 2 15358 15363 15361 15355 30.0636 
613 2 15355 15358 15359 15353 32.3658 
614 2 15355 15358 15360 15353 36.3063 
615 2 15361 15358 15364 15366 23.4187 
616 2 15361 15364 15365 15358 40.4675 
617 2 15353 15355 15356 15343 43.9021 
618 2 15353 15355 15357 15343 36.5707 
619 5 31670 31669 31671 31729 0.846795 
620 1 31664 31663 31665 31669 3.32717 
621 1 31668 31663 31667 31675 5.59611 
622 1 31665 31671 31664 31666 5.92703 
623 1 31663 31664 31668 31677 8.84693 
624 2 15358 15362 15355 15361 35.1422 
625 1 31675 31674 31676 31668 7.68105 
626 2 24150 24160 24153 24149 28.934 
627 2 24165 24162 24168 24170 30.1381 
628 2 24168 24165 24171 24173 33.852 
629 2 31705 31704 31715 31708 29.5508 
630 2 31705 31704 31716 31708 41.0494 
631 1 31666 31703 31665 31667 5.15486 
632 2 31704 31703 31705 31706 31.0892 
633 2 31704 31703 31705 31707 27.2277 
634 2 31715 31719 31705 31717 31.573 
635 2 31951 31952 31953 31948 30.2677 
636 2 31951 31952 31954 31948 36.43 
637 1 31667 31673 31666 31668 3.08759 
638 5 31674 31673 31675 31630 2.46038 
639 2 31717 31720 31721 31715 32.3554 
640 2 31717 31720 31722 31715 27.8426 
641 2 31720 31723 31724 31717 31.0141 
642 2 31720 31723 31717 31725 37.647 
643 2 14088 14092 14085 14091 34.5582 
644 2 24162 24167 24160 24165 42.7119 
645 2 14088 14093 14091 14085 46.6281 
646 2 14085 14088 14089 14082 28.1289 
647 2 14085 14088 14082 14090 34.525 
648 2 31723 31727 31720 31726 30.0355 
649 2 24168 24171 24172 24165 39.3414 
650 2 24165 24168 24169 24162 39.2564 
651 1 10006 10005 10007 10011 3.21269 
652 1 10010 10005 10009 10017 2.17455 
653 1 10009 10015 10008 10010 0.783345 
654 5 10016 10015 10017 9972 0.182426 
655 2 24162 24166 24160 24165 38.5471 
656 4 9968 9970 9969 9909 4.43242 
657 4 9972 9970 9971 10016 0.147772 
658 1 10017 10016 10018 10010 2.96448 
659 1 9975 9976 9971 9974 16.4309 
660 2 13016 13020 13015 13019 32.4161 
661 2 9980 9979 9981 9982 33.8814 
662 2 9980 9979 9981 9983 25.4747 
663 1 9974 9977 9973 9975 12.3733 
664 2 13016 13021 13015 13019 34.7574 
665 2 10033 10037 10031 10036 40.1083 
666 3 3480 3481 3482 3477 0.741163 
667 2 31348 31351 31352 31345 36.4631 
668 3 9977 9978 9979 9974 2.3442 
669 4 12384 12383 12385 12444 0.517821 
670 2 9981 9992 9984 9980 36.1849 
671 1 12378 12377 12379 12383 2.91769 
672 1 12382 12377 12381 12389 2.76172 
673 1 12377 12378 12382 12391 2.28782 
674 1 12381 12387 12380 12382 0.296186 
675 2 12429 12433 12419 12431 36.8104 
676 1 12385 12386 12379 12384 7.205 
677 2 12578 12581 12582 12575 29.8857 
678 1 12379 12385 12378 12380 2.16113 
679 2 13119 13124 13118 13122 35.4578 
680 2 13119 13123 13118 13122 34.9263 
681 1 12445 12444 12447 12449 23.3911 
682 2 13115 13118 13126 13114 37.2943 
683 2 11083 11086 11087 11082 37.855 
684 2 11083 11086 11088 11082 42.6648 
685 1 12380 12417 12379 12381 2.06137 
686 2 12418 12417 12419 12420 29.2304 
687 2 12418 12417 12419 12421 28.4637 
688 2 13114 13115 13116 13113 34.7245 
689 2 13114 13115 13117 13113 34.9404 
690 2 13118 13115 13119 13120 35.8048 
691 2 13118 13115 13119 13121 25.3231 
692 2 13125 13115 13127 13128 28.8243 
693 2 13125 13115 13127 13129 28.0927 
694 2 12419 12418 12429 12422 31.9334 
695 2 12419 12418 12430 12422 40.8219 
696 2 12570 12572 12573 12560 32.2628 
697 2 12570 12572 12574 12560 34.2603 
698 1 11001 11000 11003 11005 27.6243 
699 2 25572 25575 25576 25569 34.5022 
700 1 11007 11008 11003 11006 20.8398 
701 1 11003 11001 11004 11007 30.2507 
702 1 25544 25542 25545 25548 19.6534 
703 2 34294 34298 34284 34296 37.7255 
704 2 34302 34306 34299 34305 31.2217 
705 2 11028 11032 11025 11031 39.9169 
706 2 11025 11028 11029 11023 40.2967 
707 2 11025 11028 11030 11023 42.9898 
708 2 11031 11028 11034 11036 37.5349 
709 2 11023 11025 11026 11013 34.6589 
710 2 11023 11025 11027 11013 35.7049 
711 2 11012 11011 11013 11014 24.1969 
712 2 11012 11011 11013 11015 35.1971 
713 2 34287 34284 34288 34289 28.0593 
714 2 34294 34284 34296 34297 28.9975 
715 2 34287 34290 34284 34288 30.8715 
716 1 34245 34282 34244 34246 7.6834 
717 2 34283 34282 34284 34285 27.412 
718 2 34283 34282 34284 34286 30.4151 
719 2 34284 34283 34294 34287 29.1199 
720 2 34284 34283 34295 34287 35.5072 
721 2 34288 34291 34292 34287 39.71 
722 2 34288 34291 34293 34287 33.094 
723 2 11675 11680 11674 11678 21.7086 
724 2 11675 11679 11674 11678 32.4464 
725 1 34250 34251 34244 34249 3.14755 
726 1 34244 34250 34243 34245 1.37312 
727 1 34243 34242 34244 34248 4.1702 
728 1 34247 34242 34246 34254 0.239407 
729 2 28864 28866 28867 28854 41.0348 
730 2 28864 28866 28868 28854 36.9422 
731 2 28866 28869 28870 28864 28.436 
732 2 28866 28869 28871 28864 32.815 
733 2 28872 28869 28875 28877 35.0082 
734 2 28872 28875 28876 28869 37.8346 
735 2 28869 28874 28872 28866 32.5741 
736 1 34242 34243 34247 34256 4.31706 
737 5 34249 34248 34250 34308 1.66902 
738 2 28869 28873 28866 28872 37.6117 
739 2 28754 28755 28756 28751 40.078 
740 2 28754 28755 28757 28751 33.5006 
741 3 25035 25036 25037 25032 3.54009 
742 2 28663 28667 28660 28666 32.7344 
743 2 28666 28669 28670 28663 37.4006 
744 1 25032 25035 25031 25033 19.8896 
745 2 25039 25050 25042 25038 35.0667 
746 2 25051 25054 25055 25049 34.3675 
747 2 25051 25054 25056 25049 35.156 
748 2 25057 25054 25060 25062 34.5429 
749 2 25049 25051 25052 25039 27.6896 
750 2 25049 25051 25053 25039 38.2807 
751 2 25038 25037 25039 25040 32.1284 
752 2 25038 25037 25039 25041 28.0442 
753 2 25043 25042 25046 25047 40.3191 
754 2 25043 25042 25046 25048 24.5375 
755 2 25039 25042 25038 25049 33.0263 
756 2 28688 28691 28699 28687 39.993 
757 2 28687 28688 28689 28686 43.4417 
758 2 28687 28688 28690 28686 40.1672 
759 2 28691 28688 28692 28693 30.5671 
760 2 28691 28688 28692 28694 29.0948 
761 2 28698 28688 28700 28701 33.5086 
762 2 28698 28688 28700 28702 26.2061 
763 2 28688 28698 28691 28687 30.8053 
764 1 31774 31775 31768 31773 5.55783 
765 1 31768 31774 31767 31769 5.6973 
766 4 31832 31834 31833 31773 6.48297 
767 4 31836 31834 31835 31880 4.23624 
768 5 28679 28678 28680 28738 2.04856 
769 1 28672 28673 28677 28686 14.1314 
770 1 28673 28672 28674 28678 5.18686 
771 1 28677 28672 28676 28684 5.06308 
772 1 31833 31832 31835 31837 25.401 
773 1 31835 31833 31836 31839 26.3748 
774 2 31889 31894 31888 31892 28.9336 
775 5 31773 31772 31774 31832 5.52182 
776 2 14210 14221 14213 14209 42.1444 
777 2 14213 14214 14215 14210 38.3459 
778 2 14213 14214 14216 14210 37.1653 
779 2 14214 14213 14217 14218 37.2984 
780 2 14214 14213 14217 14219 29.3434 
781 2 14210 14213 14209 14220 24.7853 
782 2 31786 31790 31785 31789 30.7502 
783 2 31786 31791 31785 31789 36.8607 