ITEM: TIMESTEP
0
ITEM: NUMBER OF ENTRIES
14340
ITEM: BOX BOUNDS pp pp pp
96.8685 158.131
96.8685 158.131
96.8685 158.131
ITEM: ENTRIES index c_1[1] c_1[2] c_1[3] c_1[4] c_1[5] c_2 
1 2 8129 8132 8133 8128 28.2099 
2 2 8129 8132 8134 8128 36.0426 
3 2 8132 8135 8136 8129 35.4854 
4 2 8135 8138 8139 8132 30.6122 
5 2 8135 8138 8140 8132 32.1759 
6 2 8141 8138 8144 8145 35.8379 
7 2 8157 8154 8160 8162 34.0131 
8 2 8128 8130 8126 8129 35.2434 
9 2 10447 10452 10444 10450 30.1949 
10 2 10444 10447 10448 10441 33.0751 
11 2 10444 10447 10449 10441 36.3553 
12 2 8132 8129 8135 8137 33.203 
13 2 8128 8131 8126 8129 38.4244 
14 1 8123 8122 8126 8127 1.58977 
15 1 8126 8123 8125 8128 14.428 
16 3 8122 8123 8124 8101 0.0721014 
17 3 12036 12035 12037 12059 5.26771 
18 1 12034 12033 12037 12038 16.0363 
19 2 8110 8113 8114 8107 37.3095 
20 2 8110 8113 8115 8107 36.6297 
21 2 8116 8113 8119 8120 28.3497 
22 3 8101 8102 8099 8122 2.39319 
23 1 12037 12034 12036 12039 6.74408 
24 2 21468 21465 21471 21473 32.5348 
25 2 21465 21468 21469 21464 35.8521 
26 2 21465 21468 21470 21464 33.7228 
27 2 21474 21477 21478 21471 40.4798 
28 2 21474 21477 21479 21471 32.7777 
29 2 8078 8081 8076 8079 35.6946 
30 2 21477 21482 21474 21480 22.3392 
31 2 21471 21474 21475 21468 38.4078 
32 2 21471 21474 21476 21468 28.9824 
33 2 21477 21474 21480 21481 40.5374 
34 2 21468 21471 21472 21465 29.5111 
35 1 4590 4589 4591 4592 12.0878 
36 3 4593 4594 4591 4614 4.18777 
37 2 4549 4546 4552 4554 29.5975 
38 3 4567 4566 4568 4589 3.13757 
39 2 4574 4571 4577 4579 22.404 
40 2 11742 11745 11746 11739 31.2624 
41 2 4570 4573 4568 4571 33.1707 
42 2 4570 4572 4568 4571 35.5272 
43 1 4591 4590 4593 4595 9.17565 
44 3 4589 4590 4594 4567 1.43136 
45 2 7377 7380 7381 7376 36.3104 
46 2 7377 7380 7382 7376 38.4821 
47 2 7380 7377 7383 7385 38.8645 
48 2 7380 7383 7384 7377 30.2778 
49 2 11770 11773 11774 11767 31.1549 
50 2 11770 11773 11775 11767 33.274 
51 2 11776 11773 11779 11780 34.0029 
52 2 11773 11776 11777 11770 41.2848 
53 2 11773 11776 11778 11770 31.7034 
54 2 7376 7379 7374 7377 33.6889 
55 2 7376 7378 7374 7377 37.962 
56 2 11776 11781 11773 11779 35.2003 
57 3 7373 7372 7374 7395 4.06871 
58 1 7371 7370 7374 7375 9.2518 
59 2 19518 19521 19522 19515 31.5605 
60 2 19518 19521 19523 19515 37.6707 
61 1 7396 7395 7397 7398 4.70408 
62 2 19515 19518 19519 19512 37.9967 
63 2 19515 19518 19520 19512 37.128 
64 2 19521 19518 19524 19525 37.6608 
65 2 19521 19526 19518 19524 26.912 
66 3 7399 7400 7397 7420 2.55291 
67 1 7397 7396 7399 7401 6.96444 
68 3 7395 7396 7400 7373 3.59286 
69 1 7374 7371 7373 7376 9.72607 
70 3 7370 7371 7372 7349 5.52282 
71 2 7351 7353 7347 7352 32.7553 
72 2 19537 19540 19541 19534 31.9079 
73 2 19512 19515 19516 19509 35.9615 
74 2 19534 19537 19538 19533 38.3202 
75 2 19534 19537 19539 19533 39.0901 
76 1 19528 19527 19529 19530 9.04259 
77 2 19537 19534 19540 19542 32.3621 
78 2 19533 19535 19529 19534 39.2441 
79 1 19529 19528 19531 19533 2.56144 
80 3 19527 19528 19532 19505 4.60624 
81 2 19508 19510 19506 19509 36.7605 
82 2 5278 5281 5282 5275 43.7578 
83 2 5278 5281 5283 5275 28.7203 
84 2 5284 5281 5287 5288 25.7007 
85 2 6584 6587 6588 6581 29.127 
86 2 6584 6587 6589 6581 36.0003 
87 2 6559 6562 6563 6556 39.399 
88 2 6559 6562 6564 6556 32.3953 
89 2 6556 6559 6560 6553 36.802 
90 2 6556 6559 6561 6553 32.2607 
91 2 6562 6559 6565 6566 26.3467 
92 2 6553 6556 6557 6550 34.0109 
93 2 6562 6567 6559 6565 35.2904 
94 2 6578 6575 6581 6583 27.2697 
95 2 6578 6581 6582 6575 38.8121 
96 2 6550 6553 6554 6549 35.7998 
97 2 6550 6553 6555 6549 40.0943 
98 1 6595 6594 6597 6599 0.616385 
99 3 6593 6594 6598 6571 1.27222 
100 1 6572 6569 6571 6574 10.3292 
101 3 6568 6569 6570 6547 3.45893 
102 2 7264 7269 7261 7267 32.5282 
103 2 6549 6551 6545 6550 33.3414 
104 1 6594 6593 6595 6596 5.25447 
105 3 6571 6570 6572 6593 2.45008 
106 2 7258 7261 7262 7255 29.734 
107 2 7258 7261 7263 7255 41.0797 
108 2 7264 7261 7267 7268 35.822 
109 2 7261 7264 7265 7258 27.5492 
110 2 7261 7264 7266 7258 31.7616 
111 2 7161 7164 7165 7158 30.229 
112 2 7161 7164 7166 7158 37.0968 
113 2 7164 7169 7161 7167 34.7897 
114 1 6569 6568 6572 6573 11.7052 
115 3 6597 6598 6595 6618 3.23175 
116 2 8188 8191 8192 8185 34.6959 
117 2 8188 8191 8193 8185 37.8615 
118 2 8191 8196 8188 8194 32.3789 
119 2 10441 10444 10445 10438 31.8099 
120 2 10441 10444 10446 10438 38.5698 
121 2 10447 10444 10450 10451 35.2374 
122 2 8185 8188 8189 8182 37.4631 
123 2 8185 8188 8190 8182 35.6066 
124 2 8191 8188 8194 8195 31.9884 
125 2 8182 8185 8186 8179 34.3788 
126 2 10438 10441 10442 10435 32.8043 
127 2 10435 10438 10439 10434 38.2209 
128 2 10435 10438 10440 10434 42.8477 
129 2 9966 9969 9970 9963 41.6796 
130 2 9966 9969 9971 9963 34.0861 
131 2 9972 9969 9975 9976 36.9566 
132 2 9969 9972 9973 9966 34.0542 
133 2 9969 9972 9974 9966 30.8044 
134 2 8138 8141 8142 8135 33.2148 
135 2 8138 8141 8143 8135 37.9935 
136 2 8141 8146 8138 8144 36.4781 
137 2 6724 6726 6722 6725 37.8832 
138 2 6724 6727 6722 6725 31.3382 
139 2 6728 6725 6731 6733 38.9683 
140 1 6722 6719 6721 6724 2.02583 
141 3 6718 6719 6720 6697 2.81428 
142 2 20663 20666 20667 20662 33.0298 
143 2 20663 20666 20668 20662 33.1964 
144 2 20666 20669 20670 20663 33.2665 
145 3 12087 12086 12088 12109 3.65072 
146 2 20669 20672 20673 20666 36.3326 
147 2 20669 20672 20674 20666 35.6653 
148 2 20675 20672 20678 20679 32.6169 
149 2 8107 8110 8111 8104 38.8538 
150 2 8116 8121 8113 8119 34.4817 
151 2 8113 8116 8117 8110 30.9615 
152 2 8113 8116 8118 8110 32.0968 
153 2 20672 20675 20676 20669 37.5059 
154 2 20672 20675 20677 20669 38.0528 
155 2 12066 12069 12070 12065 34.9834 
156 2 12066 12069 12071 12065 37.5481 
157 2 12069 12066 12072 12074 29.2912 
158 2 20675 20680 20672 20678 31.0525 
159 1 12061 12060 12063 12065 3.27944 
160 3 12059 12060 12064 12036 1.49617 
161 2 12065 12068 12061 12066 30.2745 
162 2 21464 21466 21462 21465 31.2953 
163 2 21464 21467 21462 21465 40.857 
164 3 21487 21488 21485 21508 1.04808 
165 1 21484 21483 21485 21486 1.69818 
166 1 21462 21459 21461 21464 3.9077 
167 3 21458 21459 21460 21437 1.58789 
168 1 21485 21484 21487 21489 13.8438 
169 3 21483 21484 21488 21461 4.1146 
170 3 21461 21460 21462 21483 0.121968 
171 1 21459 21458 21462 21463 3.66419 
172 2 4546 4549 4550 4545 30.9774 
173 2 4546 4549 4551 4545 37.5406 
174 2 4552 4555 4556 4549 35.266 
175 2 4552 4555 4557 4549 39.2056 
176 2 4558 4555 4561 4562 31.5609 
177 2 4555 4558 4559 4552 33.6594 
178 2 4555 4558 4560 4552 30.0818 
179 2 18194 18199 18191 18197 34.5002 
180 2 4571 4574 4575 4570 31.7077 
181 2 4571 4574 4576 4570 33.8705 
182 2 4549 4552 4553 4546 38.0281 
183 2 18185 18188 18189 18182 36.6479 
184 2 4577 4580 4581 4574 33.3228 
185 2 4577 4580 4582 4574 35.3492 
186 2 4583 4580 4586 4587 34.7929 
187 2 4574 4577 4578 4571 43.5401 
188 2 18191 18194 18195 18188 39.4819 
189 2 18191 18194 18196 18188 40.9865 
190 2 18188 18191 18192 18185 31.106 
191 2 18188 18191 18193 18185 36.1313 
192 2 18194 18191 18197 18198 29.9406 
193 2 11763 11766 11759 11764 38.6725 
194 2 11767 11764 11770 11772 29.7841 
195 1 11759 11758 11761 11763 1.01576 
196 3 11757 11758 11762 11735 0.576412 
197 3 11761 11762 11759 11782 0.0165345 
198 1 11783 11782 11786 11787 3.15341 
199 1 11758 11757 11759 11760 3.06892 
200 2 11763 11765 11759 11764 33.6043 
201 3 11785 11784 11786 11807 2.39827 
202 1 11786 11783 11785 11788 9.82893 
203 3 11782 11783 11784 11761 0.000496325 
204 2 7361 7364 7365 7358 37.2653 
205 2 7361 7364 7366 7358 32.209 
206 2 5310 5315 5307 5313 37.0356 
207 2 5307 5310 5311 5304 32.0058 
208 2 5307 5310 5312 5304 35.364 
209 2 7351 7354 7347 7352 27.3063 
210 2 5301 5298 5304 5306 32.4701 
211 2 7355 7352 7358 7360 29.1995 
212 2 7355 7358 7359 7352 39.5175 
213 2 5298 5301 5302 5297 38.8809 
214 2 5298 5301 5303 5297 34.5259 
215 2 5301 5304 5305 5298 31.4773 
216 2 7352 7355 7356 7351 34.5493 
217 2 7352 7355 7357 7351 38.7309 
218 2 7358 7361 7362 7355 33.9135 
219 2 7358 7361 7363 7355 33.2084 
220 2 7364 7361 7367 7368 23.8756 
221 2 4253 4256 4257 4250 36.7465 
222 2 4253 4256 4258 4250 37.3721 
223 2 4256 4261 4253 4259 23.8975 
224 2 5281 5284 5285 5278 33.701 
225 2 5281 5284 5286 5278 38.0061 
226 2 5284 5289 5281 5287 40.4442 
227 2 6836 6839 6840 6833 36.0164 
228 2 6836 6839 6841 6833 43.2127 
229 2 6839 6844 6836 6842 32.8217 
230 2 7201 7204 7197 7202 29.3863 
231 2 5275 5278 5279 5272 35.0103 
232 2 6833 6836 6837 6830 38.5154 
233 2 6833 6836 6838 6830 33.7223 
234 2 6839 6836 6842 6843 34.3434 
235 2 5272 5275 5276 5271 37.2878 
236 2 5272 5275 5277 5271 36.9175 
237 3 7249 7250 7247 7270 5.03705 
238 1 7246 7245 7247 7248 5.57028 
239 1 7221 7220 7224 7225 0.924651 
240 3 7223 7222 7224 7245 2.31323 
241 1 7224 7221 7223 7226 9.76479 
242 3 7220 7221 7222 7199 5.54907 
243 2 7226 7228 7224 7227 34.8877 
244 2 7226 7229 7224 7227 31.7053 
245 1 7247 7246 7249 7251 9.00088 
246 3 7245 7246 7250 7223 1.28789 
247 2 6481 6484 6485 6478 33.4846 
248 2 6481 6484 6486 6478 33.2665 
249 2 6487 6484 6490 6491 34.6481 
250 2 6484 6487 6488 6481 37.7222 
251 2 6484 6487 6489 6481 29.708 
252 2 6487 6492 6484 6490 34.776 
253 2 7252 7255 7256 7251 38.8508 
254 2 7252 7255 7257 7251 34.8959 
255 2 7255 7258 7259 7252 39.4943 
256 2 6478 6481 6482 6475 29.6027 
257 2 6475 6478 6479 6474 30.3612 
258 2 6475 6478 6480 6474 33.0069 
259 2 6478 6475 6481 6483 36.9427 
260 2 7186 7189 7190 7183 39.1918 
261 2 7186 7189 7191 7183 32.9441 
262 2 6512 6517 6509 6515 35.4413 
263 2 6509 6512 6513 6506 32.6114 
264 2 6509 6512 6514 6506 32.2252 
265 2 6500 6503 6504 6499 42.4017 
266 2 6500 6503 6505 6499 31.9549 
267 2 6503 6506 6507 6500 33.5573 
268 2 6506 6509 6510 6503 32.0696 
269 2 6506 6509 6511 6503 33.9241 
270 2 6512 6509 6515 6516 19.3999 
271 2 7189 7194 7186 7192 31.3644 
272 2 6503 6500 6506 6508 27.584 
273 2 17705 17708 17709 17704 38.6092 
274 2 17705 17708 17710 17704 32.4793 
275 2 17708 17711 17712 17705 41.5292 
276 1 6744 6743 6745 6746 6.92081 
277 2 17708 17705 17711 17713 26.6439 
278 3 6721 6720 6722 6743 1.97614 
279 1 6745 6744 6747 6749 0.83947 
280 3 6743 6744 6748 6721 3.16352 
281 1 6719 6718 6722 6723 6.85968 
282 2 17742 17747 17739 17745 30.5041 
283 1 12138 12135 12137 12140 4.25783 
284 3 12134 12135 12136 12113 3.76117 
285 3 12113 12114 12111 12134 0.0879909 
286 3 12137 12136 12138 12159 2.56406 
287 1 12135 12134 12138 12139 6.32743 
288 3 12163 12164 12161 12184 2.05202 
289 2 20650 20655 20647 20653 35.7574 
290 1 12160 12159 12161 12162 5.01468 
291 2 6725 6728 6729 6724 39.2721 
292 2 6725 6728 6730 6724 29.0751 
293 2 12115 12118 12111 12116 33.7275 
294 2 21524 21527 21528 21521 31.1654 
295 2 21524 21527 21529 21521 33.9175 
296 2 21521 21524 21525 21518 33.0721 
297 2 21521 21524 21526 21518 30.3432 
298 2 21527 21524 21530 21531 36.9156 
299 2 21518 21521 21522 21515 32.0951 
300 2 21527 21532 21524 21530 34.1244 
301 1 12110 12109 12111 12112 8.33938 
302 2 21515 21518 21519 21514 33.0509 
303 2 21515 21518 21520 21514 35.8334 
304 2 12069 12072 12073 12066 35.7852 
305 2 12072 12075 12076 12069 42.352 
306 2 12072 12075 12077 12069 37.2645 
307 2 12078 12075 12081 12082 29.6408 
308 2 21518 21515 21521 21523 32.2647 
309 2 12075 12078 12079 12072 36.9593 
310 2 12075 12078 12080 12072 33.491 
311 2 3641 3643 3637 3642 30.4854 
312 2 3642 3645 3646 3641 34.8741 
313 2 3642 3645 3647 3641 39.91 
314 1 12111 12110 12113 12115 3.11643 
315 3 12109 12110 12114 12087 0.982262 
316 2 3641 3644 3637 3642 35.8231 
317 2 12115 12117 12111 12116 31.9188 
318 2 21493 21490 21496 21498 28.5918 
319 2 12078 12083 12075 12081 34.9856 
320 2 21496 21499 21500 21493 38.2255 
321 2 21496 21499 21501 21493 39.3601 
322 2 21502 21499 21505 21506 37.8313 
323 2 21493 21496 21497 21490 34.4947 
324 2 11801 11806 11798 11804 33.7002 
325 2 18232 18235 18236 18231 36.5187 
326 2 18232 18235 18237 18231 35.2011 
327 2 18238 18241 18242 18235 32.2573 
328 2 18238 18241 18243 18235 33.8472 
329 2 18244 18241 18247 18248 39.7469 
330 2 18235 18238 18239 18232 36.4252 
331 2 18241 18244 18245 18238 28.7311 
332 2 18241 18244 18246 18238 37.3755 
333 2 18244 18249 18241 18247 26.6764 
334 2 11788 11791 11786 11789 31.8486 
335 3 21337 21338 21335 21358 6.78273 
336 2 6876 6879 6874 6877 41.1132 
337 2 21265 21268 21269 21264 31.8334 
338 2 21265 21268 21270 21264 35.5692 
339 2 21268 21265 21271 21273 33.4822 
340 2 21268 21271 21272 21265 29.277 
341 2 21264 21266 21262 21265 35.1425 
342 2 21271 21274 21275 21268 37.6796 
343 2 21271 21274 21276 21268 31.2488 
344 2 21277 21274 21280 21281 37.9503 
345 2 21274 21277 21278 21271 25.2907 
346 2 21274 21277 21279 21271 36.3474 
347 2 6876 6878 6874 6877 33.4874 
348 2 21277 21282 21274 21280 27.8734 
349 3 21311 21310 21312 21333 3.42 
350 2 5297 5299 5293 5298 32.3157 
351 2 5304 5307 5308 5301 35.1292 
352 2 5304 5307 5309 5301 34.172 
353 2 5310 5307 5313 5314 27.8811 
354 2 5297 5300 5293 5298 34.8977 
355 3 6873 6872 6874 6895 1.18306 
356 1 6871 6870 6874 6875 2.41289 
357 3 6849 6850 6847 6870 4.53394 
358 1 6846 6845 6847 6848 2.83797 
359 1 6847 6846 6849 6851 0.746367 
360 3 6845 6846 6850 6823 2.38669 
361 2 6851 6853 6847 6852 35.4981 
362 1 6874 6871 6873 6876 0.657268 
363 3 6870 6871 6872 6849 2.62083 
364 2 6855 6852 6858 6860 30.7171 
365 2 6851 6854 6847 6852 32.7451 
366 2 13954 13957 13958 13951 31.891 
367 2 13954 13957 13959 13951 38.6652 
368 2 13957 13962 13954 13960 27.0488 
369 2 6830 6827 6833 6835 31.1408 
370 2 6830 6833 6834 6827 37.2586 
371 2 6827 6830 6831 6826 36.4125 
372 2 6827 6830 6832 6826 35.1592 
373 2 7211 7214 7215 7208 33.0203 
374 2 7211 7214 7216 7208 36.2008 
375 1 6824 6821 6823 6826 2.11413 
376 3 6820 6821 6822 6799 2.37999 
377 1 6821 6820 6824 6825 1.83801 
378 2 6826 6828 6824 6827 39.7406 
379 2 6826 6829 6824 6827 34.5553 
380 2 7227 7230 7231 7226 38.2501 
381 2 7227 7230 7232 7226 36.8204 
382 2 7214 7219 7211 7217 29.4969 
383 2 7230 7227 7233 7235 26.1357 
384 2 7230 7233 7234 7227 40.1383 
385 2 7233 7236 7237 7230 32.8414 
386 2 7233 7236 7238 7230 40.4838 
387 2 7239 7236 7242 7243 33.3332 
388 3 6772 6771 6773 6795 0.0281438 
389 2 17611 17614 17615 17608 33.6787 
390 2 17611 17614 17616 17608 31.3581 
391 2 17617 17614 17620 17621 35.875 
392 2 17608 17611 17612 17605 34.2073 
393 1 6770 6769 6773 6774 3.5085 
394 2 17617 17622 17614 17620 31.9425 
395 3 17701 17700 17702 17723 4.39374 
396 2 17614 17617 17618 17611 36.2109 
397 2 17614 17617 17619 17611 36.248 
398 2 17605 17608 17609 17604 34.5784 
399 2 17605 17608 17610 17604 40.5803 
400 3 17727 17728 17725 17748 0.288621 
401 2 12175 12178 12179 12172 36.6858 
402 2 12175 12178 12180 12172 36.5604 
403 2 12172 12175 12176 12169 35.8644 
404 2 12172 12175 12177 12169 34.2833 
405 2 12178 12175 12181 12182 23.0312 
406 2 12178 12183 12175 12181 39.359 
407 1 17725 17724 17727 17729 1.81941 
408 3 17723 17724 17728 17701 3.2603 
409 1 17724 17723 17725 17726 8.52421 
410 1 17702 17699 17701 17704 3.95401 
411 3 17698 17699 17700 17677 5.15057 
412 2 12169 12172 12173 12166 30.9146 
413 2 6474 6476 6472 6475 39.0266 
414 2 6728 6731 6732 6725 23.1208 
415 2 17704 17706 17702 17705 37.2396 
416 2 17704 17707 17702 17705 34.8508 
417 1 12161 12160 12163 12165 1.46877 
418 3 12159 12160 12164 12137 0.286175 
419 2 12169 12166 12172 12174 32.9273 
420 2 12166 12169 12170 12165 37.1154 
421 2 12166 12169 12171 12165 33.9698 
422 2 12165 12168 12161 12166 33.2952 
423 2 6731 6734 6735 6728 32.1245 
424 2 6731 6734 6736 6728 37.0999 
425 2 6737 6734 6740 6741 31.5965 
426 2 12165 12167 12161 12166 33.5714 
427 2 12140 12142 12138 12141 33.4114 
428 2 20647 20650 20651 20644 31.8512 
429 2 20647 20650 20652 20644 36.7024 
430 2 20644 20647 20648 20641 39.7686 
431 2 20644 20647 20649 20641 40.1324 
432 2 20650 20647 20653 20654 31.7207 
433 2 12147 12150 12151 12144 39.619 
434 2 12147 12150 12152 12144 34.1645 
435 2 12153 12150 12156 12157 37.0418 
436 2 12144 12147 12148 12141 34.547 
437 2 12150 12153 12154 12147 29.6929 
438 2 12150 12153 12155 12147 37.7095 
439 2 12141 12144 12145 12140 34.5554 
440 2 12141 12144 12146 12140 44.6607 
441 2 12153 12158 12150 12156 31.4534 
442 2 12144 12141 12147 12149 33.2751 
443 2 3666 3668 3664 3667 43.62 
444 2 3645 3642 3648 3650 27.9918 
445 2 19767 19770 19771 19764 34.708 
446 2 19767 19770 19772 19764 34.4815 
447 2 19773 19770 19776 19777 31.4262 
448 2 19764 19767 19768 19761 40.0901 
449 2 19770 19773 19774 19767 32.7137 
450 2 19770 19773 19775 19767 35.3543 
451 2 19773 19778 19770 19776 30.0513 
452 2 19761 19764 19765 19760 35.0887 
453 2 19761 19764 19766 19760 33.1513 
454 1 3637 3636 3639 3641 2.2502 
455 3 3635 3636 3640 3613 2.0396 
456 1 3661 3660 3664 3665 2.475 
457 3 3639 3640 3637 3660 1.93572 
458 1 3664 3661 3663 3666 2.97084 
459 3 3660 3661 3662 3639 0.195532 
460 3 3663 3662 3664 3685 4.64218 
461 2 10837 10840 10841 10836 37.4332 
462 2 10837 10840 10842 10836 39.0383 
463 2 10840 10843 10844 10837 34.1453 
464 2 10899 10904 10896 10902 34.8152 
465 2 10896 10899 10900 10893 29.6151 
466 2 10896 10899 10901 10893 31.0166 
467 2 10890 10893 10894 10887 32.7108 
468 2 10893 10896 10897 10890 32.1313 
469 2 10893 10896 10898 10890 35.0741 
470 2 10899 10896 10902 10903 29.2953 
471 2 10887 10890 10891 10886 33.8081 
472 2 10887 10890 10892 10886 37.6644 
473 1 21335 21334 21337 21339 4.10629 
474 3 21333 21334 21338 21311 1.20632 
475 2 21289 21292 21285 21290 35.3895 
476 2 10890 10887 10893 10895 27.6329 
477 2 10886 10889 10884 10887 32.4454 
478 1 21334 21333 21335 21336 1.70824 
479 2 21314 21316 21312 21315 26.1567 
480 2 21343 21340 21346 21348 28.5373 
481 2 10886 10888 10884 10887 38.181 
482 2 21314 21317 21312 21315 38.3615 
483 2 21315 21318 21319 21314 33.5577 
484 2 21315 21318 21320 21314 34.8991 
485 2 760 763 764 759 31.0016 
486 2 760 763 765 759 35.6272 
487 2 763 760 766 768 33.2808 
488 1 21309 21308 21312 21313 10.8579 
489 2 21318 21315 21321 21323 27.0065 
490 1 21312 21309 21311 21314 17.0496 
491 3 21308 21309 21310 21287 5.51149 
492 1 757 754 756 759 1.54043 
493 2 759 762 757 760 36.7267 
494 1 754 753 757 758 2.37584 
495 1 780 779 781 782 0.285201 
496 2 759 761 757 760 36.802 
497 2 13969 13971 13965 13970 35.1534 
498 2 13973 13970 13976 13978 29.4983 
499 2 13969 13972 13965 13970 32.782 
500 2 13970 13973 13974 13969 33.381 
501 2 13970 13973 13975 13969 39.5655 
502 1 13992 13989 13991 13994 0.447057 
503 3 13988 13989 13990 13967 1.15508 
504 1 13989 13988 13992 13993 10.4427 
505 1 13965 13964 13967 13969 11.2963 
506 3 13963 13964 13968 13941 2.29638 
507 2 13973 13976 13977 13970 32.4054 
508 1 781 780 783 785 0.0277731 
509 3 779 780 784 756 2.63228 
510 1 6372 6369 6371 6374 14.1466 
511 3 6368 6369 6370 6347 0.377313 
512 2 13979 13982 13983 13976 40.3526 
513 2 13979 13982 13984 13976 32.9271 
514 2 13976 13979 13980 13973 34.376 
515 2 13976 13979 13981 13973 32.4327 
516 2 13982 13979 13985 13986 37.2482 
517 3 6823 6822 6824 6845 1.4095 
518 2 13994 13997 13992 13995 34.7563 
519 2 13998 13995 14001 14003 32.9856 
520 3 6799 6800 6797 6820 2.97156 
521 2 13998 14001 14002 13995 31.234 
522 2 14001 14004 14005 13998 34.9682 
523 2 14001 14004 14006 13998 39.9948 
524 2 14007 14004 14010 14011 32.9083 
525 2 13995 13998 13999 13994 39.7382 
526 2 13995 13998 14000 13994 38.3898 
527 2 13982 13987 13979 13985 32.8257 
528 1 6796 6795 6797 6798 0.872982 
529 2 6775 6778 6773 6776 37.5086 
530 2 14004 14007 14008 14001 38.2596 
531 2 14004 14007 14009 14001 35.6859 
532 2 14007 14012 14004 14010 34.6611 
533 2 6779 6776 6782 6784 28.0123 
534 2 6779 6782 6783 6776 37.4487 
535 1 17625 17624 17627 17629 3.61157 
536 3 17623 17624 17628 17601 0.868878 
537 1 6773 6770 6772 6775 3.68845 
538 2 6775 6777 6773 6776 33.8379 
539 2 6776 6779 6780 6775 40.092 
540 2 6776 6779 6781 6775 36.8081 
541 2 17608 17605 17611 17613 27.9218 
542 1 17602 17599 17601 17604 18.0961 
543 3 17598 17599 17600 17577 3.13421 
544 1 17624 17623 17625 17626 0.883828 
545 3 17627 17628 17625 17648 0.757607 
546 2 17604 17606 17602 17605 31.1474 
547 2 17604 17607 17602 17605 38.7466 
548 1 17599 17598 17602 17603 8.16523 
549 3 17601 17600 17602 17623 1.84072 
550 2 17789 17792 17793 17786 32.5919 
551 2 17789 17792 17794 17786 37.3998 
552 2 17786 17789 17790 17783 35.0142 
553 2 17786 17789 17791 17783 39.3885 
554 2 17792 17789 17795 17796 30.1843 
555 2 17783 17780 17786 17788 23.7586 
556 2 17783 17786 17787 17780 38.5156 
557 2 17780 17783 17784 17779 35.4891 
558 2 17780 17783 17785 17779 33.7427 
559 2 10366 10369 10370 10363 36.035 
560 2 10366 10369 10371 10363 33.1847 
561 2 10372 10369 10375 10376 32.8755 
562 3 12187 12186 12188 12209 1.29398 
563 1 12210 12209 12211 12212 6.33291 
564 1 12185 12184 12188 12189 8.82408 
565 1 12211 12210 12213 12215 8.127 
566 3 12209 12210 12214 12187 2.33439 
567 2 15086 15091 15083 15089 29.5459 
568 3 12213 12214 12211 12234 2.71627 
569 1 12188 12185 12187 12190 8.11275 
570 3 12184 12185 12186 12163 0.841076 
571 1 15069 15068 15071 15073 0.399685 
572 3 15067 15068 15072 15044 3.4137 
573 2 15047 15049 15045 15048 31.5553 
574 2 15051 15048 15054 15056 36.0293 
575 2 15048 15051 15052 15047 36.093 
576 2 15048 15051 15053 15047 29.7131 
577 1 15068 15067 15069 15070 2.67465 
578 2 15077 15074 15080 15082 27.2129 
579 2 17842 17847 17839 17845 36.4905 
580 1 15045 15042 15044 15047 4.70989 
581 2 19760 19762 19758 19761 29.5191 
582 2 19760 19763 19758 19761 36.4009 
583 1 15042 15041 15045 15046 3.78029 
584 2 19764 19761 19767 19769 25.7816 
585 3 19783 19784 19781 19804 1.55962 
586 2 20114 20117 20118 20111 30.6006 
587 2 20117 20120 20121 20114 39.5683 
588 2 20117 20120 20122 20114 38.8553 
589 2 20123 20120 20126 20127 39.4967 
590 2 3670 3673 3674 3667 33.7674 
591 2 13527 13530 13531 13524 37.0642 
592 2 13527 13530 13532 13524 39.1204 
593 2 3670 3667 3673 3675 34.0097 
594 2 3673 3676 3677 3670 35.3516 
595 2 3673 3676 3678 3670 34.1834 
596 2 3679 3676 3682 3683 28.6817 
597 2 13530 13535 13527 13533 34.4617 
598 2 3667 3670 3671 3666 40.4556 
599 2 3667 3670 3672 3666 30.824 
600 2 10849 10854 10846 10852 30.1515 
601 2 10843 10846 10847 10840 34.7763 
602 2 10843 10846 10848 10840 30.1399 
603 2 10849 10846 10852 10853 35.9749 
604 2 10846 10849 10850 10843 30.7765 
605 2 10846 10849 10851 10843 40.9406 
606 2 10840 10837 10843 10845 31.0563 
607 2 18042 18047 18039 18045 28.6212 
608 3 10859 10860 10857 10880 1.151 
609 2 20198 20203 20195 20201 30.1604 
610 2 20195 20198 20199 20192 37.8234 
611 2 20195 20198 20200 20192 34.469 
612 1 10884 10881 10883 10886 1.58545 
613 3 10880 10881 10882 10859 0.702757 
614 1 10881 10880 10884 10885 9.59694 
615 3 10883 10882 10884 10905 0.858919 
616 2 20192 20195 20196 20189 36.0103 
617 2 20192 20195 20197 20189 27.1968 
618 2 20198 20195 20201 20202 26.1233 
619 2 11018 11021 11022 11015 35.1647 
620 2 11018 11021 11023 11015 35.2878 
621 2 11024 11021 11027 11028 31.2394 
622 2 21318 21321 21322 21315 36.6033 
623 2 21327 21332 21324 21330 38.3415 
624 2 21321 21324 21325 21318 38.6639 
625 2 21321 21324 21326 21318 34.5084 
626 2 21327 21324 21330 21331 28.5958 
627 2 10911 10914 10907 10912 33.5806 
628 2 21324 21327 21328 21321 35.8171 
629 2 21324 21327 21329 21321 40.8449 
630 1 10907 10906 10909 10911 6.41135 
631 3 10905 10906 10910 10883 0.572565 
632 1 10906 10905 10907 10908 14.8815 
633 2 10911 10913 10907 10912 32.9721 
634 2 10861 10864 10857 10862 31.9759 
635 3 10933 10932 10934 10955 1.2661 
636 2 785 788 781 786 36.8684 
637 3 13991 13990 13992 14013 4.03714 
638 2 795 798 799 792 29.4525 
639 2 795 798 800 792 35.6744 
640 2 785 787 781 786 30.7357 
641 2 786 789 790 785 33.6496 
642 2 786 789 791 785 35.1398 
643 1 14014 14013 14015 14016 3.41556 
644 1 14015 14014 14017 14019 3.66105 
645 3 14013 14014 14018 13991 3.09803 
646 2 792 795 796 789 32.8311 
647 2 792 795 797 789 30.891 
648 2 798 795 801 802 35.8366 
649 2 789 786 792 794 32.9315 
650 2 789 792 793 786 34.2598 
651 2 14023 14020 14026 14028 24.6113 
652 2 14020 14023 14024 14019 34.8224 
653 2 14020 14023 14025 14019 34.2325 
654 1 6369 6368 6372 6373 8.73587 
655 2 6353 6350 6356 6358 29.0363 
656 2 11291 11294 11295 11288 39.1415 
657 2 14019 14021 14015 14020 36.6932 
658 2 13994 13996 13992 13995 33.1412 
659 2 6349 6352 6345 6350 32.5367 
660 1 6345 6344 6347 6349 3.59463 
661 3 6343 6344 6348 6321 1.54308 
662 1 6344 6343 6345 6346 2.34356 
663 2 6324 6327 6322 6325 33.5595 
664 3 6347 6348 6345 6368 1.47278 
665 1 14042 14039 14041 14044 9.58795 
666 3 14038 14039 14040 14017 0.624073 
667 3 6321 6320 6322 6343 6.17002 
668 1 6319 6318 6322 6323 2.47208 
669 2 6299 6301 6295 6300 35.5516 
670 2 6303 6300 6306 6308 37.9173 
671 1 6294 6293 6295 6296 3.48373 
672 1 6295 6294 6297 6299 7.46602 
673 3 6293 6294 6298 6271 0.471351 
674 2 6300 6303 6304 6299 38.1386 
675 2 6300 6303 6305 6299 32.2719 
676 2 6303 6306 6307 6300 32.0328 
677 2 6299 6302 6295 6300 37.548 
678 2 17558 17561 17562 17555 34.3807 
679 3 6297 6298 6295 6318 6.01727 
680 2 4131 4136 4128 4134 36.1973 
681 2 17555 17558 17559 17554 32.4334 
682 2 17555 17558 17560 17554 32.0772 
683 2 17558 17555 17561 17563 29.2442 
684 2 17554 17557 17552 17555 37.8452 
685 3 17577 17578 17575 17598 0.323136 
686 1 17574 17573 17575 17576 10.5868 
687 3 17551 17550 17552 17573 0.846993 
688 2 12222 12225 12226 12219 35.1809 
689 2 12222 12225 12227 12219 33.2869 
690 2 12228 12225 12231 12232 33.3024 
691 2 12219 12222 12223 12216 35.3836 
692 1 17552 17549 17551 17554 2.60372 
693 3 17548 17549 17550 17527 2.82427 
694 2 17554 17556 17552 17555 40.6383 
695 2 15083 15086 15087 15080 37.3248 
696 2 15083 15086 15088 15080 34.8288 
697 2 15080 15083 15084 15077 40.0811 
698 2 15080 15083 15085 15077 32.5801 
699 2 15086 15083 15089 15090 35.7052 
700 2 15077 15080 15081 15074 34.7639 
701 2 12216 12219 12220 12215 32.3061 
702 2 12216 12219 12221 12215 38.1167 
703 2 12219 12216 12222 12224 27.2571 
704 2 15074 15077 15078 15073 34.7054 
705 2 15074 15077 15079 15073 38.4079 
706 2 12215 12217 12211 12216 31.64 
707 1 17549 17548 17552 17553 6.72994 
708 2 17529 17532 17525 17530 38.601 
709 2 15073 15076 15069 15074 30.6863 
710 3 15095 15094 15096 15117 3.23119 
711 1 15093 15092 15096 15097 0.828716 
712 3 15071 15072 15069 15092 1.91182 
713 2 19817 19820 19821 19814 38.3102 
714 2 19817 19820 19822 19814 31.2267 
715 2 19823 19820 19826 19827 24.6822 
716 2 17511 17514 17515 17508 34.2261 
717 2 17511 17514 17516 17508 36.6808 
718 2 17517 17514 17520 17521 31.9333 
719 2 17505 17508 17509 17504 35.0401 
720 2 17505 17508 17510 17504 32.971 
721 2 17504 17507 17502 17505 27.8062 
722 2 15073 15075 15069 15074 39.0017 
723 1 15096 15093 15095 15098 12.2455 
724 3 15092 15093 15094 15071 1.84641 
725 2 17504 17506 17502 17505 33.5506 
726 2 19814 19817 19818 19811 43.076 
727 2 19811 19814 19815 19810 34.0279 
728 2 19811 19814 19816 19810 31.0458 
729 2 19814 19811 19817 19819 23.5765 
730 2 19810 19813 19808 19811 33.1461 
731 2 19810 19812 19808 19811 29.0788 
732 1 19830 19829 19831 19832 12.0614 
733 1 19831 19830 19833 19835 16.229 
734 3 19829 19830 19834 19807 0.917016 
735 1 19808 19805 19807 19810 16.9136 
736 3 19804 19805 19806 19783 2.56978 
737 3 19807 19806 19808 19829 0.160229 
738 1 19805 19804 19808 19809 0.269659 
739 2 12525 12528 12529 12522 40.5518 
740 2 12525 12528 12530 12522 34.7882 
741 3 15044 15043 15045 15067 1.20364 
742 2 18029 18031 18025 18030 30.4436 
743 1 19855 19854 19858 19859 4.4254 
744 3 19833 19834 19831 19854 2.24517 
745 2 18033 18036 18037 18030 39.4726 
746 2 18030 18033 18034 18029 36.9981 
747 2 18030 18033 18035 18029 40.0564 
748 2 12753 12758 12750 12756 34.2828 
749 2 18036 18039 18040 18033 35.1203 
750 2 18036 18039 18041 18033 33.42 
751 2 18042 18039 18045 18046 41.2105 
752 2 18039 18042 18043 18036 36.6 
753 2 18039 18042 18044 18036 37.4443 
754 2 12747 12750 12751 12744 31.68 
755 2 12747 12750 12752 12744 35.9193 
756 2 12753 12750 12756 12757 29.9501 
757 2 12744 12747 12748 12741 37.3969 
758 1 13512 13511 13513 13514 3.07966 
759 2 12750 12753 12754 12747 36.4138 
760 2 12750 12753 12755 12747 31.6364 
761 2 12741 12744 12745 12740 34.1658 
762 2 12741 12744 12746 12740 36.5227 
763 2 10615 10618 10619 10612 39.4011 
764 2 10618 10621 10622 10615 35.9734 
765 2 10618 10621 10623 10615 34.0628 
766 2 10624 10621 10627 10628 33.222 
767 2 12765 12767 12761 12766 34.8869 
768 2 12765 12768 12761 12766 30.139 
769 2 10624 10629 10621 10627 35.269 
770 2 20189 20192 20193 20186 42.2703 
771 2 12769 12766 12772 12774 29.4944 
772 3 10959 10960 10957 10980 4.19489 
773 1 12761 12760 12763 12765 0.170844 
774 3 12759 12760 12764 12737 1.24354 
775 2 12766 12769 12770 12765 39.4901 
776 2 12766 12769 12771 12765 40.837 
777 1 12760 12759 12761 12762 1.39538 
778 2 11024 11029 11021 11027 30.4085 
779 2 11021 11024 11025 11018 39.1741 
780 2 11021 11024 11026 11018 29.8294 
781 2 4974 4977 4978 4971 38.3994 
782 2 4977 4980 4981 4974 35.4253 
783 2 4977 4980 4982 4974 32.2333 
784 2 4983 4980 4986 4987 28.0181 
785 1 10984 10981 10983 10986 6.40866 
786 3 10980 10981 10982 10959 4.5683 
787 2 4980 4983 4984 4977 36.3939 
788 2 4980 4983 4985 4977 31.2139 
789 1 11006 11005 11007 11008 0.0742477 
790 2 4983 4988 4980 4986 39.2476 
791 1 10981 10980 10984 10985 4.8979 
792 3 10983 10982 10984 11005 4.77395 
793 2 798 803 795 801 34.5179 
794 2 14023 14026 14027 14020 36.52 
795 2 4974 4971 4977 4979 25.7764 
796 2 4971 4974 4975 4970 30.1364 
797 2 4971 4974 4976 4970 45.1184 
798 2 4970 4973 4968 4971 33.892 
799 2 14048 14045 14051 14053 23.3687 
800 2 11297 11300 11301 11294 33.163 
801 2 11297 11300 11302 11294 35.4691 
802 2 11294 11297 11298 11291 34.6678 
803 2 11294 11297 11299 11291 36.0027 