ITEM: TIMESTEP
0
ITEM: NUMBER OF ENTRIES
29190
ITEM: BOX BOUNDS pp pp pp
40.0188 119.981
40.0188 119.981
40.0188 119.981
ITEM: ENTRIES index c_1[1] c_1[2] c_1[3] c_1[4] c_1[5] c_2 
1 3 3171 3172 3173 3168 17.8863 
2 1 3168 3171 3167 3169 19.278 
3 2 4558 4563 4557 4561 25.1187 
4 2 4558 4562 4557 4561 41.2328 
5 2 33988 33991 33992 33985 39.3269 
6 2 33988 33991 33985 33993 27.5001 
7 2 33985 33988 33989 33983 37.7195 
8 2 33985 33988 33990 33983 39.1407 
9 2 33991 33996 33994 33988 27.9981 
10 2 33991 33995 33988 33994 31.8302 
11 2 4554 4557 4565 4553 39.208 
12 2 33977 33980 33981 33976 35.3916 
13 2 33977 33980 33982 33976 34.4248 
14 1 37203 37204 37199 37202 9.72047 
15 1 37245 37244 37246 37238 10.1793 
16 1 37237 37243 37236 37238 2.67319 
17 5 37244 37243 37245 37200 3.45336 
18 2 38500 38503 38504 38497 36.3147 
19 2 38503 38500 38506 38508 34.9788 
20 2 38500 38497 38503 38505 28.7389 
21 2 38503 38506 38507 38500 36.4452 
22 1 37234 37233 37235 37239 2.73508 
23 1 37238 37233 37237 37245 2.78389 
24 1 37233 37234 37238 37247 2.11763 
25 2 38497 38501 38495 38500 35.0964 
26 5 37240 37239 37241 37299 1.39175 
27 2 37261 37265 37259 37264 32.2338 
28 2 37261 37266 37259 37264 33.7625 
29 2 38489 38494 38488 38492 32.7785 
30 2 27878 27881 27882 27875 39.4524 
31 2 26230 26233 26234 26227 34.288 
32 2 26227 26230 26231 26224 33.6679 
33 2 26211 26212 26213 26210 28.4334 
34 2 26211 26212 26214 26210 41.0673 
35 2 26215 26212 26216 26217 31.2484 
36 2 26215 26212 26216 26218 30.161 
37 2 26222 26212 26224 26225 31.5355 
38 2 26222 26212 26224 26226 28.2034 
39 2 26230 26227 26233 26235 37.7119 
40 2 26227 26224 26230 26232 28.722 
41 2 26224 26228 26222 26227 37.1529 
42 2 26224 26229 26222 26227 36.1281 
43 2 26212 26222 26215 26211 32.0866 
44 1 26166 26167 26162 26165 25.3549 
45 2 24917 24921 24914 24920 36.0125 
46 2 24914 24917 24918 24911 35.721 
47 2 24914 24917 24911 24919 35.6835 
48 1 26208 26207 26209 26201 4.20736 
49 1 26197 26196 26198 26202 7.2562 
50 1 26201 26196 26200 26208 4.38921 
51 1 26196 26197 26201 26210 12.6002 
52 1 26198 26204 26197 26199 7.24681 
53 1 26199 26236 26198 26200 4.7158 
54 2 26237 26236 26238 26239 24.6965 
55 2 26237 26236 26238 26240 32.232 
56 1 26200 26206 26199 26201 2.67346 
57 5 26207 26206 26208 26163 3.97004 
58 5 26203 26202 26204 26262 4.78864 
59 1 26204 26205 26198 26203 2.6127 
60 2 26238 26237 26248 26241 34.5098 
61 2 26238 26237 26249 26241 38.0209 
62 2 9671 9670 9672 9673 30.0655 
63 2 9671 9670 9672 9674 27.772 
64 1 9665 9668 9664 9666 17.1321 
65 3 9668 9669 9670 9665 3.88609 
66 2 26248 26252 26238 26250 37.3568 
67 2 37493 37496 37497 37491 38.9227 
68 2 37493 37496 37498 37491 30.4136 
69 4 26262 26264 26263 26203 1.06769 
70 1 26263 26262 26265 26267 10.0757 
71 2 9675 9676 9677 9672 38.9908 
72 2 9675 9676 9678 9672 32.453 
73 2 9672 9683 9675 9671 44.8784 
74 2 9684 9687 9688 9682 34.7304 
75 2 9684 9687 9689 9682 30.5376 
76 2 9690 9687 9693 9695 29.1494 
77 2 9682 9684 9685 9672 34.7848 
78 2 9682 9684 9686 9672 38.1434 
79 2 9676 9675 9679 9680 26.64 
80 2 9676 9675 9679 9681 39.8211 
81 2 9672 9675 9671 9682 31.6551 
82 2 9690 9693 9694 9687 38.4465 
83 2 9687 9692 9690 9684 36.3989 
84 2 37558 37561 37569 37557 42.2266 
85 2 37562 37567 37561 37565 32.1084 
86 2 37562 37566 37561 37565 35.8465 
87 1 9698 9704 9697 9699 6.97989 
88 1 9704 9705 9698 9703 6.72089 
89 1 9763 9762 9765 9767 30.9544 
90 1 9765 9763 9766 9769 22.8661 
91 4 9762 9764 9763 9703 2.59292 
92 4 9766 9764 9765 9810 0.220302 
93 1 9696 9697 9701 9710 2.99644 
94 1 9769 9770 9765 9768 18.351 
95 2 31031 31033 31034 31021 30.5041 
96 2 31031 31033 31035 31021 34.8703 
97 2 31036 31041 31039 31033 35.7896 
98 2 31033 31036 31037 31031 36.8866 
99 2 31033 31036 31038 31031 40.9611 
100 2 31039 31036 31042 31044 34.3587 
101 2 31039 31042 31043 31036 39.636 
102 2 31024 31025 31026 31021 30.8541 
103 2 31024 31025 31027 31021 30.7749 
104 2 31025 31024 31028 31029 28.2109 
105 2 31025 31024 31028 31030 36.043 
106 2 31021 31024 31020 31031 28.4986 
107 2 37661 37664 37672 37660 39.4764 
108 2 31036 31040 31033 31039 28.9218 
109 2 13984 13989 13987 13981 41.13 
110 2 9851 9855 9841 9853 38.2229 
111 2 13981 13984 13985 13978 34.58 
112 2 13981 13984 13978 13986 31.3009 
113 2 31021 31032 31024 31020 47.2225 
114 2 13984 13988 13981 13987 33.9915 
115 2 17819 17830 17822 17818 39.1711 
116 1 31046 31045 31047 31051 0.832889 
117 1 31050 31045 31049 31057 3.67486 
118 1 31045 31046 31050 31059 6.54672 
119 5 31052 31051 31053 31111 0.480515 
120 1 31047 31053 31046 31048 0.285371 
121 2 31065 31070 31064 31068 33.3038 
122 2 9853 9856 9857 9851 31.895 
123 2 9853 9856 9858 9851 36.5052 
124 2 12158 12161 12162 12156 33.2803 
125 2 12158 12161 12163 12156 36.9213 
126 2 12164 12161 12167 12169 27.9335 
127 2 12161 12166 12164 12158 33.9618 
128 2 17834 17838 17831 17837 35.5466 
129 2 12164 12167 12168 12161 46.063 
130 2 17831 17834 17835 17829 29.7019 
131 2 17831 17834 17836 17829 34.266 
132 2 17837 17834 17840 17842 35.0146 
133 1 1660 1661 1654 1659 1.51844 
134 2 12161 12165 12158 12164 34.3601 
135 4 1718 1720 1719 1659 1.60705 
136 4 1722 1720 1721 1766 4.42837 
137 2 17837 17840 17841 17834 39.9766 
138 1 1654 1660 1653 1655 2.78954 
139 1 1719 1718 1721 1723 26.4846 
140 2 12156 12158 12159 12146 39.0664 
141 2 12156 12158 12160 12146 35.1582 
142 2 17834 17839 17837 17831 32.4248 
143 5 1659 1658 1660 1718 4.70026 
144 1 1721 1719 1722 1725 31.2277 
145 2 3253 3256 3257 3251 27.5689 
146 2 3253 3256 3258 3251 40.6196 
147 2 3256 3259 3260 3253 36.1163 
148 2 3256 3259 3253 3261 35.8518 
149 2 3259 3264 3262 3256 38.5785 
150 2 3259 3263 3256 3262 33.0435 
151 2 3140 3143 3137 3141 35.0035 
152 2 1775 1779 1774 1778 37.2364 
153 4 3102 3101 3103 3162 0.888108 
154 1 3169 3170 3165 3168 19.1974 
155 1 3097 3103 3096 3098 4.06937 
156 5 3162 3164 3163 3102 1.59124 
157 5 3166 3164 3165 3210 1.92088 
158 1 3163 3162 3165 3167 22.7732 
159 1 3165 3163 3166 3169 20.8448 
160 1 3103 3104 3097 3102 10.0049 
161 1 3211 3210 3212 3204 3.00707 
162 2 12423 12426 12427 12422 34.0235 
163 2 12423 12426 12428 12422 43.2568 
164 2 3175 3186 3178 3174 43.3931 
165 2 3174 3173 3175 3176 38.224 
166 2 3174 3173 3175 3177 26.3342 
167 2 3179 3178 3182 3183 32.6318 
168 2 3179 3178 3182 3184 36.9877 
169 2 3175 3178 3174 3185 28.0722 
170 1 10904 10905 10900 10903 18.6825 
171 2 10949 10950 10951 10948 33.2261 
172 2 10949 10950 10952 10948 38.1285 
173 2 10953 10950 10954 10955 31.0628 
174 2 10953 10950 10954 10956 31.3981 
175 2 10960 10950 10962 10963 35.1435 
176 2 10960 10950 10962 10964 26.5698 
177 2 10925 10930 10928 10922 38.5003 
178 2 10922 10925 10926 10920 29.985 
179 2 10922 10925 10927 10920 37.9468 
180 2 10928 10925 10931 10933 31.9918 
181 2 10910 10921 10913 10909 37.5707 
182 2 3185 3187 3188 3175 37.9294 
183 2 3185 3187 3189 3175 30.8415 
184 1 10946 10945 10947 10939 11.3374 
185 2 3190 3194 3187 3193 30.2597 
186 2 3187 3190 3191 3185 31.4962 
187 2 3187 3190 3192 3185 33.9161 
188 2 3193 3190 3196 3198 29.4944 
189 2 3190 3195 3193 3187 38.266 
190 2 3193 3196 3197 3190 40.3866 
191 2 34087 34091 34077 34089 31.736 
192 2 27881 27878 27884 27886 37.7532 
193 2 10861 10864 10865 10858 33.6872 
194 2 27863 27866 27874 27862 39.1582 
195 2 27867 27872 27866 27870 35.7671 
196 2 27867 27871 27866 27870 34.9412 
197 2 27875 27879 27873 27878 39.5124 
198 2 27875 27880 27873 27878 36.1528 
199 2 27863 27873 27866 27862 26.0234 
200 2 27878 27875 27881 27883 30.5488 
201 2 27862 27863 27864 27861 39.0738 
202 2 27862 27863 27865 27861 36.0304 
203 2 27866 27863 27867 27868 31.4353 
204 2 27866 27863 27867 27869 27.8178 
205 2 27873 27863 27875 27876 32.6489 
206 2 27873 27863 27875 27877 26.0414 
207 1 34039 34045 34038 34040 2.16166 
208 1 26165 26168 26164 26166 23.8341 
209 2 27881 27884 27885 27878 44.0139 
210 2 27971 27975 27970 27974 37.0304 
211 2 27966 27967 27968 27965 37.5688 
212 2 27966 27967 27969 27965 36.3261 
213 2 27970 27967 27971 27972 30.1604 
214 2 27970 27967 27971 27973 30.1045 
215 2 27977 27967 27979 27980 28.1099 
216 2 27977 27967 27979 27981 30.2576 
217 2 27967 27970 27978 27966 35.3412 
218 2 27979 27984 27977 27982 36.3465 
219 3 26168 26169 26170 26165 2.11677 
220 2 27985 27988 27989 27982 33.4012 
221 2 27982 27985 27986 27979 34.0693 
222 2 27967 27977 27970 27966 36.9265 
223 2 27982 27979 27985 27987 26.5172 
224 2 27979 27983 27977 27982 34.1064 
225 2 27985 27982 27988 27990 37.542 
226 2 31539 31540 31541 31536 30.1437 
227 2 31539 31540 31542 31536 35.4012 
228 2 26242 26245 26246 26241 41.4003 
229 2 26242 26245 26247 26241 38.8214 
230 2 28100 28103 28104 28099 34.9736 
231 2 28100 28103 28105 28099 36.0576 
232 2 26241 26238 26242 26243 33.0123 
233 2 26248 26238 26250 26251 25.7129 
234 2 26241 26244 26238 26242 35.7807 
235 2 26250 26253 26254 26248 35.8699 
236 2 26250 26253 26255 26248 32.922 
237 2 31606 31609 31610 31605 38.0752 
238 2 31606 31609 31611 31605 33.5284 
239 1 31564 31570 31563 31565 3.2388 
240 5 31571 31570 31572 31527 1.86089 
241 2 26256 26260 26253 26259 32.3907 
242 2 26253 26256 26257 26250 33.0661 
243 2 26253 26256 26250 26258 31.2389 
244 1 9700 9706 9699 9701 1.19358 
245 5 9707 9706 9708 9663 0.282439 
246 1 9666 9667 9662 9665 17.9641 
247 2 26256 26261 26259 26253 34.8708 
248 2 9738 9737 9748 9741 37.0413 
249 2 9738 9737 9749 9741 38.1622 
250 1 9699 9736 9698 9700 6.04852 
251 2 9737 9736 9738 9739 26.7931 
252 2 9737 9736 9738 9740 36.4237 
253 2 9741 9738 9742 9743 29.3282 
254 2 9748 9738 9750 9751 28.6475 
255 2 9830 9833 9834 9827 37.7322 
256 2 9833 9836 9837 9830 44.8598 
257 2 9748 9752 9738 9750 34.7261 
258 2 9833 9830 9836 9838 34.5499 
259 2 9830 9827 9833 9835 25.7096 
260 2 9815 9825 9818 9814 32.7994 
261 1 9803 9809 9802 9804 4.87064 
262 5 9810 9809 9811 9766 3.56043 
263 1 9811 9810 9812 9804 14.046 
264 2 13978 13981 13982 13976 34.8467 
265 2 13978 13981 13983 13976 34.1419 
266 1 9800 9799 9801 9805 3.20797 
267 1 9804 9799 9803 9811 4.18947 
268 1 9799 9800 9804 9813 12.9753 
269 1 9802 9839 9801 9803 8.64288 
270 2 9840 9839 9841 9842 26.305 
271 2 9840 9839 9841 9843 33.5096 
272 2 9844 9847 9841 9845 44.5069 
273 1 31112 31111 31114 31116 22.5417 
274 1 31114 31112 31115 31118 22.2038 
275 2 1815 1820 1818 1812 40.5417 
276 2 9844 9841 9845 9846 25.6796 
277 2 9851 9841 9853 9854 29.8265 
278 2 9841 9840 9851 9844 33.6548 
279 2 9841 9840 9852 9844 34.13 
280 2 9845 9848 9849 9844 40.3347 
281 2 9845 9848 9850 9844 37.873 
282 2 31168 31173 31167 31171 36.1463 
283 1 31053 31054 31047 31052 4.36209 
284 2 1809 1812 1813 1807 30.5823 
285 2 1809 1812 1814 1807 35.5266 
286 1 1767 1766 1768 1760 8.75051 
287 4 31111 31113 31112 31052 0.170331 
288 4 31115 31113 31114 31159 0.479516 
289 1 1759 1765 1758 1760 6.33224 
290 5 1766 1765 1767 1722 0.390617 
291 1 31160 31159 31161 31153 16.1587 
292 1 31152 31158 31151 31153 5.00919 
293 5 31159 31158 31160 31115 2.07771 
294 1 31151 31188 31150 31152 18.1436 
295 2 31189 31188 31190 31191 30.2027 
296 2 31189 31188 31190 31192 30.4907 
297 2 1807 1811 1797 1809 39.4919 
298 2 31190 31189 31200 31193 31.579 
299 2 31190 31189 31201 31193 37.2322 
300 1 1725 1726 1721 1724 9.49108 
301 2 31193 31190 31194 31195 24.5384 
302 2 31200 31190 31202 31203 33.3657 
303 2 31194 31197 31198 31193 34.4524 
304 2 31194 31197 31199 31193 38.4692 
305 2 31193 31196 31190 31194 39.9353 
306 2 3244 3241 3245 3246 29.5707 
307 2 3251 3241 3253 3254 31.1778 
308 2 10920 10922 10923 10910 31.9204 
309 2 10920 10922 10924 10910 33.6733 
310 2 12422 12425 12419 12423 35.2283 
311 1 12385 12386 12379 12384 1.21731 
312 2 12419 12418 12429 12422 28.849 
313 2 12419 12418 12430 12422 40.0884 
314 2 12422 12419 12423 12424 32.0227 
315 2 12429 12419 12431 12432 30.4524 
316 1 12380 12417 12379 12381 13.7953 
317 2 12418 12417 12419 12420 30.3123 
318 2 12418 12417 12419 12421 30.1435 
319 2 12429 12433 12419 12431 32.5262 
320 2 12431 12434 12435 12429 39.025 
321 2 12431 12434 12436 12429 30.5225 
322 4 11000 11002 11001 10941 3.03748 
323 4 11004 11002 11003 11048 2.27111 
324 1 10935 10934 10936 10940 1.88802 
325 1 10939 10934 10938 10946 1.18968 
326 2 10928 10931 10932 10925 36.1812 
327 2 10950 10953 10961 10949 37.3501 
328 1 11001 11000 11003 11005 20.1035 
329 1 10934 10935 10939 10948 4.40461 
330 5 10941 10940 10942 11000 0.320341 
331 1 10936 10942 10935 10937 2.21831 
332 2 34125 34127 34128 34115 31.3412 
333 2 34125 34127 34129 34115 33.6424 
334 2 10925 10929 10922 10928 33.8135 
335 1 10942 10943 10936 10941 11.44 
336 2 34081 34084 34085 34080 34.2844 
337 2 34081 34084 34086 34080 28.5753 
338 2 34080 34077 34081 34082 34.4367 
339 2 34087 34077 34089 34090 31.8867 
340 2 34089 34092 34093 34087 35.4766 
341 2 34089 34092 34094 34087 36.2496 
342 2 34092 34095 34096 34089 36.4606 
343 2 34092 34095 34089 34097 31.7899 
344 2 34095 34099 34092 34098 34.951 
345 3 34111 34112 34113 34108 6.44486 
346 2 34080 34083 34077 34081 38.2454 
347 1 34108 34111 34107 34109 16.4314 
348 2 11609 11612 11613 11606 35.7147 
349 2 11609 11612 11606 11614 27.2334 
350 2 11612 11616 11609 11615 35.5825 
351 2 11606 11609 11610 11604 38.5166 
352 2 11606 11609 11611 11604 37.1587 
353 2 11612 11617 11615 11609 41.0794 
354 2 28040 28042 28043 28030 37.4311 
355 2 28040 28042 28044 28030 31.5044 
356 1 34047 34046 34048 34040 12.9598 
357 2 34077 34076 34087 34080 33.3595 
358 2 34077 34076 34088 34080 39.3093 
359 1 34043 34044 34037 34042 1.38668 
360 2 16493 16498 16496 16490 34.3214 
361 1 34037 34043 34036 34038 1.2762 
362 2 28045 28050 28048 28042 32.1959 
363 1 34038 34075 34037 34039 9.08171 
364 2 34076 34075 34077 34078 29.1232 
365 2 34076 34075 34077 34079 34.3042 
366 4 34042 34041 34043 34102 0.520996 
367 1 34035 34036 34040 34049 5.81 
368 1 34036 34035 34037 34041 0.0694414 
369 1 34040 34035 34039 34047 10.2937 
370 2 28048 28051 28052 28045 38.7852 
371 2 28042 28045 28046 28040 33.9575 
372 2 28042 28045 28047 28040 36.1731 
373 2 28048 28045 28051 28053 38.2453 
374 3 24932 24933 24934 24929 3.31469 
375 2 27971 27976 27970 27974 36.1265 
376 2 24935 24934 24936 24937 25.6445 
377 2 24935 24934 24936 24938 31.7695 
378 2 24951 24956 24954 24948 26.8777 
379 2 24936 24947 24939 24935 37.7726 
380 2 24948 24951 24952 24946 36.9733 
381 2 24948 24951 24953 24946 37.2088 
382 2 24954 24951 24957 24959 31.9738 
383 2 24946 24948 24949 24936 25.0135 
384 2 24946 24948 24950 24936 35.6721 
385 2 26175 26176 26177 26172 31.5674 
386 2 26175 26176 26178 26172 38.2954 
387 2 24940 24939 24943 24944 33.6916 
388 2 24940 24939 24943 24945 27.8445 
389 2 24936 24939 24935 24946 35.4669 
390 1 27951 27952 27956 27965 4.0415 
391 1 27953 27959 27952 27954 11.5485 
392 2 24939 24940 24941 24936 27.4409 
393 2 24939 24940 24942 24936 34.5503 
394 1 24929 24932 24928 24930 7.45307 
395 2 16187 16190 16191 16184 41.1035 
396 5 27958 27957 27959 28017 4.32035 
397 4 28017 28019 28018 27958 0.535936 
398 4 28021 28019 28020 28065 0.976244 
399 2 16184 16189 16187 16181 33.0712 
400 2 16181 16184 16185 16179 40.9339 
401 2 16181 16184 16186 16179 37.6281 
402 2 16187 16184 16190 16192 35.9515 
403 2 16184 16188 16181 16187 40.3163 
404 2 16179 16181 16182 16169 33.7216 
405 2 16179 16181 16183 16169 34.2547 
406 2 16169 16180 16172 16168 36.9948 
407 2 28108 28111 28112 28106 30.326 
408 2 28108 28111 28113 28106 32.2499 
409 2 28106 28110 28096 28108 29.2208 
410 2 28099 28102 28096 28100 34.4056 
411 1 28058 28064 28057 28059 3.56368 
412 5 28065 28064 28066 28021 1.55087 
413 1 31563 31600 31562 31564 2.52478 
414 2 31601 31600 31602 31603 29.8302 
415 2 31601 31600 31602 31604 29.1972 
416 2 31605 31602 31606 31607 29.3249 
417 2 31612 31602 31614 31615 30.7086 
418 2 31602 31601 31612 31605 33.8078 
419 2 31602 31601 31613 31605 37.7413 
420 5 31567 31566 31568 31626 2.08462 
421 1 31568 31569 31562 31567 1.3532 
422 1 31562 31568 31561 31563 2.4963 
423 1 31560 31561 31565 31574 6.10734 
424 2 31612 31616 31602 31614 29.15 
425 2 15427 15431 15424 15430 33.1914 
426 2 14019 14024 14022 14016 37.1554 
427 2 14014 14016 14017 14004 29.4939 
428 2 14014 14016 14018 14004 35.3868 
429 2 14022 14025 14026 14019 32.765 
430 2 14016 14019 14020 14014 34.4698 
431 2 14016 14019 14021 14014 33.0684 
432 2 14022 14019 14025 14027 35.1288 
433 2 14019 14023 14016 14022 37.7488 
434 2 31642 31643 31644 31639 33.5552 
435 2 31642 31643 31645 31639 41.3792 
436 2 31643 31642 31646 31647 34.7804 
437 2 31643 31642 31646 31648 27.9593 
438 2 31639 31642 31638 31649 28.3499 
439 2 9827 9831 9825 9830 32.3038 
440 2 9827 9832 9825 9830 30.6905 
441 2 9814 9815 9816 9813 36.2038 
442 2 9814 9815 9817 9813 44.8614 
443 2 9818 9815 9819 9820 29.1643 
444 2 9818 9815 9819 9821 28.8886 
445 2 9825 9815 9827 9828 27.5585 
446 2 9825 9815 9827 9829 33.7135 
447 1 14032 14038 14031 14033 5.69686 
448 5 14039 14038 14040 13995 0.11761 
449 1 14029 14028 14030 14034 2.72587 
450 1 14033 14028 14032 14040 4.99358 
451 1 14040 14039 14041 14033 5.13908 
452 1 13998 13999 13994 13997 18.1881 
453 2 9815 9818 9826 9814 39.015 
454 2 9819 9824 9818 9822 30.367 
455 5 13991 13993 13992 13931 1.35534 
456 5 13995 13993 13994 14039 2.80272 
457 5 9806 9805 9807 9865 2.28911 
458 2 9819 9823 9818 9822 32.1595 
459 2 31179 31182 31183 31176 33.4491 
460 2 31182 31179 31185 31187 30.7149 
461 2 31182 31185 31186 31179 40.1567 
462 2 31311 31316 31314 31308 40.828 
463 2 31164 31174 31167 31163 35.0371 
464 2 31164 31167 31175 31163 38.8769 
465 2 31311 31315 31308 31314 35.2684 
466 2 31308 31311 31312 31305 32.9717 
467 2 31308 31311 31305 31313 32.2736 
468 2 31163 31164 31165 31162 40.591 
469 2 31163 31164 31166 31162 44.4186 
470 2 31167 31164 31168 31169 34.4385 
471 2 31167 31164 31168 31170 32.1002 
472 2 31174 31164 31176 31177 31.8735 
473 2 31174 31164 31176 31178 25.3601 
474 2 31179 31176 31182 31184 30.7285 
475 2 31176 31181 31174 31179 34.6525 
476 2 31176 31180 31174 31179 38.6225 
477 2 31305 31308 31309 31303 22.6406 
478 2 31305 31308 31310 31303 36.3006 
479 1 31149 31148 31150 31154 6.21919 
480 1 31153 31148 31152 31160 6.36428 
481 1 31156 31157 31150 31155 4.55938 
482 1 31148 31149 31153 31162 0.311539 
483 1 31150 31156 31149 31151 6.86701 
484 5 31155 31154 31156 31214 2.59661 
485 2 9936 9933 9939 9941 31.6829 
486 2 9918 9928 9921 9917 29.8192 
487 2 9933 9930 9936 9938 28.9241 
488 2 9930 9935 9928 9933 34.0493 
489 2 9930 9934 9928 9933 37.0218 
490 2 9917 9918 9919 9916 33.1061 
491 2 9917 9918 9920 9916 26.2611 
492 2 9921 9918 9922 9923 25.1859 
493 2 9921 9918 9922 9924 32.708 
494 2 9928 9918 9930 9931 28.5419 
495 2 9928 9918 9930 9932 27.6284 
496 2 3333 3336 3337 3330 41.5088 
497 2 3336 3339 3340 3333 34.7339 
498 1 12379 12385 12378 12380 4.34402 
499 1 12377 12378 12382 12391 6.48187 
500 1 12378 12377 12379 12383 2.05305 
501 1 12382 12377 12381 12389 3.37239 
502 2 12393 12396 12404 12392 39.4846 
503 4 12384 12383 12385 12444 3.33468 
504 2 12392 12393 12394 12391 37.8872 
505 2 12392 12393 12395 12391 40.0859 
506 2 12396 12393 12397 12398 34.1757 
507 2 12396 12393 12397 12399 30.8176 
508 2 12403 12393 12405 12406 32.6545 
509 2 12403 12393 12405 12407 27.2693 
510 2 13078 13079 13080 13075 33.0537 
511 2 13078 13079 13081 13075 31.0183 
512 2 13085 13087 13088 13075 34.9748 
513 2 13085 13087 13089 13075 37.9401 
514 2 11068 11071 11072 11065 45.5404 
515 2 13090 13095 13093 13087 27.8375 
516 2 11071 11068 11074 11076 33.6141 
517 2 11068 11065 11071 11073 31.962 
518 2 11053 11063 11056 11052 29.0443 
519 2 11071 11074 11075 11068 38.7361 
520 2 13087 13090 13091 13085 34.1739 
521 2 13087 13090 13092 13085 32.5227 
522 2 13093 13090 13096 13098 36.2801 
523 2 13090 13094 13087 13093 36.8487 
524 2 11065 11070 11063 11068 31.8063 
525 1 11003 11001 11004 11007 21.7578 
526 2 34115 34126 34118 34114 39.02 
527 1 11049 11048 11050 11042 9.46091 
528 1 11041 11047 11040 11042 0.487519 
529 5 11048 11047 11049 11004 2.3911 
530 3 11009 11010 11011 11006 7.39011 
531 1 11007 11008 11003 11006 23.928 
532 1 11006 11009 11005 11007 22.7233 
533 2 34119 34118 34122 34123 31.8069 
534 2 34119 34118 34122 34124 29.5574 
535 2 34115 34118 34114 34125 35.7993 
536 2 34118 34119 34120 34115 26.0126 
537 2 34118 34119 34121 34115 37.7917 
538 2 11012 11011 11013 11014 30.2505 
539 2 11012 11011 11013 11015 35.4647 
540 1 34105 34103 34106 34109 31.7435 
541 2 34114 34113 34115 34116 28.0249 
542 2 34114 34113 34115 34117 32.5533 
543 2 11701 11704 11705 11700 37.8924 
544 2 11701 11704 11706 11700 34.691 
545 1 34109 34110 34105 34108 8.78274 
546 1 34151 34150 34152 34144 17.7092 
547 1 34143 34149 34142 34144 2.31686 
548 5 34150 34149 34151 34106 1.60712 
549 1 34103 34102 34105 34107 24.3096 
550 5 34102 34104 34103 34042 0.121817 
551 5 34106 34104 34105 34150 5.82823 
552 2 34173 34170 34176 34178 35.1706 
553 2 34170 34167 34173 34175 28.7865 
554 2 34170 34173 34174 34167 35.5538 
555 2 34167 34172 34165 34170 45.7988 
556 2 34173 34176 34177 34170 29.212 
557 2 34167 34171 34165 34170 29.5693 
558 2 34155 34165 34158 34154 29.3311 
559 2 28030 28041 28033 28029 34.6424 
560 3 28026 28027 28028 28023 6.85801 
561 1 28023 28026 28022 28024 19.6174 
562 2 16110 16115 16109 16113 30.8392 
563 2 28029 28028 28030 28031 31.8407 
564 2 28029 28028 28030 28032 33.782 
565 1 28020 28018 28021 28024 27.364 
566 1 28024 28025 28020 28023 21.596 
567 1 28018 28017 28020 28022 29.8226 
568 2 16173 16172 16176 16177 36.7431 
569 2 16173 16172 16176 16178 32.7382 
570 2 16169 16172 16168 16179 34.6127 
571 2 16172 16173 16174 16169 33.494 
572 2 16172 16173 16175 16169 32.9816 
573 1 28066 28065 28067 28059 7.22709 
574 2 28548 28549 28550 28545 31.4184 
575 2 28548 28549 28551 28545 35.3115 
576 2 28549 28548 28552 28553 37.8984 
577 2 28549 28548 28552 28554 31.4255 
578 2 28545 28548 28544 28555 37.2285 
579 2 28544 28543 28545 28546 26.8602 
580 2 28544 28543 28545 28547 35.6366 
581 2 28545 28556 28548 28544 35.426 
582 1 31627 31626 31629 31631 29.4771 
583 1 31629 31627 31630 31633 29.1801 
584 1 31632 31635 31631 31633 20.1407 
585 2 16142 16146 16132 16144 34.8208 
586 1 31675 31674 31676 31668 20.887 
587 1 31667 31673 31666 31668 2.74089 
588 5 31674 31673 31675 31630 2.19584 
589 1 31633 31634 31629 31632 16.9758 
590 4 31626 31628 31627 31567 1.36361 
591 4 31630 31628 31629 31674 8.14388 
592 2 31639 31650 31642 31638 37.1222 
593 2 31638 31637 31639 31640 34.1154 
594 2 31638 31637 31639 31641 34.8477 
595 1 31663 31664 31668 31677 3.24037 
596 2 31651 31654 31655 31649 40.2326 
597 2 31651 31654 31656 31649 38.5399 
598 2 31657 31654 31660 31662 36.1795 
599 2 31649 31651 31652 31639 39.9926 
600 2 31649 31651 31653 31639 31.5354 
601 2 31654 31659 31657 31651 40.9697 
602 2 31654 31658 31651 31657 37.0331 
603 4 14094 14096 14095 14035 7.83371 
604 4 14098 14096 14097 14142 4.69822 
605 2 31657 31660 31661 31654 36.05 
606 1 14028 14029 14033 14042 2.82858 
607 1 14036 14037 14030 14035 6.02923 
608 1 14030 14036 14029 14031 1.78923 
609 1 14095 14094 14097 14099 14.3169 
610 5 14035 14034 14036 14094 0.00191009 
611 1 14031 14068 14030 14032 17.3884 
612 2 14069 14068 14070 14071 30.361 
613 2 14069 14068 14070 14072 28.9357 
614 2 14070 14069 14080 14073 34.6146 
615 2 14070 14069 14081 14073 37.2982 
616 1 31769 31806 31768 31770 1.74794 
617 2 31807 31806 31808 31809 29.4071 
618 2 31807 31806 31808 31810 31.6152 
619 2 31811 31808 31812 31813 29.3846 
620 2 31818 31808 31820 31821 30.8726 
621 2 31818 31822 31808 31820 32.7875 
622 2 31820 31823 31824 31818 35.5699 
623 2 31820 31823 31825 31818 36.5848 
624 2 31823 31826 31827 31820 34.5394 
625 2 31823 31826 31820 31828 26.595 
626 2 31826 31831 31829 31823 35.4071 
627 1 31774 31775 31768 31773 6.53018 
628 2 31242 31247 31245 31239 42.0628 
629 2 31239 31242 31243 31237 38.2823 
630 2 31239 31242 31244 31237 31.1146 
631 2 31245 31242 31248 31250 33.0419 
632 2 31237 31239 31240 31227 39.3751 
633 2 31237 31239 31241 31227 37.3349 
634 2 31245 31248 31249 31242 39.2 
635 1 31220 31223 31219 31221 11.9723 
636 2 31903 31900 31906 31908 33.1471 
637 2 31897 31901 31895 31900 35.9557 
638 2 31900 31897 31903 31905 32.2895 
639 2 31897 31902 31895 31900 37.693 
640 2 31885 31895 31888 31884 32.8363 
641 2 31900 31903 31904 31897 36.2297 
642 2 31903 31906 31907 31900 35.0484 
643 3 31223 31224 31225 31220 0.516263 
644 2 31884 31885 31886 31883 32.805 
645 2 31884 31885 31887 31883 35.3572 
646 2 31888 31885 31889 31890 31.2492 
647 2 31888 31885 31889 31891 32.2243 
648 2 31895 31885 31897 31898 26.0397 
649 2 31895 31885 31897 31899 32.554 
650 2 31889 31894 31888 31892 31.1199 
651 2 9933 9936 9937 9930 38.857 
652 2 9936 9939 9940 9933 42.1918 
653 2 31885 31888 31896 31884 39.1881 
654 2 12472 12477 12475 12469 40.3599 
655 2 12393 12403 12396 12392 32.7844 
656 2 12405 12410 12403 12408 41.1842 
657 2 12408 12405 12411 12413 33.0344 
658 2 12397 12401 12396 12400 39.564 
659 2 12397 12402 12396 12400 39.6973 
660 2 12405 12409 12403 12408 37.3573 
661 2 13024 13028 13022 13027 34.8975 
662 2 13024 13029 13022 13027 38.3824 
663 2 13012 13022 13015 13011 32.992 
664 2 13027 13024 13030 13032 29.3273 
665 2 12411 12414 12415 12408 35.8688 
666 2 12408 12411 12412 12405 29.6248 
667 2 12411 12408 12414 12416 32.2634 
668 2 13030 13027 13033 13035 31.1559 
669 2 3436 3439 3440 3433 41.4241 
670 2 3439 3442 3443 3436 32.3683 
671 2 3439 3436 3442 3444 35.3077 
672 2 3421 3431 3424 3420 33.9747 
673 2 3436 3433 3439 3441 35.688 
674 2 3420 3421 3422 3419 30.246 
675 2 3420 3421 3423 3419 37.1462 
676 2 3424 3421 3425 3426 29.5137 
677 2 3424 3421 3425 3427 31.7155 
678 2 3431 3421 3433 3434 35.5794 
679 2 3431 3421 3433 3435 24.9025 
680 2 3421 3424 3432 3420 35.9305 
681 2 3433 3438 3431 3436 33.5927 
682 2 3433 3437 3431 3436 35.4313 
683 2 11083 11086 11087 11082 31.9168 
684 2 11083 11086 11088 11082 34.2603 
685 2 11700 11703 11697 11701 36.3649 
686 1 3477 3480 3476 3478 21.712 
687 3 3480 3481 3482 3477 1.29953 
688 2 3483 3482 3484 3485 30.7969 
689 2 3483 3482 3484 3486 28.3951 
690 2 3484 3495 3487 3483 39.7663 
691 2 11707 11711 11697 11709 35.3269 
692 2 11697 11696 11707 11700 27.8776 
693 2 11697 11696 11708 11700 41.1295 
694 2 11700 11697 11701 11702 30.2219 
695 2 11707 11697 11709 11710 23.5335 
696 2 11715 11720 11718 11712 38.8334 
697 2 11715 11719 11712 11718 30.8758 
698 2 11712 11715 11716 11709 42.8039 
699 2 11712 11715 11709 11717 24.1877 
700 2 11709 11712 11713 11707 36.6434 
701 2 11709 11712 11714 11707 43.3089 
702 2 20413 20418 20416 20410 37.1314 
703 1 34140 34139 34141 34145 0.305848 
704 1 34144 34139 34143 34151 9.36278 
705 2 34199 34203 34196 34202 22.7772 
706 2 16069 16070 16071 16066 38.1888 
707 2 16069 16070 16072 16066 35.2035 
708 1 34139 34140 34144 34153 4.62631 
709 5 34146 34145 34147 34205 0.561705 
710 1 34206 34205 34208 34210 22.5827 
711 2 16070 16069 16073 16074 30.2954 
712 2 16070 16069 16073 16075 35.5919 
713 2 16066 16069 16065 16076 30.1454 
714 1 34141 34147 34140 34142 0.498381 
715 1 34208 34206 34209 34212 27.0428 
716 2 34196 34199 34200 34193 33.9479 
717 2 34196 34199 34193 34201 29.5722 
718 2 34199 34204 34202 34196 38.4554 
719 2 34218 34229 34221 34217 40.7768 
720 2 16066 16077 16069 16065 37.2298 
721 1 16059 16062 16058 16060 4.74204 
722 2 16065 16064 16066 16067 30.4808 
723 2 16065 16064 16066 16068 34.1873 
724 3 16062 16063 16064 16059 7.93267 
725 2 34222 34221 34225 34226 37.6644 
726 2 34222 34221 34225 34227 24.3206 
727 2 34218 34221 34217 34228 30.3831 
728 2 34221 34222 34223 34218 37.8719 
729 2 34221 34222 34224 34218 36.6503 
730 2 16136 16139 16140 16135 34.5767 
731 2 16136 16139 16141 16135 37.5924 
732 1 16060 16061 16056 16059 3.59029 
733 2 28972 28977 28975 28969 37.3086 
734 2 28969 28972 28973 28967 37.7609 
735 2 28969 28972 28974 28967 33.3434 
736 2 28975 28972 28978 28980 35.2859 
737 2 28967 28969 28970 28957 36.2743 
738 2 28967 28969 28971 28957 40.9973 
739 2 28555 28557 28558 28545 32.577 
740 2 28555 28557 28559 28545 40.8317 
741 1 31666 31703 31665 31667 10.0047 
742 2 31704 31703 31705 31706 35.2376 
743 2 31704 31703 31705 31707 27.0281 
744 2 28560 28565 28563 28557 36.7143 
745 2 28557 28560 28561 28555 32.3038 
746 2 28557 28560 28562 28555 37.1386 
747 2 28563 28560 28566 28568 33.134 
748 2 28560 28564 28557 28563 35.7115 
749 2 28563 28566 28567 28560 40.2023 
750 2 14191 14196 14194 14188 41.5423 
751 2 14191 14195 14188 14194 31.8528 
752 2 14185 14188 14189 14183 34.9937 
753 2 14185 14188 14190 14183 37.5733 
754 2 14188 14191 14192 14185 32.0437 
755 2 14188 14191 14185 14193 29.7874 
756 2 31708 31705 31709 31710 28.1517 
757 2 31715 31705 31717 31718 35.8095 
758 2 31705 31704 31715 31708 30.8327 
759 2 31705 31704 31716 31708 38.1752 
760 1 31665 31671 31664 31666 6.62309 
761 1 31671 31672 31665 31670 5.90211 
762 2 14176 14173 14177 14178 28.3421 
763 2 14183 14173 14185 14186 31.5026 
764 1 14134 14171 14133 14135 1.12368 
765 2 14172 14171 14173 14174 34.3853 
766 2 14172 14171 14173 14175 22.9947 
767 2 14173 14172 14183 14176 26.9634 
768 2 14173 14172 14184 14176 45.5322 
769 2 31709 31712 31713 31708 42.93 
770 2 31709 31712 31714 31708 38.4547 
771 1 14143 14142 14144 14136 6.64631 
772 1 14135 14141 14134 14136 8.44608 
773 5 14142 14141 14143 14098 2.16513 
774 4 31729 31731 31730 31670 0.266694 
775 4 31733 31731 31732 31777 3.47305 
776 1 31770 31776 31769 31771 4.37747 
777 5 31777 31776 31778 31733 1.89339 
778 2 31808 31807 31818 31811 33.5471 
779 2 31808 31807 31819 31811 41.8332 
780 2 31812 31815 31816 31811 48.1367 
781 2 31812 31815 31817 31811 34.1729 
782 2 9261 9262 9263 9258 37.1076 
783 2 9261 9262 9264 9258 31.593 
784 2 9262 9261 9265 9266 30.9908 
785 2 9262 9261 9265 9267 32.9937 