ITEM: TIMESTEP
0
ITEM: NUMBER OF ENTRIES
44940
ITEM: BOX BOUNDS pp pp pp
41.3207 128.679
41.3207 128.679
41.3207 128.679
ITEM: ENTRIES index c_1[1] c_1[2] c_1[3] c_1[4] c_1[5] c_2 
1 3 13668 13671 13672 13665 33.5145 
2 3 13668 13671 13665 13673 31.9666 
3 3 13674 13671 13677 13679 26.2118 
4 3 13671 13675 13668 13674 24.6887 
5 3 13665 13668 13669 13662 36.4943 
6 3 13677 13674 13680 13682 34.4919 
7 3 13671 13676 13674 13668 38.0824 
8 4 22663 22666 22667 22530 4.51466 
9 3 13829 13832 13833 13826 37.6812 
10 3 35864 35867 35868 35861 37.4259 
11 3 35864 35867 35869 35861 35.2685 
12 3 13832 13835 13836 13829 32.3404 
13 3 13832 13835 13837 13829 42.0576 
14 3 13656 13659 13660 13654 36.5983 
15 3 13656 13659 13661 13654 38.5274 
16 3 13662 13659 13665 13666 25.4719 
17 3 22137 22140 22141 22134 39.8914 
18 3 13659 13662 13663 13656 34.3334 
19 3 13659 13662 13664 13656 41.0577 
20 3 13665 13662 13670 13668 37.3545 
21 3 13662 13667 13659 13665 36.9502 
22 3 35841 35843 35821 35842 37.2408 
23 3 22140 22137 22143 22145 27.3646 
24 3 36102 36107 36105 36099 30.7927 
25 3 36099 36102 36103 36096 32.9173 
26 3 36099 36102 36096 36104 36.6051 
27 3 36105 36102 36108 36110 28.5848 
28 3 36166 36169 36170 36163 37.5935 
29 3 36166 36169 36171 36163 44.615 
30 3 22143 22146 22147 22140 43.3384 
31 3 22143 22146 22148 22140 37.9243 
32 3 36102 36106 36099 36105 34.0753 
33 3 22140 22143 22144 22137 38.2886 
34 3 22134 22138 22131 22137 37.6126 
35 3 22131 22134 22135 22128 41.9385 
36 3 22131 22134 22128 22136 23.7578 
37 3 22137 22134 22140 22142 23.1973 
38 3 22128 22131 22132 22125 37.378 
39 3 22134 22139 22137 22131 33.9769 
40 3 36163 36166 36167 36160 34.9576 
41 3 36096 36099 36100 36093 33.2949 
42 3 36093 36098 36090 36096 36.2837 
43 3 36163 36160 36166 36168 30.7349 
44 3 36160 36163 36164 36157 36.6458 
45 3 36090 36093 36094 36087 32.6808 
46 3 36090 36093 36095 36087 37.0325 
47 3 36096 36093 36099 36101 33.1502 
48 3 36147 36148 36149 36144 36.6854 
49 3 36147 36148 36150 36144 36.9084 
50 3 36151 36148 36154 36156 24.0662 
51 3 36087 36090 36091 36084 39.8051 
52 3 36087 36090 36092 36084 36.5206 
53 3 36093 36090 36096 36097 29.8088 
54 2 22060 22064 22063 22061 8.90446 
55 3 34865 34868 34869 34862 34.0094 
56 2 22079 22082 22075 22081 20.3307 
57 2 22070 22075 22069 22071 6.07614 
58 4 22061 22060 22062 22075 7.16429 
59 3 35954 35957 35958 35951 30.7313 
60 3 35951 35955 35948 35954 36.2023 
61 3 35957 35954 35960 35962 33.7258 
62 3 35951 35956 35954 35948 42.4724 
63 3 35948 35951 35952 35945 31.7917 
64 3 35948 35951 35945 35953 28.0217 
65 3 35954 35951 35957 35959 28.8066 
66 3 35945 35948 35949 35942 34.5953 
67 3 35942 35947 35939 35945 39.8961 
68 3 35939 35942 35943 35936 41.113 
69 3 35939 35942 35944 35936 29.7369 
70 3 35945 35942 35948 35950 31.8188 
71 3 34868 34871 34872 34865 43.6279 
72 3 35957 35960 35961 35954 36.5293 
73 3 21999 22028 21998 22002 38.1699 
74 3 13994 13997 13998 13993 36.1379 
75 3 13994 13997 13999 13993 29.8306 
76 3 13997 14002 13994 14000 34.7548 
77 3 14006 14011 14009 14003 40.6564 
78 3 14003 14006 14007 14000 31.3241 
79 3 14003 14006 14000 14008 29.191 
80 3 14009 14006 14012 14014 29.1531 
81 3 14000 14003 14004 13997 28.9247 
82 3 14000 14003 13997 14005 32.4104 
83 3 14012 14009 14015 14017 25.2121 
84 3 14009 14012 14013 14006 31.0626 
85 3 14006 14010 14003 14009 37.2528 
86 3 22002 22003 22004 21999 40.767 
87 3 22002 22003 22005 21999 31.6938 
88 3 22006 22003 22009 22010 32.7222 
89 3 14012 14015 14016 14009 38.331 
90 3 14180 14185 14177 14183 33.1369 
91 3 49100 49105 49103 49097 33.2426 
92 1 17683 17684 17685 17689 7.34423 
93 2 17688 17684 17693 17687 0.0643898 
94 2 17691 17684 17694 17695 8.45719 
95 2 17684 17691 17688 17683 0.633839 
96 5 17694 17691 17697 17827 4.33806 
97 4 17827 17830 17831 17694 0.357024 
98 2 17831 17827 17833 17828 3.92261 
99 2 17697 17700 17693 17694 4.94711 
100 3 17702 17700 17701 17766 2.79193 
101 4 17829 17828 17830 17843 7.39298 
102 3 49100 49104 49097 49103 29.5556 
103 3 48934 48937 48938 48931 31.2901 
104 3 48934 48937 48939 48931 35.0898 
105 3 48940 48937 48943 48944 27.5433 
106 3 49097 49100 49101 49094 30.0706 
107 3 49097 49100 49094 49102 32.6063 
108 3 49103 49100 49106 49108 26.9032 
109 3 17211 17215 17208 17214 30.9918 
110 3 17208 17211 17212 17205 36.5004 
111 3 17208 17211 17205 17213 27.3442 
112 3 17214 17211 17217 17219 26.3944 
113 3 48940 48945 48937 48943 32.089 
114 3 48937 48940 48941 48934 33.427 
115 3 48937 48940 48942 48934 32.9271 
116 3 48943 48940 48946 48948 21.5123 
117 3 49106 49103 49109 49111 29.9329 
118 3 17202 17207 17199 17205 33.434 
119 3 2706 2709 2710 2703 38.9532 
120 3 3403 3406 3407 3400 31.4969 
121 3 3403 3406 3408 3400 32.0133 
122 3 3400 3403 3404 3397 32.324 
123 3 2709 2712 2713 2706 38.1516 
124 3 17211 17216 17214 17208 30.5289 
125 3 17205 17208 17209 17202 36.1908 
126 3 17199 17202 17203 17196 36.5802 
127 3 17199 17202 17204 17196 37.6282 
128 3 17205 17202 17208 17210 27.7282 
129 3 48804 48807 48808 48801 38.8087 
130 3 2709 2706 2712 2714 27.0841 
131 3 48798 48803 48801 48795 34.599 
132 3 48795 48798 48799 48792 35.4637 
133 3 48795 48798 48792 48800 31.3409 
134 3 48801 48798 48804 48806 28.0148 
135 3 48804 48801 48807 48809 36.8378 
136 3 48798 48802 48795 48801 35.7253 
137 3 3060 3064 3057 3063 32.9326 
138 3 3066 3069 3070 3063 37.4633 
139 3 48801 48804 48805 48798 43.0553 
140 3 3057 3060 3061 3054 33.2825 
141 3 3057 3060 3054 3062 31.1704 
142 3 3063 3060 3066 3068 28.4778 
143 3 3063 3066 3067 3060 34.8753 
144 3 3069 3072 3073 3066 44.6099 
145 3 3069 3072 3074 3066 35.8551 
146 3 2703 2707 2700 2706 34.1222 
147 3 3066 3063 3069 3071 29.827 
148 3 3051 3056 3050 3054 33.2879 
149 3 3050 3051 3052 3047 32.8526 
150 3 3050 3051 3053 3047 33.9876 
151 3 3054 3051 3057 3059 34.0273 
152 3 2915 2918 2919 2912 36.5062 
153 3 2918 2921 2922 2915 35.7351 
154 3 2918 2921 2923 2915 47.448 
155 3 3275 3279 3272 3278 34.953 
156 3 3281 3284 3285 3278 37.6557 
157 3 3281 3278 3284 3286 34.7714 
158 3 2915 2912 2918 2920 26.2256 
159 3 3077 3080 3081 3075 43.2666 
160 3 3077 3080 3082 3075 27.5804 
161 3 3083 3080 3086 3087 29.5218 
162 3 2912 2915 2916 2909 35.36 
163 3 3272 3275 3276 3269 34.6182 
164 3 3272 3275 3269 3277 32.5215 
165 3 3278 3275 3281 3283 31.3173 
166 3 3275 3280 3278 3272 35.1818 
167 3 3278 3281 3282 3275 36.9361 
168 1 2873 2874 2875 2879 3.79403 
169 2 2878 2874 2883 2877 4.36273 
170 2 2881 2874 2884 2885 16.12 
171 2 2883 2878 2887 2888 3.54524 
172 3 2839 2842 2843 2836 28.7767 
173 3 2839 2842 2844 2836 34.2827 
174 3 2845 2842 2848 2849 30.4013 
175 3 2899 2900 2901 2896 25.884 
176 3 2899 2900 2902 2896 36.8135 
177 3 2903 2900 2906 2908 32.6385 
178 3 2834 2836 2837 2806 33.3153 
179 3 2845 2850 2842 2848 38.1648 
180 3 2842 2845 2846 2839 36.103 
181 3 2842 2845 2847 2839 34.1035 
182 3 2848 2845 2851 2853 27.3949 
183 5 2882 2877 2886 2868 1.08635 
184 4 2866 2869 2870 2733 4.48707 
185 2 2877 2882 2876 2878 0.511124 
186 2 2886 2889 2882 2888 20.165 
187 4 2868 2867 2869 2882 0.112273 
188 2 2867 2871 2870 2868 10.9032 
189 3 67216 67218 67219 67188 24.214 
190 3 67221 67224 67225 67218 40.6979 
191 3 67221 67224 67226 67218 37.3776 
192 3 67227 67224 67230 67231 30.95 
193 3 67224 67227 67228 67221 38.7286 
194 3 67224 67227 67229 67221 35.3201 
195 3 67230 67227 67233 67235 31.3623 
196 2 2736 2739 2732 2733 3.98889 
197 3 2741 2739 2740 2805 3.41962 
198 3 67188 67216 67187 67191 31.6956 
199 3 67218 67216 67221 67222 29.9334 
200 3 67218 67216 67221 67223 32.2693 
201 3 67188 67217 67187 67191 34.6006 
202 3 67198 67201 67202 67195 39.3569 
203 3 67198 67201 67195 67203 31.1722 
204 3 67216 67188 67218 67220 34.7239 
205 3 67192 67195 67196 67191 31.8076 
206 3 67192 67195 67197 67191 33.2327 
207 3 67191 67192 67193 67188 32.3105 
208 3 67191 67192 67194 67188 30.904 
209 3 67195 67192 67198 67199 30.813 
210 3 67195 67200 67192 67198 31.7149 
211 3 67201 67204 67205 67198 34.7984 
212 3 67201 67204 67198 67206 29.4834 
213 3 67207 67204 67210 67212 31.4285 
214 3 67204 67209 67207 67201 33.2555 
215 3 67227 67232 67224 67230 36.1557 
216 3 67204 67208 67201 67207 32.2562 
217 3 67471 67474 67475 67468 31.5902 
218 3 67471 67474 67468 67476 24.7499 
219 3 67477 67474 67480 67482 25.3955 
220 3 67468 67471 67472 67465 32.9141 
221 3 54235 54238 54239 54232 33.0429 
222 3 54235 54238 54232 54240 33.6285 
223 3 54241 54238 54244 54246 33.3729 
224 3 54232 54235 54236 54229 35.5955 
225 3 67474 67479 67477 67471 32.1986 
226 3 54244 54241 54247 54249 33.5573 
227 3 54238 54242 54235 54241 29.4964 
228 3 53108 53113 53105 53111 37.6734 
229 3 54238 54243 54241 54235 41.7791 
230 3 54241 54244 54245 54238 32.5475 
231 3 53114 53117 53118 53111 29.974 
232 3 53114 53117 53111 53119 29.9995 
233 3 53120 53117 53123 53125 28.97 
234 3 53117 53121 53114 53120 37.834 
235 3 53105 53108 53109 53102 39.3475 
236 3 53105 53108 53110 53102 35.6576 
237 3 53111 53108 53116 53114 30.3015 
238 3 53117 53122 53120 53114 43.1395 
239 2 53059 53054 53063 53064 0.0971781 
240 3 53071 53074 53051 53072 31.1887 
241 3 53071 53073 53051 53072 28.1803 
242 2 53043 53047 53046 53044 7.85028 
243 5 53058 53053 53062 53044 0.667223 
244 1 53052 53051 53053 53056 2.49399 
245 3 53051 53049 53052 53071 3.03753 
246 4 53044 53043 53045 53058 1.75582 
247 2 53053 53058 53052 53054 4.24724 
248 3 53100 53072 53102 53104 33.7643 
249 1 53049 53050 53051 53055 3.33821 
250 2 53054 53050 53059 53053 2.47012 
251 2 53057 53050 53060 53061 9.6376 
252 2 22520 22527 22524 22519 3.14876 
253 5 22530 22527 22533 22663 1.14652 
254 2 53064 53067 53062 53059 0.308772 
255 3 13674 13677 13678 13671 36.9316 
256 3 13680 13683 13684 13677 42.572 
257 3 13680 13683 13685 13677 39.4817 
258 3 13677 13680 13681 13674 36.4722 
259 3 53010 52982 53012 53014 28.5397 
260 3 35878 35883 35875 35881 33.5852 
261 1 52915 52917 52918 52912 7.5378 
262 1 52916 52917 52919 52913 3.0879 
263 3 52981 52917 52982 52983 30.6013 
264 3 52981 52917 52982 52984 32.1822 
265 3 52982 53010 52981 52985 31.7435 
266 3 53012 53010 53015 53016 30.9402 
267 3 53012 53010 53015 53017 35.2699 
268 3 35821 35819 35822 35841 0.189164 
269 3 35841 35844 35821 35842 32.1684 
270 1 35822 35821 35823 35826 0.176573 
271 3 35846 35845 35849 35850 31.1637 
272 3 35842 35845 35870 35841 34.9676 
273 3 35842 35845 35871 35841 40.7543 
274 3 35870 35842 35872 35874 28.8015 
275 3 35875 35878 35879 35872 36.3431 
276 3 35875 35878 35880 35872 42.3623 
277 3 35881 35878 35886 35884 34.4817 
278 3 35872 35875 35876 35870 39.1385 
279 3 35872 35875 35877 35870 29.4231 
280 3 35878 35875 35881 35882 29.3804 
281 3 35870 35872 35873 35842 32.7819 
282 4 35812 35815 35816 35679 2.44783 
283 3 39222 39225 39226 39219 39.0456 
284 3 39222 39225 39227 39219 28.4541 
285 3 36151 36154 36155 36148 41.5145 
286 2 35820 35827 35824 35819 2.86041 
287 5 35830 35827 35833 35963 1.04883 
288 3 36154 36157 36158 36151 42.6992 
289 3 36154 36157 36151 36159 24.3424 
290 3 36160 36157 36163 36165 33.6106 
291 3 36157 36161 36154 36160 34.0294 
292 3 36157 36162 36160 36154 31.4992 
293 3 22166 22171 22169 22163 35.7569 
294 1 35819 35820 35821 35825 0.952446 
295 2 35824 35820 35829 35823 0.979375 
296 2 35827 35820 35830 35831 7.51448 
297 5 35828 35823 35832 35814 0.674037 
298 2 35829 35824 35833 35834 1.68986 
299 2 35823 35828 35822 35824 4.32402 
300 2 35832 35835 35828 35834 8.76582 
301 2 35834 35837 35832 35829 2.84914 
302 1 35836 35838 35839 35833 3.53271 
303 1 35837 35838 35840 35834 9.41557 
304 3 35902 35838 35903 35904 29.7998 
305 3 35902 35838 35903 35905 30.612 
306 3 22166 22170 22163 22169 42.5205 
307 3 22163 22166 22167 22160 33.3816 
308 3 22163 22166 22160 22168 30.3509 
309 3 22169 22166 22172 22174 33.0311 
310 3 22172 22175 22176 22169 40.2669 
311 3 22172 22169 22175 22177 33.7249 
312 3 22169 22172 22173 22166 33.4261 
313 3 36148 36153 36147 36151 34.7755 
314 3 35936 35939 35940 35933 37.1832 
315 3 35936 35939 35941 35933 37.1305 
316 3 35942 35939 35945 35946 30.831 
317 2 34928 34931 34926 34923 2.54367 
318 3 35903 35931 35902 35906 28.4441 
319 3 35933 35931 35936 35937 29.9183 
320 3 35933 35931 35936 35938 30.2554 
321 3 35931 35933 35934 35903 34.1732 
322 3 22003 22006 22007 22002 37.0521 
323 3 22003 22006 22008 22002 35.3497 
324 3 22015 22019 22012 22018 37.4589 
325 3 22006 22011 22003 22009 38.0064 
326 3 35025 35027 35028 34997 36.6691 
327 3 34997 35025 34996 35000 32.2794 
328 3 35027 35025 35030 35031 26.8451 
329 3 35027 35025 35030 35032 30.8171 
330 3 22009 22012 22013 22006 29.6612 
331 3 22009 22012 22006 22014 29.7124 
332 3 22012 22015 22016 22009 38.5168 
333 3 22012 22015 22009 22017 25.2985 
334 3 22018 22015 22021 22023 33.8549 
335 3 35030 35033 35034 35027 33.7828 
336 3 35030 35033 35035 35027 34.6466 
337 3 35036 35033 35039 35040 27.6236 
338 3 35025 34997 35027 35029 31.0488 
339 3 22015 22020 22018 22012 35.4638 
340 3 22021 22018 22024 22026 42.3922 
341 3 22018 22021 22022 22015 33.8512 
342 3 22021 22024 22025 22018 32.3383 
343 2 17693 17688 17697 17698 1.1966 
344 1 17700 17702 17703 17697 0.489602 
345 1 17701 17702 17704 17698 2.10592 
346 3 17766 17702 17767 17768 28.0375 
347 3 17766 17702 17767 17769 25.8873 
348 2 17687 17692 17686 17688 3.08914 
349 2 17696 17699 17692 17698 16.9129 
350 2 17698 17701 17696 17693 0.237465 
351 3 17649 17652 17653 17646 34.7804 
352 3 17649 17652 17654 17646 33.4801 
353 3 17655 17652 17658 17659 28.6035 
354 3 17655 17660 17652 17658 43.9881 
355 3 48943 48946 48947 48940 41.0337 
356 3 48949 48954 48952 48946 29.0589 
357 3 48949 48953 48946 48952 33.4368 
358 3 48946 48949 48950 48943 37.9583 
359 3 48946 48949 48943 48951 30.777 
360 3 48952 48949 48955 48957 25.67 
361 3 48955 48952 48958 48960 35.215 
362 3 48952 48955 48956 48949 37.7449 
363 3 17777 17780 17781 17774 36.6722 
364 3 17777 17780 17774 17782 28.5121 
365 3 48955 48958 48959 48952 33.4838 
366 3 48792 48795 48796 48789 36.4471 
367 3 17185 17188 17189 17182 36.1446 
368 3 48789 48794 48786 48792 35.4861 
369 3 48786 48789 48790 48783 32.7703 
370 3 48786 48789 48791 48783 32.5216 
371 3 48792 48789 48795 48797 32.3195 
372 3 48783 48786 48787 48780 41.1462 
373 3 48783 48786 48788 48780 30.4669 
374 3 48789 48786 48792 48793 31.3842 
375 3 17182 17185 17186 17179 34.6152 
376 3 3075 3077 3078 3047 34.4428 
377 3 3051 3050 3054 3055 33.1445 
378 3 3047 3050 3075 3046 27.9944 
379 3 3047 3050 3076 3046 42.6116 
380 3 3075 3047 3077 3079 31.6542 
381 3 3046 3049 3026 3047 32.8695 
382 1 3027 3026 3028 3031 0.846956 
383 3 3026 3024 3027 3046 0.510961 
384 2 3034 3029 3038 3039 11.4498 
385 1 3024 3025 3026 3030 3.20059 
386 2 3029 3025 3034 3028 5.18377 
387 2 3032 3025 3035 3036 13.7038 
388 5 3033 3028 3037 3019 2.39406 
389 3 3046 3048 3026 3047 38.3882 
390 3 16502 16501 16505 16506 31.7078 
391 3 16498 16501 16526 16497 34.0803 
392 3 16498 16501 16527 16497 36.0642 
393 2 2874 2881 2878 2873 1.09975 
394 5 2884 2881 2887 3017 1.22202 
395 2 3028 3033 3027 3029 1.25026 
396 4 3019 3018 3020 3033 0.258056 
397 4 3017 3020 3021 2884 1.2416 
398 2 3021 3017 3023 3018 12.4862 
399 2 3037 3040 3033 3039 8.29767 
400 3 3246 3249 3250 3243 38.6281 
401 3 3249 3252 3253 3246 34.836 
402 3 3252 3255 3256 3249 42.8433 
403 3 3252 3255 3257 3249 37.8597 
404 2 3018 3022 3021 3019 9.16322 
405 3 16543 16547 16540 16546 32.9157 
406 2 2888 2891 2886 2883 1.77706 
407 2 2887 2890 2883 2884 0.0932332 
408 3 2892 2890 2891 2956 5.40632 
409 1 2890 2892 2893 2887 6.39612 
410 1 2891 2892 2894 2888 2.71177 
411 3 2956 2892 2957 2958 28.0081 
412 3 2956 2892 2957 2959 31.3672 
413 3 2960 2961 2962 2957 31.7498 
414 3 2960 2961 2963 2957 37.6529 
415 3 2964 2961 2967 2968 30.3856 
416 3 2957 2986 2956 2960 43.7278 
417 3 2985 2957 2987 2989 31.3334 
418 3 2957 2985 2956 2960 25.3971 
419 3 2987 2985 2990 2991 34.8569 
420 3 2987 2985 2990 2992 27.7124 
421 3 2985 2987 2988 2957 34.0236 
422 3 67442 67447 67445 67439 34.322 
423 1 67121 67123 67124 67118 2.18321 
424 1 67122 67123 67125 67119 6.51771 
425 3 67187 67123 67188 67189 29.0336 
426 3 67187 67123 67188 67190 26.9891 
427 3 67462 67465 67466 67459 39.1331 
428 3 67462 67465 67467 67459 38.5874 
429 3 67468 67465 67473 67471 33.7167 
430 3 67465 67470 67462 67468 27.9373 
431 2 67118 67121 67114 67115 2.35042 
432 3 67123 67121 67122 67187 2.70322 
433 3 67459 67462 67463 67457 36.9394 
434 3 67459 67462 67464 67457 35.5093 
435 3 67465 67462 67468 67469 34.7026 
436 3 67442 67446 67439 67445 34.8683 
437 3 67436 67439 67440 67433 36.1642 
438 2 67252 67248 67254 67249 7.77079 
439 4 67250 67249 67251 67264 0.824901 
440 4 67248 67251 67252 67115 0.614129 
441 3 67432 67433 67434 67429 39.672 
442 3 67432 67433 67435 67429 32.8174 
443 3 67436 67433 67439 67441 27.957 
444 3 67457 67459 67460 67429 30.9428 
445 3 67433 67438 67432 67436 34.7256 
446 2 67259 67264 67258 67260 6.02801 
447 3 67433 67432 67436 67437 27.2755 
448 3 67429 67432 67457 67428 31.3898 
449 3 67429 67432 67458 67428 38.0266 
450 3 67474 67478 67471 67477 34.9736 
451 3 54244 54247 54248 54241 34.1181 
452 1 67255 67256 67257 67261 4.64621 
453 2 67260 67256 67265 67259 8.67329 
454 2 67263 67256 67266 67267 13.8039 
455 3 67277 67279 67257 67278 27.2602 
456 5 67264 67259 67268 67250 3.87485 
457 2 67265 67260 67269 67270 1.21214 
458 3 67257 67255 67258 67277 5.13022 
459 3 67277 67280 67257 67278 32.6256 
460 1 67258 67257 67259 67262 1.28197 
461 3 67306 67278 67308 67310 24.0502 
462 3 67306 67308 67309 67278 38.0256 
463 3 67282 67281 67285 67286 27.6421 
464 3 67278 67281 67306 67277 31.4161 
465 3 67278 67281 67307 67277 43.1497 
466 3 53010 53012 53013 52982 37.9929 
467 3 67311 67314 67315 67308 32.8058 
468 3 67311 67314 67316 67308 27.1983 
469 3 67317 67314 67322 67320 33.0543 
470 2 52912 52915 52908 52909 3.43309 
471 3 52917 52915 52916 52981 13.5427 
472 3 67314 67319 67311 67317 28.2392 
473 3 67281 67282 67283 67278 32.2331 
474 3 67281 67282 67284 67278 40.8257 
475 3 67285 67282 67288 67290 29.4877 
476 3 67282 67287 67281 67285 37.6636 
477 4 53042 53045 53046 52909 2.50933 
478 2 52908 52903 52912 52913 4.52948 
479 2 53046 53042 53048 53043 17.4107 
480 2 53062 53065 53058 53064 10.445 
481 1 52898 52899 52900 52904 1.75737 
482 2 52903 52899 52908 52902 3.35793 
483 2 52906 52899 52909 52910 11.3418 
484 3 52985 52986 52987 52982 34.6274 
485 3 52985 52986 52988 52982 31.7764 
486 3 52989 52986 52992 52993 30.6931 
487 3 35690 35692 35670 35691 33.3004 
488 3 35690 35693 35670 35691 38.1235 
489 3 52986 52989 52990 52985 27.9654 
490 3 52986 52989 52991 52985 35.1295 
491 1 35671 35670 35672 35675 1.20638 
492 3 52989 52994 52986 52992 35.6069 
493 3 35670 35668 35671 35690 6.00373 
494 3 52982 53011 52981 52985 39.3848 
495 3 24851 24854 24855 24848 32.492 
496 3 24851 24854 24848 24856 34.0841 
497 3 24857 24854 24860 24862 38.7548 
498 3 52992 52995 52996 52989 38.5471 
499 3 52992 52995 52989 52997 23.8051 
500 3 52998 53002 52995 53001 33.1193 
501 5 35677 35672 35681 35663 4.12365 
502 2 35672 35677 35671 35673 4.50883 
503 3 24860 24857 24863 24865 36.0314 
504 3 24857 24860 24861 24854 34.5336 
505 3 24848 24851 24852 24845 38.5852 
506 2 35816 35812 35818 35813 5.4287 
507 2 35669 35676 35673 35668 3.2577 
508 5 35679 35676 35682 35812 1.81614 
509 1 35668 35669 35670 35674 7.61053 
510 2 35673 35669 35678 35672 1.11669 
511 2 35676 35669 35679 35680 12.4853 
512 3 35887 35892 35890 35884 33.8845 
513 2 35678 35673 35682 35683 3.37731 
514 1 35685 35687 35688 35682 1.82286 
515 1 35686 35687 35689 35683 5.42798 
516 3 35751 35687 35752 35753 26.2668 
517 3 35751 35687 35752 35754 27.905 
518 2 35683 35686 35681 35678 1.3903 
519 2 35682 35685 35678 35679 2.32934 
520 3 35687 35685 35686 35751 9.12348 
521 3 35791 35796 35788 35794 43.1525 
522 1 34916 34915 34917 34920 5.45178 
523 4 35814 35813 35815 35828 5.83715 
524 2 35813 35817 35816 35814 4.32616 
525 3 34943 34946 34947 34940 31.9927 
526 3 35752 35781 35751 35755 37.8484 
527 3 34940 34945 34939 34943 34.7978 
528 3 34939 34940 34941 34936 43.9876 
529 3 34939 34940 34942 34936 30.0538 
530 3 34943 34940 34946 34948 25.6315 
531 3 34940 34939 34943 34944 33.1186 
532 3 34936 34939 34964 34935 32.9796 
533 3 34936 34939 34965 34935 40.7498 
534 3 34964 34936 34966 34968 33.6881 
535 3 34935 34938 34915 34936 31.4361 
536 2 34923 34918 34927 34928 0.322916 
537 1 34930 34932 34933 34927 6.28095 
538 1 34931 34932 34934 34928 7.23446 
539 3 34996 34932 34997 34998 31.1057 
540 3 34996 34932 34997 34999 30.3872 
541 3 27156 27159 27160 27153 38.3445 
542 2 34927 34930 34923 34924 4.19032 
543 3 34932 34930 34931 34996 2.11149 
544 3 27159 27162 27163 27156 31.6392 
545 3 27159 27156 27162 27164 36.3927 
546 3 27153 27158 27156 27150 28.9874 
547 3 27150 27153 27154 27147 35.2987 
548 3 27150 27153 27147 27155 24.8137 
549 3 27156 27153 27159 27161 31.6797 
550 3 27153 27157 27150 27156 35.6468 
551 3 27147 27150 27151 27144 37.7002 
552 3 27147 27150 27144 27152 29.2101 
553 3 24572 24575 24576 24571 33.3291 
554 3 24572 24575 24577 24571 32.0081 
555 3 24575 24580 24572 24578 32.5584 
556 2 34914 34921 34918 34913 0.912118 
557 5 34924 34921 34927 35057 2.73337 
558 1 34913 34914 34915 34919 0.637608 
559 2 34918 34914 34923 34917 0.411071 
560 2 34921 34914 34924 34925 11.7948 
561 2 35061 35057 35063 35058 12.4982 
562 3 24578 24581 24582 24575 38.2944 
563 3 24578 24581 24575 24583 30.3907 
564 3 34915 34913 34916 34935 2.0156 
565 3 34997 35026 34996 35000 38.3913 
566 3 35000 35001 35002 34997 42.1859 
567 3 35000 35001 35003 34997 33.2659 
568 3 35004 35001 35007 35008 31.2704 
569 3 35001 35004 35005 35000 34.2873 
570 3 35001 35004 35006 35000 38.5102 
571 3 35004 35009 35001 35007 33.2699 
572 4 35059 35058 35060 35073 6.00793 
573 3 35007 35010 35011 35004 28.0032 
574 3 35007 35010 35004 35012 29.7101 
575 3 35010 35013 35014 35007 32.5302 
576 3 35010 35013 35007 35015 29.5237 
577 3 35016 35013 35019 35021 34.5995 
578 3 35013 35017 35010 35016 32.143 
579 3 24468 24471 24472 24465 36.2767 
580 3 17616 17644 17615 17619 33.8747 
581 3 17646 17644 17649 17650 22.7094 
582 3 17646 17644 17649 17651 36.2699 
583 3 17644 17646 17647 17616 33.0574 
584 2 17546 17549 17542 17543 1.70886 
585 3 17551 17549 17550 17615 5.30042 
586 3 17644 17616 17646 17648 31.797 
587 3 17616 17645 17615 17619 33.0678 
588 1 17549 17551 17552 17546 0.36971 
589 1 17550 17551 17553 17547 1.25591 
590 3 17615 17551 17616 17617 29.7205 
591 3 17615 17551 17616 17618 28.0886 
592 3 27008 27011 27012 27005 34.4828 
593 3 17321 17326 17318 17324 25.7199 
594 2 17547 17550 17545 17542 1.52375 
595 2 17545 17548 17541 17547 8.03237 
596 3 27005 27008 27009 27002 32.9434 
597 3 17789 17786 17792 17794 33.8449 
598 3 17465 17493 17464 17468 33.7986 
599 3 17495 17493 17498 17499 31.9544 
600 3 17495 17493 17498 17500 26.0314 
601 2 17395 17398 17391 17392 2.44057 
602 3 17400 17398 17399 17464 6.4341 
603 1 17398 17400 17401 17395 2.73357 
604 1 17399 17400 17402 17396 4.63335 
605 3 17464 17400 17465 17466 21.034 
606 3 17464 17400 17465 17467 30.7786 
607 2 17396 17399 17394 17391 0.241354 
608 3 17493 17465 17495 17497 29.8354 
609 3 17468 17469 17470 17465 36.7796 
610 3 17468 17469 17471 17465 37.2696 
611 3 17472 17469 17475 17476 30.4211 
612 3 17289 17294 17286 17292 36.6743 
613 3 48778 48780 48781 48750 33.516 
614 3 48750 48778 48749 48753 27.5639 
615 3 48780 48778 48783 48784 36.5288 
616 3 48780 48778 48783 48785 30.3357 
617 2 48680 48683 48676 48677 0.95274 
618 3 48685 48683 48684 48749 2.37966 
619 3 48778 48750 48780 48782 28.7242 
620 3 48750 48779 48749 48753 39.7359 
621 1 48683 48685 48686 48680 4.35813 
622 1 48684 48685 48687 48681 2.36728 
623 3 48749 48685 48750 48751 33.9343 
624 3 48749 48685 48750 48752 27.8503 
625 2 48681 48684 48679 48676 5.31673 
626 3 3130 3133 3134 3127 42.784 
627 3 48753 48754 48755 48750 37.9458 
628 3 48753 48754 48756 48750 31.1368 
629 3 48757 48754 48760 48761 32.4915 
630 3 3115 3120 3112 3118 36.8251 
631 2 3025 3032 3029 3024 2.60613 
632 5 3035 3032 3038 3168 5.16488 
633 3 16501 16502 16503 16498 30.7667 
634 3 16501 16502 16504 16498 32.7746 
635 3 16505 16502 16508 16510 34.7125 
636 3 16502 16507 16501 16505 35.8862 
637 3 3124 3128 3121 3127 33.3983 
638 3 16511 16516 16514 16508 36.7673 
639 3 16511 16515 16508 16514 32.9939 
640 3 16517 16514 16520 16522 29.4281 
641 3 16505 16508 16509 16502 34.9292 
642 3 16508 16511 16512 16505 35.2352 
643 3 16508 16511 16505 16513 34.2915 
644 3 16514 16511 16517 16519 27.8039 
645 3 16514 16517 16518 16511 35.4767 
646 3 3111 3112 3113 3108 34.5347 
647 3 3111 3112 3114 3108 32.8287 
648 3 3115 3112 3118 3119 24.5301 
649 3 3108 3137 3107 3111 36.7004 
650 2 3038 3041 3034 3035 2.68719 
651 3 3043 3041 3042 3107 0.834502 
652 3 3112 3115 3116 3111 33.9199 
653 3 3112 3115 3117 3111 34.9383 
654 2 3039 3042 3037 3034 2.1292 
655 3 3136 3108 3138 3140 37.3872 
656 1 3041 3043 3044 3038 2.17915 
657 1 3042 3043 3045 3039 0.374725 
658 3 3107 3043 3108 3109 28.186 
659 3 3107 3043 3108 3110 34.1665 
660 3 16363 16366 16367 16360 30.7885 
661 3 16366 16363 16369 16371 23.7072 
662 3 16366 16369 16370 16363 39.2653 
663 3 67059 67062 67063 67056 37.9529 
664 3 67059 67056 67062 67064 38.3988 
665 3 2961 2964 2965 2960 35.1042 
666 3 2961 2964 2966 2960 32.4806 
667 3 2964 2969 2961 2967 35.1292 
668 3 67047 67050 67051 67044 36.3984 
669 3 67047 67050 67044 67052 23.4433 
670 3 67056 67059 67060 67053 31.031 
671 3 67050 67053 67054 67047 38.3024 
672 3 67050 67053 67047 67055 32.6819 
673 3 67056 67053 67059 67061 32.8955 
674 3 67053 67057 67050 67056 39.503 
675 3 67445 67448 67449 67442 35.8513 
676 3 67448 67451 67452 67445 36.4438 
677 3 30064 30061 30067 30069 29.7594 
678 3 67439 67442 67443 67436 31.3188 
679 3 67439 67442 67436 67444 36.983 
680 3 67445 67442 67448 67450 26.7394 
681 2 67249 67253 67252 67250 4.27735 
682 2 67268 67271 67264 67270 22.6709 
683 3 67448 67445 67451 67453 21.2396 
684 3 67451 67454 67455 67448 39.8646 
685 3 67451 67454 67456 67448 37.6158 
686 3 52841 52844 52845 52838 41.556 
687 3 52841 52844 52838 52846 26.3289 
688 3 30052 30055 30056 30049 33.519 
689 3 30061 30064 30065 30058 37.1186 
690 2 67270 67273 67268 67265 1.11454 
691 3 67308 67311 67312 67306 38.4469 
692 3 67308 67311 67313 67306 41.931 
693 3 67314 67311 67317 67318 34.3442 
694 3 9324 9327 9328 9321 31.3033 
695 3 9327 9330 9331 9324 42.0005 
696 3 9327 9324 9330 9332 30.3232 
697 3 9321 9326 9324 9318 31.4177 
698 3 9321 9325 9318 9324 40.49 
699 3 9315 9318 9319 9312 34.8569 
700 3 9315 9318 9312 9320 32.2691 
701 3 9318 9321 9322 9315 33.5296 
702 3 9318 9321 9315 9323 31.4833 
703 3 9324 9321 9327 9329 33.8591 
704 3 30064 30067 30068 30061 33.623 
705 3 52920 52922 52900 52921 34.5829 
706 3 24860 24863 24864 24857 36.7346 
707 5 52907 52902 52911 52893 4.30652 
708 2 52902 52907 52901 52903 3.48109 
709 2 52913 52916 52911 52908 0.617223 
710 4 52891 52894 52895 52758 3.84944 
711 2 52911 52914 52907 52913 19.7267 
712 2 52892 52896 52895 52893 7.82704 
713 4 52893 52892 52894 52907 4.55266 
714 2 52895 52891 52897 52892 4.9227 
715 4 35663 35662 35664 35677 9.48751 
716 2 35662 35666 35665 35663 6.66255 
717 3 53001 53004 53005 52998 34.2106 
718 3 24854 24858 24851 24857 34.1016 
719 3 53004 53007 53008 53001 38.5352 
720 3 24854 24859 24857 24851 40.1218 
721 3 24808 24811 24788 24809 36.3964 
722 3 24808 24810 24788 24809 38.5633 
723 2 35681 35684 35677 35683 19.3562 
724 3 35780 35782 35783 35752 32.95 
725 3 35752 35780 35751 35755 31.0746 
726 3 35782 35780 35785 35786 30.6119 
727 3 35782 35780 35785 35787 27.0301 
728 3 35780 35752 35782 35784 27.4051 
729 3 35601 35630 35600 35604 39.2914 
730 3 35629 35631 35632 35601 30.4114 
731 3 35634 35637 35638 35631 35.4901 
732 3 35634 35637 35639 35631 40.0642 
733 3 35640 35637 35643 35644 33.0528 
734 3 35762 35765 35766 35759 27.5629 
735 3 35762 35765 35759 35767 31.1306 
736 3 35755 35756 35757 35752 34.0988 
737 3 35755 35756 35758 35752 37.3502 
738 3 35759 35756 35762 35763 34.3424 
739 3 35756 35759 35760 35755 37.9078 
740 3 35756 35759 35761 35755 41.8962 
741 3 35759 35764 35756 35762 28.5271 
742 3 24921 24924 24925 24918 35.1445 
743 3 24924 24927 24928 24921 34.7623 
744 3 24912 24915 24916 24909 38.0835 
745 2 24629 24633 24632 24630 13.0256 
746 3 24924 24921 24927 24929 34.049 
747 3 24915 24918 24919 24912 33.1809 
748 3 24915 24918 24912 24920 30.5091 
749 3 24921 24918 24924 24926 29.0356 
750 3 24918 24923 24921 24915 35.1976 
751 3 24918 24922 24915 24921 43.4522 
752 3 35774 35771 35777 35779 33.7042 
753 3 35768 35772 35765 35771 29.6494 
754 3 35765 35768 35769 35762 39.881 
755 3 35765 35768 35762 35770 29.6678 
756 3 35771 35768 35774 35776 31.2066 
757 3 24571 24572 24573 24568 35.0621 
758 3 24571 24572 24574 24568 37.0486 
759 3 24575 24572 24578 24579 33.8232 
760 3 35768 35773 35771 35765 32.3727 
761 3 24596 24598 24599 24568 31.6205 
762 3 24596 24568 24598 24600 29.2852 
763 3 35771 35774 35775 35768 32.4943 
764 2 24498 24501 24494 24495 2.46389 
765 3 24503 24501 24502 24567 3.28204 
766 1 24501 24503 24504 24498 0.815884 
767 1 24502 24503 24505 24499 5.58768 
768 3 24567 24503 24568 24569 28.4133 
769 3 24567 24503 24568 24570 25.6938 
770 3 35774 35777 35778 35771 37.5386 
771 3 24568 24596 24567 24571 28.9589 
772 3 24598 24596 24601 24602 29.6844 
773 3 24598 24596 24601 24603 30.0748 
774 3 24568 24597 24567 24571 31.1248 
775 2 35058 35062 35061 35059 3.51204 
776 3 35019 35016 35022 35024 35.2084 
777 3 35013 35018 35016 35010 39.2115 
778 3 35016 35019 35020 35013 30.5809 
779 3 35019 35022 35023 35016 34.4038 
780 3 26947 26950 26951 26944 28.3394 
781 3 26947 26950 26952 26944 36.9928 
782 3 26941 26944 26945 26938 41.5401 