ITEM: TIMESTEP
0
ITEM: NUMBER OF ENTRIES
14340
ITEM: BOX BOUNDS pp pp pp
96.903 158.097
96.903 158.097
96.903 158.097
ITEM: ENTRIES index c_1[1] c_1[2] c_1[3] c_1[4] c_1[5] c_2 
1 2 9910 9913 9914 9909 33.7319 
2 2 9910 9913 9915 9909 35.8051 
3 2 9913 9910 9916 9918 30.6583 
4 2 9909 9912 9905 9910 33.4363 
5 2 9909 9911 9905 9910 32.0301 
6 1 9929 9928 9932 9933 6.35531 
7 2 17679 17681 17675 17680 36.6769 
8 1 9932 9929 9931 9934 0.448159 
9 3 9928 9929 9930 9907 1.78067 
10 2 22542 22545 22546 22541 32.7135 
11 2 22542 22545 22547 22541 32.2005 
12 1 9905 9904 9907 9909 5.04777 
13 3 9903 9904 9908 9881 4.49955 
14 2 9913 9916 9917 9910 32.625 
15 3 9931 9930 9932 9953 5.53489 
16 2 9761 9764 9765 9758 39.8388 
17 2 9916 9919 9920 9913 35.6658 
18 2 9916 9919 9921 9913 31.0761 
19 2 9922 9919 9925 9926 30.3918 
20 2 9764 9767 9768 9761 44.4047 
21 2 9764 9767 9769 9761 34.2073 
22 2 9770 9767 9773 9774 38.024 
23 2 9767 9770 9771 9764 39.6198 
24 2 9767 9770 9772 9764 37.139 
25 2 4552 4555 4556 4549 34.5408 
26 2 4552 4555 4557 4549 35.3146 
27 2 4558 4555 4561 4562 44.6997 
28 2 4549 4552 4553 4546 35.4903 
29 2 7788 7791 7792 7785 35.4242 
30 2 7788 7791 7793 7785 42.5973 
31 2 7791 7796 7788 7794 30.0107 
32 2 9770 9775 9767 9773 31.5213 
33 2 4555 4558 4559 4552 36.1281 
34 2 4555 4558 4560 4552 29.4749 
35 3 10457 10458 10455 10478 0.781255 
36 2 4546 4549 4550 4545 44.1176 
37 2 4546 4549 4551 4545 38.46 
38 2 10435 10438 10439 10434 34.6932 
39 2 10435 10438 10440 10434 33.5243 
40 2 10441 10444 10445 10438 40.0348 
41 2 10441 10444 10446 10438 35.0181 
42 2 10447 10444 10450 10451 37.7148 
43 2 10444 10447 10448 10441 43.3024 
44 2 10444 10447 10449 10441 31.8526 
45 2 10438 10441 10442 10435 34.4069 
46 2 4574 4571 4577 4579 34.538 
47 3 18079 18080 18077 18100 3.97323 
48 3 18052 18051 18053 18075 0.807034 
49 2 4571 4574 4575 4570 33.2687 
50 2 4571 4574 4576 4570 31.9251 
51 2 4574 4577 4578 4571 27.5887 
52 2 4577 4580 4581 4574 34.8602 
53 2 4577 4580 4582 4574 39.1959 
54 2 4583 4580 4586 4587 35.9963 
55 2 4580 4583 4584 4577 31.0878 
56 2 4580 4583 4585 4577 33.8622 
57 2 18756 18758 18754 18757 27.77 
58 2 18760 18757 18763 18765 25.9391 
59 1 18776 18775 18777 18778 3.91303 
60 2 18756 18759 18754 18757 32.3702 
61 2 4583 4588 4580 4586 27.8266 
62 2 11742 11739 11745 11747 23.8117 
63 2 11739 11742 11743 11738 34.1322 
64 2 11739 11742 11744 11738 33.984 
65 2 11845 11848 11849 11842 36.5386 
66 2 11845 11848 11850 11842 39.8727 
67 2 11851 11848 11854 11855 33.7489 
68 2 11851 11856 11848 11854 34.4397 
69 2 11848 11851 11852 11845 30.0723 
70 2 11848 11851 11853 11845 31.6473 
71 2 10172 10177 10169 10175 23.8116 
72 2 11742 11745 11746 11739 48.4859 
73 2 11751 11756 11748 11754 32.8394 
74 2 5224 5227 5228 5221 31.376 
75 2 5221 5224 5225 5220 32.7616 
76 2 5221 5224 5226 5220 41.2756 
77 2 5227 5230 5231 5224 32.1189 
78 2 5227 5230 5232 5224 40.3791 
79 2 5233 5230 5236 5237 30.7624 
80 2 5224 5221 5227 5229 33.1752 
81 2 11748 11751 11752 11745 33.554 
82 2 11748 11751 11753 11745 32.3142 
83 2 11745 11748 11749 11742 38.8632 
84 2 11745 11748 11750 11742 37.0599 
85 2 11751 11748 11754 11755 28.1235 
86 2 11801 11806 11798 11804 26.6444 
87 2 5230 5233 5234 5227 32.7785 
88 2 5230 5233 5235 5227 39.4268 
89 2 6524 6526 6522 6525 35.2146 
90 2 6524 6527 6522 6525 31.6548 
91 2 6525 6528 6529 6524 34.9348 
92 2 6525 6528 6530 6524 31.2378 
93 1 7496 7495 7497 7498 4.77697 
94 2 6528 6525 6531 6533 25.7919 
95 2 6528 6531 6532 6525 38.1451 
96 2 6534 6537 6538 6531 27.9038 
97 2 6534 6537 6539 6531 37.4939 
98 3 7473 7472 7474 7495 0.86769 
99 2 6537 6542 6534 6540 32.3529 
100 2 6531 6534 6535 6528 34.4772 
101 2 6531 6534 6536 6528 35.0355 
102 2 6537 6534 6540 6541 36.6048 
103 2 5233 5238 5230 5236 37.7992 
104 2 11798 11801 11802 11795 36.0451 
105 2 11798 11801 11803 11795 37.2593 
106 2 6050 6053 6054 6049 37.1159 
107 2 6050 6053 6055 6049 32.7886 
108 2 6653 6650 6656 6658 30.7497 
109 2 6649 6651 6645 6650 32.5458 
110 2 6049 6052 6045 6050 28.4487 
111 2 6049 6051 6045 6050 32.371 
112 1 6645 6644 6647 6649 9.65197 
113 3 6643 6644 6648 6621 1.08518 
114 2 6653 6656 6657 6650 29.4165 
115 2 6650 6653 6654 6649 41.2125 
116 2 6650 6653 6655 6649 33.6671 
117 2 6656 6659 6660 6653 40.5443 
118 2 6656 6659 6661 6653 33.8377 
119 2 6662 6659 6665 6666 32.676 
120 2 6649 6652 6645 6650 30.2364 
121 2 6659 6662 6663 6656 38.4025 
122 2 6659 6662 6664 6656 34.6298 
123 2 6662 6667 6659 6665 29.7997 
124 3 6071 6070 6072 6093 0.470003 
125 2 6678 6675 6681 6683 29.3497 
126 2 6675 6678 6679 6674 29.0635 
127 2 6675 6678 6680 6674 41.3592 
128 2 6681 6684 6685 6678 33.0182 
129 2 6681 6684 6686 6678 35.7727 
130 2 6687 6684 6690 6691 33.3367 
131 2 6678 6681 6682 6675 47.682 
132 2 22279 22284 22276 22282 36.1563 
133 2 22276 22279 22280 22273 36.4871 
134 2 22276 22279 22281 22273 30.4519 
135 2 22267 22270 22271 22266 35.9869 
136 2 22267 22270 22272 22266 34.9192 
137 2 22273 22276 22277 22270 33.7905 
138 2 22273 22276 22278 22270 32.273 
139 2 22279 22276 22282 22283 30.7341 
140 2 9934 9937 9932 9935 38.493 
141 2 6684 6687 6688 6681 30.1676 
142 2 6684 6687 6689 6681 34.9813 
143 2 6687 6692 6684 6690 30.0851 
144 2 22270 22273 22274 22267 37.3294 
145 2 9934 9936 9932 9935 33.2868 
146 2 22554 22559 22551 22557 31.9756 
147 2 22551 22554 22555 22548 32.3139 
148 2 22551 22554 22556 22548 41.6887 
149 2 22545 22548 22549 22542 34.3471 
150 2 17679 17682 17675 17680 37.7107 
151 1 17675 17674 17677 17679 10.6177 
152 3 17673 17674 17678 17651 4.14255 
153 1 17699 17698 17702 17703 4.43094 
154 3 17677 17678 17675 17698 1.06778 
155 1 17674 17673 17675 17676 7.2429 
156 1 17702 17699 17701 17704 4.81715 
157 3 17698 17699 17700 17677 0.774327 
158 2 17654 17656 17652 17655 35.7082 
159 2 9919 9922 9923 9916 38.5298 
160 2 9919 9922 9924 9916 35.1767 
161 2 9922 9927 9919 9925 37.5126 
162 1 10454 10453 10455 10456 2.19288 
163 1 10455 10454 10457 10459 13.5488 
164 3 10453 10454 10458 10431 0.556721 
165 2 17708 17705 17711 17713 34.5832 
166 2 17705 17708 17709 17704 30.6229 
167 2 17705 17708 17710 17704 36.8123 
168 3 10431 10430 10432 10453 4.18401 
169 2 17708 17711 17712 17705 34.8732 
170 2 17704 17706 17702 17705 32.0042 
171 2 10438 10435 10441 10443 34.1557 
172 2 17714 17717 17718 17711 35.0196 
173 2 17714 17717 17719 17711 34.2921 
174 2 10434 10436 10432 10435 35.1222 
175 2 10434 10437 10432 10435 35.433 
176 2 17711 17714 17715 17708 37.3471 
177 2 17711 17714 17716 17708 35.1212 
178 2 17717 17714 17720 17721 36.5735 
179 2 17717 17722 17714 17720 38.505 
180 1 10432 10429 10431 10434 15.5981 
181 3 10428 10429 10430 10407 7.64901 
182 2 21399 21402 21403 21396 38.2568 
183 2 21399 21402 21404 21396 38.6635 
184 2 21396 21399 21400 21393 36.3078 
185 2 21396 21399 21401 21393 32.112 
186 2 21402 21399 21405 21406 37.8354 
187 2 21402 21407 21399 21405 25.5487 
188 2 18131 18134 18127 18132 35.9754 
189 2 18757 18760 18761 18756 40.5533 
190 2 18757 18760 18762 18756 37.8015 
191 1 18127 18126 18129 18131 3.86308 
192 3 18125 18126 18130 18103 9.13604 
193 2 18135 18132 18138 18140 31.4913 
194 2 18131 18133 18127 18132 33.9882 
195 1 18126 18125 18127 18128 9.94979 
196 1 18151 18150 18154 18155 3.2488 
197 3 18129 18130 18127 18150 0.787357 
198 3 18153 18152 18154 18175 3.5852 
199 1 18154 18151 18153 18156 5.93385 
200 3 18150 18151 18152 18129 1.71714 
201 2 18760 18763 18764 18757 39.7834 
202 2 18763 18766 18767 18760 39.7108 
203 2 18763 18766 18768 18760 35.1659 
204 2 18769 18766 18772 18773 34.5381 
205 2 18766 18769 18770 18763 39.3342 
206 2 18766 18769 18771 18763 30.8581 
207 2 18769 18774 18766 18772 33.3187 
208 3 11785 11784 11786 11807 0.802003 
209 3 11811 11812 11809 11832 0.343802 
210 1 11808 11807 11809 11810 2.89575 
211 1 11809 11808 11811 11813 2.88837 
212 3 11807 11808 11812 11785 1.98012 
213 2 11795 11798 11799 11792 37.2574 
214 2 11795 11798 11800 11792 35.019 
215 2 11801 11798 11804 11805 35.8434 
216 2 11788 11790 11786 11789 32.3871 
217 1 11786 11783 11785 11788 12.5952 
218 3 11782 11783 11784 11761 1.83563 
219 2 11763 11765 11759 11764 30.1782 
220 2 11792 11789 11795 11797 31.9301 
221 2 11788 11791 11786 11789 29.5985 
222 2 11789 11792 11793 11788 31.3438 
223 2 11789 11792 11794 11788 36.422 
224 3 7423 7422 7424 7445 0.218203 
225 2 11792 11795 11796 11789 30.3177 
226 1 11783 11782 11786 11787 5.79603 
227 2 7452 7455 7456 7451 42.9798 
228 2 7452 7455 7457 7451 31.5357 
229 3 7449 7450 7447 7470 3.76355 
230 1 7446 7445 7447 7448 0.326073 
231 1 7474 7471 7473 7476 13.567 
232 3 7470 7471 7472 7449 4.00955 
233 1 7471 7470 7474 7475 0.632821 
234 2 7476 7478 7474 7477 36.4337 
235 2 6734 6737 6738 6731 37.9748 
236 2 6734 6737 6739 6731 42.2652 
237 2 6737 6742 6734 6740 31.6681 
238 2 7455 7452 7458 7460 28.5765 
239 1 7447 7446 7449 7451 4.69861 
240 3 7445 7446 7450 7423 1.22561 
241 2 7451 7454 7447 7452 32.9366 
242 2 7455 7458 7459 7452 31.6974 
243 2 6728 6731 6732 6725 31.9141 
244 2 7458 7461 7462 7455 37.0379 
245 2 7458 7461 7463 7455 32.363 
246 2 7464 7461 7467 7468 35.5323 
247 2 7261 7264 7265 7258 41.9235 
248 2 7261 7264 7266 7258 27.167 
249 2 7258 7261 7262 7255 32.6312 
250 2 7258 7261 7263 7255 38.0059 
251 2 7264 7261 7267 7268 31.3181 
252 2 7264 7269 7261 7267 32.5095 
253 2 17614 17617 17618 17611 36.4754 
254 2 17614 17617 17619 17611 31.0321 
255 2 17617 17622 17614 17620 31.8628 
256 2 7255 7258 7259 7252 26.8904 
257 2 6728 6725 6731 6733 36.2328 
258 2 7461 7464 7465 7458 37.791 
259 2 7461 7464 7466 7458 27.6594 
260 2 7464 7469 7461 7467 32.3708 
261 2 17608 17611 17612 17605 40.6186 
262 3 6721 6720 6722 6743 0.532849 
263 2 17605 17608 17609 17604 39.2777 
264 2 17605 17608 17610 17604 28.6039 
265 2 17611 17614 17615 17608 35.7162 
266 2 17611 17614 17616 17608 30.6258 
267 2 17617 17614 17620 17621 31.8735 
268 2 20575 20580 20572 20578 26.2801 
269 2 20572 20575 20576 20569 33.3396 
270 2 20572 20575 20577 20569 30.2467 
271 2 17608 17605 17611 17613 21.8452 
272 2 17604 17606 17602 17605 36.9383 
273 2 22270 22267 22273 22275 27.1407 
274 3 17651 17650 17652 17673 6.13822 
275 2 20569 20572 20573 20566 40.2886 
276 2 20569 20572 20574 20566 35.0508 
277 2 20575 20572 20578 20579 33.561 
278 2 20566 20569 20570 20563 37.5124 
279 1 17649 17648 17652 17653 2.93156 
280 1 17652 17649 17651 17654 1.64769 
281 3 17648 17649 17650 17627 2.23211 
282 3 17627 17628 17625 17648 0.0262312 
283 2 17629 17631 17625 17630 36.2083 
284 2 17654 17657 17652 17655 33.9525 
285 2 21499 21502 21503 21496 35.0637 
286 2 21499 21502 21504 21496 35.4704 
287 2 21496 21499 21500 21493 35.2365 
288 2 21496 21499 21501 21493 31.4777 
289 2 21502 21499 21505 21506 30.4914 
290 1 15042 15041 15045 15046 15.5089 
291 2 21502 21507 21499 21505 33.4412 
292 2 12172 12175 12176 12169 31.2697 
293 2 12172 12175 12177 12169 37.7901 
294 2 12178 12175 12181 12182 30.8958 
295 3 15044 15043 15045 15067 4.53645 
296 2 12175 12178 12179 12172 41.1126 
297 2 12175 12178 12180 12172 37.3654 
298 2 12178 12183 12175 12181 30.8958 
299 1 15045 15042 15044 15047 3.64266 
300 2 12169 12172 12173 12166 35.4317 
301 2 15047 15050 15045 15048 38.1487 
302 1 15068 15067 15069 15070 2.12122 
303 2 12141 12144 12145 12140 34.1195 
304 2 12141 12144 12146 12140 32.2838 
305 2 12122 12125 12126 12119 35.9355 
306 2 12122 12125 12127 12119 33.3765 
307 2 12128 12125 12131 12132 34.168 
308 2 12147 12150 12151 12144 37.5097 
309 2 12147 12150 12152 12144 38.3314 
310 2 12153 12150 12156 12157 30.7573 
311 2 12150 12153 12154 12147 31.3223 
312 2 12150 12153 12155 12147 27.4466 
313 2 12144 12147 12148 12141 33.088 
314 2 12153 12158 12150 12156 29.0334 
315 1 21462 21459 21461 21464 0.0411014 
316 3 21458 21459 21460 21437 0.0643641 
317 2 21464 21467 21462 21465 34.7925 
318 2 21464 21466 21462 21465 29.3183 
319 2 21468 21465 21471 21473 29.3012 
320 3 21437 21438 21435 21458 2.14618 
321 3 21461 21460 21462 21483 0.412058 
322 1 21459 21458 21462 21463 3.21561 
323 2 21393 21396 21397 21390 29.2907 
324 2 18182 18185 18186 18181 31.9342 
325 2 18182 18185 18187 18181 33.2639 
326 1 21434 21433 21435 21436 9.81095 
327 1 21435 21434 21437 21439 5.65256 
328 3 21433 21434 21438 21411 0.93438 
329 2 21390 21393 21394 21389 28.453 
330 2 21390 21393 21395 21389 38.2998 
331 2 21393 21390 21396 21398 33.7892 
332 1 18177 18176 18179 18181 9.3325 
333 3 18175 18176 18180 18153 6.01424 
334 3 21411 21410 21412 21433 0.431615 
335 2 18156 18158 18154 18157 29.7044 
336 2 13502 13505 13506 13499 35.6133 
337 2 13502 13505 13507 13499 32.5738 
338 2 13505 13510 13502 13508 27.8278 
339 2 13499 13502 13503 13496 38.3875 
340 2 13499 13502 13504 13496 35.8967 
341 2 13505 13502 13508 13509 34.0883 
342 2 18156 18159 18154 18157 38.9751 
343 2 13496 13499 13500 13493 34.7585 
344 2 21389 21391 21385 21390 31.1831 
345 2 7414 7419 7411 7417 30.8338 
346 2 7411 7414 7415 7408 38.0694 
347 2 7411 7414 7416 7408 35.5138 
348 2 7408 7411 7412 7405 39.6171 
349 2 7408 7411 7413 7405 32.0868 
350 2 7414 7411 7417 7418 34.7475 
351 2 7405 7408 7409 7402 38.9371 
352 2 18160 18157 18163 18165 32.5258 
353 2 18157 18160 18161 18156 39.0734 
354 2 18157 18160 18162 18156 28.8104 
355 2 18163 18166 18167 18160 31.749 
356 2 18163 18166 18168 18160 39.767 
357 2 18169 18166 18172 18173 33.7119 
358 2 18160 18163 18164 18157 38.0006 
359 2 18166 18169 18170 18163 33.8102 
360 2 18166 18169 18171 18163 37.4289 
361 2 18169 18174 18166 18172 36.6563 
362 1 21335 21334 21337 21339 3.2813 
363 3 21333 21334 21338 21311 8.53747 
364 3 21361 21360 21362 21383 0.502208 
365 2 7402 7405 7406 7401 34.2222 
366 2 7402 7405 7407 7401 36.7872 
367 2 7405 7402 7408 7410 26.6175 
368 2 21268 21271 21272 21265 32.0805 
369 2 7401 7403 7397 7402 26.1211 
370 1 7396 7395 7397 7398 2.55976 
371 1 7397 7396 7399 7401 1.16852 
372 3 7395 7396 7400 7373 4.57267 
373 2 21271 21274 21275 21268 33.452 
374 2 21271 21274 21276 21268 35.4584 
375 2 21277 21274 21280 21281 35.2946 
376 2 7401 7404 7397 7402 29.3856 
377 2 21274 21277 21278 21271 35.0002 
378 2 21274 21277 21279 21271 34.2199 
379 2 21277 21282 21274 21280 30.5547 
380 1 7421 7420 7424 7425 2.83677 
381 3 7373 7372 7374 7395 8.53067 
382 2 6437 6442 6434 6440 42.1226 
383 2 6434 6437 6438 6431 32.1053 
384 2 6434 6437 6439 6431 32.9303 
385 2 6428 6431 6432 6425 33.7576 
386 2 6431 6434 6435 6428 34.0838 
387 2 6431 6434 6436 6428 28.939 
388 2 6437 6434 6440 6441 36.9052 
389 3 7323 7322 7324 7345 3.86178 
390 1 7346 7345 7347 7348 9.72099 
391 1 7347 7346 7349 7351 0.594839 
392 3 7345 7346 7350 7323 1.0083 
393 2 7355 7352 7358 7360 27.1803 
394 2 6428 6425 6431 6433 28.2864 
395 2 6425 6428 6429 6424 33.7609 
396 2 6425 6428 6430 6424 32.4377 
397 2 6424 6427 6422 6425 34.1137 
398 2 6731 6734 6735 6728 39.0563 
399 2 6731 6734 6736 6728 28.3911 
400 2 6737 6734 6740 6741 32.8406 
401 2 6725 6728 6729 6724 29.4217 
402 2 6725 6728 6730 6724 41.4442 
403 2 6403 6400 6406 6408 31.6248 
404 2 6399 6402 6395 6400 33.9666 
405 2 6400 6403 6404 6399 29.918 
406 2 6400 6403 6405 6399 38.3875 
407 1 6419 6418 6422 6423 6.88964 
408 1 6422 6419 6421 6424 4.12786 
409 3 6418 6419 6420 6397 1.46869 
410 1 6394 6393 6395 6396 7.02479 
411 2 6724 6726 6722 6725 34.4713 
412 2 6749 6752 6745 6750 33.6618 
413 1 6395 6394 6397 6399 2.83301 
414 3 6393 6394 6398 6371 1.07074 
415 2 6399 6401 6395 6400 32.7072 
416 1 6744 6743 6745 6746 10.3793 
417 1 6745 6744 6747 6749 2.31528 
418 3 6743 6744 6748 6721 0.382491 
419 2 6749 6751 6745 6750 36.4337 
420 2 7314 7319 7311 7317 29.5048 
421 2 20591 20594 20595 20588 32.4467 
422 2 20588 20591 20592 20587 36.6531 
423 2 20588 20591 20593 20587 37.9949 
424 2 15057 15060 15061 15054 35.1497 
425 2 15057 15060 15062 15054 38.3194 
426 2 15060 15065 15057 15063 35.1954 
427 2 6378 6381 6382 6375 43.5816 
428 2 20591 20588 20594 20596 28.7812 
429 2 20587 20589 20583 20588 34.1378 
430 2 15048 15051 15052 15047 34.2792 
431 2 15048 15051 15053 15047 33.8747 
432 2 15051 15054 15055 15048 37.6398 
433 2 15051 15048 15054 15056 24.2818 
434 2 15047 15049 15045 15048 30.7962 
435 2 15054 15057 15058 15051 31.0064 
436 2 15054 15057 15059 15051 33.8061 
437 2 15060 15057 15063 15064 23.3377 
438 1 15069 15068 15071 15073 11.1717 
439 3 15067 15068 15072 15044 2.10463 
440 2 12166 12169 12170 12165 34.9189 
441 2 12166 12169 12171 12165 25.904 
442 2 15812 15817 15809 15815 30.3222 
443 1 12185 12184 12188 12189 4.97946 
444 2 12165 12168 12161 12166 34.4035 
445 1 12188 12185 12187 12190 5.55301 
446 3 12184 12185 12186 12163 1.77848 
447 3 12187 12186 12188 12209 0.688246 
448 2 12165 12167 12161 12166 31.8135 
449 2 12169 12166 12172 12174 29.0482 
450 2 15077 15080 15081 15074 33.898 
451 2 15080 15083 15084 15077 29.5839 
452 2 15080 15083 15085 15077 36.3742 
453 2 15086 15083 15089 15090 34.2138 
454 1 12161 12160 12163 12165 2.22356 
455 3 12159 12160 12164 12137 1.3939 
456 1 12160 12159 12161 12162 2.81708 
457 3 12163 12164 12161 12184 0.626377 
458 2 21465 21468 21469 21464 25.4542 
459 2 21465 21468 21470 21464 35.5519 
460 2 21468 21471 21472 21465 36.1112 
461 2 21471 21474 21475 21468 37.5354 
462 2 21471 21474 21476 21468 38.2542 
463 2 21477 21474 21480 21481 33.9433 
464 2 21443 21440 21446 21448 26.7439 
465 2 21439 21441 21435 21440 33.9875 
466 2 21439 21442 21435 21440 27.2962 
467 2 21440 21443 21444 21439 26.8665 
468 2 21440 21443 21445 21439 37.6854 
469 2 21443 21446 21447 21440 36.1874 
470 2 21449 21452 21453 21446 34.7522 
471 2 21449 21452 21454 21446 28.5245 
472 2 21446 21449 21450 21443 33.9935 
473 2 21446 21449 21451 21443 34.3492 
474 2 21452 21449 21455 21456 33.4941 
475 2 12078 12083 12075 12081 35.5601 
476 2 12075 12078 12079 12072 28.5635 
477 2 12075 12078 12080 12072 34.5781 
478 2 12072 12075 12076 12069 27.3793 
479 2 12072 12075 12077 12069 40.0098 
480 2 12078 12075 12081 12082 31.1286 
481 1 3661 3660 3664 3665 11.948 
482 1 3664 3661 3663 3666 5.73801 
483 3 3660 3661 3662 3639 1.22014 
484 2 3641 3643 3637 3642 34.623 
485 3 3663 3662 3664 3685 3.20165 
486 2 12069 12072 12073 12066 36.7978 
487 2 3666 3668 3664 3667 33.7097 
488 1 3687 3686 3689 3691 0.596629 
489 3 3685 3686 3690 3663 4.13264 
490 2 12066 12069 12070 12065 34.0161 
491 2 12066 12069 12071 12065 38.0313 
492 2 3670 3667 3673 3675 30.4624 
493 2 3673 3676 3677 3670 32.6456 
494 2 3673 3676 3678 3670 35.4515 
495 2 3679 3676 3682 3683 30.6121 
496 2 3667 3670 3671 3666 30.1836 
497 2 3667 3670 3672 3666 34.504 
498 2 13493 13496 13497 13492 33.3263 
499 2 13493 13496 13498 13492 31.6425 
500 3 21337 21338 21335 21358 4.12383 
501 1 21334 21333 21335 21336 2.056 
502 2 13496 13493 13499 13501 29.3964 
503 2 3670 3673 3674 3667 31.2813 
504 2 21314 21316 21312 21315 40.3593 
505 2 21314 21317 21312 21315 33.4778 
506 2 13492 13495 13490 13493 25.8558 
507 2 21315 21318 21319 21314 31.8378 
508 2 21315 21318 21320 21314 38.4341 
509 2 21318 21315 21321 21323 27.335 
510 2 3676 3679 3680 3673 30.301 
511 2 3676 3679 3681 3673 41.3938 
512 1 21312 21309 21311 21314 8.72871 
513 3 21308 21309 21310 21287 4.49764 
514 3 21311 21310 21312 21333 3.0587 
515 1 21309 21308 21312 21313 2.542 
516 2 7376 7378 7374 7377 33.4427 
517 2 21289 21291 21285 21290 35.2238 
518 1 7374 7371 7373 7376 0.834347 
519 3 7370 7371 7372 7349 3.00678 
520 2 7377 7380 7381 7376 40.5356 
521 2 7377 7380 7382 7376 36.1381 
522 2 7380 7377 7383 7385 25.5023 
523 2 7380 7383 7384 7377 35.8161 
524 2 7383 7386 7387 7380 34.1911 
525 2 7383 7386 7388 7380 40.1132 
526 2 7389 7386 7392 7393 27.3016 
527 2 21302 21307 21299 21305 27.1665 
528 2 7376 7379 7374 7377 32.0766 
529 1 7371 7370 7374 7375 0.97001 
530 3 7349 7350 7347 7370 0.5022 
531 2 11326 11331 11323 11329 30.563 
532 2 11323 11326 11327 11320 29.7361 
533 2 11323 11326 11328 11320 39.9254 
534 2 11320 11323 11324 11317 33.0264 
535 2 11320 11323 11325 11317 38.7918 
536 2 11326 11323 11329 11330 37.2205 
537 2 7351 7354 7347 7352 32.547 
538 2 7351 7353 7347 7352 27.4903 
539 2 6412 6417 6409 6415 32.9982 
540 2 11367 11364 11370 11372 29.6221 
541 2 6337 6342 6334 6340 31.582 
542 2 6334 6337 6338 6331 32.488 
543 2 6334 6337 6339 6331 41.7302 
544 2 6403 6406 6407 6400 36.9733 
545 2 6406 6409 6410 6403 29.4401 
546 2 6406 6409 6411 6403 42.3535 
547 2 6412 6409 6415 6416 29.8615 
548 2 6409 6412 6413 6406 34.6012 
549 2 6409 6412 6414 6406 43.7746 
550 2 6331 6334 6335 6328 35.9805 
551 2 6331 6334 6336 6328 32.437 
552 2 6337 6334 6340 6341 31.2727 
553 2 6328 6331 6332 6325 37.6046 
554 2 6325 6328 6329 6324 28.8372 
555 2 6325 6328 6330 6324 38.5508 
556 2 6353 6350 6356 6358 32.4895 
557 2 6353 6356 6357 6350 35.3807 
558 2 6324 6326 6322 6325 43.7693 
559 2 6381 6384 6385 6378 36.3702 
560 2 6381 6384 6386 6378 32.3058 
561 2 6387 6384 6390 6391 32.7975 
562 1 6369 6368 6372 6373 1.67287 
563 2 6349 6352 6345 6350 35.4396 
564 3 6371 6370 6372 6393 1.82291 
565 3 6347 6348 6345 6368 1.53316 
566 2 6349 6351 6345 6350 30.3965 
567 1 6345 6344 6347 6349 12.8694 
568 3 6343 6344 6348 6321 5.64462 
569 1 6344 6343 6345 6346 3.90882 
570 1 6372 6369 6371 6374 0.59406 
571 3 6368 6369 6370 6347 0.417696 
572 2 20594 20597 20598 20591 37.6973 
573 2 20594 20597 20599 20591 30.5178 
574 2 20600 20597 20603 20604 32.2974 
575 2 6387 6392 6384 6390 30.095 
576 2 4072 4069 4075 4077 29.7367 
577 2 6384 6387 6388 6381 25.9665 
578 2 6384 6387 6389 6381 32.6699 
579 2 4072 4075 4076 4069 38.4742 
580 2 15073 15076 15069 15074 37.5031 
581 2 4069 4072 4073 4068 31.6555 
582 2 4069 4072 4074 4068 28.4333 
583 2 15073 15075 15069 15074 29.2271 
584 2 15074 15077 15078 15073 40.3861 
585 2 15074 15077 15079 15073 32.2683 
586 2 15077 15074 15080 15082 36.0543 
587 2 15086 15091 15083 15089 32.1052 
588 1 19858 19855 19857 19860 0.679099 
589 3 19854 19855 19856 19833 2.64421 
590 2 19845 19848 19849 19842 33.1552 
591 2 19845 19848 19850 19842 38.2231 
592 2 15083 15086 15087 15080 31.2216 
593 2 15083 15086 15088 15080 36.844 
594 2 19860 19862 19858 19861 33.4089 
595 2 19864 19861 19867 19869 28.2506 
596 2 19848 19853 19845 19851 25.1935 
597 2 19842 19845 19846 19839 37.2661 
598 2 19842 19845 19847 19839 37.1565 
599 2 19848 19845 19851 19852 39.0165 
600 2 19839 19842 19843 19836 30.5576 
601 2 19861 19864 19865 19860 44.645 
602 2 19861 19864 19866 19860 36.2142 
603 2 19864 19867 19868 19861 33.2048 
604 2 19860 19863 19858 19861 33.163 
605 2 19867 19870 19871 19864 29.2508 
606 2 19867 19870 19872 19864 33.636 
607 2 19873 19870 19876 19877 34.4426 
608 2 19873 19878 19870 19876 34.6532 
609 2 19870 19873 19874 19867 29.1736 
610 2 19870 19873 19875 19867 37.3311 
611 2 20214 20217 20218 20211 37.8731 
612 2 20211 20214 20215 20210 39.7067 
613 2 20211 20214 20216 20210 38.1357 
614 1 20258 20255 20257 20260 1.63547 
615 3 20254 20255 20256 20233 3.36831 
616 2 20260 20262 20258 20261 31.7918 
617 2 21452 21457 21449 21455 39.8697 
618 2 12091 12094 12095 12090 39.7199 
619 2 12091 12094 12096 12090 29.6096 
620 2 12100 12103 12104 12097 33.0114 
621 2 12100 12103 12105 12097 32.5974 
622 2 12103 12108 12100 12106 40.2769 
623 2 12094 12097 12098 12091 35.7228 
624 2 12097 12100 12101 12094 34.2068 
625 2 12097 12100 12102 12094 35.4884 
626 2 12103 12100 12106 12107 26.8629 
627 2 3666 3669 3664 3667 30.1421 
628 1 3686 3685 3687 3688 7.28629 
629 2 795 798 799 792 29.9102 
630 2 795 798 800 792 34.4913 
631 3 3689 3690 3687 3710 8.18541 
632 2 13442 13445 13440 13443 34.4869 
633 2 13442 13444 13440 13443 32.6362 
634 2 792 795 796 789 38.9669 
635 2 792 795 797 789 29.0708 
636 2 798 795 801 802 32.5226 
637 2 798 803 795 801 30.6185 
638 2 789 792 793 786 34.1924 
639 2 21318 21321 21322 21315 29.3243 
640 2 811 814 815 810 40.788 
641 2 811 814 816 810 33.4276 
642 1 805 804 808 809 5.29872 
643 2 789 786 792 794 26.2031 
644 2 785 787 781 786 32.0944 
645 2 786 789 790 785 33.111 
646 2 786 789 791 785 36.1727 
647 2 785 788 781 786 33.8398 
648 1 808 805 807 810 6.36595 
649 3 804 805 806 783 6.45617 
650 2 21321 21324 21325 21318 29.3511 
651 2 21321 21324 21326 21318 35.649 
652 2 21327 21324 21330 21331 29.4799 
653 2 814 811 817 819 33.4835 
654 2 814 817 818 811 35.6039 
655 2 810 812 808 811 37.1653 
656 2 835 838 831 836 26.7981 
657 2 810 813 808 811 27.0326 
658 2 7386 7389 7390 7383 36.5631 
659 2 7386 7389 7391 7383 38.6048 
660 2 7389 7394 7386 7392 42.241 
661 1 830 829 831 832 5.02871 
662 1 831 830 833 835 3.32856 
663 3 829 830 834 807 1.18601 
664 2 11345 11348 11349 11342 32.8108 
665 2 11345 11348 11350 11342 36.3214 
666 2 11351 11348 11354 11355 31.1669 
667 2 11342 11345 11346 11339 34.508 
668 3 833 834 831 854 3.34858 
669 2 835 837 831 836 38.3814 
670 3 807 806 808 829 3.62438 
671 2 5033 5038 5030 5036 33.1948 
672 2 848 853 845 851 31.9543 
673 2 839 836 842 844 31.5805 
674 2 836 839 840 835 40.7245 
675 2 836 839 841 835 37.6423 
676 2 842 845 846 839 36.8624 
677 2 842 845 847 839 21.8702 
678 2 848 845 851 852 36.4348 
679 2 11339 11342 11343 11338 35.9996 
680 2 11339 11342 11344 11338 35.6431 
681 2 839 842 843 836 34.0667 
682 1 11359 11358 11361 11363 0.437825 
683 3 11357 11358 11362 11335 0.0831767 
684 1 11358 11357 11359 11360 3.11719 
685 2 11338 11340 11336 11339 34.8028 
686 2 845 848 849 842 32.5685 
687 2 845 848 850 842 29.237 
688 2 11363 11366 11359 11364 31.0654 
689 1 11383 11382 11386 11387 0.97828 
690 3 11361 11362 11359 11382 1.60947 
691 1 11386 11383 11385 11388 8.34906 
692 3 11382 11383 11384 11361 4.29462 
693 2 4971 4974 4975 4970 34.3868 
694 2 4971 4974 4976 4970 29.0739 
695 2 4974 4971 4977 4979 33.7945 
696 2 6328 6325 6331 6333 25.9244 
697 2 11388 11390 11386 11389 29.7776 
698 2 4974 4977 4978 4971 33.3309 
699 2 4983 4988 4980 4986 30.8446 
700 2 4977 4980 4981 4974 32.2797 
701 2 4977 4980 4982 4974 38.4302 
702 2 4983 4980 4986 4987 39.2964 
703 2 4980 4983 4984 4977 38.0653 
704 2 4980 4983 4985 4977 33.1386 
705 1 6322 6319 6321 6324 6.50819 
706 3 6318 6319 6320 6297 3.18835 
707 1 6319 6318 6322 6323 4.40245 
708 3 6321 6320 6322 6343 0.583574 
709 3 6297 6298 6295 6318 1.35192 
710 2 12300 12303 12304 12297 34.7079 
711 2 12300 12303 12305 12297 31.2495 
712 2 12303 12308 12300 12306 26.4281 
713 2 4068 4071 4066 4069 38.244 
714 2 4068 4070 4066 4069 38.2074 
715 2 12297 12300 12301 12294 36.2893 
716 2 12297 12300 12302 12294 32.8695 
717 2 12303 12300 12306 12307 32.9313 
718 2 6299 6302 6295 6300 32.9957 
719 2 6303 6300 6306 6308 30.7834 
720 2 4056 4061 4053 4059 31.175 
721 2 4050 4053 4054 4047 32.1745 
722 2 4050 4053 4055 4047 33.3792 
723 2 4056 4053 4059 4060 34.4634 
724 2 4047 4050 4051 4044 28.8158 
725 2 4053 4056 4057 4050 36.8384 
726 2 4053 4056 4058 4050 35.7161 
727 2 4044 4047 4048 4043 33.0683 
728 2 4044 4047 4049 4043 37.0505 
729 2 6303 6306 6307 6300 35.3987 
730 2 6300 6303 6304 6299 33.6485 
731 2 6300 6303 6305 6299 39.5531 
732 1 19905 19904 19908 19909 4.72595 
733 3 19883 19884 19881 19904 3.94452 
734 1 19880 19879 19881 19882 1.85569 
735 2 12269 12266 12272 12274 35.3578 
736 1 12261 12260 12263 12265 2.25354 
737 3 12259 12260 12264 12237 0.28553 
738 2 12265 12268 12261 12266 30.5974 
739 2 12266 12269 12270 12265 35.7556 
740 2 12266 12269 12271 12265 33.1706 
741 2 17992 17997 17989 17995 27.4471 
742 2 17989 17992 17993 17986 31.7672 
743 2 17989 17992 17994 17986 29.7465 
744 2 17986 17989 17990 17983 37.5874 
745 2 17986 17989 17991 17983 39.645 
746 2 17992 17989 17995 17996 39.1343 
747 2 12265 12267 12261 12266 32.8801 
748 1 19908 19905 19907 19910 3.58559 
749 3 19904 19905 19906 19883 2.48549 
750 1 19881 19880 19883 19885 5.39148 
751 3 19879 19880 19884 19857 1.95431 
752 2 19885 19888 19881 19886 37.6261 
753 2 20210 20212 20208 20211 32.8483 
754 1 20208 20205 20207 20210 1.11697 
755 3 20204 20205 20206 20183 0.0892917 
756 2 20210 20213 20208 20211 31.7261 
757 2 19885 19887 19881 19886 34.8901 
758 2 19889 19886 19892 19894 28.6633 
759 2 20214 20211 20217 20219 34.2131 
760 1 20231 20230 20233 20235 0.90816 
761 3 20229 20230 20234 20207 0.296084 
762 3 20207 20206 20208 20229 3.84988 
763 1 20230 20229 20231 20232 0.975628 
764 3 20233 20234 20231 20254 0.889758 
765 2 13130 13135 13127 13133 29.1534 
766 2 3726 3729 3730 3723 40.5733 
767 2 3726 3729 3731 3723 32.5911 
768 2 3729 3734 3726 3732 35.5723 
769 2 3723 3726 3727 3720 35.1971 
770 2 3723 3726 3728 3720 33.7435 
771 2 3729 3726 3732 3733 33.8968 
772 2 3720 3723 3724 3717 33.9741 
773 2 3717 3720 3721 3716 29.7268 
774 2 3717 3720 3722 3716 34.5718 
775 2 13124 13127 13128 13121 33.1472 
776 2 13124 13127 13129 13121 26.1047 
777 2 13130 13127 13133 13134 37.7218 
778 2 13127 13130 13131 13124 30.9589 
779 2 13127 13130 13132 13124 39.5763 
780 1 13163 13162 13165 13167 1.36733 
781 3 13161 13162 13166 13139 2.05037 
782 1 13162 13161 13163 13164 2.65222 
783 2 13167 13170 13163 13168 32.5344 
784 2 13167 13169 13163 13168 35.3335 
785 2 13417 13419 13413 13418 33.4865 
786 2 13142 13145 13140 13143 26.2781 
787 2 13421 13418 13424 13426 25.395 
788 2 13418 13421 13422 13417 36.5676 
789 2 13418 13421 13423 13417 38.1046 
790 3 13165 13166 13163 13186 3.57463 
791 2 13146 13143 13149 13151 24.5483 
792 2 13424 13427 13428 13421 35.5972 
793 2 13424 13427 13429 13421 35.1106 
794 2 13430 13427 13433 13434 38.4127 
795 2 13421 13424 13425 13418 38.2892 
796 2 13427 13430 13431 13424 37.3012 
797 2 13427 13430 13432 13424 30.4746 
798 2 13430 13435 13427 13433 29.5775 
799 3 13189 13188 13190 13211 2.90185 
800 2 5020 5023 5018 5021 37.3113 
801 2 5024 5021 5027 5029 28.6038 
802 2 5020 5022 5018 5021 23.757 
803 2 5021 5024 5025 5020 28.9818 
804 2 5021 5024 5026 5020 34.3864 
805 3 5043 5044 5041 5064 5.10783 
806 2 11037 11040 11041 11036 38.8709 
807 2 11037 11040 11042 11036 36.5732 
808 2 5030 5033 5034 5027 34.6804 