ITEM: TIMESTEP
0
ITEM: NUMBER OF ENTRIES
44940
ITEM: BOX BOUNDS pp pp pp
41.3372 128.663
41.3372 128.663
41.3372 128.663
ITEM: ENTRIES index c_1[1] c_1[2] c_1[3] c_1[4] c_1[5] c_2 
1 1 52898 52899 52900 52904 1.54415 
2 2 52903 52899 52908 52902 6.23459 
3 2 52906 52899 52909 52910 9.87874 
4 4 53042 53045 53046 52909 3.23091 
5 2 52899 52906 52903 52898 1.45236 
6 5 52909 52906 52912 53042 5.06601 
7 2 53046 53042 53048 53043 0.920863 
8 2 13618 13621 13616 13613 4.44956 
9 3 52900 52898 52901 52920 5.22914 
10 3 22413 22416 22417 22410 37.1163 
11 3 22413 22416 22418 22410 37.7853 
12 4 53044 53043 53045 53058 2.47305 
13 3 22410 22413 22414 22407 30.563 
14 2 13604 13611 13608 13603 0.832173 
15 4 13614 13611 13617 13748 5.05843 
16 1 13603 13604 13605 13609 1.94019 
17 2 13608 13604 13613 13607 2.71869 
18 2 13611 13604 13614 13615 6.77718 
19 2 13613 13608 13617 13618 3.67936 
20 3 13605 13603 13606 13625 5.14326 
21 1 13606 13605 13607 13610 0.345468 
22 3 22404 22409 22407 22401 34.6292 
23 3 22407 22410 22411 22404 35.5237 
24 3 22410 22407 22413 22415 34.8587 
25 3 22401 22404 22405 22398 41.2131 
26 3 22401 22404 22398 22406 23.9705 
27 3 22407 22404 22410 22412 30.6365 
28 3 22349 22354 22352 22346 36.3557 
29 3 22349 22353 22346 22352 33.1913 
30 3 36057 36058 36059 36054 36.3995 
31 3 36057 36058 36060 36054 35.9322 
32 3 36061 36058 36064 36065 30.3864 
33 3 36058 36061 36062 36057 38.9222 
34 3 36058 36061 36063 36057 36.9093 
35 3 36061 36066 36058 36064 32.7386 
36 3 36064 36067 36068 36061 40.5915 
37 3 36064 36067 36061 36069 31.4337 
38 3 36054 36082 36053 36057 29.1975 
39 3 36084 36082 36087 36088 27.8996 
40 3 36084 36082 36087 36089 30.6385 
41 3 36067 36070 36071 36064 39.1945 
42 3 36067 36070 36064 36072 31.3889 
43 3 36073 36070 36076 36078 29.4337 
44 3 36070 36074 36067 36073 26.6177 
45 3 36082 36084 36085 36054 27.6768 
46 3 36076 36073 36079 36081 37.4446 
47 3 36070 36075 36073 36067 43.8704 
48 3 17780 17783 17784 17777 30.835 
49 3 17780 17783 17777 17785 28.9502 
50 3 17786 17783 17789 17791 34.0593 
51 3 17789 17786 17792 17794 40.3499 
52 3 17777 17780 17781 17774 37.3033 
53 3 17777 17780 17774 17782 28.0009 
54 3 17783 17788 17786 17780 33.2166 
55 3 17783 17787 17780 17786 34.1781 
56 3 17774 17779 17771 17777 37.2827 
57 3 17786 17789 17790 17783 30.7782 
58 3 22093 22098 22092 22096 34.5471 
59 3 17771 17774 17775 17770 31.3026 
60 3 17771 17774 17776 17770 31.7573 
61 3 36224 36227 36228 36221 26.3691 
62 3 36227 36230 36231 36224 36.7744 
63 3 17767 17796 17766 17770 36.6888 
64 3 36227 36224 36230 36232 29.8943 
65 3 17770 17771 17772 17767 30.2571 
66 3 17770 17771 17773 17767 37.9964 
67 3 17774 17771 17777 17778 30.4253 
68 3 17795 17767 17797 17799 32.5232 
69 3 36218 36221 36222 36215 38.3859 
70 3 36218 36221 36215 36223 34.4281 
71 3 36224 36221 36227 36229 28.7127 
72 3 36221 36226 36224 36218 35.5804 
73 3 17800 17803 17804 17797 36.8268 
74 3 17800 17803 17805 17797 30.8889 
75 3 17806 17803 17809 17810 36.8979 
76 3 17304 17307 17308 17301 38.6619 
77 3 17803 17806 17807 17800 33.7532 
78 3 17803 17806 17808 17800 31.6782 
79 3 17809 17806 17812 17814 30.0037 
80 4 17676 17679 17680 17543 3.51425 
81 3 17812 17815 17816 17809 52.1904 
82 3 17812 17815 17809 17817 25.8296 
83 3 17818 17815 17821 17823 24.9552 
84 3 17815 17819 17812 17818 32.1037 
85 3 17821 17818 17824 17826 28.7282 
86 3 17821 17824 17825 17818 44.7413 
87 3 17818 17821 17822 17815 41.1362 
88 3 17809 17812 17813 17806 37.9792 
89 3 17307 17310 17311 17304 39.8245 
90 3 17307 17310 17312 17304 37.5733 
91 3 17815 17820 17818 17812 38.3749 
92 3 17252 17254 17232 17253 41.2103 
93 3 17281 17253 17283 17285 27.3855 
94 3 17281 17283 17284 17253 34.7081 
95 3 17252 17255 17232 17253 34.6529 
96 3 17283 17286 17287 17281 30.8818 
97 3 17283 17286 17288 17281 32.1858 
98 3 17289 17286 17292 17293 32.7432 
99 3 17257 17256 17260 17261 26.2059 
100 3 17253 17256 17281 17252 32.5402 
101 3 17253 17256 17282 17252 32.7817 
102 3 17257 17262 17256 17260 36.0596 
103 1 17233 17232 17234 17237 4.43808 
104 3 17260 17263 17264 17257 35.0728 
105 3 3156 3161 3159 3153 37.2955 
106 3 17272 17269 17275 17277 32.3409 
107 3 17266 17271 17269 17263 35.3021 
108 3 17263 17266 17267 17260 36.9959 
109 3 17263 17266 17260 17268 28.2749 
110 3 17269 17266 17272 17274 33.1935 
111 3 17266 17270 17263 17269 38.4071 
112 3 3153 3156 3157 3150 33.7994 
113 3 3153 3156 3150 3158 31.7133 
114 3 3159 3156 3162 3164 30.7796 
115 3 3011 3014 3015 3008 39.134 
116 3 3156 3160 3153 3159 37.3495 
117 3 17256 17257 17258 17253 38.5456 
118 3 17256 17257 17259 17253 30.6248 
119 3 17260 17257 17263 17265 34.3885 
120 3 3008 3011 3012 3005 34.3766 
121 2 3039 3042 3037 3034 0.175424 
122 2 3037 3040 3033 3039 4.68773 
123 2 3028 3033 3027 3029 4.8752 
124 5 3033 3028 3037 3019 2.54896 
125 4 3019 3018 3020 3033 0.761731 
126 2 3018 3022 3021 3019 0.727286 
127 4 3017 3020 3021 2884 4.95689 
128 1 3027 3026 3028 3031 2.4154 
129 3 3011 3008 3014 3016 33.296 
130 3 3005 3009 3002 3008 38.3854 
131 3 3002 3005 3006 2999 38.1599 
132 3 3002 3005 2999 3007 28.3687 
133 3 3008 3005 3011 3013 30.1077 
134 3 3005 3010 3008 3002 33.0372 
135 3 2999 3002 3003 2996 27.5934 
136 2 3021 3017 3023 3018 1.87817 
137 5 2882 2877 2886 2868 0.431338 
138 2 2883 2878 2887 2888 4.3455 
139 1 2876 2875 2877 2880 0.929154 
140 3 2848 2851 2852 2845 40.8929 
141 3 2842 2845 2846 2839 38.846 
142 3 2842 2845 2847 2839 34.9351 
143 3 2848 2845 2851 2853 25.987 
144 3 2839 2842 2843 2836 39.2951 
145 3 2839 2842 2844 2836 33.2525 
146 3 2845 2842 2848 2849 32.2252 
147 3 2845 2850 2842 2848 32.6687 
148 3 2851 2854 2855 2848 33.2286 
149 3 2851 2854 2848 2856 28.6938 
150 3 2857 2854 2860 2862 28.7849 
151 3 2854 2859 2857 2851 39.6512 
152 3 2854 2858 2851 2857 26.3353 
153 3 3046 3049 3026 3047 37.8862 
154 2 2877 2882 2876 2878 6.76933 
155 3 2895 2897 2875 2896 34.1413 
156 3 67297 67294 67300 67302 26.8002 
157 3 67294 67297 67298 67291 37.2257 
158 3 67288 67291 67292 67285 33.4369 
159 3 67288 67291 67285 67293 33.7981 
160 3 67294 67291 67297 67299 30.6884 
161 3 67291 67295 67288 67294 30.7194 
162 4 2866 2869 2870 2733 1.25031 
163 3 67291 67296 67294 67288 39.424 
164 3 67285 67288 67289 67282 34.7946 
165 3 67297 67300 67301 67294 33.2807 
166 3 2767 2770 2771 2764 38.2491 
167 3 2767 2770 2772 2764 31.1064 
168 3 67300 67303 67304 67297 35.2822 
169 3 67300 67303 67305 67297 37.9792 
170 3 40430 40433 40434 40427 39.6694 
171 3 40430 40433 40435 40427 34.0897 
172 3 2761 2764 2765 2758 37.3873 
173 3 67599 67596 67602 67604 30.8611 
174 3 67599 67602 67603 67596 38.5699 
175 3 67281 67282 67283 67278 32.2709 
176 3 67281 67282 67284 67278 39.4135 
177 3 67285 67282 67288 67290 31.8392 
178 3 67596 67599 67600 67593 31.3832 
179 3 67277 67280 67257 67278 32.1971 
180 3 54206 54211 54209 54203 33.0636 
181 3 2758 2763 2761 2755 35.9431 
182 3 2764 2767 2768 2761 34.5193 
183 3 67590 67593 67594 67587 40.1462 
184 3 67590 67593 67587 67595 21.8531 
185 3 67596 67593 67599 67601 30.4596 
186 3 2764 2761 2767 2769 29.3722 
187 3 2755 2758 2759 2752 38.7141 
188 3 2755 2758 2752 2760 25.0422 
189 3 2761 2758 2764 2766 29.7371 
190 3 67593 67598 67596 67590 32.1957 
191 3 67602 67605 67606 67599 37.355 
192 3 67602 67605 67607 67599 39.1276 
193 3 67593 67597 67590 67596 41.2464 
194 1 54123 54125 54126 54120 0.722072 
195 1 54124 54125 54127 54121 1.95971 
196 3 54189 54125 54190 54191 25.7046 
197 3 54189 54125 54190 54192 33.4001 
198 3 54190 54219 54189 54193 39.5618 
199 3 54218 54190 54220 54222 34.8123 
200 3 54190 54218 54189 54193 30.8709 
201 3 54220 54218 54223 54224 35.6429 
202 3 54220 54218 54223 54225 23.2327 
203 3 54218 54220 54221 54190 30.7099 
204 3 54193 54194 54195 54190 40.6838 
205 3 54193 54194 54196 54190 29.5931 
206 3 54197 54194 54200 54201 28.7877 
207 3 54194 54197 54198 54193 40.3969 
208 3 54194 54197 54199 54193 31.2173 
209 3 54197 54202 54194 54200 31.6214 
210 3 67529 67534 67526 67532 28.9767 
211 3 54287 54290 54291 54284 35.7913 
212 3 54290 54293 54294 54287 38.2078 
213 3 54290 54293 54287 54295 30.2935 
214 3 54296 54293 54299 54301 27.074 
215 3 54293 54298 54296 54290 36.8397 
216 1 52915 52917 52918 52912 0.438156 
217 1 52916 52917 52919 52913 2.594 
218 3 52981 52917 52982 52983 27.4177 
219 3 52981 52917 52982 52984 26.22 
220 3 67532 67535 67536 67529 35.7228 
221 3 54299 54296 54302 54304 27.4327 
222 3 67535 67538 67539 67532 30.1353 
223 3 67535 67538 67532 67540 40.9567 
224 3 67541 67538 67544 67546 30.5176 
225 3 67526 67529 67530 67523 29.2098 
226 3 67526 67529 67531 67523 41.6208 
227 3 67532 67529 67535 67537 27.5913 
228 2 52912 52915 52908 52909 4.2575 
229 3 52917 52915 52916 52981 0.708414 
230 3 54293 54297 54290 54296 36.225 
231 3 53091 53094 53095 53088 41.9351 
232 3 53094 53097 53098 53091 32.8101 
233 3 53094 53097 53099 53091 37.8904 
234 3 67523 67526 67527 67520 38.6438 
235 3 67523 67526 67528 67520 31.118 
236 3 67529 67526 67532 67533 33.342 
237 3 67538 67543 67541 67535 40.893 
238 3 67538 67542 67535 67541 29.0539 
239 2 52908 52903 52912 52913 0.65244 
240 2 13616 13619 13612 13618 3.24372 
241 2 52911 52914 52907 52913 8.55419 
242 1 52901 52900 52902 52905 2.34407 
243 5 52907 52902 52911 52893 2.63032 
244 2 52895 52891 52897 52892 6.91798 
245 4 52893 52892 52894 52907 1.63614 
246 2 52892 52896 52895 52893 5.22226 
247 2 52902 52907 52901 52903 1.7013 
248 4 52891 52894 52895 52758 1.28185 
249 3 9321 9325 9318 9324 35.8979 
250 3 52920 52923 52900 52921 36.429 
251 2 13607 13612 13606 13608 0.739484 
252 3 9324 9327 9328 9321 41.0329 
253 3 13633 13636 13637 13630 31.3911 
254 3 9327 9324 9330 9332 31.404 
255 3 13636 13639 13640 13633 30.8188 
256 3 13636 13639 13633 13641 29.5668 
257 3 13642 13639 13645 13647 26.2117 
258 3 13629 13630 13631 13626 36.5199 
259 3 13629 13630 13632 13626 24.3312 
260 3 13633 13630 13636 13638 29.4929 
261 3 13630 13629 13633 13634 27.8076 
262 3 13626 13629 13654 13625 32.5891 
263 3 13626 13629 13655 13625 34.8974 
264 3 13639 13643 13636 13642 41.1102 
265 3 9327 9330 9331 9324 41.5408 
266 3 13630 13635 13629 13633 34.2552 
267 3 13893 13896 13897 13890 28.9949 
268 3 13654 13626 13656 13658 37.5337 
269 3 13887 13892 13890 13884 35.3704 
270 3 36082 36054 36084 36086 29.0699 
271 3 36054 36083 36053 36057 40.8716 
272 3 22317 22321 22314 22320 39.6168 
273 3 13890 13893 13894 13887 34.2709 
274 2 35983 35986 35979 35985 15.2494 
275 2 35985 35988 35983 35980 2.34244 
276 1 35987 35989 35990 35984 2.26115 
277 1 35988 35989 35991 35985 4.45403 
278 3 36053 35989 36054 36055 29.0431 
279 3 36053 35989 36054 36056 35.7444 
280 2 35974 35979 35973 35975 7.80459 
281 3 13881 13884 13885 13878 38.1781 
282 3 22323 22320 22326 22328 36.3529 
283 2 35984 35987 35980 35981 3.72188 
284 3 35989 35987 35988 36053 0.570351 
285 3 22317 22322 22320 22314 38.8573 
286 3 22314 22317 22318 22311 34.8822 
287 3 22314 22317 22311 22319 32.1997 
288 3 22320 22317 22323 22325 32.1036 
289 3 17789 17792 17793 17786 29.4105 
290 3 13849 13852 13853 13846 29.484 
291 3 13849 13852 13846 13854 32.8299 
292 3 13855 13860 13858 13852 32.4652 
293 3 13852 13855 13856 13849 32.0907 
294 3 13852 13855 13849 13857 30.8053 
295 3 13858 13855 13861 13863 26.609 
296 3 13861 13858 13864 13866 32.0139 
297 3 34900 34897 34903 34905 36.9649 
298 3 13855 13859 13852 13858 38.9327 
299 2 35980 35975 35984 35985 2.13561 
300 2 35971 35978 35975 35970 0.944782 
301 5 35981 35978 35984 36114 2.56389 
302 1 35970 35971 35972 35976 5.55113 
303 2 35975 35971 35980 35974 3.16989 
304 2 35978 35971 35981 35982 11.0349 
305 3 34897 34900 34901 34894 32.6456 
306 3 34900 34903 34904 34897 37.5105 
307 3 36215 36218 36219 36212 43.0764 
308 3 36215 36218 36212 36220 25.3322 
309 3 36221 36225 36218 36224 32.3181 
310 3 17603 17606 17607 17600 32.7493 
311 3 13861 13864 13865 13858 34.3458 
312 3 13858 13861 13862 13855 37.9416 
313 3 36209 36212 36213 36208 31.1528 
314 3 36209 36212 36214 36208 33.6234 
315 3 36208 36209 36210 36205 34.4882 
316 3 36208 36209 36211 36205 34.9382 
317 3 36212 36209 36215 36216 25.5225 
318 3 17606 17603 17609 17611 19.1239 
319 3 17600 17605 17603 17597 34.8501 
320 3 17597 17600 17601 17594 40.8149 
321 3 17597 17600 17594 17602 30.0058 
322 3 17603 17600 17606 17608 33.5171 
323 3 36212 36217 36209 36215 35.8747 
324 3 17600 17604 17597 17603 32.1881 
325 3 48757 48762 48754 48760 35.4721 
326 2 17533 17540 17537 17532 2.83274 
327 5 17543 17540 17546 17676 2.99593 
328 4 17678 17677 17679 17692 1.47413 
329 3 48763 48766 48767 48760 39.7598 
330 3 48763 48766 48760 48768 25.7047 
331 3 48769 48766 48772 48774 28.4648 
332 1 17549 17551 17552 17546 2.75672 
333 1 17550 17551 17553 17547 1.26968 
334 3 17615 17551 17616 17617 28.4489 
335 3 17615 17551 17616 17618 27.2037 
336 2 17546 17549 17542 17543 5.04211 
337 3 17551 17549 17550 17615 4.10339 
338 2 17680 17676 17682 17677 2.5002 
339 3 48766 48770 48763 48769 38.9024 
340 3 48754 48757 48758 48753 36.2605 
341 3 48754 48757 48759 48753 28.7855 
342 3 48772 48769 48775 48777 34.9195 
343 3 48760 48763 48764 48757 41.016 
344 3 48760 48763 48757 48765 23.0442 
345 3 48753 48754 48755 48750 38.1167 
346 3 48753 48754 48756 48750 34.1639 
347 3 48757 48754 48760 48761 36.0169 
348 3 48750 48778 48749 48753 27.736 
349 3 48780 48778 48783 48784 28.976 
350 3 48780 48778 48783 48785 34.0551 
351 3 48778 48780 48781 48750 30.7713 
352 3 48778 48750 48780 48782 30.7282 
353 3 48750 48779 48749 48753 40.9317 
354 2 48681 48684 48679 48676 8.8216 
355 1 48683 48685 48686 48680 2.61979 
356 1 48684 48685 48687 48681 5.22231 
357 3 48749 48685 48750 48751 29.5934 
358 3 48749 48685 48750 48752 28.7244 
359 3 48783 48786 48787 48780 39.1477 
360 3 48783 48786 48788 48780 35.1172 
361 3 48789 48786 48792 48793 32.7648 
362 3 3150 3153 3154 3147 33.1261 
363 3 3144 3147 3148 3141 37.6034 
364 3 3144 3147 3149 3141 35.2539 
365 3 3150 3147 3153 3155 26.0251 
366 3 3141 3144 3145 3138 30.4072 
367 3 3141 3144 3146 3138 35.6332 
368 3 3147 3144 3150 3151 26.0794 
369 3 3147 3152 3144 3150 33.8126 
370 3 17484 17487 17488 17481 30.903 
371 3 17487 17484 17490 17492 26.2889 
372 3 17487 17490 17491 17484 39.0909 
373 3 17481 17486 17484 17478 37.3185 
374 3 17478 17481 17482 17475 31.4483 
375 3 17478 17481 17475 17483 30.9093 
376 3 17484 17481 17487 17489 30.0476 
377 3 17475 17478 17479 17472 35.8936 
378 3 17475 17478 17472 17480 31.1773 
379 3 17481 17485 17478 17484 23.8118 
380 3 16607 16611 16604 16610 34.2447 
381 3 16613 16616 16617 16610 42.0228 
382 3 17336 17333 17339 17341 36.4332 
383 3 67024 67027 67028 67021 34.7516 
384 3 17333 17336 17337 17330 39.8167 
385 3 17336 17339 17340 17333 37.0613 
386 3 67030 67033 67034 67027 39.8075 
387 3 67030 67033 67035 67027 39.1847 
388 3 16462 16465 16466 16459 36.4194 
389 3 16456 16461 16459 16453 41.5458 
390 3 16459 16462 16463 16456 37.1061 
391 3 67027 67030 67031 67024 36.8506 
392 3 16569 16572 16573 16566 33.1653 
393 3 16569 16572 16566 16574 35.3946 
394 3 17327 17330 17331 17324 40.0523 
395 3 17327 17330 17324 17332 31.5172 
396 3 17333 17330 17336 17338 26.3952 
397 3 17330 17335 17333 17327 30.7443 
398 3 30049 30054 30046 30052 36.2983 
399 1 2873 2874 2875 2879 2.27516 
400 2 2878 2874 2883 2877 6.17712 
401 2 2881 2874 2884 2885 11.944 
402 3 2875 2873 2876 2895 3.52166 
403 2 2874 2881 2878 2873 1.89015 
404 5 2884 2881 2887 3017 2.97682 
405 3 16575 16580 16578 16572 30.7698 
406 3 16572 16575 16576 16569 37.1099 
407 3 16572 16575 16569 16577 29.7418 
408 3 16578 16575 16581 16583 33.735 
409 3 16581 16578 16584 16586 30.3864 
410 3 16575 16579 16572 16578 36.3495 
411 3 16578 16581 16582 16575 37.7033 
412 3 2903 2906 2907 2900 37.1436 
413 3 2909 2914 2912 2906 32.1964 
414 3 30043 30046 30047 30040 34.2354 
415 3 30043 30046 30048 30040 32.9298 
416 3 30049 30046 30052 30053 23.5646 
417 3 30046 30049 30050 30043 35.0601 
418 3 30046 30049 30051 30043 35.509 
419 3 30052 30049 30055 30057 31.9618 
420 3 2924 2896 2926 2928 35.6062 
421 3 30064 30067 30068 30061 40.2937 
422 3 30058 30062 30055 30061 39.3613 
423 3 30052 30055 30056 30049 33.5463 
424 3 30058 30063 30061 30055 44.371 
425 3 30055 30058 30059 30052 35.0666 
426 3 30055 30058 30052 30060 35.4826 
427 3 30061 30058 30064 30066 28.2383 
428 3 30061 30064 30065 30058 41.1931 
429 3 67317 67320 67321 67314 38.088 
430 3 30064 30061 30067 30069 32.0147 
431 3 67320 67323 67324 67317 37.1262 
432 3 67320 67323 67317 67325 26.9774 
433 3 67326 67323 67329 67331 26.4374 
434 3 67323 67327 67320 67326 33.5386 
435 3 45363 45365 45343 45364 33.739 
436 3 67282 67287 67281 67285 33.3799 
437 3 67282 67281 67285 67286 32.2164 
438 3 67278 67281 67306 67277 34.714 
439 3 67278 67281 67307 67277 36.0667 
440 3 67277 67279 67257 67278 36.2697 
441 3 67306 67278 67308 67310 30.477 
442 3 67257 67255 67258 67277 9.07766 
443 3 67314 67319 67311 67317 34.9515 
444 3 67311 67314 67315 67308 31.5567 
445 3 67311 67314 67316 67308 32.7175 
446 3 67317 67314 67322 67320 35.9799 
447 3 67308 67311 67312 67306 36.2783 
448 3 67308 67311 67313 67306 42.3728 
449 3 67314 67311 67317 67318 33.0548 
450 3 67306 67308 67309 67278 35.2611 
451 4 67248 67251 67252 67115 0.827073 
452 3 2941 2945 2938 2944 34.1771 
453 1 67258 67257 67259 67262 0.0713356 
454 3 45368 45373 45367 45371 28.0406 
455 3 54223 54226 54227 54220 21.9435 
456 3 54223 54226 54228 54220 42.5129 
457 3 54229 54226 54232 54233 30.8559 
458 1 67255 67256 67257 67261 3.77578 
459 2 67260 67256 67265 67259 8.86813 
460 2 67263 67256 67266 67267 8.32793 
461 5 67264 67259 67268 67250 2.83158 
462 3 54226 54229 54230 54223 37.1911 
463 3 54226 54229 54231 54223 37.4203 
464 3 54232 54229 54235 54237 29.3545 
465 4 67250 67249 67251 67264 2.07238 
466 2 67259 67264 67258 67260 0.614075 
467 2 67268 67271 67264 67270 7.0626 
468 2 67249 67253 67252 67250 1.8792 
469 3 54229 54234 54226 54232 36.4115 
470 2 67265 67260 67269 67270 1.16202 
471 3 54232 54235 54236 54229 40.9887 
472 3 52876 52879 52880 52873 34.0113 
473 3 52876 52879 52873 52881 29.2267 
474 3 52882 52879 52885 52887 29.6601 
475 3 52879 52883 52876 52882 28.6968 
476 3 54238 54243 54241 54235 37.8172 
477 3 54296 54299 54300 54293 40.197 
478 2 52913 52916 52911 52908 2.5183 
479 3 54302 54305 54306 54299 40.7847 
480 3 54302 54305 54307 54299 42.902 
481 3 54299 54302 54303 54296 38.0628 
482 3 52873 52876 52877 52870 33.8499 
483 3 54235 54238 54239 54232 33.786 
484 3 54235 54238 54232 54240 33.8014 
485 3 54241 54238 54244 54246 31.1743 
486 3 35713 35716 35717 35710 39.1924 
487 3 35713 35716 35718 35710 31.2392 
488 3 35710 35713 35714 35707 33.9181 
489 3 35707 35710 35711 35704 39.7881 
490 3 35710 35707 35713 35715 28.2689 
491 3 52882 52885 52886 52879 37.4835 
492 3 35701 35704 35705 35698 32.9109 
493 3 35701 35704 35698 35706 34.2928 
494 3 35707 35704 35710 35712 29.0179 
495 3 34444 34447 34448 34441 36.7201 
496 3 34447 34450 34451 34444 34.8304 
497 2 52761 52764 52757 52758 0.459454 
498 3 52766 52764 52765 52830 4.37628 
499 1 52764 52766 52767 52761 0.947135 
500 1 52765 52766 52768 52762 2.11835 
501 3 52830 52766 52831 52832 31.0803 
502 3 52830 52766 52831 52833 29.7601 
503 3 9308 9309 9310 9305 38.8727 
504 3 9308 9309 9311 9305 29.456 
505 3 9312 9309 9315 9316 32.9547 
506 3 9309 9312 9313 9308 37.7914 
507 3 9309 9312 9314 9308 35.4414 
508 3 9312 9317 9309 9315 34.7004 
509 3 34447 34444 34450 34452 35.4153 
510 3 9321 9326 9324 9318 33.0364 
511 3 9318 9321 9322 9315 38.1851 
512 3 9318 9321 9315 9323 27.0139 
513 3 9324 9321 9327 9329 28.3844 
514 3 9315 9318 9319 9312 41.2763 
515 3 9315 9318 9312 9320 26.1079 
516 3 24921 24924 24925 24918 32.3146 
517 3 24924 24927 24928 24921 35.7916 
518 1 35819 35820 35821 35825 3.65064 
519 2 35824 35820 35829 35823 0.731542 
520 2 35827 35820 35830 35831 9.70198 
521 1 35822 35821 35823 35826 5.87495 
522 3 35841 35844 35821 35842 30.6084 
523 3 35841 35843 35821 35842 33.5244 
524 3 35821 35819 35822 35841 0.578869 
525 3 35846 35851 35845 35849 34.5496 
526 3 13893 13890 13896 13898 35.5735 
527 3 13884 13887 13888 13881 35.1795 
528 3 13884 13887 13881 13889 29.3153 
529 3 13890 13887 13893 13895 31.7262 
530 4 35963 35966 35967 35830 3.61203 
531 5 35979 35974 35983 35965 1.72495 
532 2 35820 35827 35824 35819 1.89567 
533 5 35830 35827 35833 35963 1.29487 
534 3 24892 24895 24896 24889 37.3071 
535 3 24889 24892 24893 24886 39.4067 
536 3 24886 24890 24883 24889 37.0472 
537 3 24892 24889 24895 24897 34.539 
538 3 24883 24886 24887 24880 33.2282 
539 3 24883 24886 24880 24888 28.3969 
540 3 24889 24886 24892 24894 26.0538 
541 3 35972 35970 35973 35992 4.68414 
542 1 35973 35972 35974 35977 1.20241 
543 3 36029 36034 36026 36032 35.6936 
544 3 36021 36023 36024 35993 35.4107 
545 3 36023 36026 36027 36021 35.5084 
546 3 36023 36026 36028 36021 38.8435 
547 3 36029 36026 36032 36033 31.5319 
548 3 36026 36029 36030 36023 38.504 
549 3 36026 36029 36031 36023 35.6468 
550 3 36032 36029 36037 36035 37.9795 
551 3 36157 36161 36154 36160 34.1268 
552 3 36021 35993 36023 36025 30.7991 
553 3 35997 36002 35996 36000 29.5637 
554 3 35996 35997 35998 35993 34.7573 
555 3 35996 35997 35999 35993 35.4581 
556 3 36000 35997 36003 36005 35.2818 
557 3 26970 26975 26973 26967 31.7004 
558 3 26976 26973 26979 26981 30.2967 
559 3 17609 17612 17613 17606 31.6763 
560 3 17609 17612 17614 17606 37.9934 
561 3 26967 26970 26971 26964 36.2085 
562 3 26967 26970 26964 26972 28.7875 
563 3 26973 26970 26976 26978 24.3073 
564 3 26970 26974 26967 26973 35.2669 
565 3 26973 26976 26977 26970 39.7417 
566 3 26979 26982 26983 26976 39.179 
567 3 26979 26982 26984 26976 29.9888 
568 3 26976 26979 26980 26973 35.5654 
569 3 36163 36166 36167 36160 40.5002 
570 3 36000 36003 36004 35997 32.8457 
571 3 36166 36169 36170 36163 39.9768 
572 3 36166 36169 36171 36163 34.5061 
573 3 35036 35041 35033 35039 36.4246 
574 2 17547 17550 17545 17542 3.95851 
575 3 17644 17616 17646 17648 28.4667 
576 3 48772 48775 48776 48769 37.2738 
577 3 17619 17620 17621 17616 37.5867 
578 3 17619 17620 17622 17616 26.2066 
579 3 17623 17620 17626 17627 29.6629 
580 3 17623 17628 17620 17626 31.947 
581 3 17616 17645 17615 17619 41.9149 
582 3 17616 17644 17615 17619 29.3882 
583 3 17646 17644 17649 17650 26.4132 
584 3 17646 17644 17649 17651 31.1418 
585 3 17620 17623 17624 17619 37.3182 
586 3 17620 17623 17625 17619 34.1707 
587 3 35025 35027 35028 34997 32.5122 
588 3 17626 17629 17630 17623 38.713 
589 3 17626 17629 17623 17631 25.3796 
590 3 48769 48772 48773 48766 38.9691 
591 3 48708 48705 48711 48713 30.4771 
592 3 17472 17477 17469 17475 37.6348 
593 2 48679 48682 48675 48681 16.3349 
594 3 17469 17472 17473 17468 29.5776 
595 3 17469 17472 17474 17468 27.6369 
596 3 17468 17469 17470 17465 32.0672 
597 3 17468 17469 17471 17465 37.7192 
598 3 17472 17469 17475 17476 26.3417 
599 2 48660 48664 48663 48661 0.389036 
600 3 17632 17637 17635 17629 37.1318 
601 3 17629 17632 17633 17626 28.2361 
602 3 17629 17632 17626 17634 29.477 
603 3 17635 17632 17638 17640 24.3349 
604 3 17638 17635 17641 17643 31.7584 
605 4 48661 48660 48662 48675 1.07269 
606 3 16450 16453 16454 16447 38.972 
607 3 48696 48699 48700 48693 35.3442 
608 3 48692 48693 48694 48689 31.9279 
609 3 48692 48693 48695 48689 33.828 
610 3 48696 48693 48699 48701 27.292 
611 3 48717 48689 48719 48721 28.2496 
612 3 48693 48692 48696 48697 35.7383 
613 3 48689 48692 48717 48688 35.1192 
614 3 48689 48692 48718 48688 40.6309 
615 3 48693 48698 48692 48696 31.7532 
616 3 16447 16452 16444 16450 27.816 
617 3 16456 16460 16453 16459 40.4436 
618 3 16462 16459 16465 16467 34.8207 
619 3 16453 16456 16457 16450 34.6573 
620 3 16453 16456 16450 16458 35.6777 
621 3 16459 16456 16462 16464 31.2183 
622 3 48734 48739 48737 48731 31.9351 
623 2 29930 29935 29929 29931 4.01978 
624 5 29935 29930 29939 29921 0.893846 
625 2 29939 29942 29935 29941 13.2786 
626 2 29936 29931 29940 29941 1.52467 
627 2 29941 29944 29939 29936 3.27998 
628 1 29943 29945 29946 29940 2.98146 
629 1 29944 29945 29947 29941 2.12432 
630 3 30009 29945 30010 30011 26.9276 
631 3 30009 29945 30010 30012 33.8648 
632 2 29940 29943 29936 29937 1.92917 
633 3 29945 29943 29944 30009 1.72532 
634 1 29926 29927 29928 29932 6.72069 
635 2 29931 29927 29936 29930 9.68127 
636 2 29934 29927 29937 29938 6.1148 
637 2 30074 30070 30076 30071 2.68238 
638 2 29927 29934 29931 29926 3.17078 
639 5 29937 29934 29940 30070 5.966 
640 3 30010 30038 30009 30013 26.001 
641 3 30040 30038 30043 30044 33.4787 
642 3 30040 30038 30043 30045 22.8429 
643 3 30038 30040 30041 30010 37.278 
644 3 2906 2909 2910 2903 39.2063 
645 3 2906 2909 2903 2911 27.7694 
646 3 2912 2909 2915 2917 29.6417 
647 3 2915 2912 2918 2920 28.8355 
648 3 30017 30022 30014 30020 31.5398 
649 3 30038 30010 30040 30042 28.8526 
650 3 2912 2915 2916 2909 38.2982 
651 3 2918 2921 2922 2915 30.9553 
652 3 2918 2921 2923 2915 35.4233 
653 3 30010 30039 30009 30013 36.255 
654 3 2915 2918 2919 2912 35.8479 
655 3 30014 30017 30018 30013 33.9744 
656 3 30014 30017 30019 30013 31.9472 
657 3 67329 67326 67332 67334 32.2027 
658 2 67117 67120 67113 67119 4.48984 
659 3 29095 29098 29099 29092 35.5566 
660 3 29095 29098 29100 29092 29.2565 
661 3 29092 29095 29096 29089 34.3857 
662 3 29089 29092 29093 29086 36.0017 
663 3 29092 29089 29095 29097 29.3844 
664 3 29083 29086 29087 29080 41.8223 
665 3 29083 29086 29080 29088 30.6409 
666 3 29089 29086 29092 29094 24.0112 
667 3 29086 29090 29083 29089 38.0305 
668 3 29086 29091 29089 29083 34.3486 
669 2 67119 67122 67117 67114 2.28882 
670 3 67188 67217 67187 67191 40.0846 
671 1 67121 67123 67124 67118 4.10955 
672 1 67122 67123 67125 67119 1.13781 
673 3 67187 67123 67188 67189 28.3283 
674 3 67187 67123 67188 67190 27.4069 
675 3 67216 67188 67218 67220 31.82 
676 2 67118 67121 67114 67115 4.77548 
677 3 67123 67121 67122 67187 8.38903 
678 3 67188 67216 67187 67191 34.7204 
679 3 67218 67216 67221 67222 27.4921 
680 3 67218 67216 67221 67223 33.6545 
681 3 67216 67218 67219 67188 28.9418 
682 3 67191 67192 67193 67188 36.6732 
683 3 67191 67192 67194 67188 37.1864 
684 3 67195 67192 67198 67199 34.8915 
685 3 45380 45383 45384 45377 39.494 
686 3 45383 45386 45387 45380 36.2554 
687 2 67252 67248 67254 67249 0.92204 
688 3 45386 45389 45390 45383 36.6537 
689 3 45386 45389 45391 45383 34.7652 
690 3 52867 52870 52871 52864 42.0919 
691 3 52867 52870 52872 52864 32.7236 
692 3 52873 52870 52876 52878 32.8963 
693 3 54244 54241 54247 54249 28.8085 
694 3 29054 29058 29051 29057 38.2797 
695 3 29048 29051 29052 29045 29.8958 
696 3 29054 29059 29057 29051 33.0296 
697 3 29060 29057 29063 29065 33.1154 
698 3 29051 29054 29055 29048 37.345 
699 3 29051 29054 29048 29056 22.8965 
700 3 29057 29054 29060 29062 32.64 
701 3 29057 29060 29061 29054 38.0107 
702 3 9359 9362 9363 9356 34.9306 
703 3 29060 29063 29064 29057 30.5297 
704 3 29063 29066 29067 29060 39.22 
705 3 29063 29066 29068 29060 34.0522 
706 3 54241 54244 54245 54238 36.8661 
707 3 52835 52838 52839 52834 32.4313 
708 3 52835 52838 52840 52834 39.6553 
709 3 52864 52867 52868 52861 32.1087 
710 3 52864 52867 52869 52861 29.8913 
711 3 52870 52867 52873 52874 27.7666 
712 3 52831 52859 52830 52834 34.3547 
713 3 52861 52859 52864 52865 27.7376 
714 3 52861 52859 52864 52866 27.3912 
715 3 52859 52861 52862 52831 29.5964 
716 3 52834 52835 52836 52831 34.6879 
717 3 52834 52835 52837 52831 29.7408 
718 3 52838 52835 52841 52842 30.3527 
719 3 52859 52831 52861 52863 33.6458 
720 3 52831 52860 52830 52834 38.8879 
721 3 35704 35708 35701 35707 36.8618 
722 3 9201 9206 9204 9198 31.3882 
723 3 9305 9334 9304 9308 35.649 
724 3 9333 9305 9335 9337 30.1959 
725 3 9305 9333 9304 9308 27.4666 
726 3 9335 9333 9338 9339 29.4568 
727 3 9335 9333 9338 9340 32.5741 
728 3 9333 9335 9336 9305 31.102 
729 2 9235 9238 9231 9232 1.77081 
730 3 9240 9238 9239 9304 10.5814 
731 1 9238 9240 9241 9235 3.59619 
732 1 9239 9240 9242 9236 0.96254 
733 3 9304 9240 9305 9306 32.739 
734 3 9304 9240 9305 9307 24.3079 
735 2 9236 9239 9234 9231 0.202178 
736 3 9207 9210 9211 9204 41.4787 
737 3 35870 35842 35872 35874 23.0186 
738 3 35846 35845 35849 35850 30.9036 
739 3 35842 35845 35870 35841 31.8283 
740 3 35842 35845 35871 35841 36.739 
741 3 35845 35846 35847 35842 29.6055 
742 3 35845 35846 35848 35842 37.666 
743 3 35849 35846 35852 35854 34.0977 
744 3 50618 50621 50622 50615 31.4429 
745 3 35875 35878 35879 35872 29.255 
746 3 35875 35878 35880 35872 30.2734 
747 3 35881 35878 35886 35884 32.1446 
748 3 35872 35875 35876 35870 29.3315 
749 3 35872 35875 35877 35870 35.3424 
750 3 35878 35875 35881 35882 27.8169 
751 3 35878 35883 35875 35881 36.2479 
752 3 35870 35872 35873 35842 39.5381 
753 3 24657 24659 24637 24658 35.5005 
754 3 24616 24620 24613 24619 44.8902 
755 3 24613 24616 24617 24610 30.1503 
756 3 24613 24616 24610 24618 34.6517 
757 3 24619 24616 24622 24624 26.225 
758 3 24616 24621 24619 24613 31.2638 
759 1 24635 24636 24637 24641 4.87522 
760 2 24640 24636 24645 24639 0.477331 
761 2 24643 24636 24646 24647 15.1573 
762 2 24636 24643 24640 24635 6.1932 
763 5 24646 24643 24649 24779 0.101289 
764 2 24645 24640 24649 24650 7.75697 
765 5 24644 24639 24648 24630 4.02598 
766 1 24638 24637 24639 24642 4.57793 
767 3 24637 24635 24638 24657 12.432 
768 3 24686 24658 24688 24690 27.3713 
769 3 24661 24662 24663 24658 32.1669 
770 3 24661 24662 24664 24658 35.2108 
771 3 24665 24662 24668 24670 33.653 
772 3 24662 24667 24661 24665 36.0983 
773 3 24610 24613 24614 24607 34.9806 
774 3 36163 36160 36166 36168 19.9636 
775 3 36160 36163 36164 36157 36.9869 
776 3 24607 24612 24604 24610 27.8098 
777 3 24596 24598 24599 24568 38.5772 
778 4 24630 24629 24631 24644 2.10183 
779 3 24601 24604 24605 24598 28.4712 
780 3 24601 24604 24606 24598 31.2871 