102
	Energy:      53.5931394
C         -3.25290       -0.60306       -0.00129
C         -2.83211        0.71528        0.00083
S         -1.87924       -1.60980        0.00166
C         -0.73435       -0.31104        0.00039
C         -1.40259        0.91857        0.00080
H         -3.53423        1.53934        0.00088
C         -0.77200        2.30268       -0.00004
C         -1.75171        3.48477        0.00077
H         -0.13856        2.39289       -0.89059
H         -0.13769        2.39389        0.88974
C         -1.02693        4.83472       -0.00892
H         -2.39489        3.43208        0.88816
H         -2.40417        3.42635       -0.87944
C         -2.02934        5.99280        0.00261
H         -0.39159        4.90565       -0.89993
H         -0.36980        4.90812        0.86594
C         -1.32965        7.35150       -0.02652
H         -2.65673        5.92410        0.89983
H         -2.69689        5.90820       -0.86373
C         -2.33472        8.49360       -0.00652
H         -0.71135        7.43313       -0.92792
H         -0.66087        7.44627        0.83669
H         -3.00405        8.44329       -0.87143
H         -1.81623        9.45713       -0.03455
H         -2.94525        8.46331        0.90175
C          0.69815       -0.62904       -0.00033
C          1.29412       -1.87950       -0.00889
C          2.74376       -1.87704       -0.00408
H          0.71337       -2.79362       -0.01723
C          3.23319       -0.56573        0.00348
S          1.92157        0.55347        0.01094
C          3.57952       -3.14461       -0.00725
C          2.81718       -4.47799       -0.01037
H          4.22092       -3.13089        0.88237
H          4.22219       -3.12706       -0.89596
C          3.79155       -5.66297        0.00906
H          2.18159       -4.54445       -0.90186
H          2.15982       -4.53729        0.86570
C          3.06748       -7.01226       -0.01139
H          4.41964       -5.60182        0.90632
H          4.46142       -5.59891       -0.85724
C          4.06633       -8.17160        0.03514
H          2.45625       -7.08890       -0.91872
H          2.38632       -7.08008        0.84540
C          3.37237       -9.52422       -0.00160
H          4.66914       -8.10482        0.94849
H          4.75696       -8.10201       -0.81344
H          2.69444       -9.64278        0.84948
H          4.11290      -10.32973        0.04091
H          2.79431       -9.64495       -0.92318
C          4.59998       -0.02932        0.00606
C          4.98018        1.31134        0.00430
C          6.40024        1.54129        0.00324
H          4.26053        2.12072        0.00163
C          7.06394        0.33173        0.00709
S          6.01161       -1.00582        0.01071
H          8.13343        0.16917        0.00672
C          7.10981        2.87502       -0.00569
C          6.19668        4.10306        0.02745
H          7.73931        2.92048       -0.90399
H          7.78621        2.90968        0.85843
C          6.99123        5.41356       -0.00782
H          5.57911        4.07956        0.93402
H          5.51233        4.07827       -0.82975
C          6.04967        6.62045        0.03455
H          7.59945        5.45164       -0.91970
H          7.68070        5.45353        0.84414
C          6.80813        7.94562       -0.03761
H          5.45856        6.58866        0.95801
H          5.34286        6.56119       -0.80213
C          5.85216        9.12909        0.00081
H          7.39698        7.98967       -0.96110
H          7.51037        8.02228        0.80047
H          5.14937        9.09316       -0.83801
H          6.40710       10.07032       -0.06189
H          5.27475        9.13663        0.93098
C         -4.63979       -1.08136       -0.00571
C         -5.18511       -2.37541       -0.00828
C         -6.63039       -2.32617       -0.01487
C         -7.13980       -1.05554       -0.01414
H         -7.27934       -3.19411       -0.01861
S         -5.91192        0.10575       -0.00844
H         -8.18023       -0.75916       -0.01673
C         -4.41052       -3.68035       -0.00224
C         -5.26276       -4.95839       -0.02268
H         -3.78300       -3.70402        0.89678
H         -3.75520       -3.69828       -0.88118
C         -4.39311       -6.21734        0.01490
H         -5.88464       -4.97602       -0.92665
H         -5.94133       -4.96931        0.83954
C         -5.24498       -7.48921       -0.02652
H         -3.78517       -6.21320        0.92761
H         -3.70162       -6.21239       -0.83613
C         -4.37117       -8.74193        0.04400
H         -5.83812       -7.50521       -0.94914
H         -5.95262       -7.48767        0.81162
C         -5.20340      -10.01366       -0.00168
H         -3.78336       -8.73202        0.96925
H         -3.66134       -8.74772       -0.79127
H         -5.90742      -10.05372        0.83558
H         -4.55375      -10.89265        0.05941
H         -5.77309      -10.07740       -0.93420
