You are running Q-Chem version: 5.4.0

#
# job setting
#
local host:  exp-8-26
current dir: /expanse/lustre/projects/csd626/rramji/aromodel/PTB7_fin/Rotation_Test
input file:  fin_bdt_Phi_5_Theta_60_fin_ftt.qcin
output file: 
nprocs     : 1
nthreads   : 64
#
# qchem installation setting
#
QC:          /cm/shared/apps/spack/cpu/opt/spack/linux-centos8-zen2/gcc-10.2.0/qchem-5.4-akfmr7b3t57bfs6qan3padb2wnb2i7cl
QCAUX:       /cm/shared/apps/spack/cpu/opt/spack/linux-centos8-zen2/gcc-10.2.0/qchem-5.4-akfmr7b3t57bfs6qan3padb2wnb2i7cl/qcaux
QCPROG:      /cm/shared/apps/spack/cpu/opt/spack/linux-centos8-zen2/gcc-10.2.0/qchem-5.4-akfmr7b3t57bfs6qan3padb2wnb2i7cl/exe/qcprog.exe
QCPROG_S:    /cm/shared/apps/spack/cpu/opt/spack/linux-centos8-zen2/gcc-10.2.0/qchem-5.4-akfmr7b3t57bfs6qan3padb2wnb2i7cl/exe/qcprog.exe_s
PARALLEL:    -DPARALLEL
QCMPI:       mpich
#
# qchem directory setting
#
qcrun:       qchem1187140
QCSCRATCH:   .
QCLOCALSCR:  
QCTMPDIR:    .
QCFILEPREF:  ./qchem1187140
QCSAVEDIR:   
workdirs:    ./qchem1187140
workdir0:    ./qchem1187140
partmpdirs =  
#
# parallel setting
#
QCRSH:           ssh
QCMPI:           mpich
QCMPIRUN:        /cm/shared/apps/spack/cpu/opt/spack/linux-centos8-zen2/gcc-10.2.0/qchem-5.4-akfmr7b3t57bfs6qan3padb2wnb2i7cl/bin/mpi/mpirun_qchem
QCMACHINEFILE:   ./qchem1187140/hostfile
exp-8-26

#
# env setting
#
exported envs:   QC QCAUX QCSCRATCH QCRUNNAME QCFILEPREF QCPROG QCPROG_S GUIFILE

Running Job 1 of 1 fin_bdt_Phi_5_Theta_60_fin_ftt.qcin
qchem fin_bdt_Phi_5_Theta_60_fin_ftt.qcin_1187140.0 ./qchem1187140/ 1
/cm/shared/apps/spack/cpu/opt/spack/linux-centos8-zen2/gcc-10.2.0/qchem-5.4-akfmr7b3t57bfs6qan3padb2wnb2i7cl/bin/mpi/mpirun_qchem -machinefile ./qchem1187140/hostfile -np 1 /cm/shared/apps/spack/cpu/opt/spack/linux-centos8-zen2/gcc-10.2.0/qchem-5.4-akfmr7b3t57bfs6qan3padb2wnb2i7cl/exe/qcprog.exe fin_bdt_Phi_5_Theta_60_fin_ftt.qcin_1187140.0 ./qchem1187140/

Process 0 of 1 is on exp-8-26 - thread support 0
initial socket setup ...start
initial socket setup ...done 
now start server 0 ... 
                  Welcome to Q-Chem
     A Quantum Leap Into The Future Of Chemistry


 Q-Chem 5.4, Q-Chem, Inc., Pleasanton, CA (2021)

 License issued to: University of California, San Diego (site)

 E. Epifanovsky,  A. T. B. Gilbert,  Xintian Feng,  Joonho Lee,  Yuezhi Mao,  
 N. Mardirossian,  P. Pokhilko,  A. White,  M. Wormit,  M. P. Coons,  
 A. L. Dempwolff,  Zhengting Gan,  D. Hait,  P. R. Horn,  L. D. Jacobson,  
 I. Kaliman,  J. Kussmann,  A. W. Lange,  Ka Un Lao,  D. S. Levine,  Jie Liu,  
 S. C. McKenzie,  A. F. Morrison,  K. Nanda,  F. Plasser,  D. R. Rehn,  
 M. L. Vidal,  Zhi-Qiang You,  Ying Zhu,  B. Alam,  B. Albrecht,  
 A. Aldossary,  E. Alguire,  J. H. Andersen,  D. Barton,  K. Begam,  A. Behn,  
 Y. A. Bernard,  E. J. Berquist,  H. Burton,  A. Carreras,  K. Carter-Fenk,  
 R. Chakraborty,  A. D. Chien,  K. D. Closser,  V. Cofer-Shabica,  
 S. Dasgupta,  Jia Deng,  M. de Wergifosse,  M. Diedenhofen,  Hainam Do,  
 S. Ehlert,  Po-Tung Fang,  S. Fatehi,  Qingguo Feng,  J. Gayvert,  
 Qinghui Ge,  G. Gidofalvi,  M. Goldey,  J. Gomes,  C. Gonzalez-Espinoza,  
 S. Gulania,  A. Gunina,  M. W. D. Hanson-Heine,  P. H. P. Harbach,  
 A. W. Hauser,  M. F. Herbst,  M. Hernandez Vera,  M. Hodecker,  
 Z. C. Holden,  S. Houck,  Xunkun Huang,  Kerwin Hui,  B. C. Huynh,  
 M. Ivanov,  Hyunjun Ji,  Hanjie Jiang,  B. Kaduk,  S. Kaehler,  
 K. Khistyaev,  Jaehoon Kim,  P. Klunzinger,  Z. Koczor-Benda,  
 Joong Hoon Koh,  D. Kosenkov,  L. Koulias,  T. Kowalczyk,  C. M. Krauter,  
 K. Kue,  A. Kunitsa,  T. Kus,  A. Landau,  K. V. Lawler,  D. Lefrancois,  
 S. Lehtola,  Rain Li,  Yi-Pei Li,  Jiashu Liang,  M. Liebenthal,  
 Hung-Hsuan Lin,  You-Sheng Lin,  Fenglai Liu,  Kuan-Yu Liu,  
 M. Loipersberger,  A. Luenser,  A. Manjanath,  P. Manohar,  E. Mansoor,  
 S. F. Manzer,  Shan-Ping Mao,  A. V. Marenich,  T. Markovich,  S. Mason,  
 S. A. Maurer,  P. F. McLaughlin,  M. F. S. J. Menger,  J.-M. Mewes,  
 S. A. Mewes,  P. Morgante,  J. W. Mullinax,  T. S. Nguyen-Beck,  
 K. J. Oosterbaan,  G. Paran,  Alexander C. Paul,  Suranjan K. Paul,  
 F. Pavosevic,  Zheng Pei,  S. Prager,  E. I. Proynov,  E. Ramos,  B. Rana,  
 A. E. Rask,  A. Rettig,  R. M. Richard,  F. Rob,  E. Rossomme,  T. Scheele,  
 M. Scheurer,  M. Schneider,  N. Sergueev,  S. M. Sharada,  W. Skomorowski,  
 D. W. Small,  C. J. Stein,  Yu-Chuan Su,  E. J. Sundstrom,  Zhen Tao,  
 J. Thirman,  T. Tsuchimochi,  N. M. Tubman,  S. P. Veccham,  O. Vydrov,  
 J. Wenzel,  J. Witte,  A. Yamada,  Kun Yao,  S. Yeganeh,  S. R. Yost,  
 A. Zech,  Igor Ying Zhang,  Xing Zhang,  Yu Zhang,  D. Zuev,  
 A. Aspuru-Guzik,  A. T. Bell,  N. A. Besley,  K. B. Bravaya,  B. R. Brooks,  
 D. Casanova,  Jeng-Da Chai,  S. Coriani,  C. J. Cramer,  
 A. E. DePrince, III,  R. A. DiStasio Jr.,  A. Dreuw,  B. D. Dunietz,  
 T. R. Furlani,  W. A. Goddard III,  S. Grimme,  S. Hammes-Schiffer,  
 T. Head-Gordon,  W. J. Hehre,  Chao-Ping Hsu,  T.-C. Jagau,  Yousung Jung,  
 A. Klamt,  Jing Kong,  D. S. Lambrecht,  WanZhen Liang,  N. J. Mayhall,  
 C. W. McCurdy,  J. B. Neaton,  C. Ochsenfeld,  J. A. Parkhill,  R. Peverati,  
 V. A. Rassolov,  Yihan Shao,  L. V. Slipchenko,  T. Stauch,  R. P. Steele,  
 J. E. Subotnik,  A. J. W. Thom,  A. Tkatchenko,  D. G. Truhlar,  
 T. Van Voorhis,  T. A. Wesolowski,  K. B. Whaley,  H. L. Woodcock III,  
 P. M. Zimmerman,  S. Faraji,  P. M. W. Gill,  M. Head-Gordon,  
 J. M. Herbert,  A. I. Krylov

 Contributors to earlier versions of Q-Chem not listed above: 
 R. D. Adamson,  B. Austin,  R. Baer,  J. Baker,  G. J. O. Beran,  
 K. Brandhorst,  S. T. Brown,  E. F. C. Byrd,  A. K. Chakraborty,  
 G. K. L. Chan,  Chun-Min Chang,  Yunqing Chen,  C.-L. Cheng,  
 Siu Hung Chien,  D. M. Chipman,  D. L. Crittenden,  H. Dachsel,  
 R. J. Doerksen,  A. D. Dutoi,  R. G. Edgar,  J. Fosso-Tande,  
 L. Fusti-Molnar,  D. Ghosh,  A. Ghysels,  A. Golubeva-Zadorozhnaya,  
 J. Gonthier,  M. S. Gordon,  S. R. Gwaltney,  G. Hawkins,  J. E. Herr,  
 A. Heyden,  S. Hirata,  E. G. Hohenstein,  G. Kedziora,  F. J. Keil,  
 C. Kelley,  Jihan Kim,  R. A. King,  R. Z. Khaliullin,  P. P. Korambath,  
 W. Kurlancheek,  A. Laurent,  A. M. Lee,  M. S. Lee,  S. V. Levchenko,  
 Ching Yeh Lin,  D. Liotard,  E. Livshits,  R. C. Lochan,  I. Lotan,  
 L. A. Martinez-Martinez,  P. E. Maslen,  N. Nair,  D. P. O'Neill,  
 D. Neuhauser,  E. Neuscamman,  C. M. Oana,  R. Olivares-Amaya,  R. Olson,  
 T. M. Perrine,  B. Peters,  P. A. Pieniazek,  A. Prociuk,  Y. M. Rhee,  
 J. Ritchie,  M. A. Rohrdanz,  E. Rosta,  N. J. Russ,  H. F. Schaefer III,  
 M. W. Schmidt,  N. E. Schultz,  S. Sharma,  N. Shenvi,  C. D. Sherrill,  
 A. C. Simmonett,  A. Sodt,  T. Stein,  D. Stuck,  K. S. Thanthiriwatte,  
 V. Vanovschi,  L. Vogt,  Tao Wang,  A. Warshel,  M. A. Watson,  
 C. F. Williams,  Q. Wu,  X. Xu,  Jun Yang,  W. Zhang,  Yan Zhao

 Please cite Q-Chem as follows:
 Y. Shao et al., Mol. Phys. 113, 184-215 (2015)
 DOI: 10.1080/00268976.2014.952696

 Q-Chem 5.4.0 for Intel X86 EM64T Linux

 Parts of Q-Chem use Armadillo 9.800.1 (Horizon Scraper).
 http://arma.sourceforge.net/

 Q-Chem begins on Tue Sep 26 17:52:33 2023  

 Host: 
0

     Scratch files written to ./qchem1187140//
 May1621 |scratch|qcdevops|jenkins|workspace|build_RNUM    
 Parallel job on  1  processors
 Processing $rem in /cm/shared/apps/spack/cpu/opt/spack/linux-centos8-zen2/gcc-10.2.0/qchem-5.4-akfmr7b3t57bfs6qan3padb2wnb2i7cl/config/preferences:
 Processing $rem in /home/rramji/.qchemrc:
 Symmetry turned off for PCM/SM12/SMD calculation
 Core orbitals will be frozen

 Checking the input file for inconsistencies... 	...done.

 Q-Chem warning in module forms1/BasisType.C, line 2236:

 You are not using the predefined 5D/6D in this basis set.


--------------------------------------------------------------
User input:
--------------------------------------------------------------
$molecule
0 1
C	-0.255929	-8.519741	0.092419
C	0.666007	-7.635967	-0.449364
S	-1.592708	-7.651740	0.885736
C	0.332317	-6.261894	-0.254813
H	1.571741	-7.954738	-0.980526
C	-0.904324	-6.079985	0.458965
C	-1.385968	-4.798382	0.767823
C	1.118303	-5.153542	-0.681909
C	0.638514	-3.869626	-0.369139
C	-0.600871	-3.688927	0.342916
O	2.248132	-5.481075	-1.368544
O	-2.520275	-4.479871	1.458570
C	-3.639637	-5.356026	1.405396
H	-4.495304	-4.790496	1.820940
H	-3.490336	-6.268513	2.023129
H	-3.873314	-5.658187	0.361595
C	3.314934	-4.546999	-1.480048
H	4.171837	-5.107564	-1.899255
H	3.601473	-4.131473	-0.490123
H	3.068969	-3.712085	-2.171521
C	-0.930308	-2.314326	0.537642
S	1.334769	-2.295487	-0.785807
C	0.000000	-1.435180	0.000000
H	-1.836691	-1.993211	1.066134
H	-0.249906	-9.615985	0.091781
C	0.000000	0.000000	0.000000
S	0.080615	0.895811	1.510732
C	0.216842	2.465231	0.727629
C	0.079127	0.904769	-1.064665
C	0.198659	2.288406	-0.678287
C	0.074988	0.838492	-2.486150
C	0.185097	2.098524	-3.106916
S	0.290501	3.341568	-1.965735
C	0.211932	2.351623	-4.559972
O	0.133545	1.421416	-5.350277
O	0.326994	3.629649	-5.004375
F	-0.018214	-0.271734	-3.246290
C	0.368367	3.986101	-6.334976
H	0.465270	5.086806	-6.370268
H	-0.553140	3.675878	-6.875609
H	1.229874	3.519263	-6.861878
H	0.297091	3.381746	1.321510
$end

$rem
JOBTYPE		SP
EXCHANGE	HF
CORRELATION	pRIMP2
BASIS		cc-pvtz
METHOD		rimp2
AUX_BASIS	rimp2-cc-pvtz
SOLVENT_METHOD	PCM
PURECART	11111
SYMMETRY	false
MEM_TOTAL	110000
SCF_CONVERGENCE = 6
THRESH=10
GUI = 2
$end



$solvent
dielectric 4.90
$end
--------------------------------------------------------------
 ----------------------------------------------------------------
             Standard Nuclear Orientation (Angstroms)
    I     Atom           X                Y                Z
 ----------------------------------------------------------------
    1      C      -0.2559290000    -8.5197410000     0.0924190000
    2      C       0.6660070000    -7.6359670000    -0.4493640000
    3      S      -1.5927080000    -7.6517400000     0.8857360000
    4      C       0.3323170000    -6.2618940000    -0.2548130000
    5      H       1.5717410000    -7.9547380000    -0.9805260000
    6      C      -0.9043240000    -6.0799850000     0.4589650000
    7      C      -1.3859680000    -4.7983820000     0.7678230000
    8      C       1.1183030000    -5.1535420000    -0.6819090000
    9      C       0.6385140000    -3.8696260000    -0.3691390000
   10      C      -0.6008710000    -3.6889270000     0.3429160000
   11      O       2.2481320000    -5.4810750000    -1.3685440000
   12      O      -2.5202750000    -4.4798710000     1.4585700000
   13      C      -3.6396370000    -5.3560260000     1.4053960000
   14      H      -4.4953040000    -4.7904960000     1.8209400000
   15      H      -3.4903360000    -6.2685130000     2.0231290000
   16      H      -3.8733140000    -5.6581870000     0.3615950000
   17      C       3.3149340000    -4.5469990000    -1.4800480000
   18      H       4.1718370000    -5.1075640000    -1.8992550000
   19      H       3.6014730000    -4.1314730000    -0.4901230000
   20      H       3.0689690000    -3.7120850000    -2.1715210000
   21      C      -0.9303080000    -2.3143260000     0.5376420000
   22      S       1.3347690000    -2.2954870000    -0.7858070000
   23      C       0.0000000000    -1.4351800000     0.0000000000
   24      H      -1.8366910000    -1.9932110000     1.0661340000
   25      H      -0.2499060000    -9.6159850000     0.0917810000
   26      C       0.0000000000     0.0000000000     0.0000000000
   27      S       0.0806150000     0.8958110000     1.5107320000
   28      C       0.2168420000     2.4652310000     0.7276290000
   29      C       0.0791270000     0.9047690000    -1.0646650000
   30      C       0.1986590000     2.2884060000    -0.6782870000
   31      C       0.0749880000     0.8384920000    -2.4861500000
   32      C       0.1850970000     2.0985240000    -3.1069160000
   33      S       0.2905010000     3.3415680000    -1.9657350000
   34      C       0.2119320000     2.3516230000    -4.5599720000
   35      O       0.1335450000     1.4214160000    -5.3502770000
   36      O       0.3269940000     3.6296490000    -5.0043750000
   37      F      -0.0182140000    -0.2717340000    -3.2462900000
   38      C       0.3683670000     3.9861010000    -6.3349760000
   39      H       0.4652700000     5.0868060000    -6.3702680000
   40      H      -0.5531400000     3.6758780000    -6.8756090000
   41      H       1.2298740000     3.5192630000    -6.8618780000
   42      H       0.2970910000     3.3817460000     1.3215100000
 ----------------------------------------------------------------
 Nuclear Repulsion Energy =        3303.25459614 hartrees
 There are      119 alpha and      119 beta electrons
 Requested basis set is cc-pVTZ
 There are 376 shells and 1068 basis functions

 Total QAlloc Memory Limit 110000 MB
 Mega-Array Size       188 MB
 MEM_STATIC part       192 MB
 Discretize the solute cavity surface with Lebedev spheres
	Using 110 Lebedev grid points for each H atom
	Using 194 Lebedev grid points for other atoms
	Atomic van der Waals radii will be scaled by 1.20
 Remove points where switching function is < 1.0e-08
 Keep 2915 surface tesserae and discard 4141 interior tesserae
 Molecular Surface Area = 440.386 Angst**2
 Requested basis set is rimp2-cc-pVTZ
 There are 833 shells and 2903 basis functions
 A cutoff of  1.0D-10 yielded  31050 shell pairs
 There are    238642 function pairs (    310015 Cartesian)
 Smallest overlap matrix eigenvalue = 2.20E-05

 Scale SEOQF with 1.000000e-01/1.000000e-02/1.000000e-02

 Standard Electronic Orientation quadrupole field applied
 Nucleus-field energy     =     0.0000000328 hartrees
 Guess from superposition of atomic densities
 Warning:  Energy on first SCF cycle will be non-variational
 SAD guess density has 238.000000 electrons

 -----------------------------------------------------------------------
  General SCF calculation program by
  Eric Jon Sundstrom, Paul Horn, Yuezhi Mao, Dmitri Zuev, Alec White,
  David Stuck, Shaama M.S., Shane Yost, Joonho Lee, David Small,
  Daniel Levine, Susi Lehtola, Hugh Burton, Evgeny Epifanovsky,
  Bang C. Huynh
 -----------------------------------------------------------------------
 Hartree-Fock
 using 64 threads for integral computing
 -------------------------------------------------------
 OpenMP Integral computing Module                
 Release: version 1.0, May 2013, Q-Chem Inc. Pittsburgh 
 -------------------------------------------------------
 A restricted SCF calculation will be
 performed using DIIS
 SCF converges when DIIS error is below 1.0e-06
 ---------------------------------------
  Cycle       Energy         DIIS error
 ---------------------------------------
    1   -2765.5250810965      1.77e-02  
    2   -2753.8599896004      1.57e-03  
    3   -2754.1990730473      8.83e-04  
    4   -2754.2835162548      2.54e-04  
    5   -2754.2951613615      6.82e-05  
    6   -2754.2962382947      2.37e-05  
    7   -2754.2964780137      1.16e-05  
    8   -2754.2965572693      4.53e-06  
    9   -2754.2965734398      2.07e-06  
   10   -2754.2965758469      8.56e-07  Convergence criterion met
 ---------------------------------------
 SCF time:   CPU 6425.38s  wall 230.00s 

************** Final PCM Free Energy Summary **************
 G_electrostatic  =      -0.02002466 hartree =     -12.56566287 kcal/mol
 G_cavitation     =       0.00000000 hartree =       0.00000000 kcal/mol
 G_dispersion     =       0.00000000 hartree =       0.00000000 kcal/mol
 G_repulsion      =       0.00000000 hartree =       0.00000000 kcal/mol
 --------------------------------------------------
 Non-electrostatic Free Energy =       0.00000000 hartree =       0.00000000 kcal/mol
 Total                         =      -0.02002466 hartree =     -12.56566287 kcal/mol
 --------------------------------------------------
 SCF Energy (H0 + V/2)                       =   -2754.29657585 
 Solute Internal Energy (H0)                 =   -2754.27655119 
 Total Free Energy (H0 + V/2 + non-elec)     =   -2754.29657585 hartree
                                             = -1728347.18728681 kcal/mol
***********************************************************

 SCF   energy in the final basis set =    -2754.2965758469
 Total energy in the final basis set =    -2754.2965758469


 --------------------------------------------------------------
  Generalized many-body perturbation theory program
  by Joonho Lee, Fazle Rob, Xintian Feng, Evgeny Epifanovsky

 No regularization used 
 (reg. param. = 0.0000e+00)
  (P|Q)^-1/2 Time:  CPU 128.06 s  wall 2.60 s

 In RI-MP2 calculation: 
 # of frozen core orbitals: 45

 Components of the RIMP2 correlation energy:
        aaaa    correlation energy =        -0.6706021167 a.u.
        abab    correlation energy =        -3.7115737257 a.u.
        bbbb    correlation energy =        -0.6706021167 a.u.
        non-Brillouin singles      =        -0.0000000000 a.u.
        total same-spin energy     =        -1.3412042334 a.u.
        total opposite-spin energy =        -3.7115737257 a.u.

 Total  RIMP2   correlation energy =        -5.0527779591 a.u.
        RIMP2         total energy =     -2759.3493538061 a.u.

 RI-MP2 Energy Time:  CPU 2728.78 s  wall 44.47 s
 
 --------------------------------------------------------------
 
                    Orbital Energies (a.u.)
 --------------------------------------------------------------
 
 Alpha MOs
 -- Occupied --
-92.0166 -91.9944 -91.9900 -91.9868 -26.3337 -20.6118 -20.5923 -20.5922
-20.5496 -11.4099 -11.3773 -11.3194 -11.3191 -11.3111 -11.2966 -11.2964
-11.2947 -11.2927 -11.2883 -11.2870 -11.2868 -11.2865 -11.2844 -11.2820
-11.2804 -11.2615 -11.2599 -11.2597 -11.2502  -9.0147  -8.9984  -8.9903
 -8.9867  -6.6954  -6.6948  -6.6943  -6.6797  -6.6790  -6.6777  -6.6713
 -6.6706  -6.6696  -6.6677  -6.6670  -6.6662  -1.6468  -1.4715  -1.4165
 -1.4149  -1.3667  -1.2331  -1.1965  -1.1686  -1.1417  -1.0845  -1.0526
 -1.0472  -1.0276  -1.0028  -0.9935  -0.9712  -0.9615  -0.9506  -0.9385
 -0.8961  -0.8689  -0.8512  -0.8067  -0.7904  -0.7882  -0.7747  -0.7664
 -0.7586  -0.7330  -0.7180  -0.7150  -0.7012  -0.6883  -0.6836  -0.6782
 -0.6709  -0.6609  -0.6593  -0.6529  -0.6305  -0.6204  -0.6171  -0.6061
 -0.6019  -0.5941  -0.5844  -0.5770  -0.5687  -0.5660  -0.5570  -0.5521
 -0.5332  -0.5263  -0.5251  -0.5163  -0.5142  -0.5082  -0.5013  -0.4961
 -0.4898  -0.4839  -0.4767  -0.4682  -0.4616  -0.4611  -0.4598  -0.4120
 -0.3991  -0.3871  -0.3579  -0.3497  -0.3188  -0.2868  -0.2565
 -- Virtual --
  0.0237   0.0674   0.1165   0.1241   0.1339   0.1443   0.1492   0.1550
  0.1560   0.1597   0.1677   0.1690   0.1816   0.1839   0.1896   0.1915
  0.2030   0.2041   0.2106   0.2180   0.2200   0.2216   0.2235   0.2287
  0.2341   0.2347   0.2430   0.2535   0.2599   0.2682   0.2717   0.2821
  0.2881   0.3096   0.3194   0.3295   0.3338   0.3395   0.3466   0.3470
  0.3521   0.3591   0.3698   0.3711   0.3745   0.3807   0.3828   0.3850
  0.3888   0.3956   0.4018   0.4049   0.4083   0.4135   0.4170   0.4219
  0.4240   0.4328   0.4398   0.4400   0.4492   0.4509   0.4527   0.4550
  0.4561   0.4667   0.4689   0.4729   0.4778   0.4787   0.4848   0.4883
  0.4936   0.4958   0.5058   0.5076   0.5102   0.5188   0.5219   0.5228
  0.5270   0.5316   0.5367   0.5402   0.5424   0.5484   0.5520   0.5534
  0.5560   0.5588   0.5632   0.5679   0.5692   0.5720   0.5775   0.5822
  0.5860   0.5878   0.5923   0.5973   0.5994   0.6027   0.6056   0.6082
  0.6131   0.6159   0.6189   0.6225   0.6233   0.6261   0.6295   0.6368
  0.6383   0.6413   0.6447   0.6486   0.6507   0.6567   0.6667   0.6693
  0.6753   0.6790   0.6798   0.6848   0.6912   0.6956   0.6985   0.7054
  0.7104   0.7128   0.7179   0.7211   0.7303   0.7436   0.7446   0.7526
  0.7609   0.7662   0.7677   0.7719   0.7841   0.7904   0.7979   0.8011
  0.8030   0.8087   0.8126   0.8204   0.8229   0.8285   0.8320   0.8377
  0.8439   0.8563   0.8604   0.8655   0.8759   0.8836   0.8887   0.8936
  0.9012   0.9029   0.9061   0.9082   0.9118   0.9182   0.9209   0.9275
  0.9327   0.9368   0.9416   0.9458   0.9518   0.9564   0.9579   0.9682
  0.9734   0.9773   0.9793   0.9815   0.9895   0.9956   1.0009   1.0031
  1.0051   1.0105   1.0150   1.0196   1.0266   1.0303   1.0359   1.0416
  1.0425   1.0495   1.0540   1.0638   1.0653   1.0729   1.0765   1.0797
  1.0843   1.0877   1.0902   1.0931   1.1009   1.1036   1.1071   1.1107
  1.1121   1.1293   1.1312   1.1361   1.1424   1.1525   1.1552   1.1559
  1.1651   1.1696   1.1723   1.1801   1.1819   1.1881   1.1907   1.1914
  1.2001   1.2027   1.2105   1.2127   1.2171   1.2202   1.2255   1.2299
  1.2382   1.2451   1.2498   1.2551   1.2592   1.2674   1.2721   1.2769
  1.2782   1.2831   1.2888   1.3038   1.3088   1.3100   1.3193   1.3224
  1.3291   1.3331   1.3399   1.3462   1.3477   1.3563   1.3601   1.3682
  1.3752   1.3821   1.3911   1.3941   1.4096   1.4128   1.4176   1.4214
  1.4261   1.4430   1.4519   1.4581   1.4676   1.4754   1.4836   1.4869
  1.4945   1.4998   1.5026   1.5067   1.5125   1.5138   1.5217   1.5317
  1.5345   1.5382   1.5407   1.5485   1.5518   1.5587   1.5618   1.5644
  1.5701   1.5838   1.5846   1.5973   1.5997   1.6136   1.6223   1.6300
  1.6408   1.6529   1.6567   1.6612   1.6651   1.6719   1.6801   1.6839
  1.6846   1.6956   1.7079   1.7111   1.7119   1.7304   1.7388   1.7514
  1.7578   1.7702   1.7764   1.7832   1.7928   1.7962   1.8136   1.8191
  1.8227   1.8332   1.8354   1.8462   1.8517   1.8618   1.8640   1.8723
  1.8800   1.8852   1.8947   1.9032   1.9075   1.9178   1.9283   1.9294
  1.9344   1.9391   1.9527   1.9588   1.9692   1.9731   1.9853   1.9883
  1.9959   2.0122   2.0210   2.0291   2.0366   2.0403   2.0486   2.0531
  2.0661   2.0881   2.0933   2.1033   2.1206   2.1292   2.1365   2.1429
  2.1485   2.1558   2.1615   2.1663   2.1748   2.1767   2.1882   2.1943
  2.1997   2.2022   2.2153   2.2181   2.2210   2.2285   2.2394   2.2452
  2.2487   2.2499   2.2674   2.2729   2.2791   2.2821   2.2966   2.3077
  2.3094   2.3166   2.3207   2.3275   2.3344   2.3443   2.3555   2.3638
  2.3721   2.3814   2.3839   2.3895   2.3980   2.4163   2.4206   2.4259
  2.4324   2.4395   2.4490   2.4596   2.4726   2.4784   2.4870   2.4950
  2.5033   2.5098   2.5257   2.5296   2.5337   2.5514   2.5596   2.5720
  2.5770   2.5866   2.5912   2.5946   2.6119   2.6131   2.6211   2.6264
  2.6332   2.6335   2.6363   2.6472   2.6560   2.6634   2.6650   2.6710
  2.6791   2.6834   2.6920   2.6976   2.6992   2.7055   2.7090   2.7214
  2.7250   2.7315   2.7365   2.7402   2.7423   2.7472   2.7587   2.7603
  2.7769   2.7834   2.7897   2.7956   2.7995   2.8092   2.8155   2.8193
  2.8284   2.8341   2.8450   2.8481   2.8548   2.8607   2.8706   2.8736
  2.8813   2.8836   2.8857   2.8976   2.9123   2.9133   2.9238   2.9335
  2.9477   2.9552   2.9587   2.9725   2.9807   2.9832   2.9917   3.0060
  3.0077   3.0167   3.0266   3.0286   3.0349   3.0412   3.0430   3.0452
  3.0498   3.0584   3.0708   3.0840   3.0877   3.0913   3.1002   3.1029
  3.1077   3.1115   3.1161   3.1186   3.1312   3.1376   3.1433   3.1483
  3.1523   3.1560   3.1622   3.1732   3.1742   3.1751   3.1780   3.1844
  3.1872   3.1937   3.2017   3.2087   3.2165   3.2176   3.2231   3.2336
  3.2346   3.2377   3.2449   3.2472   3.2541   3.2591   3.2631   3.2696
  3.2736   3.2770   3.2796   3.2882   3.2899   3.2930   3.2963   3.2991
  3.3059   3.3123   3.3241   3.3285   3.3333   3.3403   3.3440   3.3474
  3.3499   3.3529   3.3593   3.3613   3.3655   3.3680   3.3694   3.3738
  3.3816   3.3845   3.3881   3.3942   3.3978   3.4049   3.4060   3.4121
  3.4182   3.4253   3.4347   3.4351   3.4410   3.4453   3.4464   3.4545
  3.4567   3.4677   3.4726   3.4757   3.4824   3.4869   3.4916   3.4965
  3.5031   3.5056   3.5156   3.5192   3.5260   3.5297   3.5356   3.5427
  3.5500   3.5538   3.5598   3.5663   3.5682   3.5746   3.5796   3.5848
  3.5862   3.5884   3.5910   3.6007   3.6030   3.6064   3.6134   3.6208
  3.6287   3.6327   3.6384   3.6498   3.6530   3.6550   3.6593   3.6623
  3.6679   3.6704   3.6771   3.6812   3.6827   3.6874   3.6927   3.6992
  3.7034   3.7062   3.7113   3.7211   3.7259   3.7295   3.7343   3.7365
  3.7433   3.7477   3.7511   3.7616   3.7672   3.7747   3.7756   3.7879
  3.7918   3.7970   3.8026   3.8127   3.8214   3.8224   3.8242   3.8326
  3.8363   3.8419   3.8472   3.8525   3.8577   3.8585   3.8670   3.8767
  3.8835   3.8900   3.8924   3.8970   3.9077   3.9114   3.9210   3.9306
  3.9370   3.9408   3.9501   3.9518   3.9685   3.9726   3.9800   3.9874
  3.9905   4.0048   4.0091   4.0150   4.0201   4.0225   4.0352   4.0374
  4.0443   4.0531   4.0608   4.0677   4.0756   4.0809   4.0837   4.0898
  4.0992   4.1048   4.1171   4.1246   4.1377   4.1443   4.1484   4.1596
  4.1618   4.1711   4.1728   4.1850   4.1877   4.1886   4.1899   4.2015
  4.2075   4.2184   4.2214   4.2363   4.2491   4.2601   4.2712   4.2768
  4.2851   4.2934   4.3101   4.3222   4.3264   4.3318   4.3415   4.3475
  4.3498   4.3562   4.3736   4.3762   4.3773   4.3923   4.3926   4.4022
  4.4102   4.4111   4.4137   4.4197   4.4237   4.4375   4.4436   4.4530
  4.4662   4.4729   4.4850   4.4937   4.4966   4.4986   4.5044   4.5134
  4.5306   4.5337   4.5447   4.5557   4.5569   4.5735   4.5823   4.5899
  4.6011   4.6105   4.6194   4.6276   4.6316   4.6404   4.6419   4.6532
  4.6550   4.6716   4.6720   4.6780   4.6887   4.7026   4.7116   4.7270
  4.7355   4.7421   4.7607   4.7652   4.7814   4.7900   4.8052   4.8066
  4.8185   4.8292   4.8417   4.8589   4.8659   4.9000   4.9131   4.9197
  4.9405   4.9467   4.9596   4.9611   4.9648   4.9819   4.9934   5.0033
  5.0104   5.0121   5.0229   5.0444   5.0494   5.0625   5.0721   5.0791
  5.0938   5.1208   5.1424   5.1560   5.1611   5.1750   5.1855   5.1977
  5.2087   5.2115   5.2190   5.2427   5.2546   5.2593   5.2777   5.2870
  5.2992   5.3093   5.3191   5.3314   5.3387   5.3490   5.3554   5.3608
  5.3709   5.3917   5.3974   5.4016   5.4246   5.4326   5.4628   5.4664
  5.4733   5.4828   5.4916   5.5070   5.5117   5.5265   5.5451   5.5627
  5.5733   5.5839   5.5990   5.6059   5.6181   5.6375   5.6400   5.6715
  5.7162   5.7357   5.7932   5.8011   5.8152   5.8332   5.8541   5.8640
  5.8729   5.8865   5.9140   5.9702   5.9732   5.9869   5.9990   6.0542
  6.0681   6.0897   6.1236   6.1339   6.1665   6.1732   6.1861   6.1909
  6.2332   6.2638   6.2681   6.2743   6.2938   6.3089   6.3203   6.3946
  6.4370   6.4510   6.4835   6.5198   6.5483   6.5559   6.5568   6.6513
  6.6737   6.6772   6.7022   6.7377   6.7426   6.7999   6.8418   6.8609
  6.8825   6.8918   6.9925   7.1193   7.1383   7.1788   7.2116   7.2156
  7.2333   7.3188   7.3270   7.3326   7.3739   7.3769   7.4286   7.4629
  7.4789   7.4871   7.4877   7.5205   7.5501   7.6112   7.7197   7.7705
  7.7964   7.8317   7.9053   7.9192   7.9476   8.0048   8.1088   8.1845
  8.6166   8.9311   9.0094   9.3648   9.5010   9.6973  10.2228  10.7230
 11.2400  11.4307  11.9100  11.9580  12.1264  12.2000  12.3494  12.5698
 12.6501  12.8065  12.9543  13.2203  13.2792  13.5789  13.8455  13.9023
 13.9487  14.0155  14.2334  14.4500  15.1938
 --------------------------------------------------------------
 
          Ground-State Mulliken Net Atomic Charges

     Atom                 Charge (a.u.)
  ----------------------------------------
      1 C                    -0.186770
      2 C                    -0.254178
      3 S                    -0.021835
      4 C                    -0.012856
      5 H                     0.196691
      6 C                    -0.027496
      7 C                     0.246993
      8 C                     0.239191
      9 C                    -0.042443
     10 C                    -0.026942
     11 O                    -0.333127
     12 O                    -0.339937
     13 C                    -0.085623
     14 H                     0.122664
     15 H                     0.091029
     16 H                     0.094653
     17 C                    -0.086736
     18 H                     0.125054
     19 H                     0.094334
     20 H                     0.090731
     21 C                    -0.235905
     22 S                    -0.001955
     23 C                    -0.030765
     24 H                     0.197904
     25 H                     0.206734
     26 C                    -0.002915
     27 S                     0.117774
     28 C                    -0.242885
     29 C                    -0.112681
     30 C                    -0.005347
     31 C                     0.397020
     32 C                    -0.154377
     33 S                     0.037065
     34 C                     0.461056
     35 O                    -0.450775
     36 O                    -0.297948
     37 F                    -0.210605
     38 C                    -0.055073
     39 H                     0.116502
     40 H                     0.084606
     41 H                     0.084377
     42 H                     0.214795
  ----------------------------------------
  Sum of atomic charges =     0.000000

 -----------------------------------------------------------------
                    Cartesian Multipole Moments
 -----------------------------------------------------------------
    Charge (ESU x 10^10)
                -0.0000
    Dipole Moment (Debye)
         X       0.2623      Y       1.3853      Z       3.0286
       Tot       3.3407
    Quadrupole Moments (Debye-Ang)
        XX    -178.3693     XY       2.5300     YY    -158.1177
        XZ      -8.0726     YZ      -9.3940     ZZ    -204.6567
    Octopole Moments (Debye-Ang^2)
       XXX     -10.6140    XXY     278.0416    XYY      -7.4520
       YYY     881.6051    XXZ     173.3199    XYZ      30.1423
       YYZ     120.4853    XZZ      12.4884    YZZ     499.5093
       ZZZ     540.6988
    Hexadecapole Moments (Debye-Ang^3)
      XXXX   -1931.2752   XXXY    -562.5124   XXYY   -3652.4028
      XYYY    -489.7198   YYYY  -18550.6064   XXXZ     482.0807
      XXYZ     533.5241   XYYZ     -13.5258   YYYZ    1413.0230
      XXZZ   -1349.7456   XYZZ    -163.4038   YYZZ   -4302.7880
      XZZZ     546.6943   YZZZ     922.9595   ZZZZ   -6045.4754
 -----------------------------------------------------------------
 Total job time:  289.21s(wall), 9607.13s(cpu) 
 Tue Sep 26 17:57:23 2023

        *************************************************************
        *                                                           *
        *  Thank you very much for using Q-Chem.  Have a nice day.  *
        *                                                           *
        *************************************************************


0 sent ACK to 0 
now end server 0 ... 
cleanup process ... done
remove work dirs ./qchem1187140.0 -- ./qchem1187140.0
rm -rf ./qchem1187140.0
rm -rf ./qchem1187140
