You are running Q-Chem version: 5.4.0

#
# job setting
#
local host:  exp-2-38
current dir: /expanse/lustre/projects/csd626/rramji/aromodel/PTB7_fin/Rotation_Test
input file:  fin_bdt_Phi_10_Theta_80_fin_ftt.qcin
output file: 
nprocs     : 1
nthreads   : 64
#
# qchem installation setting
#
QC:          /cm/shared/apps/spack/cpu/opt/spack/linux-centos8-zen2/gcc-10.2.0/qchem-5.4-akfmr7b3t57bfs6qan3padb2wnb2i7cl
QCAUX:       /cm/shared/apps/spack/cpu/opt/spack/linux-centos8-zen2/gcc-10.2.0/qchem-5.4-akfmr7b3t57bfs6qan3padb2wnb2i7cl/qcaux
QCPROG:      /cm/shared/apps/spack/cpu/opt/spack/linux-centos8-zen2/gcc-10.2.0/qchem-5.4-akfmr7b3t57bfs6qan3padb2wnb2i7cl/exe/qcprog.exe
QCPROG_S:    /cm/shared/apps/spack/cpu/opt/spack/linux-centos8-zen2/gcc-10.2.0/qchem-5.4-akfmr7b3t57bfs6qan3padb2wnb2i7cl/exe/qcprog.exe_s
PARALLEL:    -DPARALLEL
QCMPI:       mpich
#
# qchem directory setting
#
qcrun:       qchem3755831
QCSCRATCH:   .
QCLOCALSCR:  
QCTMPDIR:    .
QCFILEPREF:  ./qchem3755831
QCSAVEDIR:   
workdirs:    ./qchem3755831
workdir0:    ./qchem3755831
partmpdirs =  
#
# parallel setting
#
QCRSH:           ssh
QCMPI:           mpich
QCMPIRUN:        /cm/shared/apps/spack/cpu/opt/spack/linux-centos8-zen2/gcc-10.2.0/qchem-5.4-akfmr7b3t57bfs6qan3padb2wnb2i7cl/bin/mpi/mpirun_qchem
QCMACHINEFILE:   ./qchem3755831/hostfile
exp-2-38

#
# env setting
#
exported envs:   QC QCAUX QCSCRATCH QCRUNNAME QCFILEPREF QCPROG QCPROG_S GUIFILE

Running Job 1 of 1 fin_bdt_Phi_10_Theta_80_fin_ftt.qcin
qchem fin_bdt_Phi_10_Theta_80_fin_ftt.qcin_3755831.0 ./qchem3755831/ 1
/cm/shared/apps/spack/cpu/opt/spack/linux-centos8-zen2/gcc-10.2.0/qchem-5.4-akfmr7b3t57bfs6qan3padb2wnb2i7cl/bin/mpi/mpirun_qchem -machinefile ./qchem3755831/hostfile -np 1 /cm/shared/apps/spack/cpu/opt/spack/linux-centos8-zen2/gcc-10.2.0/qchem-5.4-akfmr7b3t57bfs6qan3padb2wnb2i7cl/exe/qcprog.exe fin_bdt_Phi_10_Theta_80_fin_ftt.qcin_3755831.0 ./qchem3755831/

Process 0 of 1 is on exp-2-38 - thread support 0
initial socket setup ...start
initial socket setup ...done 
now start server 0 ... 
                  Welcome to Q-Chem
     A Quantum Leap Into The Future Of Chemistry


 Q-Chem 5.4, Q-Chem, Inc., Pleasanton, CA (2021)

 License issued to: University of California, San Diego (site)

 E. Epifanovsky,  A. T. B. Gilbert,  Xintian Feng,  Joonho Lee,  Yuezhi Mao,  
 N. Mardirossian,  P. Pokhilko,  A. White,  M. Wormit,  M. P. Coons,  
 A. L. Dempwolff,  Zhengting Gan,  D. Hait,  P. R. Horn,  L. D. Jacobson,  
 I. Kaliman,  J. Kussmann,  A. W. Lange,  Ka Un Lao,  D. S. Levine,  Jie Liu,  
 S. C. McKenzie,  A. F. Morrison,  K. Nanda,  F. Plasser,  D. R. Rehn,  
 M. L. Vidal,  Zhi-Qiang You,  Ying Zhu,  B. Alam,  B. Albrecht,  
 A. Aldossary,  E. Alguire,  J. H. Andersen,  D. Barton,  K. Begam,  A. Behn,  
 Y. A. Bernard,  E. J. Berquist,  H. Burton,  A. Carreras,  K. Carter-Fenk,  
 R. Chakraborty,  A. D. Chien,  K. D. Closser,  V. Cofer-Shabica,  
 S. Dasgupta,  Jia Deng,  M. de Wergifosse,  M. Diedenhofen,  Hainam Do,  
 S. Ehlert,  Po-Tung Fang,  S. Fatehi,  Qingguo Feng,  J. Gayvert,  
 Qinghui Ge,  G. Gidofalvi,  M. Goldey,  J. Gomes,  C. Gonzalez-Espinoza,  
 S. Gulania,  A. Gunina,  M. W. D. Hanson-Heine,  P. H. P. Harbach,  
 A. W. Hauser,  M. F. Herbst,  M. Hernandez Vera,  M. Hodecker,  
 Z. C. Holden,  S. Houck,  Xunkun Huang,  Kerwin Hui,  B. C. Huynh,  
 M. Ivanov,  Hyunjun Ji,  Hanjie Jiang,  B. Kaduk,  S. Kaehler,  
 K. Khistyaev,  Jaehoon Kim,  P. Klunzinger,  Z. Koczor-Benda,  
 Joong Hoon Koh,  D. Kosenkov,  L. Koulias,  T. Kowalczyk,  C. M. Krauter,  
 K. Kue,  A. Kunitsa,  T. Kus,  A. Landau,  K. V. Lawler,  D. Lefrancois,  
 S. Lehtola,  Rain Li,  Yi-Pei Li,  Jiashu Liang,  M. Liebenthal,  
 Hung-Hsuan Lin,  You-Sheng Lin,  Fenglai Liu,  Kuan-Yu Liu,  
 M. Loipersberger,  A. Luenser,  A. Manjanath,  P. Manohar,  E. Mansoor,  
 S. F. Manzer,  Shan-Ping Mao,  A. V. Marenich,  T. Markovich,  S. Mason,  
 S. A. Maurer,  P. F. McLaughlin,  M. F. S. J. Menger,  J.-M. Mewes,  
 S. A. Mewes,  P. Morgante,  J. W. Mullinax,  T. S. Nguyen-Beck,  
 K. J. Oosterbaan,  G. Paran,  Alexander C. Paul,  Suranjan K. Paul,  
 F. Pavosevic,  Zheng Pei,  S. Prager,  E. I. Proynov,  E. Ramos,  B. Rana,  
 A. E. Rask,  A. Rettig,  R. M. Richard,  F. Rob,  E. Rossomme,  T. Scheele,  
 M. Scheurer,  M. Schneider,  N. Sergueev,  S. M. Sharada,  W. Skomorowski,  
 D. W. Small,  C. J. Stein,  Yu-Chuan Su,  E. J. Sundstrom,  Zhen Tao,  
 J. Thirman,  T. Tsuchimochi,  N. M. Tubman,  S. P. Veccham,  O. Vydrov,  
 J. Wenzel,  J. Witte,  A. Yamada,  Kun Yao,  S. Yeganeh,  S. R. Yost,  
 A. Zech,  Igor Ying Zhang,  Xing Zhang,  Yu Zhang,  D. Zuev,  
 A. Aspuru-Guzik,  A. T. Bell,  N. A. Besley,  K. B. Bravaya,  B. R. Brooks,  
 D. Casanova,  Jeng-Da Chai,  S. Coriani,  C. J. Cramer,  
 A. E. DePrince, III,  R. A. DiStasio Jr.,  A. Dreuw,  B. D. Dunietz,  
 T. R. Furlani,  W. A. Goddard III,  S. Grimme,  S. Hammes-Schiffer,  
 T. Head-Gordon,  W. J. Hehre,  Chao-Ping Hsu,  T.-C. Jagau,  Yousung Jung,  
 A. Klamt,  Jing Kong,  D. S. Lambrecht,  WanZhen Liang,  N. J. Mayhall,  
 C. W. McCurdy,  J. B. Neaton,  C. Ochsenfeld,  J. A. Parkhill,  R. Peverati,  
 V. A. Rassolov,  Yihan Shao,  L. V. Slipchenko,  T. Stauch,  R. P. Steele,  
 J. E. Subotnik,  A. J. W. Thom,  A. Tkatchenko,  D. G. Truhlar,  
 T. Van Voorhis,  T. A. Wesolowski,  K. B. Whaley,  H. L. Woodcock III,  
 P. M. Zimmerman,  S. Faraji,  P. M. W. Gill,  M. Head-Gordon,  
 J. M. Herbert,  A. I. Krylov

 Contributors to earlier versions of Q-Chem not listed above: 
 R. D. Adamson,  B. Austin,  R. Baer,  J. Baker,  G. J. O. Beran,  
 K. Brandhorst,  S. T. Brown,  E. F. C. Byrd,  A. K. Chakraborty,  
 G. K. L. Chan,  Chun-Min Chang,  Yunqing Chen,  C.-L. Cheng,  
 Siu Hung Chien,  D. M. Chipman,  D. L. Crittenden,  H. Dachsel,  
 R. J. Doerksen,  A. D. Dutoi,  R. G. Edgar,  J. Fosso-Tande,  
 L. Fusti-Molnar,  D. Ghosh,  A. Ghysels,  A. Golubeva-Zadorozhnaya,  
 J. Gonthier,  M. S. Gordon,  S. R. Gwaltney,  G. Hawkins,  J. E. Herr,  
 A. Heyden,  S. Hirata,  E. G. Hohenstein,  G. Kedziora,  F. J. Keil,  
 C. Kelley,  Jihan Kim,  R. A. King,  R. Z. Khaliullin,  P. P. Korambath,  
 W. Kurlancheek,  A. Laurent,  A. M. Lee,  M. S. Lee,  S. V. Levchenko,  
 Ching Yeh Lin,  D. Liotard,  E. Livshits,  R. C. Lochan,  I. Lotan,  
 L. A. Martinez-Martinez,  P. E. Maslen,  N. Nair,  D. P. O'Neill,  
 D. Neuhauser,  E. Neuscamman,  C. M. Oana,  R. Olivares-Amaya,  R. Olson,  
 T. M. Perrine,  B. Peters,  P. A. Pieniazek,  A. Prociuk,  Y. M. Rhee,  
 J. Ritchie,  M. A. Rohrdanz,  E. Rosta,  N. J. Russ,  H. F. Schaefer III,  
 M. W. Schmidt,  N. E. Schultz,  S. Sharma,  N. Shenvi,  C. D. Sherrill,  
 A. C. Simmonett,  A. Sodt,  T. Stein,  D. Stuck,  K. S. Thanthiriwatte,  
 V. Vanovschi,  L. Vogt,  Tao Wang,  A. Warshel,  M. A. Watson,  
 C. F. Williams,  Q. Wu,  X. Xu,  Jun Yang,  W. Zhang,  Yan Zhao

 Please cite Q-Chem as follows:
 Y. Shao et al., Mol. Phys. 113, 184-215 (2015)
 DOI: 10.1080/00268976.2014.952696

 Q-Chem 5.4.0 for Intel X86 EM64T Linux

 Parts of Q-Chem use Armadillo 9.800.1 (Horizon Scraper).
 http://arma.sourceforge.net/

 Q-Chem begins on Sun Sep 24 16:51:43 2023  

 Host: 
0

     Scratch files written to ./qchem3755831//
 May1621 |scratch|qcdevops|jenkins|workspace|build_RNUM    
 Parallel job on  1  processors
 Processing $rem in /cm/shared/apps/spack/cpu/opt/spack/linux-centos8-zen2/gcc-10.2.0/qchem-5.4-akfmr7b3t57bfs6qan3padb2wnb2i7cl/config/preferences:
 Processing $rem in /home/rramji/.qchemrc:
 Symmetry turned off for PCM/SM12/SMD calculation
 Core orbitals will be frozen

 Checking the input file for inconsistencies... 	...done.

 Q-Chem warning in module forms1/BasisType.C, line 2236:

 You are not using the predefined 5D/6D in this basis set.


--------------------------------------------------------------
User input:
--------------------------------------------------------------
$molecule
0 1
C	-0.272104	-8.519741	-0.000687
C	0.779533	-7.635967	-0.194476
S	-1.799596	-7.651740	0.287581
C	0.399427	-6.261894	-0.125787
H	1.812314	-7.954738	-0.383826
C	-1.006762	-6.079985	0.121989
C	-1.564994	-4.798382	0.247488
C	1.284087	-5.153542	-0.258303
C	0.726260	-3.869626	-0.128493
C	-0.681918	-3.688927	0.116725
O	2.580622	-5.481075	-0.517104
O	-2.867144	-4.479871	0.508622
C	-3.900814	-5.356026	0.075811
H	-4.847002	-4.790496	0.173640
H	-3.971794	-6.268513	0.707354
H	-3.763397	-5.658187	-0.984963
C	3.621225	-4.546999	-0.257016
H	4.569828	-5.107564	-0.357864
H	3.551910	-4.131473	0.771211
H	3.626592	-3.712085	-0.990913
C	-1.058088	-2.314326	0.187034
S	1.523035	-2.295487	-0.281899
C	-0.000000	-1.435180	-0.000000
H	-2.090565	-1.993211	0.373653
H	-0.266226	-9.615985	0.000773
C	0.000000	0.000000	0.000000
S	0.158383	0.885376	1.510732
C	0.430876	2.436951	0.727629
C	0.157682	0.894430	-1.064665
C	0.397351	2.262384	-0.678287
C	0.147783	0.828765	-2.486150
C	0.367291	2.074406	-3.106916
S	0.580633	3.303533	-1.965735
C	0.416083	2.324204	-4.559972
O	0.256921	1.404367	-5.350277
O	0.642094	3.587338	-5.004375
F	-0.041828	-0.269113	-3.246290
C	0.714377	3.938827	-6.334976
H	0.906844	5.026898	-6.370268
H	-0.230661	3.710099	-6.875609
H	1.531918	3.398681	-6.861878
H	0.590699	3.342984	1.321510
$end

$rem
JOBTYPE		SP
EXCHANGE	HF
CORRELATION	pRIMP2
BASIS		cc-pvtz
METHOD		rimp2
AUX_BASIS	rimp2-cc-pvtz
SOLVENT_METHOD	PCM
PURECART	11111
SYMMETRY	false
MEM_TOTAL	110000
SCF_CONVERGENCE = 6
THRESH=10
GUI = 2
$end



$solvent
dielectric 4.90
$end
--------------------------------------------------------------
 ----------------------------------------------------------------
             Standard Nuclear Orientation (Angstroms)
    I     Atom           X                Y                Z
 ----------------------------------------------------------------
    1      C      -0.2721040000    -8.5197410000    -0.0006870000
    2      C       0.7795330000    -7.6359670000    -0.1944760000
    3      S      -1.7995960000    -7.6517400000     0.2875810000
    4      C       0.3994270000    -6.2618940000    -0.1257870000
    5      H       1.8123140000    -7.9547380000    -0.3838260000
    6      C      -1.0067620000    -6.0799850000     0.1219890000
    7      C      -1.5649940000    -4.7983820000     0.2474880000
    8      C       1.2840870000    -5.1535420000    -0.2583030000
    9      C       0.7262600000    -3.8696260000    -0.1284930000
   10      C      -0.6819180000    -3.6889270000     0.1167250000
   11      O       2.5806220000    -5.4810750000    -0.5171040000
   12      O      -2.8671440000    -4.4798710000     0.5086220000
   13      C      -3.9008140000    -5.3560260000     0.0758110000
   14      H      -4.8470020000    -4.7904960000     0.1736400000
   15      H      -3.9717940000    -6.2685130000     0.7073540000
   16      H      -3.7633970000    -5.6581870000    -0.9849630000
   17      C       3.6212250000    -4.5469990000    -0.2570160000
   18      H       4.5698280000    -5.1075640000    -0.3578640000
   19      H       3.5519100000    -4.1314730000     0.7712110000
   20      H       3.6265920000    -3.7120850000    -0.9909130000
   21      C      -1.0580880000    -2.3143260000     0.1870340000
   22      S       1.5230350000    -2.2954870000    -0.2818990000
   23      C       0.0000000000    -1.4351800000     0.0000000000
   24      H      -2.0905650000    -1.9932110000     0.3736530000
   25      H      -0.2662260000    -9.6159850000     0.0007730000
   26      C       0.0000000000     0.0000000000     0.0000000000
   27      S       0.1583830000     0.8853760000     1.5107320000
   28      C       0.4308760000     2.4369510000     0.7276290000
   29      C       0.1576820000     0.8944300000    -1.0646650000
   30      C       0.3973510000     2.2623840000    -0.6782870000
   31      C       0.1477830000     0.8287650000    -2.4861500000
   32      C       0.3672910000     2.0744060000    -3.1069160000
   33      S       0.5806330000     3.3035330000    -1.9657350000
   34      C       0.4160830000     2.3242040000    -4.5599720000
   35      O       0.2569210000     1.4043670000    -5.3502770000
   36      O       0.6420940000     3.5873380000    -5.0043750000
   37      F      -0.0418280000    -0.2691130000    -3.2462900000
   38      C       0.7143770000     3.9388270000    -6.3349760000
   39      H       0.9068440000     5.0268980000    -6.3702680000
   40      H      -0.2306610000     3.7100990000    -6.8756090000
   41      H       1.5319180000     3.3986810000    -6.8618780000
   42      H       0.5906990000     3.3429840000     1.3215100000
 ----------------------------------------------------------------
 Nuclear Repulsion Energy =        3300.20156783 hartrees
 There are      119 alpha and      119 beta electrons
 Requested basis set is cc-pVTZ
 There are 376 shells and 1068 basis functions

 Total QAlloc Memory Limit 110000 MB
 Mega-Array Size       188 MB
 MEM_STATIC part       192 MB
 Discretize the solute cavity surface with Lebedev spheres
	Using 110 Lebedev grid points for each H atom
	Using 194 Lebedev grid points for other atoms
	Atomic van der Waals radii will be scaled by 1.20
 Remove points where switching function is < 1.0e-08
 Keep 2930 surface tesserae and discard 4126 interior tesserae
 Molecular Surface Area = 444.675 Angst**2
 Requested basis set is rimp2-cc-pVTZ
 There are 833 shells and 2903 basis functions
 A cutoff of  1.0D-10 yielded  31049 shell pairs
 There are    238455 function pairs (    309722 Cartesian)
 Smallest overlap matrix eigenvalue = 2.22E-05

 Scale SEOQF with 1.000000e-01/1.000000e-02/1.000000e-02

 Standard Electronic Orientation quadrupole field applied
 Nucleus-field energy     =     0.0000000378 hartrees
 Guess from superposition of atomic densities
 Warning:  Energy on first SCF cycle will be non-variational
 SAD guess density has 238.000000 electrons

 -----------------------------------------------------------------------
  General SCF calculation program by
  Eric Jon Sundstrom, Paul Horn, Yuezhi Mao, Dmitri Zuev, Alec White,
  David Stuck, Shaama M.S., Shane Yost, Joonho Lee, David Small,
  Daniel Levine, Susi Lehtola, Hugh Burton, Evgeny Epifanovsky,
  Bang C. Huynh
 -----------------------------------------------------------------------
 Hartree-Fock
 using 64 threads for integral computing
 -------------------------------------------------------
 OpenMP Integral computing Module                
 Release: version 1.0, May 2013, Q-Chem Inc. Pittsburgh 
 -------------------------------------------------------
 A restricted SCF calculation will be
 performed using DIIS
 SCF converges when DIIS error is below 1.0e-06
 ---------------------------------------
  Cycle       Energy         DIIS error
 ---------------------------------------
    1   -2765.5217620182      1.77e-02  
    2   -2753.8578502763      1.57e-03  
    3   -2754.1967260665      8.82e-04  
    4   -2754.2809129634      2.54e-04  
    5   -2754.2925242368      6.82e-05  
    6   -2754.2935923303      2.37e-05  
    7   -2754.2938280363      1.16e-05  
    8   -2754.2939060293      4.53e-06  
    9   -2754.2939222462      2.13e-06  
   10   -2754.2939247389      8.79e-07  Convergence criterion met
 ---------------------------------------
 SCF time:   CPU 6406.68s  wall 233.00s 

************** Final PCM Free Energy Summary **************
 G_electrostatic  =      -0.02005923 hartree =     -12.58735401 kcal/mol
 G_cavitation     =       0.00000000 hartree =       0.00000000 kcal/mol
 G_dispersion     =       0.00000000 hartree =       0.00000000 kcal/mol
 G_repulsion      =       0.00000000 hartree =       0.00000000 kcal/mol
 --------------------------------------------------
 Non-electrostatic Free Energy =       0.00000000 hartree =       0.00000000 kcal/mol
 Total                         =      -0.02005923 hartree =     -12.58735401 kcal/mol
 --------------------------------------------------
 SCF Energy (H0 + V/2)                       =   -2754.29392474 
 Solute Internal Energy (H0)                 =   -2754.27386551 
 Total Free Energy (H0 + V/2 + non-elec)     =   -2754.29392474 hartree
                                             = -1728345.52369141 kcal/mol
***********************************************************

 SCF   energy in the final basis set =    -2754.2939247389
 Total energy in the final basis set =    -2754.2939247389


 --------------------------------------------------------------
  Generalized many-body perturbation theory program
  by Joonho Lee, Fazle Rob, Xintian Feng, Evgeny Epifanovsky

 No regularization used 
 (reg. param. = 0.0000e+00)
  (P|Q)^-1/2 Time:  CPU 127.92 s  wall 2.15 s

 In RI-MP2 calculation: 
 # of frozen core orbitals: 45

 Components of the RIMP2 correlation energy:
        aaaa    correlation energy =        -0.6704062877 a.u.
        abab    correlation energy =        -3.7118153634 a.u.
        bbbb    correlation energy =        -0.6704062877 a.u.
        non-Brillouin singles      =        -0.0000000000 a.u.
        total same-spin energy     =        -1.3408125754 a.u.
        total opposite-spin energy =        -3.7118153634 a.u.

 Total  RIMP2   correlation energy =        -5.0526279388 a.u.
        RIMP2         total energy =     -2759.3465526777 a.u.

 RI-MP2 Energy Time:  CPU 2693.00 s  wall 43.72 s
 
 --------------------------------------------------------------
 
                    Orbital Energies (a.u.)
 --------------------------------------------------------------
 
 Alpha MOs
 -- Occupied --
-92.0162 -91.9945 -91.9899 -91.9867 -26.3337 -20.6119 -20.5924 -20.5920
-20.5500 -11.4102 -11.3770 -11.3193 -11.3190 -11.3087 -11.2973 -11.2960
-11.2937 -11.2929 -11.2883 -11.2870 -11.2868 -11.2862 -11.2842 -11.2826
-11.2804 -11.2609 -11.2598 -11.2594 -11.2501  -9.0143  -8.9985  -8.9902
 -8.9866  -6.6950  -6.6944  -6.6939  -6.6798  -6.6791  -6.6777  -6.6712
 -6.6705  -6.6695  -6.6676  -6.6669  -6.6661  -1.6466  -1.4717  -1.4165
 -1.4147  -1.3670  -1.2330  -1.1961  -1.1682  -1.1416  -1.0840  -1.0523
 -1.0472  -1.0274  -1.0025  -0.9932  -0.9711  -0.9615  -0.9506  -0.9383
 -0.8960  -0.8690  -0.8507  -0.8053  -0.7901  -0.7885  -0.7740  -0.7678
 -0.7585  -0.7329  -0.7178  -0.7149  -0.7013  -0.6885  -0.6833  -0.6783
 -0.6709  -0.6604  -0.6593  -0.6528  -0.6309  -0.6203  -0.6172  -0.6063
 -0.6021  -0.5943  -0.5824  -0.5792  -0.5673  -0.5658  -0.5564  -0.5511
 -0.5350  -0.5261  -0.5245  -0.5161  -0.5141  -0.5080  -0.5011  -0.4947
 -0.4907  -0.4839  -0.4758  -0.4684  -0.4617  -0.4611  -0.4604  -0.4056
 -0.4016  -0.3873  -0.3573  -0.3491  -0.3148  -0.2890  -0.2596
 -- Virtual --
  0.0285   0.0613   0.1154   0.1255   0.1347   0.1421   0.1497   0.1553
  0.1559   0.1599   0.1661   0.1698   0.1814   0.1830   0.1876   0.1924
  0.1974   0.2040   0.2107   0.2197   0.2200   0.2212   0.2239   0.2273
  0.2341   0.2347   0.2415   0.2528   0.2601   0.2667   0.2710   0.2792
  0.2855   0.3084   0.3182   0.3291   0.3326   0.3371   0.3400   0.3461
  0.3521   0.3580   0.3675   0.3707   0.3741   0.3801   0.3830   0.3849
  0.3890   0.3936   0.3980   0.4029   0.4071   0.4103   0.4165   0.4212
  0.4231   0.4308   0.4354   0.4376   0.4473   0.4489   0.4533   0.4541
  0.4557   0.4644   0.4668   0.4717   0.4734   0.4801   0.4815   0.4884
  0.4938   0.4955   0.5026   0.5108   0.5109   0.5169   0.5212   0.5220
  0.5272   0.5343   0.5379   0.5421   0.5460   0.5499   0.5512   0.5533
  0.5558   0.5601   0.5660   0.5687   0.5694   0.5739   0.5773   0.5821
  0.5843   0.5912   0.5921   0.5968   0.5996   0.6015   0.6033   0.6073
  0.6154   0.6169   0.6188   0.6212   0.6241   0.6266   0.6303   0.6369
  0.6387   0.6410   0.6457   0.6488   0.6519   0.6576   0.6640   0.6690
  0.6740   0.6790   0.6815   0.6846   0.6890   0.6894   0.6983   0.7015
  0.7093   0.7111   0.7151   0.7188   0.7281   0.7441   0.7471   0.7511
  0.7592   0.7632   0.7681   0.7693   0.7753   0.7904   0.7974   0.8001
  0.8043   0.8083   0.8170   0.8185   0.8215   0.8247   0.8284   0.8348
  0.8453   0.8573   0.8580   0.8664   0.8685   0.8847   0.8855   0.8917
  0.8975   0.9022   0.9067   0.9088   0.9170   0.9190   0.9220   0.9267
  0.9335   0.9355   0.9442   0.9470   0.9500   0.9540   0.9565   0.9707
  0.9747   0.9759   0.9796   0.9827   0.9935   0.9949   0.9987   1.0017
  1.0052   1.0105   1.0135   1.0157   1.0248   1.0315   1.0344   1.0355
  1.0454   1.0473   1.0524   1.0626   1.0658   1.0706   1.0739   1.0768
  1.0804   1.0868   1.0908   1.0933   1.0969   1.1046   1.1070   1.1100
  1.1148   1.1310   1.1336   1.1353   1.1428   1.1504   1.1534   1.1557
  1.1602   1.1695   1.1732   1.1773   1.1793   1.1833   1.1877   1.1908
  1.1994   1.2049   1.2101   1.2127   1.2162   1.2208   1.2239   1.2296
  1.2346   1.2416   1.2510   1.2551   1.2639   1.2658   1.2704   1.2749
  1.2771   1.2824   1.2911   1.3065   1.3108   1.3133   1.3159   1.3180
  1.3261   1.3324   1.3351   1.3463   1.3493   1.3562   1.3587   1.3663
  1.3716   1.3838   1.3888   1.3948   1.3970   1.4104   1.4144   1.4256
  1.4309   1.4348   1.4460   1.4567   1.4660   1.4763   1.4846   1.4881
  1.4943   1.4957   1.5008   1.5066   1.5078   1.5127   1.5271   1.5291
  1.5320   1.5363   1.5403   1.5473   1.5483   1.5580   1.5618   1.5651
  1.5727   1.5821   1.5867   1.5961   1.6038   1.6172   1.6233   1.6289
  1.6419   1.6541   1.6554   1.6589   1.6626   1.6644   1.6745   1.6777
  1.6850   1.6932   1.7027   1.7092   1.7230   1.7306   1.7367   1.7509
  1.7569   1.7657   1.7741   1.7820   1.7919   1.8046   1.8139   1.8201
  1.8260   1.8324   1.8366   1.8493   1.8539   1.8591   1.8652   1.8740
  1.8775   1.8816   1.8930   1.9101   1.9124   1.9210   1.9299   1.9323
  1.9355   1.9425   1.9462   1.9605   1.9648   1.9702   1.9812   1.9897
  1.9946   2.0178   2.0213   2.0230   2.0357   2.0375   2.0541   2.0559
  2.0654   2.0923   2.0949   2.0996   2.1153   2.1245   2.1350   2.1437
  2.1492   2.1563   2.1599   2.1693   2.1721   2.1779   2.1856   2.1936
  2.1970   2.2027   2.2137   2.2174   2.2200   2.2293   2.2358   2.2434
  2.2502   2.2509   2.2686   2.2737   2.2773   2.2814   2.2840   2.3054
  2.3081   2.3142   2.3192   2.3259   2.3349   2.3376   2.3525   2.3596
  2.3713   2.3826   2.3833   2.3923   2.4007   2.4186   2.4263   2.4271
  2.4350   2.4362   2.4498   2.4601   2.4745   2.4816   2.4832   2.4959
  2.5009   2.5179   2.5258   2.5295   2.5325   2.5497   2.5592   2.5699
  2.5767   2.5831   2.5851   2.5956   2.6065   2.6159   2.6193   2.6237
  2.6270   2.6343   2.6383   2.6472   2.6515   2.6576   2.6618   2.6723
  2.6783   2.6886   2.6920   2.6952   2.6983   2.7039   2.7070   2.7223
  2.7239   2.7329   2.7372   2.7396   2.7418   2.7473   2.7582   2.7633
  2.7760   2.7906   2.7918   2.7932   2.8019   2.8099   2.8151   2.8179
  2.8277   2.8369   2.8462   2.8483   2.8522   2.8591   2.8706   2.8726
  2.8782   2.8837   2.8877   2.8999   2.9103   2.9163   2.9262   2.9366
  2.9485   2.9537   2.9593   2.9725   2.9758   2.9841   2.9969   3.0054
  3.0102   3.0173   3.0186   3.0337   3.0343   3.0394   3.0419   3.0441
  3.0486   3.0578   3.0706   3.0768   3.0867   3.0910   3.1010   3.1027
  3.1086   3.1118   3.1145   3.1196   3.1308   3.1383   3.1475   3.1527
  3.1559   3.1576   3.1602   3.1689   3.1717   3.1763   3.1783   3.1851
  3.1907   3.1953   3.2006   3.2064   3.2146   3.2206   3.2266   3.2303
  3.2329   3.2416   3.2447   3.2482   3.2541   3.2617   3.2657   3.2686
  3.2729   3.2802   3.2812   3.2871   3.2906   3.2952   3.2982   3.2994
  3.3073   3.3182   3.3226   3.3269   3.3354   3.3407   3.3431   3.3464
  3.3515   3.3537   3.3563   3.3610   3.3644   3.3666   3.3708   3.3732
  3.3813   3.3868   3.3906   3.3945   3.3993   3.4052   3.4127   3.4189
  3.4211   3.4317   3.4339   3.4414   3.4457   3.4459   3.4493   3.4552
  3.4601   3.4644   3.4694   3.4753   3.4779   3.4844   3.4855   3.4956
  3.4997   3.5075   3.5156   3.5206   3.5275   3.5312   3.5351   3.5417
  3.5525   3.5558   3.5630   3.5646   3.5704   3.5754   3.5766   3.5847
  3.5870   3.5886   3.5907   3.6025   3.6039   3.6061   3.6093   3.6237
  3.6297   3.6336   3.6382   3.6463   3.6530   3.6559   3.6577   3.6622
  3.6674   3.6715   3.6780   3.6787   3.6853   3.6903   3.6933   3.6984
  3.7085   3.7089   3.7117   3.7200   3.7259   3.7280   3.7335   3.7360
  3.7422   3.7476   3.7507   3.7601   3.7620   3.7741   3.7763   3.7896
  3.7914   3.7954   3.8084   3.8115   3.8173   3.8214   3.8249   3.8332
  3.8389   3.8421   3.8447   3.8521   3.8562   3.8598   3.8653   3.8739
  3.8827   3.8905   3.8986   3.8989   3.9036   3.9101   3.9204   3.9281
  3.9329   3.9384   3.9438   3.9605   3.9651   3.9739   3.9795   3.9837
  3.9920   4.0032   4.0089   4.0101   4.0215   4.0249   4.0310   4.0346
  4.0452   4.0525   4.0614   4.0699   4.0785   4.0816   4.0870   4.0898
  4.0984   4.1013   4.1197   4.1251   4.1370   4.1442   4.1470   4.1601
  4.1634   4.1701   4.1734   4.1836   4.1882   4.1907   4.1934   4.2013
  4.2083   4.2154   4.2209   4.2365   4.2459   4.2586   4.2685   4.2721
  4.2825   4.2959   4.3089   4.3186   4.3200   4.3260   4.3333   4.3451
  4.3485   4.3594   4.3739   4.3755   4.3776   4.3909   4.3919   4.4000
  4.4070   4.4092   4.4122   4.4193   4.4228   4.4373   4.4415   4.4520
  4.4666   4.4687   4.4770   4.4952   4.4972   4.5009   4.5022   4.5099
  4.5288   4.5380   4.5450   4.5529   4.5593   4.5757   4.5807   4.5912
  4.6021   4.6044   4.6194   4.6326   4.6343   4.6399   4.6458   4.6555
  4.6562   4.6703   4.6725   4.6797   4.6864   4.7038   4.7141   4.7247
  4.7353   4.7391   4.7565   4.7680   4.7803   4.7858   4.8065   4.8107
  4.8195   4.8305   4.8390   4.8556   4.8683   4.8982   4.9110   4.9275
  4.9350   4.9461   4.9560   4.9613   4.9652   4.9805   4.9910   5.0023
  5.0099   5.0119   5.0203   5.0438   5.0459   5.0607   5.0680   5.0802
  5.0883   5.1220   5.1485   5.1609   5.1662   5.1783   5.1867   5.2002
  5.2085   5.2103   5.2149   5.2431   5.2550   5.2592   5.2762   5.2846
  5.2987   5.3103   5.3198   5.3345   5.3402   5.3482   5.3553   5.3617
  5.3670   5.3946   5.3974   5.3999   5.4254   5.4415   5.4611   5.4639
  5.4732   5.4833   5.4933   5.5067   5.5125   5.5228   5.5478   5.5638
  5.5739   5.5815   5.5943   5.6058   5.6178   5.6331   5.6379   5.6768
  5.7141   5.7351   5.7896   5.8010   5.8153   5.8336   5.8538   5.8573
  5.8723   5.8834   5.9082   5.9699   5.9725   5.9836   5.9993   6.0440
  6.0666   6.0900   6.1229   6.1338   6.1669   6.1734   6.1850   6.1860
  6.2310   6.2514   6.2674   6.2742   6.2917   6.3088   6.3201   6.3854
  6.4361   6.4474   6.4822   6.5164   6.5479   6.5555   6.5566   6.6510
  6.6728   6.6769   6.7025   6.7360   6.7425   6.7995   6.8396   6.8606
  6.8821   6.8918   6.9917   7.1192   7.1373   7.1786   7.2113   7.2155
  7.2331   7.3190   7.3267   7.3319   7.3737   7.3765   7.4278   7.4627
  7.4787   7.4870   7.4883   7.5205   7.5497   7.6079   7.7161   7.7709
  7.7965   7.8315   7.9051   7.9198   7.9473   8.0029   8.1046   8.1725
  8.5796   8.9285   9.0089   9.3636   9.5004   9.6920  10.2321  10.7238
 11.2375  11.5025  11.9115  11.9532  12.1249  12.1906  12.3110  12.5688
 12.6593  12.7737  12.9350  13.2101  13.2768  13.5655  13.8453  13.9005
 13.9293  14.0150  14.2013  14.4526  15.1905
 --------------------------------------------------------------
 
          Ground-State Mulliken Net Atomic Charges

     Atom                 Charge (a.u.)
  ----------------------------------------
      1 C                    -0.186775
      2 C                    -0.254556
      3 S                    -0.021655
      4 C                    -0.012031
      5 H                     0.196599
      6 C                    -0.027897
      7 C                     0.247898
      8 C                     0.239048
      9 C                    -0.042291
     10 C                    -0.030229
     11 O                    -0.333083
     12 O                    -0.339798
     13 C                    -0.085648
     14 H                     0.122689
     15 H                     0.090945
     16 H                     0.094754
     17 C                    -0.086510
     18 H                     0.124867
     19 H                     0.094294
     20 H                     0.090421
     21 C                    -0.218515
     22 S                     0.000933
     23 C                    -0.057786
     24 H                     0.196568
     25 H                     0.206704
     26 C                    -0.001350
     27 S                     0.120519
     28 C                    -0.239926
     29 C                    -0.108059
     30 C                    -0.001723
     31 C                     0.393495
     32 C                    -0.158369
     33 S                     0.038472
     34 C                     0.460793
     35 O                    -0.449846
     36 O                    -0.297801
     37 F                    -0.210581
     38 C                    -0.054951
     39 H                     0.116508
     40 H                     0.084588
     41 H                     0.084505
     42 H                     0.214780
  ----------------------------------------
  Sum of atomic charges =     0.000000

 -----------------------------------------------------------------
                    Cartesian Multipole Moments
 -----------------------------------------------------------------
    Charge (ESU x 10^10)
                 0.0000
    Dipole Moment (Debye)
         X       0.6367      Y       1.4452      Z       3.0179
       Tot       3.4062
    Quadrupole Moments (Debye-Ang)
        XX    -175.9630     XY       3.5292     YY    -158.4524
        XZ      -0.5051     YZ      -9.1435     ZZ    -206.5105
    Octopole Moments (Debye-Ang^2)
       XXX     -52.2842    XXY     271.9076    XYY     -15.0323
       YYY     886.3395    XXZ     173.1359    XYZ     -16.4633
       YYZ     122.7413    XZZ       6.6108    YZZ     510.9129
       ZZZ     557.8907
    Hexadecapole Moments (Debye-Ang^3)
      XXXX   -2339.9256   XXXY    -723.7483   XXYY   -3657.7569
      XYYY    -628.8752   YYYY  -18501.1995   XXXZ     382.5655
      XXYZ     489.5565   XYYZ     113.7711   YYYZ    1259.0776
      XXZZ   -1408.1051   XYZZ    -170.4246   YYZZ   -4290.6284
      XZZZ     267.2822   YZZZ     722.6581   ZZZZ   -5578.2247
 -----------------------------------------------------------------
 Total job time:  282.33s(wall), 9250.08s(cpu) 
 Sun Sep 24 16:56:25 2023

        *************************************************************
        *                                                           *
        *  Thank you very much for using Q-Chem.  Have a nice day.  *
        *                                                           *
        *************************************************************


0 sent ACK to 0 
now end server 0 ... 
cleanup process ... done
remove work dirs ./qchem3755831.0 -- ./qchem3755831.0
rm -rf ./qchem3755831.0
rm -rf ./qchem3755831
