You are running Q-Chem version: 5.4.0

#
# job setting
#
local host:  exp-1-48
current dir: /expanse/lustre/projects/csd626/rramji/aromodel/PTB7_fin/Rotation_Test
input file:  fin_bdt_Phi_25_Theta_70_fin_ftt.qcin
output file: 
nprocs     : 1
nthreads   : 64
#
# qchem installation setting
#
QC:          /cm/shared/apps/spack/cpu/opt/spack/linux-centos8-zen2/gcc-10.2.0/qchem-5.4-akfmr7b3t57bfs6qan3padb2wnb2i7cl
QCAUX:       /cm/shared/apps/spack/cpu/opt/spack/linux-centos8-zen2/gcc-10.2.0/qchem-5.4-akfmr7b3t57bfs6qan3padb2wnb2i7cl/qcaux
QCPROG:      /cm/shared/apps/spack/cpu/opt/spack/linux-centos8-zen2/gcc-10.2.0/qchem-5.4-akfmr7b3t57bfs6qan3padb2wnb2i7cl/exe/qcprog.exe
QCPROG_S:    /cm/shared/apps/spack/cpu/opt/spack/linux-centos8-zen2/gcc-10.2.0/qchem-5.4-akfmr7b3t57bfs6qan3padb2wnb2i7cl/exe/qcprog.exe_s
PARALLEL:    -DPARALLEL
QCMPI:       mpich
#
# qchem directory setting
#
qcrun:       qchem156245
QCSCRATCH:   .
QCLOCALSCR:  
QCTMPDIR:    .
QCFILEPREF:  ./qchem156245
QCSAVEDIR:   
workdirs:    ./qchem156245
workdir0:    ./qchem156245
partmpdirs =  
#
# parallel setting
#
QCRSH:           ssh
QCMPI:           mpich
QCMPIRUN:        /cm/shared/apps/spack/cpu/opt/spack/linux-centos8-zen2/gcc-10.2.0/qchem-5.4-akfmr7b3t57bfs6qan3padb2wnb2i7cl/bin/mpi/mpirun_qchem
QCMACHINEFILE:   ./qchem156245/hostfile
exp-1-48

#
# env setting
#
exported envs:   QC QCAUX QCSCRATCH QCRUNNAME QCFILEPREF QCPROG QCPROG_S GUIFILE

Running Job 1 of 1 fin_bdt_Phi_25_Theta_70_fin_ftt.qcin
qchem fin_bdt_Phi_25_Theta_70_fin_ftt.qcin_156245.0 ./qchem156245/ 1
/cm/shared/apps/spack/cpu/opt/spack/linux-centos8-zen2/gcc-10.2.0/qchem-5.4-akfmr7b3t57bfs6qan3padb2wnb2i7cl/bin/mpi/mpirun_qchem -machinefile ./qchem156245/hostfile -np 1 /cm/shared/apps/spack/cpu/opt/spack/linux-centos8-zen2/gcc-10.2.0/qchem-5.4-akfmr7b3t57bfs6qan3padb2wnb2i7cl/exe/qcprog.exe fin_bdt_Phi_25_Theta_70_fin_ftt.qcin_156245.0 ./qchem156245/

Process 0 of 1 is on exp-1-48 - thread support 0
initial socket setup ...start
initial socket setup ...done 
now start server 0 ... 
                  Welcome to Q-Chem
     A Quantum Leap Into The Future Of Chemistry


 Q-Chem 5.4, Q-Chem, Inc., Pleasanton, CA (2021)

 License issued to: University of California, San Diego (site)

 E. Epifanovsky,  A. T. B. Gilbert,  Xintian Feng,  Joonho Lee,  Yuezhi Mao,  
 N. Mardirossian,  P. Pokhilko,  A. White,  M. Wormit,  M. P. Coons,  
 A. L. Dempwolff,  Zhengting Gan,  D. Hait,  P. R. Horn,  L. D. Jacobson,  
 I. Kaliman,  J. Kussmann,  A. W. Lange,  Ka Un Lao,  D. S. Levine,  Jie Liu,  
 S. C. McKenzie,  A. F. Morrison,  K. Nanda,  F. Plasser,  D. R. Rehn,  
 M. L. Vidal,  Zhi-Qiang You,  Ying Zhu,  B. Alam,  B. Albrecht,  
 A. Aldossary,  E. Alguire,  J. H. Andersen,  D. Barton,  K. Begam,  A. Behn,  
 Y. A. Bernard,  E. J. Berquist,  H. Burton,  A. Carreras,  K. Carter-Fenk,  
 R. Chakraborty,  A. D. Chien,  K. D. Closser,  V. Cofer-Shabica,  
 S. Dasgupta,  Jia Deng,  M. de Wergifosse,  M. Diedenhofen,  Hainam Do,  
 S. Ehlert,  Po-Tung Fang,  S. Fatehi,  Qingguo Feng,  J. Gayvert,  
 Qinghui Ge,  G. Gidofalvi,  M. Goldey,  J. Gomes,  C. Gonzalez-Espinoza,  
 S. Gulania,  A. Gunina,  M. W. D. Hanson-Heine,  P. H. P. Harbach,  
 A. W. Hauser,  M. F. Herbst,  M. Hernandez Vera,  M. Hodecker,  
 Z. C. Holden,  S. Houck,  Xunkun Huang,  Kerwin Hui,  B. C. Huynh,  
 M. Ivanov,  Hyunjun Ji,  Hanjie Jiang,  B. Kaduk,  S. Kaehler,  
 K. Khistyaev,  Jaehoon Kim,  P. Klunzinger,  Z. Koczor-Benda,  
 Joong Hoon Koh,  D. Kosenkov,  L. Koulias,  T. Kowalczyk,  C. M. Krauter,  
 K. Kue,  A. Kunitsa,  T. Kus,  A. Landau,  K. V. Lawler,  D. Lefrancois,  
 S. Lehtola,  Rain Li,  Yi-Pei Li,  Jiashu Liang,  M. Liebenthal,  
 Hung-Hsuan Lin,  You-Sheng Lin,  Fenglai Liu,  Kuan-Yu Liu,  
 M. Loipersberger,  A. Luenser,  A. Manjanath,  P. Manohar,  E. Mansoor,  
 S. F. Manzer,  Shan-Ping Mao,  A. V. Marenich,  T. Markovich,  S. Mason,  
 S. A. Maurer,  P. F. McLaughlin,  M. F. S. J. Menger,  J.-M. Mewes,  
 S. A. Mewes,  P. Morgante,  J. W. Mullinax,  T. S. Nguyen-Beck,  
 K. J. Oosterbaan,  G. Paran,  Alexander C. Paul,  Suranjan K. Paul,  
 F. Pavosevic,  Zheng Pei,  S. Prager,  E. I. Proynov,  E. Ramos,  B. Rana,  
 A. E. Rask,  A. Rettig,  R. M. Richard,  F. Rob,  E. Rossomme,  T. Scheele,  
 M. Scheurer,  M. Schneider,  N. Sergueev,  S. M. Sharada,  W. Skomorowski,  
 D. W. Small,  C. J. Stein,  Yu-Chuan Su,  E. J. Sundstrom,  Zhen Tao,  
 J. Thirman,  T. Tsuchimochi,  N. M. Tubman,  S. P. Veccham,  O. Vydrov,  
 J. Wenzel,  J. Witte,  A. Yamada,  Kun Yao,  S. Yeganeh,  S. R. Yost,  
 A. Zech,  Igor Ying Zhang,  Xing Zhang,  Yu Zhang,  D. Zuev,  
 A. Aspuru-Guzik,  A. T. Bell,  N. A. Besley,  K. B. Bravaya,  B. R. Brooks,  
 D. Casanova,  Jeng-Da Chai,  S. Coriani,  C. J. Cramer,  
 A. E. DePrince, III,  R. A. DiStasio Jr.,  A. Dreuw,  B. D. Dunietz,  
 T. R. Furlani,  W. A. Goddard III,  S. Grimme,  S. Hammes-Schiffer,  
 T. Head-Gordon,  W. J. Hehre,  Chao-Ping Hsu,  T.-C. Jagau,  Yousung Jung,  
 A. Klamt,  Jing Kong,  D. S. Lambrecht,  WanZhen Liang,  N. J. Mayhall,  
 C. W. McCurdy,  J. B. Neaton,  C. Ochsenfeld,  J. A. Parkhill,  R. Peverati,  
 V. A. Rassolov,  Yihan Shao,  L. V. Slipchenko,  T. Stauch,  R. P. Steele,  
 J. E. Subotnik,  A. J. W. Thom,  A. Tkatchenko,  D. G. Truhlar,  
 T. Van Voorhis,  T. A. Wesolowski,  K. B. Whaley,  H. L. Woodcock III,  
 P. M. Zimmerman,  S. Faraji,  P. M. W. Gill,  M. Head-Gordon,  
 J. M. Herbert,  A. I. Krylov

 Contributors to earlier versions of Q-Chem not listed above: 
 R. D. Adamson,  B. Austin,  R. Baer,  J. Baker,  G. J. O. Beran,  
 K. Brandhorst,  S. T. Brown,  E. F. C. Byrd,  A. K. Chakraborty,  
 G. K. L. Chan,  Chun-Min Chang,  Yunqing Chen,  C.-L. Cheng,  
 Siu Hung Chien,  D. M. Chipman,  D. L. Crittenden,  H. Dachsel,  
 R. J. Doerksen,  A. D. Dutoi,  R. G. Edgar,  J. Fosso-Tande,  
 L. Fusti-Molnar,  D. Ghosh,  A. Ghysels,  A. Golubeva-Zadorozhnaya,  
 J. Gonthier,  M. S. Gordon,  S. R. Gwaltney,  G. Hawkins,  J. E. Herr,  
 A. Heyden,  S. Hirata,  E. G. Hohenstein,  G. Kedziora,  F. J. Keil,  
 C. Kelley,  Jihan Kim,  R. A. King,  R. Z. Khaliullin,  P. P. Korambath,  
 W. Kurlancheek,  A. Laurent,  A. M. Lee,  M. S. Lee,  S. V. Levchenko,  
 Ching Yeh Lin,  D. Liotard,  E. Livshits,  R. C. Lochan,  I. Lotan,  
 L. A. Martinez-Martinez,  P. E. Maslen,  N. Nair,  D. P. O'Neill,  
 D. Neuhauser,  E. Neuscamman,  C. M. Oana,  R. Olivares-Amaya,  R. Olson,  
 T. M. Perrine,  B. Peters,  P. A. Pieniazek,  A. Prociuk,  Y. M. Rhee,  
 J. Ritchie,  M. A. Rohrdanz,  E. Rosta,  N. J. Russ,  H. F. Schaefer III,  
 M. W. Schmidt,  N. E. Schultz,  S. Sharma,  N. Shenvi,  C. D. Sherrill,  
 A. C. Simmonett,  A. Sodt,  T. Stein,  D. Stuck,  K. S. Thanthiriwatte,  
 V. Vanovschi,  L. Vogt,  Tao Wang,  A. Warshel,  M. A. Watson,  
 C. F. Williams,  Q. Wu,  X. Xu,  Jun Yang,  W. Zhang,  Yan Zhao

 Please cite Q-Chem as follows:
 Y. Shao et al., Mol. Phys. 113, 184-215 (2015)
 DOI: 10.1080/00268976.2014.952696

 Q-Chem 5.4.0 for Intel X86 EM64T Linux

 Parts of Q-Chem use Armadillo 9.800.1 (Horizon Scraper).
 http://arma.sourceforge.net/

 Q-Chem begins on Tue Sep 26 18:02:58 2023  

 Host: 
0

     Scratch files written to ./qchem156245//
 May1621 |scratch|qcdevops|jenkins|workspace|build_RNUM    
 Parallel job on  1  processors
 Processing $rem in /cm/shared/apps/spack/cpu/opt/spack/linux-centos8-zen2/gcc-10.2.0/qchem-5.4-akfmr7b3t57bfs6qan3padb2wnb2i7cl/config/preferences:
 Processing $rem in /home/rramji/.qchemrc:
 Symmetry turned off for PCM/SM12/SMD calculation
 Core orbitals will be frozen

 Checking the input file for inconsistencies... 	...done.

 Q-Chem warning in module forms1/BasisType.C, line 2236:

 You are not using the predefined 5D/6D in this basis set.


--------------------------------------------------------------
User input:
--------------------------------------------------------------
$molecule
0 1
C	-0.268090	-8.519741	0.046574
C	0.733920	-7.635967	-0.326886
S	-1.722318	-7.651740	0.595708
C	0.371516	-6.261894	-0.193236
H	1.718130	-7.954738	-0.692700
C	-0.970283	-6.079985	0.294958
C	-1.498243	-4.798382	0.515487
C	1.219725	-5.153542	-0.477358
C	0.692914	-3.869626	-0.252655
C	-0.651289	-3.688927	0.233366
O	2.451623	-5.481075	-0.957369
O	-2.735264	-4.479871	0.998769
C	-3.828387	-5.356026	0.752029
H	-4.743213	-4.790496	1.012675
H	-3.788623	-6.268513	1.386303
H	-3.877260	-5.658187	-0.316492
C	3.521580	-4.546999	-0.881930
H	4.438260	-5.107564	-1.145969
H	3.631868	-4.131473	0.142712
H	3.399425	-3.712085	-1.605610
C	-1.009535	-2.314326	0.367928
S	1.450945	-2.295487	-0.542088
C	-0.000000	-1.435180	-0.000000
H	-1.993920	-1.993211	0.730999
H	-0.262047	-9.615985	0.046991
C	0.000000	0.000000	0.000000
S	0.382139	0.814215	1.510732
C	1.046923	2.242395	0.727629
C	0.383804	0.823142	-1.064665
C	0.969360	2.082453	-0.678287
C	0.357247	0.762277	-2.486150
C	0.891671	1.908660	-3.106916
S	1.415865	3.040689	-1.965735
C	1.003453	2.137318	-4.559972
O	0.611644	1.290019	-5.350277
O	1.548687	3.298916	-5.004375
F	-0.110054	-0.249117	-3.246290
C	1.709479	3.619721	-6.334976
H	2.177001	4.620902	-6.370268
H	0.737443	3.643380	-6.875609
H	2.359363	2.886384	-6.861878
H	1.435800	3.076190	1.321510
$end

$rem
JOBTYPE		SP
EXCHANGE	HF
CORRELATION	pRIMP2
BASIS		cc-pvtz
METHOD		rimp2
AUX_BASIS	rimp2-cc-pvtz
SOLVENT_METHOD	PCM
PURECART	11111
SYMMETRY	false
MEM_TOTAL	110000
SCF_CONVERGENCE = 6
THRESH=10
GUI = 2
$end



$solvent
dielectric 4.90
$end
--------------------------------------------------------------
 ----------------------------------------------------------------
             Standard Nuclear Orientation (Angstroms)
    I     Atom           X                Y                Z
 ----------------------------------------------------------------
    1      C      -0.2680900000    -8.5197410000     0.0465740000
    2      C       0.7339200000    -7.6359670000    -0.3268860000
    3      S      -1.7223180000    -7.6517400000     0.5957080000
    4      C       0.3715160000    -6.2618940000    -0.1932360000
    5      H       1.7181300000    -7.9547380000    -0.6927000000
    6      C      -0.9702830000    -6.0799850000     0.2949580000
    7      C      -1.4982430000    -4.7983820000     0.5154870000
    8      C       1.2197250000    -5.1535420000    -0.4773580000
    9      C       0.6929140000    -3.8696260000    -0.2526550000
   10      C      -0.6512890000    -3.6889270000     0.2333660000
   11      O       2.4516230000    -5.4810750000    -0.9573690000
   12      O      -2.7352640000    -4.4798710000     0.9987690000
   13      C      -3.8283870000    -5.3560260000     0.7520290000
   14      H      -4.7432130000    -4.7904960000     1.0126750000
   15      H      -3.7886230000    -6.2685130000     1.3863030000
   16      H      -3.8772600000    -5.6581870000    -0.3164920000
   17      C       3.5215800000    -4.5469990000    -0.8819300000
   18      H       4.4382600000    -5.1075640000    -1.1459690000
   19      H       3.6318680000    -4.1314730000     0.1427120000
   20      H       3.3994250000    -3.7120850000    -1.6056100000
   21      C      -1.0095350000    -2.3143260000     0.3679280000
   22      S       1.4509450000    -2.2954870000    -0.5420880000
   23      C       0.0000000000    -1.4351800000     0.0000000000
   24      H      -1.9939200000    -1.9932110000     0.7309990000
   25      H      -0.2620470000    -9.6159850000     0.0469910000
   26      C       0.0000000000     0.0000000000     0.0000000000
   27      S       0.3821390000     0.8142150000     1.5107320000
   28      C       1.0469230000     2.2423950000     0.7276290000
   29      C       0.3838040000     0.8231420000    -1.0646650000
   30      C       0.9693600000     2.0824530000    -0.6782870000
   31      C       0.3572470000     0.7622770000    -2.4861500000
   32      C       0.8916710000     1.9086600000    -3.1069160000
   33      S       1.4158650000     3.0406890000    -1.9657350000
   34      C       1.0034530000     2.1373180000    -4.5599720000
   35      O       0.6116440000     1.2900190000    -5.3502770000
   36      O       1.5486870000     3.2989160000    -5.0043750000
   37      F      -0.1100540000    -0.2491170000    -3.2462900000
   38      C       1.7094790000     3.6197210000    -6.3349760000
   39      H       2.1770010000     4.6209020000    -6.3702680000
   40      H       0.7374430000     3.6433800000    -6.8756090000
   41      H       2.3593630000     2.8863840000    -6.8618780000
   42      H       1.4358000000     3.0761900000     1.3215100000
 ----------------------------------------------------------------
 Nuclear Repulsion Energy =        3315.66135951 hartrees
 There are      119 alpha and      119 beta electrons
 Requested basis set is cc-pVTZ
 There are 376 shells and 1068 basis functions

 Total QAlloc Memory Limit 110000 MB
 Mega-Array Size       188 MB
 MEM_STATIC part       192 MB
 Discretize the solute cavity surface with Lebedev spheres
	Using 110 Lebedev grid points for each H atom
	Using 194 Lebedev grid points for other atoms
	Atomic van der Waals radii will be scaled by 1.20
 Remove points where switching function is < 1.0e-08
 Keep 2905 surface tesserae and discard 4151 interior tesserae
 Molecular Surface Area = 441.121 Angst**2
 Requested basis set is rimp2-cc-pVTZ
 There are 833 shells and 2903 basis functions
 A cutoff of  1.0D-10 yielded  31298 shell pairs
 There are    240318 function pairs (    312086 Cartesian)
 Smallest overlap matrix eigenvalue = 2.20E-05

 Scale SEOQF with 1.000000e-01/1.000000e-02/1.000000e-02

 Standard Electronic Orientation quadrupole field applied
 Nucleus-field energy     =     0.0000000387 hartrees
 Guess from superposition of atomic densities
 Warning:  Energy on first SCF cycle will be non-variational
 SAD guess density has 238.000000 electrons

 -----------------------------------------------------------------------
  General SCF calculation program by
  Eric Jon Sundstrom, Paul Horn, Yuezhi Mao, Dmitri Zuev, Alec White,
  David Stuck, Shaama M.S., Shane Yost, Joonho Lee, David Small,
  Daniel Levine, Susi Lehtola, Hugh Burton, Evgeny Epifanovsky,
  Bang C. Huynh
 -----------------------------------------------------------------------
 Hartree-Fock
 using 64 threads for integral computing
 -------------------------------------------------------
 OpenMP Integral computing Module                
 Release: version 1.0, May 2013, Q-Chem Inc. Pittsburgh 
 -------------------------------------------------------
 A restricted SCF calculation will be
 performed using DIIS
 SCF converges when DIIS error is below 1.0e-06
 ---------------------------------------
  Cycle       Energy         DIIS error
 ---------------------------------------
    1   -2765.5372597688      1.77e-02  
    2   -2753.8492904177      1.57e-03  
    3   -2754.1883754813      8.84e-04  
    4   -2754.2728833165      2.54e-04  
    5   -2754.2845090076      6.82e-05  
    6   -2754.2855822976      2.38e-05  
    7   -2754.2858212330      1.16e-05  
    8   -2754.2859012345      4.56e-06  
    9   -2754.2859184343      2.05e-06  
   10   -2754.2859210704      8.63e-07  Convergence criterion met
 ---------------------------------------
 SCF time:   CPU 6610.68s  wall 256.00s 

************** Final PCM Free Energy Summary **************
 G_electrostatic  =      -0.02022816 hartree =     -12.69336430 kcal/mol
 G_cavitation     =       0.00000000 hartree =       0.00000000 kcal/mol
 G_dispersion     =       0.00000000 hartree =       0.00000000 kcal/mol
 G_repulsion      =       0.00000000 hartree =       0.00000000 kcal/mol
 --------------------------------------------------
 Non-electrostatic Free Energy =       0.00000000 hartree =       0.00000000 kcal/mol
 Total                         =      -0.02022816 hartree =     -12.69336430 kcal/mol
 --------------------------------------------------
 SCF Energy (H0 + V/2)                       =   -2754.28592107 
 Solute Internal Energy (H0)                 =   -2754.26569291 
 Total Free Energy (H0 + V/2 + non-elec)     =   -2754.28592107 hartree
                                             = -1728340.50131361 kcal/mol
***********************************************************

 SCF   energy in the final basis set =    -2754.2859210704
 Total energy in the final basis set =    -2754.2859210704


 --------------------------------------------------------------
  Generalized many-body perturbation theory program
  by Joonho Lee, Fazle Rob, Xintian Feng, Evgeny Epifanovsky

 No regularization used 
 (reg. param. = 0.0000e+00)
  (P|Q)^-1/2 Time:  CPU 255.59 s  wall 4.78 s

 In RI-MP2 calculation: 
 # of frozen core orbitals: 45

 Components of the RIMP2 correlation energy:
        aaaa    correlation energy =        -0.6711661989 a.u.
        abab    correlation energy =        -3.7138520277 a.u.
        bbbb    correlation energy =        -0.6711661989 a.u.
        non-Brillouin singles      =        -0.0000000000 a.u.
        total same-spin energy     =        -1.3423323978 a.u.
        total opposite-spin energy =        -3.7138520277 a.u.

 Total  RIMP2   correlation energy =        -5.0561844254 a.u.
        RIMP2         total energy =     -2759.3421054958 a.u.

 RI-MP2 Energy Time:  CPU 2811.66 s  wall 50.42 s
 
 --------------------------------------------------------------
 
                    Orbital Energies (a.u.)
 --------------------------------------------------------------
 
 Alpha MOs
 -- Occupied --
-92.0162 -91.9962 -91.9893 -91.9863 -26.3339 -20.6125 -20.5921 -20.5914
-20.5510 -11.4111 -11.3771 -11.3190 -11.3179 -11.3038 -11.2994 -11.2985
-11.2966 -11.2924 -11.2887 -11.2869 -11.2860 -11.2859 -11.2839 -11.2838
-11.2798 -11.2601 -11.2590 -11.2564 -11.2498  -9.0144  -9.0001  -8.9896
 -8.9862  -6.6951  -6.6945  -6.6940  -6.6814  -6.6807  -6.6794  -6.6706
 -6.6699  -6.6689  -6.6672  -6.6665  -6.6657  -1.6468  -1.4723  -1.4163
 -1.4142  -1.3678  -1.2346  -1.1955  -1.1683  -1.1423  -1.0838  -1.0518
 -1.0479  -1.0283  -1.0020  -0.9928  -0.9718  -0.9610  -0.9503  -0.9384
 -0.8956  -0.8700  -0.8495  -0.8058  -0.7906  -0.7880  -0.7744  -0.7671
 -0.7576  -0.7324  -0.7179  -0.7151  -0.7007  -0.6891  -0.6827  -0.6788
 -0.6718  -0.6607  -0.6590  -0.6525  -0.6300  -0.6199  -0.6170  -0.6070
 -0.6031  -0.5958  -0.5817  -0.5785  -0.5665  -0.5655  -0.5562  -0.5499
 -0.5347  -0.5269  -0.5242  -0.5158  -0.5138  -0.5084  -0.5013  -0.4953
 -0.4899  -0.4847  -0.4742  -0.4683  -0.4621  -0.4616  -0.4604  -0.4065
 -0.4014  -0.3864  -0.3567  -0.3501  -0.3157  -0.2889  -0.2576
 -- Virtual --
  0.0212   0.0640   0.1138   0.1252   0.1339   0.1435   0.1497   0.1549
  0.1558   0.1593   0.1644   0.1687   0.1812   0.1831   0.1890   0.1915
  0.2010   0.2042   0.2107   0.2186   0.2201   0.2214   0.2239   0.2276
  0.2326   0.2368   0.2415   0.2529   0.2593   0.2672   0.2715   0.2800
  0.2832   0.3077   0.3136   0.3291   0.3312   0.3390   0.3423   0.3463
  0.3525   0.3564   0.3654   0.3714   0.3742   0.3792   0.3833   0.3847
  0.3886   0.3942   0.3994   0.4018   0.4092   0.4119   0.4165   0.4192
  0.4219   0.4323   0.4337   0.4384   0.4447   0.4504   0.4523   0.4540
  0.4571   0.4656   0.4674   0.4699   0.4752   0.4824   0.4848   0.4880
  0.4923   0.4956   0.5034   0.5091   0.5117   0.5179   0.5209   0.5265
  0.5285   0.5322   0.5377   0.5417   0.5443   0.5502   0.5519   0.5524
  0.5572   0.5598   0.5627   0.5683   0.5706   0.5759   0.5773   0.5834
  0.5866   0.5909   0.5940   0.5980   0.6003   0.6015   0.6054   0.6077
  0.6151   0.6178   0.6191   0.6211   0.6219   0.6288   0.6297   0.6380
  0.6385   0.6415   0.6452   0.6494   0.6516   0.6570   0.6637   0.6671
  0.6743   0.6781   0.6812   0.6844   0.6918   0.6949   0.6997   0.7023
  0.7058   0.7130   0.7170   0.7196   0.7320   0.7429   0.7463   0.7520
  0.7569   0.7650   0.7669   0.7696   0.7786   0.7917   0.7958   0.8010
  0.8048   0.8065   0.8137   0.8157   0.8229   0.8259   0.8281   0.8355
  0.8413   0.8485   0.8575   0.8649   0.8737   0.8786   0.8851   0.8921
  0.8988   0.8991   0.9060   0.9143   0.9163   0.9179   0.9240   0.9300
  0.9324   0.9400   0.9413   0.9442   0.9447   0.9518   0.9588   0.9695
  0.9741   0.9783   0.9809   0.9874   0.9888   0.9958   1.0006   1.0051
  1.0066   1.0119   1.0129   1.0146   1.0295   1.0301   1.0362   1.0415
  1.0430   1.0473   1.0543   1.0589   1.0656   1.0688   1.0743   1.0786
  1.0805   1.0840   1.0885   1.0965   1.1013   1.1047   1.1087   1.1125
  1.1163   1.1260   1.1336   1.1353   1.1452   1.1531   1.1566   1.1614
  1.1673   1.1709   1.1741   1.1753   1.1795   1.1824   1.1836   1.1916
  1.2016   1.2044   1.2068   1.2083   1.2172   1.2197   1.2230   1.2276
  1.2367   1.2406   1.2442   1.2525   1.2577   1.2634   1.2695   1.2734
  1.2741   1.2782   1.2879   1.3005   1.3060   1.3130   1.3178   1.3198
  1.3263   1.3373   1.3431   1.3462   1.3485   1.3531   1.3580   1.3706
  1.3723   1.3817   1.3889   1.3949   1.3982   1.4098   1.4189   1.4277
  1.4327   1.4342   1.4542   1.4625   1.4706   1.4736   1.4803   1.4858
  1.4937   1.4983   1.5012   1.5067   1.5082   1.5126   1.5246   1.5294
  1.5327   1.5355   1.5393   1.5455   1.5477   1.5582   1.5624   1.5659
  1.5718   1.5858   1.5899   1.5980   1.6051   1.6105   1.6219   1.6272
  1.6378   1.6457   1.6558   1.6584   1.6630   1.6673   1.6775   1.6832
  1.6864   1.6887   1.7039   1.7082   1.7181   1.7287   1.7340   1.7469
  1.7520   1.7659   1.7681   1.7794   1.7913   1.8009   1.8139   1.8193
  1.8236   1.8321   1.8364   1.8512   1.8556   1.8635   1.8644   1.8751
  1.8778   1.8844   1.8936   1.9029   1.9097   1.9165   1.9298   1.9306
  1.9376   1.9445   1.9456   1.9557   1.9706   1.9740   1.9753   1.9864
  1.9993   2.0165   2.0258   2.0284   2.0309   2.0402   2.0480   2.0623
  2.0715   2.0957   2.0982   2.1007   2.1174   2.1223   2.1353   2.1409
  2.1518   2.1551   2.1588   2.1688   2.1721   2.1773   2.1852   2.1911
  2.1975   2.2041   2.2151   2.2197   2.2247   2.2372   2.2393   2.2439
  2.2483   2.2536   2.2676   2.2716   2.2775   2.2815   2.2836   2.2976
  2.3023   2.3101   2.3163   2.3234   2.3287   2.3398   2.3534   2.3602
  2.3750   2.3800   2.3873   2.3916   2.3997   2.4118   2.4212   2.4283
  2.4339   2.4444   2.4516   2.4572   2.4673   2.4848   2.4864   2.4953
  2.4960   2.5085   2.5261   2.5288   2.5323   2.5490   2.5568   2.5611
  2.5790   2.5820   2.5900   2.5996   2.6077   2.6156   2.6199   2.6254
  2.6277   2.6344   2.6377   2.6480   2.6501   2.6523   2.6607   2.6700
  2.6783   2.6879   2.6913   2.6945   2.6978   2.7037   2.7075   2.7229
  2.7235   2.7338   2.7357   2.7436   2.7459   2.7481   2.7564   2.7620
  2.7785   2.7866   2.7930   2.7968   2.8052   2.8108   2.8186   2.8228
  2.8320   2.8408   2.8486   2.8523   2.8555   2.8622   2.8719   2.8740
  2.8783   2.8828   2.8891   2.8957   2.9099   2.9192   2.9244   2.9329
  2.9455   2.9548   2.9553   2.9702   2.9727   2.9836   3.0004   3.0047
  3.0087   3.0163   3.0227   3.0313   3.0339   3.0406   3.0432   3.0461
  3.0494   3.0579   3.0614   3.0730   3.0843   3.0894   3.0915   3.0994
  3.1073   3.1121   3.1192   3.1210   3.1271   3.1342   3.1435   3.1520
  3.1559   3.1590   3.1600   3.1676   3.1698   3.1769   3.1793   3.1863
  3.1870   3.2000   3.2005   3.2105   3.2133   3.2213   3.2244   3.2305
  3.2343   3.2406   3.2446   3.2465   3.2529   3.2553   3.2661   3.2685
  3.2780   3.2788   3.2869   3.2883   3.2915   3.2920   3.2976   3.3010
  3.3113   3.3174   3.3260   3.3307   3.3339   3.3426   3.3444   3.3480
  3.3509   3.3553   3.3574   3.3607   3.3630   3.3639   3.3734   3.3768
  3.3855   3.3896   3.3913   3.3979   3.3993   3.4053   3.4118   3.4219
  3.4253   3.4336   3.4397   3.4412   3.4454   3.4466   3.4487   3.4569
  3.4597   3.4633   3.4681   3.4716   3.4792   3.4893   3.4901   3.4963
  3.5039   3.5049   3.5143   3.5223   3.5295   3.5334   3.5375   3.5409
  3.5481   3.5523   3.5586   3.5648   3.5672   3.5798   3.5812   3.5880
  3.5909   3.5919   3.5964   3.6024   3.6068   3.6161   3.6230   3.6266
  3.6336   3.6355   3.6370   3.6484   3.6520   3.6556   3.6627   3.6652
  3.6682   3.6733   3.6760   3.6812   3.6896   3.6997   3.7031   3.7035
  3.7103   3.7114   3.7172   3.7246   3.7268   3.7309   3.7327   3.7399
  3.7434   3.7466   3.7517   3.7645   3.7691   3.7738   3.7785   3.7855
  3.7938   3.7982   3.8091   3.8129   3.8169   3.8189   3.8261   3.8287
  3.8360   3.8428   3.8438   3.8517   3.8543   3.8579   3.8659   3.8753
  3.8806   3.8881   3.8931   3.9021   3.9050   3.9096   3.9186   3.9283
  3.9295   3.9313   3.9395   3.9484   3.9580   3.9692   3.9793   3.9849
  3.9926   4.0001   4.0023   4.0114   4.0181   4.0239   4.0327   4.0345
  4.0434   4.0553   4.0589   4.0701   4.0774   4.0826   4.0881   4.0907
  4.0966   4.1046   4.1184   4.1270   4.1406   4.1451   4.1472   4.1583
  4.1655   4.1697   4.1749   4.1848   4.1895   4.1900   4.1933   4.2063
  4.2102   4.2193   4.2252   4.2390   4.2488   4.2573   4.2665   4.2766
  4.2828   4.2985   4.3015   4.3123   4.3179   4.3230   4.3295   4.3476
  4.3500   4.3558   4.3733   4.3768   4.3810   4.3915   4.3931   4.3998
  4.4091   4.4106   4.4143   4.4189   4.4282   4.4382   4.4411   4.4496
  4.4655   4.4727   4.4828   4.4946   4.4990   4.5015   4.5044   4.5153
  4.5279   4.5408   4.5469   4.5513   4.5593   4.5720   4.5785   4.5913
  4.6024   4.6070   4.6166   4.6305   4.6335   4.6391   4.6442   4.6528
  4.6572   4.6706   4.6728   4.6777   4.6883   4.7045   4.7196   4.7322
  4.7386   4.7412   4.7513   4.7681   4.7786   4.7908   4.8051   4.8075
  4.8192   4.8308   4.8527   4.8622   4.8662   4.8952   4.9136   4.9194
  4.9333   4.9475   4.9610   4.9622   4.9666   4.9825   4.9879   5.0044
  5.0108   5.0113   5.0197   5.0369   5.0474   5.0544   5.0618   5.0732
  5.0925   5.1128   5.1277   5.1597   5.1710   5.1740   5.1798   5.1913
  5.2000   5.2138   5.2177   5.2350   5.2546   5.2589   5.2614   5.2805
  5.3000   5.3109   5.3251   5.3304   5.3418   5.3512   5.3550   5.3567
  5.3681   5.3943   5.3953   5.3990   5.4187   5.4456   5.4616   5.4641
  5.4729   5.4836   5.4972   5.5074   5.5126   5.5210   5.5420   5.5617
  5.5740   5.5794   5.5896   5.6059   5.6170   5.6302   5.6371   5.6566
  5.7149   5.7330   5.7897   5.8004   5.8175   5.8421   5.8497   5.8553
  5.8730   5.8847   5.8983   5.9686   5.9694   5.9848   5.9977   6.0255
  6.0674   6.0893   6.1196   6.1334   6.1653   6.1731   6.1829   6.1854
  6.2329   6.2534   6.2690   6.2734   6.2939   6.3083   6.3208   6.3848
  6.4312   6.4459   6.4807   6.5118   6.5486   6.5559   6.5564   6.6515
  6.6727   6.6764   6.7005   6.7343   6.7424   6.7998   6.8401   6.8598
  6.8805   6.8926   6.9908   7.1203   7.1373   7.1780   7.2104   7.2158
  7.2335   7.3197   7.3259   7.3323   7.3737   7.3760   7.4268   7.4622
  7.4789   7.4869   7.4887   7.5203   7.5486   7.6038   7.7166   7.7706
  7.7966   7.8309   7.9023   7.9195   7.9472   8.0038   8.1097   8.1776
  8.5208   8.9289   9.0082   9.3638   9.4998   9.6950  10.2762  10.6359
 11.2393  11.4305  11.9335  11.9560  12.1272  12.1878  12.3411  12.5597
 12.6350  12.7601  12.9466  13.2280  13.2750  13.5585  13.8459  13.9000
 13.9097  14.0165  14.1761  14.4464  15.1946
 --------------------------------------------------------------
 
          Ground-State Mulliken Net Atomic Charges

     Atom                 Charge (a.u.)
  ----------------------------------------
      1 C                    -0.187860
      2 C                    -0.254751
      3 S                    -0.022498
      4 C                    -0.013345
      5 H                     0.196385
      6 C                    -0.027089
      7 C                     0.241871
      8 C                     0.241048
      9 C                    -0.042072
     10 C                    -0.016813
     11 O                    -0.333187
     12 O                    -0.339838
     13 C                    -0.085637
     14 H                     0.122466
     15 H                     0.090910
     16 H                     0.094505
     17 C                    -0.086981
     18 H                     0.125149
     19 H                     0.094240
     20 H                     0.090363
     21 C                    -0.234252
     22 S                    -0.003779
     23 C                    -0.050606
     24 H                     0.196537
     25 H                     0.206479
     26 C                     0.011195
     27 S                     0.125174
     28 C                    -0.228288
     29 C                    -0.146637
     30 C                     0.002938
     31 C                     0.390252
     32 C                    -0.152143
     33 S                     0.045079
     34 C                     0.460094
     35 O                    -0.447967
     36 O                    -0.297790
     37 F                    -0.209813
     38 C                    -0.054826
     39 H                     0.116663
     40 H                     0.084797
     41 H                     0.084663
     42 H                     0.215361
  ----------------------------------------
  Sum of atomic charges =     0.000000

 -----------------------------------------------------------------
                    Cartesian Multipole Moments
 -----------------------------------------------------------------
    Charge (ESU x 10^10)
                -0.0000
    Dipole Moment (Debye)
         X       1.6777      Y       1.6625      Z       2.9278
       Tot       3.7618
    Quadrupole Moments (Debye-Ang)
        XX    -173.8805     XY       7.1510     YY    -161.5131
        XZ      -7.7172     YZ      -8.6261     ZZ    -205.6097
    Octopole Moments (Debye-Ang^2)
       XXX    -178.3486    XXY     297.8597    XYY     -45.3577
       YYY     924.9703    XXZ     164.4729    XYZ      -5.4436
       YYZ     129.0569    XZZ      -5.9087    YZZ     515.8914
       ZZZ     545.7596
    Hexadecapole Moments (Debye-Ang^3)
      XXXX   -2645.3364   XXXY   -1003.6701   XXYY   -3603.7718
      XYYY    -884.3433   YYYY  -18218.0334   XXXZ     845.7158
      XXYZ     435.5675   XYYZ     141.9511   YYYZ    1267.5537
      XXZZ   -1378.3857   XYZZ    -157.2712   YYZZ   -4312.8284
      XZZZ     643.0628   YZZZ     754.4397   ZZZZ   -5730.4494
 -----------------------------------------------------------------
 Total job time:  311.70s(wall), 9595.17s(cpu) 
 Tue Sep 26 18:08:10 2023

        *************************************************************
        *                                                           *
        *  Thank you very much for using Q-Chem.  Have a nice day.  *
        *                                                           *
        *************************************************************


0 sent ACK to 0 
now end server 0 ... 
cleanup process ... done
remove work dirs ./qchem156245.0 -- ./qchem156245.0
rm -rf ./qchem156245.0
rm -rf ./qchem156245
