You are running Q-Chem version: 5.4.0

#
# job setting
#
local host:  exp-4-29
current dir: /expanse/lustre/projects/csd626/rramji/aromodel/PTB7_fin/Rotation_Test
input file:  fin_bdt_Phi_30_Theta_220_fin_ftt.qcin
output file: 
nprocs     : 1
nthreads   : 64
#
# qchem installation setting
#
QC:          /cm/shared/apps/spack/cpu/opt/spack/linux-centos8-zen2/gcc-10.2.0/qchem-5.4-akfmr7b3t57bfs6qan3padb2wnb2i7cl
QCAUX:       /cm/shared/apps/spack/cpu/opt/spack/linux-centos8-zen2/gcc-10.2.0/qchem-5.4-akfmr7b3t57bfs6qan3padb2wnb2i7cl/qcaux
QCPROG:      /cm/shared/apps/spack/cpu/opt/spack/linux-centos8-zen2/gcc-10.2.0/qchem-5.4-akfmr7b3t57bfs6qan3padb2wnb2i7cl/exe/qcprog.exe
QCPROG_S:    /cm/shared/apps/spack/cpu/opt/spack/linux-centos8-zen2/gcc-10.2.0/qchem-5.4-akfmr7b3t57bfs6qan3padb2wnb2i7cl/exe/qcprog.exe_s
PARALLEL:    -DPARALLEL
QCMPI:       mpich
#
# qchem directory setting
#
qcrun:       qchem767699
QCSCRATCH:   .
QCLOCALSCR:  
QCTMPDIR:    .
QCFILEPREF:  ./qchem767699
QCSAVEDIR:   
workdirs:    ./qchem767699
workdir0:    ./qchem767699
partmpdirs =  
#
# parallel setting
#
QCRSH:           ssh
QCMPI:           mpich
QCMPIRUN:        /cm/shared/apps/spack/cpu/opt/spack/linux-centos8-zen2/gcc-10.2.0/qchem-5.4-akfmr7b3t57bfs6qan3padb2wnb2i7cl/bin/mpi/mpirun_qchem
QCMACHINEFILE:   ./qchem767699/hostfile
exp-4-29

#
# env setting
#
exported envs:   QC QCAUX QCSCRATCH QCRUNNAME QCFILEPREF QCPROG QCPROG_S GUIFILE

Running Job 1 of 1 fin_bdt_Phi_30_Theta_220_fin_ftt.qcin
qchem fin_bdt_Phi_30_Theta_220_fin_ftt.qcin_767699.0 ./qchem767699/ 1
/cm/shared/apps/spack/cpu/opt/spack/linux-centos8-zen2/gcc-10.2.0/qchem-5.4-akfmr7b3t57bfs6qan3padb2wnb2i7cl/bin/mpi/mpirun_qchem -machinefile ./qchem767699/hostfile -np 1 /cm/shared/apps/spack/cpu/opt/spack/linux-centos8-zen2/gcc-10.2.0/qchem-5.4-akfmr7b3t57bfs6qan3padb2wnb2i7cl/exe/qcprog.exe fin_bdt_Phi_30_Theta_220_fin_ftt.qcin_767699.0 ./qchem767699/

Process 0 of 1 is on exp-4-29 - thread support 0
initial socket setup ...start
initial socket setup ...done 
now start server 0 ... 
                  Welcome to Q-Chem
     A Quantum Leap Into The Future Of Chemistry


 Q-Chem 5.4, Q-Chem, Inc., Pleasanton, CA (2021)

 License issued to: University of California, San Diego (site)

 E. Epifanovsky,  A. T. B. Gilbert,  Xintian Feng,  Joonho Lee,  Yuezhi Mao,  
 N. Mardirossian,  P. Pokhilko,  A. White,  M. Wormit,  M. P. Coons,  
 A. L. Dempwolff,  Zhengting Gan,  D. Hait,  P. R. Horn,  L. D. Jacobson,  
 I. Kaliman,  J. Kussmann,  A. W. Lange,  Ka Un Lao,  D. S. Levine,  Jie Liu,  
 S. C. McKenzie,  A. F. Morrison,  K. Nanda,  F. Plasser,  D. R. Rehn,  
 M. L. Vidal,  Zhi-Qiang You,  Ying Zhu,  B. Alam,  B. Albrecht,  
 A. Aldossary,  E. Alguire,  J. H. Andersen,  D. Barton,  K. Begam,  A. Behn,  
 Y. A. Bernard,  E. J. Berquist,  H. Burton,  A. Carreras,  K. Carter-Fenk,  
 R. Chakraborty,  A. D. Chien,  K. D. Closser,  V. Cofer-Shabica,  
 S. Dasgupta,  Jia Deng,  M. de Wergifosse,  M. Diedenhofen,  Hainam Do,  
 S. Ehlert,  Po-Tung Fang,  S. Fatehi,  Qingguo Feng,  J. Gayvert,  
 Qinghui Ge,  G. Gidofalvi,  M. Goldey,  J. Gomes,  C. Gonzalez-Espinoza,  
 S. Gulania,  A. Gunina,  M. W. D. Hanson-Heine,  P. H. P. Harbach,  
 A. W. Hauser,  M. F. Herbst,  M. Hernandez Vera,  M. Hodecker,  
 Z. C. Holden,  S. Houck,  Xunkun Huang,  Kerwin Hui,  B. C. Huynh,  
 M. Ivanov,  Hyunjun Ji,  Hanjie Jiang,  B. Kaduk,  S. Kaehler,  
 K. Khistyaev,  Jaehoon Kim,  P. Klunzinger,  Z. Koczor-Benda,  
 Joong Hoon Koh,  D. Kosenkov,  L. Koulias,  T. Kowalczyk,  C. M. Krauter,  
 K. Kue,  A. Kunitsa,  T. Kus,  A. Landau,  K. V. Lawler,  D. Lefrancois,  
 S. Lehtola,  Rain Li,  Yi-Pei Li,  Jiashu Liang,  M. Liebenthal,  
 Hung-Hsuan Lin,  You-Sheng Lin,  Fenglai Liu,  Kuan-Yu Liu,  
 M. Loipersberger,  A. Luenser,  A. Manjanath,  P. Manohar,  E. Mansoor,  
 S. F. Manzer,  Shan-Ping Mao,  A. V. Marenich,  T. Markovich,  S. Mason,  
 S. A. Maurer,  P. F. McLaughlin,  M. F. S. J. Menger,  J.-M. Mewes,  
 S. A. Mewes,  P. Morgante,  J. W. Mullinax,  T. S. Nguyen-Beck,  
 K. J. Oosterbaan,  G. Paran,  Alexander C. Paul,  Suranjan K. Paul,  
 F. Pavosevic,  Zheng Pei,  S. Prager,  E. I. Proynov,  E. Ramos,  B. Rana,  
 A. E. Rask,  A. Rettig,  R. M. Richard,  F. Rob,  E. Rossomme,  T. Scheele,  
 M. Scheurer,  M. Schneider,  N. Sergueev,  S. M. Sharada,  W. Skomorowski,  
 D. W. Small,  C. J. Stein,  Yu-Chuan Su,  E. J. Sundstrom,  Zhen Tao,  
 J. Thirman,  T. Tsuchimochi,  N. M. Tubman,  S. P. Veccham,  O. Vydrov,  
 J. Wenzel,  J. Witte,  A. Yamada,  Kun Yao,  S. Yeganeh,  S. R. Yost,  
 A. Zech,  Igor Ying Zhang,  Xing Zhang,  Yu Zhang,  D. Zuev,  
 A. Aspuru-Guzik,  A. T. Bell,  N. A. Besley,  K. B. Bravaya,  B. R. Brooks,  
 D. Casanova,  Jeng-Da Chai,  S. Coriani,  C. J. Cramer,  
 A. E. DePrince, III,  R. A. DiStasio Jr.,  A. Dreuw,  B. D. Dunietz,  
 T. R. Furlani,  W. A. Goddard III,  S. Grimme,  S. Hammes-Schiffer,  
 T. Head-Gordon,  W. J. Hehre,  Chao-Ping Hsu,  T.-C. Jagau,  Yousung Jung,  
 A. Klamt,  Jing Kong,  D. S. Lambrecht,  WanZhen Liang,  N. J. Mayhall,  
 C. W. McCurdy,  J. B. Neaton,  C. Ochsenfeld,  J. A. Parkhill,  R. Peverati,  
 V. A. Rassolov,  Yihan Shao,  L. V. Slipchenko,  T. Stauch,  R. P. Steele,  
 J. E. Subotnik,  A. J. W. Thom,  A. Tkatchenko,  D. G. Truhlar,  
 T. Van Voorhis,  T. A. Wesolowski,  K. B. Whaley,  H. L. Woodcock III,  
 P. M. Zimmerman,  S. Faraji,  P. M. W. Gill,  M. Head-Gordon,  
 J. M. Herbert,  A. I. Krylov

 Contributors to earlier versions of Q-Chem not listed above: 
 R. D. Adamson,  B. Austin,  R. Baer,  J. Baker,  G. J. O. Beran,  
 K. Brandhorst,  S. T. Brown,  E. F. C. Byrd,  A. K. Chakraborty,  
 G. K. L. Chan,  Chun-Min Chang,  Yunqing Chen,  C.-L. Cheng,  
 Siu Hung Chien,  D. M. Chipman,  D. L. Crittenden,  H. Dachsel,  
 R. J. Doerksen,  A. D. Dutoi,  R. G. Edgar,  J. Fosso-Tande,  
 L. Fusti-Molnar,  D. Ghosh,  A. Ghysels,  A. Golubeva-Zadorozhnaya,  
 J. Gonthier,  M. S. Gordon,  S. R. Gwaltney,  G. Hawkins,  J. E. Herr,  
 A. Heyden,  S. Hirata,  E. G. Hohenstein,  G. Kedziora,  F. J. Keil,  
 C. Kelley,  Jihan Kim,  R. A. King,  R. Z. Khaliullin,  P. P. Korambath,  
 W. Kurlancheek,  A. Laurent,  A. M. Lee,  M. S. Lee,  S. V. Levchenko,  
 Ching Yeh Lin,  D. Liotard,  E. Livshits,  R. C. Lochan,  I. Lotan,  
 L. A. Martinez-Martinez,  P. E. Maslen,  N. Nair,  D. P. O'Neill,  
 D. Neuhauser,  E. Neuscamman,  C. M. Oana,  R. Olivares-Amaya,  R. Olson,  
 T. M. Perrine,  B. Peters,  P. A. Pieniazek,  A. Prociuk,  Y. M. Rhee,  
 J. Ritchie,  M. A. Rohrdanz,  E. Rosta,  N. J. Russ,  H. F. Schaefer III,  
 M. W. Schmidt,  N. E. Schultz,  S. Sharma,  N. Shenvi,  C. D. Sherrill,  
 A. C. Simmonett,  A. Sodt,  T. Stein,  D. Stuck,  K. S. Thanthiriwatte,  
 V. Vanovschi,  L. Vogt,  Tao Wang,  A. Warshel,  M. A. Watson,  
 C. F. Williams,  Q. Wu,  X. Xu,  Jun Yang,  W. Zhang,  Yan Zhao

 Please cite Q-Chem as follows:
 Y. Shao et al., Mol. Phys. 113, 184-215 (2015)
 DOI: 10.1080/00268976.2014.952696

 Q-Chem 5.4.0 for Intel X86 EM64T Linux

 Parts of Q-Chem use Armadillo 9.800.1 (Horizon Scraper).
 http://arma.sourceforge.net/

 Q-Chem begins on Sun Sep 24 18:23:21 2023  

 Host: 
0

     Scratch files written to ./qchem767699//
 May1621 |scratch|qcdevops|jenkins|workspace|build_RNUM    
 Parallel job on  1  processors
 Processing $rem in /cm/shared/apps/spack/cpu/opt/spack/linux-centos8-zen2/gcc-10.2.0/qchem-5.4-akfmr7b3t57bfs6qan3padb2wnb2i7cl/config/preferences:
 Processing $rem in /home/rramji/.qchemrc:
 Symmetry turned off for PCM/SM12/SMD calculation
 Core orbitals will be frozen

 Checking the input file for inconsistencies... 	...done.

 Q-Chem warning in module forms1/BasisType.C, line 2236:

 You are not using the predefined 5D/6D in this basis set.


--------------------------------------------------------------
User input:
--------------------------------------------------------------
$molecule
0 1
C	0.208886	-8.519741	-0.174379
C	-0.472151	-7.635967	0.650052
S	1.193717	-7.651740	-1.377058
C	-0.225125	-6.261894	0.353105
H	-1.141594	-7.954738	1.458961
C	0.692811	-6.079985	-0.740583
C	1.039773	-4.798382	-1.195546
C	-0.817634	-5.153542	1.023267
C	-0.473754	-3.869626	0.565262
C	0.447350	-3.688927	-0.527745
O	-1.644483	-5.481075	2.054917
O	1.869424	-4.479871	-2.232592
C	2.939466	-5.356026	-2.565470
H	3.601405	-4.790496	-3.248608
H	2.587892	-6.268513	-3.094885
H	3.516052	-5.658187	-1.664539
C	-2.608813	-4.546999	2.524564
H	-3.270661	-5.107564	3.211568
H	-3.216646	-4.131473	1.692342
H	-2.141184	-3.712085	3.090211
C	0.690319	-2.314326	-0.823402
S	-0.985511	-2.295487	1.194935
C	-0.000000	-1.435180	-0.000000
H	1.361286	-1.993211	-1.630024
H	0.203444	-9.615985	-0.171719
C	0.000000	0.000000	0.000000
S	0.451648	0.777811	1.510732
C	1.238377	2.142617	0.727629
C	0.454085	0.786559	-1.064665
C	1.147169	1.990043	-0.678287
C	0.422325	0.728240	-2.486150
C	1.054629	1.823683	-3.106916
S	1.675491	2.905718	-1.965735
C	1.185914	2.041729	-4.559972
O	0.721749	1.231802	-5.350277
O	1.830313	3.151386	-5.004375
F	-0.131347	-0.238577	-3.246290
C	2.018453	3.456956	-6.334976
H	2.571455	4.413580	-6.370268
H	1.052178	3.565244	-6.875609
H	2.601950	2.669768	-6.861878
H	1.698444	2.939346	1.321510
$end

$rem
JOBTYPE		SP
EXCHANGE	HF
CORRELATION	pRIMP2
BASIS		cc-pvtz
METHOD		rimp2
AUX_BASIS	rimp2-cc-pvtz
SOLVENT_METHOD	PCM
PURECART	11111
SYMMETRY	false
MEM_TOTAL	110000
SCF_CONVERGENCE = 6
THRESH=10
GUI = 2
$end



$solvent
dielectric 4.90
$end
--------------------------------------------------------------
 ----------------------------------------------------------------
             Standard Nuclear Orientation (Angstroms)
    I     Atom           X                Y                Z
 ----------------------------------------------------------------
    1      C       0.2088860000    -8.5197410000    -0.1743790000
    2      C      -0.4721510000    -7.6359670000     0.6500520000
    3      S       1.1937170000    -7.6517400000    -1.3770580000
    4      C      -0.2251250000    -6.2618940000     0.3531050000
    5      H      -1.1415940000    -7.9547380000     1.4589610000
    6      C       0.6928110000    -6.0799850000    -0.7405830000
    7      C       1.0397730000    -4.7983820000    -1.1955460000
    8      C      -0.8176340000    -5.1535420000     1.0232670000
    9      C      -0.4737540000    -3.8696260000     0.5652620000
   10      C       0.4473500000    -3.6889270000    -0.5277450000
   11      O      -1.6444830000    -5.4810750000     2.0549170000
   12      O       1.8694240000    -4.4798710000    -2.2325920000
   13      C       2.9394660000    -5.3560260000    -2.5654700000
   14      H       3.6014050000    -4.7904960000    -3.2486080000
   15      H       2.5878920000    -6.2685130000    -3.0948850000
   16      H       3.5160520000    -5.6581870000    -1.6645390000
   17      C      -2.6088130000    -4.5469990000     2.5245640000
   18      H      -3.2706610000    -5.1075640000     3.2115680000
   19      H      -3.2166460000    -4.1314730000     1.6923420000
   20      H      -2.1411840000    -3.7120850000     3.0902110000
   21      C       0.6903190000    -2.3143260000    -0.8234020000
   22      S      -0.9855110000    -2.2954870000     1.1949350000
   23      C       0.0000000000    -1.4351800000     0.0000000000
   24      H       1.3612860000    -1.9932110000    -1.6300240000
   25      H       0.2034440000    -9.6159850000    -0.1717190000
   26      C       0.0000000000     0.0000000000     0.0000000000
   27      S       0.4516480000     0.7778110000     1.5107320000
   28      C       1.2383770000     2.1426170000     0.7276290000
   29      C       0.4540850000     0.7865590000    -1.0646650000
   30      C       1.1471690000     1.9900430000    -0.6782870000
   31      C       0.4223250000     0.7282400000    -2.4861500000
   32      C       1.0546290000     1.8236830000    -3.1069160000
   33      S       1.6754910000     2.9057180000    -1.9657350000
   34      C       1.1859140000     2.0417290000    -4.5599720000
   35      O       0.7217490000     1.2318020000    -5.3502770000
   36      O       1.8303130000     3.1513860000    -5.0043750000
   37      F      -0.1313470000    -0.2385770000    -3.2462900000
   38      C       2.0184530000     3.4569560000    -6.3349760000
   39      H       2.5714550000     4.4135800000    -6.3702680000
   40      H       1.0521780000     3.5652440000    -6.8756090000
   41      H       2.6019500000     2.6697680000    -6.8618780000
   42      H       1.6984440000     2.9393460000     1.3215100000
 ----------------------------------------------------------------
 Nuclear Repulsion Energy =        3319.89814327 hartrees
 There are      119 alpha and      119 beta electrons
 Requested basis set is cc-pVTZ
 There are 376 shells and 1068 basis functions

 Total QAlloc Memory Limit 110000 MB
 Mega-Array Size       188 MB
 MEM_STATIC part       192 MB
 Discretize the solute cavity surface with Lebedev spheres
	Using 110 Lebedev grid points for each H atom
	Using 194 Lebedev grid points for other atoms
	Atomic van der Waals radii will be scaled by 1.20
 Remove points where switching function is < 1.0e-08
 Keep 2887 surface tesserae and discard 4169 interior tesserae
 Molecular Surface Area = 437.398 Angst**2
 Requested basis set is rimp2-cc-pVTZ
 There are 833 shells and 2903 basis functions
 A cutoff of  1.0D-10 yielded  31615 shell pairs
 There are    242481 function pairs (    314730 Cartesian)
 Smallest overlap matrix eigenvalue = 2.13E-05

 Scale SEOQF with 1.000000e-01/1.000000e-02/1.000000e-02

 Standard Electronic Orientation quadrupole field applied
 Nucleus-field energy     =     0.0000000290 hartrees
 Guess from superposition of atomic densities
 Warning:  Energy on first SCF cycle will be non-variational
 SAD guess density has 238.000000 electrons

 -----------------------------------------------------------------------
  General SCF calculation program by
  Eric Jon Sundstrom, Paul Horn, Yuezhi Mao, Dmitri Zuev, Alec White,
  David Stuck, Shaama M.S., Shane Yost, Joonho Lee, David Small,
  Daniel Levine, Susi Lehtola, Hugh Burton, Evgeny Epifanovsky,
  Bang C. Huynh
 -----------------------------------------------------------------------
 Hartree-Fock
 using 64 threads for integral computing
 -------------------------------------------------------
 OpenMP Integral computing Module                
 Release: version 1.0, May 2013, Q-Chem Inc. Pittsburgh 
 -------------------------------------------------------
 A restricted SCF calculation will be
 performed using DIIS
 SCF converges when DIIS error is below 1.0e-06
 ---------------------------------------
  Cycle       Energy         DIIS error
 ---------------------------------------
    1   -2765.5570678248      1.77e-02  
    2   -2753.8458340625      1.57e-03  
    3   -2754.1862065406      8.83e-04  
    4   -2754.2705927111      2.54e-04  
    5   -2754.2821957416      6.85e-05  
    6   -2754.2832788646      2.41e-05  
    7   -2754.2835180789      1.15e-05  
    8   -2754.2835978061      4.51e-06  
    9   -2754.2836142441      1.99e-06  
   10   -2754.2836167390      8.77e-07  Convergence criterion met
 ---------------------------------------
 SCF time:   CPU 6688.69s  wall 250.00s 

************** Final PCM Free Energy Summary **************
 G_electrostatic  =      -0.02035071 hartree =     -12.77026513 kcal/mol
 G_cavitation     =       0.00000000 hartree =       0.00000000 kcal/mol
 G_dispersion     =       0.00000000 hartree =       0.00000000 kcal/mol
 G_repulsion      =       0.00000000 hartree =       0.00000000 kcal/mol
 --------------------------------------------------
 Non-electrostatic Free Energy =       0.00000000 hartree =       0.00000000 kcal/mol
 Total                         =      -0.02035071 hartree =     -12.77026513 kcal/mol
 --------------------------------------------------
 SCF Energy (H0 + V/2)                       =   -2754.28361674 
 Solute Internal Energy (H0)                 =   -2754.26326603 
 Total Free Energy (H0 + V/2 + non-elec)     =   -2754.28361674 hartree
                                             = -1728339.05532383 kcal/mol
***********************************************************

 SCF   energy in the final basis set =    -2754.2836167390
 Total energy in the final basis set =    -2754.2836167390


 --------------------------------------------------------------
  Generalized many-body perturbation theory program
  by Joonho Lee, Fazle Rob, Xintian Feng, Evgeny Epifanovsky

 No regularization used 
 (reg. param. = 0.0000e+00)
  (P|Q)^-1/2 Time:  CPU 227.80 s  wall 3.99 s

 In RI-MP2 calculation: 
 # of frozen core orbitals: 45

 Components of the RIMP2 correlation energy:
        aaaa    correlation energy =        -0.6719057321 a.u.
        abab    correlation energy =        -3.7149207538 a.u.
        bbbb    correlation energy =        -0.6719057321 a.u.
        non-Brillouin singles      =        -0.0000000000 a.u.
        total same-spin energy     =        -1.3438114642 a.u.
        total opposite-spin energy =        -3.7149207538 a.u.

 Total  RIMP2   correlation energy =        -5.0587322180 a.u.
        RIMP2         total energy =     -2759.3423489570 a.u.

 RI-MP2 Energy Time:  CPU 3905.91 s  wall 65.64 s
 
 --------------------------------------------------------------
 
                    Orbital Energies (a.u.)
 --------------------------------------------------------------
 
 Alpha MOs
 -- Occupied --
-92.0163 -91.9975 -91.9882 -91.9860 -26.3344 -20.6128 -20.5923 -20.5907
-20.5513 -11.4115 -11.3776 -11.3190 -11.3172 -11.3038 -11.3016 -11.3003
-11.2981 -11.2956 -11.2889 -11.2870 -11.2857 -11.2854 -11.2848 -11.2837
-11.2792 -11.2610 -11.2584 -11.2553 -11.2497  -9.0148  -9.0014  -8.9888
 -8.9859  -6.6955  -6.6949  -6.6945  -6.6827  -6.6820  -6.6807  -6.6698
 -6.6691  -6.6682  -6.6669  -6.6663  -6.6654  -1.6475  -1.4727  -1.4163
 -1.4135  -1.3681  -1.2359  -1.1957  -1.1690  -1.1432  -1.0843  -1.0518
 -1.0489  -1.0291  -1.0018  -0.9932  -0.9728  -0.9606  -0.9502  -0.9389
 -0.8958  -0.8708  -0.8489  -0.8033  -0.7946  -0.7878  -0.7722  -0.7714
 -0.7569  -0.7322  -0.7193  -0.7159  -0.7012  -0.6899  -0.6823  -0.6791
 -0.6728  -0.6613  -0.6588  -0.6521  -0.6285  -0.6196  -0.6162  -0.6074
 -0.6039  -0.5967  -0.5831  -0.5758  -0.5703  -0.5629  -0.5543  -0.5495
 -0.5342  -0.5264  -0.5253  -0.5160  -0.5153  -0.5082  -0.5044  -0.4968
 -0.4878  -0.4856  -0.4751  -0.4678  -0.4623  -0.4619  -0.4597  -0.4168
 -0.3970  -0.3859  -0.3584  -0.3504  -0.3226  -0.2863  -0.2511
 -- Virtual --
  0.0116   0.0735   0.1132   0.1236   0.1324   0.1433   0.1502   0.1550
  0.1560   0.1607   0.1628   0.1762   0.1816   0.1848   0.1890   0.1959
  0.2040   0.2067   0.2075   0.2168   0.2204   0.2221   0.2239   0.2300
  0.2314   0.2397   0.2479   0.2548   0.2594   0.2675   0.2752   0.2773
  0.2966   0.3116   0.3152   0.3304   0.3368   0.3400   0.3466   0.3501
  0.3541   0.3582   0.3683   0.3723   0.3765   0.3796   0.3815   0.3849
  0.3875   0.3914   0.3954   0.4072   0.4097   0.4167   0.4190   0.4222
  0.4308   0.4324   0.4387   0.4404   0.4451   0.4491   0.4562   0.4569
  0.4586   0.4651   0.4684   0.4726   0.4767   0.4810   0.4862   0.4930
  0.4960   0.5008   0.5044   0.5086   0.5088   0.5167   0.5193   0.5217
  0.5292   0.5343   0.5378   0.5420   0.5467   0.5482   0.5510   0.5520
  0.5558   0.5586   0.5651   0.5668   0.5693   0.5724   0.5750   0.5811
  0.5889   0.5903   0.5940   0.5948   0.5997   0.6041   0.6099   0.6125
  0.6165   0.6174   0.6204   0.6243   0.6284   0.6297   0.6330   0.6375
  0.6399   0.6444   0.6458   0.6503   0.6562   0.6577   0.6621   0.6669
  0.6719   0.6750   0.6810   0.6841   0.6881   0.6982   0.7021   0.7055
  0.7098   0.7122   0.7171   0.7250   0.7344   0.7400   0.7481   0.7542
  0.7560   0.7621   0.7683   0.7740   0.7834   0.7913   0.7937   0.7989
  0.8025   0.8082   0.8101   0.8197   0.8223   0.8296   0.8355   0.8452
  0.8495   0.8529   0.8664   0.8694   0.8722   0.8809   0.8837   0.8945
  0.8973   0.9059   0.9083   0.9086   0.9170   0.9189   0.9198   0.9297
  0.9311   0.9364   0.9378   0.9477   0.9499   0.9570   0.9593   0.9658
  0.9690   0.9769   0.9807   0.9891   0.9909   0.9966   0.9983   1.0027
  1.0060   1.0110   1.0154   1.0192   1.0249   1.0321   1.0388   1.0461
  1.0498   1.0536   1.0576   1.0597   1.0662   1.0690   1.0731   1.0759
  1.0822   1.0861   1.0897   1.0974   1.1007   1.1061   1.1098   1.1176
  1.1243   1.1318   1.1337   1.1455   1.1468   1.1493   1.1524   1.1624
  1.1635   1.1706   1.1743   1.1773   1.1836   1.1894   1.1930   1.1965
  1.2005   1.2058   1.2104   1.2124   1.2197   1.2205   1.2315   1.2329
  1.2369   1.2403   1.2426   1.2556   1.2564   1.2646   1.2750   1.2762
  1.2793   1.2858   1.2933   1.2996   1.3074   1.3101   1.3186   1.3246
  1.3348   1.3386   1.3435   1.3476   1.3555   1.3569   1.3618   1.3711
  1.3750   1.3785   1.3905   1.3978   1.4009   1.4136   1.4192   1.4217
  1.4289   1.4389   1.4465   1.4601   1.4680   1.4728   1.4866   1.4881
  1.4932   1.4993   1.5050   1.5101   1.5119   1.5178   1.5237   1.5274
  1.5320   1.5393   1.5410   1.5436   1.5493   1.5558   1.5592   1.5640
  1.5722   1.5830   1.5887   1.5994   1.6079   1.6170   1.6219   1.6265
  1.6362   1.6465   1.6556   1.6571   1.6658   1.6673   1.6733   1.6852
  1.6900   1.6925   1.7030   1.7133   1.7193   1.7277   1.7367   1.7483
  1.7570   1.7617   1.7734   1.7810   1.7957   1.8026   1.8123   1.8233
  1.8274   1.8326   1.8377   1.8456   1.8588   1.8654   1.8677   1.8738
  1.8802   1.8852   1.9001   1.9035   1.9127   1.9169   1.9266   1.9295
  1.9368   1.9510   1.9567   1.9611   1.9712   1.9761   1.9796   1.9807
  2.0010   2.0158   2.0173   2.0224   2.0321   2.0450   2.0479   2.0586
  2.0770   2.0880   2.0976   2.1065   2.1156   2.1242   2.1398   2.1461
  2.1525   2.1564   2.1593   2.1643   2.1725   2.1772   2.1884   2.1940
  2.1959   2.2001   2.2146   2.2200   2.2310   2.2346   2.2357   2.2448
  2.2505   2.2533   2.2611   2.2727   2.2755   2.2816   2.2854   2.2951
  2.2978   2.3120   2.3133   2.3204   2.3314   2.3433   2.3524   2.3550
  2.3637   2.3804   2.3869   2.3923   2.4029   2.4138   2.4177   2.4288
  2.4314   2.4459   2.4497   2.4550   2.4626   2.4790   2.4831   2.4913
  2.5027   2.5139   2.5232   2.5286   2.5318   2.5437   2.5551   2.5567
  2.5747   2.5800   2.5888   2.5922   2.6095   2.6168   2.6177   2.6234
  2.6292   2.6363   2.6369   2.6432   2.6516   2.6616   2.6668   2.6687
  2.6740   2.6874   2.6963   2.6998   2.7005   2.7029   2.7126   2.7195
  2.7261   2.7347   2.7383   2.7406   2.7482   2.7576   2.7623   2.7756
  2.7814   2.7880   2.7908   2.7994   2.8058   2.8110   2.8189   2.8270
  2.8319   2.8391   2.8411   2.8466   2.8548   2.8616   2.8679   2.8734
  2.8755   2.8807   2.8848   2.8973   2.9080   2.9174   2.9283   2.9407
  2.9439   2.9533   2.9579   2.9698   2.9778   2.9816   2.9940   3.0035
  3.0088   3.0153   3.0253   3.0304   3.0340   3.0386   3.0439   3.0483
  3.0534   3.0611   3.0702   3.0759   3.0808   3.0908   3.0919   3.1018
  3.1052   3.1124   3.1163   3.1196   3.1297   3.1319   3.1438   3.1483
  3.1561   3.1585   3.1611   3.1663   3.1673   3.1706   3.1808   3.1845
  3.1943   3.1998   3.2024   3.2075   3.2142   3.2201   3.2245   3.2292
  3.2369   3.2409   3.2438   3.2466   3.2499   3.2559   3.2632   3.2676
  3.2759   3.2784   3.2836   3.2843   3.2905   3.2919   3.2954   3.2987
  3.3119   3.3175   3.3227   3.3299   3.3322   3.3397   3.3446   3.3490
  3.3533   3.3578   3.3612   3.3630   3.3639   3.3679   3.3729   3.3803
  3.3860   3.3904   3.3937   3.3977   3.4001   3.4137   3.4180   3.4232
  3.4258   3.4316   3.4369   3.4399   3.4409   3.4492   3.4532   3.4544
  3.4596   3.4654   3.4686   3.4720   3.4829   3.4840   3.4925   3.4976
  3.5004   3.5116   3.5165   3.5186   3.5263   3.5307   3.5330   3.5366
  3.5458   3.5515   3.5557   3.5609   3.5655   3.5745   3.5776   3.5845
  3.5924   3.5960   3.5971   3.6022   3.6050   3.6070   3.6150   3.6240
  3.6307   3.6336   3.6406   3.6447   3.6484   3.6556   3.6575   3.6658
  3.6696   3.6767   3.6792   3.6822   3.6871   3.6912   3.6964   3.7019
  3.7081   3.7113   3.7154   3.7246   3.7291   3.7305   3.7364   3.7391
  3.7450   3.7493   3.7585   3.7682   3.7703   3.7795   3.7819   3.7867
  3.7913   3.8007   3.8044   3.8103   3.8178   3.8244   3.8265   3.8330
  3.8348   3.8424   3.8488   3.8576   3.8599   3.8639   3.8686   3.8769
  3.8800   3.8820   3.8886   3.8973   3.9095   3.9183   3.9213   3.9290
  3.9331   3.9372   3.9487   3.9591   3.9624   3.9673   3.9797   3.9852
  3.9903   3.9959   4.0099   4.0152   4.0203   4.0305   4.0334   4.0444
  4.0522   4.0587   4.0611   4.0648   4.0750   4.0793   4.0861   4.0887
  4.0904   4.0993   4.1114   4.1175   4.1274   4.1385   4.1494   4.1532
  4.1650   4.1662   4.1719   4.1822   4.1856   4.1885   4.1921   4.2073
  4.2125   4.2231   4.2370   4.2482   4.2501   4.2579   4.2677   4.2716
  4.2860   4.2899   4.3099   4.3128   4.3240   4.3399   4.3408   4.3477
  4.3580   4.3674   4.3749   4.3770   4.3790   4.3915   4.3963   4.4053
  4.4071   4.4127   4.4170   4.4212   4.4293   4.4350   4.4414   4.4530
  4.4599   4.4721   4.4823   4.4890   4.5022   4.5049   4.5081   4.5148
  4.5392   4.5431   4.5461   4.5555   4.5563   4.5737   4.5895   4.5948
  4.6060   4.6134   4.6203   4.6337   4.6350   4.6412   4.6487   4.6584
  4.6617   4.6684   4.6723   4.6799   4.6861   4.7013   4.7149   4.7259
  4.7358   4.7533   4.7553   4.7701   4.7736   4.7824   4.7963   4.8110
  4.8271   4.8311   4.8372   4.8429   4.8677   4.8856   4.9111   4.9209
  4.9409   4.9435   4.9523   4.9618   4.9658   4.9816   4.9941   5.0015
  5.0072   5.0115   5.0126   5.0346   5.0445   5.0626   5.0703   5.0753
  5.0852   5.1023   5.1229   5.1575   5.1715   5.1742   5.1824   5.1957
  5.2028   5.2165   5.2182   5.2404   5.2535   5.2547   5.2589   5.2827
  5.3003   5.3119   5.3255   5.3319   5.3404   5.3547   5.3555   5.3691
  5.3783   5.3919   5.3995   5.4005   5.4087   5.4363   5.4639   5.4728
  5.4780   5.4841   5.5029   5.5067   5.5137   5.5177   5.5430   5.5638
  5.5747   5.5811   5.5901   5.6064   5.6168   5.6303   5.6424   5.6903
  5.7122   5.7339   5.7815   5.8001   5.8126   5.8355   5.8480   5.8564
  5.8747   5.8828   5.9223   5.9663   5.9690   5.9793   6.0013   6.0311
  6.0628   6.0987   6.1185   6.1332   6.1497   6.1710   6.1800   6.1851
  6.2400   6.2461   6.2709   6.2822   6.3051   6.3080   6.3207   6.3885
  6.4428   6.4486   6.4983   6.5322   6.5517   6.5556   6.5600   6.6557
  6.6727   6.6761   6.7071   6.7376   6.7431   6.8034   6.8428   6.8595
  6.8823   6.8928   6.9903   7.1200   7.1380   7.1777   7.2103   7.2158
  7.2349   7.3212   7.3257   7.3322   7.3744   7.3763   7.4268   7.4619
  7.4787   7.4866   7.4897   7.5196   7.5481   7.6083   7.7110   7.7703
  7.7975   7.8308   7.9028   7.9224   7.9484   8.0042   8.0911   8.1689
  8.5499   8.9397   9.0085   9.3665   9.4993   9.6933  10.2100  10.5653
 11.2382  11.3734  11.9354  11.9970  12.1296  12.1984  12.3727  12.5721
 12.6280  12.7166  12.9419  13.2295  13.2918  13.5400  13.8466  13.8643
 13.9018  14.0349  14.1344  14.7089  15.2037
 --------------------------------------------------------------
 
          Ground-State Mulliken Net Atomic Charges

     Atom                 Charge (a.u.)
  ----------------------------------------
      1 C                    -0.189518
      2 C                    -0.254078
      3 S                    -0.022120
      4 C                    -0.016632
      5 H                     0.196215
      6 C                    -0.028786
      7 C                     0.243128
      8 C                     0.244524
      9 C                    -0.041679
     10 C                    -0.027222
     11 O                    -0.333467
     12 O                    -0.339371
     13 C                    -0.085822
     14 H                     0.122852
     15 H                     0.091179
     16 H                     0.093478
     17 C                    -0.087287
     18 H                     0.125559
     19 H                     0.095289
     20 H                     0.089054
     21 C                    -0.214724
     22 S                    -0.028580
     23 C                    -0.000285
     24 H                     0.196220
     25 H                     0.206300
     26 C                    -0.039167
     27 S                     0.124243
     28 C                    -0.224641
     29 C                    -0.110192
     30 C                    -0.009502
     31 C                     0.368141
     32 C                    -0.144337
     33 S                     0.048910
     34 C                     0.460430
     35 O                    -0.447683
     36 O                    -0.297884
     37 F                    -0.210881
     38 C                    -0.054866
     39 H                     0.116801
     40 H                     0.084907
     41 H                     0.084725
     42 H                     0.216768
  ----------------------------------------
  Sum of atomic charges =     0.000000

 -----------------------------------------------------------------
                    Cartesian Multipole Moments
 -----------------------------------------------------------------
    Charge (ESU x 10^10)
                 0.0000
    Dipole Moment (Debye)
         X       2.1999      Y       1.8233      Z       3.3479
       Tot       4.4014
    Quadrupole Moments (Debye-Ang)
        XX    -181.3108     XY       6.0938     YY    -163.1486
        XZ     -17.7306     YZ     -10.1891     ZZ    -196.9318
    Octopole Moments (Debye-Ang^2)
       XXX    -284.5683    XXY     352.9862    XYY     -60.0145
       YYY     947.0483    XXZ     169.2718    XYZ      37.8501
       YYZ     145.8454    XZZ     -40.0985    YZZ     475.6738
       ZZZ     579.4770
    Hexadecapole Moments (Debye-Ang^3)
      XXXX   -2034.9239   XXXY    -248.7171   XXYY   -3649.0748
      XYYY    -227.2068   YYYY  -18090.0345   XXXZ    1188.6528
      XXYZ     277.3475   XYYZ      32.3598   YYYZ     792.1311
      XXZZ   -1264.8754   XYZZ     146.8958   YYZZ   -4257.4571
      XZZZ     879.6740   YZZZ     262.5237   ZZZZ   -6757.1129
 -----------------------------------------------------------------
 Total job time:  322.35s(wall), 10752.75s(cpu) 
 Sun Sep 24 18:28:44 2023

        *************************************************************
        *                                                           *
        *  Thank you very much for using Q-Chem.  Have a nice day.  *
        *                                                           *
        *************************************************************


0 sent ACK to 0 
now end server 0 ... 
cleanup process ... done
remove work dirs ./qchem767699.0 -- ./qchem767699.0
rm -rf ./qchem767699.0
rm -rf ./qchem767699
