You are running Q-Chem version: 5.4.0

#
# job setting
#
local host:  exp-4-29
current dir: /expanse/lustre/projects/csd626/rramji/aromodel/PTB7_fin/Rotation_Test
input file:  fin_bdt_Phi_30_Theta_40_fin_ftt.qcin
output file: 
nprocs     : 1
nthreads   : 64
#
# qchem installation setting
#
QC:          /cm/shared/apps/spack/cpu/opt/spack/linux-centos8-zen2/gcc-10.2.0/qchem-5.4-akfmr7b3t57bfs6qan3padb2wnb2i7cl
QCAUX:       /cm/shared/apps/spack/cpu/opt/spack/linux-centos8-zen2/gcc-10.2.0/qchem-5.4-akfmr7b3t57bfs6qan3padb2wnb2i7cl/qcaux
QCPROG:      /cm/shared/apps/spack/cpu/opt/spack/linux-centos8-zen2/gcc-10.2.0/qchem-5.4-akfmr7b3t57bfs6qan3padb2wnb2i7cl/exe/qcprog.exe
QCPROG_S:    /cm/shared/apps/spack/cpu/opt/spack/linux-centos8-zen2/gcc-10.2.0/qchem-5.4-akfmr7b3t57bfs6qan3padb2wnb2i7cl/exe/qcprog.exe_s
PARALLEL:    -DPARALLEL
QCMPI:       mpich
#
# qchem directory setting
#
qcrun:       qchem752242
QCSCRATCH:   .
QCLOCALSCR:  
QCTMPDIR:    .
QCFILEPREF:  ./qchem752242
QCSAVEDIR:   
workdirs:    ./qchem752242
workdir0:    ./qchem752242
partmpdirs =  
#
# parallel setting
#
QCRSH:           ssh
QCMPI:           mpich
QCMPIRUN:        /cm/shared/apps/spack/cpu/opt/spack/linux-centos8-zen2/gcc-10.2.0/qchem-5.4-akfmr7b3t57bfs6qan3padb2wnb2i7cl/bin/mpi/mpirun_qchem
QCMACHINEFILE:   ./qchem752242/hostfile
exp-4-29

#
# env setting
#
exported envs:   QC QCAUX QCSCRATCH QCRUNNAME QCFILEPREF QCPROG QCPROG_S GUIFILE

Running Job 1 of 1 fin_bdt_Phi_30_Theta_40_fin_ftt.qcin
qchem fin_bdt_Phi_30_Theta_40_fin_ftt.qcin_752242.0 ./qchem752242/ 1
/cm/shared/apps/spack/cpu/opt/spack/linux-centos8-zen2/gcc-10.2.0/qchem-5.4-akfmr7b3t57bfs6qan3padb2wnb2i7cl/bin/mpi/mpirun_qchem -machinefile ./qchem752242/hostfile -np 1 /cm/shared/apps/spack/cpu/opt/spack/linux-centos8-zen2/gcc-10.2.0/qchem-5.4-akfmr7b3t57bfs6qan3padb2wnb2i7cl/exe/qcprog.exe fin_bdt_Phi_30_Theta_40_fin_ftt.qcin_752242.0 ./qchem752242/

Process 0 of 1 is on exp-4-29 - thread support 0
initial socket setup ...start
initial socket setup ...done 
now start server 0 ... 
                  Welcome to Q-Chem
     A Quantum Leap Into The Future Of Chemistry


 Q-Chem 5.4, Q-Chem, Inc., Pleasanton, CA (2021)

 License issued to: University of California, San Diego (site)

 E. Epifanovsky,  A. T. B. Gilbert,  Xintian Feng,  Joonho Lee,  Yuezhi Mao,  
 N. Mardirossian,  P. Pokhilko,  A. White,  M. Wormit,  M. P. Coons,  
 A. L. Dempwolff,  Zhengting Gan,  D. Hait,  P. R. Horn,  L. D. Jacobson,  
 I. Kaliman,  J. Kussmann,  A. W. Lange,  Ka Un Lao,  D. S. Levine,  Jie Liu,  
 S. C. McKenzie,  A. F. Morrison,  K. Nanda,  F. Plasser,  D. R. Rehn,  
 M. L. Vidal,  Zhi-Qiang You,  Ying Zhu,  B. Alam,  B. Albrecht,  
 A. Aldossary,  E. Alguire,  J. H. Andersen,  D. Barton,  K. Begam,  A. Behn,  
 Y. A. Bernard,  E. J. Berquist,  H. Burton,  A. Carreras,  K. Carter-Fenk,  
 R. Chakraborty,  A. D. Chien,  K. D. Closser,  V. Cofer-Shabica,  
 S. Dasgupta,  Jia Deng,  M. de Wergifosse,  M. Diedenhofen,  Hainam Do,  
 S. Ehlert,  Po-Tung Fang,  S. Fatehi,  Qingguo Feng,  J. Gayvert,  
 Qinghui Ge,  G. Gidofalvi,  M. Goldey,  J. Gomes,  C. Gonzalez-Espinoza,  
 S. Gulania,  A. Gunina,  M. W. D. Hanson-Heine,  P. H. P. Harbach,  
 A. W. Hauser,  M. F. Herbst,  M. Hernandez Vera,  M. Hodecker,  
 Z. C. Holden,  S. Houck,  Xunkun Huang,  Kerwin Hui,  B. C. Huynh,  
 M. Ivanov,  Hyunjun Ji,  Hanjie Jiang,  B. Kaduk,  S. Kaehler,  
 K. Khistyaev,  Jaehoon Kim,  P. Klunzinger,  Z. Koczor-Benda,  
 Joong Hoon Koh,  D. Kosenkov,  L. Koulias,  T. Kowalczyk,  C. M. Krauter,  
 K. Kue,  A. Kunitsa,  T. Kus,  A. Landau,  K. V. Lawler,  D. Lefrancois,  
 S. Lehtola,  Rain Li,  Yi-Pei Li,  Jiashu Liang,  M. Liebenthal,  
 Hung-Hsuan Lin,  You-Sheng Lin,  Fenglai Liu,  Kuan-Yu Liu,  
 M. Loipersberger,  A. Luenser,  A. Manjanath,  P. Manohar,  E. Mansoor,  
 S. F. Manzer,  Shan-Ping Mao,  A. V. Marenich,  T. Markovich,  S. Mason,  
 S. A. Maurer,  P. F. McLaughlin,  M. F. S. J. Menger,  J.-M. Mewes,  
 S. A. Mewes,  P. Morgante,  J. W. Mullinax,  T. S. Nguyen-Beck,  
 K. J. Oosterbaan,  G. Paran,  Alexander C. Paul,  Suranjan K. Paul,  
 F. Pavosevic,  Zheng Pei,  S. Prager,  E. I. Proynov,  E. Ramos,  B. Rana,  
 A. E. Rask,  A. Rettig,  R. M. Richard,  F. Rob,  E. Rossomme,  T. Scheele,  
 M. Scheurer,  M. Schneider,  N. Sergueev,  S. M. Sharada,  W. Skomorowski,  
 D. W. Small,  C. J. Stein,  Yu-Chuan Su,  E. J. Sundstrom,  Zhen Tao,  
 J. Thirman,  T. Tsuchimochi,  N. M. Tubman,  S. P. Veccham,  O. Vydrov,  
 J. Wenzel,  J. Witte,  A. Yamada,  Kun Yao,  S. Yeganeh,  S. R. Yost,  
 A. Zech,  Igor Ying Zhang,  Xing Zhang,  Yu Zhang,  D. Zuev,  
 A. Aspuru-Guzik,  A. T. Bell,  N. A. Besley,  K. B. Bravaya,  B. R. Brooks,  
 D. Casanova,  Jeng-Da Chai,  S. Coriani,  C. J. Cramer,  
 A. E. DePrince, III,  R. A. DiStasio Jr.,  A. Dreuw,  B. D. Dunietz,  
 T. R. Furlani,  W. A. Goddard III,  S. Grimme,  S. Hammes-Schiffer,  
 T. Head-Gordon,  W. J. Hehre,  Chao-Ping Hsu,  T.-C. Jagau,  Yousung Jung,  
 A. Klamt,  Jing Kong,  D. S. Lambrecht,  WanZhen Liang,  N. J. Mayhall,  
 C. W. McCurdy,  J. B. Neaton,  C. Ochsenfeld,  J. A. Parkhill,  R. Peverati,  
 V. A. Rassolov,  Yihan Shao,  L. V. Slipchenko,  T. Stauch,  R. P. Steele,  
 J. E. Subotnik,  A. J. W. Thom,  A. Tkatchenko,  D. G. Truhlar,  
 T. Van Voorhis,  T. A. Wesolowski,  K. B. Whaley,  H. L. Woodcock III,  
 P. M. Zimmerman,  S. Faraji,  P. M. W. Gill,  M. Head-Gordon,  
 J. M. Herbert,  A. I. Krylov

 Contributors to earlier versions of Q-Chem not listed above: 
 R. D. Adamson,  B. Austin,  R. Baer,  J. Baker,  G. J. O. Beran,  
 K. Brandhorst,  S. T. Brown,  E. F. C. Byrd,  A. K. Chakraborty,  
 G. K. L. Chan,  Chun-Min Chang,  Yunqing Chen,  C.-L. Cheng,  
 Siu Hung Chien,  D. M. Chipman,  D. L. Crittenden,  H. Dachsel,  
 R. J. Doerksen,  A. D. Dutoi,  R. G. Edgar,  J. Fosso-Tande,  
 L. Fusti-Molnar,  D. Ghosh,  A. Ghysels,  A. Golubeva-Zadorozhnaya,  
 J. Gonthier,  M. S. Gordon,  S. R. Gwaltney,  G. Hawkins,  J. E. Herr,  
 A. Heyden,  S. Hirata,  E. G. Hohenstein,  G. Kedziora,  F. J. Keil,  
 C. Kelley,  Jihan Kim,  R. A. King,  R. Z. Khaliullin,  P. P. Korambath,  
 W. Kurlancheek,  A. Laurent,  A. M. Lee,  M. S. Lee,  S. V. Levchenko,  
 Ching Yeh Lin,  D. Liotard,  E. Livshits,  R. C. Lochan,  I. Lotan,  
 L. A. Martinez-Martinez,  P. E. Maslen,  N. Nair,  D. P. O'Neill,  
 D. Neuhauser,  E. Neuscamman,  C. M. Oana,  R. Olivares-Amaya,  R. Olson,  
 T. M. Perrine,  B. Peters,  P. A. Pieniazek,  A. Prociuk,  Y. M. Rhee,  
 J. Ritchie,  M. A. Rohrdanz,  E. Rosta,  N. J. Russ,  H. F. Schaefer III,  
 M. W. Schmidt,  N. E. Schultz,  S. Sharma,  N. Shenvi,  C. D. Sherrill,  
 A. C. Simmonett,  A. Sodt,  T. Stein,  D. Stuck,  K. S. Thanthiriwatte,  
 V. Vanovschi,  L. Vogt,  Tao Wang,  A. Warshel,  M. A. Watson,  
 C. F. Williams,  Q. Wu,  X. Xu,  Jun Yang,  W. Zhang,  Yan Zhao

 Please cite Q-Chem as follows:
 Y. Shao et al., Mol. Phys. 113, 184-215 (2015)
 DOI: 10.1080/00268976.2014.952696

 Q-Chem 5.4.0 for Intel X86 EM64T Linux

 Parts of Q-Chem use Armadillo 9.800.1 (Horizon Scraper).
 http://arma.sourceforge.net/

 Q-Chem begins on Sun Sep 24 16:39:01 2023  

 Host: 
0

     Scratch files written to ./qchem752242//
 May1621 |scratch|qcdevops|jenkins|workspace|build_RNUM    
 Parallel job on  1  processors
 Processing $rem in /cm/shared/apps/spack/cpu/opt/spack/linux-centos8-zen2/gcc-10.2.0/qchem-5.4-akfmr7b3t57bfs6qan3padb2wnb2i7cl/config/preferences:
 Processing $rem in /home/rramji/.qchemrc:
 Symmetry turned off for PCM/SM12/SMD calculation
 Core orbitals will be frozen

 Checking the input file for inconsistencies... 	...done.

 Q-Chem warning in module forms1/BasisType.C, line 2236:

 You are not using the predefined 5D/6D in this basis set.


--------------------------------------------------------------
User input:
--------------------------------------------------------------
$molecule
0 1
C	-0.208886	-8.519741	0.174379
C	0.472151	-7.635967	-0.650052
S	-1.193717	-7.651740	1.377058
C	0.225125	-6.261894	-0.353105
H	1.141594	-7.954738	-1.458961
C	-0.692811	-6.079985	0.740583
C	-1.039773	-4.798382	1.195546
C	0.817634	-5.153542	-1.023267
C	0.473754	-3.869626	-0.565262
C	-0.447350	-3.688927	0.527745
O	1.644483	-5.481075	-2.054917
O	-1.869424	-4.479871	2.232592
C	-2.939466	-5.356026	2.565470
H	-3.601405	-4.790496	3.248608
H	-2.587892	-6.268513	3.094885
H	-3.516052	-5.658187	1.664539
C	2.608813	-4.546999	-2.524564
H	3.270661	-5.107564	-3.211568
H	3.216646	-4.131473	-1.692342
H	2.141184	-3.712085	-3.090211
C	-0.690319	-2.314326	0.823402
S	0.985511	-2.295487	-1.194935
C	-0.000000	-1.435180	-0.000000
H	-1.361286	-1.993211	1.630024
H	-0.203444	-9.615985	0.171719
C	0.000000	0.000000	0.000000
S	0.451648	0.777811	1.510732
C	1.238377	2.142617	0.727629
C	0.454085	0.786559	-1.064665
C	1.147169	1.990043	-0.678287
C	0.422325	0.728240	-2.486150
C	1.054629	1.823683	-3.106916
S	1.675491	2.905718	-1.965735
C	1.185914	2.041729	-4.559972
O	0.721749	1.231802	-5.350277
O	1.830313	3.151386	-5.004375
F	-0.131347	-0.238577	-3.246290
C	2.018453	3.456956	-6.334976
H	2.571455	4.413580	-6.370268
H	1.052178	3.565244	-6.875609
H	2.601950	2.669768	-6.861878
H	1.698444	2.939346	1.321510
$end

$rem
JOBTYPE		SP
EXCHANGE	HF
CORRELATION	pRIMP2
BASIS		cc-pvtz
METHOD		rimp2
AUX_BASIS	rimp2-cc-pvtz
SOLVENT_METHOD	PCM
PURECART	11111
SYMMETRY	false
MEM_TOTAL	110000
SCF_CONVERGENCE = 6
THRESH=10
GUI = 2
$end



$solvent
dielectric 4.90
$end
--------------------------------------------------------------
 ----------------------------------------------------------------
             Standard Nuclear Orientation (Angstroms)
    I     Atom           X                Y                Z
 ----------------------------------------------------------------
    1      C      -0.2088860000    -8.5197410000     0.1743790000
    2      C       0.4721510000    -7.6359670000    -0.6500520000
    3      S      -1.1937170000    -7.6517400000     1.3770580000
    4      C       0.2251250000    -6.2618940000    -0.3531050000
    5      H       1.1415940000    -7.9547380000    -1.4589610000
    6      C      -0.6928110000    -6.0799850000     0.7405830000
    7      C      -1.0397730000    -4.7983820000     1.1955460000
    8      C       0.8176340000    -5.1535420000    -1.0232670000
    9      C       0.4737540000    -3.8696260000    -0.5652620000
   10      C      -0.4473500000    -3.6889270000     0.5277450000
   11      O       1.6444830000    -5.4810750000    -2.0549170000
   12      O      -1.8694240000    -4.4798710000     2.2325920000
   13      C      -2.9394660000    -5.3560260000     2.5654700000
   14      H      -3.6014050000    -4.7904960000     3.2486080000
   15      H      -2.5878920000    -6.2685130000     3.0948850000
   16      H      -3.5160520000    -5.6581870000     1.6645390000
   17      C       2.6088130000    -4.5469990000    -2.5245640000
   18      H       3.2706610000    -5.1075640000    -3.2115680000
   19      H       3.2166460000    -4.1314730000    -1.6923420000
   20      H       2.1411840000    -3.7120850000    -3.0902110000
   21      C      -0.6903190000    -2.3143260000     0.8234020000
   22      S       0.9855110000    -2.2954870000    -1.1949350000
   23      C       0.0000000000    -1.4351800000     0.0000000000
   24      H      -1.3612860000    -1.9932110000     1.6300240000
   25      H      -0.2034440000    -9.6159850000     0.1717190000
   26      C       0.0000000000     0.0000000000     0.0000000000
   27      S       0.4516480000     0.7778110000     1.5107320000
   28      C       1.2383770000     2.1426170000     0.7276290000
   29      C       0.4540850000     0.7865590000    -1.0646650000
   30      C       1.1471690000     1.9900430000    -0.6782870000
   31      C       0.4223250000     0.7282400000    -2.4861500000
   32      C       1.0546290000     1.8236830000    -3.1069160000
   33      S       1.6754910000     2.9057180000    -1.9657350000
   34      C       1.1859140000     2.0417290000    -4.5599720000
   35      O       0.7217490000     1.2318020000    -5.3502770000
   36      O       1.8303130000     3.1513860000    -5.0043750000
   37      F      -0.1313470000    -0.2385770000    -3.2462900000
   38      C       2.0184530000     3.4569560000    -6.3349760000
   39      H       2.5714550000     4.4135800000    -6.3702680000
   40      H       1.0521780000     3.5652440000    -6.8756090000
   41      H       2.6019500000     2.6697680000    -6.8618780000
   42      H       1.6984440000     2.9393460000     1.3215100000
 ----------------------------------------------------------------
 Nuclear Repulsion Energy =        3332.71386352 hartrees
 There are      119 alpha and      119 beta electrons
 Requested basis set is cc-pVTZ
 There are 376 shells and 1068 basis functions

 Total QAlloc Memory Limit 110000 MB
 Mega-Array Size       188 MB
 MEM_STATIC part       192 MB
 Discretize the solute cavity surface with Lebedev spheres
	Using 110 Lebedev grid points for each H atom
	Using 194 Lebedev grid points for other atoms
	Atomic van der Waals radii will be scaled by 1.20
 Remove points where switching function is < 1.0e-08
 Keep 2882 surface tesserae and discard 4174 interior tesserae
 Molecular Surface Area = 435.436 Angst**2
 Requested basis set is rimp2-cc-pVTZ
 There are 833 shells and 2903 basis functions
 A cutoff of  1.0D-10 yielded  31643 shell pairs
 There are    242839 function pairs (    315201 Cartesian)
 Smallest overlap matrix eigenvalue = 2.17E-05

 Scale SEOQF with 1.000000e-01/1.000000e-02/1.000000e-02

 Standard Electronic Orientation quadrupole field applied
 Nucleus-field energy     =     0.0000000290 hartrees
 Guess from superposition of atomic densities
 Warning:  Energy on first SCF cycle will be non-variational
 SAD guess density has 238.000000 electrons

 -----------------------------------------------------------------------
  General SCF calculation program by
  Eric Jon Sundstrom, Paul Horn, Yuezhi Mao, Dmitri Zuev, Alec White,
  David Stuck, Shaama M.S., Shane Yost, Joonho Lee, David Small,
  Daniel Levine, Susi Lehtola, Hugh Burton, Evgeny Epifanovsky,
  Bang C. Huynh
 -----------------------------------------------------------------------
 Hartree-Fock
 using 64 threads for integral computing
 -------------------------------------------------------
 OpenMP Integral computing Module                
 Release: version 1.0, May 2013, Q-Chem Inc. Pittsburgh 
 -------------------------------------------------------
 A restricted SCF calculation will be
 performed using DIIS
 SCF converges when DIIS error is below 1.0e-06
 ---------------------------------------
  Cycle       Energy         DIIS error
 ---------------------------------------
    1   -2765.5633740292      1.77e-02  
    2   -2753.8425177992      1.58e-03  
    3   -2754.1823038058      8.88e-04  
    4   -2754.2677757106      2.55e-04  
    5   -2754.2794698541      6.82e-05  
    6   -2754.2805593722      2.40e-05  
    7   -2754.2808051418      1.16e-05  
    8   -2754.2808884160      4.62e-06  
    9   -2754.2809063394      2.01e-06  
   10   -2754.2809090969      8.55e-07  Convergence criterion met
 ---------------------------------------
 SCF time:   CPU 6711.33s  wall 243.00s 

************** Final PCM Free Energy Summary **************
 G_electrostatic  =      -0.02026091 hartree =     -12.71391086 kcal/mol
 G_cavitation     =       0.00000000 hartree =       0.00000000 kcal/mol
 G_dispersion     =       0.00000000 hartree =       0.00000000 kcal/mol
 G_repulsion      =       0.00000000 hartree =       0.00000000 kcal/mol
 --------------------------------------------------
 Non-electrostatic Free Energy =       0.00000000 hartree =       0.00000000 kcal/mol
 Total                         =      -0.02026091 hartree =     -12.71391086 kcal/mol
 --------------------------------------------------
 SCF Energy (H0 + V/2)                       =   -2754.28090910 
 Solute Internal Energy (H0)                 =   -2754.26064819 
 Total Free Energy (H0 + V/2 + non-elec)     =   -2754.28090910 hartree
                                             = -1728337.35625281 kcal/mol
***********************************************************

 SCF   energy in the final basis set =    -2754.2809090969
 Total energy in the final basis set =    -2754.2809090969


 --------------------------------------------------------------
  Generalized many-body perturbation theory program
  by Joonho Lee, Fazle Rob, Xintian Feng, Evgeny Epifanovsky

 No regularization used 
 (reg. param. = 0.0000e+00)
  (P|Q)^-1/2 Time:  CPU 169.11 s  wall 3.40 s

 In RI-MP2 calculation: 
 # of frozen core orbitals: 45

 Components of the RIMP2 correlation energy:
        aaaa    correlation energy =        -0.6722591221 a.u.
        abab    correlation energy =        -3.7157537948 a.u.
        bbbb    correlation energy =        -0.6722591221 a.u.
        non-Brillouin singles      =        -0.0000000000 a.u.
        total same-spin energy     =        -1.3445182442 a.u.
        total opposite-spin energy =        -3.7157537948 a.u.

 Total  RIMP2   correlation energy =        -5.0602720390 a.u.
        RIMP2         total energy =     -2759.3411811359 a.u.

 RI-MP2 Energy Time:  CPU 3071.32 s  wall 53.84 s
 
 --------------------------------------------------------------
 
                    Orbital Energies (a.u.)
 --------------------------------------------------------------
 
 Alpha MOs
 -- Occupied --
-92.0163 -91.9977 -91.9882 -91.9856 -26.3339 -20.6130 -20.5916 -20.5907
-20.5516 -11.4118 -11.3778 -11.3185 -11.3162 -11.3042 -11.3011 -11.3007
-11.2981 -11.2949 -11.2890 -11.2863 -11.2857 -11.2849 -11.2847 -11.2832
-11.2787 -11.2603 -11.2575 -11.2527 -11.2493  -9.0147  -9.0016  -8.9888
 -8.9855  -6.6954  -6.6947  -6.6943  -6.6829  -6.6822  -6.6809  -6.6697
 -6.6690  -6.6681  -6.6665  -6.6659  -6.6650  -1.6476  -1.4729  -1.4157
 -1.4134  -1.3684  -1.2364  -1.1950  -1.1685  -1.1430  -1.0842  -1.0515
 -1.0484  -1.0296  -1.0015  -0.9927  -0.9729  -0.9601  -0.9497  -0.9388
 -0.8951  -0.8710  -0.8490  -0.8077  -0.7925  -0.7869  -0.7753  -0.7648
 -0.7570  -0.7318  -0.7190  -0.7159  -0.6998  -0.6894  -0.6821  -0.6793
 -0.6730  -0.6617  -0.6583  -0.6520  -0.6281  -0.6192  -0.6163  -0.6076
 -0.6042  -0.5969  -0.5833  -0.5750  -0.5673  -0.5638  -0.5571  -0.5515
 -0.5321  -0.5275  -0.5240  -0.5158  -0.5146  -0.5081  -0.5022  -0.4961
 -0.4879  -0.4851  -0.4764  -0.4673  -0.4626  -0.4621  -0.4590  -0.4165
 -0.3963  -0.3861  -0.3592  -0.3495  -0.3216  -0.2864  -0.2496
 -- Virtual --
  0.0102   0.0740   0.1124   0.1257   0.1343   0.1460   0.1494   0.1545
  0.1560   0.1598   0.1675   0.1684   0.1818   0.1833   0.1900   0.1935
  0.2045   0.2075   0.2101   0.2162   0.2202   0.2228   0.2241   0.2271
  0.2333   0.2381   0.2427   0.2544   0.2584   0.2699   0.2730   0.2832
  0.2914   0.3099   0.3141   0.3253   0.3352   0.3447   0.3454   0.3529
  0.3539   0.3618   0.3677   0.3728   0.3742   0.3791   0.3832   0.3854
  0.3890   0.3940   0.4006   0.4074   0.4106   0.4125   0.4183   0.4217
  0.4272   0.4360   0.4372   0.4424   0.4487   0.4510   0.4528   0.4574
  0.4603   0.4618   0.4692   0.4728   0.4791   0.4845   0.4857   0.4948
  0.4962   0.5019   0.5041   0.5091   0.5141   0.5182   0.5207   0.5233
  0.5284   0.5332   0.5390   0.5429   0.5441   0.5465   0.5502   0.5541
  0.5566   0.5631   0.5648   0.5680   0.5693   0.5748   0.5773   0.5827
  0.5854   0.5902   0.5929   0.5965   0.5996   0.6025   0.6104   0.6123
  0.6154   0.6179   0.6193   0.6233   0.6272   0.6297   0.6306   0.6365
  0.6391   0.6432   0.6454   0.6481   0.6512   0.6536   0.6629   0.6654
  0.6734   0.6803   0.6834   0.6851   0.6952   0.6974   0.6996   0.7031
  0.7087   0.7164   0.7191   0.7295   0.7332   0.7399   0.7452   0.7550
  0.7582   0.7632   0.7696   0.7761   0.7793   0.7897   0.7919   0.7986
  0.8035   0.8088   0.8167   0.8241   0.8299   0.8325   0.8386   0.8442
  0.8465   0.8555   0.8696   0.8728   0.8775   0.8795   0.8888   0.8978
  0.9011   0.9028   0.9055   0.9122   0.9153   0.9166   0.9215   0.9257
  0.9283   0.9349   0.9387   0.9438   0.9502   0.9526   0.9613   0.9679
  0.9708   0.9767   0.9814   0.9823   0.9927   1.0003   1.0012   1.0063
  1.0080   1.0108   1.0169   1.0231   1.0285   1.0300   1.0364   1.0398
  1.0435   1.0489   1.0558   1.0623   1.0667   1.0712   1.0726   1.0794
  1.0839   1.0907   1.0958   1.0965   1.1020   1.1043   1.1117   1.1148
  1.1186   1.1282   1.1319   1.1400   1.1480   1.1494   1.1549   1.1621
  1.1644   1.1715   1.1739   1.1771   1.1831   1.1862   1.1867   1.1956
  1.1992   1.2059   1.2082   1.2165   1.2173   1.2227   1.2240   1.2319
  1.2392   1.2410   1.2460   1.2530   1.2577   1.2601   1.2703   1.2725
  1.2753   1.2809   1.2923   1.3040   1.3084   1.3155   1.3243   1.3278
  1.3323   1.3399   1.3410   1.3453   1.3498   1.3609   1.3656   1.3702
  1.3746   1.3809   1.3893   1.3925   1.4048   1.4066   1.4119   1.4189
  1.4308   1.4437   1.4557   1.4589   1.4754   1.4809   1.4843   1.4895
  1.4925   1.4964   1.5018   1.5065   1.5093   1.5128   1.5152   1.5253
  1.5371   1.5397   1.5404   1.5442   1.5512   1.5560   1.5604   1.5611
  1.5710   1.5876   1.5894   1.5967   1.6045   1.6199   1.6239   1.6307
  1.6414   1.6463   1.6553   1.6605   1.6621   1.6687   1.6739   1.6827
  1.6881   1.7014   1.7065   1.7081   1.7181   1.7282   1.7344   1.7389
  1.7562   1.7651   1.7696   1.7861   1.7907   1.8025   1.8091   1.8172
  1.8230   1.8317   1.8399   1.8461   1.8628   1.8660   1.8708   1.8726
  1.8748   1.8845   1.8980   1.9064   1.9134   1.9183   1.9318   1.9332
  1.9409   1.9433   1.9522   1.9601   1.9695   1.9756   1.9853   1.9905
  2.0026   2.0116   2.0208   2.0244   2.0345   2.0450   2.0525   2.0645
  2.0757   2.0923   2.0974   2.1027   2.1193   2.1225   2.1307   2.1413
  2.1489   2.1551   2.1586   2.1664   2.1706   2.1780   2.1866   2.1886
  2.1983   2.2013   2.2101   2.2174   2.2298   2.2356   2.2385   2.2462
  2.2469   2.2571   2.2622   2.2716   2.2754   2.2815   2.2896   2.3008
  2.3046   2.3113   2.3160   2.3190   2.3368   2.3460   2.3558   2.3621
  2.3775   2.3810   2.3882   2.3958   2.4040   2.4054   2.4163   2.4299
  2.4340   2.4484   2.4516   2.4562   2.4650   2.4764   2.4845   2.4912
  2.5079   2.5178   2.5273   2.5282   2.5318   2.5456   2.5559   2.5582
  2.5792   2.5833   2.5915   2.5948   2.6062   2.6152   2.6178   2.6198
  2.6251   2.6356   2.6378   2.6472   2.6507   2.6617   2.6658   2.6726
  2.6746   2.6876   2.6933   2.6981   2.7001   2.7022   2.7146   2.7220
  2.7231   2.7287   2.7424   2.7440   2.7468   2.7515   2.7584   2.7676
  2.7759   2.7794   2.7900   2.7955   2.8009   2.8059   2.8157   2.8210
  2.8337   2.8391   2.8505   2.8510   2.8534   2.8603   2.8705   2.8753
  2.8765   2.8833   2.8856   2.8928   2.9007   2.9253   2.9322   2.9344
  2.9448   2.9545   2.9604   2.9666   2.9739   2.9834   3.0007   3.0068
  3.0101   3.0172   3.0211   3.0320   3.0365   3.0431   3.0442   3.0465
  3.0558   3.0609   3.0767   3.0820   3.0893   3.0912   3.0947   3.0989
  3.1044   3.1111   3.1191   3.1214   3.1326   3.1442   3.1463   3.1487
  3.1535   3.1557   3.1588   3.1676   3.1746   3.1774   3.1826   3.1842
  3.1892   3.1984   3.2082   3.2097   3.2156   3.2180   3.2263   3.2299
  3.2365   3.2407   3.2469   3.2491   3.2520   3.2549   3.2613   3.2686
  3.2750   3.2812   3.2830   3.2870   3.2910   3.2942   3.2992   3.3080
  3.3086   3.3144   3.3252   3.3284   3.3363   3.3445   3.3468   3.3501
  3.3522   3.3569   3.3583   3.3622   3.3660   3.3671   3.3730   3.3780
  3.3868   3.3886   3.3922   3.3951   3.3987   3.4072   3.4116   3.4198
  3.4284   3.4330   3.4377   3.4403   3.4429   3.4449   3.4497   3.4547
  3.4604   3.4625   3.4677   3.4750   3.4798   3.4830   3.4915   3.4957
  3.5015   3.5104   3.5179   3.5230   3.5252   3.5338   3.5365   3.5442
  3.5479   3.5508   3.5590   3.5641   3.5694   3.5764   3.5817   3.5888
  3.5909   3.5948   3.5978   3.6012   3.6057   3.6106   3.6166   3.6250
  3.6297   3.6349   3.6443   3.6533   3.6547   3.6598   3.6631   3.6674
  3.6725   3.6758   3.6827   3.6860   3.6917   3.6936   3.7053   3.7079
  3.7126   3.7151   3.7157   3.7247   3.7281   3.7300   3.7355   3.7417
  3.7461   3.7495   3.7550   3.7623   3.7692   3.7728   3.7817   3.7875
  3.7939   3.8045   3.8085   3.8104   3.8142   3.8230   3.8296   3.8338
  3.8372   3.8431   3.8492   3.8530   3.8577   3.8611   3.8651   3.8751
  3.8809   3.8897   3.8935   3.8991   3.9047   3.9105   3.9199   3.9214
  3.9350   3.9417   3.9470   3.9512   3.9566   3.9689   3.9706   3.9843
  3.9884   3.9931   4.0065   4.0136   4.0200   4.0220   4.0306   4.0383
  4.0430   4.0550   4.0577   4.0720   4.0737   4.0831   4.0881   4.0953
  4.1023   4.1053   4.1174   4.1233   4.1355   4.1426   4.1454   4.1596
  4.1651   4.1690   4.1756   4.1800   4.1852   4.1872   4.1908   4.2043
  4.2133   4.2180   4.2294   4.2401   4.2531   4.2635   4.2702   4.2802
  4.2978   4.3001   4.3055   4.3116   4.3204   4.3265   4.3350   4.3476
  4.3549   4.3645   4.3710   4.3763   4.3844   4.3934   4.3947   4.4019
  4.4110   4.4117   4.4173   4.4258   4.4279   4.4356   4.4479   4.4575
  4.4639   4.4725   4.4902   4.4935   4.4973   4.5063   4.5072   4.5180
  4.5313   4.5346   4.5455   4.5553   4.5577   4.5692   4.5764   4.5869
  4.6072   4.6081   4.6244   4.6279   4.6365   4.6439   4.6447   4.6504
  4.6531   4.6682   4.6741   4.6763   4.6878   4.7051   4.7185   4.7324
  4.7366   4.7478   4.7594   4.7709   4.7815   4.7882   4.7980   4.8137
  4.8218   4.8311   4.8513   4.8547   4.8737   4.8806   4.9133   4.9213
  4.9334   4.9477   4.9555   4.9623   4.9658   4.9842   4.9887   5.0014
  5.0063   5.0117   5.0167   5.0387   5.0482   5.0577   5.0618   5.0705
  5.0954   5.1111   5.1276   5.1480   5.1659   5.1734   5.1797   5.1913
  5.2005   5.2169   5.2202   5.2333   5.2540   5.2566   5.2588   5.2828
  5.3007   5.3117   5.3268   5.3272   5.3425   5.3547   5.3558   5.3676
  5.3800   5.3921   5.3954   5.3994   5.4108   5.4434   5.4591   5.4643
  5.4726   5.4795   5.4929   5.5089   5.5128   5.5230   5.5403   5.5589
  5.5727   5.5831   5.5891   5.6066   5.6165   5.6305   5.6390   5.6522
  5.7176   5.7332   5.7917   5.7999   5.8176   5.8398   5.8549   5.8587
  5.8747   5.8879   5.9059   5.9686   5.9704   5.9878   5.9962   6.0250
  6.0700   6.0873   6.1183   6.1330   6.1683   6.1731   6.1830   6.1849
  6.2391   6.2592   6.2746   6.2756   6.2959   6.3078   6.3230   6.4041
  6.4271   6.4488   6.4829   6.5137   6.5493   6.5554   6.5579   6.6542
  6.6669   6.6759   6.7031   6.7356   6.7413   6.8005   6.8425   6.8593
  6.8804   6.8940   6.9900   7.1221   7.1385   7.1775   7.2101   7.2167
  7.2344   7.3207   7.3254   7.3334   7.3745   7.3764   7.4265   7.4617
  7.4796   7.4873   7.4896   7.5194   7.5478   7.6063   7.7199   7.7706
  7.7971   7.8305   7.9030   7.9194   7.9475   8.0048   8.1073   8.1890
  8.5426   8.9401   9.0083   9.3680   9.5010   9.6987  10.2688  10.5441
 11.2347  11.3521  11.9331  11.9864  12.1301  12.2006  12.3795  12.5714
 12.6282  12.7149  12.9542  13.2598  13.3007  13.5790  13.8472  13.9058
 13.9138  14.0214  14.1695  14.4889  15.2026
 --------------------------------------------------------------
 
          Ground-State Mulliken Net Atomic Charges

     Atom                 Charge (a.u.)
  ----------------------------------------
      1 C                    -0.190468
      2 C                    -0.254136
      3 S                    -0.024385
      4 C                    -0.017343
      5 H                     0.196296
      6 C                    -0.025272
      7 C                     0.234160
      8 C                     0.241599
      9 C                    -0.044679
     10 C                    -0.004572
     11 O                    -0.333140
     12 O                    -0.340307
     13 C                    -0.085546
     14 H                     0.122056
     15 H                     0.090761
     16 H                     0.094104
     17 C                    -0.088994
     18 H                     0.125587
     19 H                     0.094044
     20 H                     0.091120
     21 C                    -0.271218
     22 S                    -0.012146
     23 C                     0.005068
     24 H                     0.193725
     25 H                     0.206108
     26 C                     0.003592
     27 S                     0.129139
     28 C                    -0.223708
     29 C                    -0.130512
     30 C                    -0.008193
     31 C                     0.364335
     32 C                    -0.140894
     33 S                     0.049782
     34 C                     0.459515
     35 O                    -0.447330
     36 O                    -0.297796
     37 F                    -0.207903
     38 C                    -0.054840
     39 H                     0.116878
     40 H                     0.084948
     41 H                     0.084673
     42 H                     0.215892
  ----------------------------------------
  Sum of atomic charges =     0.000000

 -----------------------------------------------------------------
                    Cartesian Multipole Moments
 -----------------------------------------------------------------
    Charge (ESU x 10^10)
                -0.0000
    Dipole Moment (Debye)
         X       2.0105      Y       2.0191      Z       2.7642
       Tot       3.9698
    Quadrupole Moments (Debye-Ang)
        XX    -181.4480     XY       8.3828     YY    -164.6611
        XZ     -17.7554     YZ      -8.3299     ZZ    -196.4985
    Octopole Moments (Debye-Ang^2)
       XXX    -220.5137    XXY     353.5878    XYY     -58.1615
       YYY     958.8602    XXZ     158.8995    XYZ      37.4219
       YYZ     129.2857    XZZ     -14.6253    YZZ     476.0162
       ZZZ     517.8792
    Hexadecapole Moments (Debye-Ang^3)
      XXXX   -2035.7825   XXXY    -968.6031   XXYY   -3652.1358
      XYYY    -845.6077   YYYY  -18181.7623   XXXZ    1188.8690
      XXYZ     455.4286   XYYZ      34.0495   YYYZ    1434.3985
      XXZZ   -1264.8612   XYZZ     -93.6236   YYZZ   -4260.0926
      XZZZ     878.8670   YZZZ     973.2963   ZZZZ   -6751.4642
 -----------------------------------------------------------------
 Total job time:  303.24s(wall), 9909.98s(cpu) 
 Sun Sep 24 16:44:05 2023

        *************************************************************
        *                                                           *
        *  Thank you very much for using Q-Chem.  Have a nice day.  *
        *                                                           *
        *************************************************************


0 sent ACK to 0 
now end server 0 ... 
cleanup process ... done
remove work dirs ./qchem752242.0 -- ./qchem752242.0
rm -rf ./qchem752242.0
rm -rf ./qchem752242
