You are running Q-Chem version: 5.4.0

#
# job setting
#
local host:  exp-4-17
current dir: /expanse/lustre/projects/csd626/rramji/aromodel/PTB7_fin/Rotation_Test
input file:  fin_bdt_Phi_15_Theta_130_fin_ftt.qcin
output file: 
nprocs     : 1
nthreads   : 64
#
# qchem installation setting
#
QC:          /cm/shared/apps/spack/cpu/opt/spack/linux-centos8-zen2/gcc-10.2.0/qchem-5.4-akfmr7b3t57bfs6qan3padb2wnb2i7cl
QCAUX:       /cm/shared/apps/spack/cpu/opt/spack/linux-centos8-zen2/gcc-10.2.0/qchem-5.4-akfmr7b3t57bfs6qan3padb2wnb2i7cl/qcaux
QCPROG:      /cm/shared/apps/spack/cpu/opt/spack/linux-centos8-zen2/gcc-10.2.0/qchem-5.4-akfmr7b3t57bfs6qan3padb2wnb2i7cl/exe/qcprog.exe
QCPROG_S:    /cm/shared/apps/spack/cpu/opt/spack/linux-centos8-zen2/gcc-10.2.0/qchem-5.4-akfmr7b3t57bfs6qan3padb2wnb2i7cl/exe/qcprog.exe_s
PARALLEL:    -DPARALLEL
QCMPI:       mpich
#
# qchem directory setting
#
qcrun:       qchem1298594
QCSCRATCH:   .
QCLOCALSCR:  
QCTMPDIR:    .
QCFILEPREF:  ./qchem1298594
QCSAVEDIR:   
workdirs:    ./qchem1298594
workdir0:    ./qchem1298594
partmpdirs =  
#
# parallel setting
#
QCRSH:           ssh
QCMPI:           mpich
QCMPIRUN:        /cm/shared/apps/spack/cpu/opt/spack/linux-centos8-zen2/gcc-10.2.0/qchem-5.4-akfmr7b3t57bfs6qan3padb2wnb2i7cl/bin/mpi/mpirun_qchem
QCMACHINEFILE:   ./qchem1298594/hostfile
exp-4-17

#
# env setting
#
exported envs:   QC QCAUX QCSCRATCH QCRUNNAME QCFILEPREF QCPROG QCPROG_S GUIFILE

Running Job 1 of 1 fin_bdt_Phi_15_Theta_130_fin_ftt.qcin
qchem fin_bdt_Phi_15_Theta_130_fin_ftt.qcin_1298594.0 ./qchem1298594/ 1
/cm/shared/apps/spack/cpu/opt/spack/linux-centos8-zen2/gcc-10.2.0/qchem-5.4-akfmr7b3t57bfs6qan3padb2wnb2i7cl/bin/mpi/mpirun_qchem -machinefile ./qchem1298594/hostfile -np 1 /cm/shared/apps/spack/cpu/opt/spack/linux-centos8-zen2/gcc-10.2.0/qchem-5.4-akfmr7b3t57bfs6qan3padb2wnb2i7cl/exe/qcprog.exe fin_bdt_Phi_15_Theta_130_fin_ftt.qcin_1298594.0 ./qchem1298594/

Process 0 of 1 is on exp-4-17 - thread support 0
initial socket setup ...start
initial socket setup ...done 
now start server 0 ... 
                  Welcome to Q-Chem
     A Quantum Leap Into The Future Of Chemistry


 Q-Chem 5.4, Q-Chem, Inc., Pleasanton, CA (2021)

 License issued to: University of California, San Diego (site)

 E. Epifanovsky,  A. T. B. Gilbert,  Xintian Feng,  Joonho Lee,  Yuezhi Mao,  
 N. Mardirossian,  P. Pokhilko,  A. White,  M. Wormit,  M. P. Coons,  
 A. L. Dempwolff,  Zhengting Gan,  D. Hait,  P. R. Horn,  L. D. Jacobson,  
 I. Kaliman,  J. Kussmann,  A. W. Lange,  Ka Un Lao,  D. S. Levine,  Jie Liu,  
 S. C. McKenzie,  A. F. Morrison,  K. Nanda,  F. Plasser,  D. R. Rehn,  
 M. L. Vidal,  Zhi-Qiang You,  Ying Zhu,  B. Alam,  B. Albrecht,  
 A. Aldossary,  E. Alguire,  J. H. Andersen,  D. Barton,  K. Begam,  A. Behn,  
 Y. A. Bernard,  E. J. Berquist,  H. Burton,  A. Carreras,  K. Carter-Fenk,  
 R. Chakraborty,  A. D. Chien,  K. D. Closser,  V. Cofer-Shabica,  
 S. Dasgupta,  Jia Deng,  M. de Wergifosse,  M. Diedenhofen,  Hainam Do,  
 S. Ehlert,  Po-Tung Fang,  S. Fatehi,  Qingguo Feng,  J. Gayvert,  
 Qinghui Ge,  G. Gidofalvi,  M. Goldey,  J. Gomes,  C. Gonzalez-Espinoza,  
 S. Gulania,  A. Gunina,  M. W. D. Hanson-Heine,  P. H. P. Harbach,  
 A. W. Hauser,  M. F. Herbst,  M. Hernandez Vera,  M. Hodecker,  
 Z. C. Holden,  S. Houck,  Xunkun Huang,  Kerwin Hui,  B. C. Huynh,  
 M. Ivanov,  Hyunjun Ji,  Hanjie Jiang,  B. Kaduk,  S. Kaehler,  
 K. Khistyaev,  Jaehoon Kim,  P. Klunzinger,  Z. Koczor-Benda,  
 Joong Hoon Koh,  D. Kosenkov,  L. Koulias,  T. Kowalczyk,  C. M. Krauter,  
 K. Kue,  A. Kunitsa,  T. Kus,  A. Landau,  K. V. Lawler,  D. Lefrancois,  
 S. Lehtola,  Rain Li,  Yi-Pei Li,  Jiashu Liang,  M. Liebenthal,  
 Hung-Hsuan Lin,  You-Sheng Lin,  Fenglai Liu,  Kuan-Yu Liu,  
 M. Loipersberger,  A. Luenser,  A. Manjanath,  P. Manohar,  E. Mansoor,  
 S. F. Manzer,  Shan-Ping Mao,  A. V. Marenich,  T. Markovich,  S. Mason,  
 S. A. Maurer,  P. F. McLaughlin,  M. F. S. J. Menger,  J.-M. Mewes,  
 S. A. Mewes,  P. Morgante,  J. W. Mullinax,  T. S. Nguyen-Beck,  
 K. J. Oosterbaan,  G. Paran,  Alexander C. Paul,  Suranjan K. Paul,  
 F. Pavosevic,  Zheng Pei,  S. Prager,  E. I. Proynov,  E. Ramos,  B. Rana,  
 A. E. Rask,  A. Rettig,  R. M. Richard,  F. Rob,  E. Rossomme,  T. Scheele,  
 M. Scheurer,  M. Schneider,  N. Sergueev,  S. M. Sharada,  W. Skomorowski,  
 D. W. Small,  C. J. Stein,  Yu-Chuan Su,  E. J. Sundstrom,  Zhen Tao,  
 J. Thirman,  T. Tsuchimochi,  N. M. Tubman,  S. P. Veccham,  O. Vydrov,  
 J. Wenzel,  J. Witte,  A. Yamada,  Kun Yao,  S. Yeganeh,  S. R. Yost,  
 A. Zech,  Igor Ying Zhang,  Xing Zhang,  Yu Zhang,  D. Zuev,  
 A. Aspuru-Guzik,  A. T. Bell,  N. A. Besley,  K. B. Bravaya,  B. R. Brooks,  
 D. Casanova,  Jeng-Da Chai,  S. Coriani,  C. J. Cramer,  
 A. E. DePrince, III,  R. A. DiStasio Jr.,  A. Dreuw,  B. D. Dunietz,  
 T. R. Furlani,  W. A. Goddard III,  S. Grimme,  S. Hammes-Schiffer,  
 T. Head-Gordon,  W. J. Hehre,  Chao-Ping Hsu,  T.-C. Jagau,  Yousung Jung,  
 A. Klamt,  Jing Kong,  D. S. Lambrecht,  WanZhen Liang,  N. J. Mayhall,  
 C. W. McCurdy,  J. B. Neaton,  C. Ochsenfeld,  J. A. Parkhill,  R. Peverati,  
 V. A. Rassolov,  Yihan Shao,  L. V. Slipchenko,  T. Stauch,  R. P. Steele,  
 J. E. Subotnik,  A. J. W. Thom,  A. Tkatchenko,  D. G. Truhlar,  
 T. Van Voorhis,  T. A. Wesolowski,  K. B. Whaley,  H. L. Woodcock III,  
 P. M. Zimmerman,  S. Faraji,  P. M. W. Gill,  M. Head-Gordon,  
 J. M. Herbert,  A. I. Krylov

 Contributors to earlier versions of Q-Chem not listed above: 
 R. D. Adamson,  B. Austin,  R. Baer,  J. Baker,  G. J. O. Beran,  
 K. Brandhorst,  S. T. Brown,  E. F. C. Byrd,  A. K. Chakraborty,  
 G. K. L. Chan,  Chun-Min Chang,  Yunqing Chen,  C.-L. Cheng,  
 Siu Hung Chien,  D. M. Chipman,  D. L. Crittenden,  H. Dachsel,  
 R. J. Doerksen,  A. D. Dutoi,  R. G. Edgar,  J. Fosso-Tande,  
 L. Fusti-Molnar,  D. Ghosh,  A. Ghysels,  A. Golubeva-Zadorozhnaya,  
 J. Gonthier,  M. S. Gordon,  S. R. Gwaltney,  G. Hawkins,  J. E. Herr,  
 A. Heyden,  S. Hirata,  E. G. Hohenstein,  G. Kedziora,  F. J. Keil,  
 C. Kelley,  Jihan Kim,  R. A. King,  R. Z. Khaliullin,  P. P. Korambath,  
 W. Kurlancheek,  A. Laurent,  A. M. Lee,  M. S. Lee,  S. V. Levchenko,  
 Ching Yeh Lin,  D. Liotard,  E. Livshits,  R. C. Lochan,  I. Lotan,  
 L. A. Martinez-Martinez,  P. E. Maslen,  N. Nair,  D. P. O'Neill,  
 D. Neuhauser,  E. Neuscamman,  C. M. Oana,  R. Olivares-Amaya,  R. Olson,  
 T. M. Perrine,  B. Peters,  P. A. Pieniazek,  A. Prociuk,  Y. M. Rhee,  
 J. Ritchie,  M. A. Rohrdanz,  E. Rosta,  N. J. Russ,  H. F. Schaefer III,  
 M. W. Schmidt,  N. E. Schultz,  S. Sharma,  N. Shenvi,  C. D. Sherrill,  
 A. C. Simmonett,  A. Sodt,  T. Stein,  D. Stuck,  K. S. Thanthiriwatte,  
 V. Vanovschi,  L. Vogt,  Tao Wang,  A. Warshel,  M. A. Watson,  
 C. F. Williams,  Q. Wu,  X. Xu,  Jun Yang,  W. Zhang,  Yan Zhao

 Please cite Q-Chem as follows:
 Y. Shao et al., Mol. Phys. 113, 184-215 (2015)
 DOI: 10.1080/00268976.2014.952696

 Q-Chem 5.4.0 for Intel X86 EM64T Linux

 Parts of Q-Chem use Armadillo 9.800.1 (Horizon Scraper).
 http://arma.sourceforge.net/

 Q-Chem begins on Tue Sep 26 18:34:55 2023  

 Host: 
0

     Scratch files written to ./qchem1298594//
 May1621 |scratch|qcdevops|jenkins|workspace|build_RNUM    
 Parallel job on  1  processors
 Processing $rem in /cm/shared/apps/spack/cpu/opt/spack/linux-centos8-zen2/gcc-10.2.0/qchem-5.4-akfmr7b3t57bfs6qan3padb2wnb2i7cl/config/preferences:
 Processing $rem in /home/rramji/.qchemrc:
 Symmetry turned off for PCM/SM12/SMD calculation
 Core orbitals will be frozen

 Checking the input file for inconsistencies... 	...done.

 Q-Chem warning in module forms1/BasisType.C, line 2236:

 You are not using the predefined 5D/6D in this basis set.


--------------------------------------------------------------
User input:
--------------------------------------------------------------
$molecule
0 1
C	-0.174379	-8.519741	-0.208886
C	0.650052	-7.635967	0.472151
S	-1.377058	-7.651740	-1.193717
C	0.353105	-6.261894	0.225125
H	1.458961	-7.954738	1.141594
C	-0.740583	-6.079985	-0.692811
C	-1.195546	-4.798382	-1.039773
C	1.023267	-5.153542	0.817634
C	0.565262	-3.869626	0.473754
C	-0.527745	-3.688927	-0.447350
O	2.054917	-5.481075	1.644483
O	-2.232592	-4.479871	-1.869424
C	-2.565470	-5.356026	-2.939466
H	-3.248608	-4.790496	-3.601405
H	-3.094885	-6.268513	-2.587892
H	-1.664539	-5.658187	-3.516052
C	2.524564	-4.546999	2.608813
H	3.211568	-5.107564	3.270661
H	1.692342	-4.131473	3.216646
H	3.090211	-3.712085	2.141184
C	-0.823402	-2.314326	-0.690319
S	1.194935	-2.295487	0.985511
C	0.000000	-1.435180	0.000000
H	-1.630024	-1.993211	-1.361286
H	-0.171719	-9.615985	-0.203444
C	0.000000	0.000000	0.000000
S	0.234946	0.868203	1.510732
C	0.641630	2.390125	0.727629
C	0.235036	0.877284	-1.064665
C	0.593019	2.219143	-0.678287
C	0.219452	0.812732	-2.486150
C	0.546689	2.034501	-3.106916
S	0.866345	3.240357	-1.965735
C	0.617067	2.279095	-4.559972
O	0.378342	1.376631	-5.350277
O	0.952308	3.517725	-5.004375
F	-0.065123	-0.264443	-3.246290
C	1.054950	3.861577	-6.334976
H	1.341516	4.928732	-6.370268
H	0.093573	3.716085	-6.875609
H	1.822303	3.252232	-6.861878
H	0.879812	3.278780	1.321510
$end

$rem
JOBTYPE		SP
EXCHANGE	HF
CORRELATION	pRIMP2
BASIS		cc-pvtz
METHOD		rimp2
AUX_BASIS	rimp2-cc-pvtz
SOLVENT_METHOD	PCM
PURECART	11111
SYMMETRY	false
MEM_TOTAL	110000
SCF_CONVERGENCE = 6
THRESH=10
GUI = 2
$end



$solvent
dielectric 4.90
$end
--------------------------------------------------------------
 ----------------------------------------------------------------
             Standard Nuclear Orientation (Angstroms)
    I     Atom           X                Y                Z
 ----------------------------------------------------------------
    1      C      -0.1743790000    -8.5197410000    -0.2088860000
    2      C       0.6500520000    -7.6359670000     0.4721510000
    3      S      -1.3770580000    -7.6517400000    -1.1937170000
    4      C       0.3531050000    -6.2618940000     0.2251250000
    5      H       1.4589610000    -7.9547380000     1.1415940000
    6      C      -0.7405830000    -6.0799850000    -0.6928110000
    7      C      -1.1955460000    -4.7983820000    -1.0397730000
    8      C       1.0232670000    -5.1535420000     0.8176340000
    9      C       0.5652620000    -3.8696260000     0.4737540000
   10      C      -0.5277450000    -3.6889270000    -0.4473500000
   11      O       2.0549170000    -5.4810750000     1.6444830000
   12      O      -2.2325920000    -4.4798710000    -1.8694240000
   13      C      -2.5654700000    -5.3560260000    -2.9394660000
   14      H      -3.2486080000    -4.7904960000    -3.6014050000
   15      H      -3.0948850000    -6.2685130000    -2.5878920000
   16      H      -1.6645390000    -5.6581870000    -3.5160520000
   17      C       2.5245640000    -4.5469990000     2.6088130000
   18      H       3.2115680000    -5.1075640000     3.2706610000
   19      H       1.6923420000    -4.1314730000     3.2166460000
   20      H       3.0902110000    -3.7120850000     2.1411840000
   21      C      -0.8234020000    -2.3143260000    -0.6903190000
   22      S       1.1949350000    -2.2954870000     0.9855110000
   23      C       0.0000000000    -1.4351800000     0.0000000000
   24      H      -1.6300240000    -1.9932110000    -1.3612860000
   25      H      -0.1717190000    -9.6159850000    -0.2034440000
   26      C       0.0000000000     0.0000000000     0.0000000000
   27      S       0.2349460000     0.8682030000     1.5107320000
   28      C       0.6416300000     2.3901250000     0.7276290000
   29      C       0.2350360000     0.8772840000    -1.0646650000
   30      C       0.5930190000     2.2191430000    -0.6782870000
   31      C       0.2194520000     0.8127320000    -2.4861500000
   32      C       0.5466890000     2.0345010000    -3.1069160000
   33      S       0.8663450000     3.2403570000    -1.9657350000
   34      C       0.6170670000     2.2790950000    -4.5599720000
   35      O       0.3783420000     1.3766310000    -5.3502770000
   36      O       0.9523080000     3.5177250000    -5.0043750000
   37      F      -0.0651230000    -0.2644430000    -3.2462900000
   38      C       1.0549500000     3.8615770000    -6.3349760000
   39      H       1.3415160000     4.9287320000    -6.3702680000
   40      H       0.0935730000     3.7160850000    -6.8756090000
   41      H       1.8223030000     3.2522320000    -6.8618780000
   42      H       0.8798120000     3.2787800000     1.3215100000
 ----------------------------------------------------------------
 Nuclear Repulsion Energy =        3306.15119270 hartrees
 There are      119 alpha and      119 beta electrons
 Requested basis set is cc-pVTZ
 There are 376 shells and 1068 basis functions

 Total QAlloc Memory Limit 110000 MB
 Mega-Array Size       188 MB
 MEM_STATIC part       192 MB
 Discretize the solute cavity surface with Lebedev spheres
	Using 110 Lebedev grid points for each H atom
	Using 194 Lebedev grid points for other atoms
	Atomic van der Waals radii will be scaled by 1.20
 Remove points where switching function is < 1.0e-08
 Keep 2898 surface tesserae and discard 4158 interior tesserae
 Molecular Surface Area = 439.488 Angst**2
 Requested basis set is rimp2-cc-pVTZ
 There are 833 shells and 2903 basis functions
 A cutoff of  1.0D-10 yielded  31228 shell pairs
 There are    239904 function pairs (    311572 Cartesian)
 Smallest overlap matrix eigenvalue = 2.21E-05

 Scale SEOQF with 1.000000e-01/1.000000e-02/1.000000e-02

 Standard Electronic Orientation quadrupole field applied
 Nucleus-field energy     =     0.0000000268 hartrees
 Guess from superposition of atomic densities
 Warning:  Energy on first SCF cycle will be non-variational
 SAD guess density has 238.000000 electrons

 -----------------------------------------------------------------------
  General SCF calculation program by
  Eric Jon Sundstrom, Paul Horn, Yuezhi Mao, Dmitri Zuev, Alec White,
  David Stuck, Shaama M.S., Shane Yost, Joonho Lee, David Small,
  Daniel Levine, Susi Lehtola, Hugh Burton, Evgeny Epifanovsky,
  Bang C. Huynh
 -----------------------------------------------------------------------
 Hartree-Fock
 using 64 threads for integral computing
 -------------------------------------------------------
 OpenMP Integral computing Module                
 Release: version 1.0, May 2013, Q-Chem Inc. Pittsburgh 
 -------------------------------------------------------
 A restricted SCF calculation will be
 performed using DIIS
 SCF converges when DIIS error is below 1.0e-06
 ---------------------------------------
  Cycle       Energy         DIIS error
 ---------------------------------------
    1   -2765.5367437596      1.77e-02  
    2   -2753.8562403285      1.57e-03  
    3   -2754.1960348245      8.83e-04  
    4   -2754.2804375839      2.54e-04  
    5   -2754.2920759831      6.82e-05  
    6   -2754.2931566782      2.39e-05  
    7   -2754.2933970613      1.15e-05  
    8   -2754.2934762702      4.44e-06  
    9   -2754.2934921098      1.92e-06  
   10   -2754.2934943239      7.93e-07  Convergence criterion met
 ---------------------------------------
 SCF time:   CPU 6471.78s  wall 247.00s 

************** Final PCM Free Energy Summary **************
 G_electrostatic  =      -0.01957990 hartree =     -12.28657361 kcal/mol
 G_cavitation     =       0.00000000 hartree =       0.00000000 kcal/mol
 G_dispersion     =       0.00000000 hartree =       0.00000000 kcal/mol
 G_repulsion      =       0.00000000 hartree =       0.00000000 kcal/mol
 --------------------------------------------------
 Non-electrostatic Free Energy =       0.00000000 hartree =       0.00000000 kcal/mol
 Total                         =      -0.01957990 hartree =     -12.28657361 kcal/mol
 --------------------------------------------------
 SCF Energy (H0 + V/2)                       =   -2754.29349432 
 Solute Internal Energy (H0)                 =   -2754.27391442 
 Total Free Energy (H0 + V/2 + non-elec)     =   -2754.29349432 hartree
                                             = -1728345.25360195 kcal/mol
***********************************************************

 SCF   energy in the final basis set =    -2754.2934943239
 Total energy in the final basis set =    -2754.2934943239


 --------------------------------------------------------------
  Generalized many-body perturbation theory program
  by Joonho Lee, Fazle Rob, Xintian Feng, Evgeny Epifanovsky

 No regularization used 
 (reg. param. = 0.0000e+00)
  (P|Q)^-1/2 Time:  CPU 220.16 s  wall 3.52 s

 In RI-MP2 calculation: 
 # of frozen core orbitals: 45

 Components of the RIMP2 correlation energy:
        aaaa    correlation energy =        -0.6709781332 a.u.
        abab    correlation energy =        -3.7124173801 a.u.
        bbbb    correlation energy =        -0.6709781332 a.u.
        non-Brillouin singles      =        -0.0000000000 a.u.
        total same-spin energy     =        -1.3419562664 a.u.
        total opposite-spin energy =        -3.7124173801 a.u.

 Total  RIMP2   correlation energy =        -5.0543736464 a.u.
        RIMP2         total energy =     -2759.3478679704 a.u.

 RI-MP2 Energy Time:  CPU 2794.90 s  wall 45.13 s
 
 --------------------------------------------------------------
 
                    Orbital Energies (a.u.)
 --------------------------------------------------------------
 
 Alpha MOs
 -- Occupied --
-92.0160 -91.9948 -91.9916 -91.9865 -26.3342 -20.6120 -20.5928 -20.5912
-20.5499 -11.4102 -11.3773 -11.3197 -11.3183 -11.3102 -11.2972 -11.2968
-11.2946 -11.2943 -11.2884 -11.2876 -11.2867 -11.2855 -11.2842 -11.2829
-11.2801 -11.2612 -11.2595 -11.2572 -11.2501  -9.0144  -8.9989  -8.9919
 -8.9864  -6.6951  -6.6945  -6.6940  -6.6801  -6.6795  -6.6781  -6.6728
 -6.6721  -6.6712  -6.6674  -6.6668  -6.6659  -1.6471  -1.4717  -1.4169
 -1.4140  -1.3670  -1.2337  -1.1964  -1.1689  -1.1422  -1.0842  -1.0523
 -1.0477  -1.0278  -1.0028  -0.9934  -0.9717  -0.9613  -0.9506  -0.9382
 -0.8964  -0.8694  -0.8507  -0.8037  -0.7931  -0.7880  -0.7720  -0.7702
 -0.7579  -0.7326  -0.7185  -0.7153  -0.7015  -0.6890  -0.6831  -0.6784
 -0.6713  -0.6609  -0.6593  -0.6525  -0.6302  -0.6200  -0.6169  -0.6064
 -0.6017  -0.5947  -0.5864  -0.5777  -0.5681  -0.5615  -0.5557  -0.5485
 -0.5376  -0.5263  -0.5230  -0.5166  -0.5163  -0.5083  -0.5033  -0.4945
 -0.4885  -0.4842  -0.4765  -0.4703  -0.4620  -0.4612  -0.4607  -0.4153
 -0.3974  -0.3867  -0.3580  -0.3500  -0.3204  -0.2871  -0.2534
 -- Virtual --
  0.0189   0.0709   0.1128   0.1247   0.1378   0.1433   0.1507   0.1557
  0.1559   0.1614   0.1652   0.1802   0.1829   0.1840   0.1868   0.1908
  0.2020   0.2034   0.2089   0.2182   0.2206   0.2214   0.2241   0.2263
  0.2345   0.2363   0.2419   0.2521   0.2617   0.2690   0.2733   0.2790
  0.2934   0.3083   0.3215   0.3240   0.3377   0.3420   0.3459   0.3482
  0.3511   0.3548   0.3674   0.3722   0.3771   0.3799   0.3842   0.3857
  0.3876   0.3920   0.3988   0.4050   0.4084   0.4122   0.4193   0.4231
  0.4299   0.4326   0.4382   0.4415   0.4447   0.4494   0.4500   0.4561
  0.4586   0.4616   0.4707   0.4728   0.4788   0.4808   0.4876   0.4917
  0.4936   0.4965   0.5061   0.5069   0.5101   0.5117   0.5197   0.5203
  0.5254   0.5308   0.5375   0.5395   0.5477   0.5496   0.5516   0.5541
  0.5560   0.5607   0.5637   0.5693   0.5702   0.5738   0.5774   0.5817
  0.5853   0.5906   0.5926   0.5983   0.5993   0.6063   0.6081   0.6096
  0.6138   0.6188   0.6207   0.6249   0.6277   0.6285   0.6302   0.6371
  0.6387   0.6408   0.6458   0.6467   0.6520   0.6533   0.6581   0.6649
  0.6751   0.6794   0.6807   0.6857   0.6899   0.6925   0.6943   0.6974
  0.7110   0.7187   0.7198   0.7220   0.7282   0.7431   0.7460   0.7547
  0.7555   0.7663   0.7716   0.7798   0.7851   0.7861   0.7891   0.7985
  0.8027   0.8057   0.8120   0.8199   0.8246   0.8303   0.8341   0.8437
  0.8511   0.8575   0.8588   0.8659   0.8740   0.8765   0.8871   0.8950
  0.8982   0.9036   0.9045   0.9098   0.9164   0.9195   0.9220   0.9278
  0.9346   0.9357   0.9393   0.9494   0.9509   0.9600   0.9643   0.9683
  0.9728   0.9785   0.9839   0.9893   0.9919   0.9954   0.9994   1.0005
  1.0044   1.0098   1.0156   1.0185   1.0252   1.0271   1.0291   1.0368
  1.0428   1.0490   1.0548   1.0590   1.0656   1.0684   1.0707   1.0761
  1.0845   1.0876   1.0929   1.0980   1.1001   1.1024   1.1082   1.1139
  1.1184   1.1299   1.1322   1.1408   1.1429   1.1468   1.1538   1.1573
  1.1632   1.1701   1.1736   1.1772   1.1837   1.1844   1.1876   1.1918
  1.1986   1.2058   1.2082   1.2147   1.2172   1.2185   1.2214   1.2297
  1.2366   1.2418   1.2453   1.2502   1.2562   1.2657   1.2716   1.2733
  1.2780   1.2834   1.2897   1.2942   1.3007   1.3044   1.3162   1.3238
  1.3250   1.3404   1.3423   1.3453   1.3490   1.3494   1.3617   1.3685
  1.3720   1.3776   1.3856   1.3905   1.3981   1.4085   1.4134   1.4217
  1.4333   1.4401   1.4552   1.4578   1.4627   1.4748   1.4845   1.4866
  1.4887   1.5019   1.5087   1.5094   1.5108   1.5127   1.5234   1.5287
  1.5305   1.5374   1.5397   1.5452   1.5532   1.5594   1.5610   1.5641
  1.5679   1.5795   1.5861   1.5966   1.5973   1.6081   1.6234   1.6346
  1.6420   1.6508   1.6561   1.6604   1.6633   1.6656   1.6778   1.6794
  1.6882   1.6946   1.7022   1.7056   1.7232   1.7250   1.7369   1.7534
  1.7568   1.7675   1.7744   1.7834   1.7912   1.7947   1.8098   1.8182
  1.8245   1.8323   1.8396   1.8451   1.8541   1.8651   1.8654   1.8705
  1.8746   1.8787   1.9042   1.9075   1.9156   1.9194   1.9299   1.9342
  1.9437   1.9478   1.9506   1.9597   1.9650   1.9723   1.9836   1.9965
  2.0022   2.0142   2.0210   2.0243   2.0343   2.0389   2.0447   2.0564
  2.0730   2.0836   2.0999   2.1021   2.1131   2.1230   2.1286   2.1454
  2.1520   2.1561   2.1603   2.1664   2.1696   2.1789   2.1913   2.1921
  2.1942   2.2003   2.2120   2.2135   2.2233   2.2270   2.2387   2.2417
  2.2499   2.2589   2.2624   2.2731   2.2781   2.2836   2.2896   2.2960
  2.3037   2.3161   2.3225   2.3272   2.3337   2.3415   2.3535   2.3596
  2.3743   2.3827   2.3845   2.3881   2.4012   2.4187   2.4220   2.4284
  2.4348   2.4425   2.4569   2.4647   2.4715   2.4783   2.4910   2.4949
  2.4990   2.5103   2.5253   2.5293   2.5369   2.5526   2.5574   2.5617
  2.5659   2.5762   2.5824   2.5965   2.6056   2.6123   2.6189   2.6218
  2.6301   2.6342   2.6361   2.6430   2.6496   2.6602   2.6626   2.6730
  2.6840   2.6898   2.6928   2.6993   2.7031   2.7077   2.7120   2.7230
  2.7253   2.7361   2.7377   2.7397   2.7484   2.7574   2.7635   2.7664
  2.7786   2.7869   2.7939   2.7951   2.8039   2.8104   2.8130   2.8282
  2.8319   2.8371   2.8409   2.8449   2.8476   2.8581   2.8704   2.8736
  2.8797   2.8833   2.8868   2.8966   2.8994   2.9178   2.9281   2.9430
  2.9463   2.9529   2.9627   2.9683   2.9786   2.9838   2.9948   3.0037
  3.0076   3.0143   3.0209   3.0292   3.0348   3.0427   3.0440   3.0478
  3.0507   3.0604   3.0778   3.0803   3.0831   3.0918   3.0970   3.1022
  3.1066   3.1113   3.1154   3.1200   3.1244   3.1376   3.1452   3.1495
  3.1538   3.1619   3.1667   3.1701   3.1730   3.1767   3.1797   3.1843
  3.1943   3.2024   3.2035   3.2075   3.2105   3.2192   3.2225   3.2282
  3.2342   3.2392   3.2464   3.2513   3.2527   3.2591   3.2659   3.2705
  3.2760   3.2809   3.2831   3.2883   3.2920   3.2948   3.3021   3.3058
  3.3085   3.3138   3.3184   3.3272   3.3320   3.3344   3.3403   3.3445
  3.3484   3.3516   3.3590   3.3604   3.3619   3.3680   3.3711   3.3765
  3.3837   3.3859   3.3898   3.3951   3.3988   3.4024   3.4124   3.4201
  3.4222   3.4249   3.4330   3.4383   3.4420   3.4460   3.4498   3.4545
  3.4566   3.4594   3.4672   3.4711   3.4808   3.4871   3.4882   3.4960
  3.5096   3.5113   3.5184   3.5218   3.5297   3.5314   3.5351   3.5395
  3.5491   3.5543   3.5589   3.5702   3.5741   3.5772   3.5776   3.5798
  3.5871   3.5913   3.5985   3.6020   3.6051   3.6120   3.6129   3.6183
  3.6324   3.6368   3.6391   3.6421   3.6500   3.6536   3.6582   3.6618
  3.6648   3.6680   3.6788   3.6811   3.6815   3.6850   3.6955   3.6993
  3.7029   3.7104   3.7189   3.7233   3.7240   3.7293   3.7312   3.7375
  3.7447   3.7503   3.7537   3.7570   3.7606   3.7680   3.7722   3.7887
  3.7945   3.7983   3.8009   3.8145   3.8171   3.8215   3.8235   3.8301
  3.8342   3.8425   3.8512   3.8521   3.8605   3.8635   3.8685   3.8751
  3.8804   3.8885   3.8925   3.8968   3.9074   3.9127   3.9239   3.9260
  3.9307   3.9374   3.9503   3.9525   3.9649   3.9699   3.9757   3.9815
  3.9923   3.9956   4.0093   4.0114   4.0217   4.0276   4.0379   4.0434
  4.0490   4.0544   4.0610   4.0696   4.0734   4.0844   4.0875   4.0935
  4.0963   4.1077   4.1112   4.1299   4.1314   4.1414   4.1464   4.1511
  4.1612   4.1681   4.1723   4.1819   4.1861   4.1883   4.1980   4.2010
  4.2052   4.2118   4.2325   4.2383   4.2413   4.2605   4.2703   4.2762
  4.2809   4.2916   4.3125   4.3155   4.3198   4.3359   4.3437   4.3480
  4.3567   4.3638   4.3701   4.3763   4.3806   4.3904   4.3959   4.4036
  4.4068   4.4096   4.4110   4.4222   4.4275   4.4340   4.4394   4.4465
  4.4571   4.4718   4.4768   4.4894   4.4951   4.5005   4.5081   4.5136
  4.5275   4.5389   4.5425   4.5530   4.5570   4.5717   4.5854   4.6004
  4.6019   4.6122   4.6207   4.6305   4.6343   4.6406   4.6495   4.6528
  4.6637   4.6645   4.6767   4.6796   4.6823   4.7072   4.7181   4.7251
  4.7352   4.7448   4.7457   4.7580   4.7692   4.7944   4.7984   4.8080
  4.8238   4.8280   4.8323   4.8546   4.8695   4.8956   4.9109   4.9228
  4.9414   4.9456   4.9555   4.9650   4.9715   4.9790   4.9961   5.0007
  5.0068   5.0120   5.0129   5.0406   5.0523   5.0563   5.0724   5.0745
  5.0919   5.1246   5.1473   5.1537   5.1700   5.1720   5.1858   5.1975
  5.2062   5.2144   5.2285   5.2477   5.2553   5.2591   5.2754   5.2837
  5.2977   5.3088   5.3147   5.3273   5.3389   5.3552   5.3564   5.3625
  5.3705   5.3934   5.3976   5.3996   5.4240   5.4357   5.4633   5.4696
  5.4732   5.4757   5.4997   5.5059   5.5138   5.5182   5.5485   5.5646
  5.5764   5.5817   5.5895   5.6058   5.6178   5.6369   5.6381   5.6978
  5.7141   5.7350   5.7787   5.8010   5.8152   5.8305   5.8501   5.8544
  5.8725   5.8819   5.9347   5.9698   5.9722   5.9791   6.0013   6.0557
  6.0626   6.0962   6.1268   6.1338   6.1680   6.1704   6.1782   6.1858
  6.2411   6.2446   6.2690   6.2747   6.2980   6.3087   6.3142   6.3792
  6.4420   6.4480   6.4941   6.5236   6.5479   6.5562   6.5565   6.6542
  6.6607   6.6769   6.7072   6.7365   6.7426   6.8009   6.8435   6.8606
  6.8836   6.8921   6.9913   7.1201   7.1382   7.1786   7.2114   7.2154
  7.2337   7.3195   7.3267   7.3321   7.3738   7.3769   7.4293   7.4627
  7.4786   7.4868   7.4886   7.5194   7.5493   7.6126   7.7195   7.7702
  7.7966   7.8316   7.9019   7.9210   7.9473   8.0040   8.0964   8.1894
  8.5619   8.9301   9.0133   9.3643   9.5009   9.6955  10.1949  10.6959
 11.2412  11.4875  11.9304  11.9799  12.1299  12.1888  12.3231  12.5744
 12.7022  12.7312  12.9359  13.2460  13.2718  13.5884  13.8455  13.8967
 13.9238  14.0253  14.1736  14.5655  15.1961
 --------------------------------------------------------------
 
          Ground-State Mulliken Net Atomic Charges

     Atom                 Charge (a.u.)
  ----------------------------------------
      1 C                    -0.187475
      2 C                    -0.254915
      3 S                    -0.021413
      4 C                    -0.013310
      5 H                     0.196386
      6 C                    -0.026935
      7 C                     0.243752
      8 C                     0.240260
      9 C                    -0.045107
     10 C                    -0.027294
     11 O                    -0.333006
     12 O                    -0.339603
     13 C                    -0.085611
     14 H                     0.123226
     15 H                     0.090655
     16 H                     0.094528
     17 C                    -0.087232
     18 H                     0.125244
     19 H                     0.094539
     20 H                     0.089788
     21 C                    -0.224505
     22 S                    -0.007564
     23 C                    -0.047895
     24 H                     0.195473
     25 H                     0.206596
     26 C                    -0.001085
     27 S                     0.102953
     28 C                    -0.230865
     29 C                    -0.069262
     30 C                    -0.009810
     31 C                     0.372454
     32 C                    -0.147999
     33 S                     0.039237
     34 C                     0.458482
     35 O                    -0.450219
     36 O                    -0.297915
     37 F                    -0.210800
     38 C                    -0.054897
     39 H                     0.116554
     40 H                     0.084467
     41 H                     0.084499
     42 H                     0.215623
  ----------------------------------------
  Sum of atomic charges =     0.000000

 -----------------------------------------------------------------
                    Cartesian Multipole Moments
 -----------------------------------------------------------------
    Charge (ESU x 10^10)
                 0.0000
    Dipole Moment (Debye)
         X       1.1450      Y       1.4551      Z       3.0805
       Tot       3.5941
    Quadrupole Moments (Debye-Ang)
        XX    -191.7044     XY       3.3149     YY    -159.3627
        XZ       9.3699     YZ      -8.8437     ZZ    -190.2642
    Octopole Moments (Debye-Ang^2)
       XXX    -105.3651    XXY     359.0382    XYY     -21.3178
       YYY     896.6356    XXZ     186.4103    XYZ     -73.9044
       YYZ     129.6596    XZZ     -10.2229    YZZ     430.4122
       ZZZ     585.6343
    Hexadecapole Moments (Debye-Ang^3)
      XXXX   -1692.8395   XXXY    -724.8556   XXYY   -3875.5600
      XYYY    -608.3380   YYYY  -18445.8033   XXXZ    -143.6897
      XXYZ     332.4116   XYYZ     191.2823   YYYZ     896.7076
      XXZZ   -1277.3495   XYZZ     -71.8315   YYZZ   -4063.2263
      XZZZ    -298.9633   YZZZ     340.8510   ZZZZ   -6594.3966
 -----------------------------------------------------------------
 Total job time:  296.60s(wall), 9380.61s(cpu) 
 Tue Sep 26 18:39:52 2023

        *************************************************************
        *                                                           *
        *  Thank you very much for using Q-Chem.  Have a nice day.  *
        *                                                           *
        *************************************************************


0 sent ACK to 0 
now end server 0 ... 
cleanup process ... done
remove work dirs ./qchem1298594.0 -- ./qchem1298594.0
rm -rf ./qchem1298594.0
rm -rf ./qchem1298594
