You are running Q-Chem version: 5.4.0

#
# job setting
#
local host:  exp-2-38
current dir: /expanse/lustre/projects/csd626/rramji/aromodel/PTB7_fin/Rotation_Test
input file:  fin_bdt_Phi_10_Theta_170_fin_ftt.qcin
output file: 
nprocs     : 1
nthreads   : 64
#
# qchem installation setting
#
QC:          /cm/shared/apps/spack/cpu/opt/spack/linux-centos8-zen2/gcc-10.2.0/qchem-5.4-akfmr7b3t57bfs6qan3padb2wnb2i7cl
QCAUX:       /cm/shared/apps/spack/cpu/opt/spack/linux-centos8-zen2/gcc-10.2.0/qchem-5.4-akfmr7b3t57bfs6qan3padb2wnb2i7cl/qcaux
QCPROG:      /cm/shared/apps/spack/cpu/opt/spack/linux-centos8-zen2/gcc-10.2.0/qchem-5.4-akfmr7b3t57bfs6qan3padb2wnb2i7cl/exe/qcprog.exe
QCPROG_S:    /cm/shared/apps/spack/cpu/opt/spack/linux-centos8-zen2/gcc-10.2.0/qchem-5.4-akfmr7b3t57bfs6qan3padb2wnb2i7cl/exe/qcprog.exe_s
PARALLEL:    -DPARALLEL
QCMPI:       mpich
#
# qchem directory setting
#
qcrun:       qchem3762984
QCSCRATCH:   .
QCLOCALSCR:  
QCTMPDIR:    .
QCFILEPREF:  ./qchem3762984
QCSAVEDIR:   
workdirs:    ./qchem3762984
workdir0:    ./qchem3762984
partmpdirs =  
#
# parallel setting
#
QCRSH:           ssh
QCMPI:           mpich
QCMPIRUN:        /cm/shared/apps/spack/cpu/opt/spack/linux-centos8-zen2/gcc-10.2.0/qchem-5.4-akfmr7b3t57bfs6qan3padb2wnb2i7cl/bin/mpi/mpirun_qchem
QCMACHINEFILE:   ./qchem3762984/hostfile
exp-2-38

#
# env setting
#
exported envs:   QC QCAUX QCSCRATCH QCRUNNAME QCFILEPREF QCPROG QCPROG_S GUIFILE

Running Job 1 of 1 fin_bdt_Phi_10_Theta_170_fin_ftt.qcin
qchem fin_bdt_Phi_10_Theta_170_fin_ftt.qcin_3762984.0 ./qchem3762984/ 1
/cm/shared/apps/spack/cpu/opt/spack/linux-centos8-zen2/gcc-10.2.0/qchem-5.4-akfmr7b3t57bfs6qan3padb2wnb2i7cl/bin/mpi/mpirun_qchem -machinefile ./qchem3762984/hostfile -np 1 /cm/shared/apps/spack/cpu/opt/spack/linux-centos8-zen2/gcc-10.2.0/qchem-5.4-akfmr7b3t57bfs6qan3padb2wnb2i7cl/exe/qcprog.exe fin_bdt_Phi_10_Theta_170_fin_ftt.qcin_3762984.0 ./qchem3762984/

Process 0 of 1 is on exp-2-38 - thread support 0
initial socket setup ...start
initial socket setup ...done 
now start server 0 ... 
                  Welcome to Q-Chem
     A Quantum Leap Into The Future Of Chemistry


 Q-Chem 5.4, Q-Chem, Inc., Pleasanton, CA (2021)

 License issued to: University of California, San Diego (site)

 E. Epifanovsky,  A. T. B. Gilbert,  Xintian Feng,  Joonho Lee,  Yuezhi Mao,  
 N. Mardirossian,  P. Pokhilko,  A. White,  M. Wormit,  M. P. Coons,  
 A. L. Dempwolff,  Zhengting Gan,  D. Hait,  P. R. Horn,  L. D. Jacobson,  
 I. Kaliman,  J. Kussmann,  A. W. Lange,  Ka Un Lao,  D. S. Levine,  Jie Liu,  
 S. C. McKenzie,  A. F. Morrison,  K. Nanda,  F. Plasser,  D. R. Rehn,  
 M. L. Vidal,  Zhi-Qiang You,  Ying Zhu,  B. Alam,  B. Albrecht,  
 A. Aldossary,  E. Alguire,  J. H. Andersen,  D. Barton,  K. Begam,  A. Behn,  
 Y. A. Bernard,  E. J. Berquist,  H. Burton,  A. Carreras,  K. Carter-Fenk,  
 R. Chakraborty,  A. D. Chien,  K. D. Closser,  V. Cofer-Shabica,  
 S. Dasgupta,  Jia Deng,  M. de Wergifosse,  M. Diedenhofen,  Hainam Do,  
 S. Ehlert,  Po-Tung Fang,  S. Fatehi,  Qingguo Feng,  J. Gayvert,  
 Qinghui Ge,  G. Gidofalvi,  M. Goldey,  J. Gomes,  C. Gonzalez-Espinoza,  
 S. Gulania,  A. Gunina,  M. W. D. Hanson-Heine,  P. H. P. Harbach,  
 A. W. Hauser,  M. F. Herbst,  M. Hernandez Vera,  M. Hodecker,  
 Z. C. Holden,  S. Houck,  Xunkun Huang,  Kerwin Hui,  B. C. Huynh,  
 M. Ivanov,  Hyunjun Ji,  Hanjie Jiang,  B. Kaduk,  S. Kaehler,  
 K. Khistyaev,  Jaehoon Kim,  P. Klunzinger,  Z. Koczor-Benda,  
 Joong Hoon Koh,  D. Kosenkov,  L. Koulias,  T. Kowalczyk,  C. M. Krauter,  
 K. Kue,  A. Kunitsa,  T. Kus,  A. Landau,  K. V. Lawler,  D. Lefrancois,  
 S. Lehtola,  Rain Li,  Yi-Pei Li,  Jiashu Liang,  M. Liebenthal,  
 Hung-Hsuan Lin,  You-Sheng Lin,  Fenglai Liu,  Kuan-Yu Liu,  
 M. Loipersberger,  A. Luenser,  A. Manjanath,  P. Manohar,  E. Mansoor,  
 S. F. Manzer,  Shan-Ping Mao,  A. V. Marenich,  T. Markovich,  S. Mason,  
 S. A. Maurer,  P. F. McLaughlin,  M. F. S. J. Menger,  J.-M. Mewes,  
 S. A. Mewes,  P. Morgante,  J. W. Mullinax,  T. S. Nguyen-Beck,  
 K. J. Oosterbaan,  G. Paran,  Alexander C. Paul,  Suranjan K. Paul,  
 F. Pavosevic,  Zheng Pei,  S. Prager,  E. I. Proynov,  E. Ramos,  B. Rana,  
 A. E. Rask,  A. Rettig,  R. M. Richard,  F. Rob,  E. Rossomme,  T. Scheele,  
 M. Scheurer,  M. Schneider,  N. Sergueev,  S. M. Sharada,  W. Skomorowski,  
 D. W. Small,  C. J. Stein,  Yu-Chuan Su,  E. J. Sundstrom,  Zhen Tao,  
 J. Thirman,  T. Tsuchimochi,  N. M. Tubman,  S. P. Veccham,  O. Vydrov,  
 J. Wenzel,  J. Witte,  A. Yamada,  Kun Yao,  S. Yeganeh,  S. R. Yost,  
 A. Zech,  Igor Ying Zhang,  Xing Zhang,  Yu Zhang,  D. Zuev,  
 A. Aspuru-Guzik,  A. T. Bell,  N. A. Besley,  K. B. Bravaya,  B. R. Brooks,  
 D. Casanova,  Jeng-Da Chai,  S. Coriani,  C. J. Cramer,  
 A. E. DePrince, III,  R. A. DiStasio Jr.,  A. Dreuw,  B. D. Dunietz,  
 T. R. Furlani,  W. A. Goddard III,  S. Grimme,  S. Hammes-Schiffer,  
 T. Head-Gordon,  W. J. Hehre,  Chao-Ping Hsu,  T.-C. Jagau,  Yousung Jung,  
 A. Klamt,  Jing Kong,  D. S. Lambrecht,  WanZhen Liang,  N. J. Mayhall,  
 C. W. McCurdy,  J. B. Neaton,  C. Ochsenfeld,  J. A. Parkhill,  R. Peverati,  
 V. A. Rassolov,  Yihan Shao,  L. V. Slipchenko,  T. Stauch,  R. P. Steele,  
 J. E. Subotnik,  A. J. W. Thom,  A. Tkatchenko,  D. G. Truhlar,  
 T. Van Voorhis,  T. A. Wesolowski,  K. B. Whaley,  H. L. Woodcock III,  
 P. M. Zimmerman,  S. Faraji,  P. M. W. Gill,  M. Head-Gordon,  
 J. M. Herbert,  A. I. Krylov

 Contributors to earlier versions of Q-Chem not listed above: 
 R. D. Adamson,  B. Austin,  R. Baer,  J. Baker,  G. J. O. Beran,  
 K. Brandhorst,  S. T. Brown,  E. F. C. Byrd,  A. K. Chakraborty,  
 G. K. L. Chan,  Chun-Min Chang,  Yunqing Chen,  C.-L. Cheng,  
 Siu Hung Chien,  D. M. Chipman,  D. L. Crittenden,  H. Dachsel,  
 R. J. Doerksen,  A. D. Dutoi,  R. G. Edgar,  J. Fosso-Tande,  
 L. Fusti-Molnar,  D. Ghosh,  A. Ghysels,  A. Golubeva-Zadorozhnaya,  
 J. Gonthier,  M. S. Gordon,  S. R. Gwaltney,  G. Hawkins,  J. E. Herr,  
 A. Heyden,  S. Hirata,  E. G. Hohenstein,  G. Kedziora,  F. J. Keil,  
 C. Kelley,  Jihan Kim,  R. A. King,  R. Z. Khaliullin,  P. P. Korambath,  
 W. Kurlancheek,  A. Laurent,  A. M. Lee,  M. S. Lee,  S. V. Levchenko,  
 Ching Yeh Lin,  D. Liotard,  E. Livshits,  R. C. Lochan,  I. Lotan,  
 L. A. Martinez-Martinez,  P. E. Maslen,  N. Nair,  D. P. O'Neill,  
 D. Neuhauser,  E. Neuscamman,  C. M. Oana,  R. Olivares-Amaya,  R. Olson,  
 T. M. Perrine,  B. Peters,  P. A. Pieniazek,  A. Prociuk,  Y. M. Rhee,  
 J. Ritchie,  M. A. Rohrdanz,  E. Rosta,  N. J. Russ,  H. F. Schaefer III,  
 M. W. Schmidt,  N. E. Schultz,  S. Sharma,  N. Shenvi,  C. D. Sherrill,  
 A. C. Simmonett,  A. Sodt,  T. Stein,  D. Stuck,  K. S. Thanthiriwatte,  
 V. Vanovschi,  L. Vogt,  Tao Wang,  A. Warshel,  M. A. Watson,  
 C. F. Williams,  Q. Wu,  X. Xu,  Jun Yang,  W. Zhang,  Yan Zhao

 Please cite Q-Chem as follows:
 Y. Shao et al., Mol. Phys. 113, 184-215 (2015)
 DOI: 10.1080/00268976.2014.952696

 Q-Chem 5.4.0 for Intel X86 EM64T Linux

 Parts of Q-Chem use Armadillo 9.800.1 (Horizon Scraper).
 http://arma.sourceforge.net/

 Q-Chem begins on Sun Sep 24 17:37:23 2023  

 Host: 
0

     Scratch files written to ./qchem3762984//
 May1621 |scratch|qcdevops|jenkins|workspace|build_RNUM    
 Parallel job on  1  processors
 Processing $rem in /cm/shared/apps/spack/cpu/opt/spack/linux-centos8-zen2/gcc-10.2.0/qchem-5.4-akfmr7b3t57bfs6qan3padb2wnb2i7cl/config/preferences:
 Processing $rem in /home/rramji/.qchemrc:
 Symmetry turned off for PCM/SM12/SMD calculation
 Core orbitals will be frozen

 Checking the input file for inconsistencies... 	...done.

 Q-Chem warning in module forms1/BasisType.C, line 2236:

 You are not using the predefined 5D/6D in this basis set.


--------------------------------------------------------------
User input:
--------------------------------------------------------------
$molecule
0 1
C	0.000687	-8.519741	-0.272104
C	0.194476	-7.635967	0.779533
S	-0.287581	-7.651740	-1.799596
C	0.125787	-6.261894	0.399427
H	0.383826	-7.954738	1.812314
C	-0.121989	-6.079985	-1.006762
C	-0.247488	-4.798382	-1.564994
C	0.258303	-5.153542	1.284087
C	0.128493	-3.869626	0.726260
C	-0.116725	-3.688927	-0.681918
O	0.517104	-5.481075	2.580622
O	-0.508622	-4.479871	-2.867144
C	-0.075811	-5.356026	-3.900814
H	-0.173640	-4.790496	-4.847002
H	-0.707354	-6.268513	-3.971794
H	0.984963	-5.658187	-3.763397
C	0.257016	-4.546999	3.621225
H	0.357864	-5.107564	4.569828
H	-0.771211	-4.131473	3.551910
H	0.990913	-3.712085	3.626592
C	-0.187034	-2.314326	-1.058088
S	0.281899	-2.295487	1.523035
C	-0.000000	-1.435180	-0.000000
H	-0.373653	-1.993211	-2.090565
H	-0.000773	-9.615985	-0.266226
C	0.000000	0.000000	0.000000
S	0.158383	0.885376	1.510732
C	0.430876	2.436951	0.727629
C	0.157682	0.894430	-1.064665
C	0.397351	2.262384	-0.678287
C	0.147783	0.828765	-2.486150
C	0.367291	2.074406	-3.106916
S	0.580633	3.303533	-1.965735
C	0.416083	2.324204	-4.559972
O	0.256921	1.404367	-5.350277
O	0.642094	3.587338	-5.004375
F	-0.041828	-0.269113	-3.246290
C	0.714377	3.938827	-6.334976
H	0.906844	5.026898	-6.370268
H	-0.230661	3.710099	-6.875609
H	1.531918	3.398681	-6.861878
H	0.590699	3.342984	1.321510
$end

$rem
JOBTYPE		SP
EXCHANGE	HF
CORRELATION	pRIMP2
BASIS		cc-pvtz
METHOD		rimp2
AUX_BASIS	rimp2-cc-pvtz
SOLVENT_METHOD	PCM
PURECART	11111
SYMMETRY	false
MEM_TOTAL	110000
SCF_CONVERGENCE = 6
THRESH=10
GUI = 2
$end



$solvent
dielectric 4.90
$end
--------------------------------------------------------------
 ----------------------------------------------------------------
             Standard Nuclear Orientation (Angstroms)
    I     Atom           X                Y                Z
 ----------------------------------------------------------------
    1      C       0.0006870000    -8.5197410000    -0.2721040000
    2      C       0.1944760000    -7.6359670000     0.7795330000
    3      S      -0.2875810000    -7.6517400000    -1.7995960000
    4      C       0.1257870000    -6.2618940000     0.3994270000
    5      H       0.3838260000    -7.9547380000     1.8123140000
    6      C      -0.1219890000    -6.0799850000    -1.0067620000
    7      C      -0.2474880000    -4.7983820000    -1.5649940000
    8      C       0.2583030000    -5.1535420000     1.2840870000
    9      C       0.1284930000    -3.8696260000     0.7262600000
   10      C      -0.1167250000    -3.6889270000    -0.6819180000
   11      O       0.5171040000    -5.4810750000     2.5806220000
   12      O      -0.5086220000    -4.4798710000    -2.8671440000
   13      C      -0.0758110000    -5.3560260000    -3.9008140000
   14      H      -0.1736400000    -4.7904960000    -4.8470020000
   15      H      -0.7073540000    -6.2685130000    -3.9717940000
   16      H       0.9849630000    -5.6581870000    -3.7633970000
   17      C       0.2570160000    -4.5469990000     3.6212250000
   18      H       0.3578640000    -5.1075640000     4.5698280000
   19      H      -0.7712110000    -4.1314730000     3.5519100000
   20      H       0.9909130000    -3.7120850000     3.6265920000
   21      C      -0.1870340000    -2.3143260000    -1.0580880000
   22      S       0.2818990000    -2.2954870000     1.5230350000
   23      C       0.0000000000    -1.4351800000     0.0000000000
   24      H      -0.3736530000    -1.9932110000    -2.0905650000
   25      H      -0.0007730000    -9.6159850000    -0.2662260000
   26      C       0.0000000000     0.0000000000     0.0000000000
   27      S       0.1583830000     0.8853760000     1.5107320000
   28      C       0.4308760000     2.4369510000     0.7276290000
   29      C       0.1576820000     0.8944300000    -1.0646650000
   30      C       0.3973510000     2.2623840000    -0.6782870000
   31      C       0.1477830000     0.8287650000    -2.4861500000
   32      C       0.3672910000     2.0744060000    -3.1069160000
   33      S       0.5806330000     3.3035330000    -1.9657350000
   34      C       0.4160830000     2.3242040000    -4.5599720000
   35      O       0.2569210000     1.4043670000    -5.3502770000
   36      O       0.6420940000     3.5873380000    -5.0043750000
   37      F      -0.0418280000    -0.2691130000    -3.2462900000
   38      C       0.7143770000     3.9388270000    -6.3349760000
   39      H       0.9068440000     5.0268980000    -6.3702680000
   40      H      -0.2306610000     3.7100990000    -6.8756090000
   41      H       1.5319180000     3.3986810000    -6.8618780000
   42      H       0.5906990000     3.3429840000     1.3215100000
 ----------------------------------------------------------------
 Nuclear Repulsion Energy =        3311.80342429 hartrees
 There are      119 alpha and      119 beta electrons
 Requested basis set is cc-pVTZ
 There are 376 shells and 1068 basis functions

 Total QAlloc Memory Limit 110000 MB
 Mega-Array Size       188 MB
 MEM_STATIC part       192 MB
 Discretize the solute cavity surface with Lebedev spheres
	Using 110 Lebedev grid points for each H atom
	Using 194 Lebedev grid points for other atoms
	Atomic van der Waals radii will be scaled by 1.20
 Remove points where switching function is < 1.0e-08
 Keep 2866 surface tesserae and discard 4190 interior tesserae
 Molecular Surface Area = 434.278 Angst**2
 Requested basis set is rimp2-cc-pVTZ
 There are 833 shells and 2903 basis functions
 A cutoff of  1.0D-10 yielded  31478 shell pairs
 There are    241574 function pairs (    313591 Cartesian)
 Smallest overlap matrix eigenvalue = 2.14E-05

 Scale SEOQF with 1.000000e-01/1.000000e-02/1.000000e-02

 Standard Electronic Orientation quadrupole field applied
 Nucleus-field energy     =     0.0000000135 hartrees
 Guess from superposition of atomic densities
 Warning:  Energy on first SCF cycle will be non-variational
 SAD guess density has 238.000000 electrons

 -----------------------------------------------------------------------
  General SCF calculation program by
  Eric Jon Sundstrom, Paul Horn, Yuezhi Mao, Dmitri Zuev, Alec White,
  David Stuck, Shaama M.S., Shane Yost, Joonho Lee, David Small,
  Daniel Levine, Susi Lehtola, Hugh Burton, Evgeny Epifanovsky,
  Bang C. Huynh
 -----------------------------------------------------------------------
 Hartree-Fock
 using 64 threads for integral computing
 -------------------------------------------------------
 OpenMP Integral computing Module                
 Release: version 1.0, May 2013, Q-Chem Inc. Pittsburgh 
 -------------------------------------------------------
 A restricted SCF calculation will be
 performed using DIIS
 SCF converges when DIIS error is below 1.0e-06
 ---------------------------------------
  Cycle       Energy         DIIS error
 ---------------------------------------
    1   -2765.5693270344      1.77e-02  
    2   -2753.8568663347      1.57e-03  
    3   -2754.1977073411      8.80e-04  
    4   -2754.2820178533      2.55e-04  
    5   -2754.2937128221      6.84e-05  
    6   -2754.2948145665      2.41e-05  
    7   -2754.2950639639      1.16e-05  
    8   -2754.2951466513      4.51e-06  
    9   -2754.2951629931      1.91e-06  
   10   -2754.2951653564      8.29e-07  Convergence criterion met
 ---------------------------------------
 SCF time:   CPU 6479.31s  wall 233.00s 

************** Final PCM Free Energy Summary **************
 G_electrostatic  =      -0.01870411 hartree =     -11.73700824 kcal/mol
 G_cavitation     =       0.00000000 hartree =       0.00000000 kcal/mol
 G_dispersion     =       0.00000000 hartree =       0.00000000 kcal/mol
 G_repulsion      =       0.00000000 hartree =       0.00000000 kcal/mol
 --------------------------------------------------
 Non-electrostatic Free Energy =       0.00000000 hartree =       0.00000000 kcal/mol
 Total                         =      -0.01870411 hartree =     -11.73700824 kcal/mol
 --------------------------------------------------
 SCF Energy (H0 + V/2)                       =   -2754.29516536 
 Solute Internal Energy (H0)                 =   -2754.27646124 
 Total Free Energy (H0 + V/2 + non-elec)     =   -2754.29516536 hartree
                                             = -1728346.30219063 kcal/mol
***********************************************************

 SCF   energy in the final basis set =    -2754.2951653564
 Total energy in the final basis set =    -2754.2951653564


 --------------------------------------------------------------
  Generalized many-body perturbation theory program
  by Joonho Lee, Fazle Rob, Xintian Feng, Evgeny Epifanovsky

 No regularization used 
 (reg. param. = 0.0000e+00)
  (P|Q)^-1/2 Time:  CPU 131.84 s  wall 2.54 s

 In RI-MP2 calculation: 
 # of frozen core orbitals: 45

 Components of the RIMP2 correlation energy:
        aaaa    correlation energy =        -0.6715894066 a.u.
        abab    correlation energy =        -3.7125235649 a.u.
        bbbb    correlation energy =        -0.6715894066 a.u.
        non-Brillouin singles      =        -0.0000000000 a.u.
        total same-spin energy     =        -1.3431788133 a.u.
        total opposite-spin energy =        -3.7125235649 a.u.

 Total  RIMP2   correlation energy =        -5.0557023782 a.u.
        RIMP2         total energy =     -2759.3508677345 a.u.

 RI-MP2 Energy Time:  CPU 2723.44 s  wall 44.21 s
 
 --------------------------------------------------------------
 
                    Orbital Energies (a.u.)
 --------------------------------------------------------------
 
 Alpha MOs
 -- Occupied --
-92.0161 -91.9952 -91.9911 -91.9871 -26.3384 -20.6118 -20.5931 -20.5916
-20.5495 -11.4100 -11.3789 -11.3202 -11.3194 -11.3141 -11.2977 -11.2965
-11.2965 -11.2922 -11.2884 -11.2882 -11.2878 -11.2854 -11.2848 -11.2811
-11.2808 -11.2621 -11.2605 -11.2572 -11.2505  -9.0146  -8.9992  -8.9918
 -8.9870  -6.6954  -6.6948  -6.6943  -6.6805  -6.6798  -6.6785  -6.6728
 -6.6721  -6.6711  -6.6679  -6.6673  -6.6665  -1.6529  -1.4715  -1.4172
 -1.4143  -1.3668  -1.2339  -1.1974  -1.1699  -1.1426  -1.0850  -1.0531
 -1.0484  -1.0282  -1.0039  -0.9942  -0.9726  -0.9612  -0.9509  -0.9385
 -0.8972  -0.8697  -0.8523  -0.8074  -0.7966  -0.7890  -0.7724  -0.7698
 -0.7581  -0.7332  -0.7216  -0.7199  -0.7019  -0.6899  -0.6851  -0.6785
 -0.6726  -0.6625  -0.6597  -0.6527  -0.6296  -0.6203  -0.6159  -0.6063
 -0.5999  -0.5942  -0.5887  -0.5764  -0.5693  -0.5601  -0.5541  -0.5482
 -0.5373  -0.5275  -0.5234  -0.5204  -0.5176  -0.5098  -0.5055  -0.4964
 -0.4859  -0.4844  -0.4802  -0.4678  -0.4620  -0.4612  -0.4589  -0.4245
 -0.3987  -0.3861  -0.3599  -0.3508  -0.3258  -0.2848  -0.2472
 -- Virtual --
  0.0091   0.0802   0.1163   0.1234   0.1274   0.1486   0.1512   0.1552
  0.1557   0.1613   0.1616   0.1807   0.1869   0.1877   0.1933   0.1994
  0.2034   0.2095   0.2134   0.2182   0.2218   0.2231   0.2239   0.2297
  0.2377   0.2460   0.2515   0.2569   0.2659   0.2704   0.2761   0.2845
  0.3038   0.3082   0.3244   0.3337   0.3368   0.3438   0.3503   0.3527
  0.3598   0.3677   0.3704   0.3728   0.3775   0.3804   0.3851   0.3857
  0.3875   0.3936   0.3948   0.4069   0.4100   0.4168   0.4222   0.4228
  0.4309   0.4338   0.4381   0.4439   0.4462   0.4492   0.4517   0.4571
  0.4581   0.4665   0.4729   0.4788   0.4811   0.4854   0.4890   0.4931
  0.4979   0.4998   0.5032   0.5082   0.5171   0.5199   0.5236   0.5286
  0.5311   0.5327   0.5354   0.5388   0.5428   0.5504   0.5539   0.5574
  0.5580   0.5618   0.5638   0.5655   0.5692   0.5735   0.5786   0.5798
  0.5831   0.5885   0.5899   0.5973   0.6014   0.6039   0.6061   0.6137
  0.6161   0.6177   0.6191   0.6251   0.6265   0.6307   0.6314   0.6339
  0.6364   0.6403   0.6454   0.6534   0.6538   0.6597   0.6637   0.6677
  0.6746   0.6789   0.6816   0.6850   0.6935   0.6991   0.7048   0.7096
  0.7138   0.7200   0.7299   0.7365   0.7424   0.7448   0.7536   0.7576
  0.7605   0.7652   0.7770   0.7820   0.7832   0.7898   0.7974   0.8029
  0.8114   0.8135   0.8179   0.8248   0.8286   0.8363   0.8416   0.8496
  0.8572   0.8588   0.8669   0.8743   0.8757   0.8877   0.8900   0.8971
  0.9021   0.9035   0.9057   0.9106   0.9180   0.9198   0.9286   0.9318
  0.9387   0.9420   0.9469   0.9485   0.9560   0.9617   0.9677   0.9710
  0.9751   0.9798   0.9857   0.9895   0.9961   0.9971   1.0007   1.0036
  1.0061   1.0112   1.0125   1.0244   1.0272   1.0338   1.0382   1.0473
  1.0486   1.0512   1.0597   1.0636   1.0657   1.0753   1.0779   1.0799
  1.0871   1.0907   1.0940   1.0977   1.1042   1.1076   1.1150   1.1172
  1.1259   1.1284   1.1393   1.1487   1.1522   1.1575   1.1626   1.1657
  1.1706   1.1740   1.1773   1.1794   1.1835   1.1875   1.1923   1.1961
  1.1972   1.2068   1.2122   1.2164   1.2208   1.2230   1.2259   1.2319
  1.2343   1.2425   1.2524   1.2579   1.2597   1.2619   1.2687   1.2731
  1.2752   1.2904   1.3003   1.3021   1.3069   1.3118   1.3148   1.3256
  1.3300   1.3409   1.3428   1.3497   1.3537   1.3576   1.3639   1.3676
  1.3747   1.3777   1.3857   1.3878   1.3898   1.4018   1.4124   1.4223
  1.4347   1.4399   1.4456   1.4546   1.4663   1.4729   1.4751   1.4840
  1.4918   1.4993   1.5044   1.5102   1.5119   1.5130   1.5246   1.5288
  1.5316   1.5322   1.5461   1.5494   1.5519   1.5530   1.5536   1.5666
  1.5765   1.5856   1.5913   1.5993   1.6128   1.6210   1.6275   1.6352
  1.6401   1.6504   1.6547   1.6587   1.6623   1.6672   1.6777   1.6886
  1.6913   1.7008   1.7091   1.7157   1.7299   1.7327   1.7447   1.7499
  1.7611   1.7674   1.7739   1.7911   1.7938   1.8074   1.8140   1.8167
  1.8261   1.8335   1.8412   1.8490   1.8574   1.8673   1.8694   1.8719
  1.8863   1.8955   1.9059   1.9083   1.9153   1.9224   1.9282   1.9323
  1.9360   1.9380   1.9502   1.9617   1.9734   1.9758   1.9792   1.9967
  2.0021   2.0115   2.0218   2.0303   2.0342   2.0412   2.0516   2.0673
  2.0922   2.0967   2.1047   2.1156   2.1192   2.1321   2.1384   2.1440
  2.1577   2.1616   2.1627   2.1675   2.1715   2.1770   2.1901   2.1932
  2.1946   2.2008   2.2142   2.2158   2.2249   2.2295   2.2414   2.2466
  2.2557   2.2607   2.2620   2.2710   2.2796   2.2814   2.2864   2.2891
  2.3025   2.3097   2.3158   2.3242   2.3422   2.3483   2.3528   2.3662
  2.3787   2.3834   2.3855   2.3997   2.4039   2.4164   2.4222   2.4279
  2.4376   2.4426   2.4520   2.4670   2.4707   2.4783   2.4861   2.4964
  2.5044   2.5204   2.5256   2.5295   2.5376   2.5506   2.5602   2.5682
  2.5741   2.5866   2.5979   2.6029   2.6132   2.6187   2.6235   2.6266
  2.6279   2.6344   2.6369   2.6451   2.6528   2.6609   2.6646   2.6720
  2.6785   2.6874   2.6910   2.7000   2.7022   2.7086   2.7116   2.7231
  2.7306   2.7356   2.7378   2.7411   2.7427   2.7529   2.7613   2.7759
  2.7773   2.7867   2.7873   2.8018   2.8085   2.8103   2.8248   2.8275
  2.8326   2.8364   2.8433   2.8460   2.8526   2.8641   2.8719   2.8748
  2.8813   2.8865   2.8902   2.9020   2.9031   2.9127   2.9300   2.9421
  2.9483   2.9604   2.9605   2.9728   2.9759   2.9814   2.9962   3.0033
  3.0125   3.0172   3.0263   3.0350   3.0358   3.0387   3.0461   3.0477
  3.0507   3.0608   3.0703   3.0846   3.0849   3.0915   3.0969   3.1006
  3.1057   3.1134   3.1184   3.1202   3.1320   3.1395   3.1427   3.1493
  3.1562   3.1582   3.1612   3.1673   3.1764   3.1794   3.1834   3.1897
  3.1926   3.1985   3.2030   3.2078   3.2153   3.2210   3.2252   3.2280
  3.2380   3.2429   3.2505   3.2524   3.2583   3.2632   3.2644   3.2712
  3.2764   3.2797   3.2854   3.2857   3.2894   3.2906   3.2957   3.3013
  3.3086   3.3216   3.3257   3.3302   3.3346   3.3416   3.3439   3.3494
  3.3533   3.3576   3.3602   3.3621   3.3627   3.3706   3.3726   3.3780
  3.3857   3.3897   3.3936   3.3990   3.4007   3.4035   3.4068   3.4195
  3.4208   3.4259   3.4326   3.4350   3.4396   3.4472   3.4488   3.4535
  3.4583   3.4632   3.4699   3.4718   3.4787   3.4846   3.4915   3.4995
  3.5071   3.5094   3.5145   3.5184   3.5246   3.5288   3.5314   3.5367
  3.5415   3.5508   3.5574   3.5654   3.5707   3.5737   3.5792   3.5822
  3.5879   3.5914   3.5996   3.6009   3.6030   3.6128   3.6165   3.6239
  3.6283   3.6327   3.6364   3.6458   3.6500   3.6524   3.6556   3.6654
  3.6665   3.6718   3.6746   3.6781   3.6840   3.6869   3.6930   3.7029
  3.7067   3.7100   3.7115   3.7206   3.7248   3.7287   3.7328   3.7330
  3.7406   3.7480   3.7561   3.7586   3.7672   3.7724   3.7787   3.7853
  3.7939   3.7981   3.8003   3.8082   3.8199   3.8227   3.8254   3.8354
  3.8419   3.8455   3.8523   3.8616   3.8624   3.8664   3.8712   3.8735
  3.8787   3.8856   3.8935   3.9060   3.9141   3.9167   3.9197   3.9273
  3.9313   3.9469   3.9501   3.9590   3.9646   3.9772   3.9837   3.9891
  3.9928   4.0022   4.0068   4.0118   4.0176   4.0324   4.0366   4.0469
  4.0521   4.0585   4.0634   4.0702   4.0727   4.0845   4.0902   4.0942
  4.0995   4.1015   4.1159   4.1230   4.1344   4.1445   4.1489   4.1573
  4.1586   4.1700   4.1716   4.1785   4.1882   4.1894   4.1943   4.2048
  4.2113   4.2135   4.2375   4.2391   4.2501   4.2643   4.2734   4.2758
  4.2871   4.3021   4.3145   4.3160   4.3322   4.3361   4.3456   4.3482
  4.3607   4.3657   4.3716   4.3750   4.3781   4.3917   4.4008   4.4023
  4.4098   4.4109   4.4198   4.4263   4.4327   4.4339   4.4465   4.4519
  4.4641   4.4753   4.4887   4.4935   4.4956   4.5062   4.5091   4.5174
  4.5206   4.5341   4.5440   4.5568   4.5584   4.5652   4.5873   4.5998
  4.6094   4.6183   4.6273   4.6299   4.6394   4.6404   4.6457   4.6572
  4.6619   4.6692   4.6805   4.6830   4.7011   4.7072   4.7197   4.7320
  4.7410   4.7460   4.7571   4.7702   4.7800   4.7989   4.8052   4.8090
  4.8196   4.8280   4.8366   4.8545   4.8646   4.8828   4.9141   4.9251
  4.9405   4.9491   4.9546   4.9646   4.9732   4.9956   5.0018   5.0038
  5.0065   5.0123   5.0314   5.0407   5.0526   5.0687   5.0736   5.0816
  5.0989   5.1154   5.1285   5.1581   5.1744   5.1865   5.1954   5.2038
  5.2090   5.2193   5.2288   5.2497   5.2563   5.2593   5.2824   5.2985
  5.3088   5.3160   5.3249   5.3299   5.3544   5.3554   5.3594   5.3671
  5.3826   5.3934   5.3993   5.4038   5.4288   5.4334   5.4628   5.4732
  5.4752   5.4850   5.5035   5.5070   5.5149   5.5241   5.5547   5.5719
  5.5811   5.5911   5.5986   5.6070   5.6180   5.6312   5.6450   5.7038
  5.7403   5.7466   5.7660   5.8011   5.8133   5.8352   5.8539   5.8663
  5.8730   5.8843   5.9634   5.9701   5.9763   5.9812   6.0116   6.0458
  6.0672   6.1228   6.1338   6.1445   6.1696   6.1714   6.1864   6.1919
  6.2421   6.2593   6.2774   6.2813   6.3088   6.3162   6.3269   6.4214
  6.4462   6.4692   6.5007   6.5410   6.5567   6.5585   6.5721   6.6515
  6.6771   6.6870   6.7291   6.7452   6.7699   6.8053   6.8603   6.8613
  6.8860   6.8938   6.9926   7.1207   7.1395   7.1787   7.2124   7.2155
  7.2348   7.3216   7.3269   7.3329   7.3689   7.3805   7.4337   7.4628
  7.4781   7.4821   7.4889   7.5393   7.5512   7.6150   7.7248   7.7652
  7.7969   7.8321   7.9045   7.9212   7.9485   8.0126   8.0958   8.1885
  8.6458   8.9304   9.0678   9.3607   9.5125   9.7372  10.2273  10.6805
 11.2848  11.3197  11.9599  12.0153  12.1387  12.3040  12.3932  12.5977
 12.6808  12.8053  12.9819  13.2298  13.3050  13.5716  13.8480  13.8989
 13.9069  14.0398  14.1645  14.9295  15.2293
 --------------------------------------------------------------
 
          Ground-State Mulliken Net Atomic Charges

     Atom                 Charge (a.u.)
  ----------------------------------------
      1 C                    -0.186230
      2 C                    -0.255283
      3 S                    -0.019945
      4 C                    -0.012351
      5 H                     0.196497
      6 C                    -0.029340
      7 C                     0.253100
      8 C                     0.241262
      9 C                    -0.037774
     10 C                    -0.034970
     11 O                    -0.333173
     12 O                    -0.339299
     13 C                    -0.086402
     14 H                     0.124490
     15 H                     0.091452
     16 H                     0.094083
     17 C                    -0.088526
     18 H                     0.126037
     19 H                     0.095078
     20 H                     0.089670
     21 C                    -0.212977
     22 S                    -0.040616
     23 C                    -0.040694
     24 H                     0.211350
     25 H                     0.206915
     26 C                    -0.005524
     27 S                     0.083843
     28 C                    -0.238988
     29 C                    -0.057607
     30 C                    -0.021369
     31 C                     0.386646
     32 C                    -0.138937
     33 S                     0.038394
     34 C                     0.459668
     35 O                    -0.452030
     36 O                    -0.298014
     37 F                    -0.216426
     38 C                    -0.054984
     39 H                     0.116657
     40 H                     0.084414
     41 H                     0.084343
     42 H                     0.217560
  ----------------------------------------
  Sum of atomic charges =     0.000000

 -----------------------------------------------------------------
                    Cartesian Multipole Moments
 -----------------------------------------------------------------
    Charge (ESU x 10^10)
                 0.0000
    Dipole Moment (Debye)
         X       0.8443      Y       1.1485      Z       3.1426
       Tot       3.4507
    Quadrupole Moments (Debye-Ang)
        XX    -201.3697     XY       1.3952     YY    -157.0967
        XZ      -3.3531     YZ      -9.3210     ZZ    -181.3178
    Octopole Moments (Debye-Ang^2)
       XXX     -96.0650    XXY     397.5543    XYY     -13.2071
       YYY     876.8599    XXZ     192.4896    XYZ      -1.7757
       YYZ     130.3037    XZZ      -7.5647    YZZ     382.3287
       ZZZ     594.4703
    Hexadecapole Moments (Debye-Ang^3)
      XXXX    -385.0985   XXXY    -268.9708   XXYY   -3930.2738
      XYYY    -244.9034   YYYY  -18429.2619   XXXZ     116.1508
      XXYZ     288.2658   XYYZ     -24.9272   YYYZ     789.8660
      XXZZ   -1408.2778   XYZZ      -7.5457   YYZZ   -4009.5881
      XZZZ       2.2414   YZZZ     253.2677   ZZZZ   -7542.0117
 -----------------------------------------------------------------
 Total job time:  282.17s(wall), 9297.14s(cpu) 
 Sun Sep 24 17:42:05 2023

        *************************************************************
        *                                                           *
        *  Thank you very much for using Q-Chem.  Have a nice day.  *
        *                                                           *
        *************************************************************


0 sent ACK to 0 
now end server 0 ... 
cleanup process ... done
remove work dirs ./qchem3762984.0 -- ./qchem3762984.0
rm -rf ./qchem3762984.0
rm -rf ./qchem3762984
