You are running Q-Chem version: 5.4.0

#
# job setting
#
local host:  exp-1-48
current dir: /expanse/lustre/projects/csd626/rramji/aromodel/PTB7_fin/Rotation_Test
input file:  fin_bdt_Phi_25_Theta_210_fin_ftt.qcin
output file: 
nprocs     : 1
nthreads   : 64
#
# qchem installation setting
#
QC:          /cm/shared/apps/spack/cpu/opt/spack/linux-centos8-zen2/gcc-10.2.0/qchem-5.4-akfmr7b3t57bfs6qan3padb2wnb2i7cl
QCAUX:       /cm/shared/apps/spack/cpu/opt/spack/linux-centos8-zen2/gcc-10.2.0/qchem-5.4-akfmr7b3t57bfs6qan3padb2wnb2i7cl/qcaux
QCPROG:      /cm/shared/apps/spack/cpu/opt/spack/linux-centos8-zen2/gcc-10.2.0/qchem-5.4-akfmr7b3t57bfs6qan3padb2wnb2i7cl/exe/qcprog.exe
QCPROG_S:    /cm/shared/apps/spack/cpu/opt/spack/linux-centos8-zen2/gcc-10.2.0/qchem-5.4-akfmr7b3t57bfs6qan3padb2wnb2i7cl/exe/qcprog.exe_s
PARALLEL:    -DPARALLEL
QCMPI:       mpich
#
# qchem directory setting
#
qcrun:       qchem175360
QCSCRATCH:   .
QCLOCALSCR:  
QCTMPDIR:    .
QCFILEPREF:  ./qchem175360
QCSAVEDIR:   
workdirs:    ./qchem175360
workdir0:    ./qchem175360
partmpdirs =  
#
# parallel setting
#
QCRSH:           ssh
QCMPI:           mpich
QCMPIRUN:        /cm/shared/apps/spack/cpu/opt/spack/linux-centos8-zen2/gcc-10.2.0/qchem-5.4-akfmr7b3t57bfs6qan3padb2wnb2i7cl/bin/mpi/mpirun_qchem
QCMACHINEFILE:   ./qchem175360/hostfile
exp-1-48

#
# env setting
#
exported envs:   QC QCAUX QCSCRATCH QCRUNNAME QCFILEPREF QCPROG QCPROG_S GUIFILE

Running Job 1 of 1 fin_bdt_Phi_25_Theta_210_fin_ftt.qcin
qchem fin_bdt_Phi_25_Theta_210_fin_ftt.qcin_175360.0 ./qchem175360/ 1
/cm/shared/apps/spack/cpu/opt/spack/linux-centos8-zen2/gcc-10.2.0/qchem-5.4-akfmr7b3t57bfs6qan3padb2wnb2i7cl/bin/mpi/mpirun_qchem -machinefile ./qchem175360/hostfile -np 1 /cm/shared/apps/spack/cpu/opt/spack/linux-centos8-zen2/gcc-10.2.0/qchem-5.4-akfmr7b3t57bfs6qan3padb2wnb2i7cl/exe/qcprog.exe fin_bdt_Phi_25_Theta_210_fin_ftt.qcin_175360.0 ./qchem175360/

Process 0 of 1 is on exp-1-48 - thread support 0
initial socket setup ...start
initial socket setup ...done 
now start server 0 ... 
                  Welcome to Q-Chem
     A Quantum Leap Into The Future Of Chemistry


 Q-Chem 5.4, Q-Chem, Inc., Pleasanton, CA (2021)

 License issued to: University of California, San Diego (site)

 E. Epifanovsky,  A. T. B. Gilbert,  Xintian Feng,  Joonho Lee,  Yuezhi Mao,  
 N. Mardirossian,  P. Pokhilko,  A. White,  M. Wormit,  M. P. Coons,  
 A. L. Dempwolff,  Zhengting Gan,  D. Hait,  P. R. Horn,  L. D. Jacobson,  
 I. Kaliman,  J. Kussmann,  A. W. Lange,  Ka Un Lao,  D. S. Levine,  Jie Liu,  
 S. C. McKenzie,  A. F. Morrison,  K. Nanda,  F. Plasser,  D. R. Rehn,  
 M. L. Vidal,  Zhi-Qiang You,  Ying Zhu,  B. Alam,  B. Albrecht,  
 A. Aldossary,  E. Alguire,  J. H. Andersen,  D. Barton,  K. Begam,  A. Behn,  
 Y. A. Bernard,  E. J. Berquist,  H. Burton,  A. Carreras,  K. Carter-Fenk,  
 R. Chakraborty,  A. D. Chien,  K. D. Closser,  V. Cofer-Shabica,  
 S. Dasgupta,  Jia Deng,  M. de Wergifosse,  M. Diedenhofen,  Hainam Do,  
 S. Ehlert,  Po-Tung Fang,  S. Fatehi,  Qingguo Feng,  J. Gayvert,  
 Qinghui Ge,  G. Gidofalvi,  M. Goldey,  J. Gomes,  C. Gonzalez-Espinoza,  
 S. Gulania,  A. Gunina,  M. W. D. Hanson-Heine,  P. H. P. Harbach,  
 A. W. Hauser,  M. F. Herbst,  M. Hernandez Vera,  M. Hodecker,  
 Z. C. Holden,  S. Houck,  Xunkun Huang,  Kerwin Hui,  B. C. Huynh,  
 M. Ivanov,  Hyunjun Ji,  Hanjie Jiang,  B. Kaduk,  S. Kaehler,  
 K. Khistyaev,  Jaehoon Kim,  P. Klunzinger,  Z. Koczor-Benda,  
 Joong Hoon Koh,  D. Kosenkov,  L. Koulias,  T. Kowalczyk,  C. M. Krauter,  
 K. Kue,  A. Kunitsa,  T. Kus,  A. Landau,  K. V. Lawler,  D. Lefrancois,  
 S. Lehtola,  Rain Li,  Yi-Pei Li,  Jiashu Liang,  M. Liebenthal,  
 Hung-Hsuan Lin,  You-Sheng Lin,  Fenglai Liu,  Kuan-Yu Liu,  
 M. Loipersberger,  A. Luenser,  A. Manjanath,  P. Manohar,  E. Mansoor,  
 S. F. Manzer,  Shan-Ping Mao,  A. V. Marenich,  T. Markovich,  S. Mason,  
 S. A. Maurer,  P. F. McLaughlin,  M. F. S. J. Menger,  J.-M. Mewes,  
 S. A. Mewes,  P. Morgante,  J. W. Mullinax,  T. S. Nguyen-Beck,  
 K. J. Oosterbaan,  G. Paran,  Alexander C. Paul,  Suranjan K. Paul,  
 F. Pavosevic,  Zheng Pei,  S. Prager,  E. I. Proynov,  E. Ramos,  B. Rana,  
 A. E. Rask,  A. Rettig,  R. M. Richard,  F. Rob,  E. Rossomme,  T. Scheele,  
 M. Scheurer,  M. Schneider,  N. Sergueev,  S. M. Sharada,  W. Skomorowski,  
 D. W. Small,  C. J. Stein,  Yu-Chuan Su,  E. J. Sundstrom,  Zhen Tao,  
 J. Thirman,  T. Tsuchimochi,  N. M. Tubman,  S. P. Veccham,  O. Vydrov,  
 J. Wenzel,  J. Witte,  A. Yamada,  Kun Yao,  S. Yeganeh,  S. R. Yost,  
 A. Zech,  Igor Ying Zhang,  Xing Zhang,  Yu Zhang,  D. Zuev,  
 A. Aspuru-Guzik,  A. T. Bell,  N. A. Besley,  K. B. Bravaya,  B. R. Brooks,  
 D. Casanova,  Jeng-Da Chai,  S. Coriani,  C. J. Cramer,  
 A. E. DePrince, III,  R. A. DiStasio Jr.,  A. Dreuw,  B. D. Dunietz,  
 T. R. Furlani,  W. A. Goddard III,  S. Grimme,  S. Hammes-Schiffer,  
 T. Head-Gordon,  W. J. Hehre,  Chao-Ping Hsu,  T.-C. Jagau,  Yousung Jung,  
 A. Klamt,  Jing Kong,  D. S. Lambrecht,  WanZhen Liang,  N. J. Mayhall,  
 C. W. McCurdy,  J. B. Neaton,  C. Ochsenfeld,  J. A. Parkhill,  R. Peverati,  
 V. A. Rassolov,  Yihan Shao,  L. V. Slipchenko,  T. Stauch,  R. P. Steele,  
 J. E. Subotnik,  A. J. W. Thom,  A. Tkatchenko,  D. G. Truhlar,  
 T. Van Voorhis,  T. A. Wesolowski,  K. B. Whaley,  H. L. Woodcock III,  
 P. M. Zimmerman,  S. Faraji,  P. M. W. Gill,  M. Head-Gordon,  
 J. M. Herbert,  A. I. Krylov

 Contributors to earlier versions of Q-Chem not listed above: 
 R. D. Adamson,  B. Austin,  R. Baer,  J. Baker,  G. J. O. Beran,  
 K. Brandhorst,  S. T. Brown,  E. F. C. Byrd,  A. K. Chakraborty,  
 G. K. L. Chan,  Chun-Min Chang,  Yunqing Chen,  C.-L. Cheng,  
 Siu Hung Chien,  D. M. Chipman,  D. L. Crittenden,  H. Dachsel,  
 R. J. Doerksen,  A. D. Dutoi,  R. G. Edgar,  J. Fosso-Tande,  
 L. Fusti-Molnar,  D. Ghosh,  A. Ghysels,  A. Golubeva-Zadorozhnaya,  
 J. Gonthier,  M. S. Gordon,  S. R. Gwaltney,  G. Hawkins,  J. E. Herr,  
 A. Heyden,  S. Hirata,  E. G. Hohenstein,  G. Kedziora,  F. J. Keil,  
 C. Kelley,  Jihan Kim,  R. A. King,  R. Z. Khaliullin,  P. P. Korambath,  
 W. Kurlancheek,  A. Laurent,  A. M. Lee,  M. S. Lee,  S. V. Levchenko,  
 Ching Yeh Lin,  D. Liotard,  E. Livshits,  R. C. Lochan,  I. Lotan,  
 L. A. Martinez-Martinez,  P. E. Maslen,  N. Nair,  D. P. O'Neill,  
 D. Neuhauser,  E. Neuscamman,  C. M. Oana,  R. Olivares-Amaya,  R. Olson,  
 T. M. Perrine,  B. Peters,  P. A. Pieniazek,  A. Prociuk,  Y. M. Rhee,  
 J. Ritchie,  M. A. Rohrdanz,  E. Rosta,  N. J. Russ,  H. F. Schaefer III,  
 M. W. Schmidt,  N. E. Schultz,  S. Sharma,  N. Shenvi,  C. D. Sherrill,  
 A. C. Simmonett,  A. Sodt,  T. Stein,  D. Stuck,  K. S. Thanthiriwatte,  
 V. Vanovschi,  L. Vogt,  Tao Wang,  A. Warshel,  M. A. Watson,  
 C. F. Williams,  Q. Wu,  X. Xu,  Jun Yang,  W. Zhang,  Yan Zhao

 Please cite Q-Chem as follows:
 Y. Shao et al., Mol. Phys. 113, 184-215 (2015)
 DOI: 10.1080/00268976.2014.952696

 Q-Chem 5.4.0 for Intel X86 EM64T Linux

 Parts of Q-Chem use Armadillo 9.800.1 (Horizon Scraper).
 http://arma.sourceforge.net/

 Q-Chem begins on Tue Sep 26 19:16:01 2023  

 Host: 
0

     Scratch files written to ./qchem175360//
 May1621 |scratch|qcdevops|jenkins|workspace|build_RNUM    
 Parallel job on  1  processors
 Processing $rem in /cm/shared/apps/spack/cpu/opt/spack/linux-centos8-zen2/gcc-10.2.0/qchem-5.4-akfmr7b3t57bfs6qan3padb2wnb2i7cl/config/preferences:
 Processing $rem in /home/rramji/.qchemrc:
 Symmetry turned off for PCM/SM12/SMD calculation
 Core orbitals will be frozen

 Checking the input file for inconsistencies... 	...done.

 Q-Chem warning in module forms1/BasisType.C, line 2236:

 You are not using the predefined 5D/6D in this basis set.


--------------------------------------------------------------
User input:
--------------------------------------------------------------
$molecule
0 1
C	0.175432	-8.519741	-0.208002
C	-0.352097	-7.635967	0.722164
S	0.936458	-7.651740	-1.563424
C	-0.160388	-6.261894	0.386833
H	-0.870905	-7.954738	1.635031
C	0.553685	-6.079985	-0.849637
C	0.816372	-4.798382	-1.357938
C	-0.627524	-5.153542	1.149702
C	-0.368399	-3.869626	0.638941
C	0.348912	-3.688927	-0.597409
O	-1.262667	-5.481075	2.309260
O	1.453338	-4.479871	-2.523296
C	2.449320	-5.356026	-3.036927
H	2.982577	-4.790496	-3.824632
H	2.011155	-6.268513	-3.497250
H	3.173591	-5.658187	-2.249807
C	-2.130793	-4.546999	2.939226
H	-2.663289	-5.107564	3.730721
H	-2.873906	-4.131473	2.225196
H	-1.572045	-3.712085	3.415077
C	0.536849	-2.314326	-0.930765
S	-0.763041	-2.295487	1.347913
C	-0.000000	-1.435180	-0.000000
H	1.057554	-1.993211	-1.841645
H	0.170535	-9.615985	-0.204438
C	0.000000	0.000000	0.000000
S	0.382139	0.814215	1.510732
C	1.046923	2.242395	0.727629
C	0.383804	0.823142	-1.064665
C	0.969360	2.082453	-0.678287
C	0.357247	0.762277	-2.486150
C	0.891671	1.908660	-3.106916
S	1.415865	3.040689	-1.965735
C	1.003453	2.137318	-4.559972
O	0.611644	1.290019	-5.350277
O	1.548687	3.298916	-5.004375
F	-0.110054	-0.249117	-3.246290
C	1.709479	3.619721	-6.334976
H	2.177001	4.620902	-6.370268
H	0.737443	3.643380	-6.875609
H	2.359363	2.886384	-6.861878
H	1.435800	3.076190	1.321510
$end

$rem
JOBTYPE		SP
EXCHANGE	HF
CORRELATION	pRIMP2
BASIS		cc-pvtz
METHOD		rimp2
AUX_BASIS	rimp2-cc-pvtz
SOLVENT_METHOD	PCM
PURECART	11111
SYMMETRY	false
MEM_TOTAL	110000
SCF_CONVERGENCE = 6
THRESH=10
GUI = 2
$end



$solvent
dielectric 4.90
$end
--------------------------------------------------------------
 ----------------------------------------------------------------
             Standard Nuclear Orientation (Angstroms)
    I     Atom           X                Y                Z
 ----------------------------------------------------------------
    1      C       0.1754320000    -8.5197410000    -0.2080020000
    2      C      -0.3520970000    -7.6359670000     0.7221640000
    3      S       0.9364580000    -7.6517400000    -1.5634240000
    4      C      -0.1603880000    -6.2618940000     0.3868330000
    5      H      -0.8709050000    -7.9547380000     1.6350310000
    6      C       0.5536850000    -6.0799850000    -0.8496370000
    7      C       0.8163720000    -4.7983820000    -1.3579380000
    8      C      -0.6275240000    -5.1535420000     1.1497020000
    9      C      -0.3683990000    -3.8696260000     0.6389410000
   10      C       0.3489120000    -3.6889270000    -0.5974090000
   11      O      -1.2626670000    -5.4810750000     2.3092600000
   12      O       1.4533380000    -4.4798710000    -2.5232960000
   13      C       2.4493200000    -5.3560260000    -3.0369270000
   14      H       2.9825770000    -4.7904960000    -3.8246320000
   15      H       2.0111550000    -6.2685130000    -3.4972500000
   16      H       3.1735910000    -5.6581870000    -2.2498070000
   17      C      -2.1307930000    -4.5469990000     2.9392260000
   18      H      -2.6632890000    -5.1075640000     3.7307210000
   19      H      -2.8739060000    -4.1314730000     2.2251960000
   20      H      -1.5720450000    -3.7120850000     3.4150770000
   21      C       0.5368490000    -2.3143260000    -0.9307650000
   22      S      -0.7630410000    -2.2954870000     1.3479130000
   23      C       0.0000000000    -1.4351800000     0.0000000000
   24      H       1.0575540000    -1.9932110000    -1.8416450000
   25      H       0.1705350000    -9.6159850000    -0.2044380000
   26      C       0.0000000000     0.0000000000     0.0000000000
   27      S       0.3821390000     0.8142150000     1.5107320000
   28      C       1.0469230000     2.2423950000     0.7276290000
   29      C       0.3838040000     0.8231420000    -1.0646650000
   30      C       0.9693600000     2.0824530000    -0.6782870000
   31      C       0.3572470000     0.7622770000    -2.4861500000
   32      C       0.8916710000     1.9086600000    -3.1069160000
   33      S       1.4158650000     3.0406890000    -1.9657350000
   34      C       1.0034530000     2.1373180000    -4.5599720000
   35      O       0.6116440000     1.2900190000    -5.3502770000
   36      O       1.5486870000     3.2989160000    -5.0043750000
   37      F      -0.1100540000    -0.2491170000    -3.2462900000
   38      C       1.7094790000     3.6197210000    -6.3349760000
   39      H       2.1770010000     4.6209020000    -6.3702680000
   40      H       0.7374430000     3.6433800000    -6.8756090000
   41      H       2.3593630000     2.8863840000    -6.8618780000
   42      H       1.4358000000     3.0761900000     1.3215100000
 ----------------------------------------------------------------
 Nuclear Repulsion Energy =        3317.25453145 hartrees
 There are      119 alpha and      119 beta electrons
 Requested basis set is cc-pVTZ
 There are 376 shells and 1068 basis functions

 Total QAlloc Memory Limit 110000 MB
 Mega-Array Size       188 MB
 MEM_STATIC part       192 MB
 Discretize the solute cavity surface with Lebedev spheres
	Using 110 Lebedev grid points for each H atom
	Using 194 Lebedev grid points for other atoms
	Atomic van der Waals radii will be scaled by 1.20
 Remove points where switching function is < 1.0e-08
 Keep 2856 surface tesserae and discard 4200 interior tesserae
 Molecular Surface Area = 436.401 Angst**2
 Requested basis set is rimp2-cc-pVTZ
 There are 833 shells and 2903 basis functions
 A cutoff of  1.0D-10 yielded  31571 shell pairs
 There are    242341 function pairs (    314596 Cartesian)
 Smallest overlap matrix eigenvalue = 2.12E-05

 Scale SEOQF with 1.000000e-01/1.000000e-02/1.000000e-02

 Standard Electronic Orientation quadrupole field applied
 Nucleus-field energy     =     0.0000000235 hartrees
 Guess from superposition of atomic densities
 Warning:  Energy on first SCF cycle will be non-variational
 SAD guess density has 238.000000 electrons

 -----------------------------------------------------------------------
  General SCF calculation program by
  Eric Jon Sundstrom, Paul Horn, Yuezhi Mao, Dmitri Zuev, Alec White,
  David Stuck, Shaama M.S., Shane Yost, Joonho Lee, David Small,
  Daniel Levine, Susi Lehtola, Hugh Burton, Evgeny Epifanovsky,
  Bang C. Huynh
 -----------------------------------------------------------------------
 Hartree-Fock
 using 64 threads for integral computing
 -------------------------------------------------------
 OpenMP Integral computing Module                
 Release: version 1.0, May 2013, Q-Chem Inc. Pittsburgh 
 -------------------------------------------------------
 A restricted SCF calculation will be
 performed using DIIS
 SCF converges when DIIS error is below 1.0e-06
 ---------------------------------------
  Cycle       Energy         DIIS error
 ---------------------------------------
    1   -2765.5588952265      1.77e-02  
    2   -2753.8501164637      1.57e-03  
    3   -2754.1906806274      8.83e-04  
    4   -2754.2750959408      2.54e-04  
    5   -2754.2867227483      6.84e-05  
    6   -2754.2878105662      2.40e-05  
    7   -2754.2880519162      1.15e-05  
    8   -2754.2881319416      4.47e-06  
    9   -2754.2881479908      1.93e-06  
   10   -2754.2881503238      8.23e-07  Convergence criterion met
 ---------------------------------------
 SCF time:   CPU 6353.83s  wall 244.00s 

************** Final PCM Free Energy Summary **************
 G_electrostatic  =      -0.01989851 hartree =     -12.48650155 kcal/mol
 G_cavitation     =       0.00000000 hartree =       0.00000000 kcal/mol
 G_dispersion     =       0.00000000 hartree =       0.00000000 kcal/mol
 G_repulsion      =       0.00000000 hartree =       0.00000000 kcal/mol
 --------------------------------------------------
 Non-electrostatic Free Energy =       0.00000000 hartree =       0.00000000 kcal/mol
 Total                         =      -0.01989851 hartree =     -12.48650155 kcal/mol
 --------------------------------------------------
 SCF Energy (H0 + V/2)                       =   -2754.28815032 
 Solute Internal Energy (H0)                 =   -2754.26825182 
 Total Free Energy (H0 + V/2 + non-elec)     =   -2754.28815032 hartree
                                             = -1728341.90019128 kcal/mol
***********************************************************

 SCF   energy in the final basis set =    -2754.2881503238
 Total energy in the final basis set =    -2754.2881503238


 --------------------------------------------------------------
  Generalized many-body perturbation theory program
  by Joonho Lee, Fazle Rob, Xintian Feng, Evgeny Epifanovsky

 No regularization used 
 (reg. param. = 0.0000e+00)
  (P|Q)^-1/2 Time:  CPU 261.88 s  wall 4.60 s

 In RI-MP2 calculation: 
 # of frozen core orbitals: 45

 Components of the RIMP2 correlation energy:
        aaaa    correlation energy =        -0.6718272831 a.u.
        abab    correlation energy =        -3.7141677027 a.u.
        bbbb    correlation energy =        -0.6718272831 a.u.
        non-Brillouin singles      =        -0.0000000000 a.u.
        total same-spin energy     =        -1.3436545662 a.u.
        total opposite-spin energy =        -3.7141677027 a.u.

 Total  RIMP2   correlation energy =        -5.0578222689 a.u.
        RIMP2         total energy =     -2759.3459725927 a.u.

 RI-MP2 Energy Time:  CPU 2760.40 s  wall 48.27 s
 
 --------------------------------------------------------------
 
                    Orbital Energies (a.u.)
 --------------------------------------------------------------
 
 Alpha MOs
 -- Occupied --
-92.0163 -91.9969 -91.9892 -91.9864 -26.3353 -20.6125 -20.5926 -20.5909
-20.5507 -11.4110 -11.3778 -11.3195 -11.3179 -11.3075 -11.2991 -11.2988
-11.2977 -11.2962 -11.2887 -11.2873 -11.2867 -11.2854 -11.2841 -11.2834
-11.2797 -11.2616 -11.2591 -11.2564 -11.2499  -9.0149  -9.0008  -8.9898
 -8.9863  -6.6956  -6.6950  -6.6945  -6.6820  -6.6814  -6.6800  -6.6709
 -6.6702  -6.6692  -6.6672  -6.6666  -6.6658  -1.6486  -1.4723  -1.4167
 -1.4137  -1.3677  -1.2352  -1.1963  -1.1693  -1.1430  -1.0846  -1.0523
 -1.0487  -1.0288  -1.0025  -0.9936  -0.9727  -0.9609  -0.9504  -0.9388
 -0.8963  -0.8704  -0.8500  -0.8040  -0.7953  -0.7881  -0.7723  -0.7707
 -0.7574  -0.7327  -0.7200  -0.7168  -0.7014  -0.6897  -0.6828  -0.6788
 -0.6727  -0.6617  -0.6591  -0.6523  -0.6286  -0.6198  -0.6162  -0.6070
 -0.6030  -0.5958  -0.5850  -0.5756  -0.5702  -0.5624  -0.5541  -0.5491
 -0.5352  -0.5263  -0.5258  -0.5166  -0.5163  -0.5085  -0.5053  -0.4970
 -0.4874  -0.4852  -0.4768  -0.4680  -0.4620  -0.4617  -0.4595  -0.4203
 -0.3975  -0.3857  -0.3585  -0.3509  -0.3241  -0.2854  -0.2495
 -- Virtual --
  0.0102   0.0764   0.1146   0.1233   0.1302   0.1449   0.1505   0.1550
  0.1560   0.1608   0.1628   0.1784   0.1830   0.1864   0.1906   0.1969
  0.2039   0.2064   0.2102   0.2168   0.2209   0.2227   0.2237   0.2302
  0.2322   0.2438   0.2484   0.2562   0.2601   0.2684   0.2765   0.2778
  0.3007   0.3123   0.3184   0.3316   0.3382   0.3408   0.3485   0.3511
  0.3546   0.3595   0.3691   0.3732   0.3774   0.3794   0.3814   0.3853
  0.3881   0.3923   0.3956   0.4075   0.4096   0.4173   0.4189   0.4225
  0.4314   0.4324   0.4383   0.4415   0.4453   0.4495   0.4554   0.4576
  0.4613   0.4667   0.4685   0.4741   0.4765   0.4824   0.4909   0.4925
  0.4973   0.5007   0.5037   0.5086   0.5106   0.5178   0.5208   0.5228
  0.5275   0.5336   0.5384   0.5405   0.5469   0.5487   0.5508   0.5532
  0.5562   0.5585   0.5648   0.5673   0.5679   0.5725   0.5754   0.5812
  0.5873   0.5905   0.5930   0.5977   0.5988   0.6056   0.6090   0.6120
  0.6161   0.6178   0.6217   0.6229   0.6284   0.6308   0.6333   0.6366
  0.6385   0.6422   0.6465   0.6507   0.6540   0.6579   0.6672   0.6676
  0.6732   0.6767   0.6848   0.6854   0.6903   0.6974   0.7031   0.7083
  0.7114   0.7155   0.7185   0.7254   0.7362   0.7392   0.7471   0.7532
  0.7557   0.7609   0.7702   0.7738   0.7868   0.7901   0.7953   0.8008
  0.8045   0.8058   0.8143   0.8191   0.8237   0.8308   0.8382   0.8478
  0.8523   0.8571   0.8664   0.8694   0.8756   0.8819   0.8851   0.8952
  0.8994   0.9054   0.9066   0.9100   0.9176   0.9207   0.9258   0.9295
  0.9310   0.9347   0.9374   0.9487   0.9503   0.9576   0.9603   0.9679
  0.9719   0.9786   0.9805   0.9893   0.9956   0.9974   1.0001   1.0028
  1.0063   1.0124   1.0144   1.0159   1.0209   1.0326   1.0355   1.0444
  1.0493   1.0532   1.0557   1.0611   1.0645   1.0721   1.0733   1.0759
  1.0863   1.0905   1.0922   1.0961   1.1013   1.1032   1.1088   1.1176
  1.1237   1.1316   1.1358   1.1409   1.1452   1.1487   1.1519   1.1566
  1.1651   1.1669   1.1757   1.1762   1.1841   1.1876   1.1926   1.1981
  1.2000   1.2062   1.2118   1.2186   1.2201   1.2245   1.2298   1.2337
  1.2377   1.2395   1.2427   1.2546   1.2578   1.2678   1.2724   1.2756
  1.2780   1.2856   1.2948   1.3017   1.3078   1.3119   1.3190   1.3251
  1.3364   1.3378   1.3416   1.3499   1.3504   1.3609   1.3656   1.3701
  1.3760   1.3817   1.3894   1.3936   1.4010   1.4074   1.4132   1.4232
  1.4276   1.4407   1.4435   1.4576   1.4681   1.4760   1.4857   1.4864
  1.4925   1.5001   1.5043   1.5109   1.5122   1.5200   1.5214   1.5285
  1.5312   1.5393   1.5411   1.5459   1.5504   1.5560   1.5619   1.5689
  1.5697   1.5824   1.5917   1.6014   1.6084   1.6159   1.6216   1.6250
  1.6381   1.6469   1.6514   1.6554   1.6635   1.6687   1.6718   1.6905
  1.6915   1.6936   1.7059   1.7143   1.7222   1.7275   1.7354   1.7468
  1.7591   1.7609   1.7696   1.7800   1.7974   1.8056   1.8132   1.8197
  1.8243   1.8332   1.8372   1.8483   1.8559   1.8642   1.8667   1.8721
  1.8768   1.8861   1.9026   1.9059   1.9145   1.9154   1.9241   1.9294
  1.9383   1.9511   1.9558   1.9619   1.9683   1.9737   1.9799   1.9821
  2.0040   2.0114   2.0182   2.0236   2.0316   2.0438   2.0558   2.0699
  2.0800   2.0961   2.0990   2.1128   2.1147   2.1292   2.1400   2.1472
  2.1517   2.1567   2.1596   2.1650   2.1747   2.1774   2.1883   2.1926
  2.1959   2.1994   2.2168   2.2193   2.2310   2.2355   2.2393   2.2440
  2.2531   2.2546   2.2636   2.2717   2.2742   2.2809   2.2849   2.2930
  2.2991   2.3064   2.3141   2.3204   2.3362   2.3509   2.3515   2.3590
  2.3673   2.3821   2.3858   2.3917   2.4029   2.4164   2.4256   2.4296
  2.4333   2.4430   2.4519   2.4530   2.4604   2.4779   2.4820   2.4924
  2.5004   2.5036   2.5231   2.5288   2.5353   2.5467   2.5553   2.5601
  2.5761   2.5799   2.5877   2.5895   2.6100   2.6152   2.6182   2.6256
  2.6316   2.6373   2.6378   2.6444   2.6504   2.6633   2.6651   2.6661
  2.6732   2.6870   2.6958   2.6995   2.7006   2.7047   2.7123   2.7222
  2.7246   2.7316   2.7383   2.7401   2.7451   2.7565   2.7579   2.7756
  2.7816   2.7871   2.7935   2.7971   2.8037   2.8086   2.8211   2.8273
  2.8340   2.8405   2.8408   2.8461   2.8563   2.8663   2.8692   2.8736
  2.8768   2.8800   2.8833   2.8971   2.9071   2.9177   2.9263   2.9423
  2.9478   2.9529   2.9595   2.9714   2.9751   2.9828   2.9903   3.0026
  3.0044   3.0181   3.0241   3.0329   3.0367   3.0386   3.0442   3.0490
  3.0505   3.0617   3.0698   3.0749   3.0807   3.0908   3.0943   3.1004
  3.1070   3.1133   3.1152   3.1207   3.1287   3.1310   3.1423   3.1489
  3.1563   3.1601   3.1611   3.1661   3.1692   3.1718   3.1801   3.1821
  3.1964   3.1984   3.2058   3.2073   3.2148   3.2168   3.2255   3.2287
  3.2353   3.2406   3.2432   3.2455   3.2505   3.2566   3.2654   3.2688
  3.2743   3.2795   3.2834   3.2840   3.2908   3.2923   3.2948   3.3010
  3.3091   3.3176   3.3212   3.3309   3.3322   3.3394   3.3462   3.3484
  3.3495   3.3575   3.3601   3.3626   3.3634   3.3670   3.3705   3.3774
  3.3856   3.3893   3.3919   3.3941   3.3994   3.4131   3.4181   3.4220
  3.4242   3.4263   3.4367   3.4399   3.4437   3.4467   3.4497   3.4561
  3.4620   3.4649   3.4684   3.4740   3.4757   3.4866   3.4899   3.4957
  3.5011   3.5083   3.5128   3.5176   3.5237   3.5263   3.5306   3.5357
  3.5443   3.5508   3.5541   3.5608   3.5655   3.5770   3.5795   3.5868
  3.5930   3.5942   3.5987   3.6009   3.6033   3.6070   3.6139   3.6222
  3.6317   3.6343   3.6415   3.6446   3.6462   3.6552   3.6572   3.6671
  3.6699   3.6713   3.6761   3.6832   3.6869   3.6875   3.6965   3.7009
  3.7089   3.7120   3.7148   3.7249   3.7258   3.7301   3.7322   3.7368
  3.7442   3.7484   3.7565   3.7662   3.7695   3.7771   3.7838   3.7901
  3.7935   3.7961   3.8016   3.8069   3.8182   3.8260   3.8268   3.8340
  3.8360   3.8419   3.8474   3.8547   3.8632   3.8636   3.8715   3.8727
  3.8800   3.8822   3.8917   3.8980   3.9090   3.9150   3.9230   3.9267
  3.9293   3.9377   3.9461   3.9537   3.9643   3.9694   3.9816   3.9835
  3.9885   3.9970   4.0105   4.0147   4.0216   4.0314   4.0338   4.0469
  4.0493   4.0555   4.0620   4.0643   4.0746   4.0798   4.0836   4.0902
  4.0929   4.1015   4.1125   4.1147   4.1258   4.1372   4.1492   4.1528
  4.1648   4.1650   4.1719   4.1824   4.1879   4.1886   4.1909   4.2072
  4.2087   4.2215   4.2373   4.2459   4.2475   4.2644   4.2654   4.2758
  4.2880   4.2955   4.3114   4.3145   4.3240   4.3372   4.3394   4.3476
  4.3546   4.3662   4.3722   4.3766   4.3816   4.3913   4.3950   4.4043
  4.4080   4.4110   4.4159   4.4232   4.4288   4.4351   4.4431   4.4517
  4.4573   4.4713   4.4815   4.4904   4.5003   4.5037   4.5089   4.5162
  4.5364   4.5435   4.5474   4.5541   4.5572   4.5698   4.5838   4.5936
  4.6017   4.6159   4.6211   4.6335   4.6368   4.6385   4.6478   4.6581
  4.6649   4.6676   4.6727   4.6819   4.6834   4.7020   4.7149   4.7280
  4.7368   4.7493   4.7598   4.7675   4.7752   4.7837   4.7945   4.8096
  4.8272   4.8296   4.8339   4.8479   4.8653   4.8835   4.9112   4.9193
  4.9424   4.9437   4.9489   4.9605   4.9663   4.9826   4.9943   5.0019
  5.0058   5.0118   5.0165   5.0356   5.0431   5.0646   5.0730   5.0797
  5.0868   5.1038   5.1229   5.1580   5.1705   5.1792   5.1847   5.1978
  5.2052   5.2179   5.2222   5.2445   5.2545   5.2591   5.2626   5.2833
  5.3000   5.3120   5.3259   5.3303   5.3389   5.3549   5.3565   5.3709
  5.3808   5.3940   5.3986   5.4009   5.4152   5.4342   5.4637   5.4729
  5.4775   5.4802   5.5035   5.5073   5.5143   5.5202   5.5476   5.5642
  5.5761   5.5829   5.5892   5.6063   5.6173   5.6301   5.6425   5.6923
  5.7139   5.7345   5.7742   5.8004   5.8128   5.8368   5.8515   5.8560
  5.8741   5.8825   5.9385   5.9677   5.9694   5.9792   6.0037   6.0372
  6.0641   6.1047   6.1199   6.1334   6.1548   6.1708   6.1808   6.1854
  6.2401   6.2464   6.2720   6.2815   6.3068   6.3083   6.3192   6.3914
  6.4430   6.4517   6.4990   6.5382   6.5537   6.5560   6.5646   6.6547
  6.6762   6.6802   6.7094   6.7400   6.7443   6.8036   6.8452   6.8601
  6.8832   6.8928   6.9907   7.1200   7.1378   7.1781   7.2107   7.2156
  7.2349   7.3213   7.3262   7.3323   7.3740   7.3757   7.4276   7.4622
  7.4783   7.4860   7.4894   7.5194   7.5485   7.6084   7.7123   7.7695
  7.7973   7.8312   7.9037   7.9227   7.9483   8.0049   8.0880   8.1660
  8.5702   8.9436   9.0083   9.3691   9.5010   9.6972  10.2168  10.5764
 11.2400  11.3530  11.9372  11.9804  12.1319  12.2136  12.3900  12.5700
 12.6273  12.7543  12.9489  13.2170  13.2870  13.5327  13.8464  13.8604
 13.9017  14.0362  14.1338  14.7849  15.2082
 --------------------------------------------------------------
 
          Ground-State Mulliken Net Atomic Charges

     Atom                 Charge (a.u.)
  ----------------------------------------
      1 C                    -0.188623
      2 C                    -0.254291
      3 S                    -0.021050
      4 C                    -0.015911
      5 H                     0.196266
      6 C                    -0.028752
      7 C                     0.244551
      8 C                     0.243704
      9 C                    -0.040173
     10 C                    -0.029540
     11 O                    -0.333398
     12 O                    -0.339013
     13 C                    -0.085967
     14 H                     0.123236
     15 H                     0.091302
     16 H                     0.093619
     17 C                    -0.087548
     18 H                     0.125788
     19 H                     0.095352
     20 H                     0.089121
     21 C                    -0.206241
     22 S                    -0.032298
     23 C                    -0.005486
     24 H                     0.194831
     25 H                     0.206485
     26 C                    -0.016876
     27 S                     0.117636
     28 C                    -0.235852
     29 C                    -0.108442
     30 C                    -0.010117
     31 C                     0.362464
     32 C                    -0.141847
     33 S                     0.047327
     34 C                     0.460786
     35 O                    -0.448969
     36 O                    -0.298012
     37 F                    -0.212051
     38 C                    -0.054779
     39 H                     0.116749
     40 H                     0.084790
     41 H                     0.084521
     42 H                     0.216707
  ----------------------------------------
  Sum of atomic charges =     0.000000

 -----------------------------------------------------------------
                    Cartesian Multipole Moments
 -----------------------------------------------------------------
    Charge (ESU x 10^10)
                 0.0000
    Dipole Moment (Debye)
         X       1.8467      Y       1.6230      Z       3.3283
       Tot       4.1379
    Quadrupole Moments (Debye-Ang)
        XX    -186.9289     XY       4.9186     YY    -161.0381
        XZ     -17.4048     YZ     -10.1350     ZZ    -192.8131
    Octopole Moments (Debye-Ang^2)
       XXX    -245.1246    XXY     362.8684    XYY     -47.1005
       YYY     923.0626    XXZ     174.6161    XYZ      43.3653
       YYZ     141.3815    XZZ     -32.4433    YZZ     450.0368
       ZZZ     586.8454
    Hexadecapole Moments (Debye-Ang^3)
      XXXX   -1488.2823   XXXY    -242.1350   XXYY   -3708.6875
      XYYY    -220.3861   YYYY  -18201.8130   XXXZ    1086.2771
      XXYZ     288.4891   XYYZ     -24.5397   YYYZ     786.1423
      XXZZ   -1274.2870   XYZZ     110.7338   YYZZ   -4203.7437
      XZZZ     735.4373   YZZZ     242.6499   ZZZZ   -7102.0893
 -----------------------------------------------------------------
 Total job time:  296.70s(wall), 9231.72s(cpu) 
 Tue Sep 26 19:20:58 2023

        *************************************************************
        *                                                           *
        *  Thank you very much for using Q-Chem.  Have a nice day.  *
        *                                                           *
        *************************************************************


0 sent ACK to 0 
now end server 0 ... 
cleanup process ... done
remove work dirs ./qchem175360.0 -- ./qchem175360.0
rm -rf ./qchem175360.0
rm -rf ./qchem175360
