You are running Q-Chem version: 5.4.0

#
# job setting
#
local host:  exp-6-35
current dir: /expanse/lustre/projects/csd626/rramji/aromodel/PTB7_fin/Rotation_Test
input file:  fin_bdt_Phi_60_Theta_120_fin_ftt.qcin
output file: 
nprocs     : 1
nthreads   : 64
#
# qchem installation setting
#
QC:          /cm/shared/apps/spack/cpu/opt/spack/linux-centos8-zen2/gcc-10.2.0/qchem-5.4-akfmr7b3t57bfs6qan3padb2wnb2i7cl
QCAUX:       /cm/shared/apps/spack/cpu/opt/spack/linux-centos8-zen2/gcc-10.2.0/qchem-5.4-akfmr7b3t57bfs6qan3padb2wnb2i7cl/qcaux
QCPROG:      /cm/shared/apps/spack/cpu/opt/spack/linux-centos8-zen2/gcc-10.2.0/qchem-5.4-akfmr7b3t57bfs6qan3padb2wnb2i7cl/exe/qcprog.exe
QCPROG_S:    /cm/shared/apps/spack/cpu/opt/spack/linux-centos8-zen2/gcc-10.2.0/qchem-5.4-akfmr7b3t57bfs6qan3padb2wnb2i7cl/exe/qcprog.exe_s
PARALLEL:    -DPARALLEL
QCMPI:       mpich
#
# qchem directory setting
#
qcrun:       qchem3047287
QCSCRATCH:   .
QCLOCALSCR:  
QCTMPDIR:    .
QCFILEPREF:  ./qchem3047287
QCSAVEDIR:   
workdirs:    ./qchem3047287
workdir0:    ./qchem3047287
partmpdirs =  
#
# parallel setting
#
QCRSH:           ssh
QCMPI:           mpich
QCMPIRUN:        /cm/shared/apps/spack/cpu/opt/spack/linux-centos8-zen2/gcc-10.2.0/qchem-5.4-akfmr7b3t57bfs6qan3padb2wnb2i7cl/bin/mpi/mpirun_qchem
QCMACHINEFILE:   ./qchem3047287/hostfile
exp-6-35

#
# env setting
#
exported envs:   QC QCAUX QCSCRATCH QCRUNNAME QCFILEPREF QCPROG QCPROG_S GUIFILE

Running Job 1 of 1 fin_bdt_Phi_60_Theta_120_fin_ftt.qcin
qchem fin_bdt_Phi_60_Theta_120_fin_ftt.qcin_3047287.0 ./qchem3047287/ 1
/cm/shared/apps/spack/cpu/opt/spack/linux-centos8-zen2/gcc-10.2.0/qchem-5.4-akfmr7b3t57bfs6qan3padb2wnb2i7cl/bin/mpi/mpirun_qchem -machinefile ./qchem3047287/hostfile -np 1 /cm/shared/apps/spack/cpu/opt/spack/linux-centos8-zen2/gcc-10.2.0/qchem-5.4-akfmr7b3t57bfs6qan3padb2wnb2i7cl/exe/qcprog.exe fin_bdt_Phi_60_Theta_120_fin_ftt.qcin_3047287.0 ./qchem3047287/

Process 0 of 1 is on exp-6-35 - thread support 0
initial socket setup ...start
initial socket setup ...done 
now start server 0 ... 
                  Welcome to Q-Chem
     A Quantum Leap Into The Future Of Chemistry


 Q-Chem 5.4, Q-Chem, Inc., Pleasanton, CA (2021)

 License issued to: University of California, San Diego (site)

 E. Epifanovsky,  A. T. B. Gilbert,  Xintian Feng,  Joonho Lee,  Yuezhi Mao,  
 N. Mardirossian,  P. Pokhilko,  A. White,  M. Wormit,  M. P. Coons,  
 A. L. Dempwolff,  Zhengting Gan,  D. Hait,  P. R. Horn,  L. D. Jacobson,  
 I. Kaliman,  J. Kussmann,  A. W. Lange,  Ka Un Lao,  D. S. Levine,  Jie Liu,  
 S. C. McKenzie,  A. F. Morrison,  K. Nanda,  F. Plasser,  D. R. Rehn,  
 M. L. Vidal,  Zhi-Qiang You,  Ying Zhu,  B. Alam,  B. Albrecht,  
 A. Aldossary,  E. Alguire,  J. H. Andersen,  D. Barton,  K. Begam,  A. Behn,  
 Y. A. Bernard,  E. J. Berquist,  H. Burton,  A. Carreras,  K. Carter-Fenk,  
 R. Chakraborty,  A. D. Chien,  K. D. Closser,  V. Cofer-Shabica,  
 S. Dasgupta,  Jia Deng,  M. de Wergifosse,  M. Diedenhofen,  Hainam Do,  
 S. Ehlert,  Po-Tung Fang,  S. Fatehi,  Qingguo Feng,  J. Gayvert,  
 Qinghui Ge,  G. Gidofalvi,  M. Goldey,  J. Gomes,  C. Gonzalez-Espinoza,  
 S. Gulania,  A. Gunina,  M. W. D. Hanson-Heine,  P. H. P. Harbach,  
 A. W. Hauser,  M. F. Herbst,  M. Hernandez Vera,  M. Hodecker,  
 Z. C. Holden,  S. Houck,  Xunkun Huang,  Kerwin Hui,  B. C. Huynh,  
 M. Ivanov,  Hyunjun Ji,  Hanjie Jiang,  B. Kaduk,  S. Kaehler,  
 K. Khistyaev,  Jaehoon Kim,  P. Klunzinger,  Z. Koczor-Benda,  
 Joong Hoon Koh,  D. Kosenkov,  L. Koulias,  T. Kowalczyk,  C. M. Krauter,  
 K. Kue,  A. Kunitsa,  T. Kus,  A. Landau,  K. V. Lawler,  D. Lefrancois,  
 S. Lehtola,  Rain Li,  Yi-Pei Li,  Jiashu Liang,  M. Liebenthal,  
 Hung-Hsuan Lin,  You-Sheng Lin,  Fenglai Liu,  Kuan-Yu Liu,  
 M. Loipersberger,  A. Luenser,  A. Manjanath,  P. Manohar,  E. Mansoor,  
 S. F. Manzer,  Shan-Ping Mao,  A. V. Marenich,  T. Markovich,  S. Mason,  
 S. A. Maurer,  P. F. McLaughlin,  M. F. S. J. Menger,  J.-M. Mewes,  
 S. A. Mewes,  P. Morgante,  J. W. Mullinax,  T. S. Nguyen-Beck,  
 K. J. Oosterbaan,  G. Paran,  Alexander C. Paul,  Suranjan K. Paul,  
 F. Pavosevic,  Zheng Pei,  S. Prager,  E. I. Proynov,  E. Ramos,  B. Rana,  
 A. E. Rask,  A. Rettig,  R. M. Richard,  F. Rob,  E. Rossomme,  T. Scheele,  
 M. Scheurer,  M. Schneider,  N. Sergueev,  S. M. Sharada,  W. Skomorowski,  
 D. W. Small,  C. J. Stein,  Yu-Chuan Su,  E. J. Sundstrom,  Zhen Tao,  
 J. Thirman,  T. Tsuchimochi,  N. M. Tubman,  S. P. Veccham,  O. Vydrov,  
 J. Wenzel,  J. Witte,  A. Yamada,  Kun Yao,  S. Yeganeh,  S. R. Yost,  
 A. Zech,  Igor Ying Zhang,  Xing Zhang,  Yu Zhang,  D. Zuev,  
 A. Aspuru-Guzik,  A. T. Bell,  N. A. Besley,  K. B. Bravaya,  B. R. Brooks,  
 D. Casanova,  Jeng-Da Chai,  S. Coriani,  C. J. Cramer,  
 A. E. DePrince, III,  R. A. DiStasio Jr.,  A. Dreuw,  B. D. Dunietz,  
 T. R. Furlani,  W. A. Goddard III,  S. Grimme,  S. Hammes-Schiffer,  
 T. Head-Gordon,  W. J. Hehre,  Chao-Ping Hsu,  T.-C. Jagau,  Yousung Jung,  
 A. Klamt,  Jing Kong,  D. S. Lambrecht,  WanZhen Liang,  N. J. Mayhall,  
 C. W. McCurdy,  J. B. Neaton,  C. Ochsenfeld,  J. A. Parkhill,  R. Peverati,  
 V. A. Rassolov,  Yihan Shao,  L. V. Slipchenko,  T. Stauch,  R. P. Steele,  
 J. E. Subotnik,  A. J. W. Thom,  A. Tkatchenko,  D. G. Truhlar,  
 T. Van Voorhis,  T. A. Wesolowski,  K. B. Whaley,  H. L. Woodcock III,  
 P. M. Zimmerman,  S. Faraji,  P. M. W. Gill,  M. Head-Gordon,  
 J. M. Herbert,  A. I. Krylov

 Contributors to earlier versions of Q-Chem not listed above: 
 R. D. Adamson,  B. Austin,  R. Baer,  J. Baker,  G. J. O. Beran,  
 K. Brandhorst,  S. T. Brown,  E. F. C. Byrd,  A. K. Chakraborty,  
 G. K. L. Chan,  Chun-Min Chang,  Yunqing Chen,  C.-L. Cheng,  
 Siu Hung Chien,  D. M. Chipman,  D. L. Crittenden,  H. Dachsel,  
 R. J. Doerksen,  A. D. Dutoi,  R. G. Edgar,  J. Fosso-Tande,  
 L. Fusti-Molnar,  D. Ghosh,  A. Ghysels,  A. Golubeva-Zadorozhnaya,  
 J. Gonthier,  M. S. Gordon,  S. R. Gwaltney,  G. Hawkins,  J. E. Herr,  
 A. Heyden,  S. Hirata,  E. G. Hohenstein,  G. Kedziora,  F. J. Keil,  
 C. Kelley,  Jihan Kim,  R. A. King,  R. Z. Khaliullin,  P. P. Korambath,  
 W. Kurlancheek,  A. Laurent,  A. M. Lee,  M. S. Lee,  S. V. Levchenko,  
 Ching Yeh Lin,  D. Liotard,  E. Livshits,  R. C. Lochan,  I. Lotan,  
 L. A. Martinez-Martinez,  P. E. Maslen,  N. Nair,  D. P. O'Neill,  
 D. Neuhauser,  E. Neuscamman,  C. M. Oana,  R. Olivares-Amaya,  R. Olson,  
 T. M. Perrine,  B. Peters,  P. A. Pieniazek,  A. Prociuk,  Y. M. Rhee,  
 J. Ritchie,  M. A. Rohrdanz,  E. Rosta,  N. J. Russ,  H. F. Schaefer III,  
 M. W. Schmidt,  N. E. Schultz,  S. Sharma,  N. Shenvi,  C. D. Sherrill,  
 A. C. Simmonett,  A. Sodt,  T. Stein,  D. Stuck,  K. S. Thanthiriwatte,  
 V. Vanovschi,  L. Vogt,  Tao Wang,  A. Warshel,  M. A. Watson,  
 C. F. Williams,  Q. Wu,  X. Xu,  Jun Yang,  W. Zhang,  Yan Zhao

 Please cite Q-Chem as follows:
 Y. Shao et al., Mol. Phys. 113, 184-215 (2015)
 DOI: 10.1080/00268976.2014.952696

 Q-Chem 5.4.0 for Intel X86 EM64T Linux

 Parts of Q-Chem use Armadillo 9.800.1 (Horizon Scraper).
 http://arma.sourceforge.net/

 Q-Chem begins on Sun Sep 24 17:18:48 2023  

 Host: 
0

     Scratch files written to ./qchem3047287//
 May1621 |scratch|qcdevops|jenkins|workspace|build_RNUM    
 Parallel job on  1  processors
 Processing $rem in /cm/shared/apps/spack/cpu/opt/spack/linux-centos8-zen2/gcc-10.2.0/qchem-5.4-akfmr7b3t57bfs6qan3padb2wnb2i7cl/config/preferences:
 Processing $rem in /home/rramji/.qchemrc:
 Symmetry turned off for PCM/SM12/SMD calculation
 Core orbitals will be frozen

 Checking the input file for inconsistencies... 	...done.

 Q-Chem warning in module forms1/BasisType.C, line 2236:

 You are not using the predefined 5D/6D in this basis set.


--------------------------------------------------------------
User input:
--------------------------------------------------------------
$molecule
0 1
C	-0.208002	-8.519741	-0.175432
C	0.722164	-7.635967	0.352097
S	-1.563424	-7.651740	-0.936458
C	0.386833	-6.261894	0.160388
H	1.635031	-7.954738	0.870905
C	-0.849637	-6.079985	-0.553685
C	-1.357938	-4.798382	-0.816372
C	1.149702	-5.153542	0.627524
C	0.638941	-3.869626	0.368399
C	-0.597409	-3.688927	-0.348912
O	2.309260	-5.481075	1.262667
O	-2.523296	-4.479871	-1.453338
C	-3.036927	-5.356026	-2.449320
H	-3.824632	-4.790496	-2.982577
H	-3.497250	-6.268513	-2.011155
H	-2.249807	-5.658187	-3.173591
C	2.939226	-4.546999	2.130793
H	3.730721	-5.107564	2.663289
H	2.225196	-4.131473	2.873906
H	3.415077	-3.712085	1.572045
C	-0.930765	-2.314326	-0.536849
S	1.347913	-2.295487	0.763041
C	0.000000	-1.435180	0.000000
H	-1.841645	-1.993211	-1.057554
H	-0.204438	-9.615985	-0.170535
C	0.000000	0.000000	0.000000
S	0.780044	0.447780	1.510732
C	2.143774	1.236372	0.727629
C	0.786529	0.454137	-1.064665
C	1.988499	1.149844	-0.678287
C	0.729864	0.419512	-2.486150
C	1.825177	1.052041	-3.106916
S	2.903877	1.678680	-1.965735
C	2.047896	1.175232	-4.559972
O	1.240953	0.705897	-5.350277
O	3.160791	1.814024	-5.004375
F	-0.233039	-0.140940	-3.246290
C	3.476510	1.984585	-6.334976
H	4.433735	2.536545	-6.370268
H	2.693835	2.561503	-6.875609
H	3.588239	1.011113	-6.861878
H	2.940569	1.696327	1.321510
$end

$rem
JOBTYPE		SP
EXCHANGE	HF
CORRELATION	pRIMP2
BASIS		cc-pvtz
METHOD		rimp2
AUX_BASIS	rimp2-cc-pvtz
SOLVENT_METHOD	PCM
PURECART	11111
SYMMETRY	false
MEM_TOTAL	110000
SCF_CONVERGENCE = 6
THRESH=10
GUI = 2
$end



$solvent
dielectric 4.90
$end
--------------------------------------------------------------
 ----------------------------------------------------------------
             Standard Nuclear Orientation (Angstroms)
    I     Atom           X                Y                Z
 ----------------------------------------------------------------
    1      C      -0.2080020000    -8.5197410000    -0.1754320000
    2      C       0.7221640000    -7.6359670000     0.3520970000
    3      S      -1.5634240000    -7.6517400000    -0.9364580000
    4      C       0.3868330000    -6.2618940000     0.1603880000
    5      H       1.6350310000    -7.9547380000     0.8709050000
    6      C      -0.8496370000    -6.0799850000    -0.5536850000
    7      C      -1.3579380000    -4.7983820000    -0.8163720000
    8      C       1.1497020000    -5.1535420000     0.6275240000
    9      C       0.6389410000    -3.8696260000     0.3683990000
   10      C      -0.5974090000    -3.6889270000    -0.3489120000
   11      O       2.3092600000    -5.4810750000     1.2626670000
   12      O      -2.5232960000    -4.4798710000    -1.4533380000
   13      C      -3.0369270000    -5.3560260000    -2.4493200000
   14      H      -3.8246320000    -4.7904960000    -2.9825770000
   15      H      -3.4972500000    -6.2685130000    -2.0111550000
   16      H      -2.2498070000    -5.6581870000    -3.1735910000
   17      C       2.9392260000    -4.5469990000     2.1307930000
   18      H       3.7307210000    -5.1075640000     2.6632890000
   19      H       2.2251960000    -4.1314730000     2.8739060000
   20      H       3.4150770000    -3.7120850000     1.5720450000
   21      C      -0.9307650000    -2.3143260000    -0.5368490000
   22      S       1.3479130000    -2.2954870000     0.7630410000
   23      C       0.0000000000    -1.4351800000     0.0000000000
   24      H      -1.8416450000    -1.9932110000    -1.0575540000
   25      H      -0.2044380000    -9.6159850000    -0.1705350000
   26      C       0.0000000000     0.0000000000     0.0000000000
   27      S       0.7800440000     0.4477800000     1.5107320000
   28      C       2.1437740000     1.2363720000     0.7276290000
   29      C       0.7865290000     0.4541370000    -1.0646650000
   30      C       1.9884990000     1.1498440000    -0.6782870000
   31      C       0.7298640000     0.4195120000    -2.4861500000
   32      C       1.8251770000     1.0520410000    -3.1069160000
   33      S       2.9038770000     1.6786800000    -1.9657350000
   34      C       2.0478960000     1.1752320000    -4.5599720000
   35      O       1.2409530000     0.7058970000    -5.3502770000
   36      O       3.1607910000     1.8140240000    -5.0043750000
   37      F      -0.2330390000    -0.1409400000    -3.2462900000
   38      C       3.4765100000     1.9845850000    -6.3349760000
   39      H       4.4337350000     2.5365450000    -6.3702680000
   40      H       2.6938350000     2.5615030000    -6.8756090000
   41      H       3.5882390000     1.0111130000    -6.8618780000
   42      H       2.9405690000     1.6963270000     1.3215100000
 ----------------------------------------------------------------
 Nuclear Repulsion Energy =        3380.60212627 hartrees
 There are      119 alpha and      119 beta electrons
 Requested basis set is cc-pVTZ
 There are 376 shells and 1068 basis functions

 Total QAlloc Memory Limit 110000 MB
 Mega-Array Size       188 MB
 MEM_STATIC part       192 MB
 Discretize the solute cavity surface with Lebedev spheres
	Using 110 Lebedev grid points for each H atom
	Using 194 Lebedev grid points for other atoms
	Atomic van der Waals radii will be scaled by 1.20
 Remove points where switching function is < 1.0e-08
 Keep 2859 surface tesserae and discard 4197 interior tesserae
 Molecular Surface Area = 434.498 Angst**2
 Requested basis set is rimp2-cc-pVTZ
 There are 833 shells and 2903 basis functions
 A cutoff of  1.0D-10 yielded  32270 shell pairs
 There are    247048 function pairs (    320442 Cartesian)
 Smallest overlap matrix eigenvalue = 2.15E-05

 Scale SEOQF with 1.000000e-01/1.000000e-02/1.000000e-02

 Standard Electronic Orientation quadrupole field applied
 Nucleus-field energy     =     0.0000000430 hartrees
 Guess from superposition of atomic densities
 Warning:  Energy on first SCF cycle will be non-variational
 SAD guess density has 238.000000 electrons

 -----------------------------------------------------------------------
  General SCF calculation program by
  Eric Jon Sundstrom, Paul Horn, Yuezhi Mao, Dmitri Zuev, Alec White,
  David Stuck, Shaama M.S., Shane Yost, Joonho Lee, David Small,
  Daniel Levine, Susi Lehtola, Hugh Burton, Evgeny Epifanovsky,
  Bang C. Huynh
 -----------------------------------------------------------------------
 Hartree-Fock
 using 64 threads for integral computing
 -------------------------------------------------------
 OpenMP Integral computing Module                
 Release: version 1.0, May 2013, Q-Chem Inc. Pittsburgh 
 -------------------------------------------------------
 A restricted SCF calculation will be
 performed using DIIS
 SCF converges when DIIS error is below 1.0e-06
 ---------------------------------------
  Cycle       Energy         DIIS error
 ---------------------------------------
    1   -2765.6732441539      1.78e-02  
    2   -2753.7821488009      1.58e-03  
    3   -2754.1239847821      9.02e-04  
    4   -2754.2125146835      2.56e-04  
    5   -2754.2244140897      6.97e-05  
    6   -2754.2255529036      2.57e-05  
    7   -2754.2258194182      1.24e-05  
    8   -2754.2259193618      5.69e-06  
    9   -2754.2259454173      3.07e-06  
   10   -2754.2259517110      1.44e-06  
   11   -2754.2259536193      6.22e-07  Convergence criterion met
 ---------------------------------------
 SCF time:   CPU 7163.39s  wall 258.00s 

************** Final PCM Free Energy Summary **************
 G_electrostatic  =      -0.02239209 hartree =     -14.05125116 kcal/mol
 G_cavitation     =       0.00000000 hartree =       0.00000000 kcal/mol
 G_dispersion     =       0.00000000 hartree =       0.00000000 kcal/mol
 G_repulsion      =       0.00000000 hartree =       0.00000000 kcal/mol
 --------------------------------------------------
 Non-electrostatic Free Energy =       0.00000000 hartree =       0.00000000 kcal/mol
 Total                         =      -0.02239209 hartree =     -14.05125116 kcal/mol
 --------------------------------------------------
 SCF Energy (H0 + V/2)                       =   -2754.22595362 
 Solute Internal Energy (H0)                 =   -2754.20356153 
 Total Free Energy (H0 + V/2 + non-elec)     =   -2754.22595362 hartree
                                             = -1728302.87117009 kcal/mol
***********************************************************

 SCF   energy in the final basis set =    -2754.2259536193
 Total energy in the final basis set =    -2754.2259536193


 --------------------------------------------------------------
  Generalized many-body perturbation theory program
  by Joonho Lee, Fazle Rob, Xintian Feng, Evgeny Epifanovsky

 No regularization used 
 (reg. param. = 0.0000e+00)
  (P|Q)^-1/2 Time:  CPU 132.17 s  wall 2.31 s

 In RI-MP2 calculation: 
 # of frozen core orbitals: 45

 Components of the RIMP2 correlation energy:
        aaaa    correlation energy =        -0.6750573978 a.u.
        abab    correlation energy =        -3.7239934096 a.u.
        bbbb    correlation energy =        -0.6750573978 a.u.
        non-Brillouin singles      =        -0.0000000000 a.u.
        total same-spin energy     =        -1.3501147957 a.u.
        total opposite-spin energy =        -3.7239934096 a.u.

 Total  RIMP2   correlation energy =        -5.0741082053 a.u.
        RIMP2         total energy =     -2759.3000618245 a.u.

 RI-MP2 Energy Time:  CPU 2749.93 s  wall 44.37 s
 
 --------------------------------------------------------------
 
                    Orbital Energies (a.u.)
 --------------------------------------------------------------
 
 Alpha MOs
 -- Occupied --
-92.0160 -92.0069 -91.9826 -91.9822 -26.3342 -20.6162 -20.5904 -20.5863
-20.5576 -11.4168 -11.3762 -11.3271 -11.3155 -11.3130 -11.3098 -11.3012
-11.2978 -11.2906 -11.2904 -11.2863 -11.2828 -11.2799 -11.2773 -11.2749
-11.2732 -11.2548 -11.2524 -11.2472 -11.2376  -9.0155  -9.0103  -8.9833
 -8.9826  -6.6961  -6.6951  -6.6951  -6.6915  -6.6909  -6.6896  -6.6642
 -6.6636  -6.6634  -6.6629  -6.6625  -6.6621  -1.6472  -1.4765  -1.4143
 -1.4092  -1.3727  -1.2451  -1.1918  -1.1710  -1.1436  -1.0829  -1.0521
 -1.0470  -1.0335  -0.9975  -0.9913  -0.9765  -0.9579  -0.9480  -0.9369
 -0.8928  -0.8766  -0.8428  -0.8025  -0.7960  -0.7853  -0.7766  -0.7663
 -0.7526  -0.7289  -0.7183  -0.7158  -0.6983  -0.6931  -0.6820  -0.6781
 -0.6773  -0.6623  -0.6566  -0.6493  -0.6284  -0.6166  -0.6148  -0.6124
 -0.6076  -0.5997  -0.5891  -0.5742  -0.5637  -0.5631  -0.5523  -0.5383
 -0.5356  -0.5287  -0.5199  -0.5142  -0.5127  -0.5095  -0.5020  -0.4915
 -0.4895  -0.4858  -0.4741  -0.4671  -0.4646  -0.4592  -0.4534  -0.4135
 -0.3935  -0.3810  -0.3526  -0.3496  -0.3119  -0.2943  -0.2504
 -- Virtual --
 -0.0015   0.0723   0.1047   0.1296   0.1343   0.1437   0.1516   0.1541
  0.1574   0.1613   0.1629   0.1743   0.1780   0.1817   0.1864   0.1923
  0.2008   0.2056   0.2073   0.2161   0.2216   0.2223   0.2245   0.2259
  0.2311   0.2337   0.2440   0.2511   0.2564   0.2648   0.2702   0.2759
  0.2879   0.2981   0.3096   0.3254   0.3297   0.3379   0.3442   0.3480
  0.3535   0.3551   0.3622   0.3674   0.3681   0.3717   0.3825   0.3832
  0.3877   0.3898   0.3951   0.3955   0.4049   0.4090   0.4127   0.4225
  0.4249   0.4297   0.4367   0.4372   0.4432   0.4498   0.4521   0.4585
  0.4622   0.4677   0.4698   0.4747   0.4809   0.4821   0.4886   0.4914
  0.4954   0.4970   0.5051   0.5096   0.5135   0.5161   0.5214   0.5298
  0.5331   0.5339   0.5377   0.5409   0.5444   0.5494   0.5503   0.5533
  0.5584   0.5633   0.5644   0.5670   0.5719   0.5721   0.5755   0.5848
  0.5891   0.5899   0.5937   0.5967   0.6032   0.6066   0.6116   0.6139
  0.6157   0.6207   0.6212   0.6266   0.6270   0.6283   0.6326   0.6340
  0.6389   0.6461   0.6470   0.6477   0.6538   0.6553   0.6643   0.6693
  0.6756   0.6820   0.6843   0.6871   0.6941   0.6974   0.6997   0.7065
  0.7117   0.7176   0.7197   0.7234   0.7326   0.7439   0.7536   0.7583
  0.7656   0.7683   0.7739   0.7769   0.7801   0.7900   0.7932   0.8026
  0.8038   0.8092   0.8142   0.8202   0.8248   0.8275   0.8390   0.8440
  0.8544   0.8569   0.8638   0.8676   0.8718   0.8776   0.8859   0.8925
  0.9004   0.9025   0.9045   0.9086   0.9158   0.9197   0.9250   0.9284
  0.9301   0.9359   0.9418   0.9471   0.9527   0.9579   0.9638   0.9659
  0.9714   0.9778   0.9852   0.9911   0.9958   0.9973   1.0010   1.0055
  1.0085   1.0159   1.0208   1.0231   1.0258   1.0311   1.0388   1.0409
  1.0463   1.0524   1.0584   1.0631   1.0685   1.0726   1.0775   1.0847
  1.0877   1.0894   1.0951   1.1028   1.1048   1.1082   1.1155   1.1167
  1.1260   1.1288   1.1362   1.1443   1.1470   1.1532   1.1590   1.1610
  1.1663   1.1715   1.1785   1.1836   1.1851   1.1887   1.1912   1.1971
  1.1996   1.2056   1.2091   1.2202   1.2216   1.2251   1.2288   1.2320
  1.2374   1.2452   1.2482   1.2518   1.2585   1.2700   1.2740   1.2804
  1.2826   1.2881   1.2892   1.2953   1.3076   1.3113   1.3215   1.3270
  1.3307   1.3379   1.3386   1.3438   1.3487   1.3594   1.3651   1.3666
  1.3738   1.3786   1.3894   1.3928   1.4053   1.4133   1.4165   1.4254
  1.4306   1.4367   1.4498   1.4615   1.4698   1.4778   1.4846   1.4908
  1.4976   1.5004   1.5051   1.5070   1.5107   1.5116   1.5282   1.5287
  1.5322   1.5339   1.5419   1.5445   1.5504   1.5534   1.5577   1.5743
  1.5797   1.5887   1.5911   1.5967   1.6009   1.6124   1.6284   1.6314
  1.6415   1.6528   1.6572   1.6594   1.6673   1.6704   1.6759   1.6783
  1.6897   1.6916   1.6984   1.7127   1.7200   1.7283   1.7398   1.7472
  1.7502   1.7643   1.7685   1.7794   1.7942   1.7989   1.8102   1.8215
  1.8264   1.8320   1.8382   1.8466   1.8522   1.8600   1.8632   1.8721
  1.8781   1.8788   1.8917   1.9017   1.9153   1.9210   1.9262   1.9308
  1.9334   1.9353   1.9493   1.9655   1.9733   1.9802   1.9836   1.9929
  1.9987   2.0084   2.0118   2.0274   2.0291   2.0450   2.0540   2.0663
  2.0769   2.0856   2.0938   2.0988   2.1086   2.1241   2.1334   2.1372
  2.1392   2.1535   2.1590   2.1677   2.1733   2.1816   2.1851   2.1890
  2.1950   2.2047   2.2070   2.2239   2.2307   2.2355   2.2416   2.2436
  2.2526   2.2602   2.2633   2.2695   2.2785   2.2819   2.2902   2.2950
  2.3091   2.3207   2.3234   2.3328   2.3372   2.3527   2.3561   2.3682
  2.3785   2.3813   2.3932   2.4016   2.4028   2.4116   2.4314   2.4389
  2.4407   2.4486   2.4540   2.4602   2.4680   2.4781   2.4885   2.5026
  2.5072   2.5251   2.5268   2.5335   2.5427   2.5446   2.5630   2.5647
  2.5710   2.5820   2.5823   2.5926   2.6091   2.6169   2.6231   2.6239
  2.6268   2.6364   2.6390   2.6492   2.6513   2.6604   2.6701   2.6740
  2.6875   2.6915   2.6940   2.6993   2.7053   2.7113   2.7113   2.7226
  2.7256   2.7340   2.7362   2.7426   2.7521   2.7612   2.7650   2.7676
  2.7793   2.7836   2.7982   2.8020   2.8108   2.8119   2.8214   2.8245
  2.8375   2.8417   2.8439   2.8541   2.8577   2.8659   2.8738   2.8779
  2.8821   2.8896   2.8934   2.9043   2.9084   2.9167   2.9278   2.9454
  2.9465   2.9559   2.9659   2.9699   2.9773   2.9877   2.9969   3.0137
  3.0185   3.0252   3.0297   3.0313   3.0355   3.0410   3.0425   3.0475
  3.0549   3.0598   3.0647   3.0816   3.0875   3.0904   3.0954   3.1066
  3.1089   3.1128   3.1202   3.1232   3.1320   3.1400   3.1511   3.1541
  3.1546   3.1648   3.1683   3.1710   3.1740   3.1796   3.1856   3.1856
  3.1948   3.1999   3.2033   3.2055   3.2125   3.2187   3.2210   3.2261
  3.2380   3.2419   3.2443   3.2502   3.2546   3.2622   3.2705   3.2740
  3.2778   3.2809   3.2896   3.2919   3.2961   3.2999   3.3036   3.3093
  3.3169   3.3198   3.3243   3.3315   3.3405   3.3422   3.3450   3.3506
  3.3571   3.3581   3.3615   3.3681   3.3693   3.3733   3.3815   3.3841
  3.3862   3.3915   3.3965   3.4000   3.4039   3.4113   3.4185   3.4206
  3.4257   3.4320   3.4345   3.4388   3.4471   3.4493   3.4534   3.4595
  3.4661   3.4698   3.4740   3.4765   3.4861   3.4901   3.4975   3.4996
  3.5076   3.5187   3.5236   3.5259   3.5335   3.5366   3.5378   3.5417
  3.5492   3.5543   3.5621   3.5652   3.5789   3.5809   3.5878   3.5927
  3.5934   3.5990   3.6021   3.6069   3.6149   3.6167   3.6252   3.6283
  3.6377   3.6394   3.6492   3.6564   3.6587   3.6610   3.6643   3.6686
  3.6727   3.6788   3.6856   3.6900   3.6936   3.6993   3.7073   3.7097
  3.7125   3.7183   3.7209   3.7259   3.7269   3.7308   3.7474   3.7502
  3.7511   3.7563   3.7637   3.7701   3.7765   3.7833   3.7931   3.7955
  3.8018   3.8072   3.8109   3.8152   3.8229   3.8250   3.8310   3.8375
  3.8394   3.8456   3.8495   3.8533   3.8579   3.8627   3.8709   3.8753
  3.8846   3.9000   3.9009   3.9017   3.9111   3.9160   3.9244   3.9308
  3.9346   3.9444   3.9526   3.9551   3.9684   3.9751   3.9858   3.9941
  4.0049   4.0103   4.0145   4.0236   4.0270   4.0322   4.0396   4.0479
  4.0533   4.0579   4.0673   4.0727   4.0792   4.0842   4.0937   4.0965
  4.1105   4.1126   4.1247   4.1304   4.1426   4.1481   4.1517   4.1595
  4.1719   4.1728   4.1782   4.1831   4.1909   4.2024   4.2044   4.2088
  4.2149   4.2290   4.2377   4.2443   4.2517   4.2535   4.2678   4.2825
  4.2884   4.2962   4.3184   4.3221   4.3306   4.3363   4.3461   4.3510
  4.3635   4.3710   4.3753   4.3821   4.3871   4.3901   4.3957   4.4050
  4.4119   4.4132   4.4170   4.4214   4.4276   4.4421   4.4461   4.4596
  4.4681   4.4796   4.4923   4.4974   4.5019   4.5071   4.5113   4.5163
  4.5293   4.5438   4.5526   4.5568   4.5673   4.5737   4.5826   4.6017
  4.6063   4.6158   4.6193   4.6316   4.6366   4.6412   4.6430   4.6529
  4.6584   4.6638   4.6720   4.6819   4.6899   4.7092   4.7201   4.7209
  4.7377   4.7488   4.7607   4.7640   4.7913   4.7944   4.8103   4.8267
  4.8352   4.8498   4.8635   4.8638   4.8806   4.8996   4.9208   4.9314
  4.9408   4.9504   4.9601   4.9699   4.9721   4.9845   5.0033   5.0073
  5.0096   5.0105   5.0165   5.0304   5.0497   5.0596   5.0764   5.0824
  5.0950   5.1047   5.1097   5.1280   5.1632   5.1704   5.1803   5.1890
  5.1931   5.2024   5.2165   5.2310   5.2519   5.2564   5.2592   5.2711
  5.3008   5.3050   5.3160   5.3317   5.3426   5.3491   5.3530   5.3615
  5.3802   5.3890   5.3973   5.4030   5.4084   5.4308   5.4560   5.4669
  5.4711   5.4739   5.4985   5.5066   5.5160   5.5194   5.5321   5.5618
  5.5718   5.5810   5.5892   5.6081   5.6118   5.6305   5.6377   5.6608
  5.7144   5.7309   5.7890   5.7969   5.8135   5.8179   5.8338   5.8561
  5.8774   5.8853   5.9353   5.9643   5.9716   5.9885   5.9941   6.0503
  6.0729   6.0978   6.1142   6.1309   6.1329   6.1724   6.1802   6.1829
  6.2421   6.2445   6.2729   6.2782   6.3005   6.3050   6.3241   6.3638
  6.4200   6.4472   6.4796   6.4995   6.5512   6.5516   6.5606   6.6557
  6.6596   6.6713   6.7027   6.7262   6.7362   6.8034   6.8415   6.8542
  6.8765   6.8970   6.9840   7.1252   7.1405   7.1743   7.2063   7.2182
  7.2384   7.3206   7.3245   7.3339   7.3736   7.3755   7.4217   7.4586
  7.4817   7.4868   7.4928   7.5161   7.5432   7.6015   7.7183   7.7709
  7.8002   7.8269   7.9015   7.9246   7.9504   8.0033   8.1009   8.1753
  8.4923   8.9308   9.0130   9.3661   9.4931   9.6879  10.1745  10.5645
 11.2011  11.4474  11.9253  12.0826  12.1351  12.3093  12.3277  12.5726
 12.6846  12.7022  12.9838  13.2576  13.3087  13.6740  13.8487  13.9055
 13.9804  14.0339  14.2256  14.4581  15.2117
 --------------------------------------------------------------
 
          Ground-State Mulliken Net Atomic Charges

     Atom                 Charge (a.u.)
  ----------------------------------------
      1 C                    -0.197531
      2 C                    -0.253985
      3 S                    -0.027905
      4 C                    -0.023821
      5 H                     0.194837
      6 C                    -0.025567
      7 C                     0.232925
      8 C                     0.241726
      9 C                    -0.054011
     10 C                    -0.010504
     11 O                    -0.333794
     12 O                    -0.340703
     13 C                    -0.085319
     14 H                     0.121534
     15 H                     0.089571
     16 H                     0.092780
     17 C                    -0.086828
     18 H                     0.124807
     19 H                     0.093645
     20 H                     0.088257
     21 C                    -0.272410
     22 S                    -0.028348
     23 C                    -0.025299
     24 H                     0.189943
     25 H                     0.204587
     26 C                    -0.141918
     27 S                     0.131373
     28 C                    -0.153527
     29 C                    -0.002335
     30 C                    -0.025041
     31 C                     0.356500
     32 C                    -0.118856
     33 S                     0.074568
     34 C                     0.457355
     35 O                    -0.437237
     36 O                    -0.296464
     37 F                    -0.209121
     38 C                    -0.054729
     39 H                     0.117534
     40 H                     0.085849
     41 H                     0.085929
     42 H                     0.221536
  ----------------------------------------
  Sum of atomic charges =     0.000000

 -----------------------------------------------------------------
                    Cartesian Multipole Moments
 -----------------------------------------------------------------
    Charge (ESU x 10^10)
                -0.0000
    Dipole Moment (Debye)
         X       5.7294      Y       2.8613      Z       2.5999
       Tot       6.9117
    Quadrupole Moments (Debye-Ang)
        XX    -173.4075     XY       7.9152     YY    -180.8154
        XZ       1.0195     YZ      -5.3922     ZZ    -189.9329
    Octopole Moments (Debye-Ang^2)
       XXX    -355.5128    XXY     453.4534    XYY    -120.1203
       YYY    1181.5885    XXZ     144.3606    XYZ     -84.1349
       YYZ     165.3845    XZZ     -32.1973    YZZ     489.1979
       ZZZ     561.2165
    Hexadecapole Moments (Debye-Ang^3)
      XXXX   -3839.3708   XXXY    -928.2434   XXYY   -3809.3755
      XYYY    -992.8078   YYYY  -17353.2775   XXXZ     654.4525
      XXYZ      55.9930   XYYZ     498.1663   YYYZ     425.7735
      XXZZ   -1217.0157   XYZZ     -75.9536   YYZZ   -4160.6998
      XZZZ      87.5234   YZZZ      20.7957   ZZZZ   -6120.6884
 -----------------------------------------------------------------
 Total job time:  310.68s(wall), 10250.99s(cpu) 
 Sun Sep 24 17:23:59 2023

        *************************************************************
        *                                                           *
        *  Thank you very much for using Q-Chem.  Have a nice day.  *
        *                                                           *
        *************************************************************


0 sent ACK to 0 
now end server 0 ... 
cleanup process ... done
remove work dirs ./qchem3047287.0 -- ./qchem3047287.0
rm -rf ./qchem3047287.0
rm -rf ./qchem3047287
