You are running Q-Chem version: 5.4.0

#
# job setting
#
local host:  exp-1-48
current dir: /expanse/lustre/projects/csd626/rramji/aromodel/PTB7_fin/Rotation_Test
input file:  fin_bdt_Phi_25_Theta_220_fin_ftt.qcin
output file: 
nprocs     : 1
nthreads   : 64
#
# qchem installation setting
#
QC:          /cm/shared/apps/spack/cpu/opt/spack/linux-centos8-zen2/gcc-10.2.0/qchem-5.4-akfmr7b3t57bfs6qan3padb2wnb2i7cl
QCAUX:       /cm/shared/apps/spack/cpu/opt/spack/linux-centos8-zen2/gcc-10.2.0/qchem-5.4-akfmr7b3t57bfs6qan3padb2wnb2i7cl/qcaux
QCPROG:      /cm/shared/apps/spack/cpu/opt/spack/linux-centos8-zen2/gcc-10.2.0/qchem-5.4-akfmr7b3t57bfs6qan3padb2wnb2i7cl/exe/qcprog.exe
QCPROG_S:    /cm/shared/apps/spack/cpu/opt/spack/linux-centos8-zen2/gcc-10.2.0/qchem-5.4-akfmr7b3t57bfs6qan3padb2wnb2i7cl/exe/qcprog.exe_s
PARALLEL:    -DPARALLEL
QCMPI:       mpich
#
# qchem directory setting
#
qcrun:       qchem177045
QCSCRATCH:   .
QCLOCALSCR:  
QCTMPDIR:    .
QCFILEPREF:  ./qchem177045
QCSAVEDIR:   
workdirs:    ./qchem177045
workdir0:    ./qchem177045
partmpdirs =  
#
# parallel setting
#
QCRSH:           ssh
QCMPI:           mpich
QCMPIRUN:        /cm/shared/apps/spack/cpu/opt/spack/linux-centos8-zen2/gcc-10.2.0/qchem-5.4-akfmr7b3t57bfs6qan3padb2wnb2i7cl/bin/mpi/mpirun_qchem
QCMACHINEFILE:   ./qchem177045/hostfile
exp-1-48

#
# env setting
#
exported envs:   QC QCAUX QCSCRATCH QCRUNNAME QCFILEPREF QCPROG QCPROG_S GUIFILE

Running Job 1 of 1 fin_bdt_Phi_25_Theta_220_fin_ftt.qcin
qchem fin_bdt_Phi_25_Theta_220_fin_ftt.qcin_177045.0 ./qchem177045/ 1
/cm/shared/apps/spack/cpu/opt/spack/linux-centos8-zen2/gcc-10.2.0/qchem-5.4-akfmr7b3t57bfs6qan3padb2wnb2i7cl/bin/mpi/mpirun_qchem -machinefile ./qchem177045/hostfile -np 1 /cm/shared/apps/spack/cpu/opt/spack/linux-centos8-zen2/gcc-10.2.0/qchem-5.4-akfmr7b3t57bfs6qan3padb2wnb2i7cl/exe/qcprog.exe fin_bdt_Phi_25_Theta_220_fin_ftt.qcin_177045.0 ./qchem177045/

Process 0 of 1 is on exp-1-48 - thread support 0
initial socket setup ...start
initial socket setup ...done 
now start server 0 ... 
                  Welcome to Q-Chem
     A Quantum Leap Into The Future Of Chemistry


 Q-Chem 5.4, Q-Chem, Inc., Pleasanton, CA (2021)

 License issued to: University of California, San Diego (site)

 E. Epifanovsky,  A. T. B. Gilbert,  Xintian Feng,  Joonho Lee,  Yuezhi Mao,  
 N. Mardirossian,  P. Pokhilko,  A. White,  M. Wormit,  M. P. Coons,  
 A. L. Dempwolff,  Zhengting Gan,  D. Hait,  P. R. Horn,  L. D. Jacobson,  
 I. Kaliman,  J. Kussmann,  A. W. Lange,  Ka Un Lao,  D. S. Levine,  Jie Liu,  
 S. C. McKenzie,  A. F. Morrison,  K. Nanda,  F. Plasser,  D. R. Rehn,  
 M. L. Vidal,  Zhi-Qiang You,  Ying Zhu,  B. Alam,  B. Albrecht,  
 A. Aldossary,  E. Alguire,  J. H. Andersen,  D. Barton,  K. Begam,  A. Behn,  
 Y. A. Bernard,  E. J. Berquist,  H. Burton,  A. Carreras,  K. Carter-Fenk,  
 R. Chakraborty,  A. D. Chien,  K. D. Closser,  V. Cofer-Shabica,  
 S. Dasgupta,  Jia Deng,  M. de Wergifosse,  M. Diedenhofen,  Hainam Do,  
 S. Ehlert,  Po-Tung Fang,  S. Fatehi,  Qingguo Feng,  J. Gayvert,  
 Qinghui Ge,  G. Gidofalvi,  M. Goldey,  J. Gomes,  C. Gonzalez-Espinoza,  
 S. Gulania,  A. Gunina,  M. W. D. Hanson-Heine,  P. H. P. Harbach,  
 A. W. Hauser,  M. F. Herbst,  M. Hernandez Vera,  M. Hodecker,  
 Z. C. Holden,  S. Houck,  Xunkun Huang,  Kerwin Hui,  B. C. Huynh,  
 M. Ivanov,  Hyunjun Ji,  Hanjie Jiang,  B. Kaduk,  S. Kaehler,  
 K. Khistyaev,  Jaehoon Kim,  P. Klunzinger,  Z. Koczor-Benda,  
 Joong Hoon Koh,  D. Kosenkov,  L. Koulias,  T. Kowalczyk,  C. M. Krauter,  
 K. Kue,  A. Kunitsa,  T. Kus,  A. Landau,  K. V. Lawler,  D. Lefrancois,  
 S. Lehtola,  Rain Li,  Yi-Pei Li,  Jiashu Liang,  M. Liebenthal,  
 Hung-Hsuan Lin,  You-Sheng Lin,  Fenglai Liu,  Kuan-Yu Liu,  
 M. Loipersberger,  A. Luenser,  A. Manjanath,  P. Manohar,  E. Mansoor,  
 S. F. Manzer,  Shan-Ping Mao,  A. V. Marenich,  T. Markovich,  S. Mason,  
 S. A. Maurer,  P. F. McLaughlin,  M. F. S. J. Menger,  J.-M. Mewes,  
 S. A. Mewes,  P. Morgante,  J. W. Mullinax,  T. S. Nguyen-Beck,  
 K. J. Oosterbaan,  G. Paran,  Alexander C. Paul,  Suranjan K. Paul,  
 F. Pavosevic,  Zheng Pei,  S. Prager,  E. I. Proynov,  E. Ramos,  B. Rana,  
 A. E. Rask,  A. Rettig,  R. M. Richard,  F. Rob,  E. Rossomme,  T. Scheele,  
 M. Scheurer,  M. Schneider,  N. Sergueev,  S. M. Sharada,  W. Skomorowski,  
 D. W. Small,  C. J. Stein,  Yu-Chuan Su,  E. J. Sundstrom,  Zhen Tao,  
 J. Thirman,  T. Tsuchimochi,  N. M. Tubman,  S. P. Veccham,  O. Vydrov,  
 J. Wenzel,  J. Witte,  A. Yamada,  Kun Yao,  S. Yeganeh,  S. R. Yost,  
 A. Zech,  Igor Ying Zhang,  Xing Zhang,  Yu Zhang,  D. Zuev,  
 A. Aspuru-Guzik,  A. T. Bell,  N. A. Besley,  K. B. Bravaya,  B. R. Brooks,  
 D. Casanova,  Jeng-Da Chai,  S. Coriani,  C. J. Cramer,  
 A. E. DePrince, III,  R. A. DiStasio Jr.,  A. Dreuw,  B. D. Dunietz,  
 T. R. Furlani,  W. A. Goddard III,  S. Grimme,  S. Hammes-Schiffer,  
 T. Head-Gordon,  W. J. Hehre,  Chao-Ping Hsu,  T.-C. Jagau,  Yousung Jung,  
 A. Klamt,  Jing Kong,  D. S. Lambrecht,  WanZhen Liang,  N. J. Mayhall,  
 C. W. McCurdy,  J. B. Neaton,  C. Ochsenfeld,  J. A. Parkhill,  R. Peverati,  
 V. A. Rassolov,  Yihan Shao,  L. V. Slipchenko,  T. Stauch,  R. P. Steele,  
 J. E. Subotnik,  A. J. W. Thom,  A. Tkatchenko,  D. G. Truhlar,  
 T. Van Voorhis,  T. A. Wesolowski,  K. B. Whaley,  H. L. Woodcock III,  
 P. M. Zimmerman,  S. Faraji,  P. M. W. Gill,  M. Head-Gordon,  
 J. M. Herbert,  A. I. Krylov

 Contributors to earlier versions of Q-Chem not listed above: 
 R. D. Adamson,  B. Austin,  R. Baer,  J. Baker,  G. J. O. Beran,  
 K. Brandhorst,  S. T. Brown,  E. F. C. Byrd,  A. K. Chakraborty,  
 G. K. L. Chan,  Chun-Min Chang,  Yunqing Chen,  C.-L. Cheng,  
 Siu Hung Chien,  D. M. Chipman,  D. L. Crittenden,  H. Dachsel,  
 R. J. Doerksen,  A. D. Dutoi,  R. G. Edgar,  J. Fosso-Tande,  
 L. Fusti-Molnar,  D. Ghosh,  A. Ghysels,  A. Golubeva-Zadorozhnaya,  
 J. Gonthier,  M. S. Gordon,  S. R. Gwaltney,  G. Hawkins,  J. E. Herr,  
 A. Heyden,  S. Hirata,  E. G. Hohenstein,  G. Kedziora,  F. J. Keil,  
 C. Kelley,  Jihan Kim,  R. A. King,  R. Z. Khaliullin,  P. P. Korambath,  
 W. Kurlancheek,  A. Laurent,  A. M. Lee,  M. S. Lee,  S. V. Levchenko,  
 Ching Yeh Lin,  D. Liotard,  E. Livshits,  R. C. Lochan,  I. Lotan,  
 L. A. Martinez-Martinez,  P. E. Maslen,  N. Nair,  D. P. O'Neill,  
 D. Neuhauser,  E. Neuscamman,  C. M. Oana,  R. Olivares-Amaya,  R. Olson,  
 T. M. Perrine,  B. Peters,  P. A. Pieniazek,  A. Prociuk,  Y. M. Rhee,  
 J. Ritchie,  M. A. Rohrdanz,  E. Rosta,  N. J. Russ,  H. F. Schaefer III,  
 M. W. Schmidt,  N. E. Schultz,  S. Sharma,  N. Shenvi,  C. D. Sherrill,  
 A. C. Simmonett,  A. Sodt,  T. Stein,  D. Stuck,  K. S. Thanthiriwatte,  
 V. Vanovschi,  L. Vogt,  Tao Wang,  A. Warshel,  M. A. Watson,  
 C. F. Williams,  Q. Wu,  X. Xu,  Jun Yang,  W. Zhang,  Yan Zhao

 Please cite Q-Chem as follows:
 Y. Shao et al., Mol. Phys. 113, 184-215 (2015)
 DOI: 10.1080/00268976.2014.952696

 Q-Chem 5.4.0 for Intel X86 EM64T Linux

 Parts of Q-Chem use Armadillo 9.800.1 (Horizon Scraper).
 http://arma.sourceforge.net/

 Q-Chem begins on Tue Sep 26 19:21:01 2023  

 Host: 
0

     Scratch files written to ./qchem177045//
 May1621 |scratch|qcdevops|jenkins|workspace|build_RNUM    
 Parallel job on  1  processors
 Processing $rem in /cm/shared/apps/spack/cpu/opt/spack/linux-centos8-zen2/gcc-10.2.0/qchem-5.4-akfmr7b3t57bfs6qan3padb2wnb2i7cl/config/preferences:
 Processing $rem in /home/rramji/.qchemrc:
 Symmetry turned off for PCM/SM12/SMD calculation
 Core orbitals will be frozen

 Checking the input file for inconsistencies... 	...done.

 Q-Chem warning in module forms1/BasisType.C, line 2236:

 You are not using the predefined 5D/6D in this basis set.


--------------------------------------------------------------
User input:
--------------------------------------------------------------
$molecule
0 1
C	0.208886	-8.519741	-0.174379
C	-0.472151	-7.635967	0.650052
S	1.193717	-7.651740	-1.377058
C	-0.225125	-6.261894	0.353105
H	-1.141594	-7.954738	1.458961
C	0.692811	-6.079985	-0.740583
C	1.039773	-4.798382	-1.195546
C	-0.817634	-5.153542	1.023267
C	-0.473754	-3.869626	0.565262
C	0.447350	-3.688927	-0.527745
O	-1.644483	-5.481075	2.054917
O	1.869424	-4.479871	-2.232592
C	2.939466	-5.356026	-2.565470
H	3.601405	-4.790496	-3.248608
H	2.587892	-6.268513	-3.094885
H	3.516052	-5.658187	-1.664539
C	-2.608813	-4.546999	2.524564
H	-3.270661	-5.107564	3.211568
H	-3.216646	-4.131473	1.692342
H	-2.141184	-3.712085	3.090211
C	0.690319	-2.314326	-0.823402
S	-0.985511	-2.295487	1.194935
C	-0.000000	-1.435180	-0.000000
H	1.361286	-1.993211	-1.630024
H	0.203444	-9.615985	-0.171719
C	0.000000	0.000000	0.000000
S	0.382139	0.814215	1.510732
C	1.046923	2.242395	0.727629
C	0.383804	0.823142	-1.064665
C	0.969360	2.082453	-0.678287
C	0.357247	0.762277	-2.486150
C	0.891671	1.908660	-3.106916
S	1.415865	3.040689	-1.965735
C	1.003453	2.137318	-4.559972
O	0.611644	1.290019	-5.350277
O	1.548687	3.298916	-5.004375
F	-0.110054	-0.249117	-3.246290
C	1.709479	3.619721	-6.334976
H	2.177001	4.620902	-6.370268
H	0.737443	3.643380	-6.875609
H	2.359363	2.886384	-6.861878
H	1.435800	3.076190	1.321510
$end

$rem
JOBTYPE		SP
EXCHANGE	HF
CORRELATION	pRIMP2
BASIS		cc-pvtz
METHOD		rimp2
AUX_BASIS	rimp2-cc-pvtz
SOLVENT_METHOD	PCM
PURECART	11111
SYMMETRY	false
MEM_TOTAL	110000
SCF_CONVERGENCE = 6
THRESH=10
GUI = 2
$end



$solvent
dielectric 4.90
$end
--------------------------------------------------------------
 ----------------------------------------------------------------
             Standard Nuclear Orientation (Angstroms)
    I     Atom           X                Y                Z
 ----------------------------------------------------------------
    1      C       0.2088860000    -8.5197410000    -0.1743790000
    2      C      -0.4721510000    -7.6359670000     0.6500520000
    3      S       1.1937170000    -7.6517400000    -1.3770580000
    4      C      -0.2251250000    -6.2618940000     0.3531050000
    5      H      -1.1415940000    -7.9547380000     1.4589610000
    6      C       0.6928110000    -6.0799850000    -0.7405830000
    7      C       1.0397730000    -4.7983820000    -1.1955460000
    8      C      -0.8176340000    -5.1535420000     1.0232670000
    9      C      -0.4737540000    -3.8696260000     0.5652620000
   10      C       0.4473500000    -3.6889270000    -0.5277450000
   11      O      -1.6444830000    -5.4810750000     2.0549170000
   12      O       1.8694240000    -4.4798710000    -2.2325920000
   13      C       2.9394660000    -5.3560260000    -2.5654700000
   14      H       3.6014050000    -4.7904960000    -3.2486080000
   15      H       2.5878920000    -6.2685130000    -3.0948850000
   16      H       3.5160520000    -5.6581870000    -1.6645390000
   17      C      -2.6088130000    -4.5469990000     2.5245640000
   18      H      -3.2706610000    -5.1075640000     3.2115680000
   19      H      -3.2166460000    -4.1314730000     1.6923420000
   20      H      -2.1411840000    -3.7120850000     3.0902110000
   21      C       0.6903190000    -2.3143260000    -0.8234020000
   22      S      -0.9855110000    -2.2954870000     1.1949350000
   23      C       0.0000000000    -1.4351800000     0.0000000000
   24      H       1.3612860000    -1.9932110000    -1.6300240000
   25      H       0.2034440000    -9.6159850000    -0.1717190000
   26      C       0.0000000000     0.0000000000     0.0000000000
   27      S       0.3821390000     0.8142150000     1.5107320000
   28      C       1.0469230000     2.2423950000     0.7276290000
   29      C       0.3838040000     0.8231420000    -1.0646650000
   30      C       0.9693600000     2.0824530000    -0.6782870000
   31      C       0.3572470000     0.7622770000    -2.4861500000
   32      C       0.8916710000     1.9086600000    -3.1069160000
   33      S       1.4158650000     3.0406890000    -1.9657350000
   34      C       1.0034530000     2.1373180000    -4.5599720000
   35      O       0.6116440000     1.2900190000    -5.3502770000
   36      O       1.5486870000     3.2989160000    -5.0043750000
   37      F      -0.1100540000    -0.2491170000    -3.2462900000
   38      C       1.7094790000     3.6197210000    -6.3349760000
   39      H       2.1770010000     4.6209020000    -6.3702680000
   40      H       0.7374430000     3.6433800000    -6.8756090000
   41      H       2.3593630000     2.8863840000    -6.8618780000
   42      H       1.4358000000     3.0761900000     1.3215100000
 ----------------------------------------------------------------
 Nuclear Repulsion Energy =        3314.17370167 hartrees
 There are      119 alpha and      119 beta electrons
 Requested basis set is cc-pVTZ
 There are 376 shells and 1068 basis functions

 Total QAlloc Memory Limit 110000 MB
 Mega-Array Size       188 MB
 MEM_STATIC part       192 MB
 Discretize the solute cavity surface with Lebedev spheres
	Using 110 Lebedev grid points for each H atom
	Using 194 Lebedev grid points for other atoms
	Atomic van der Waals radii will be scaled by 1.20
 Remove points where switching function is < 1.0e-08
 Keep 2894 surface tesserae and discard 4162 interior tesserae
 Molecular Surface Area = 438.046 Angst**2
 Requested basis set is rimp2-cc-pVTZ
 There are 833 shells and 2903 basis functions
 A cutoff of  1.0D-10 yielded  31494 shell pairs
 There are    241856 function pairs (    313996 Cartesian)
 Smallest overlap matrix eigenvalue = 2.13E-05

 Scale SEOQF with 1.000000e-01/1.000000e-02/1.000000e-02

 Standard Electronic Orientation quadrupole field applied
 Nucleus-field energy     =     0.0000000277 hartrees
 Guess from superposition of atomic densities
 Warning:  Energy on first SCF cycle will be non-variational
 SAD guess density has 238.000000 electrons

 -----------------------------------------------------------------------
  General SCF calculation program by
  Eric Jon Sundstrom, Paul Horn, Yuezhi Mao, Dmitri Zuev, Alec White,
  David Stuck, Shaama M.S., Shane Yost, Joonho Lee, David Small,
  Daniel Levine, Susi Lehtola, Hugh Burton, Evgeny Epifanovsky,
  Bang C. Huynh
 -----------------------------------------------------------------------
 Hartree-Fock
 using 64 threads for integral computing
 -------------------------------------------------------
 OpenMP Integral computing Module                
 Release: version 1.0, May 2013, Q-Chem Inc. Pittsburgh 
 -------------------------------------------------------
 A restricted SCF calculation will be
 performed using DIIS
 SCF converges when DIIS error is below 1.0e-06
 ---------------------------------------
  Cycle       Energy         DIIS error
 ---------------------------------------
    1   -2765.5495332462      1.77e-02  
    2   -2753.8507304295      1.57e-03  
    3   -2754.1910190477      8.83e-04  
    4   -2754.2753158799      2.54e-04  
    5   -2754.2869197285      6.84e-05  
    6   -2754.2880019046      2.40e-05  
    7   -2754.2882411877      1.15e-05  
    8   -2754.2883205104      4.47e-06  
    9   -2754.2883365988      1.94e-06  
   10   -2754.2883389605      8.27e-07  Convergence criterion met
 ---------------------------------------
 SCF time:   CPU 6344.50s  wall 245.00s 

************** Final PCM Free Energy Summary **************
 G_electrostatic  =      -0.02014894 hartree =     -12.64365134 kcal/mol
 G_cavitation     =       0.00000000 hartree =       0.00000000 kcal/mol
 G_dispersion     =       0.00000000 hartree =       0.00000000 kcal/mol
 G_repulsion      =       0.00000000 hartree =       0.00000000 kcal/mol
 --------------------------------------------------
 Non-electrostatic Free Energy =       0.00000000 hartree =       0.00000000 kcal/mol
 Total                         =      -0.02014894 hartree =     -12.64365134 kcal/mol
 --------------------------------------------------
 SCF Energy (H0 + V/2)                       =   -2754.28833896 
 Solute Internal Energy (H0)                 =   -2754.26819002 
 Total Free Energy (H0 + V/2 + non-elec)     =   -2754.28833896 hartree
                                             = -1728342.01856259 kcal/mol
***********************************************************

 SCF   energy in the final basis set =    -2754.2883389605
 Total energy in the final basis set =    -2754.2883389605


 --------------------------------------------------------------
  Generalized many-body perturbation theory program
  by Joonho Lee, Fazle Rob, Xintian Feng, Evgeny Epifanovsky

 No regularization used 
 (reg. param. = 0.0000e+00)
  (P|Q)^-1/2 Time:  CPU 220.10 s  wall 3.87 s

 In RI-MP2 calculation: 
 # of frozen core orbitals: 45

 Components of the RIMP2 correlation energy:
        aaaa    correlation energy =        -0.6715800769 a.u.
        abab    correlation energy =        -3.7138843840 a.u.
        bbbb    correlation energy =        -0.6715800769 a.u.
        non-Brillouin singles      =        -0.0000000000 a.u.
        total same-spin energy     =        -1.3431601537 a.u.
        total opposite-spin energy =        -3.7138843840 a.u.

 Total  RIMP2   correlation energy =        -5.0570445377 a.u.
        RIMP2         total energy =     -2759.3453834982 a.u.

 RI-MP2 Energy Time:  CPU 2695.37 s  wall 45.95 s
 
 --------------------------------------------------------------
 
                    Orbital Energies (a.u.)
 --------------------------------------------------------------
 
 Alpha MOs
 -- Occupied --
-92.0162 -91.9965 -91.9891 -91.9863 -26.3344 -20.6124 -20.5925 -20.5911
-20.5507 -11.4109 -11.3776 -11.3194 -11.3179 -11.3066 -11.2989 -11.2989
-11.2975 -11.2957 -11.2887 -11.2872 -11.2864 -11.2856 -11.2841 -11.2837
-11.2797 -11.2614 -11.2590 -11.2569 -11.2499  -9.0147  -9.0005  -8.9897
 -8.9863  -6.6954  -6.6948  -6.6943  -6.6817  -6.6810  -6.6797  -6.6707
 -6.6700  -6.6690  -6.6672  -6.6666  -6.6658  -1.6475  -1.4722  -1.4166
 -1.4138  -1.3676  -1.2350  -1.1962  -1.1691  -1.1428  -1.0844  -1.0522
 -1.0485  -1.0286  -1.0023  -0.9934  -0.9724  -0.9609  -0.9504  -0.9388
 -0.8961  -0.8702  -0.8497  -0.8035  -0.7944  -0.7880  -0.7724  -0.7709
 -0.7574  -0.7325  -0.7191  -0.7158  -0.7015  -0.6895  -0.6828  -0.6788
 -0.6722  -0.6613  -0.6591  -0.6524  -0.6289  -0.6198  -0.6164  -0.6070
 -0.6033  -0.5958  -0.5838  -0.5759  -0.5706  -0.5631  -0.5538  -0.5500
 -0.5348  -0.5262  -0.5256  -0.5163  -0.5154  -0.5083  -0.5042  -0.4969
 -0.4881  -0.4852  -0.4758  -0.4682  -0.4620  -0.4616  -0.4599  -0.4173
 -0.3974  -0.3862  -0.3587  -0.3503  -0.3228  -0.2860  -0.2515
 -- Virtual --
  0.0132   0.0736   0.1140   0.1234   0.1327   0.1433   0.1502   0.1550
  0.1559   0.1606   0.1631   0.1769   0.1819   0.1851   0.1889   0.1958
  0.2038   0.2070   0.2079   0.2170   0.2204   0.2220   0.2237   0.2307
  0.2315   0.2400   0.2479   0.2546   0.2601   0.2677   0.2748   0.2780
  0.2973   0.3115   0.3173   0.3312   0.3372   0.3399   0.3476   0.3501
  0.3536   0.3587   0.3685   0.3726   0.3765   0.3795   0.3811   0.3853
  0.3876   0.3918   0.3959   0.4073   0.4094   0.4173   0.4195   0.4222
  0.4315   0.4335   0.4388   0.4412   0.4452   0.4507   0.4559   0.4567
  0.4598   0.4647   0.4686   0.4723   0.4770   0.4812   0.4860   0.4918
  0.4963   0.5008   0.5048   0.5083   0.5085   0.5171   0.5193   0.5226
  0.5289   0.5347   0.5379   0.5420   0.5447   0.5481   0.5507   0.5520
  0.5550   0.5581   0.5645   0.5670   0.5697   0.5718   0.5752   0.5808
  0.5886   0.5895   0.5939   0.5953   0.5992   0.6044   0.6094   0.6125
  0.6161   0.6176   0.6200   0.6239   0.6285   0.6293   0.6328   0.6373
  0.6396   0.6434   0.6453   0.6502   0.6550   0.6579   0.6624   0.6662
  0.6711   0.6742   0.6814   0.6833   0.6885   0.6979   0.7016   0.7072
  0.7093   0.7142   0.7183   0.7238   0.7358   0.7397   0.7499   0.7546
  0.7553   0.7619   0.7663   0.7755   0.7840   0.7913   0.7931   0.7978
  0.8033   0.8067   0.8113   0.8204   0.8226   0.8307   0.8351   0.8449
  0.8485   0.8543   0.8653   0.8689   0.8722   0.8819   0.8855   0.8946
  0.8985   0.9057   0.9075   0.9092   0.9175   0.9201   0.9205   0.9299
  0.9312   0.9362   0.9381   0.9478   0.9489   0.9556   0.9598   0.9661
  0.9699   0.9784   0.9808   0.9903   0.9926   0.9969   0.9991   1.0029
  1.0062   1.0112   1.0141   1.0179   1.0249   1.0324   1.0381   1.0439
  1.0493   1.0524   1.0581   1.0618   1.0670   1.0711   1.0730   1.0759
  1.0818   1.0885   1.0905   1.0970   1.1001   1.1055   1.1088   1.1158
  1.1225   1.1311   1.1347   1.1446   1.1456   1.1479   1.1515   1.1626
  1.1647   1.1702   1.1726   1.1780   1.1836   1.1887   1.1909   1.1965
  1.2000   1.2044   1.2090   1.2129   1.2201   1.2208   1.2301   1.2316
  1.2365   1.2384   1.2424   1.2554   1.2564   1.2654   1.2742   1.2758
  1.2793   1.2854   1.2926   1.2997   1.3082   1.3097   1.3196   1.3242
  1.3367   1.3381   1.3446   1.3494   1.3552   1.3556   1.3637   1.3705
  1.3765   1.3790   1.3897   1.3995   1.4034   1.4136   1.4186   1.4197
  1.4275   1.4403   1.4467   1.4606   1.4676   1.4725   1.4858   1.4885
  1.4933   1.4995   1.5047   1.5103   1.5121   1.5192   1.5237   1.5262
  1.5317   1.5393   1.5406   1.5438   1.5493   1.5581   1.5621   1.5649
  1.5719   1.5826   1.5908   1.6006   1.6079   1.6156   1.6234   1.6249
  1.6377   1.6464   1.6560   1.6579   1.6651   1.6655   1.6735   1.6854
  1.6899   1.6921   1.7011   1.7130   1.7218   1.7268   1.7359   1.7497
  1.7577   1.7626   1.7749   1.7795   1.7958   1.8022   1.8123   1.8219
  1.8267   1.8332   1.8361   1.8455   1.8599   1.8650   1.8663   1.8743
  1.8817   1.8848   1.8985   1.9019   1.9130   1.9188   1.9248   1.9324
  1.9385   1.9510   1.9551   1.9610   1.9707   1.9726   1.9775   1.9794
  1.9992   2.0156   2.0167   2.0240   2.0335   2.0452   2.0471   2.0585
  2.0750   2.0874   2.0976   2.1073   2.1147   2.1254   2.1389   2.1490
  2.1520   2.1560   2.1595   2.1642   2.1731   2.1772   2.1886   2.1936
  2.1954   2.1997   2.2154   2.2198   2.2314   2.2357   2.2375   2.2452
  2.2498   2.2520   2.2626   2.2740   2.2748   2.2806   2.2855   2.2957
  2.2989   2.3114   2.3145   2.3199   2.3337   2.3440   2.3520   2.3554
  2.3651   2.3809   2.3859   2.3918   2.4048   2.4138   2.4210   2.4288
  2.4308   2.4455   2.4497   2.4562   2.4631   2.4806   2.4833   2.4920
  2.5029   2.5135   2.5235   2.5290   2.5341   2.5453   2.5556   2.5603
  2.5787   2.5793   2.5888   2.5904   2.6112   2.6160   2.6188   2.6251
  2.6303   2.6364   2.6383   2.6428   2.6516   2.6634   2.6638   2.6681
  2.6736   2.6879   2.6973   2.7001   2.7011   2.7031   2.7124   2.7212
  2.7253   2.7336   2.7390   2.7398   2.7466   2.7572   2.7642   2.7738
  2.7797   2.7886   2.7931   2.7993   2.8028   2.8090   2.8185   2.8240
  2.8324   2.8386   2.8417   2.8470   2.8574   2.8612   2.8658   2.8743
  2.8758   2.8798   2.8848   2.8970   2.9101   2.9165   2.9267   2.9403
  2.9448   2.9504   2.9577   2.9695   2.9778   2.9809   2.9906   3.0021
  3.0077   3.0175   3.0256   3.0335   3.0340   3.0390   3.0440   3.0487
  3.0533   3.0582   3.0694   3.0764   3.0795   3.0907   3.0924   3.1012
  3.1049   3.1132   3.1138   3.1197   3.1239   3.1318   3.1439   3.1491
  3.1553   3.1578   3.1608   3.1656   3.1675   3.1692   3.1799   3.1843
  3.1934   3.1997   3.2042   3.2070   3.2144   3.2177   3.2250   3.2286
  3.2383   3.2421   3.2449   3.2482   3.2497   3.2566   3.2640   3.2679
  3.2744   3.2784   3.2841   3.2848   3.2902   3.2914   3.2958   3.3005
  3.3111   3.3180   3.3216   3.3285   3.3317   3.3384   3.3451   3.3481
  3.3530   3.3569   3.3603   3.3616   3.3628   3.3660   3.3718   3.3800
  3.3852   3.3909   3.3930   3.3960   3.3993   3.4142   3.4160   3.4218
  3.4233   3.4302   3.4374   3.4417   3.4426   3.4494   3.4523   3.4538
  3.4600   3.4642   3.4684   3.4719   3.4789   3.4836   3.4941   3.4972
  3.5001   3.5095   3.5165   3.5210   3.5259   3.5299   3.5311   3.5359
  3.5460   3.5534   3.5572   3.5613   3.5657   3.5747   3.5781   3.5847
  3.5929   3.5957   3.5971   3.6001   3.6030   3.6068   3.6146   3.6226
  3.6308   3.6333   3.6395   3.6460   3.6464   3.6552   3.6564   3.6664
  3.6682   3.6733   3.6773   3.6821   3.6867   3.6902   3.6949   3.7004
  3.7064   3.7104   3.7131   3.7236   3.7277   3.7305   3.7349   3.7393
  3.7452   3.7471   3.7570   3.7637   3.7693   3.7783   3.7816   3.7882
  3.7916   3.7967   3.8029   3.8083   3.8173   3.8226   3.8258   3.8308
  3.8345   3.8423   3.8486   3.8577   3.8617   3.8638   3.8709   3.8738
  3.8784   3.8838   3.8915   3.8962   3.9091   3.9169   3.9225   3.9282
  3.9341   3.9379   3.9467   3.9588   3.9640   3.9702   3.9786   3.9831
  3.9879   3.9933   4.0091   4.0150   4.0206   4.0305   4.0331   4.0434
  4.0498   4.0571   4.0614   4.0642   4.0746   4.0805   4.0847   4.0898
  4.0912   4.1003   4.1107   4.1148   4.1281   4.1381   4.1488   4.1512
  4.1643   4.1654   4.1722   4.1807   4.1857   4.1882   4.1918   4.2061
  4.2099   4.2204   4.2367   4.2474   4.2481   4.2614   4.2674   4.2716
  4.2861   4.2923   4.3085   4.3127   4.3228   4.3394   4.3406   4.3478
  4.3553   4.3670   4.3722   4.3767   4.3792   4.3910   4.3947   4.4042
  4.4069   4.4121   4.4167   4.4227   4.4291   4.4344   4.4422   4.4531
  4.4566   4.4718   4.4838   4.4895   4.5014   4.5039   4.5072   4.5153
  4.5405   4.5433   4.5452   4.5556   4.5570   4.5720   4.5860   4.5955
  4.6031   4.6139   4.6211   4.6318   4.6348   4.6399   4.6479   4.6577
  4.6609   4.6710   4.6721   4.6793   4.6853   4.6987   4.7164   4.7258
  4.7358   4.7528   4.7547   4.7659   4.7754   4.7836   4.7927   4.8098
  4.8260   4.8313   4.8361   4.8418   4.8672   4.8846   4.9121   4.9197
  4.9425   4.9435   4.9520   4.9620   4.9656   4.9809   4.9945   5.0013
  5.0080   5.0117   5.0151   5.0340   5.0441   5.0605   5.0703   5.0755
  5.0844   5.1017   5.1248   5.1581   5.1710   5.1778   5.1837   5.1971
  5.2051   5.2171   5.2211   5.2425   5.2547   5.2562   5.2593   5.2827
  5.2999   5.3118   5.3251   5.3306   5.3390   5.3545   5.3554   5.3684
  5.3783   5.3913   5.3988   5.3999   5.4108   5.4348   5.4635   5.4730
  5.4762   5.4829   5.5023   5.5068   5.5137   5.5200   5.5462   5.5623
  5.5743   5.5814   5.5900   5.6061   5.6173   5.6296   5.6422   5.6960
  5.7121   5.7336   5.7754   5.8005   5.8126   5.8364   5.8504   5.8561
  5.8744   5.8825   5.9272   5.9677   5.9695   5.9798   6.0017   6.0366
  6.0635   6.0982   6.1199   6.1334   6.1546   6.1708   6.1799   6.1855
  6.2399   6.2452   6.2708   6.2826   6.3043   6.3083   6.3208   6.3872
  6.4430   6.4497   6.4998   6.5386   6.5529   6.5560   6.5630   6.6553
  6.6736   6.6765   6.7084   6.7389   6.7432   6.8034   6.8438   6.8600
  6.8829   6.8923   6.9912   7.1194   7.1379   7.1781   7.2108   7.2156
  7.2345   7.3207   7.3263   7.3319   7.3745   7.3763   7.4276   7.4623
  7.4785   7.4864   7.4896   7.5198   7.5486   7.6097   7.7112   7.7701
  7.7971   7.8313   7.9036   7.9221   7.9482   8.0050   8.0918   8.1717
  8.5693   8.9393   9.0089   9.3664   9.5001   9.6938  10.2109  10.5929
 11.2425  11.3801  11.9360  11.9800  12.1302  12.1999  12.3680  12.5736
 12.6365  12.7308  12.9388  13.2175  13.2816  13.5409  13.8466  13.8679
 13.9017  14.0350  14.1387  14.7349  15.2034
 --------------------------------------------------------------
 
          Ground-State Mulliken Net Atomic Charges

     Atom                 Charge (a.u.)
  ----------------------------------------
      1 C                    -0.188599
      2 C                    -0.254103
      3 S                    -0.021436
      4 C                    -0.016006
      5 H                     0.196328
      6 C                    -0.029313
      7 C                     0.243959
      8 C                     0.244294
      9 C                    -0.042501
     10 C                    -0.027904
     11 O                    -0.333425
     12 O                    -0.339050
     13 C                    -0.085853
     14 H                     0.123027
     15 H                     0.091237
     16 H                     0.093612
     17 C                    -0.087256
     18 H                     0.125577
     19 H                     0.095342
     20 H                     0.089080
     21 C                    -0.207647
     22 S                    -0.025187
     23 C                    -0.003201
     24 H                     0.196812
     25 H                     0.206480
     26 C                    -0.034341
     27 S                     0.121089
     28 C                    -0.232663
     29 C                    -0.114711
     30 C                    -0.007496
     31 C                     0.374502
     32 C                    -0.146471
     33 S                     0.045492
     34 C                     0.460924
     35 O                    -0.448777
     36 O                    -0.297986
     37 F                    -0.211291
     38 C                    -0.054818
     39 H                     0.116704
     40 H                     0.084799
     41 H                     0.084558
     42 H                     0.216220
  ----------------------------------------
  Sum of atomic charges =     0.000000

 -----------------------------------------------------------------
                    Cartesian Multipole Moments
 -----------------------------------------------------------------
    Charge (ESU x 10^10)
                 0.0000
    Dipole Moment (Debye)
         X       1.8169      Y       1.6350      Z       3.3735
       Tot       4.1659
    Quadrupole Moments (Debye-Ang)
        XX    -182.5548     XY       4.9973     YY    -161.2373
        XZ     -16.8702     YZ     -10.4147     ZZ    -197.2323
    Octopole Moments (Debye-Ang^2)
       XXX    -248.1305    XXY     341.0350    XYY     -48.5014
       YYY     923.6853    XXZ     173.0421    XYZ      40.8077
       YYZ     142.0316    XZZ     -36.1656    YZZ     472.0322
       ZZZ     581.2587
    Hexadecapole Moments (Debye-Ang^3)
      XXXX   -1832.4552   XXXY    -190.2831   XXYY   -3661.8977
      XYYY    -160.7805   YYYY  -18207.6255   XXXZ    1088.3689
      XXYZ     310.8711   XYYZ       0.2891   YYYZ     832.3743
      XXZZ   -1269.9979   XYZZ     142.6910   YYZZ   -4252.8173
      XZZZ     826.2467   YZZZ     296.1861   ZZZZ   -6767.1682
 -----------------------------------------------------------------
 Total job time:  303.93s(wall), 9730.83s(cpu) 
 Tue Sep 26 19:26:05 2023

        *************************************************************
        *                                                           *
        *  Thank you very much for using Q-Chem.  Have a nice day.  *
        *                                                           *
        *************************************************************


0 sent ACK to 0 
now end server 0 ... 
cleanup process ... done
remove work dirs ./qchem177045.0 -- ./qchem177045.0
rm -rf ./qchem177045.0
rm -rf ./qchem177045
