You are running Q-Chem version: 5.4.0

#
# job setting
#
local host:  exp-6-35
current dir: /expanse/lustre/projects/csd626/rramji/aromodel/PTB7_fin/Rotation_Test
input file:  fin_bdt_Phi_60_Theta_220_fin_ftt.qcin
output file: 
nprocs     : 1
nthreads   : 64
#
# qchem installation setting
#
QC:          /cm/shared/apps/spack/cpu/opt/spack/linux-centos8-zen2/gcc-10.2.0/qchem-5.4-akfmr7b3t57bfs6qan3padb2wnb2i7cl
QCAUX:       /cm/shared/apps/spack/cpu/opt/spack/linux-centos8-zen2/gcc-10.2.0/qchem-5.4-akfmr7b3t57bfs6qan3padb2wnb2i7cl/qcaux
QCPROG:      /cm/shared/apps/spack/cpu/opt/spack/linux-centos8-zen2/gcc-10.2.0/qchem-5.4-akfmr7b3t57bfs6qan3padb2wnb2i7cl/exe/qcprog.exe
QCPROG_S:    /cm/shared/apps/spack/cpu/opt/spack/linux-centos8-zen2/gcc-10.2.0/qchem-5.4-akfmr7b3t57bfs6qan3padb2wnb2i7cl/exe/qcprog.exe_s
PARALLEL:    -DPARALLEL
QCMPI:       mpich
#
# qchem directory setting
#
qcrun:       qchem3056553
QCSCRATCH:   .
QCLOCALSCR:  
QCTMPDIR:    .
QCFILEPREF:  ./qchem3056553
QCSAVEDIR:   
workdirs:    ./qchem3056553
workdir0:    ./qchem3056553
partmpdirs =  
#
# parallel setting
#
QCRSH:           ssh
QCMPI:           mpich
QCMPIRUN:        /cm/shared/apps/spack/cpu/opt/spack/linux-centos8-zen2/gcc-10.2.0/qchem-5.4-akfmr7b3t57bfs6qan3padb2wnb2i7cl/bin/mpi/mpirun_qchem
QCMACHINEFILE:   ./qchem3056553/hostfile
exp-6-35

#
# env setting
#
exported envs:   QC QCAUX QCSCRATCH QCRUNNAME QCFILEPREF QCPROG QCPROG_S GUIFILE

Running Job 1 of 1 fin_bdt_Phi_60_Theta_220_fin_ftt.qcin
qchem fin_bdt_Phi_60_Theta_220_fin_ftt.qcin_3056553.0 ./qchem3056553/ 1
/cm/shared/apps/spack/cpu/opt/spack/linux-centos8-zen2/gcc-10.2.0/qchem-5.4-akfmr7b3t57bfs6qan3padb2wnb2i7cl/bin/mpi/mpirun_qchem -machinefile ./qchem3056553/hostfile -np 1 /cm/shared/apps/spack/cpu/opt/spack/linux-centos8-zen2/gcc-10.2.0/qchem-5.4-akfmr7b3t57bfs6qan3padb2wnb2i7cl/exe/qcprog.exe fin_bdt_Phi_60_Theta_220_fin_ftt.qcin_3056553.0 ./qchem3056553/

Process 0 of 1 is on exp-6-35 - thread support 0
initial socket setup ...start
initial socket setup ...done 
now start server 0 ... 
                  Welcome to Q-Chem
     A Quantum Leap Into The Future Of Chemistry


 Q-Chem 5.4, Q-Chem, Inc., Pleasanton, CA (2021)

 License issued to: University of California, San Diego (site)

 E. Epifanovsky,  A. T. B. Gilbert,  Xintian Feng,  Joonho Lee,  Yuezhi Mao,  
 N. Mardirossian,  P. Pokhilko,  A. White,  M. Wormit,  M. P. Coons,  
 A. L. Dempwolff,  Zhengting Gan,  D. Hait,  P. R. Horn,  L. D. Jacobson,  
 I. Kaliman,  J. Kussmann,  A. W. Lange,  Ka Un Lao,  D. S. Levine,  Jie Liu,  
 S. C. McKenzie,  A. F. Morrison,  K. Nanda,  F. Plasser,  D. R. Rehn,  
 M. L. Vidal,  Zhi-Qiang You,  Ying Zhu,  B. Alam,  B. Albrecht,  
 A. Aldossary,  E. Alguire,  J. H. Andersen,  D. Barton,  K. Begam,  A. Behn,  
 Y. A. Bernard,  E. J. Berquist,  H. Burton,  A. Carreras,  K. Carter-Fenk,  
 R. Chakraborty,  A. D. Chien,  K. D. Closser,  V. Cofer-Shabica,  
 S. Dasgupta,  Jia Deng,  M. de Wergifosse,  M. Diedenhofen,  Hainam Do,  
 S. Ehlert,  Po-Tung Fang,  S. Fatehi,  Qingguo Feng,  J. Gayvert,  
 Qinghui Ge,  G. Gidofalvi,  M. Goldey,  J. Gomes,  C. Gonzalez-Espinoza,  
 S. Gulania,  A. Gunina,  M. W. D. Hanson-Heine,  P. H. P. Harbach,  
 A. W. Hauser,  M. F. Herbst,  M. Hernandez Vera,  M. Hodecker,  
 Z. C. Holden,  S. Houck,  Xunkun Huang,  Kerwin Hui,  B. C. Huynh,  
 M. Ivanov,  Hyunjun Ji,  Hanjie Jiang,  B. Kaduk,  S. Kaehler,  
 K. Khistyaev,  Jaehoon Kim,  P. Klunzinger,  Z. Koczor-Benda,  
 Joong Hoon Koh,  D. Kosenkov,  L. Koulias,  T. Kowalczyk,  C. M. Krauter,  
 K. Kue,  A. Kunitsa,  T. Kus,  A. Landau,  K. V. Lawler,  D. Lefrancois,  
 S. Lehtola,  Rain Li,  Yi-Pei Li,  Jiashu Liang,  M. Liebenthal,  
 Hung-Hsuan Lin,  You-Sheng Lin,  Fenglai Liu,  Kuan-Yu Liu,  
 M. Loipersberger,  A. Luenser,  A. Manjanath,  P. Manohar,  E. Mansoor,  
 S. F. Manzer,  Shan-Ping Mao,  A. V. Marenich,  T. Markovich,  S. Mason,  
 S. A. Maurer,  P. F. McLaughlin,  M. F. S. J. Menger,  J.-M. Mewes,  
 S. A. Mewes,  P. Morgante,  J. W. Mullinax,  T. S. Nguyen-Beck,  
 K. J. Oosterbaan,  G. Paran,  Alexander C. Paul,  Suranjan K. Paul,  
 F. Pavosevic,  Zheng Pei,  S. Prager,  E. I. Proynov,  E. Ramos,  B. Rana,  
 A. E. Rask,  A. Rettig,  R. M. Richard,  F. Rob,  E. Rossomme,  T. Scheele,  
 M. Scheurer,  M. Schneider,  N. Sergueev,  S. M. Sharada,  W. Skomorowski,  
 D. W. Small,  C. J. Stein,  Yu-Chuan Su,  E. J. Sundstrom,  Zhen Tao,  
 J. Thirman,  T. Tsuchimochi,  N. M. Tubman,  S. P. Veccham,  O. Vydrov,  
 J. Wenzel,  J. Witte,  A. Yamada,  Kun Yao,  S. Yeganeh,  S. R. Yost,  
 A. Zech,  Igor Ying Zhang,  Xing Zhang,  Yu Zhang,  D. Zuev,  
 A. Aspuru-Guzik,  A. T. Bell,  N. A. Besley,  K. B. Bravaya,  B. R. Brooks,  
 D. Casanova,  Jeng-Da Chai,  S. Coriani,  C. J. Cramer,  
 A. E. DePrince, III,  R. A. DiStasio Jr.,  A. Dreuw,  B. D. Dunietz,  
 T. R. Furlani,  W. A. Goddard III,  S. Grimme,  S. Hammes-Schiffer,  
 T. Head-Gordon,  W. J. Hehre,  Chao-Ping Hsu,  T.-C. Jagau,  Yousung Jung,  
 A. Klamt,  Jing Kong,  D. S. Lambrecht,  WanZhen Liang,  N. J. Mayhall,  
 C. W. McCurdy,  J. B. Neaton,  C. Ochsenfeld,  J. A. Parkhill,  R. Peverati,  
 V. A. Rassolov,  Yihan Shao,  L. V. Slipchenko,  T. Stauch,  R. P. Steele,  
 J. E. Subotnik,  A. J. W. Thom,  A. Tkatchenko,  D. G. Truhlar,  
 T. Van Voorhis,  T. A. Wesolowski,  K. B. Whaley,  H. L. Woodcock III,  
 P. M. Zimmerman,  S. Faraji,  P. M. W. Gill,  M. Head-Gordon,  
 J. M. Herbert,  A. I. Krylov

 Contributors to earlier versions of Q-Chem not listed above: 
 R. D. Adamson,  B. Austin,  R. Baer,  J. Baker,  G. J. O. Beran,  
 K. Brandhorst,  S. T. Brown,  E. F. C. Byrd,  A. K. Chakraborty,  
 G. K. L. Chan,  Chun-Min Chang,  Yunqing Chen,  C.-L. Cheng,  
 Siu Hung Chien,  D. M. Chipman,  D. L. Crittenden,  H. Dachsel,  
 R. J. Doerksen,  A. D. Dutoi,  R. G. Edgar,  J. Fosso-Tande,  
 L. Fusti-Molnar,  D. Ghosh,  A. Ghysels,  A. Golubeva-Zadorozhnaya,  
 J. Gonthier,  M. S. Gordon,  S. R. Gwaltney,  G. Hawkins,  J. E. Herr,  
 A. Heyden,  S. Hirata,  E. G. Hohenstein,  G. Kedziora,  F. J. Keil,  
 C. Kelley,  Jihan Kim,  R. A. King,  R. Z. Khaliullin,  P. P. Korambath,  
 W. Kurlancheek,  A. Laurent,  A. M. Lee,  M. S. Lee,  S. V. Levchenko,  
 Ching Yeh Lin,  D. Liotard,  E. Livshits,  R. C. Lochan,  I. Lotan,  
 L. A. Martinez-Martinez,  P. E. Maslen,  N. Nair,  D. P. O'Neill,  
 D. Neuhauser,  E. Neuscamman,  C. M. Oana,  R. Olivares-Amaya,  R. Olson,  
 T. M. Perrine,  B. Peters,  P. A. Pieniazek,  A. Prociuk,  Y. M. Rhee,  
 J. Ritchie,  M. A. Rohrdanz,  E. Rosta,  N. J. Russ,  H. F. Schaefer III,  
 M. W. Schmidt,  N. E. Schultz,  S. Sharma,  N. Shenvi,  C. D. Sherrill,  
 A. C. Simmonett,  A. Sodt,  T. Stein,  D. Stuck,  K. S. Thanthiriwatte,  
 V. Vanovschi,  L. Vogt,  Tao Wang,  A. Warshel,  M. A. Watson,  
 C. F. Williams,  Q. Wu,  X. Xu,  Jun Yang,  W. Zhang,  Yan Zhao

 Please cite Q-Chem as follows:
 Y. Shao et al., Mol. Phys. 113, 184-215 (2015)
 DOI: 10.1080/00268976.2014.952696

 Q-Chem 5.4.0 for Intel X86 EM64T Linux

 Parts of Q-Chem use Armadillo 9.800.1 (Horizon Scraper).
 http://arma.sourceforge.net/

 Q-Chem begins on Sun Sep 24 18:11:03 2023  

 Host: 
0

     Scratch files written to ./qchem3056553//
 May1621 |scratch|qcdevops|jenkins|workspace|build_RNUM    
 Parallel job on  1  processors
 Processing $rem in /cm/shared/apps/spack/cpu/opt/spack/linux-centos8-zen2/gcc-10.2.0/qchem-5.4-akfmr7b3t57bfs6qan3padb2wnb2i7cl/config/preferences:
 Processing $rem in /home/rramji/.qchemrc:
 Symmetry turned off for PCM/SM12/SMD calculation
 Core orbitals will be frozen

 Checking the input file for inconsistencies... 	...done.

 Q-Chem warning in module forms1/BasisType.C, line 2236:

 You are not using the predefined 5D/6D in this basis set.


--------------------------------------------------------------
User input:
--------------------------------------------------------------
$molecule
0 1
C	0.208886	-8.519741	-0.174379
C	-0.472151	-7.635967	0.650052
S	1.193717	-7.651740	-1.377058
C	-0.225125	-6.261894	0.353105
H	-1.141594	-7.954738	1.458961
C	0.692811	-6.079985	-0.740583
C	1.039773	-4.798382	-1.195546
C	-0.817634	-5.153542	1.023267
C	-0.473754	-3.869626	0.565262
C	0.447350	-3.688927	-0.527745
O	-1.644483	-5.481075	2.054917
O	1.869424	-4.479871	-2.232592
C	2.939466	-5.356026	-2.565470
H	3.601405	-4.790496	-3.248608
H	2.587892	-6.268513	-3.094885
H	3.516052	-5.658187	-1.664539
C	-2.608813	-4.546999	2.524564
H	-3.270661	-5.107564	3.211568
H	-3.216646	-4.131473	1.692342
H	-2.141184	-3.712085	3.090211
C	0.690319	-2.314326	-0.823402
S	-0.985511	-2.295487	1.194935
C	0.000000	-1.435180	0.000000
H	1.361286	-1.993211	-1.630024
H	0.203444	-9.615985	-0.171719
C	0.000000	0.000000	0.000000
S	0.780044	0.447780	1.510732
C	2.143774	1.236372	0.727629
C	0.786529	0.454137	-1.064665
C	1.988499	1.149844	-0.678287
C	0.729864	0.419512	-2.486150
C	1.825177	1.052041	-3.106916
S	2.903877	1.678680	-1.965735
C	2.047896	1.175232	-4.559972
O	1.240953	0.705897	-5.350277
O	3.160791	1.814024	-5.004375
F	-0.233039	-0.140940	-3.246290
C	3.476510	1.984585	-6.334976
H	4.433735	2.536545	-6.370268
H	2.693835	2.561503	-6.875609
H	3.588239	1.011113	-6.861878
H	2.940569	1.696327	1.321510
$end

$rem
JOBTYPE		SP
EXCHANGE	HF
CORRELATION	pRIMP2
BASIS		cc-pvtz
METHOD		rimp2
AUX_BASIS	rimp2-cc-pvtz
SOLVENT_METHOD	PCM
PURECART	11111
SYMMETRY	false
MEM_TOTAL	110000
SCF_CONVERGENCE = 6
THRESH=10
GUI = 2
$end



$solvent
dielectric 4.90
$end
--------------------------------------------------------------
 ----------------------------------------------------------------
             Standard Nuclear Orientation (Angstroms)
    I     Atom           X                Y                Z
 ----------------------------------------------------------------
    1      C       0.2088860000    -8.5197410000    -0.1743790000
    2      C      -0.4721510000    -7.6359670000     0.6500520000
    3      S       1.1937170000    -7.6517400000    -1.3770580000
    4      C      -0.2251250000    -6.2618940000     0.3531050000
    5      H      -1.1415940000    -7.9547380000     1.4589610000
    6      C       0.6928110000    -6.0799850000    -0.7405830000
    7      C       1.0397730000    -4.7983820000    -1.1955460000
    8      C      -0.8176340000    -5.1535420000     1.0232670000
    9      C      -0.4737540000    -3.8696260000     0.5652620000
   10      C       0.4473500000    -3.6889270000    -0.5277450000
   11      O      -1.6444830000    -5.4810750000     2.0549170000
   12      O       1.8694240000    -4.4798710000    -2.2325920000
   13      C       2.9394660000    -5.3560260000    -2.5654700000
   14      H       3.6014050000    -4.7904960000    -3.2486080000
   15      H       2.5878920000    -6.2685130000    -3.0948850000
   16      H       3.5160520000    -5.6581870000    -1.6645390000
   17      C      -2.6088130000    -4.5469990000     2.5245640000
   18      H      -3.2706610000    -5.1075640000     3.2115680000
   19      H      -3.2166460000    -4.1314730000     1.6923420000
   20      H      -2.1411840000    -3.7120850000     3.0902110000
   21      C       0.6903190000    -2.3143260000    -0.8234020000
   22      S      -0.9855110000    -2.2954870000     1.1949350000
   23      C       0.0000000000    -1.4351800000     0.0000000000
   24      H       1.3612860000    -1.9932110000    -1.6300240000
   25      H       0.2034440000    -9.6159850000    -0.1717190000
   26      C       0.0000000000     0.0000000000     0.0000000000
   27      S       0.7800440000     0.4477800000     1.5107320000
   28      C       2.1437740000     1.2363720000     0.7276290000
   29      C       0.7865290000     0.4541370000    -1.0646650000
   30      C       1.9884990000     1.1498440000    -0.6782870000
   31      C       0.7298640000     0.4195120000    -2.4861500000
   32      C       1.8251770000     1.0520410000    -3.1069160000
   33      S       2.9038770000     1.6786800000    -1.9657350000
   34      C       2.0478960000     1.1752320000    -4.5599720000
   35      O       1.2409530000     0.7058970000    -5.3502770000
   36      O       3.1607910000     1.8140240000    -5.0043750000
   37      F      -0.2330390000    -0.1409400000    -3.2462900000
   38      C       3.4765100000     1.9845850000    -6.3349760000
   39      H       4.4337350000     2.5365450000    -6.3702680000
   40      H       2.6938350000     2.5615030000    -6.8756090000
   41      H       3.5882390000     1.0111130000    -6.8618780000
   42      H       2.9405690000     1.6963270000     1.3215100000
 ----------------------------------------------------------------
 Nuclear Repulsion Energy =        3379.23290701 hartrees
 There are      119 alpha and      119 beta electrons
 Requested basis set is cc-pVTZ
 There are 376 shells and 1068 basis functions

 Total QAlloc Memory Limit 110000 MB
 Mega-Array Size       188 MB
 MEM_STATIC part       192 MB
 Discretize the solute cavity surface with Lebedev spheres
	Using 110 Lebedev grid points for each H atom
	Using 194 Lebedev grid points for other atoms
	Atomic van der Waals radii will be scaled by 1.20
 Remove points where switching function is < 1.0e-08
 Keep 2858 surface tesserae and discard 4198 interior tesserae
 Molecular Surface Area = 434.825 Angst**2
 Requested basis set is rimp2-cc-pVTZ
 There are 833 shells and 2903 basis functions
 A cutoff of  1.0D-10 yielded  32834 shell pairs
 There are    250104 function pairs (    324031 Cartesian)
 Smallest overlap matrix eigenvalue = 2.16E-05

 Scale SEOQF with 1.000000e-01/1.000000e-02/1.000000e-02

 Standard Electronic Orientation quadrupole field applied
 Nucleus-field energy     =     0.0000000377 hartrees
 Guess from superposition of atomic densities
 Warning:  Energy on first SCF cycle will be non-variational
 SAD guess density has 238.000000 electrons

 -----------------------------------------------------------------------
  General SCF calculation program by
  Eric Jon Sundstrom, Paul Horn, Yuezhi Mao, Dmitri Zuev, Alec White,
  David Stuck, Shaama M.S., Shane Yost, Joonho Lee, David Small,
  Daniel Levine, Susi Lehtola, Hugh Burton, Evgeny Epifanovsky,
  Bang C. Huynh
 -----------------------------------------------------------------------
 Hartree-Fock
 using 64 threads for integral computing
 -------------------------------------------------------
 OpenMP Integral computing Module                
 Release: version 1.0, May 2013, Q-Chem Inc. Pittsburgh 
 -------------------------------------------------------
 A restricted SCF calculation will be
 performed using DIIS
 SCF converges when DIIS error is below 1.0e-06
 ---------------------------------------
  Cycle       Energy         DIIS error
 ---------------------------------------
    1   -2765.6638580997      1.78e-02  
    2   -2753.7922101258      1.58e-03  
    3   -2754.1350550738      8.98e-04  
    4   -2754.2224815163      2.56e-04  
    5   -2754.2342676400      7.07e-05  
    6   -2754.2354131098      2.60e-05  
    7   -2754.2356723597      1.22e-05  
    8   -2754.2357678588      5.65e-06  
    9   -2754.2357915613      2.93e-06  
   10   -2754.2357976129      1.50e-06  
   11   -2754.2357995877      6.45e-07  Convergence criterion met
 ---------------------------------------
 SCF time:   CPU 7100.44s  wall 257.00s 

************** Final PCM Free Energy Summary **************
 G_electrostatic  =      -0.02304022 hartree =     -14.45795914 kcal/mol
 G_cavitation     =       0.00000000 hartree =       0.00000000 kcal/mol
 G_dispersion     =       0.00000000 hartree =       0.00000000 kcal/mol
 G_repulsion      =       0.00000000 hartree =       0.00000000 kcal/mol
 --------------------------------------------------
 Non-electrostatic Free Energy =       0.00000000 hartree =       0.00000000 kcal/mol
 Total                         =      -0.02304022 hartree =     -14.45795914 kcal/mol
 --------------------------------------------------
 SCF Energy (H0 + V/2)                       =   -2754.23579959 
 Solute Internal Energy (H0)                 =   -2754.21275936 
 Total Free Energy (H0 + V/2 + non-elec)     =   -2754.23579959 hartree
                                             = -1728309.04960855 kcal/mol
***********************************************************

 SCF   energy in the final basis set =    -2754.2357995877
 Total energy in the final basis set =    -2754.2357995877


 --------------------------------------------------------------
  Generalized many-body perturbation theory program
  by Joonho Lee, Fazle Rob, Xintian Feng, Evgeny Epifanovsky

 No regularization used 
 (reg. param. = 0.0000e+00)
  (P|Q)^-1/2 Time:  CPU 128.68 s  wall 2.03 s

 In RI-MP2 calculation: 
 # of frozen core orbitals: 45

 Components of the RIMP2 correlation energy:
        aaaa    correlation energy =        -0.6745823974 a.u.
        abab    correlation energy =        -3.7223423943 a.u.
        bbbb    correlation energy =        -0.6745823974 a.u.
        non-Brillouin singles      =        -0.0000000000 a.u.
        total same-spin energy     =        -1.3491647949 a.u.
        total opposite-spin energy =        -3.7223423943 a.u.

 Total  RIMP2   correlation energy =        -5.0715071892 a.u.
        RIMP2         total energy =     -2759.3073067769 a.u.

 RI-MP2 Energy Time:  CPU 2747.98 s  wall 44.45 s
 
 --------------------------------------------------------------
 
                    Orbital Energies (a.u.)
 --------------------------------------------------------------
 
 Alpha MOs
 -- Occupied --
-92.0186 -92.0074 -91.9832 -91.9806 -26.3348 -20.6163 -20.5903 -20.5873
-20.5574 -11.4168 -11.3775 -11.3290 -11.3161 -11.3127 -11.3107 -11.3029
-11.2962 -11.2961 -11.2907 -11.2855 -11.2840 -11.2808 -11.2790 -11.2761
-11.2751 -11.2569 -11.2528 -11.2475 -11.2408  -9.0176  -9.0108  -8.9832
 -8.9818  -6.6981  -6.6972  -6.6971  -6.6920  -6.6914  -6.6901  -6.6642
 -6.6636  -6.6628  -6.6627  -6.6621  -6.6611  -1.6478  -1.4765  -1.4142
 -1.4102  -1.3727  -1.2457  -1.1925  -1.1709  -1.1449  -1.0850  -1.0528
 -1.0473  -1.0341  -0.9979  -0.9926  -0.9766  -0.9580  -0.9482  -0.9389
 -0.8932  -0.8765  -0.8430  -0.8027  -0.7981  -0.7860  -0.7763  -0.7689
 -0.7530  -0.7304  -0.7201  -0.7159  -0.6993  -0.6936  -0.6821  -0.6792
 -0.6777  -0.6623  -0.6567  -0.6499  -0.6269  -0.6173  -0.6156  -0.6122
 -0.6092  -0.6024  -0.5796  -0.5738  -0.5674  -0.5606  -0.5567  -0.5455
 -0.5336  -0.5254  -0.5233  -0.5165  -0.5132  -0.5069  -0.5057  -0.4962
 -0.4895  -0.4843  -0.4688  -0.4673  -0.4644  -0.4619  -0.4569  -0.4126
 -0.3926  -0.3825  -0.3566  -0.3516  -0.3226  -0.2890  -0.2487
 -- Virtual --
 -0.0027   0.0750   0.1054   0.1255   0.1309   0.1437   0.1499   0.1547
  0.1569   0.1598   0.1623   0.1731   0.1792   0.1845   0.1898   0.1962
  0.2010   0.2053   0.2064   0.2158   0.2209   0.2229   0.2253   0.2256
  0.2317   0.2376   0.2462   0.2532   0.2568   0.2655   0.2750   0.2774
  0.2860   0.3001   0.3099   0.3197   0.3334   0.3392   0.3443   0.3525
  0.3544   0.3572   0.3655   0.3677   0.3723   0.3764   0.3828   0.3855
  0.3891   0.3919   0.3924   0.4025   0.4071   0.4114   0.4156   0.4230
  0.4292   0.4301   0.4344   0.4431   0.4483   0.4495   0.4523   0.4590
  0.4637   0.4672   0.4690   0.4750   0.4754   0.4836   0.4884   0.4894
  0.4909   0.5018   0.5028   0.5057   0.5109   0.5182   0.5193   0.5209
  0.5289   0.5343   0.5377   0.5409   0.5451   0.5497   0.5546   0.5561
  0.5582   0.5601   0.5648   0.5684   0.5718   0.5742   0.5788   0.5807
  0.5876   0.5895   0.5930   0.5956   0.6023   0.6098   0.6112   0.6160
  0.6183   0.6215   0.6250   0.6260   0.6266   0.6316   0.6332   0.6374
  0.6407   0.6418   0.6474   0.6532   0.6587   0.6603   0.6622   0.6693
  0.6761   0.6821   0.6843   0.6897   0.6990   0.7017   0.7037   0.7051
  0.7096   0.7174   0.7263   0.7292   0.7402   0.7451   0.7487   0.7509
  0.7610   0.7648   0.7674   0.7716   0.7797   0.7860   0.7932   0.7970
  0.8021   0.8086   0.8126   0.8176   0.8233   0.8324   0.8415   0.8445
  0.8547   0.8572   0.8642   0.8680   0.8727   0.8818   0.8846   0.8896
  0.8949   0.9017   0.9086   0.9115   0.9164   0.9222   0.9242   0.9324
  0.9368   0.9406   0.9433   0.9464   0.9529   0.9557   0.9667   0.9701
  0.9724   0.9778   0.9791   0.9863   0.9879   0.9954   0.9963   1.0032
  1.0099   1.0140   1.0190   1.0229   1.0291   1.0331   1.0419   1.0480
  1.0501   1.0525   1.0556   1.0617   1.0671   1.0718   1.0740   1.0776
  1.0828   1.0918   1.0939   1.1021   1.1067   1.1101   1.1149   1.1237
  1.1281   1.1332   1.1447   1.1470   1.1538   1.1595   1.1617   1.1662
  1.1686   1.1703   1.1777   1.1830   1.1841   1.1902   1.1944   1.1974
  1.2081   1.2105   1.2126   1.2170   1.2235   1.2275   1.2315   1.2350
  1.2418   1.2473   1.2560   1.2608   1.2627   1.2686   1.2775   1.2777
  1.2841   1.2898   1.2969   1.3046   1.3121   1.3144   1.3159   1.3222
  1.3273   1.3317   1.3350   1.3428   1.3441   1.3620   1.3645   1.3702
  1.3762   1.3801   1.3901   1.3976   1.4041   1.4151   1.4203   1.4324
  1.4381   1.4439   1.4507   1.4568   1.4797   1.4839   1.4849   1.4908
  1.4943   1.4984   1.5014   1.5098   1.5122   1.5157   1.5255   1.5285
  1.5344   1.5369   1.5411   1.5440   1.5492   1.5534   1.5598   1.5643
  1.5766   1.5841   1.5928   1.6021   1.6041   1.6070   1.6237   1.6375
  1.6411   1.6427   1.6508   1.6603   1.6655   1.6729   1.6787   1.6870
  1.6912   1.6987   1.7089   1.7121   1.7148   1.7343   1.7398   1.7554
  1.7607   1.7636   1.7701   1.7890   1.7990   1.8071   1.8173   1.8213
  1.8268   1.8279   1.8423   1.8444   1.8551   1.8624   1.8692   1.8724
  1.8860   1.8921   1.9005   1.9086   1.9116   1.9208   1.9250   1.9293
  1.9425   1.9526   1.9589   1.9610   1.9734   1.9823   1.9900   1.9940
  2.0020   2.0055   2.0191   2.0303   2.0322   2.0430   2.0675   2.0791
  2.0822   2.0923   2.0934   2.1027   2.1099   2.1244   2.1311   2.1407
  2.1455   2.1556   2.1581   2.1636   2.1692   2.1802   2.1865   2.1930
  2.1981   2.2046   2.2083   2.2161   2.2190   2.2270   2.2354   2.2506
  2.2565   2.2579   2.2610   2.2657   2.2767   2.2790   2.2850   2.2923
  2.3022   2.3111   2.3162   2.3253   2.3372   2.3404   2.3577   2.3595
  2.3624   2.3761   2.3922   2.3946   2.3991   2.4098   2.4149   2.4246
  2.4353   2.4487   2.4511   2.4538   2.4636   2.4673   2.4822   2.4919
  2.4979   2.5085   2.5234   2.5253   2.5279   2.5336   2.5466   2.5598
  2.5626   2.5794   2.5855   2.6033   2.6177   2.6189   2.6202   2.6227
  2.6295   2.6345   2.6412   2.6473   2.6548   2.6583   2.6730   2.6799
  2.6869   2.6893   2.6949   2.7024   2.7053   2.7066   2.7135   2.7208
  2.7238   2.7336   2.7386   2.7448   2.7543   2.7563   2.7665   2.7726
  2.7805   2.7893   2.7990   2.8021   2.8092   2.8136   2.8273   2.8328
  2.8405   2.8468   2.8474   2.8557   2.8637   2.8672   2.8734   2.8770
  2.8867   2.8893   2.8929   2.9021   2.9125   2.9199   2.9279   2.9378
  2.9522   2.9550   2.9678   2.9736   2.9872   2.9882   3.0005   3.0060
  3.0128   3.0221   3.0287   3.0358   3.0384   3.0417   3.0439   3.0477
  3.0621   3.0643   3.0722   3.0817   3.0882   3.0908   3.0926   3.0988
  3.1054   3.1136   3.1189   3.1244   3.1294   3.1375   3.1488   3.1528
  3.1598   3.1624   3.1677   3.1709   3.1731   3.1848   3.1864   3.1915
  3.1958   3.2004   3.2035   3.2053   3.2121   3.2246   3.2283   3.2301
  3.2351   3.2420   3.2438   3.2496   3.2560   3.2629   3.2699   3.2747
  3.2761   3.2821   3.2827   3.2882   3.2918   3.2948   3.3005   3.3075
  3.3159   3.3212   3.3257   3.3320   3.3349   3.3445   3.3501   3.3547
  3.3562   3.3570   3.3625   3.3656   3.3728   3.3746   3.3783   3.3854
  3.3891   3.3929   3.3968   3.4003   3.4078   3.4128   3.4195   3.4256
  3.4264   3.4341   3.4379   3.4397   3.4465   3.4478   3.4558   3.4645
  3.4665   3.4685   3.4737   3.4774   3.4860   3.4973   3.5070   3.5086
  3.5126   3.5169   3.5217   3.5264   3.5285   3.5323   3.5392   3.5424
  3.5487   3.5530   3.5596   3.5665   3.5695   3.5803   3.5822   3.5901
  3.5950   3.5987   3.6019   3.6039   3.6102   3.6172   3.6224   3.6326
  3.6330   3.6360   3.6426   3.6500   3.6550   3.6626   3.6670   3.6748
  3.6757   3.6797   3.6889   3.6908   3.6952   3.7011   3.7069   3.7081
  3.7129   3.7197   3.7239   3.7281   3.7288   3.7380   3.7472   3.7515
  3.7530   3.7566   3.7612   3.7746   3.7771   3.7825   3.7879   3.7926
  3.7990   3.8044   3.8079   3.8144   3.8201   3.8257   3.8329   3.8358
  3.8411   3.8482   3.8515   3.8572   3.8620   3.8672   3.8782   3.8805
  3.8834   3.8886   3.8974   3.9012   3.9075   3.9150   3.9291   3.9331
  3.9405   3.9469   3.9532   3.9565   3.9655   3.9802   3.9869   3.9918
  4.0015   4.0124   4.0180   4.0205   4.0254   4.0359   4.0411   4.0491
  4.0575   4.0621   4.0717   4.0798   4.0836   4.0894   4.0954   4.0973
  4.1079   4.1149   4.1353   4.1388   4.1451   4.1495   4.1551   4.1664
  4.1703   4.1751   4.1773   4.1828   4.1912   4.1935   4.1991   4.2146
  4.2165   4.2292   4.2404   4.2415   4.2473   4.2604   4.2651   4.2836
  4.2876   4.3073   4.3136   4.3300   4.3446   4.3477   4.3519   4.3560
  4.3694   4.3742   4.3774   4.3835   4.3902   4.3962   4.4048   4.4080
  4.4098   4.4164   4.4195   4.4288   4.4393   4.4403   4.4450   4.4608
  4.4710   4.4834   4.4922   4.5012   4.5066   4.5106   4.5158   4.5196
  4.5366   4.5446   4.5563   4.5661   4.5684   4.5703   4.5848   4.5924
  4.6107   4.6174   4.6283   4.6305   4.6322   4.6429   4.6469   4.6575
  4.6603   4.6709   4.6823   4.6859   4.6966   4.7074   4.7222   4.7380
  4.7414   4.7516   4.7594   4.7803   4.7890   4.7932   4.8134   4.8216
  4.8365   4.8504   4.8542   4.8673   4.8783   4.8997   4.9021   4.9322
  4.9355   4.9489   4.9643   4.9677   4.9745   4.9938   4.9957   5.0031
  5.0099   5.0146   5.0212   5.0329   5.0486   5.0530   5.0649   5.0747
  5.0828   5.1040   5.1140   5.1356   5.1633   5.1749   5.1855   5.1907
  5.1983   5.2113   5.2146   5.2296   5.2532   5.2570   5.2585   5.2852
  5.3016   5.3125   5.3203   5.3297   5.3472   5.3483   5.3529   5.3729
  5.3835   5.3919   5.4033   5.4056   5.4066   5.4443   5.4666   5.4711
  5.4758   5.4828   5.4921   5.5063   5.5139   5.5192   5.5362   5.5663
  5.5731   5.5875   5.5947   5.6080   5.6123   5.6342   5.6455   5.6675
  5.7228   5.7371   5.7968   5.8087   5.8122   5.8251   5.8383   5.8566
  5.8755   5.8878   5.9240   5.9646   5.9650   5.9781   5.9984   6.0275
  6.0621   6.0895   6.1113   6.1208   6.1308   6.1728   6.1811   6.1830
  6.2407   6.2563   6.2729   6.2806   6.3050   6.3116   6.3235   6.3937
  6.4272   6.4518   6.4855   6.5076   6.5511   6.5517   6.5617   6.6580
  6.6698   6.6740   6.7116   6.7334   6.7427   6.8060   6.8451   6.8545
  6.8775   6.8972   6.9854   7.1259   7.1406   7.1744   7.2071   7.2180
  7.2388   7.3208   7.3262   7.3364   7.3731   7.3754   7.4211   7.4586
  7.4807   7.4865   7.4922   7.5178   7.5439   7.6038   7.7226   7.7709
  7.8004   7.8272   7.9036   7.9254   7.9511   8.0050   8.1025   8.1798
  8.5429   8.9352   9.0161   9.3688   9.4962   9.6954  10.1913  10.4941
 11.2233  11.3559  11.9303  12.0602  12.1395  12.3609  12.5052  12.5793
 12.6415  12.7484  13.0042  13.2849  13.3502  13.6371  13.8475  13.8917
 13.9077  14.0370  14.1397  14.6259  15.2067
 --------------------------------------------------------------
 
          Ground-State Mulliken Net Atomic Charges

     Atom                 Charge (a.u.)
  ----------------------------------------
      1 C                    -0.197545
      2 C                    -0.253858
      3 S                    -0.028144
      4 C                    -0.021673
      5 H                     0.195208
      6 C                    -0.023685
      7 C                     0.235156
      8 C                     0.246737
      9 C                    -0.044211
     10 C                    -0.026988
     11 O                    -0.334016
     12 O                    -0.342292
     13 C                    -0.085716
     14 H                     0.121218
     15 H                     0.090812
     16 H                     0.092229
     17 C                    -0.086853
     18 H                     0.124854
     19 H                     0.094914
     20 H                     0.088875
     21 C                    -0.267485
     22 S                    -0.052413
     23 C                     0.042610
     24 H                     0.183928
     25 H                     0.204719
     26 C                    -0.184874
     27 S                     0.145198
     28 C                    -0.144068
     29 C                    -0.025202
     30 C                    -0.027900
     31 C                     0.357962
     32 C                    -0.125424
     33 S                     0.077464
     34 C                     0.458809
     35 O                    -0.437630
     36 O                    -0.296815
     37 F                    -0.211393
     38 C                    -0.054679
     39 H                     0.117517
     40 H                     0.085982
     41 H                     0.085836
     42 H                     0.222834
  ----------------------------------------
  Sum of atomic charges =     0.000000

 -----------------------------------------------------------------
                    Cartesian Multipole Moments
 -----------------------------------------------------------------
    Charge (ESU x 10^10)
                 0.0000
    Dipole Moment (Debye)
         X       5.2217      Y       2.8665      Z       3.0825
       Tot       6.7071
    Quadrupole Moments (Debye-Ang)
        XX    -170.0861     XY       8.9150     YY    -179.9160
        XZ     -22.4177     YZ      -7.6755     ZZ    -193.7424
    Octopole Moments (Debye-Ang^2)
       XXX    -424.9200    XXY     437.8540    XYY    -136.3528
       YYY    1175.0883    XXZ     141.0238    XYZ      34.1250
       YYZ     174.4254    XZZ     -52.6969    YZZ     505.1384
       ZZZ     562.2655
    Hexadecapole Moments (Debye-Ang^3)
      XXXX   -3313.8204   XXXY    -147.9433   XXYY   -3663.5958
      XYYY    -262.0666   YYYY  -17303.5798   XXXZ    1584.9149
      XXYZ      54.4540   XYYZ     257.7733   YYYZ     352.1596
      XXZZ   -1214.0309   XYZZ     159.0077   YYZZ   -4301.4415
      XZZZ    1104.8402   YZZZ     -26.0995   ZZZZ   -6658.3044
 -----------------------------------------------------------------
 Total job time:  304.62s(wall), 9965.73s(cpu) 
 Sun Sep 24 18:16:07 2023

        *************************************************************
        *                                                           *
        *  Thank you very much for using Q-Chem.  Have a nice day.  *
        *                                                           *
        *************************************************************


0 sent ACK to 0 
now end server 0 ... 
cleanup process ... done
remove work dirs ./qchem3056553.0 -- ./qchem3056553.0
rm -rf ./qchem3056553.0
rm -rf ./qchem3056553
