You are running Q-Chem version: 5.4.0

#
# job setting
#
local host:  exp-2-38
current dir: /expanse/lustre/projects/csd626/rramji/aromodel/PTB7_fin/Rotation_Test
input file:  fin_bdt_Phi_10_Theta_110_fin_ftt.qcin
output file: 
nprocs     : 1
nthreads   : 64
#
# qchem installation setting
#
QC:          /cm/shared/apps/spack/cpu/opt/spack/linux-centos8-zen2/gcc-10.2.0/qchem-5.4-akfmr7b3t57bfs6qan3padb2wnb2i7cl
QCAUX:       /cm/shared/apps/spack/cpu/opt/spack/linux-centos8-zen2/gcc-10.2.0/qchem-5.4-akfmr7b3t57bfs6qan3padb2wnb2i7cl/qcaux
QCPROG:      /cm/shared/apps/spack/cpu/opt/spack/linux-centos8-zen2/gcc-10.2.0/qchem-5.4-akfmr7b3t57bfs6qan3padb2wnb2i7cl/exe/qcprog.exe
QCPROG_S:    /cm/shared/apps/spack/cpu/opt/spack/linux-centos8-zen2/gcc-10.2.0/qchem-5.4-akfmr7b3t57bfs6qan3padb2wnb2i7cl/exe/qcprog.exe_s
PARALLEL:    -DPARALLEL
QCMPI:       mpich
#
# qchem directory setting
#
qcrun:       qchem3758209
QCSCRATCH:   .
QCLOCALSCR:  
QCTMPDIR:    .
QCFILEPREF:  ./qchem3758209
QCSAVEDIR:   
workdirs:    ./qchem3758209
workdir0:    ./qchem3758209
partmpdirs =  
#
# parallel setting
#
QCRSH:           ssh
QCMPI:           mpich
QCMPIRUN:        /cm/shared/apps/spack/cpu/opt/spack/linux-centos8-zen2/gcc-10.2.0/qchem-5.4-akfmr7b3t57bfs6qan3padb2wnb2i7cl/bin/mpi/mpirun_qchem
QCMACHINEFILE:   ./qchem3758209/hostfile
exp-2-38

#
# env setting
#
exported envs:   QC QCAUX QCSCRATCH QCRUNNAME QCFILEPREF QCPROG QCPROG_S GUIFILE

Running Job 1 of 1 fin_bdt_Phi_10_Theta_110_fin_ftt.qcin
qchem fin_bdt_Phi_10_Theta_110_fin_ftt.qcin_3758209.0 ./qchem3758209/ 1
/cm/shared/apps/spack/cpu/opt/spack/linux-centos8-zen2/gcc-10.2.0/qchem-5.4-akfmr7b3t57bfs6qan3padb2wnb2i7cl/bin/mpi/mpirun_qchem -machinefile ./qchem3758209/hostfile -np 1 /cm/shared/apps/spack/cpu/opt/spack/linux-centos8-zen2/gcc-10.2.0/qchem-5.4-akfmr7b3t57bfs6qan3padb2wnb2i7cl/exe/qcprog.exe fin_bdt_Phi_10_Theta_110_fin_ftt.qcin_3758209.0 ./qchem3758209/

Process 0 of 1 is on exp-2-38 - thread support 0
initial socket setup ...start
initial socket setup ...done 
now start server 0 ... 
                  Welcome to Q-Chem
     A Quantum Leap Into The Future Of Chemistry


 Q-Chem 5.4, Q-Chem, Inc., Pleasanton, CA (2021)

 License issued to: University of California, San Diego (site)

 E. Epifanovsky,  A. T. B. Gilbert,  Xintian Feng,  Joonho Lee,  Yuezhi Mao,  
 N. Mardirossian,  P. Pokhilko,  A. White,  M. Wormit,  M. P. Coons,  
 A. L. Dempwolff,  Zhengting Gan,  D. Hait,  P. R. Horn,  L. D. Jacobson,  
 I. Kaliman,  J. Kussmann,  A. W. Lange,  Ka Un Lao,  D. S. Levine,  Jie Liu,  
 S. C. McKenzie,  A. F. Morrison,  K. Nanda,  F. Plasser,  D. R. Rehn,  
 M. L. Vidal,  Zhi-Qiang You,  Ying Zhu,  B. Alam,  B. Albrecht,  
 A. Aldossary,  E. Alguire,  J. H. Andersen,  D. Barton,  K. Begam,  A. Behn,  
 Y. A. Bernard,  E. J. Berquist,  H. Burton,  A. Carreras,  K. Carter-Fenk,  
 R. Chakraborty,  A. D. Chien,  K. D. Closser,  V. Cofer-Shabica,  
 S. Dasgupta,  Jia Deng,  M. de Wergifosse,  M. Diedenhofen,  Hainam Do,  
 S. Ehlert,  Po-Tung Fang,  S. Fatehi,  Qingguo Feng,  J. Gayvert,  
 Qinghui Ge,  G. Gidofalvi,  M. Goldey,  J. Gomes,  C. Gonzalez-Espinoza,  
 S. Gulania,  A. Gunina,  M. W. D. Hanson-Heine,  P. H. P. Harbach,  
 A. W. Hauser,  M. F. Herbst,  M. Hernandez Vera,  M. Hodecker,  
 Z. C. Holden,  S. Houck,  Xunkun Huang,  Kerwin Hui,  B. C. Huynh,  
 M. Ivanov,  Hyunjun Ji,  Hanjie Jiang,  B. Kaduk,  S. Kaehler,  
 K. Khistyaev,  Jaehoon Kim,  P. Klunzinger,  Z. Koczor-Benda,  
 Joong Hoon Koh,  D. Kosenkov,  L. Koulias,  T. Kowalczyk,  C. M. Krauter,  
 K. Kue,  A. Kunitsa,  T. Kus,  A. Landau,  K. V. Lawler,  D. Lefrancois,  
 S. Lehtola,  Rain Li,  Yi-Pei Li,  Jiashu Liang,  M. Liebenthal,  
 Hung-Hsuan Lin,  You-Sheng Lin,  Fenglai Liu,  Kuan-Yu Liu,  
 M. Loipersberger,  A. Luenser,  A. Manjanath,  P. Manohar,  E. Mansoor,  
 S. F. Manzer,  Shan-Ping Mao,  A. V. Marenich,  T. Markovich,  S. Mason,  
 S. A. Maurer,  P. F. McLaughlin,  M. F. S. J. Menger,  J.-M. Mewes,  
 S. A. Mewes,  P. Morgante,  J. W. Mullinax,  T. S. Nguyen-Beck,  
 K. J. Oosterbaan,  G. Paran,  Alexander C. Paul,  Suranjan K. Paul,  
 F. Pavosevic,  Zheng Pei,  S. Prager,  E. I. Proynov,  E. Ramos,  B. Rana,  
 A. E. Rask,  A. Rettig,  R. M. Richard,  F. Rob,  E. Rossomme,  T. Scheele,  
 M. Scheurer,  M. Schneider,  N. Sergueev,  S. M. Sharada,  W. Skomorowski,  
 D. W. Small,  C. J. Stein,  Yu-Chuan Su,  E. J. Sundstrom,  Zhen Tao,  
 J. Thirman,  T. Tsuchimochi,  N. M. Tubman,  S. P. Veccham,  O. Vydrov,  
 J. Wenzel,  J. Witte,  A. Yamada,  Kun Yao,  S. Yeganeh,  S. R. Yost,  
 A. Zech,  Igor Ying Zhang,  Xing Zhang,  Yu Zhang,  D. Zuev,  
 A. Aspuru-Guzik,  A. T. Bell,  N. A. Besley,  K. B. Bravaya,  B. R. Brooks,  
 D. Casanova,  Jeng-Da Chai,  S. Coriani,  C. J. Cramer,  
 A. E. DePrince, III,  R. A. DiStasio Jr.,  A. Dreuw,  B. D. Dunietz,  
 T. R. Furlani,  W. A. Goddard III,  S. Grimme,  S. Hammes-Schiffer,  
 T. Head-Gordon,  W. J. Hehre,  Chao-Ping Hsu,  T.-C. Jagau,  Yousung Jung,  
 A. Klamt,  Jing Kong,  D. S. Lambrecht,  WanZhen Liang,  N. J. Mayhall,  
 C. W. McCurdy,  J. B. Neaton,  C. Ochsenfeld,  J. A. Parkhill,  R. Peverati,  
 V. A. Rassolov,  Yihan Shao,  L. V. Slipchenko,  T. Stauch,  R. P. Steele,  
 J. E. Subotnik,  A. J. W. Thom,  A. Tkatchenko,  D. G. Truhlar,  
 T. Van Voorhis,  T. A. Wesolowski,  K. B. Whaley,  H. L. Woodcock III,  
 P. M. Zimmerman,  S. Faraji,  P. M. W. Gill,  M. Head-Gordon,  
 J. M. Herbert,  A. I. Krylov

 Contributors to earlier versions of Q-Chem not listed above: 
 R. D. Adamson,  B. Austin,  R. Baer,  J. Baker,  G. J. O. Beran,  
 K. Brandhorst,  S. T. Brown,  E. F. C. Byrd,  A. K. Chakraborty,  
 G. K. L. Chan,  Chun-Min Chang,  Yunqing Chen,  C.-L. Cheng,  
 Siu Hung Chien,  D. M. Chipman,  D. L. Crittenden,  H. Dachsel,  
 R. J. Doerksen,  A. D. Dutoi,  R. G. Edgar,  J. Fosso-Tande,  
 L. Fusti-Molnar,  D. Ghosh,  A. Ghysels,  A. Golubeva-Zadorozhnaya,  
 J. Gonthier,  M. S. Gordon,  S. R. Gwaltney,  G. Hawkins,  J. E. Herr,  
 A. Heyden,  S. Hirata,  E. G. Hohenstein,  G. Kedziora,  F. J. Keil,  
 C. Kelley,  Jihan Kim,  R. A. King,  R. Z. Khaliullin,  P. P. Korambath,  
 W. Kurlancheek,  A. Laurent,  A. M. Lee,  M. S. Lee,  S. V. Levchenko,  
 Ching Yeh Lin,  D. Liotard,  E. Livshits,  R. C. Lochan,  I. Lotan,  
 L. A. Martinez-Martinez,  P. E. Maslen,  N. Nair,  D. P. O'Neill,  
 D. Neuhauser,  E. Neuscamman,  C. M. Oana,  R. Olivares-Amaya,  R. Olson,  
 T. M. Perrine,  B. Peters,  P. A. Pieniazek,  A. Prociuk,  Y. M. Rhee,  
 J. Ritchie,  M. A. Rohrdanz,  E. Rosta,  N. J. Russ,  H. F. Schaefer III,  
 M. W. Schmidt,  N. E. Schultz,  S. Sharma,  N. Shenvi,  C. D. Sherrill,  
 A. C. Simmonett,  A. Sodt,  T. Stein,  D. Stuck,  K. S. Thanthiriwatte,  
 V. Vanovschi,  L. Vogt,  Tao Wang,  A. Warshel,  M. A. Watson,  
 C. F. Williams,  Q. Wu,  X. Xu,  Jun Yang,  W. Zhang,  Yan Zhao

 Please cite Q-Chem as follows:
 Y. Shao et al., Mol. Phys. 113, 184-215 (2015)
 DOI: 10.1080/00268976.2014.952696

 Q-Chem 5.4.0 for Intel X86 EM64T Linux

 Parts of Q-Chem use Armadillo 9.800.1 (Horizon Scraper).
 http://arma.sourceforge.net/

 Q-Chem begins on Sun Sep 24 17:07:10 2023  

 Host: 
0

     Scratch files written to ./qchem3758209//
 May1621 |scratch|qcdevops|jenkins|workspace|build_RNUM    
 Parallel job on  1  processors
 Processing $rem in /cm/shared/apps/spack/cpu/opt/spack/linux-centos8-zen2/gcc-10.2.0/qchem-5.4-akfmr7b3t57bfs6qan3padb2wnb2i7cl/config/preferences:
 Processing $rem in /home/rramji/.qchemrc:
 Symmetry turned off for PCM/SM12/SMD calculation
 Core orbitals will be frozen

 Checking the input file for inconsistencies... 	...done.

 Q-Chem warning in module forms1/BasisType.C, line 2236:

 You are not using the predefined 5D/6D in this basis set.


--------------------------------------------------------------
User input:
--------------------------------------------------------------
$molecule
0 1
C	-0.235306	-8.519741	-0.136647
C	0.772334	-7.635967	0.221346
S	-1.702286	-7.651740	-0.650746
C	0.408807	-6.261894	0.090779
H	1.761423	-7.954738	0.573754
C	-0.932876	-6.079985	-0.397735
C	-1.479069	-4.798382	-0.568166
C	1.241204	-5.153542	0.418347
C	0.693206	-3.869626	0.251852
C	-0.648921	-3.688927	-0.239872
O	2.493437	-5.481075	0.842486
O	-2.737331	-4.479871	-0.993092
C	-3.416110	-5.356026	-1.884752
H	-4.284447	-4.790496	-2.273124
H	-3.793352	-6.268513	-1.373310
H	-2.766716	-5.658187	-2.734702
C	3.264581	-4.546999	1.588030
H	4.136519	-5.107564	1.974995
H	2.690439	-4.131473	2.443843
H	3.636177	-3.712085	0.955140
C	-1.009848	-2.314326	-0.367068
S	1.459936	-2.295487	0.517386
C	-0.000000	-1.435180	-0.000000
H	-1.997308	-1.993211	-0.721689
H	-0.230945	-9.615985	-0.132444
C	0.000000	0.000000	0.000000
S	0.158383	0.885376	1.510732
C	0.430876	2.436951	0.727629
C	0.157682	0.894430	-1.064665
C	0.397351	2.262384	-0.678287
C	0.147783	0.828765	-2.486150
C	0.367291	2.074406	-3.106916
S	0.580633	3.303533	-1.965735
C	0.416083	2.324204	-4.559972
O	0.256921	1.404367	-5.350277
O	0.642094	3.587338	-5.004375
F	-0.041828	-0.269113	-3.246290
C	0.714377	3.938827	-6.334976
H	0.906844	5.026898	-6.370268
H	-0.230661	3.710099	-6.875609
H	1.531918	3.398681	-6.861878
H	0.590699	3.342984	1.321510
$end

$rem
JOBTYPE		SP
EXCHANGE	HF
CORRELATION	pRIMP2
BASIS		cc-pvtz
METHOD		rimp2
AUX_BASIS	rimp2-cc-pvtz
SOLVENT_METHOD	PCM
PURECART	11111
SYMMETRY	false
MEM_TOTAL	110000
SCF_CONVERGENCE = 6
THRESH=10
GUI = 2
$end



$solvent
dielectric 4.90
$end
--------------------------------------------------------------
 ----------------------------------------------------------------
             Standard Nuclear Orientation (Angstroms)
    I     Atom           X                Y                Z
 ----------------------------------------------------------------
    1      C      -0.2353060000    -8.5197410000    -0.1366470000
    2      C       0.7723340000    -7.6359670000     0.2213460000
    3      S      -1.7022860000    -7.6517400000    -0.6507460000
    4      C       0.4088070000    -6.2618940000     0.0907790000
    5      H       1.7614230000    -7.9547380000     0.5737540000
    6      C      -0.9328760000    -6.0799850000    -0.3977350000
    7      C      -1.4790690000    -4.7983820000    -0.5681660000
    8      C       1.2412040000    -5.1535420000     0.4183470000
    9      C       0.6932060000    -3.8696260000     0.2518520000
   10      C      -0.6489210000    -3.6889270000    -0.2398720000
   11      O       2.4934370000    -5.4810750000     0.8424860000
   12      O      -2.7373310000    -4.4798710000    -0.9930920000
   13      C      -3.4161100000    -5.3560260000    -1.8847520000
   14      H      -4.2844470000    -4.7904960000    -2.2731240000
   15      H      -3.7933520000    -6.2685130000    -1.3733100000
   16      H      -2.7667160000    -5.6581870000    -2.7347020000
   17      C       3.2645810000    -4.5469990000     1.5880300000
   18      H       4.1365190000    -5.1075640000     1.9749950000
   19      H       2.6904390000    -4.1314730000     2.4438430000
   20      H       3.6361770000    -3.7120850000     0.9551400000
   21      C      -1.0098480000    -2.3143260000    -0.3670680000
   22      S       1.4599360000    -2.2954870000     0.5173860000
   23      C       0.0000000000    -1.4351800000     0.0000000000
   24      H      -1.9973080000    -1.9932110000    -0.7216890000
   25      H      -0.2309450000    -9.6159850000    -0.1324440000
   26      C       0.0000000000     0.0000000000     0.0000000000
   27      S       0.1583830000     0.8853760000     1.5107320000
   28      C       0.4308760000     2.4369510000     0.7276290000
   29      C       0.1576820000     0.8944300000    -1.0646650000
   30      C       0.3973510000     2.2623840000    -0.6782870000
   31      C       0.1477830000     0.8287650000    -2.4861500000
   32      C       0.3672910000     2.0744060000    -3.1069160000
   33      S       0.5806330000     3.3035330000    -1.9657350000
   34      C       0.4160830000     2.3242040000    -4.5599720000
   35      O       0.2569210000     1.4043670000    -5.3502770000
   36      O       0.6420940000     3.5873380000    -5.0043750000
   37      F      -0.0418280000    -0.2691130000    -3.2462900000
   38      C       0.7143770000     3.9388270000    -6.3349760000
   39      H       0.9068440000     5.0268980000    -6.3702680000
   40      H      -0.2306610000     3.7100990000    -6.8756090000
   41      H       1.5319180000     3.3986810000    -6.8618780000
   42      H       0.5906990000     3.3429840000     1.3215100000
 ----------------------------------------------------------------
 Nuclear Repulsion Energy =        3299.50780209 hartrees
 There are      119 alpha and      119 beta electrons
 Requested basis set is cc-pVTZ
 There are 376 shells and 1068 basis functions

 Total QAlloc Memory Limit 110000 MB
 Mega-Array Size       188 MB
 MEM_STATIC part       192 MB
 Discretize the solute cavity surface with Lebedev spheres
	Using 110 Lebedev grid points for each H atom
	Using 194 Lebedev grid points for other atoms
	Atomic van der Waals radii will be scaled by 1.20
 Remove points where switching function is < 1.0e-08
 Keep 2944 surface tesserae and discard 4112 interior tesserae
 Molecular Surface Area = 442.670 Angst**2
 Requested basis set is rimp2-cc-pVTZ
 There are 833 shells and 2903 basis functions
 A cutoff of  1.0D-10 yielded  31066 shell pairs
 There are    238562 function pairs (    309755 Cartesian)
 Smallest overlap matrix eigenvalue = 2.22E-05

 Scale SEOQF with 1.000000e-01/1.000000e-02/1.000000e-02

 Standard Electronic Orientation quadrupole field applied
 Nucleus-field energy     =     0.0000000340 hartrees
 Guess from superposition of atomic densities
 Warning:  Energy on first SCF cycle will be non-variational
 SAD guess density has 238.000000 electrons

 -----------------------------------------------------------------------
  General SCF calculation program by
  Eric Jon Sundstrom, Paul Horn, Yuezhi Mao, Dmitri Zuev, Alec White,
  David Stuck, Shaama M.S., Shane Yost, Joonho Lee, David Small,
  Daniel Levine, Susi Lehtola, Hugh Burton, Evgeny Epifanovsky,
  Bang C. Huynh
 -----------------------------------------------------------------------
 Hartree-Fock
 using 64 threads for integral computing
 -------------------------------------------------------
 OpenMP Integral computing Module                
 Release: version 1.0, May 2013, Q-Chem Inc. Pittsburgh 
 -------------------------------------------------------
 A restricted SCF calculation will be
 performed using DIIS
 SCF converges when DIIS error is below 1.0e-06
 ---------------------------------------
  Cycle       Energy         DIIS error
 ---------------------------------------
    1   -2765.5242310762      1.77e-02  
    2   -2753.8577156259      1.57e-03  
    3   -2754.1968844615      8.82e-04  
    4   -2754.2810800476      2.54e-04  
    5   -2754.2926884095      6.82e-05  
    6   -2754.2937583724      2.37e-05  
    7   -2754.2939942744      1.15e-05  
    8   -2754.2940720000      4.48e-06  
    9   -2754.2940878643      2.05e-06  
   10   -2754.2940902131      8.49e-07  Convergence criterion met
 ---------------------------------------
 SCF time:   CPU 6372.61s  wall 240.00s 

************** Final PCM Free Energy Summary **************
 G_electrostatic  =      -0.01986952 hartree =     -12.46831115 kcal/mol
 G_cavitation     =       0.00000000 hartree =       0.00000000 kcal/mol
 G_dispersion     =       0.00000000 hartree =       0.00000000 kcal/mol
 G_repulsion      =       0.00000000 hartree =       0.00000000 kcal/mol
 --------------------------------------------------
 Non-electrostatic Free Energy =       0.00000000 hartree =       0.00000000 kcal/mol
 Total                         =      -0.01986952 hartree =     -12.46831115 kcal/mol
 --------------------------------------------------
 SCF Energy (H0 + V/2)                       =   -2754.29409021 
 Solute Internal Energy (H0)                 =   -2754.27422069 
 Total Free Energy (H0 + V/2 + non-elec)     =   -2754.29409021 hartree
                                             = -1728345.62752808 kcal/mol
***********************************************************

 SCF   energy in the final basis set =    -2754.2940902131
 Total energy in the final basis set =    -2754.2940902131


 --------------------------------------------------------------
  Generalized many-body perturbation theory program
  by Joonho Lee, Fazle Rob, Xintian Feng, Evgeny Epifanovsky

 No regularization used 
 (reg. param. = 0.0000e+00)
  (P|Q)^-1/2 Time:  CPU 127.00 s  wall 2.77 s

 In RI-MP2 calculation: 
 # of frozen core orbitals: 45

 Components of the RIMP2 correlation energy:
        aaaa    correlation energy =        -0.6704698498 a.u.
        abab    correlation energy =        -3.7118180214 a.u.
        bbbb    correlation energy =        -0.6704698498 a.u.
        non-Brillouin singles      =        -0.0000000000 a.u.
        total same-spin energy     =        -1.3409396997 a.u.
        total opposite-spin energy =        -3.7118180214 a.u.

 Total  RIMP2   correlation energy =        -5.0527577211 a.u.
        RIMP2         total energy =     -2759.3468479342 a.u.

 RI-MP2 Energy Time:  CPU 2693.53 s  wall 44.04 s
 
 --------------------------------------------------------------
 
                    Orbital Energies (a.u.)
 --------------------------------------------------------------
 
 Alpha MOs
 -- Occupied --
-92.0158 -91.9944 -91.9906 -91.9866 -26.3337 -20.6120 -20.5926 -20.5917
-20.5500 -11.4102 -11.3771 -11.3195 -11.3188 -11.3093 -11.2972 -11.2960
-11.2939 -11.2932 -11.2884 -11.2874 -11.2869 -11.2859 -11.2842 -11.2829
-11.2804 -11.2609 -11.2598 -11.2588 -11.2502  -9.0141  -8.9984  -8.9910
 -8.9865  -6.6948  -6.6942  -6.6937  -6.6797  -6.6790  -6.6777  -6.6719
 -6.6712  -6.6702  -6.6675  -6.6669  -6.6660  -1.6466  -1.4717  -1.4168
 -1.4144  -1.3670  -1.2331  -1.1962  -1.1684  -1.1418  -1.0840  -1.0523
 -1.0473  -1.0275  -1.0026  -0.9933  -0.9712  -0.9615  -0.9506  -0.9382
 -0.8962  -0.8690  -0.8508  -0.8040  -0.7915  -0.7881  -0.7729  -0.7696
 -0.7583  -0.7328  -0.7180  -0.7149  -0.7016  -0.6887  -0.6832  -0.6784
 -0.6709  -0.6604  -0.6593  -0.6527  -0.6308  -0.6202  -0.6172  -0.6063
 -0.6019  -0.5944  -0.5841  -0.5789  -0.5677  -0.5633  -0.5560  -0.5500
 -0.5368  -0.5260  -0.5238  -0.5163  -0.5151  -0.5079  -0.5019  -0.4935
 -0.4906  -0.4838  -0.4761  -0.4696  -0.4618  -0.4610  -0.4609  -0.4093
 -0.3985  -0.3876  -0.3579  -0.3490  -0.3162  -0.2887  -0.2580
 -- Virtual --
  0.0262   0.0639   0.1136   0.1259   0.1379   0.1411   0.1501   0.1557
  0.1558   0.1608   0.1663   0.1749   0.1804   0.1824   0.1854   0.1920
  0.1965   0.2038   0.2098   0.2193   0.2202   0.2210   0.2245   0.2259
  0.2338   0.2359   0.2407   0.2522   0.2614   0.2681   0.2717   0.2805
  0.2853   0.3090   0.3223   0.3263   0.3333   0.3388   0.3405   0.3479
  0.3520   0.3557   0.3676   0.3708   0.3758   0.3802   0.3833   0.3855
  0.3882   0.3917   0.3964   0.4045   0.4073   0.4100   0.4179   0.4224
  0.4278   0.4293   0.4359   0.4402   0.4470   0.4477   0.4514   0.4551
  0.4613   0.4615   0.4653   0.4716   0.4755   0.4786   0.4813   0.4913
  0.4939   0.4966   0.5009   0.5096   0.5111   0.5126   0.5179   0.5193
  0.5265   0.5336   0.5379   0.5424   0.5474   0.5481   0.5508   0.5556
  0.5564   0.5594   0.5657   0.5688   0.5697   0.5771   0.5782   0.5827
  0.5839   0.5872   0.5928   0.5966   0.5994   0.6041   0.6072   0.6095
  0.6146   0.6189   0.6199   0.6251   0.6262   0.6277   0.6287   0.6366
  0.6393   0.6406   0.6458   0.6467   0.6531   0.6555   0.6570   0.6614
  0.6755   0.6799   0.6824   0.6848   0.6891   0.6904   0.6944   0.6975
  0.7090   0.7132   0.7177   0.7209   0.7243   0.7436   0.7442   0.7517
  0.7547   0.7675   0.7697   0.7749   0.7827   0.7900   0.7954   0.7996
  0.8018   0.8106   0.8140   0.8175   0.8213   0.8273   0.8298   0.8432
  0.8510   0.8573   0.8616   0.8625   0.8714   0.8807   0.8879   0.8939
  0.8990   0.9018   0.9025   0.9073   0.9131   0.9188   0.9222   0.9260
  0.9326   0.9363   0.9382   0.9454   0.9511   0.9581   0.9615   0.9672
  0.9746   0.9777   0.9810   0.9848   0.9924   0.9952   0.9997   1.0022
  1.0064   1.0092   1.0118   1.0163   1.0220   1.0258   1.0327   1.0366
  1.0422   1.0512   1.0533   1.0604   1.0633   1.0698   1.0739   1.0772
  1.0800   1.0817   1.0894   1.0930   1.0958   1.1018   1.1100   1.1142
  1.1145   1.1297   1.1362   1.1392   1.1410   1.1463   1.1556   1.1614
  1.1630   1.1679   1.1774   1.1793   1.1824   1.1846   1.1889   1.1912
  1.2002   1.2029   1.2090   1.2118   1.2177   1.2207   1.2221   1.2291
  1.2339   1.2443   1.2457   1.2522   1.2567   1.2659   1.2719   1.2733
  1.2745   1.2810   1.2901   1.2991   1.3067   1.3090   1.3151   1.3228
  1.3281   1.3299   1.3415   1.3467   1.3508   1.3528   1.3601   1.3721
  1.3755   1.3786   1.3877   1.3945   1.4018   1.4101   1.4190   1.4243
  1.4324   1.4356   1.4469   1.4592   1.4705   1.4757   1.4857   1.4889
  1.4900   1.4972   1.5016   1.5032   1.5091   1.5128   1.5229   1.5279
  1.5296   1.5372   1.5430   1.5472   1.5476   1.5551   1.5614   1.5667
  1.5747   1.5808   1.5859   1.5955   1.5996   1.6118   1.6235   1.6330
  1.6438   1.6488   1.6566   1.6572   1.6634   1.6671   1.6788   1.6800
  1.6837   1.6947   1.7009   1.7076   1.7254   1.7294   1.7360   1.7546
  1.7559   1.7710   1.7778   1.7811   1.7898   1.7978   1.8101   1.8198
  1.8290   1.8322   1.8378   1.8470   1.8568   1.8607   1.8660   1.8705
  1.8745   1.8804   1.9008   1.9053   1.9198   1.9230   1.9313   1.9352
  1.9409   1.9471   1.9506   1.9581   1.9629   1.9746   1.9756   1.9901
  2.0041   2.0138   2.0202   2.0264   2.0369   2.0402   2.0482   2.0539
  2.0652   2.0798   2.0906   2.0991   2.1091   2.1203   2.1306   2.1434
  2.1485   2.1568   2.1586   2.1669   2.1695   2.1784   2.1882   2.1913
  2.1966   2.2035   2.2104   2.2160   2.2253   2.2273   2.2356   2.2417
  2.2500   2.2554   2.2585   2.2750   2.2762   2.2786   2.2840   2.3030
  2.3053   2.3151   2.3204   2.3236   2.3319   2.3442   2.3522   2.3605
  2.3721   2.3837   2.3850   2.4003   2.4043   2.4199   2.4266   2.4294
  2.4359   2.4448   2.4555   2.4650   2.4729   2.4763   2.4924   2.4966
  2.5018   2.5160   2.5254   2.5295   2.5352   2.5508   2.5572   2.5647
  2.5725   2.5768   2.5824   2.5964   2.6003   2.6152   2.6167   2.6260
  2.6277   2.6347   2.6394   2.6448   2.6502   2.6611   2.6626   2.6748
  2.6797   2.6907   2.6938   2.6991   2.7006   2.7020   2.7096   2.7232
  2.7257   2.7365   2.7369   2.7379   2.7464   2.7491   2.7590   2.7707
  2.7775   2.7886   2.7913   2.7957   2.8021   2.8116   2.8137   2.8214
  2.8270   2.8363   2.8424   2.8466   2.8532   2.8627   2.8663   2.8718
  2.8789   2.8828   2.8868   2.8984   2.9029   2.9204   2.9227   2.9373
  2.9432   2.9510   2.9635   2.9703   2.9786   2.9847   2.9963   3.0044
  3.0085   3.0130   3.0186   3.0311   3.0345   3.0437   3.0439   3.0443
  3.0514   3.0647   3.0688   3.0803   3.0897   3.0940   3.0995   3.1048
  3.1052   3.1140   3.1187   3.1223   3.1266   3.1371   3.1476   3.1500
  3.1540   3.1624   3.1628   3.1697   3.1745   3.1756   3.1800   3.1875
  3.1933   3.1991   3.2022   3.2068   3.2126   3.2221   3.2246   3.2270
  3.2304   3.2418   3.2481   3.2502   3.2540   3.2608   3.2665   3.2731
  3.2747   3.2802   3.2812   3.2880   3.2900   3.2964   3.2975   3.3030
  3.3094   3.3119   3.3220   3.3281   3.3297   3.3362   3.3408   3.3445
  3.3487   3.3541   3.3566   3.3591   3.3629   3.3650   3.3681   3.3758
  3.3847   3.3877   3.3911   3.3936   3.3998   3.4045   3.4139   3.4167
  3.4189   3.4222   3.4327   3.4362   3.4422   3.4452   3.4509   3.4520
  3.4553   3.4607   3.4654   3.4704   3.4737   3.4840   3.4902   3.4935
  3.5070   3.5131   3.5187   3.5196   3.5285   3.5310   3.5319   3.5389
  3.5510   3.5559   3.5624   3.5695   3.5709   3.5717   3.5822   3.5848
  3.5889   3.5926   3.5990   3.5996   3.6044   3.6119   3.6180   3.6215
  3.6252   3.6342   3.6424   3.6479   3.6508   3.6538   3.6569   3.6620
  3.6664   3.6733   3.6768   3.6795   3.6801   3.6859   3.6962   3.7013
  3.7086   3.7100   3.7160   3.7233   3.7247   3.7266   3.7302   3.7387
  3.7463   3.7466   3.7499   3.7562   3.7578   3.7720   3.7733   3.7913
  3.7924   3.7960   3.8013   3.8112   3.8176   3.8218   3.8248   3.8336
  3.8350   3.8412   3.8511   3.8541   3.8569   3.8603   3.8727   3.8751
  3.8772   3.8920   3.8945   3.8991   3.9065   3.9114   3.9216   3.9268
  3.9307   3.9329   3.9551   3.9556   3.9684   3.9708   3.9743   3.9835
  3.9947   4.0030   4.0067   4.0107   4.0218   4.0257   4.0379   4.0401
  4.0469   4.0557   4.0598   4.0714   4.0807   4.0818   4.0863   4.0953
  4.1001   4.1095   4.1168   4.1297   4.1311   4.1429   4.1445   4.1541
  4.1643   4.1686   4.1729   4.1832   4.1879   4.1883   4.1949   4.2003
  4.2071   4.2109   4.2311   4.2375   4.2391   4.2558   4.2718   4.2750
  4.2816   4.2944   4.3082   4.3120   4.3166   4.3271   4.3406   4.3471
  4.3484   4.3666   4.3716   4.3754   4.3787   4.3914   4.3956   4.3978
  4.4073   4.4092   4.4109   4.4225   4.4237   4.4364   4.4375   4.4487
  4.4621   4.4660   4.4722   4.4891   4.4949   4.5005   4.5065   4.5114
  4.5275   4.5398   4.5476   4.5486   4.5573   4.5744   4.5856   4.5963
  4.6003   4.6046   4.6209   4.6334   4.6390   4.6400   4.6481   4.6544
  4.6629   4.6665   4.6725   4.6809   4.6813   4.7110   4.7161   4.7279
  4.7375   4.7423   4.7513   4.7607   4.7761   4.7921   4.8095   4.8108
  4.8172   4.8248   4.8320   4.8539   4.8703   4.8969   4.9104   4.9259
  4.9407   4.9430   4.9542   4.9627   4.9714   4.9804   4.9949   4.9980
  5.0091   5.0122   5.0174   5.0432   5.0465   5.0573   5.0693   5.0782
  5.0881   5.1241   5.1504   5.1594   5.1710   5.1793   5.1908   5.2032
  5.2067   5.2137   5.2212   5.2458   5.2556   5.2591   5.2720   5.2904
  5.2982   5.3092   5.3158   5.3298   5.3390   5.3547   5.3554   5.3651
  5.3748   5.3956   5.3967   5.3993   5.4242   5.4464   5.4606   5.4636
  5.4732   5.4788   5.4966   5.5061   5.5129   5.5194   5.5492   5.5633
  5.5742   5.5831   5.5915   5.6056   5.6178   5.6339   5.6377   5.6898
  5.7133   5.7352   5.7842   5.8010   5.8144   5.8296   5.8517   5.8553
  5.8722   5.8811   5.9221   5.9699   5.9737   5.9793   6.0007   6.0546
  6.0641   6.0892   6.1251   6.1338   6.1705   6.1753   6.1760   6.1859
  6.2342   6.2431   6.2676   6.2750   6.2922   6.3087   6.3170   6.3783
  6.4398   6.4465   6.4891   6.5187   6.5475   6.5554   6.5566   6.6528
  6.6624   6.6769   6.7066   6.7360   6.7426   6.7998   6.8420   6.8605
  6.8828   6.8919   6.9913   7.1197   7.1377   7.1786   7.2112   7.2154
  7.2333   7.3191   7.3266   7.3319   7.3737   7.3770   7.4283   7.4627
  7.4785   7.4870   7.4886   7.5196   7.5495   7.6105   7.7181   7.7708
  7.7965   7.8315   7.9033   7.9206   7.9472   8.0020   8.0983   8.1829
  8.5669   8.9292   9.0090   9.3637   9.5000   9.6942  10.2074  10.7213
 11.2379  11.5248  11.9209  11.9630  12.1267  12.1877  12.3004  12.5741
 12.7133  12.7213  12.9330  13.2363  13.2788  13.5777  13.8449  13.8989
 13.9247  14.0190  14.1808  14.5036  15.1939
 --------------------------------------------------------------
 
          Ground-State Mulliken Net Atomic Charges

     Atom                 Charge (a.u.)
  ----------------------------------------
      1 C                    -0.186867
      2 C                    -0.254891
      3 S                    -0.021217
      4 C                    -0.012652
      5 H                     0.196446
      6 C                    -0.027389
      7 C                     0.246641
      8 C                     0.239583
      9 C                    -0.044237
     10 C                    -0.030629
     11 O                    -0.333057
     12 O                    -0.339807
     13 C                    -0.085649
     14 H                     0.122903
     15 H                     0.090725
     16 H                     0.094805
     17 C                    -0.086734
     18 H                     0.124963
     19 H                     0.094362
     20 H                     0.090091
     21 C                    -0.214690
     22 S                     0.000256
     23 C                    -0.060907
     24 H                     0.196388
     25 H                     0.206673
     26 C                    -0.006557
     27 S                     0.115895
     28 C                    -0.237147
     29 C                    -0.086182
     30 C                    -0.004398
     31 C                     0.383687
     32 C                    -0.155322
     33 S                     0.037953
     34 C                     0.459845
     35 O                    -0.450050
     36 O                    -0.297789
     37 F                    -0.210701
     38 C                    -0.054942
     39 H                     0.116526
     40 H                     0.084485
     41 H                     0.084540
     42 H                     0.215047
  ----------------------------------------
  Sum of atomic charges =     0.000000

 -----------------------------------------------------------------
                    Cartesian Multipole Moments
 -----------------------------------------------------------------
    Charge (ESU x 10^10)
                 0.0000
    Dipole Moment (Debye)
         X       0.7427      Y       1.4394      Z       3.0317
       Tot       3.4372
    Quadrupole Moments (Debye-Ang)
        XX    -183.5538     XY       2.7249     YY    -158.5252
        XZ       9.7576     YZ      -8.8985     ZZ    -198.9776
    Octopole Moments (Debye-Ang^2)
       XXX     -52.8140    XXY     309.7380    XYY     -12.8194
       YYY     886.9072    XXZ     180.5972    XYZ     -67.3979
       YYZ     125.3174    XZZ      -1.4008    YZZ     472.7964
       ZZZ     578.3988
    Hexadecapole Moments (Debye-Ang^3)
      XXXX   -2173.4040   XXXY    -701.4522   XXYY   -3786.4657
      XYYY    -594.5537   YYYY  -18506.8500   XXXZ     -41.2136
      XXYZ     415.4503   XYYZ     197.7377   YYYZ    1038.5087
      XXZZ   -1316.3287   XYZZ    -121.1933   YYZZ   -4161.7331
      XZZZ    -288.6965   YZZZ     468.8428   ZZZZ   -5929.7041
 -----------------------------------------------------------------
 Total job time:  288.60s(wall), 9163.79s(cpu) 
 Sun Sep 24 17:11:59 2023

        *************************************************************
        *                                                           *
        *  Thank you very much for using Q-Chem.  Have a nice day.  *
        *                                                           *
        *************************************************************


0 sent ACK to 0 
now end server 0 ... 
cleanup process ... done
remove work dirs ./qchem3758209.0 -- ./qchem3758209.0
rm -rf ./qchem3758209.0
rm -rf ./qchem3758209
