You are running Q-Chem version: 5.4.0

#
# job setting
#
local host:  exp-4-01
current dir: /expanse/lustre/projects/csd626/rramji/aromodel/PTB7_fin/Rotation_Test
input file:  fin_bdt_Phi_40_Theta_140_fin_ftt.qcin
output file: 
nprocs     : 1
nthreads   : 64
#
# qchem installation setting
#
QC:          /cm/shared/apps/spack/cpu/opt/spack/linux-centos8-zen2/gcc-10.2.0/qchem-5.4-akfmr7b3t57bfs6qan3padb2wnb2i7cl
QCAUX:       /cm/shared/apps/spack/cpu/opt/spack/linux-centos8-zen2/gcc-10.2.0/qchem-5.4-akfmr7b3t57bfs6qan3padb2wnb2i7cl/qcaux
QCPROG:      /cm/shared/apps/spack/cpu/opt/spack/linux-centos8-zen2/gcc-10.2.0/qchem-5.4-akfmr7b3t57bfs6qan3padb2wnb2i7cl/exe/qcprog.exe
QCPROG_S:    /cm/shared/apps/spack/cpu/opt/spack/linux-centos8-zen2/gcc-10.2.0/qchem-5.4-akfmr7b3t57bfs6qan3padb2wnb2i7cl/exe/qcprog.exe_s
PARALLEL:    -DPARALLEL
QCMPI:       mpich
#
# qchem directory setting
#
qcrun:       qchem2992854
QCSCRATCH:   .
QCLOCALSCR:  
QCTMPDIR:    .
QCFILEPREF:  ./qchem2992854
QCSAVEDIR:   
workdirs:    ./qchem2992854
workdir0:    ./qchem2992854
partmpdirs =  
#
# parallel setting
#
QCRSH:           ssh
QCMPI:           mpich
QCMPIRUN:        /cm/shared/apps/spack/cpu/opt/spack/linux-centos8-zen2/gcc-10.2.0/qchem-5.4-akfmr7b3t57bfs6qan3padb2wnb2i7cl/bin/mpi/mpirun_qchem
QCMACHINEFILE:   ./qchem2992854/hostfile
exp-4-01

#
# env setting
#
exported envs:   QC QCAUX QCSCRATCH QCRUNNAME QCFILEPREF QCPROG QCPROG_S GUIFILE

Running Job 1 of 1 fin_bdt_Phi_40_Theta_140_fin_ftt.qcin
qchem fin_bdt_Phi_40_Theta_140_fin_ftt.qcin_2992854.0 ./qchem2992854/ 1
/cm/shared/apps/spack/cpu/opt/spack/linux-centos8-zen2/gcc-10.2.0/qchem-5.4-akfmr7b3t57bfs6qan3padb2wnb2i7cl/bin/mpi/mpirun_qchem -machinefile ./qchem2992854/hostfile -np 1 /cm/shared/apps/spack/cpu/opt/spack/linux-centos8-zen2/gcc-10.2.0/qchem-5.4-akfmr7b3t57bfs6qan3padb2wnb2i7cl/exe/qcprog.exe fin_bdt_Phi_40_Theta_140_fin_ftt.qcin_2992854.0 ./qchem2992854/

Process 0 of 1 is on exp-4-01 - thread support 0
initial socket setup ...start
initial socket setup ...done 
now start server 0 ... 
                  Welcome to Q-Chem
     A Quantum Leap Into The Future Of Chemistry


 Q-Chem 5.4, Q-Chem, Inc., Pleasanton, CA (2021)

 License issued to: University of California, San Diego (site)

 E. Epifanovsky,  A. T. B. Gilbert,  Xintian Feng,  Joonho Lee,  Yuezhi Mao,  
 N. Mardirossian,  P. Pokhilko,  A. White,  M. Wormit,  M. P. Coons,  
 A. L. Dempwolff,  Zhengting Gan,  D. Hait,  P. R. Horn,  L. D. Jacobson,  
 I. Kaliman,  J. Kussmann,  A. W. Lange,  Ka Un Lao,  D. S. Levine,  Jie Liu,  
 S. C. McKenzie,  A. F. Morrison,  K. Nanda,  F. Plasser,  D. R. Rehn,  
 M. L. Vidal,  Zhi-Qiang You,  Ying Zhu,  B. Alam,  B. Albrecht,  
 A. Aldossary,  E. Alguire,  J. H. Andersen,  D. Barton,  K. Begam,  A. Behn,  
 Y. A. Bernard,  E. J. Berquist,  H. Burton,  A. Carreras,  K. Carter-Fenk,  
 R. Chakraborty,  A. D. Chien,  K. D. Closser,  V. Cofer-Shabica,  
 S. Dasgupta,  Jia Deng,  M. de Wergifosse,  M. Diedenhofen,  Hainam Do,  
 S. Ehlert,  Po-Tung Fang,  S. Fatehi,  Qingguo Feng,  J. Gayvert,  
 Qinghui Ge,  G. Gidofalvi,  M. Goldey,  J. Gomes,  C. Gonzalez-Espinoza,  
 S. Gulania,  A. Gunina,  M. W. D. Hanson-Heine,  P. H. P. Harbach,  
 A. W. Hauser,  M. F. Herbst,  M. Hernandez Vera,  M. Hodecker,  
 Z. C. Holden,  S. Houck,  Xunkun Huang,  Kerwin Hui,  B. C. Huynh,  
 M. Ivanov,  Hyunjun Ji,  Hanjie Jiang,  B. Kaduk,  S. Kaehler,  
 K. Khistyaev,  Jaehoon Kim,  P. Klunzinger,  Z. Koczor-Benda,  
 Joong Hoon Koh,  D. Kosenkov,  L. Koulias,  T. Kowalczyk,  C. M. Krauter,  
 K. Kue,  A. Kunitsa,  T. Kus,  A. Landau,  K. V. Lawler,  D. Lefrancois,  
 S. Lehtola,  Rain Li,  Yi-Pei Li,  Jiashu Liang,  M. Liebenthal,  
 Hung-Hsuan Lin,  You-Sheng Lin,  Fenglai Liu,  Kuan-Yu Liu,  
 M. Loipersberger,  A. Luenser,  A. Manjanath,  P. Manohar,  E. Mansoor,  
 S. F. Manzer,  Shan-Ping Mao,  A. V. Marenich,  T. Markovich,  S. Mason,  
 S. A. Maurer,  P. F. McLaughlin,  M. F. S. J. Menger,  J.-M. Mewes,  
 S. A. Mewes,  P. Morgante,  J. W. Mullinax,  T. S. Nguyen-Beck,  
 K. J. Oosterbaan,  G. Paran,  Alexander C. Paul,  Suranjan K. Paul,  
 F. Pavosevic,  Zheng Pei,  S. Prager,  E. I. Proynov,  E. Ramos,  B. Rana,  
 A. E. Rask,  A. Rettig,  R. M. Richard,  F. Rob,  E. Rossomme,  T. Scheele,  
 M. Scheurer,  M. Schneider,  N. Sergueev,  S. M. Sharada,  W. Skomorowski,  
 D. W. Small,  C. J. Stein,  Yu-Chuan Su,  E. J. Sundstrom,  Zhen Tao,  
 J. Thirman,  T. Tsuchimochi,  N. M. Tubman,  S. P. Veccham,  O. Vydrov,  
 J. Wenzel,  J. Witte,  A. Yamada,  Kun Yao,  S. Yeganeh,  S. R. Yost,  
 A. Zech,  Igor Ying Zhang,  Xing Zhang,  Yu Zhang,  D. Zuev,  
 A. Aspuru-Guzik,  A. T. Bell,  N. A. Besley,  K. B. Bravaya,  B. R. Brooks,  
 D. Casanova,  Jeng-Da Chai,  S. Coriani,  C. J. Cramer,  
 A. E. DePrince, III,  R. A. DiStasio Jr.,  A. Dreuw,  B. D. Dunietz,  
 T. R. Furlani,  W. A. Goddard III,  S. Grimme,  S. Hammes-Schiffer,  
 T. Head-Gordon,  W. J. Hehre,  Chao-Ping Hsu,  T.-C. Jagau,  Yousung Jung,  
 A. Klamt,  Jing Kong,  D. S. Lambrecht,  WanZhen Liang,  N. J. Mayhall,  
 C. W. McCurdy,  J. B. Neaton,  C. Ochsenfeld,  J. A. Parkhill,  R. Peverati,  
 V. A. Rassolov,  Yihan Shao,  L. V. Slipchenko,  T. Stauch,  R. P. Steele,  
 J. E. Subotnik,  A. J. W. Thom,  A. Tkatchenko,  D. G. Truhlar,  
 T. Van Voorhis,  T. A. Wesolowski,  K. B. Whaley,  H. L. Woodcock III,  
 P. M. Zimmerman,  S. Faraji,  P. M. W. Gill,  M. Head-Gordon,  
 J. M. Herbert,  A. I. Krylov

 Contributors to earlier versions of Q-Chem not listed above: 
 R. D. Adamson,  B. Austin,  R. Baer,  J. Baker,  G. J. O. Beran,  
 K. Brandhorst,  S. T. Brown,  E. F. C. Byrd,  A. K. Chakraborty,  
 G. K. L. Chan,  Chun-Min Chang,  Yunqing Chen,  C.-L. Cheng,  
 Siu Hung Chien,  D. M. Chipman,  D. L. Crittenden,  H. Dachsel,  
 R. J. Doerksen,  A. D. Dutoi,  R. G. Edgar,  J. Fosso-Tande,  
 L. Fusti-Molnar,  D. Ghosh,  A. Ghysels,  A. Golubeva-Zadorozhnaya,  
 J. Gonthier,  M. S. Gordon,  S. R. Gwaltney,  G. Hawkins,  J. E. Herr,  
 A. Heyden,  S. Hirata,  E. G. Hohenstein,  G. Kedziora,  F. J. Keil,  
 C. Kelley,  Jihan Kim,  R. A. King,  R. Z. Khaliullin,  P. P. Korambath,  
 W. Kurlancheek,  A. Laurent,  A. M. Lee,  M. S. Lee,  S. V. Levchenko,  
 Ching Yeh Lin,  D. Liotard,  E. Livshits,  R. C. Lochan,  I. Lotan,  
 L. A. Martinez-Martinez,  P. E. Maslen,  N. Nair,  D. P. O'Neill,  
 D. Neuhauser,  E. Neuscamman,  C. M. Oana,  R. Olivares-Amaya,  R. Olson,  
 T. M. Perrine,  B. Peters,  P. A. Pieniazek,  A. Prociuk,  Y. M. Rhee,  
 J. Ritchie,  M. A. Rohrdanz,  E. Rosta,  N. J. Russ,  H. F. Schaefer III,  
 M. W. Schmidt,  N. E. Schultz,  S. Sharma,  N. Shenvi,  C. D. Sherrill,  
 A. C. Simmonett,  A. Sodt,  T. Stein,  D. Stuck,  K. S. Thanthiriwatte,  
 V. Vanovschi,  L. Vogt,  Tao Wang,  A. Warshel,  M. A. Watson,  
 C. F. Williams,  Q. Wu,  X. Xu,  Jun Yang,  W. Zhang,  Yan Zhao

 Please cite Q-Chem as follows:
 Y. Shao et al., Mol. Phys. 113, 184-215 (2015)
 DOI: 10.1080/00268976.2014.952696

 Q-Chem 5.4.0 for Intel X86 EM64T Linux

 Parts of Q-Chem use Armadillo 9.800.1 (Horizon Scraper).
 http://arma.sourceforge.net/

 Q-Chem begins on Sun Sep 24 17:25:38 2023  

 Host: 
0

     Scratch files written to ./qchem2992854//
 May1621 |scratch|qcdevops|jenkins|workspace|build_RNUM    
 Parallel job on  1  processors
 Processing $rem in /cm/shared/apps/spack/cpu/opt/spack/linux-centos8-zen2/gcc-10.2.0/qchem-5.4-akfmr7b3t57bfs6qan3padb2wnb2i7cl/config/preferences:
 Processing $rem in /home/rramji/.qchemrc:
 Symmetry turned off for PCM/SM12/SMD calculation
 Core orbitals will be frozen

 Checking the input file for inconsistencies... 	...done.

 Q-Chem warning in module forms1/BasisType.C, line 2236:

 You are not using the predefined 5D/6D in this basis set.


--------------------------------------------------------------
User input:
--------------------------------------------------------------
$molecule
0 1
C	-0.135457	-8.519741	-0.235993
C	0.558188	-7.635967	0.577858
S	-1.148850	-7.651740	-1.414705
C	0.308648	-6.261894	0.283020
H	1.238560	-7.954738	1.377597
C	-0.609026	-6.079985	-0.810887
C	-0.996828	-4.798382	-1.231581
C	0.865740	-5.153542	0.982901
C	0.474408	-3.869626	0.564713
C	-0.442046	-3.688927	-0.532196
O	1.738137	-5.481075	1.976332
O	-1.874052	-4.479871	-2.228709
C	-2.016062	-5.356026	-3.340298
H	-2.573877	-4.790496	-4.110807
H	-2.598484	-6.268513	-3.085998
H	-1.028695	-5.658187	-3.751679
C	2.033195	-4.546999	3.007565
H	2.594833	-5.107564	3.778655
H	1.108067	-4.131473	3.461650
H	2.671451	-3.712085	2.645264
C	-0.691020	-2.314326	-0.822814
S	1.005649	-2.295487	1.178037
C	-0.000000	-1.435180	-0.000000
H	-1.368875	-1.993211	-1.623656
H	-0.133782	-9.615985	-0.230172
C	0.000000	0.000000	0.000000
S	0.579852	0.687566	1.510732
C	1.591625	1.895024	0.727629
C	0.583771	0.695758	-1.064665
C	1.475308	1.760606	-0.678287
C	0.542366	0.643841	-2.486150
C	1.355286	1.612843	-3.106916
S	2.154609	2.570627	-1.965735
C	1.522440	1.804778	-4.559972
O	0.924684	1.087757	-5.350277
O	2.349739	2.785679	-5.004375
F	-0.170780	-0.212144	-3.246290
C	2.588082	3.053936	-6.334976
H	3.298799	3.899999	-6.370268
H	1.655291	3.328371	-6.875609
H	3.026021	2.177385	-6.861878
H	2.183053	2.599759	1.321510
$end

$rem
JOBTYPE		SP
EXCHANGE	HF
CORRELATION	pRIMP2
BASIS		cc-pvtz
METHOD		rimp2
AUX_BASIS	rimp2-cc-pvtz
SOLVENT_METHOD	PCM
PURECART	11111
SYMMETRY	false
MEM_TOTAL	110000
SCF_CONVERGENCE = 6
THRESH=10
GUI = 2
$end



$solvent
dielectric 4.90
$end
--------------------------------------------------------------
 ----------------------------------------------------------------
             Standard Nuclear Orientation (Angstroms)
    I     Atom           X                Y                Z
 ----------------------------------------------------------------
    1      C      -0.1354570000    -8.5197410000    -0.2359930000
    2      C       0.5581880000    -7.6359670000     0.5778580000
    3      S      -1.1488500000    -7.6517400000    -1.4147050000
    4      C       0.3086480000    -6.2618940000     0.2830200000
    5      H       1.2385600000    -7.9547380000     1.3775970000
    6      C      -0.6090260000    -6.0799850000    -0.8108870000
    7      C      -0.9968280000    -4.7983820000    -1.2315810000
    8      C       0.8657400000    -5.1535420000     0.9829010000
    9      C       0.4744080000    -3.8696260000     0.5647130000
   10      C      -0.4420460000    -3.6889270000    -0.5321960000
   11      O       1.7381370000    -5.4810750000     1.9763320000
   12      O      -1.8740520000    -4.4798710000    -2.2287090000
   13      C      -2.0160620000    -5.3560260000    -3.3402980000
   14      H      -2.5738770000    -4.7904960000    -4.1108070000
   15      H      -2.5984840000    -6.2685130000    -3.0859980000
   16      H      -1.0286950000    -5.6581870000    -3.7516790000
   17      C       2.0331950000    -4.5469990000     3.0075650000
   18      H       2.5948330000    -5.1075640000     3.7786550000
   19      H       1.1080670000    -4.1314730000     3.4616500000
   20      H       2.6714510000    -3.7120850000     2.6452640000
   21      C      -0.6910200000    -2.3143260000    -0.8228140000
   22      S       1.0056490000    -2.2954870000     1.1780370000
   23      C       0.0000000000    -1.4351800000     0.0000000000
   24      H      -1.3688750000    -1.9932110000    -1.6236560000
   25      H      -0.1337820000    -9.6159850000    -0.2301720000
   26      C       0.0000000000     0.0000000000     0.0000000000
   27      S       0.5798520000     0.6875660000     1.5107320000
   28      C       1.5916250000     1.8950240000     0.7276290000
   29      C       0.5837710000     0.6957580000    -1.0646650000
   30      C       1.4753080000     1.7606060000    -0.6782870000
   31      C       0.5423660000     0.6438410000    -2.4861500000
   32      C       1.3552860000     1.6128430000    -3.1069160000
   33      S       2.1546090000     2.5706270000    -1.9657350000
   34      C       1.5224400000     1.8047780000    -4.5599720000
   35      O       0.9246840000     1.0877570000    -5.3502770000
   36      O       2.3497390000     2.7856790000    -5.0043750000
   37      F      -0.1707800000    -0.2121440000    -3.2462900000
   38      C       2.5880820000     3.0539360000    -6.3349760000
   39      H       3.2987990000     3.8999990000    -6.3702680000
   40      H       1.6552910000     3.3283710000    -6.8756090000
   41      H       3.0260210000     2.1773850000    -6.8618780000
   42      H       2.1830530000     2.5997590000     1.3215100000
 ----------------------------------------------------------------
 Nuclear Repulsion Energy =        3338.23461081 hartrees
 There are      119 alpha and      119 beta electrons
 Requested basis set is cc-pVTZ
 There are 376 shells and 1068 basis functions

 Total QAlloc Memory Limit 110000 MB
 Mega-Array Size       188 MB
 MEM_STATIC part       192 MB
 Discretize the solute cavity surface with Lebedev spheres
	Using 110 Lebedev grid points for each H atom
	Using 194 Lebedev grid points for other atoms
	Atomic van der Waals radii will be scaled by 1.20
 Remove points where switching function is < 1.0e-08
 Keep 2871 surface tesserae and discard 4185 interior tesserae
 Molecular Surface Area = 435.218 Angst**2
 Requested basis set is rimp2-cc-pVTZ
 There are 833 shells and 2903 basis functions
 A cutoff of  1.0D-10 yielded  31747 shell pairs
 There are    243549 function pairs (    316099 Cartesian)
 Smallest overlap matrix eigenvalue = 2.20E-05

 Scale SEOQF with 1.000000e-01/1.000000e-02/1.000000e-02

 Standard Electronic Orientation quadrupole field applied
 Nucleus-field energy     =     0.0000000286 hartrees
 Guess from superposition of atomic densities
 Warning:  Energy on first SCF cycle will be non-variational
 SAD guess density has 238.000000 electrons

 -----------------------------------------------------------------------
  General SCF calculation program by
  Eric Jon Sundstrom, Paul Horn, Yuezhi Mao, Dmitri Zuev, Alec White,
  David Stuck, Shaama M.S., Shane Yost, Joonho Lee, David Small,
  Daniel Levine, Susi Lehtola, Hugh Burton, Evgeny Epifanovsky,
  Bang C. Huynh
 -----------------------------------------------------------------------
 Hartree-Fock
 using 64 threads for integral computing
 -------------------------------------------------------
 OpenMP Integral computing Module                
 Release: version 1.0, May 2013, Q-Chem Inc. Pittsburgh 
 -------------------------------------------------------
 A restricted SCF calculation will be
 performed using DIIS
 SCF converges when DIIS error is below 1.0e-06
 ---------------------------------------
  Cycle       Energy         DIIS error
 ---------------------------------------
    1   -2765.5944313441      1.77e-02  
    2   -2753.8275162104      1.58e-03  
    3   -2754.1682000343      8.88e-04  
    4   -2754.2537154635      2.55e-04  
    5   -2754.2654459215      6.87e-05  
    6   -2754.2665459840      2.43e-05  
    7   -2754.2667947461      1.17e-05  
    8   -2754.2668799459      4.68e-06  
    9   -2754.2668985470      2.17e-06  
   10   -2754.2669015348      9.83e-07  Convergence criterion met
 ---------------------------------------
 SCF time:   CPU 6404.51s  wall 231.00s 

************** Final PCM Free Energy Summary **************
 G_electrostatic  =      -0.02018175 hartree =     -12.66424147 kcal/mol
 G_cavitation     =       0.00000000 hartree =       0.00000000 kcal/mol
 G_dispersion     =       0.00000000 hartree =       0.00000000 kcal/mol
 G_repulsion      =       0.00000000 hartree =       0.00000000 kcal/mol
 --------------------------------------------------
 Non-electrostatic Free Energy =       0.00000000 hartree =       0.00000000 kcal/mol
 Total                         =      -0.02018175 hartree =     -12.66424147 kcal/mol
 --------------------------------------------------
 SCF Energy (H0 + V/2)                       =   -2754.26690153 
 Solute Internal Energy (H0)                 =   -2754.24671978 
 Total Free Energy (H0 + V/2 + non-elec)     =   -2754.26690153 hartree
                                             = -1728328.56637493 kcal/mol
***********************************************************

 SCF   energy in the final basis set =    -2754.2669015348
 Total energy in the final basis set =    -2754.2669015348


 --------------------------------------------------------------
  Generalized many-body perturbation theory program
  by Joonho Lee, Fazle Rob, Xintian Feng, Evgeny Epifanovsky

 No regularization used 
 (reg. param. = 0.0000e+00)
  (P|Q)^-1/2 Time:  CPU 128.47 s  wall 2.03 s

 In RI-MP2 calculation: 
 # of frozen core orbitals: 45

 Components of the RIMP2 correlation energy:
        aaaa    correlation energy =        -0.6730922474 a.u.
        abab    correlation energy =        -3.7182979776 a.u.
        bbbb    correlation energy =        -0.6730922474 a.u.
        non-Brillouin singles      =        -0.0000000000 a.u.
        total same-spin energy     =        -1.3461844947 a.u.
        total opposite-spin energy =        -3.7182979776 a.u.

 Total  RIMP2   correlation energy =        -5.0644824723 a.u.
        RIMP2         total energy =     -2759.3313840072 a.u.

 RI-MP2 Energy Time:  CPU 2720.28 s  wall 43.70 s
 
 --------------------------------------------------------------
 
                    Orbital Energies (a.u.)
 --------------------------------------------------------------
 
 Alpha MOs
 -- Occupied --
-92.0165 -92.0001 -91.9893 -91.9843 -26.3351 -20.6139 -20.5917 -20.5882
-20.5534 -11.4132 -11.3773 -11.3179 -11.3132 -11.3077 -11.3042 -11.2995
-11.2979 -11.2943 -11.2897 -11.2894 -11.2871 -11.2838 -11.2821 -11.2812
-11.2770 -11.2586 -11.2553 -11.2485 -11.2457  -9.0153  -9.0039  -8.9898
 -8.9842  -6.6960  -6.6953  -6.6950  -6.6851  -6.6845  -6.6832  -6.6707
 -6.6699  -6.6690  -6.6652  -6.6646  -6.6638  -1.6483  -1.4739  -1.4157
 -1.4111  -1.3696  -1.2386  -1.1938  -1.1691  -1.1435  -1.0831  -1.0505
 -1.0493  -1.0307  -1.0003  -0.9922  -0.9742  -0.9594  -0.9491  -0.9377
 -0.8948  -0.8727  -0.8474  -0.8030  -0.7953  -0.7869  -0.7726  -0.7694
 -0.7553  -0.7300  -0.7198  -0.7166  -0.6996  -0.6911  -0.6807  -0.6801
 -0.6743  -0.6610  -0.6579  -0.6506  -0.6281  -0.6181  -0.6153  -0.6090
 -0.6029  -0.5993  -0.5884  -0.5752  -0.5661  -0.5614  -0.5542  -0.5424
 -0.5369  -0.5285  -0.5207  -0.5162  -0.5153  -0.5090  -0.5037  -0.4939
 -0.4874  -0.4854  -0.4728  -0.4672  -0.4628  -0.4627  -0.4597  -0.4190
 -0.3955  -0.3833  -0.3555  -0.3508  -0.3204  -0.2885  -0.2483
 -- Virtual --
  0.0065   0.0751   0.1087   0.1253   0.1370   0.1466   0.1523   0.1551
  0.1570   0.1619   0.1640   0.1752   0.1821   0.1850   0.1886   0.1934
  0.2031   0.2072   0.2084   0.2164   0.2222   0.2226   0.2248   0.2253
  0.2325   0.2341   0.2455   0.2525   0.2582   0.2676   0.2748   0.2767
  0.2935   0.3011   0.3112   0.3219   0.3412   0.3435   0.3451   0.3470
  0.3538   0.3582   0.3625   0.3713   0.3760   0.3777   0.3844   0.3863
  0.3879   0.3904   0.3986   0.4032   0.4064   0.4113   0.4153   0.4225
  0.4253   0.4305   0.4341   0.4354   0.4424   0.4500   0.4511   0.4580
  0.4599   0.4643   0.4722   0.4764   0.4818   0.4877   0.4901   0.4931
  0.4951   0.4988   0.5033   0.5093   0.5129   0.5169   0.5207   0.5211
  0.5272   0.5331   0.5355   0.5396   0.5454   0.5480   0.5510   0.5556
  0.5609   0.5634   0.5661   0.5663   0.5712   0.5736   0.5767   0.5805
  0.5899   0.5916   0.5942   0.5975   0.6008   0.6039   0.6066   0.6130
  0.6156   0.6194   0.6217   0.6241   0.6296   0.6305   0.6340   0.6386
  0.6399   0.6433   0.6440   0.6473   0.6524   0.6538   0.6600   0.6712
  0.6777   0.6805   0.6823   0.6845   0.6864   0.6962   0.7002   0.7043
  0.7088   0.7166   0.7203   0.7266   0.7287   0.7398   0.7516   0.7549
  0.7609   0.7652   0.7697   0.7777   0.7801   0.7870   0.7926   0.7967
  0.8019   0.8068   0.8095   0.8197   0.8228   0.8271   0.8345   0.8440
  0.8521   0.8531   0.8591   0.8673   0.8732   0.8849   0.8888   0.8896
  0.8933   0.9017   0.9058   0.9120   0.9158   0.9201   0.9257   0.9306
  0.9337   0.9357   0.9380   0.9480   0.9535   0.9593   0.9600   0.9649
  0.9710   0.9777   0.9841   0.9866   0.9927   0.9950   1.0001   1.0031
  1.0053   1.0069   1.0127   1.0194   1.0222   1.0288   1.0359   1.0415
  1.0445   1.0495   1.0584   1.0608   1.0702   1.0735   1.0768   1.0787
  1.0809   1.0867   1.0948   1.0995   1.1000   1.1077   1.1102   1.1127
  1.1188   1.1273   1.1348   1.1381   1.1416   1.1494   1.1550   1.1593
  1.1641   1.1656   1.1689   1.1808   1.1848   1.1887   1.1921   1.1931
  1.1961   1.2019   1.2093   1.2125   1.2201   1.2228   1.2233   1.2351
  1.2371   1.2412   1.2447   1.2490   1.2571   1.2646   1.2711   1.2746
  1.2784   1.2902   1.2905   1.2944   1.3010   1.3111   1.3175   1.3243
  1.3283   1.3331   1.3387   1.3441   1.3477   1.3577   1.3626   1.3708
  1.3749   1.3768   1.3866   1.3904   1.3934   1.4100   1.4121   1.4214
  1.4285   1.4356   1.4411   1.4613   1.4669   1.4702   1.4823   1.4901
  1.4936   1.5031   1.5075   1.5090   1.5122   1.5173   1.5256   1.5282
  1.5298   1.5365   1.5382   1.5421   1.5504   1.5582   1.5616   1.5655
  1.5664   1.5840   1.5909   1.5990   1.6015   1.6106   1.6226   1.6336
  1.6366   1.6480   1.6558   1.6606   1.6632   1.6681   1.6739   1.6832
  1.6909   1.6960   1.7022   1.7084   1.7214   1.7328   1.7400   1.7431
  1.7556   1.7597   1.7692   1.7769   1.7938   1.7998   1.8087   1.8132
  1.8293   1.8302   1.8387   1.8443   1.8600   1.8626   1.8656   1.8713
  1.8756   1.8912   1.8941   1.9085   1.9164   1.9222   1.9278   1.9355
  1.9379   1.9506   1.9558   1.9620   1.9635   1.9713   1.9790   1.9935
  2.0014   2.0115   2.0197   2.0258   2.0284   2.0359   2.0467   2.0634
  2.0763   2.0944   2.1002   2.1099   2.1174   2.1218   2.1429   2.1455
  2.1538   2.1551   2.1640   2.1678   2.1689   2.1828   2.1899   2.1938
  2.1978   2.1991   2.2102   2.2173   2.2251   2.2352   2.2377   2.2427
  2.2439   2.2590   2.2618   2.2720   2.2763   2.2777   2.2847   2.2916
  2.2932   2.3107   2.3181   2.3263   2.3370   2.3452   2.3549   2.3625
  2.3696   2.3820   2.3840   2.3954   2.4052   2.4129   2.4190   2.4310
  2.4335   2.4456   2.4556   2.4595   2.4705   2.4714   2.4871   2.4922
  2.4983   2.5087   2.5265   2.5279   2.5389   2.5454   2.5544   2.5589
  2.5678   2.5794   2.5813   2.5910   2.6068   2.6162   2.6202   2.6213
  2.6271   2.6334   2.6376   2.6385   2.6457   2.6554   2.6625   2.6679
  2.6816   2.6898   2.6944   2.6971   2.7035   2.7083   2.7169   2.7186
  2.7267   2.7286   2.7360   2.7430   2.7480   2.7533   2.7630   2.7675
  2.7810   2.7883   2.7910   2.7988   2.8064   2.8107   2.8156   2.8212
  2.8317   2.8418   2.8444   2.8473   2.8543   2.8601   2.8726   2.8744
  2.8772   2.8845   2.8892   2.8979   2.9029   2.9054   2.9282   2.9389
  2.9538   2.9562   2.9609   2.9715   2.9778   2.9818   2.9944   3.0117
  3.0170   3.0208   3.0291   3.0329   3.0370   3.0391   3.0437   3.0456
  3.0552   3.0617   3.0765   3.0804   3.0890   3.0916   3.0918   3.1050
  3.1088   3.1126   3.1186   3.1226   3.1318   3.1380   3.1497   3.1511
  3.1587   3.1637   3.1718   3.1748   3.1791   3.1824   3.1887   3.1901
  3.1987   3.2013   3.2041   3.2074   3.2090   3.2177   3.2239   3.2308
  3.2357   3.2402   3.2480   3.2498   3.2511   3.2584   3.2672   3.2728
  3.2748   3.2789   3.2855   3.2910   3.2932   3.2983   3.3042   3.3089
  3.3122   3.3215   3.3247   3.3279   3.3393   3.3435   3.3460   3.3483
  3.3492   3.3558   3.3602   3.3613   3.3646   3.3686   3.3750   3.3793
  3.3843   3.3909   3.3930   3.3985   3.4070   3.4095   3.4161   3.4215
  3.4235   3.4284   3.4336   3.4433   3.4441   3.4471   3.4503   3.4546
  3.4632   3.4642   3.4687   3.4735   3.4814   3.4910   3.4938   3.4957
  3.5036   3.5046   3.5122   3.5214   3.5289   3.5330   3.5339   3.5381
  3.5422   3.5525   3.5619   3.5675   3.5751   3.5787   3.5811   3.5869
  3.5882   3.5910   3.5995   3.6044   3.6075   3.6167   3.6202   3.6215
  3.6348   3.6409   3.6451   3.6510   3.6534   3.6553   3.6621   3.6671
  3.6686   3.6756   3.6777   3.6838   3.6891   3.6932   3.7018   3.7074
  3.7086   3.7151   3.7202   3.7248   3.7295   3.7318   3.7359   3.7435
  3.7478   3.7510   3.7593   3.7647   3.7699   3.7777   3.7859   3.7926
  3.7957   3.8013   3.8172   3.8189   3.8193   3.8239   3.8287   3.8354
  3.8406   3.8444   3.8516   3.8548   3.8603   3.8635   3.8680   3.8707
  3.8771   3.8826   3.8929   3.9029   3.9117   3.9140   3.9232   3.9282
  3.9309   3.9378   3.9463   3.9540   3.9627   3.9674   3.9795   3.9913
  3.9953   4.0014   4.0070   4.0153   4.0247   4.0265   4.0340   4.0430
  4.0523   4.0568   4.0634   4.0696   4.0725   4.0858   4.0884   4.0913
  4.0972   4.1065   4.1184   4.1250   4.1314   4.1417   4.1475   4.1592
  4.1665   4.1712   4.1729   4.1809   4.1902   4.1921   4.2059   4.2093
  4.2166   4.2180   4.2326   4.2420   4.2432   4.2515   4.2635   4.2740
  4.2841   4.2996   4.3078   4.3153   4.3289   4.3371   4.3469   4.3523
  4.3575   4.3664   4.3757   4.3781   4.3835   4.3880   4.3946   4.3968
  4.4105   4.4123   4.4152   4.4190   4.4315   4.4355   4.4418   4.4574
  4.4599   4.4746   4.4909   4.4974   4.5020   4.5049   4.5128   4.5211
  4.5340   4.5359   4.5439   4.5537   4.5599   4.5731   4.5867   4.6053
  4.6092   4.6179   4.6256   4.6289   4.6315   4.6410   4.6441   4.6515
  4.6611   4.6651   4.6792   4.6829   4.6904   4.7023   4.7144   4.7202
  4.7349   4.7425   4.7493   4.7632   4.7796   4.7891   4.8056   4.8180
  4.8317   4.8370   4.8494   4.8583   4.8757   4.8896   4.9140   4.9249
  4.9363   4.9478   4.9545   4.9677   4.9711   4.9796   4.9979   5.0015
  5.0070   5.0108   5.0130   5.0330   5.0508   5.0584   5.0752   5.0762
  5.0932   5.1172   5.1271   5.1466   5.1635   5.1716   5.1885   5.1918
  5.1969   5.2159   5.2173   5.2436   5.2521   5.2577   5.2582   5.2731
  5.2978   5.3080   5.3150   5.3300   5.3423   5.3535   5.3542   5.3652
  5.3808   5.3898   5.3980   5.4014   5.4232   5.4265   5.4609   5.4656
  5.4722   5.4785   5.4963   5.5061   5.5119   5.5163   5.5386   5.5618
  5.5751   5.5814   5.5874   5.6070   5.6151   5.6326   5.6372   5.6707
  5.7178   5.7333   5.7836   5.7991   5.8155   5.8267   5.8427   5.8552
  5.8750   5.8857   5.9338   5.9672   5.9712   5.9764   5.9975   6.0395
  6.0614   6.0963   6.1179   6.1272   6.1324   6.1712   6.1793   6.1844
  6.2381   6.2488   6.2710   6.2742   6.3028   6.3070   6.3130   6.3677
  6.4296   6.4443   6.4814   6.5038   6.5491   6.5542   6.5586   6.6559
  6.6628   6.6743   6.6986   6.7300   6.7393   6.8016   6.8389   6.8577
  6.8803   6.8946   6.9875   7.1233   7.1387   7.1766   7.2088   7.2168
  7.2360   7.3225   7.3239   7.3323   7.3725   7.3753   7.4266   7.4608
  7.4799   7.4861   7.4908   7.5179   7.5464   7.6046   7.7143   7.7702
  7.7986   7.8294   7.9015   7.9231   7.9489   8.0045   8.0881   8.1703
  8.4990   8.9322   9.0188   9.3654   9.4975   9.6948  10.1517  10.5793
 11.2182  11.4270  11.9340  12.0436  12.1324  12.2436  12.3366  12.5727
 12.6656  12.7081  12.9574  13.2216  13.2899  13.6169  13.8474  13.8969
 13.9229  14.0265  14.1471  14.4863  15.2043
 --------------------------------------------------------------
 
          Ground-State Mulliken Net Atomic Charges

     Atom                 Charge (a.u.)
  ----------------------------------------
      1 C                    -0.193633
      2 C                    -0.254420
      3 S                    -0.024830
      4 C                    -0.019072
      5 H                     0.195530
      6 C                    -0.026018
      7 C                     0.234224
      8 C                     0.241415
      9 C                    -0.052545
     10 C                    -0.017193
     11 O                    -0.333156
     12 O                    -0.340321
     13 C                    -0.085458
     14 H                     0.122583
     15 H                     0.090128
     16 H                     0.093239
     17 C                    -0.087545
     18 H                     0.125293
     19 H                     0.094290
     20 H                     0.089028
     21 C                    -0.259538
     22 S                    -0.015561
     23 C                    -0.018653
     24 H                     0.192621
     25 H                     0.205420
     26 C                    -0.039232
     27 S                     0.100700
     28 C                    -0.192805
     29 C                    -0.046227
     30 C                    -0.020238
     31 C                     0.359726
     32 C                    -0.128502
     33 S                     0.055548
     34 C                     0.456337
     35 O                    -0.444780
     36 O                    -0.297435
     37 F                    -0.209833
     38 C                    -0.054628
     39 H                     0.117040
     40 H                     0.085056
     41 H                     0.085060
     42 H                     0.218389
  ----------------------------------------
  Sum of atomic charges =     0.000000

 -----------------------------------------------------------------
                    Cartesian Multipole Moments
 -----------------------------------------------------------------
    Charge (ESU x 10^10)
                 0.0000
    Dipole Moment (Debye)
         X       3.3707      Y       2.5482      Z       2.9941
       Tot       5.1788
    Quadrupole Moments (Debye-Ang)
        XX    -189.4376     XY       7.4943     YY    -170.2529
        XZ       2.3498     YZ      -8.1750     ZZ    -184.5686
    Octopole Moments (Debye-Ang^2)
       XXX    -291.6544    XXY     436.5653    XYY     -74.0299
       YYY    1024.8256    XXZ     170.9794    XYZ     -75.5380
       YYZ     150.7797    XZZ     -29.1613    YZZ     429.3726
       ZZZ     579.4649
    Hexadecapole Moments (Debye-Ang^3)
      XXXX   -2289.0353   XXXY    -944.6938   XXYY   -3855.8662
      XYYY    -901.1503   YYYY  -17967.0744   XXXZ     325.4024
      XXYZ     141.3321   XYYZ     297.5451   YYYZ     633.0671
      XXZZ   -1275.7353   XYZZ     -35.9429   YYZZ   -4054.6709
      XZZZ      10.9191   YZZZ     130.0724   ZZZZ   -6867.3583
 -----------------------------------------------------------------
 Total job time:  278.58s(wall), 9227.16s(cpu) 
 Sun Sep 24 17:30:16 2023

        *************************************************************
        *                                                           *
        *  Thank you very much for using Q-Chem.  Have a nice day.  *
        *                                                           *
        *************************************************************


0 sent ACK to 0 
now end server 0 ... 
cleanup process ... done
remove work dirs ./qchem2992854.0 -- ./qchem2992854.0
rm -rf ./qchem2992854.0
rm -rf ./qchem2992854
