You are running Q-Chem version: 5.4.0

#
# job setting
#
local host:  exp-8-26
current dir: /expanse/lustre/projects/csd626/rramji/aromodel/PTB7_fin/Rotation_Test
input file:  fin_bdt_Phi_5_Theta_30_fin_ftt.qcin
output file: 
nprocs     : 1
nthreads   : 64
#
# qchem installation setting
#
QC:          /cm/shared/apps/spack/cpu/opt/spack/linux-centos8-zen2/gcc-10.2.0/qchem-5.4-akfmr7b3t57bfs6qan3padb2wnb2i7cl
QCAUX:       /cm/shared/apps/spack/cpu/opt/spack/linux-centos8-zen2/gcc-10.2.0/qchem-5.4-akfmr7b3t57bfs6qan3padb2wnb2i7cl/qcaux
QCPROG:      /cm/shared/apps/spack/cpu/opt/spack/linux-centos8-zen2/gcc-10.2.0/qchem-5.4-akfmr7b3t57bfs6qan3padb2wnb2i7cl/exe/qcprog.exe
QCPROG_S:    /cm/shared/apps/spack/cpu/opt/spack/linux-centos8-zen2/gcc-10.2.0/qchem-5.4-akfmr7b3t57bfs6qan3padb2wnb2i7cl/exe/qcprog.exe_s
PARALLEL:    -DPARALLEL
QCMPI:       mpich
#
# qchem directory setting
#
qcrun:       qchem1184408
QCSCRATCH:   .
QCLOCALSCR:  
QCTMPDIR:    .
QCFILEPREF:  ./qchem1184408
QCSAVEDIR:   
workdirs:    ./qchem1184408
workdir0:    ./qchem1184408
partmpdirs =  
#
# parallel setting
#
QCRSH:           ssh
QCMPI:           mpich
QCMPIRUN:        /cm/shared/apps/spack/cpu/opt/spack/linux-centos8-zen2/gcc-10.2.0/qchem-5.4-akfmr7b3t57bfs6qan3padb2wnb2i7cl/bin/mpi/mpirun_qchem
QCMACHINEFILE:   ./qchem1184408/hostfile
exp-8-26

#
# env setting
#
exported envs:   QC QCAUX QCSCRATCH QCRUNNAME QCFILEPREF QCPROG QCPROG_S GUIFILE

Running Job 1 of 1 fin_bdt_Phi_5_Theta_30_fin_ftt.qcin
qchem fin_bdt_Phi_5_Theta_30_fin_ftt.qcin_1184408.0 ./qchem1184408/ 1
/cm/shared/apps/spack/cpu/opt/spack/linux-centos8-zen2/gcc-10.2.0/qchem-5.4-akfmr7b3t57bfs6qan3padb2wnb2i7cl/bin/mpi/mpirun_qchem -machinefile ./qchem1184408/hostfile -np 1 /cm/shared/apps/spack/cpu/opt/spack/linux-centos8-zen2/gcc-10.2.0/qchem-5.4-akfmr7b3t57bfs6qan3padb2wnb2i7cl/exe/qcprog.exe fin_bdt_Phi_5_Theta_30_fin_ftt.qcin_1184408.0 ./qchem1184408/

Process 0 of 1 is on exp-8-26 - thread support 0
initial socket setup ...start
initial socket setup ...done 
now start server 0 ... 
                  Welcome to Q-Chem
     A Quantum Leap Into The Future Of Chemistry


 Q-Chem 5.4, Q-Chem, Inc., Pleasanton, CA (2021)

 License issued to: University of California, San Diego (site)

 E. Epifanovsky,  A. T. B. Gilbert,  Xintian Feng,  Joonho Lee,  Yuezhi Mao,  
 N. Mardirossian,  P. Pokhilko,  A. White,  M. Wormit,  M. P. Coons,  
 A. L. Dempwolff,  Zhengting Gan,  D. Hait,  P. R. Horn,  L. D. Jacobson,  
 I. Kaliman,  J. Kussmann,  A. W. Lange,  Ka Un Lao,  D. S. Levine,  Jie Liu,  
 S. C. McKenzie,  A. F. Morrison,  K. Nanda,  F. Plasser,  D. R. Rehn,  
 M. L. Vidal,  Zhi-Qiang You,  Ying Zhu,  B. Alam,  B. Albrecht,  
 A. Aldossary,  E. Alguire,  J. H. Andersen,  D. Barton,  K. Begam,  A. Behn,  
 Y. A. Bernard,  E. J. Berquist,  H. Burton,  A. Carreras,  K. Carter-Fenk,  
 R. Chakraborty,  A. D. Chien,  K. D. Closser,  V. Cofer-Shabica,  
 S. Dasgupta,  Jia Deng,  M. de Wergifosse,  M. Diedenhofen,  Hainam Do,  
 S. Ehlert,  Po-Tung Fang,  S. Fatehi,  Qingguo Feng,  J. Gayvert,  
 Qinghui Ge,  G. Gidofalvi,  M. Goldey,  J. Gomes,  C. Gonzalez-Espinoza,  
 S. Gulania,  A. Gunina,  M. W. D. Hanson-Heine,  P. H. P. Harbach,  
 A. W. Hauser,  M. F. Herbst,  M. Hernandez Vera,  M. Hodecker,  
 Z. C. Holden,  S. Houck,  Xunkun Huang,  Kerwin Hui,  B. C. Huynh,  
 M. Ivanov,  Hyunjun Ji,  Hanjie Jiang,  B. Kaduk,  S. Kaehler,  
 K. Khistyaev,  Jaehoon Kim,  P. Klunzinger,  Z. Koczor-Benda,  
 Joong Hoon Koh,  D. Kosenkov,  L. Koulias,  T. Kowalczyk,  C. M. Krauter,  
 K. Kue,  A. Kunitsa,  T. Kus,  A. Landau,  K. V. Lawler,  D. Lefrancois,  
 S. Lehtola,  Rain Li,  Yi-Pei Li,  Jiashu Liang,  M. Liebenthal,  
 Hung-Hsuan Lin,  You-Sheng Lin,  Fenglai Liu,  Kuan-Yu Liu,  
 M. Loipersberger,  A. Luenser,  A. Manjanath,  P. Manohar,  E. Mansoor,  
 S. F. Manzer,  Shan-Ping Mao,  A. V. Marenich,  T. Markovich,  S. Mason,  
 S. A. Maurer,  P. F. McLaughlin,  M. F. S. J. Menger,  J.-M. Mewes,  
 S. A. Mewes,  P. Morgante,  J. W. Mullinax,  T. S. Nguyen-Beck,  
 K. J. Oosterbaan,  G. Paran,  Alexander C. Paul,  Suranjan K. Paul,  
 F. Pavosevic,  Zheng Pei,  S. Prager,  E. I. Proynov,  E. Ramos,  B. Rana,  
 A. E. Rask,  A. Rettig,  R. M. Richard,  F. Rob,  E. Rossomme,  T. Scheele,  
 M. Scheurer,  M. Schneider,  N. Sergueev,  S. M. Sharada,  W. Skomorowski,  
 D. W. Small,  C. J. Stein,  Yu-Chuan Su,  E. J. Sundstrom,  Zhen Tao,  
 J. Thirman,  T. Tsuchimochi,  N. M. Tubman,  S. P. Veccham,  O. Vydrov,  
 J. Wenzel,  J. Witte,  A. Yamada,  Kun Yao,  S. Yeganeh,  S. R. Yost,  
 A. Zech,  Igor Ying Zhang,  Xing Zhang,  Yu Zhang,  D. Zuev,  
 A. Aspuru-Guzik,  A. T. Bell,  N. A. Besley,  K. B. Bravaya,  B. R. Brooks,  
 D. Casanova,  Jeng-Da Chai,  S. Coriani,  C. J. Cramer,  
 A. E. DePrince, III,  R. A. DiStasio Jr.,  A. Dreuw,  B. D. Dunietz,  
 T. R. Furlani,  W. A. Goddard III,  S. Grimme,  S. Hammes-Schiffer,  
 T. Head-Gordon,  W. J. Hehre,  Chao-Ping Hsu,  T.-C. Jagau,  Yousung Jung,  
 A. Klamt,  Jing Kong,  D. S. Lambrecht,  WanZhen Liang,  N. J. Mayhall,  
 C. W. McCurdy,  J. B. Neaton,  C. Ochsenfeld,  J. A. Parkhill,  R. Peverati,  
 V. A. Rassolov,  Yihan Shao,  L. V. Slipchenko,  T. Stauch,  R. P. Steele,  
 J. E. Subotnik,  A. J. W. Thom,  A. Tkatchenko,  D. G. Truhlar,  
 T. Van Voorhis,  T. A. Wesolowski,  K. B. Whaley,  H. L. Woodcock III,  
 P. M. Zimmerman,  S. Faraji,  P. M. W. Gill,  M. Head-Gordon,  
 J. M. Herbert,  A. I. Krylov

 Contributors to earlier versions of Q-Chem not listed above: 
 R. D. Adamson,  B. Austin,  R. Baer,  J. Baker,  G. J. O. Beran,  
 K. Brandhorst,  S. T. Brown,  E. F. C. Byrd,  A. K. Chakraborty,  
 G. K. L. Chan,  Chun-Min Chang,  Yunqing Chen,  C.-L. Cheng,  
 Siu Hung Chien,  D. M. Chipman,  D. L. Crittenden,  H. Dachsel,  
 R. J. Doerksen,  A. D. Dutoi,  R. G. Edgar,  J. Fosso-Tande,  
 L. Fusti-Molnar,  D. Ghosh,  A. Ghysels,  A. Golubeva-Zadorozhnaya,  
 J. Gonthier,  M. S. Gordon,  S. R. Gwaltney,  G. Hawkins,  J. E. Herr,  
 A. Heyden,  S. Hirata,  E. G. Hohenstein,  G. Kedziora,  F. J. Keil,  
 C. Kelley,  Jihan Kim,  R. A. King,  R. Z. Khaliullin,  P. P. Korambath,  
 W. Kurlancheek,  A. Laurent,  A. M. Lee,  M. S. Lee,  S. V. Levchenko,  
 Ching Yeh Lin,  D. Liotard,  E. Livshits,  R. C. Lochan,  I. Lotan,  
 L. A. Martinez-Martinez,  P. E. Maslen,  N. Nair,  D. P. O'Neill,  
 D. Neuhauser,  E. Neuscamman,  C. M. Oana,  R. Olivares-Amaya,  R. Olson,  
 T. M. Perrine,  B. Peters,  P. A. Pieniazek,  A. Prociuk,  Y. M. Rhee,  
 J. Ritchie,  M. A. Rohrdanz,  E. Rosta,  N. J. Russ,  H. F. Schaefer III,  
 M. W. Schmidt,  N. E. Schultz,  S. Sharma,  N. Shenvi,  C. D. Sherrill,  
 A. C. Simmonett,  A. Sodt,  T. Stein,  D. Stuck,  K. S. Thanthiriwatte,  
 V. Vanovschi,  L. Vogt,  Tao Wang,  A. Warshel,  M. A. Watson,  
 C. F. Williams,  Q. Wu,  X. Xu,  Jun Yang,  W. Zhang,  Yan Zhao

 Please cite Q-Chem as follows:
 Y. Shao et al., Mol. Phys. 113, 184-215 (2015)
 DOI: 10.1080/00268976.2014.952696

 Q-Chem 5.4.0 for Intel X86 EM64T Linux

 Parts of Q-Chem use Armadillo 9.800.1 (Horizon Scraper).
 http://arma.sourceforge.net/

 Q-Chem begins on Tue Sep 26 17:37:55 2023  

 Host: 
0

     Scratch files written to ./qchem1184408//
 May1621 |scratch|qcdevops|jenkins|workspace|build_RNUM    
 Parallel job on  1  processors
 Processing $rem in /cm/shared/apps/spack/cpu/opt/spack/linux-centos8-zen2/gcc-10.2.0/qchem-5.4-akfmr7b3t57bfs6qan3padb2wnb2i7cl/config/preferences:
 Processing $rem in /home/rramji/.qchemrc:
 Symmetry turned off for PCM/SM12/SMD calculation
 Core orbitals will be frozen

 Checking the input file for inconsistencies... 	...done.

 Q-Chem warning in module forms1/BasisType.C, line 2236:

 You are not using the predefined 5D/6D in this basis set.


--------------------------------------------------------------
User input:
--------------------------------------------------------------
$molecule
0 1
C	-0.175432	-8.519741	0.208002
C	0.352097	-7.635967	-0.722164
S	-0.936458	-7.651740	1.563424
C	0.160388	-6.261894	-0.386833
H	0.870905	-7.954738	-1.635031
C	-0.553685	-6.079985	0.849637
C	-0.816372	-4.798382	1.357938
C	0.627524	-5.153542	-1.149702
C	0.368399	-3.869626	-0.638941
C	-0.348912	-3.688927	0.597409
O	1.262667	-5.481075	-2.309260
O	-1.453338	-4.479871	2.523296
C	-2.449320	-5.356026	3.036927
H	-2.982577	-4.790496	3.824632
H	-2.011155	-6.268513	3.497250
H	-3.173591	-5.658187	2.249807
C	2.130793	-4.546999	-2.939226
H	2.663289	-5.107564	-3.730721
H	2.873906	-4.131473	-2.225196
H	1.572045	-3.712085	-3.415077
C	-0.536849	-2.314326	0.930765
S	0.763041	-2.295487	-1.347913
C	0.000000	-1.435180	0.000000
H	-1.057554	-1.993211	1.841645
H	-0.170535	-9.615985	0.204438
C	0.000000	0.000000	0.000000
S	0.080615	0.895811	1.510732
C	0.216842	2.465231	0.727629
C	0.079127	0.904769	-1.064665
C	0.198659	2.288406	-0.678287
C	0.074988	0.838492	-2.486150
C	0.185097	2.098524	-3.106916
S	0.290501	3.341568	-1.965735
C	0.211932	2.351623	-4.559972
O	0.133545	1.421416	-5.350277
O	0.326994	3.629649	-5.004375
F	-0.018214	-0.271734	-3.246290
C	0.368367	3.986101	-6.334976
H	0.465270	5.086806	-6.370268
H	-0.553140	3.675878	-6.875609
H	1.229874	3.519263	-6.861878
H	0.297091	3.381746	1.321510
$end

$rem
JOBTYPE		SP
EXCHANGE	HF
CORRELATION	pRIMP2
BASIS		cc-pvtz
METHOD		rimp2
AUX_BASIS	rimp2-cc-pvtz
SOLVENT_METHOD	PCM
PURECART	11111
SYMMETRY	false
MEM_TOTAL	110000
SCF_CONVERGENCE = 6
THRESH=10
GUI = 2
$end



$solvent
dielectric 4.90
$end
--------------------------------------------------------------
 ----------------------------------------------------------------
             Standard Nuclear Orientation (Angstroms)
    I     Atom           X                Y                Z
 ----------------------------------------------------------------
    1      C      -0.1754320000    -8.5197410000     0.2080020000
    2      C       0.3520970000    -7.6359670000    -0.7221640000
    3      S      -0.9364580000    -7.6517400000     1.5634240000
    4      C       0.1603880000    -6.2618940000    -0.3868330000
    5      H       0.8709050000    -7.9547380000    -1.6350310000
    6      C      -0.5536850000    -6.0799850000     0.8496370000
    7      C      -0.8163720000    -4.7983820000     1.3579380000
    8      C       0.6275240000    -5.1535420000    -1.1497020000
    9      C       0.3683990000    -3.8696260000    -0.6389410000
   10      C      -0.3489120000    -3.6889270000     0.5974090000
   11      O       1.2626670000    -5.4810750000    -2.3092600000
   12      O      -1.4533380000    -4.4798710000     2.5232960000
   13      C      -2.4493200000    -5.3560260000     3.0369270000
   14      H      -2.9825770000    -4.7904960000     3.8246320000
   15      H      -2.0111550000    -6.2685130000     3.4972500000
   16      H      -3.1735910000    -5.6581870000     2.2498070000
   17      C       2.1307930000    -4.5469990000    -2.9392260000
   18      H       2.6632890000    -5.1075640000    -3.7307210000
   19      H       2.8739060000    -4.1314730000    -2.2251960000
   20      H       1.5720450000    -3.7120850000    -3.4150770000
   21      C      -0.5368490000    -2.3143260000     0.9307650000
   22      S       0.7630410000    -2.2954870000    -1.3479130000
   23      C       0.0000000000    -1.4351800000     0.0000000000
   24      H      -1.0575540000    -1.9932110000     1.8416450000
   25      H      -0.1705350000    -9.6159850000     0.2044380000
   26      C       0.0000000000     0.0000000000     0.0000000000
   27      S       0.0806150000     0.8958110000     1.5107320000
   28      C       0.2168420000     2.4652310000     0.7276290000
   29      C       0.0791270000     0.9047690000    -1.0646650000
   30      C       0.1986590000     2.2884060000    -0.6782870000
   31      C       0.0749880000     0.8384920000    -2.4861500000
   32      C       0.1850970000     2.0985240000    -3.1069160000
   33      S       0.2905010000     3.3415680000    -1.9657350000
   34      C       0.2119320000     2.3516230000    -4.5599720000
   35      O       0.1335450000     1.4214160000    -5.3502770000
   36      O       0.3269940000     3.6296490000    -5.0043750000
   37      F      -0.0182140000    -0.2717340000    -3.2462900000
   38      C       0.3683670000     3.9861010000    -6.3349760000
   39      H       0.4652700000     5.0868060000    -6.3702680000
   40      H      -0.5531400000     3.6758780000    -6.8756090000
   41      H       1.2298740000     3.5192630000    -6.8618780000
   42      H       0.2970910000     3.3817460000     1.3215100000
 ----------------------------------------------------------------
 Nuclear Repulsion Energy =        3315.09389655 hartrees
 There are      119 alpha and      119 beta electrons
 Requested basis set is cc-pVTZ
 There are 376 shells and 1068 basis functions

 Total QAlloc Memory Limit 110000 MB
 Mega-Array Size       188 MB
 MEM_STATIC part       192 MB
 Discretize the solute cavity surface with Lebedev spheres
	Using 110 Lebedev grid points for each H atom
	Using 194 Lebedev grid points for other atoms
	Atomic van der Waals radii will be scaled by 1.20
 Remove points where switching function is < 1.0e-08
 Keep 2862 surface tesserae and discard 4194 interior tesserae
 Molecular Surface Area = 434.733 Angst**2
 Requested basis set is rimp2-cc-pVTZ
 There are 833 shells and 2903 basis functions
 A cutoff of  1.0D-10 yielded  31284 shell pairs
 There are    240162 function pairs (    311822 Cartesian)
 Smallest overlap matrix eigenvalue = 2.16E-05

 Scale SEOQF with 1.000000e-01/1.000000e-02/1.000000e-02

 Standard Electronic Orientation quadrupole field applied
 Nucleus-field energy     =     0.0000000205 hartrees
 Guess from superposition of atomic densities
 Warning:  Energy on first SCF cycle will be non-variational
 SAD guess density has 238.000000 electrons

 -----------------------------------------------------------------------
  General SCF calculation program by
  Eric Jon Sundstrom, Paul Horn, Yuezhi Mao, Dmitri Zuev, Alec White,
  David Stuck, Shaama M.S., Shane Yost, Joonho Lee, David Small,
  Daniel Levine, Susi Lehtola, Hugh Burton, Evgeny Epifanovsky,
  Bang C. Huynh
 -----------------------------------------------------------------------
 Hartree-Fock
 using 64 threads for integral computing
 -------------------------------------------------------
 OpenMP Integral computing Module                
 Release: version 1.0, May 2013, Q-Chem Inc. Pittsburgh 
 -------------------------------------------------------
 A restricted SCF calculation will be
 performed using DIIS
 SCF converges when DIIS error is below 1.0e-06
 ---------------------------------------
  Cycle       Energy         DIIS error
 ---------------------------------------
    1   -2765.5482844742      1.77e-02  
    2   -2753.8576997678      1.57e-03  
    3   -2754.1973526913      8.85e-04  
    4   -2754.2823015241      2.55e-04  
    5   -2754.2940112938      6.82e-05  
    6   -2754.2951069527      2.39e-05  
    7   -2754.2953560951      1.17e-05  
    8   -2754.2954392256      4.56e-06  
    9   -2754.2954561136      1.93e-06  
   10   -2754.2954585416      8.21e-07  Convergence criterion met
 ---------------------------------------
 SCF time:   CPU 6377.05s  wall 231.00s 

************** Final PCM Free Energy Summary **************
 G_electrostatic  =      -0.01953158 hartree =     -12.25625151 kcal/mol
 G_cavitation     =       0.00000000 hartree =       0.00000000 kcal/mol
 G_dispersion     =       0.00000000 hartree =       0.00000000 kcal/mol
 G_repulsion      =       0.00000000 hartree =       0.00000000 kcal/mol
 --------------------------------------------------
 Non-electrostatic Free Energy =       0.00000000 hartree =       0.00000000 kcal/mol
 Total                         =      -0.01953158 hartree =     -12.25625151 kcal/mol
 --------------------------------------------------
 SCF Energy (H0 + V/2)                       =   -2754.29545854 
 Solute Internal Energy (H0)                 =   -2754.27592696 
 Total Free Energy (H0 + V/2 + non-elec)     =   -2754.29545854 hartree
                                             = -1728346.48616717 kcal/mol
***********************************************************

 SCF   energy in the final basis set =    -2754.2954585416
 Total energy in the final basis set =    -2754.2954585416


 --------------------------------------------------------------
  Generalized many-body perturbation theory program
  by Joonho Lee, Fazle Rob, Xintian Feng, Evgeny Epifanovsky

 No regularization used 
 (reg. param. = 0.0000e+00)
  (P|Q)^-1/2 Time:  CPU 147.79 s  wall 2.47 s

 In RI-MP2 calculation: 
 # of frozen core orbitals: 45

 Components of the RIMP2 correlation energy:
        aaaa    correlation energy =        -0.6713722088 a.u.
        abab    correlation energy =        -3.7124354406 a.u.
        bbbb    correlation energy =        -0.6713722088 a.u.
        non-Brillouin singles      =        -0.0000000000 a.u.
        total same-spin energy     =        -1.3427444176 a.u.
        total opposite-spin energy =        -3.7124354406 a.u.

 Total  RIMP2   correlation energy =        -5.0551798582 a.u.
        RIMP2         total energy =     -2759.3506383998 a.u.

 RI-MP2 Energy Time:  CPU 2741.66 s  wall 44.71 s
 
 --------------------------------------------------------------
 
                    Orbital Energies (a.u.)
 --------------------------------------------------------------
 
 Alpha MOs
 -- Occupied --
-92.0155 -91.9947 -91.9877 -91.9865 -26.3344 -20.6118 -20.5922 -20.5917
-20.5496 -11.4100 -11.3781 -11.3189 -11.3187 -11.3136 -11.2971 -11.2968
-11.2965 -11.2925 -11.2884 -11.2865 -11.2864 -11.2861 -11.2841 -11.2818
-11.2802 -11.2617 -11.2596 -11.2593 -11.2501  -9.0138  -8.9987  -8.9884
 -8.9865  -6.6946  -6.6940  -6.6935  -6.6800  -6.6793  -6.6780  -6.6693
 -6.6686  -6.6676  -6.6674  -6.6668  -6.6660  -1.6488  -1.4716  -1.4160
 -1.4147  -1.3668  -1.2338  -1.1965  -1.1690  -1.1420  -1.0848  -1.0524
 -1.0477  -1.0282  -1.0026  -0.9937  -0.9720  -0.9610  -0.9502  -0.9383
 -0.8961  -0.8693  -0.8518  -0.8088  -0.7934  -0.7871  -0.7751  -0.7642
 -0.7584  -0.7328  -0.7194  -0.7165  -0.7007  -0.6884  -0.6839  -0.6784
 -0.6722  -0.6617  -0.6589  -0.6526  -0.6292  -0.6200  -0.6166  -0.6063
 -0.6018  -0.5946  -0.5874  -0.5731  -0.5701  -0.5647  -0.5584  -0.5526
 -0.5310  -0.5264  -0.5253  -0.5165  -0.5152  -0.5083  -0.5017  -0.4962
 -0.4878  -0.4835  -0.4785  -0.4668  -0.4613  -0.4612  -0.4593  -0.4213
 -0.3957  -0.3870  -0.3596  -0.3501  -0.3235  -0.2844  -0.2495
 -- Virtual --
  0.0132   0.0779   0.1139   0.1266   0.1362   0.1486   0.1496   0.1551
  0.1560   0.1600   0.1683   0.1742   0.1812   0.1839   0.1914   0.1939
  0.2046   0.2092   0.2099   0.2164   0.2204   0.2225   0.2241   0.2310
  0.2331   0.2370   0.2467   0.2574   0.2594   0.2706   0.2757   0.2883
  0.2947   0.3105   0.3237   0.3304   0.3378   0.3451   0.3500   0.3523
  0.3547   0.3612   0.3701   0.3721   0.3799   0.3820   0.3830   0.3862
  0.3893   0.3965   0.4026   0.4093   0.4105   0.4152   0.4186   0.4249
  0.4272   0.4371   0.4416   0.4446   0.4495   0.4504   0.4588   0.4601
  0.4605   0.4699   0.4711   0.4745   0.4786   0.4819   0.4873   0.4935
  0.4940   0.4989   0.5058   0.5121   0.5178   0.5194   0.5207   0.5268
  0.5273   0.5329   0.5386   0.5410   0.5431   0.5481   0.5523   0.5541
  0.5574   0.5607   0.5653   0.5673   0.5727   0.5750   0.5767   0.5830
  0.5867   0.5881   0.5928   0.5930   0.5997   0.6039   0.6106   0.6116
  0.6141   0.6183   0.6197   0.6220   0.6236   0.6272   0.6294   0.6348
  0.6387   0.6398   0.6435   0.6465   0.6507   0.6571   0.6649   0.6673
  0.6696   0.6774   0.6810   0.6890   0.6918   0.6949   0.7012   0.7069
  0.7138   0.7156   0.7226   0.7277   0.7341   0.7438   0.7465   0.7555
  0.7613   0.7674   0.7715   0.7788   0.7838   0.7977   0.7999   0.8004
  0.8103   0.8130   0.8157   0.8218   0.8311   0.8394   0.8448   0.8506
  0.8589   0.8646   0.8655   0.8735   0.8771   0.8863   0.8926   0.8951
  0.9006   0.9053   0.9097   0.9120   0.9137   0.9209   0.9241   0.9262
  0.9325   0.9363   0.9428   0.9489   0.9524   0.9572   0.9595   0.9667
  0.9736   0.9782   0.9800   0.9854   0.9928   0.9970   0.9995   1.0022
  1.0077   1.0124   1.0156   1.0242   1.0279   1.0303   1.0374   1.0409
  1.0425   1.0542   1.0569   1.0634   1.0690   1.0733   1.0763   1.0849
  1.0855   1.0880   1.0942   1.0970   1.1042   1.1093   1.1118   1.1183
  1.1233   1.1256   1.1339   1.1379   1.1456   1.1499   1.1523   1.1535
  1.1666   1.1692   1.1706   1.1783   1.1848   1.1901   1.1956   1.1977
  1.1989   1.2029   1.2097   1.2138   1.2204   1.2244   1.2265   1.2299
  1.2356   1.2411   1.2450   1.2539   1.2602   1.2647   1.2693   1.2727
  1.2805   1.2862   1.2941   1.3087   1.3102   1.3147   1.3227   1.3280
  1.3326   1.3351   1.3449   1.3460   1.3554   1.3594   1.3651   1.3720
  1.3776   1.3830   1.3925   1.3947   1.4029   1.4059   1.4125   1.4207
  1.4363   1.4376   1.4485   1.4664   1.4675   1.4722   1.4845   1.4883
  1.4936   1.4995   1.5044   1.5076   1.5087   1.5127   1.5164   1.5246
  1.5381   1.5394   1.5450   1.5467   1.5504   1.5537   1.5634   1.5661
  1.5669   1.5853   1.5915   1.5949   1.6013   1.6107   1.6250   1.6359
  1.6424   1.6507   1.6551   1.6599   1.6655   1.6690   1.6783   1.6866
  1.6879   1.6974   1.7075   1.7114   1.7154   1.7363   1.7391   1.7497
  1.7568   1.7675   1.7825   1.7860   1.7877   1.7952   1.8173   1.8202
  1.8308   1.8337   1.8393   1.8485   1.8549   1.8610   1.8660   1.8704
  1.8815   1.8876   1.8955   1.9042   1.9118   1.9218   1.9267   1.9366
  1.9415   1.9465   1.9562   1.9660   1.9682   1.9736   1.9798   1.9874
  2.0007   2.0017   2.0178   2.0280   2.0347   2.0429   2.0506   2.0584
  2.0747   2.0843   2.0947   2.1039   2.1090   2.1212   2.1388   2.1458
  2.1557   2.1570   2.1639   2.1666   2.1781   2.1807   2.1914   2.1928
  2.2024   2.2038   2.2161   2.2181   2.2314   2.2337   2.2446   2.2500
  2.2554   2.2566   2.2593   2.2726   2.2815   2.2825   2.2900   2.2984
  2.3032   2.3140   2.3218   2.3303   2.3428   2.3513   2.3566   2.3675
  2.3703   2.3828   2.3881   2.3941   2.4002   2.4058   2.4210   2.4272
  2.4324   2.4436   2.4501   2.4614   2.4659   2.4764   2.4856   2.4904
  2.5070   2.5188   2.5275   2.5297   2.5395   2.5538   2.5573   2.5710
  2.5762   2.5870   2.5933   2.5973   2.6034   2.6160   2.6178   2.6226
  2.6285   2.6373   2.6415   2.6457   2.6557   2.6652   2.6677   2.6692
  2.6776   2.6865   2.6900   2.6990   2.7026   2.7054   2.7098   2.7184
  2.7262   2.7303   2.7365   2.7399   2.7443   2.7458   2.7622   2.7659
  2.7779   2.7817   2.7891   2.7977   2.8026   2.8105   2.8184   2.8217
  2.8322   2.8373   2.8444   2.8538   2.8563   2.8637   2.8712   2.8755
  2.8775   2.8851   2.8866   2.8899   2.9064   2.9099   2.9231   2.9372
  2.9438   2.9530   2.9588   2.9634   2.9728   2.9809   2.9903   3.0053
  3.0085   3.0149   3.0183   3.0309   3.0342   3.0426   3.0442   3.0449
  3.0576   3.0605   3.0619   3.0812   3.0897   3.0934   3.0984   3.1035
  3.1058   3.1131   3.1161   3.1219   3.1343   3.1396   3.1410   3.1492
  3.1523   3.1577   3.1601   3.1635   3.1694   3.1743   3.1806   3.1826
  3.1907   3.1959   3.2061   3.2111   3.2154   3.2195   3.2254   3.2269
  3.2358   3.2441   3.2467   3.2481   3.2545   3.2583   3.2658   3.2730
  3.2748   3.2802   3.2835   3.2864   3.2896   3.2902   3.2936   3.2991
  3.3052   3.3074   3.3219   3.3287   3.3324   3.3336   3.3463   3.3495
  3.3531   3.3559   3.3589   3.3605   3.3620   3.3681   3.3733   3.3791
  3.3799   3.3808   3.3876   3.3903   3.3956   3.4004   3.4064   3.4138
  3.4217   3.4233   3.4344   3.4357   3.4412   3.4470   3.4489   3.4545
  3.4554   3.4600   3.4668   3.4764   3.4799   3.4846   3.4884   3.4981
  3.5048   3.5081   3.5159   3.5183   3.5242   3.5289   3.5323   3.5391
  3.5434   3.5515   3.5597   3.5658   3.5707   3.5743   3.5814   3.5850
  3.5880   3.5945   3.5966   3.6024   3.6046   3.6072   3.6167   3.6201
  3.6274   3.6326   3.6392   3.6509   3.6530   3.6532   3.6582   3.6590
  3.6654   3.6724   3.6810   3.6820   3.6851   3.6906   3.6918   3.7040
  3.7053   3.7093   3.7113   3.7204   3.7284   3.7302   3.7328   3.7384
  3.7410   3.7505   3.7547   3.7647   3.7695   3.7763   3.7780   3.7806
  3.7919   3.7979   3.8010   3.8062   3.8202   3.8250   3.8269   3.8313
  3.8425   3.8458   3.8495   3.8564   3.8584   3.8646   3.8695   3.8754
  3.8798   3.8883   3.8929   3.9026   3.9065   3.9136   3.9228   3.9265
  3.9365   3.9378   3.9484   3.9575   3.9673   3.9705   3.9783   3.9867
  3.9923   4.0001   4.0061   4.0118   4.0206   4.0252   4.0332   4.0389
  4.0441   4.0565   4.0599   4.0630   4.0721   4.0824   4.0859   4.0938
  4.1024   4.1067   4.1176   4.1229   4.1284   4.1430   4.1478   4.1588
  4.1622   4.1676   4.1723   4.1749   4.1846   4.1850   4.1893   4.2001
  4.2106   4.2139   4.2263   4.2384   4.2519   4.2619   4.2687   4.2804
  4.2876   4.3015   4.3059   4.3172   4.3227   4.3372   4.3439   4.3478
  4.3561   4.3582   4.3715   4.3769   4.3789   4.3922   4.4019   4.4035
  4.4097   4.4131   4.4161   4.4222   4.4308   4.4376   4.4429   4.4505
  4.4667   4.4749   4.4909   4.4932   4.4955   4.4990   4.5052   4.5180
  4.5258   4.5410   4.5422   4.5540   4.5577   4.5665   4.5821   4.5875
  4.5993   4.6087   4.6200   4.6271   4.6319   4.6414   4.6470   4.6514
  4.6574   4.6673   4.6694   4.6803   4.6944   4.6996   4.7114   4.7280
  4.7395   4.7477   4.7677   4.7731   4.7765   4.7881   4.8056   4.8070
  4.8217   4.8310   4.8427   4.8554   4.8706   4.8949   4.9119   4.9176
  4.9428   4.9475   4.9557   4.9619   4.9643   4.9862   4.9955   5.0023
  5.0077   5.0120   5.0319   5.0352   5.0508   5.0611   5.0671   5.0719
  5.0958   5.1121   5.1282   5.1537   5.1625   5.1738   5.1898   5.2013
  5.2088   5.2163   5.2260   5.2447   5.2542   5.2593   5.2808   5.2960
  5.3040   5.3109   5.3213   5.3321   5.3389   5.3553   5.3599   5.3616
  5.3777   5.3896   5.3957   5.4041   5.4096   5.4385   5.4634   5.4688
  5.4732   5.4794   5.4951   5.5092   5.5121   5.5288   5.5463   5.5655
  5.5730   5.5846   5.6008   5.6067   5.6181   5.6374   5.6470   5.6682
  5.7233   5.7345   5.8009   5.8013   5.8171   5.8339   5.8557   5.8701
  5.8765   5.8926   5.9385   5.9701   5.9766   5.9919   6.0022   6.0630
  6.0740   6.0945   6.1250   6.1338   6.1705   6.1738   6.1863   6.2024
  6.2399   6.2711   6.2749   6.2785   6.3021   6.3088   6.3257   6.4161
  6.4404   6.4595   6.4877   6.5289   6.5490   6.5567   6.5578   6.6530
  6.6686   6.6772   6.7049   6.7394   6.7489   6.8008   6.8451   6.8609
  6.8831   6.8929   6.9922   7.1189   7.1390   7.1787   7.2115   7.2163
  7.2335   7.3194   7.3270   7.3343   7.3740   7.3768   7.4301   7.4628
  7.4795   7.4862   7.4878   7.5213   7.5499   7.6157   7.7232   7.7695
  7.7968   7.8318   7.9057   7.9187   7.9479   8.0073   8.1072   8.2039
  8.6249   8.9393   9.0159   9.3659   9.5068   9.7069  10.2505  10.6873
 11.2583  11.3546  11.9330  11.9737  12.1309  12.2312  12.3851  12.5872
 12.6591  12.7772  12.9362  13.2500  13.2870  13.6040  13.8471  13.9087
 13.9821  14.0222  14.3194  14.5131  15.2062
 --------------------------------------------------------------
 
          Ground-State Mulliken Net Atomic Charges

     Atom                 Charge (a.u.)
  ----------------------------------------
      1 C                    -0.187153
      2 C                    -0.254369
      3 S                    -0.022622
      4 C                    -0.014238
      5 H                     0.196712
      6 C                    -0.029479
      7 C                     0.246318
      8 C                     0.240446
      9 C                    -0.042794
     10 C                    -0.019664
     11 O                    -0.333409
     12 O                    -0.339992
     13 C                    -0.085682
     14 H                     0.122443
     15 H                     0.091261
     16 H                     0.094505
     17 C                    -0.088713
     18 H                     0.125444
     19 H                     0.094133
     20 H                     0.091802
     21 C                    -0.255805
     22 S                    -0.009684
     23 C                     0.013297
     24 H                     0.192392
     25 H                     0.206657
     26 C                     0.009764
     27 S                     0.106842
     28 C                    -0.243302
     29 C                    -0.117295
     30 C                    -0.011255
     31 C                     0.382172
     32 C                    -0.144029
     33 S                     0.036450
     34 C                     0.461372
     35 O                    -0.451520
     36 O                    -0.298015
     37 F                    -0.208635
     38 C                    -0.055096
     39 H                     0.116627
     40 H                     0.084601
     41 H                     0.084276
     42 H                     0.215239
  ----------------------------------------
  Sum of atomic charges =     0.000000

 -----------------------------------------------------------------
                    Cartesian Multipole Moments
 -----------------------------------------------------------------
    Charge (ESU x 10^10)
                -0.0000
    Dipole Moment (Debye)
         X       0.1364      Y       1.4366      Z       2.9323
       Tot       3.2681
    Quadrupole Moments (Debye-Ang)
        XX    -189.9150     XY       2.8767     YY    -158.8496
        XZ     -13.7208     YZ      -9.7835     ZZ    -193.0219
    Octopole Moments (Debye-Ang^2)
       XXX     -17.8789    XXY     335.0590    XYY     -10.7048
       YYY     887.4662    XXZ     170.5849    XYZ      58.4656
       YYZ     119.8431    XZZ       3.8422    YZZ     442.0816
       ZZZ     518.1593
    Hexadecapole Moments (Debye-Ang^3)
      XXXX    -986.2993   XXXY    -438.8403   XXYY   -3759.5359
      XYYY    -343.3956   YYYY  -18592.7820   XXXZ     617.8008
      XXYZ     591.6170   XYYZ    -124.6770   YYYZ    1583.1101
      XXZZ   -1286.3744   XYZZ     -81.4788   YYZZ   -4198.6658
      XZZZ     495.4702   YZZZ    1135.9152   ZZZZ   -7119.1615
 -----------------------------------------------------------------
 Total job time:  279.80s(wall), 9224.23s(cpu) 
 Tue Sep 26 17:42:35 2023

        *************************************************************
        *                                                           *
        *  Thank you very much for using Q-Chem.  Have a nice day.  *
        *                                                           *
        *************************************************************


0 sent ACK to 0 
now end server 0 ... 
cleanup process ... done
remove work dirs ./qchem1184408.0 -- ./qchem1184408.0
rm -rf ./qchem1184408.0
rm -rf ./qchem1184408
