You are running Q-Chem version: 5.4.0

#
# job setting
#
local host:  exp-2-27
current dir: /expanse/lustre/projects/csd626/rramji/aromodel/PTB7_fin/Rotation_Test
input file:  fin_bdt_Phi_0_Theta_60_fin_ftt.qcin
output file: 
nprocs     : 1
nthreads   : 64
#
# qchem installation setting
#
QC:          /cm/shared/apps/spack/cpu/opt/spack/linux-centos8-zen2/gcc-10.2.0/qchem-5.4-akfmr7b3t57bfs6qan3padb2wnb2i7cl
QCAUX:       /cm/shared/apps/spack/cpu/opt/spack/linux-centos8-zen2/gcc-10.2.0/qchem-5.4-akfmr7b3t57bfs6qan3padb2wnb2i7cl/qcaux
QCPROG:      /cm/shared/apps/spack/cpu/opt/spack/linux-centos8-zen2/gcc-10.2.0/qchem-5.4-akfmr7b3t57bfs6qan3padb2wnb2i7cl/exe/qcprog.exe
QCPROG_S:    /cm/shared/apps/spack/cpu/opt/spack/linux-centos8-zen2/gcc-10.2.0/qchem-5.4-akfmr7b3t57bfs6qan3padb2wnb2i7cl/exe/qcprog.exe_s
PARALLEL:    -DPARALLEL
QCMPI:       mpich
#
# qchem directory setting
#
qcrun:       qchem36916
QCSCRATCH:   .
QCLOCALSCR:  
QCTMPDIR:    .
QCFILEPREF:  ./qchem36916
QCSAVEDIR:   
workdirs:    ./qchem36916
workdir0:    ./qchem36916
partmpdirs =  
#
# parallel setting
#
QCRSH:           ssh
QCMPI:           mpich
QCMPIRUN:        /cm/shared/apps/spack/cpu/opt/spack/linux-centos8-zen2/gcc-10.2.0/qchem-5.4-akfmr7b3t57bfs6qan3padb2wnb2i7cl/bin/mpi/mpirun_qchem
QCMACHINEFILE:   ./qchem36916/hostfile
exp-2-27

#
# env setting
#
exported envs:   QC QCAUX QCSCRATCH QCRUNNAME QCFILEPREF QCPROG QCPROG_S GUIFILE

Running Job 1 of 1 fin_bdt_Phi_0_Theta_60_fin_ftt.qcin
qchem fin_bdt_Phi_0_Theta_60_fin_ftt.qcin_36916.0 ./qchem36916/ 1
/cm/shared/apps/spack/cpu/opt/spack/linux-centos8-zen2/gcc-10.2.0/qchem-5.4-akfmr7b3t57bfs6qan3padb2wnb2i7cl/bin/mpi/mpirun_qchem -machinefile ./qchem36916/hostfile -np 1 /cm/shared/apps/spack/cpu/opt/spack/linux-centos8-zen2/gcc-10.2.0/qchem-5.4-akfmr7b3t57bfs6qan3padb2wnb2i7cl/exe/qcprog.exe fin_bdt_Phi_0_Theta_60_fin_ftt.qcin_36916.0 ./qchem36916/

Process 0 of 1 is on exp-2-27 - thread support 0
initial socket setup ...start
initial socket setup ...done 
now start server 0 ... 
                  Welcome to Q-Chem
     A Quantum Leap Into The Future Of Chemistry


 Q-Chem 5.4, Q-Chem, Inc., Pleasanton, CA (2021)

 License issued to: University of California, San Diego (site)

 E. Epifanovsky,  A. T. B. Gilbert,  Xintian Feng,  Joonho Lee,  Yuezhi Mao,  
 N. Mardirossian,  P. Pokhilko,  A. White,  M. Wormit,  M. P. Coons,  
 A. L. Dempwolff,  Zhengting Gan,  D. Hait,  P. R. Horn,  L. D. Jacobson,  
 I. Kaliman,  J. Kussmann,  A. W. Lange,  Ka Un Lao,  D. S. Levine,  Jie Liu,  
 S. C. McKenzie,  A. F. Morrison,  K. Nanda,  F. Plasser,  D. R. Rehn,  
 M. L. Vidal,  Zhi-Qiang You,  Ying Zhu,  B. Alam,  B. Albrecht,  
 A. Aldossary,  E. Alguire,  J. H. Andersen,  D. Barton,  K. Begam,  A. Behn,  
 Y. A. Bernard,  E. J. Berquist,  H. Burton,  A. Carreras,  K. Carter-Fenk,  
 R. Chakraborty,  A. D. Chien,  K. D. Closser,  V. Cofer-Shabica,  
 S. Dasgupta,  Jia Deng,  M. de Wergifosse,  M. Diedenhofen,  Hainam Do,  
 S. Ehlert,  Po-Tung Fang,  S. Fatehi,  Qingguo Feng,  J. Gayvert,  
 Qinghui Ge,  G. Gidofalvi,  M. Goldey,  J. Gomes,  C. Gonzalez-Espinoza,  
 S. Gulania,  A. Gunina,  M. W. D. Hanson-Heine,  P. H. P. Harbach,  
 A. W. Hauser,  M. F. Herbst,  M. Hernandez Vera,  M. Hodecker,  
 Z. C. Holden,  S. Houck,  Xunkun Huang,  Kerwin Hui,  B. C. Huynh,  
 M. Ivanov,  Hyunjun Ji,  Hanjie Jiang,  B. Kaduk,  S. Kaehler,  
 K. Khistyaev,  Jaehoon Kim,  P. Klunzinger,  Z. Koczor-Benda,  
 Joong Hoon Koh,  D. Kosenkov,  L. Koulias,  T. Kowalczyk,  C. M. Krauter,  
 K. Kue,  A. Kunitsa,  T. Kus,  A. Landau,  K. V. Lawler,  D. Lefrancois,  
 S. Lehtola,  Rain Li,  Yi-Pei Li,  Jiashu Liang,  M. Liebenthal,  
 Hung-Hsuan Lin,  You-Sheng Lin,  Fenglai Liu,  Kuan-Yu Liu,  
 M. Loipersberger,  A. Luenser,  A. Manjanath,  P. Manohar,  E. Mansoor,  
 S. F. Manzer,  Shan-Ping Mao,  A. V. Marenich,  T. Markovich,  S. Mason,  
 S. A. Maurer,  P. F. McLaughlin,  M. F. S. J. Menger,  J.-M. Mewes,  
 S. A. Mewes,  P. Morgante,  J. W. Mullinax,  T. S. Nguyen-Beck,  
 K. J. Oosterbaan,  G. Paran,  Alexander C. Paul,  Suranjan K. Paul,  
 F. Pavosevic,  Zheng Pei,  S. Prager,  E. I. Proynov,  E. Ramos,  B. Rana,  
 A. E. Rask,  A. Rettig,  R. M. Richard,  F. Rob,  E. Rossomme,  T. Scheele,  
 M. Scheurer,  M. Schneider,  N. Sergueev,  S. M. Sharada,  W. Skomorowski,  
 D. W. Small,  C. J. Stein,  Yu-Chuan Su,  E. J. Sundstrom,  Zhen Tao,  
 J. Thirman,  T. Tsuchimochi,  N. M. Tubman,  S. P. Veccham,  O. Vydrov,  
 J. Wenzel,  J. Witte,  A. Yamada,  Kun Yao,  S. Yeganeh,  S. R. Yost,  
 A. Zech,  Igor Ying Zhang,  Xing Zhang,  Yu Zhang,  D. Zuev,  
 A. Aspuru-Guzik,  A. T. Bell,  N. A. Besley,  K. B. Bravaya,  B. R. Brooks,  
 D. Casanova,  Jeng-Da Chai,  S. Coriani,  C. J. Cramer,  
 A. E. DePrince, III,  R. A. DiStasio Jr.,  A. Dreuw,  B. D. Dunietz,  
 T. R. Furlani,  W. A. Goddard III,  S. Grimme,  S. Hammes-Schiffer,  
 T. Head-Gordon,  W. J. Hehre,  Chao-Ping Hsu,  T.-C. Jagau,  Yousung Jung,  
 A. Klamt,  Jing Kong,  D. S. Lambrecht,  WanZhen Liang,  N. J. Mayhall,  
 C. W. McCurdy,  J. B. Neaton,  C. Ochsenfeld,  J. A. Parkhill,  R. Peverati,  
 V. A. Rassolov,  Yihan Shao,  L. V. Slipchenko,  T. Stauch,  R. P. Steele,  
 J. E. Subotnik,  A. J. W. Thom,  A. Tkatchenko,  D. G. Truhlar,  
 T. Van Voorhis,  T. A. Wesolowski,  K. B. Whaley,  H. L. Woodcock III,  
 P. M. Zimmerman,  S. Faraji,  P. M. W. Gill,  M. Head-Gordon,  
 J. M. Herbert,  A. I. Krylov

 Contributors to earlier versions of Q-Chem not listed above: 
 R. D. Adamson,  B. Austin,  R. Baer,  J. Baker,  G. J. O. Beran,  
 K. Brandhorst,  S. T. Brown,  E. F. C. Byrd,  A. K. Chakraborty,  
 G. K. L. Chan,  Chun-Min Chang,  Yunqing Chen,  C.-L. Cheng,  
 Siu Hung Chien,  D. M. Chipman,  D. L. Crittenden,  H. Dachsel,  
 R. J. Doerksen,  A. D. Dutoi,  R. G. Edgar,  J. Fosso-Tande,  
 L. Fusti-Molnar,  D. Ghosh,  A. Ghysels,  A. Golubeva-Zadorozhnaya,  
 J. Gonthier,  M. S. Gordon,  S. R. Gwaltney,  G. Hawkins,  J. E. Herr,  
 A. Heyden,  S. Hirata,  E. G. Hohenstein,  G. Kedziora,  F. J. Keil,  
 C. Kelley,  Jihan Kim,  R. A. King,  R. Z. Khaliullin,  P. P. Korambath,  
 W. Kurlancheek,  A. Laurent,  A. M. Lee,  M. S. Lee,  S. V. Levchenko,  
 Ching Yeh Lin,  D. Liotard,  E. Livshits,  R. C. Lochan,  I. Lotan,  
 L. A. Martinez-Martinez,  P. E. Maslen,  N. Nair,  D. P. O'Neill,  
 D. Neuhauser,  E. Neuscamman,  C. M. Oana,  R. Olivares-Amaya,  R. Olson,  
 T. M. Perrine,  B. Peters,  P. A. Pieniazek,  A. Prociuk,  Y. M. Rhee,  
 J. Ritchie,  M. A. Rohrdanz,  E. Rosta,  N. J. Russ,  H. F. Schaefer III,  
 M. W. Schmidt,  N. E. Schultz,  S. Sharma,  N. Shenvi,  C. D. Sherrill,  
 A. C. Simmonett,  A. Sodt,  T. Stein,  D. Stuck,  K. S. Thanthiriwatte,  
 V. Vanovschi,  L. Vogt,  Tao Wang,  A. Warshel,  M. A. Watson,  
 C. F. Williams,  Q. Wu,  X. Xu,  Jun Yang,  W. Zhang,  Yan Zhao

 Please cite Q-Chem as follows:
 Y. Shao et al., Mol. Phys. 113, 184-215 (2015)
 DOI: 10.1080/00268976.2014.952696

 Q-Chem 5.4.0 for Intel X86 EM64T Linux

 Parts of Q-Chem use Armadillo 9.800.1 (Horizon Scraper).
 http://arma.sourceforge.net/

 Q-Chem begins on Sun Sep 24 16:41:27 2023  

 Host: 
0

     Scratch files written to ./qchem36916//
 May1621 |scratch|qcdevops|jenkins|workspace|build_RNUM    
 Parallel job on  1  processors
 Processing $rem in /cm/shared/apps/spack/cpu/opt/spack/linux-centos8-zen2/gcc-10.2.0/qchem-5.4-akfmr7b3t57bfs6qan3padb2wnb2i7cl/config/preferences:
 Processing $rem in /home/rramji/.qchemrc:
 Symmetry turned off for PCM/SM12/SMD calculation
 Core orbitals will be frozen

 Checking the input file for inconsistencies... 	...done.

 Q-Chem warning in module forms1/BasisType.C, line 2236:

 You are not using the predefined 5D/6D in this basis set.


--------------------------------------------------------------
User input:
--------------------------------------------------------------
$molecule
0 1
C	-0.255929	-8.519741	0.092419
C	0.666007	-7.635967	-0.449364
S	-1.592708	-7.651740	0.885736
C	0.332317	-6.261894	-0.254813
H	1.571741	-7.954738	-0.980526
C	-0.904324	-6.079985	0.458965
C	-1.385968	-4.798382	0.767823
C	1.118303	-5.153542	-0.681909
C	0.638514	-3.869626	-0.369139
C	-0.600871	-3.688927	0.342916
O	2.248132	-5.481075	-1.368544
O	-2.520275	-4.479871	1.458570
C	-3.639637	-5.356026	1.405396
H	-4.495304	-4.790496	1.820940
H	-3.490336	-6.268513	2.023129
H	-3.873314	-5.658187	0.361595
C	3.314934	-4.546999	-1.480048
H	4.171837	-5.107564	-1.899255
H	3.601473	-4.131473	-0.490123
H	3.068969	-3.712085	-2.171521
C	-0.930308	-2.314326	0.537642
S	1.334769	-2.295487	-0.785807
C	0.000000	-1.435180	0.000000
H	-1.836691	-1.993211	1.066134
H	-0.249906	-9.615985	0.091781
C	0.000000	0.000000	0.000000
S	0.002233	0.899428	1.510732
C	0.001157	2.474749	0.727629
C	-0.000030	0.908223	-1.064665
C	-0.001545	2.297013	-0.678287
C	0.001624	0.841837	-2.486150
C	0.001494	2.106670	-3.106916
S	-0.001841	3.354171	-1.965735
C	0.006168	2.361146	-4.559972
O	0.009152	1.427646	-5.350277
O	0.009405	3.644337	-5.004375
F	0.005539	-0.272288	-3.246290
C	0.019554	4.003038	-6.334976
H	0.020155	5.108000	-6.370268
H	-0.871409	3.613681	-6.875609
H	0.918470	3.613062	-6.861878
H	0.001222	3.394771	1.321510
$end

$rem
JOBTYPE		SP
EXCHANGE	HF
CORRELATION	pRIMP2
BASIS		cc-pvtz
METHOD		rimp2
AUX_BASIS	rimp2-cc-pvtz
SOLVENT_METHOD	PCM
PURECART	11111
SYMMETRY	false
MEM_TOTAL	110000
SCF_CONVERGENCE = 6
THRESH=10
GUI = 2
$end



$solvent
dielectric 4.90
$end
--------------------------------------------------------------
 ----------------------------------------------------------------
             Standard Nuclear Orientation (Angstroms)
    I     Atom           X                Y                Z
 ----------------------------------------------------------------
    1      C      -0.2559290000    -8.5197410000     0.0924190000
    2      C       0.6660070000    -7.6359670000    -0.4493640000
    3      S      -1.5927080000    -7.6517400000     0.8857360000
    4      C       0.3323170000    -6.2618940000    -0.2548130000
    5      H       1.5717410000    -7.9547380000    -0.9805260000
    6      C      -0.9043240000    -6.0799850000     0.4589650000
    7      C      -1.3859680000    -4.7983820000     0.7678230000
    8      C       1.1183030000    -5.1535420000    -0.6819090000
    9      C       0.6385140000    -3.8696260000    -0.3691390000
   10      C      -0.6008710000    -3.6889270000     0.3429160000
   11      O       2.2481320000    -5.4810750000    -1.3685440000
   12      O      -2.5202750000    -4.4798710000     1.4585700000
   13      C      -3.6396370000    -5.3560260000     1.4053960000
   14      H      -4.4953040000    -4.7904960000     1.8209400000
   15      H      -3.4903360000    -6.2685130000     2.0231290000
   16      H      -3.8733140000    -5.6581870000     0.3615950000
   17      C       3.3149340000    -4.5469990000    -1.4800480000
   18      H       4.1718370000    -5.1075640000    -1.8992550000
   19      H       3.6014730000    -4.1314730000    -0.4901230000
   20      H       3.0689690000    -3.7120850000    -2.1715210000
   21      C      -0.9303080000    -2.3143260000     0.5376420000
   22      S       1.3347690000    -2.2954870000    -0.7858070000
   23      C       0.0000000000    -1.4351800000     0.0000000000
   24      H      -1.8366910000    -1.9932110000     1.0661340000
   25      H      -0.2499060000    -9.6159850000     0.0917810000
   26      C       0.0000000000     0.0000000000     0.0000000000
   27      S       0.0022330000     0.8994280000     1.5107320000
   28      C       0.0011570000     2.4747490000     0.7276290000
   29      C      -0.0000300000     0.9082230000    -1.0646650000
   30      C      -0.0015450000     2.2970130000    -0.6782870000
   31      C       0.0016240000     0.8418370000    -2.4861500000
   32      C       0.0014940000     2.1066700000    -3.1069160000
   33      S      -0.0018410000     3.3541710000    -1.9657350000
   34      C       0.0061680000     2.3611460000    -4.5599720000
   35      O       0.0091520000     1.4276460000    -5.3502770000
   36      O       0.0094050000     3.6443370000    -5.0043750000
   37      F       0.0055390000    -0.2722880000    -3.2462900000
   38      C       0.0195540000     4.0030380000    -6.3349760000
   39      H       0.0201550000     5.1080000000    -6.3702680000
   40      H      -0.8714090000     3.6136810000    -6.8756090000
   41      H       0.9184700000     3.6130620000    -6.8618780000
   42      H       0.0012220000     3.3947710000     1.3215100000
 ----------------------------------------------------------------
 Nuclear Repulsion Energy =        3302.03917506 hartrees
 There are      119 alpha and      119 beta electrons
 Requested basis set is cc-pVTZ
 There are 376 shells and 1068 basis functions

 Total QAlloc Memory Limit 110000 MB
 Mega-Array Size       188 MB
 MEM_STATIC part       192 MB
 Discretize the solute cavity surface with Lebedev spheres
	Using 110 Lebedev grid points for each H atom
	Using 194 Lebedev grid points for other atoms
	Atomic van der Waals radii will be scaled by 1.20
 Remove points where switching function is < 1.0e-08
 Keep 2908 surface tesserae and discard 4148 interior tesserae
 Molecular Surface Area = 440.519 Angst**2
 Requested basis set is rimp2-cc-pVTZ
 There are 833 shells and 2903 basis functions
 A cutoff of  1.0D-10 yielded  31050 shell pairs
 There are    238774 function pairs (    310187 Cartesian)
 Smallest overlap matrix eigenvalue = 2.21E-05

 Scale SEOQF with 1.000000e-01/1.000000e-02/1.000000e-02

 Standard Electronic Orientation quadrupole field applied
 Nucleus-field energy     =     0.0000000327 hartrees
 Guess from superposition of atomic densities
 Warning:  Energy on first SCF cycle will be non-variational
 SAD guess density has 238.000000 electrons

 -----------------------------------------------------------------------
  General SCF calculation program by
  Eric Jon Sundstrom, Paul Horn, Yuezhi Mao, Dmitri Zuev, Alec White,
  David Stuck, Shaama M.S., Shane Yost, Joonho Lee, David Small,
  Daniel Levine, Susi Lehtola, Hugh Burton, Evgeny Epifanovsky,
  Bang C. Huynh
 -----------------------------------------------------------------------
 Hartree-Fock
 using 64 threads for integral computing
 -------------------------------------------------------
 OpenMP Integral computing Module                
 Release: version 1.0, May 2013, Q-Chem Inc. Pittsburgh 
 -------------------------------------------------------
 A restricted SCF calculation will be
 performed using DIIS
 SCF converges when DIIS error is below 1.0e-06
 ---------------------------------------
  Cycle       Energy         DIIS error
 ---------------------------------------
    1   -2765.5243699826      1.77e-02  
    2   -2753.8603678256      1.57e-03  
    3   -2754.1994153346      8.83e-04  
    4   -2754.2838187358      2.54e-04  
    5   -2754.2954655631      6.82e-05  
    6   -2754.2965422882      2.37e-05  
    7   -2754.2967817532      1.16e-05  
    8   -2754.2968607960      4.52e-06  
    9   -2754.2968768834      2.08e-06  
   10   -2754.2968792774      8.56e-07  Convergence criterion met
 ---------------------------------------
 SCF time:   CPU 6461.48s  wall 253.00s 

************** Final PCM Free Energy Summary **************
 G_electrostatic  =      -0.02000403 hartree =     -12.55271584 kcal/mol
 G_cavitation     =       0.00000000 hartree =       0.00000000 kcal/mol
 G_dispersion     =       0.00000000 hartree =       0.00000000 kcal/mol
 G_repulsion      =       0.00000000 hartree =       0.00000000 kcal/mol
 --------------------------------------------------
 Non-electrostatic Free Energy =       0.00000000 hartree =       0.00000000 kcal/mol
 Total                         =      -0.02000403 hartree =     -12.55271584 kcal/mol
 --------------------------------------------------
 SCF Energy (H0 + V/2)                       =   -2754.29687928 
 Solute Internal Energy (H0)                 =   -2754.27687525 
 Total Free Energy (H0 + V/2 + non-elec)     =   -2754.29687928 hartree
                                             = -1728347.37769234 kcal/mol
***********************************************************

 SCF   energy in the final basis set =    -2754.2968792774
 Total energy in the final basis set =    -2754.2968792774


 --------------------------------------------------------------
  Generalized many-body perturbation theory program
  by Joonho Lee, Fazle Rob, Xintian Feng, Evgeny Epifanovsky

 No regularization used 
 (reg. param. = 0.0000e+00)
  (P|Q)^-1/2 Time:  CPU 202.93 s  wall 3.40 s

 In RI-MP2 calculation: 
 # of frozen core orbitals: 45

 Components of the RIMP2 correlation energy:
        aaaa    correlation energy =        -0.6705836754 a.u.
        abab    correlation energy =        -3.7115102000 a.u.
        bbbb    correlation energy =        -0.6705836754 a.u.
        non-Brillouin singles      =        -0.0000000000 a.u.
        total same-spin energy     =        -1.3411673507 a.u.
        total opposite-spin energy =        -3.7115102000 a.u.

 Total  RIMP2   correlation energy =        -5.0526775507 a.u.
        RIMP2         total energy =     -2759.3495568282 a.u.

 RI-MP2 Energy Time:  CPU 2670.83 s  wall 45.47 s
 
 --------------------------------------------------------------
 
                    Orbital Energies (a.u.)
 --------------------------------------------------------------
 
 Alpha MOs
 -- Occupied --
-92.0167 -91.9943 -91.9898 -91.9868 -26.3337 -20.6117 -20.5923 -20.5922
-20.5495 -11.4099 -11.3773 -11.3194 -11.3191 -11.3113 -11.2964 -11.2963
-11.2949 -11.2924 -11.2883 -11.2870 -11.2868 -11.2865 -11.2844 -11.2820
-11.2805 -11.2615 -11.2599 -11.2599 -11.2502  -9.0147  -8.9983  -8.9901
 -8.9867  -6.6954  -6.6948  -6.6944  -6.6796  -6.6789  -6.6776  -6.6711
 -6.6704  -6.6694  -6.6677  -6.6670  -6.6662  -1.6468  -1.4715  -1.4165
 -1.4149  -1.3667  -1.2330  -1.1965  -1.1686  -1.1417  -1.0844  -1.0525
 -1.0472  -1.0276  -1.0027  -0.9935  -0.9712  -0.9615  -0.9506  -0.9385
 -0.8961  -0.8689  -0.8512  -0.8067  -0.7904  -0.7882  -0.7747  -0.7664
 -0.7587  -0.7330  -0.7180  -0.7149  -0.7012  -0.6883  -0.6836  -0.6782
 -0.6709  -0.6608  -0.6593  -0.6529  -0.6306  -0.6204  -0.6171  -0.6061
 -0.6018  -0.5941  -0.5849  -0.5767  -0.5690  -0.5659  -0.5569  -0.5523
 -0.5328  -0.5263  -0.5251  -0.5163  -0.5142  -0.5081  -0.5013  -0.4961
 -0.4899  -0.4839  -0.4767  -0.4680  -0.4616  -0.4610  -0.4597  -0.4123
 -0.3989  -0.3871  -0.3580  -0.3495  -0.3188  -0.2868  -0.2565
 -- Virtual --
  0.0240   0.0676   0.1166   0.1241   0.1341   0.1446   0.1492   0.1551
  0.1560   0.1598   0.1683   0.1692   0.1815   0.1842   0.1890   0.1917
  0.2026   0.2041   0.2103   0.2179   0.2200   0.2216   0.2235   0.2288
  0.2338   0.2346   0.2430   0.2536   0.2599   0.2680   0.2716   0.2818
  0.2882   0.3095   0.3196   0.3294   0.3344   0.3392   0.3465   0.3476
  0.3522   0.3594   0.3701   0.3711   0.3750   0.3809   0.3827   0.3851
  0.3890   0.3955   0.4018   0.4047   0.4080   0.4136   0.4168   0.4222
  0.4243   0.4328   0.4399   0.4413   0.4496   0.4507   0.4522   0.4538
  0.4568   0.4664   0.4688   0.4733   0.4763   0.4791   0.4852   0.4881
  0.4938   0.4966   0.5060   0.5073   0.5110   0.5184   0.5217   0.5228
  0.5260   0.5325   0.5357   0.5398   0.5430   0.5476   0.5520   0.5541
  0.5561   0.5590   0.5630   0.5679   0.5692   0.5716   0.5782   0.5819
  0.5848   0.5876   0.5920   0.5974   0.5992   0.6030   0.6060   0.6085
  0.6128   0.6158   0.6188   0.6222   0.6239   0.6259   0.6297   0.6366
  0.6384   0.6416   0.6448   0.6485   0.6504   0.6563   0.6666   0.6701
  0.6752   0.6787   0.6797   0.6861   0.6912   0.6941   0.6986   0.7061
  0.7099   0.7143   0.7185   0.7211   0.7296   0.7439   0.7443   0.7520
  0.7614   0.7658   0.7675   0.7724   0.7833   0.7904   0.7978   0.7997
  0.8034   0.8069   0.8142   0.8195   0.8202   0.8292   0.8332   0.8373
  0.8452   0.8567   0.8609   0.8634   0.8806   0.8841   0.8894   0.8936
  0.8975   0.9029   0.9069   0.9096   0.9111   0.9181   0.9196   0.9279
  0.9325   0.9373   0.9418   0.9472   0.9516   0.9579   0.9606   0.9684
  0.9722   0.9778   0.9796   0.9810   0.9894   0.9963   1.0004   1.0021
  1.0055   1.0105   1.0153   1.0201   1.0251   1.0298   1.0337   1.0407
  1.0431   1.0482   1.0552   1.0630   1.0638   1.0739   1.0762   1.0792
  1.0829   1.0870   1.0909   1.0940   1.1013   1.1040   1.1083   1.1107
  1.1127   1.1262   1.1317   1.1362   1.1427   1.1518   1.1555   1.1585
  1.1637   1.1681   1.1721   1.1801   1.1824   1.1887   1.1910   1.1917
  1.1996   1.2029   1.2116   1.2131   1.2170   1.2200   1.2266   1.2301
  1.2385   1.2456   1.2490   1.2552   1.2593   1.2667   1.2714   1.2762
  1.2782   1.2813   1.2901   1.3016   1.3074   1.3108   1.3207   1.3230
  1.3302   1.3326   1.3369   1.3455   1.3488   1.3566   1.3590   1.3684
  1.3761   1.3815   1.3903   1.3946   1.4070   1.4116   1.4164   1.4245
  1.4261   1.4430   1.4510   1.4589   1.4669   1.4748   1.4836   1.4876
  1.4955   1.4990   1.5029   1.5063   1.5124   1.5145   1.5223   1.5314
  1.5340   1.5379   1.5409   1.5485   1.5525   1.5565   1.5620   1.5664
  1.5693   1.5832   1.5840   1.5981   1.5993   1.6138   1.6225   1.6307
  1.6403   1.6534   1.6566   1.6619   1.6646   1.6726   1.6798   1.6839
  1.6854   1.6959   1.7082   1.7103   1.7122   1.7302   1.7395   1.7515
  1.7589   1.7718   1.7769   1.7833   1.7925   1.7991   1.8103   1.8218
  1.8236   1.8329   1.8361   1.8465   1.8496   1.8623   1.8636   1.8717
  1.8793   1.8849   1.8940   1.9034   1.9072   1.9182   1.9273   1.9294
  1.9347   1.9397   1.9554   1.9584   1.9661   1.9734   1.9863   1.9910
  1.9972   2.0096   2.0193   2.0284   2.0371   2.0409   2.0480   2.0513
  2.0683   2.0875   2.0933   2.1032   2.1180   2.1282   2.1360   2.1440
  2.1496   2.1564   2.1634   2.1664   2.1756   2.1766   2.1878   2.1945
  2.1994   2.2033   2.2129   2.2194   2.2212   2.2277   2.2385   2.2456
  2.2492   2.2507   2.2670   2.2730   2.2791   2.2816   2.2973   2.3068
  2.3105   2.3161   2.3257   2.3302   2.3341   2.3468   2.3557   2.3633
  2.3709   2.3818   2.3834   2.3898   2.3985   2.4149   2.4207   2.4268
  2.4325   2.4376   2.4492   2.4607   2.4747   2.4780   2.4872   2.4960
  2.5030   2.5097   2.5255   2.5296   2.5337   2.5516   2.5618   2.5728
  2.5766   2.5865   2.5899   2.5950   2.6112   2.6128   2.6199   2.6271
  2.6326   2.6340   2.6363   2.6470   2.6572   2.6643   2.6652   2.6724
  2.6787   2.6853   2.6922   2.6993   2.6998   2.7046   2.7103   2.7221
  2.7246   2.7325   2.7353   2.7389   2.7440   2.7496   2.7557   2.7602
  2.7766   2.7807   2.7888   2.7965   2.7989   2.8091   2.8169   2.8191
  2.8273   2.8340   2.8443   2.8467   2.8549   2.8602   2.8702   2.8727
  2.8810   2.8824   2.8855   2.8967   2.9102   2.9137   2.9240   2.9335
  2.9467   2.9553   2.9581   2.9717   2.9804   2.9831   2.9935   3.0060
  3.0085   3.0169   3.0264   3.0304   3.0347   3.0407   3.0430   3.0450
  3.0497   3.0582   3.0700   3.0837   3.0890   3.0927   3.0994   3.1046
  3.1104   3.1120   3.1162   3.1188   3.1340   3.1377   3.1419   3.1473
  3.1518   3.1553   3.1621   3.1698   3.1731   3.1759   3.1786   3.1853
  3.1876   3.1950   3.2030   3.2082   3.2164   3.2168   3.2235   3.2325
  3.2326   3.2378   3.2451   3.2476   3.2537   3.2583   3.2648   3.2697
  3.2735   3.2772   3.2793   3.2886   3.2898   3.2920   3.2957   3.2989
  3.3063   3.3114   3.3238   3.3289   3.3334   3.3389   3.3429   3.3469
  3.3493   3.3527   3.3593   3.3613   3.3647   3.3682   3.3695   3.3732
  3.3825   3.3851   3.3905   3.3963   3.4004   3.4041   3.4062   3.4129
  3.4175   3.4269   3.4336   3.4347   3.4410   3.4451   3.4462   3.4540
  3.4573   3.4682   3.4721   3.4761   3.4802   3.4859   3.4926   3.4965
  3.5036   3.5058   3.5162   3.5196   3.5236   3.5301   3.5357   3.5421
  3.5490   3.5549   3.5604   3.5684   3.5691   3.5743   3.5786   3.5833
  3.5867   3.5872   3.5909   3.5986   3.6027   3.6049   3.6147   3.6227
  3.6290   3.6327   3.6396   3.6512   3.6533   3.6557   3.6582   3.6622
  3.6653   3.6681   3.6752   3.6810   3.6831   3.6877   3.6909   3.6991
  3.7023   3.7043   3.7112   3.7218   3.7261   3.7292   3.7328   3.7359
  3.7448   3.7476   3.7511   3.7601   3.7658   3.7740   3.7766   3.7892
  3.7916   3.7980   3.8026   3.8113   3.8212   3.8236   3.8264   3.8336
  3.8370   3.8413   3.8487   3.8525   3.8564   3.8587   3.8670   3.8751
  3.8842   3.8896   3.8930   3.8987   3.9090   3.9113   3.9221   3.9308
  3.9370   3.9427   3.9485   3.9508   3.9670   3.9723   3.9795   3.9861
  3.9925   4.0063   4.0130   4.0145   4.0212   4.0223   4.0348   4.0390
  4.0469   4.0521   4.0611   4.0676   4.0763   4.0807   4.0843   4.0898
  4.1002   4.1057   4.1172   4.1242   4.1356   4.1441   4.1484   4.1580
  4.1613   4.1707   4.1728   4.1850   4.1880   4.1890   4.1904   4.2021
  4.2079   4.2177   4.2208   4.2366   4.2484   4.2597   4.2701   4.2766
  4.2854   4.2916   4.3103   4.3239   4.3262   4.3305   4.3439   4.3476
  4.3505   4.3560   4.3733   4.3760   4.3773   4.3925   4.3926   4.4015
  4.4096   4.4110   4.4136   4.4196   4.4231   4.4376   4.4448   4.4546
  4.4638   4.4735   4.4834   4.4921   4.4958   4.4967   4.5044   4.5129
  4.5303   4.5343   4.5455   4.5560   4.5568   4.5752   4.5811   4.5907
  4.6004   4.6111   4.6199   4.6279   4.6315   4.6400   4.6423   4.6538
  4.6543   4.6714   4.6717   4.6779   4.6869   4.7055   4.7092   4.7281
  4.7350   4.7412   4.7622   4.7666   4.7807   4.7919   4.8051   4.8084
  4.8188   4.8294   4.8392   4.8588   4.8665   4.9008   4.9129   4.9206
  4.9426   4.9461   4.9594   4.9605   4.9659   4.9814   4.9939   5.0024
  5.0108   5.0121   5.0222   5.0442   5.0519   5.0624   5.0718   5.0833
  5.0968   5.1236   5.1462   5.1561   5.1616   5.1756   5.1851   5.2002
  5.2084   5.2115   5.2187   5.2425   5.2544   5.2593   5.2752   5.2910
  5.2992   5.3068   5.3163   5.3313   5.3386   5.3499   5.3555   5.3621
  5.3705   5.3909   5.3975   5.4015   5.4252   5.4297   5.4626   5.4661
  5.4733   5.4809   5.4921   5.5070   5.5118   5.5264   5.5450   5.5621
  5.5732   5.5844   5.5998   5.6060   5.6181   5.6373   5.6416   5.6766
  5.7165   5.7367   5.7942   5.8012   5.8150   5.8308   5.8540   5.8650
  5.8730   5.8870   5.9191   5.9702   5.9742   5.9858   5.9986   6.0588
  6.0678   6.0881   6.1243   6.1339   6.1652   6.1728   6.1861   6.1874
  6.2330   6.2631   6.2681   6.2743   6.2926   6.3089   6.3195   6.3927
  6.4372   6.4502   6.4830   6.5184   6.5483   6.5556   6.5568   6.6512
  6.6744   6.6773   6.7018   6.7375   6.7430   6.7998   6.8414   6.8609
  6.8828   6.8917   6.9923   7.1193   7.1384   7.1788   7.2117   7.2156
  7.2333   7.3187   7.3270   7.3324   7.3739   7.3771   7.4289   7.4629
  7.4790   7.4871   7.4876   7.5206   7.5502   7.6125   7.7189   7.7706
  7.7964   7.8317   7.9056   7.9194   7.9478   8.0043   8.1070   8.1825
  8.6195   8.9310   9.0096   9.3646   9.5010   9.6980  10.2051  10.7366
 11.2381  11.4458  11.9092  11.9563  12.1273  12.2030  12.3405  12.5735
 12.6564  12.8037  12.9549  13.2237  13.2824  13.5822  13.8455  13.9022
 13.9513  14.0165  14.2319  14.4514  15.1946
 --------------------------------------------------------------
 
          Ground-State Mulliken Net Atomic Charges

     Atom                 Charge (a.u.)
  ----------------------------------------
      1 C                    -0.186819
      2 C                    -0.254026
      3 S                    -0.021771
      4 C                    -0.013143
      5 H                     0.196700
      6 C                    -0.027877
      7 C                     0.246878
      8 C                     0.239469
      9 C                    -0.044170
     10 C                    -0.030372
     11 O                    -0.333164
     12 O                    -0.339947
     13 C                    -0.085638
     14 H                     0.122667
     15 H                     0.091016
     16 H                     0.094647
     17 C                    -0.086528
     18 H                     0.124992
     19 H                     0.094291
     20 H                     0.090716
     21 C                    -0.230565
     22 S                    -0.000986
     23 C                    -0.029489
     24 H                     0.198628
     25 H                     0.206730
     26 C                    -0.010660
     27 S                     0.116478
     28 C                    -0.242651
     29 C                    -0.102716
     30 C                    -0.006915
     31 C                     0.395019
     32 C                    -0.153854
     33 S                     0.036650
     34 C                     0.460546
     35 O                    -0.450862
     36 O                    -0.297954
     37 F                    -0.210579
     38 C                    -0.055010
     39 H                     0.116491
     40 H                     0.084567
     41 H                     0.084350
     42 H                     0.214861
  ----------------------------------------
  Sum of atomic charges =     0.000000

 -----------------------------------------------------------------
                    Cartesian Multipole Moments
 -----------------------------------------------------------------
    Charge (ESU x 10^10)
                -0.0000
    Dipole Moment (Debye)
         X      -0.0455      Y       1.3872      Z       3.0284
       Tot       3.3313
    Quadrupole Moments (Debye-Ang)
        XX    -178.5051     XY       1.1872     YY    -158.0531
        XZ      -7.1207     YZ      -9.4175     ZZ    -204.6898
    Octopole Moments (Debye-Ang^2)
       XXX      35.0481    XXY     276.7742    XYY       1.6858
       YYY     880.3642    XXZ     173.7839    XYZ      34.5051
       YYZ     120.0879    XZZ      17.5721    YZZ     499.2006
       ZZZ     540.8421
    Hexadecapole Moments (Debye-Ang^3)
      XXXX   -1907.7420   XXXY    -432.6474   XXYY   -3655.5114
      XYYY    -389.4679   YYYY  -18569.5068   XXXZ     355.4951
      XXYZ     537.6183   XYYZ     -35.2540   YYYZ    1415.8799
      XXZZ   -1350.5559   XYZZ    -168.0977   YYZZ   -4302.3540
      XZZZ     483.5988   YZZZ     926.3508   ZZZZ   -6046.3086
 -----------------------------------------------------------------
 Total job time:  310.74s(wall), 9751.73s(cpu) 
 Sun Sep 24 16:46:38 2023

        *************************************************************
        *                                                           *
        *  Thank you very much for using Q-Chem.  Have a nice day.  *
        *                                                           *
        *************************************************************


0 sent ACK to 0 
now end server 0 ... 
cleanup process ... done
remove work dirs ./qchem36916.0 -- ./qchem36916.0
rm -rf ./qchem36916.0
rm -rf ./qchem36916
