You are running Q-Chem version: 5.4.0

#
# job setting
#
local host:  exp-4-01
current dir: /expanse/lustre/projects/csd626/rramji/aromodel/PTB7_fin/Rotation_Test
input file:  fin_bdt_Phi_40_Theta_180_fin_ftt.qcin
output file: 
nprocs     : 1
nthreads   : 64
#
# qchem installation setting
#
QC:          /cm/shared/apps/spack/cpu/opt/spack/linux-centos8-zen2/gcc-10.2.0/qchem-5.4-akfmr7b3t57bfs6qan3padb2wnb2i7cl
QCAUX:       /cm/shared/apps/spack/cpu/opt/spack/linux-centos8-zen2/gcc-10.2.0/qchem-5.4-akfmr7b3t57bfs6qan3padb2wnb2i7cl/qcaux
QCPROG:      /cm/shared/apps/spack/cpu/opt/spack/linux-centos8-zen2/gcc-10.2.0/qchem-5.4-akfmr7b3t57bfs6qan3padb2wnb2i7cl/exe/qcprog.exe
QCPROG_S:    /cm/shared/apps/spack/cpu/opt/spack/linux-centos8-zen2/gcc-10.2.0/qchem-5.4-akfmr7b3t57bfs6qan3padb2wnb2i7cl/exe/qcprog.exe_s
PARALLEL:    -DPARALLEL
QCMPI:       mpich
#
# qchem directory setting
#
qcrun:       qchem2996191
QCSCRATCH:   .
QCLOCALSCR:  
QCTMPDIR:    .
QCFILEPREF:  ./qchem2996191
QCSAVEDIR:   
workdirs:    ./qchem2996191
workdir0:    ./qchem2996191
partmpdirs =  
#
# parallel setting
#
QCRSH:           ssh
QCMPI:           mpich
QCMPIRUN:        /cm/shared/apps/spack/cpu/opt/spack/linux-centos8-zen2/gcc-10.2.0/qchem-5.4-akfmr7b3t57bfs6qan3padb2wnb2i7cl/bin/mpi/mpirun_qchem
QCMACHINEFILE:   ./qchem2996191/hostfile
exp-4-01

#
# env setting
#
exported envs:   QC QCAUX QCSCRATCH QCRUNNAME QCFILEPREF QCPROG QCPROG_S GUIFILE

Running Job 1 of 1 fin_bdt_Phi_40_Theta_180_fin_ftt.qcin
qchem fin_bdt_Phi_40_Theta_180_fin_ftt.qcin_2996191.0 ./qchem2996191/ 1
/cm/shared/apps/spack/cpu/opt/spack/linux-centos8-zen2/gcc-10.2.0/qchem-5.4-akfmr7b3t57bfs6qan3padb2wnb2i7cl/bin/mpi/mpirun_qchem -machinefile ./qchem2996191/hostfile -np 1 /cm/shared/apps/spack/cpu/opt/spack/linux-centos8-zen2/gcc-10.2.0/qchem-5.4-akfmr7b3t57bfs6qan3padb2wnb2i7cl/exe/qcprog.exe fin_bdt_Phi_40_Theta_180_fin_ftt.qcin_2996191.0 ./qchem2996191/

Process 0 of 1 is on exp-4-01 - thread support 0
initial socket setup ...start
initial socket setup ...done 
now start server 0 ... 
                  Welcome to Q-Chem
     A Quantum Leap Into The Future Of Chemistry


 Q-Chem 5.4, Q-Chem, Inc., Pleasanton, CA (2021)

 License issued to: University of California, San Diego (site)

 E. Epifanovsky,  A. T. B. Gilbert,  Xintian Feng,  Joonho Lee,  Yuezhi Mao,  
 N. Mardirossian,  P. Pokhilko,  A. White,  M. Wormit,  M. P. Coons,  
 A. L. Dempwolff,  Zhengting Gan,  D. Hait,  P. R. Horn,  L. D. Jacobson,  
 I. Kaliman,  J. Kussmann,  A. W. Lange,  Ka Un Lao,  D. S. Levine,  Jie Liu,  
 S. C. McKenzie,  A. F. Morrison,  K. Nanda,  F. Plasser,  D. R. Rehn,  
 M. L. Vidal,  Zhi-Qiang You,  Ying Zhu,  B. Alam,  B. Albrecht,  
 A. Aldossary,  E. Alguire,  J. H. Andersen,  D. Barton,  K. Begam,  A. Behn,  
 Y. A. Bernard,  E. J. Berquist,  H. Burton,  A. Carreras,  K. Carter-Fenk,  
 R. Chakraborty,  A. D. Chien,  K. D. Closser,  V. Cofer-Shabica,  
 S. Dasgupta,  Jia Deng,  M. de Wergifosse,  M. Diedenhofen,  Hainam Do,  
 S. Ehlert,  Po-Tung Fang,  S. Fatehi,  Qingguo Feng,  J. Gayvert,  
 Qinghui Ge,  G. Gidofalvi,  M. Goldey,  J. Gomes,  C. Gonzalez-Espinoza,  
 S. Gulania,  A. Gunina,  M. W. D. Hanson-Heine,  P. H. P. Harbach,  
 A. W. Hauser,  M. F. Herbst,  M. Hernandez Vera,  M. Hodecker,  
 Z. C. Holden,  S. Houck,  Xunkun Huang,  Kerwin Hui,  B. C. Huynh,  
 M. Ivanov,  Hyunjun Ji,  Hanjie Jiang,  B. Kaduk,  S. Kaehler,  
 K. Khistyaev,  Jaehoon Kim,  P. Klunzinger,  Z. Koczor-Benda,  
 Joong Hoon Koh,  D. Kosenkov,  L. Koulias,  T. Kowalczyk,  C. M. Krauter,  
 K. Kue,  A. Kunitsa,  T. Kus,  A. Landau,  K. V. Lawler,  D. Lefrancois,  
 S. Lehtola,  Rain Li,  Yi-Pei Li,  Jiashu Liang,  M. Liebenthal,  
 Hung-Hsuan Lin,  You-Sheng Lin,  Fenglai Liu,  Kuan-Yu Liu,  
 M. Loipersberger,  A. Luenser,  A. Manjanath,  P. Manohar,  E. Mansoor,  
 S. F. Manzer,  Shan-Ping Mao,  A. V. Marenich,  T. Markovich,  S. Mason,  
 S. A. Maurer,  P. F. McLaughlin,  M. F. S. J. Menger,  J.-M. Mewes,  
 S. A. Mewes,  P. Morgante,  J. W. Mullinax,  T. S. Nguyen-Beck,  
 K. J. Oosterbaan,  G. Paran,  Alexander C. Paul,  Suranjan K. Paul,  
 F. Pavosevic,  Zheng Pei,  S. Prager,  E. I. Proynov,  E. Ramos,  B. Rana,  
 A. E. Rask,  A. Rettig,  R. M. Richard,  F. Rob,  E. Rossomme,  T. Scheele,  
 M. Scheurer,  M. Schneider,  N. Sergueev,  S. M. Sharada,  W. Skomorowski,  
 D. W. Small,  C. J. Stein,  Yu-Chuan Su,  E. J. Sundstrom,  Zhen Tao,  
 J. Thirman,  T. Tsuchimochi,  N. M. Tubman,  S. P. Veccham,  O. Vydrov,  
 J. Wenzel,  J. Witte,  A. Yamada,  Kun Yao,  S. Yeganeh,  S. R. Yost,  
 A. Zech,  Igor Ying Zhang,  Xing Zhang,  Yu Zhang,  D. Zuev,  
 A. Aspuru-Guzik,  A. T. Bell,  N. A. Besley,  K. B. Bravaya,  B. R. Brooks,  
 D. Casanova,  Jeng-Da Chai,  S. Coriani,  C. J. Cramer,  
 A. E. DePrince, III,  R. A. DiStasio Jr.,  A. Dreuw,  B. D. Dunietz,  
 T. R. Furlani,  W. A. Goddard III,  S. Grimme,  S. Hammes-Schiffer,  
 T. Head-Gordon,  W. J. Hehre,  Chao-Ping Hsu,  T.-C. Jagau,  Yousung Jung,  
 A. Klamt,  Jing Kong,  D. S. Lambrecht,  WanZhen Liang,  N. J. Mayhall,  
 C. W. McCurdy,  J. B. Neaton,  C. Ochsenfeld,  J. A. Parkhill,  R. Peverati,  
 V. A. Rassolov,  Yihan Shao,  L. V. Slipchenko,  T. Stauch,  R. P. Steele,  
 J. E. Subotnik,  A. J. W. Thom,  A. Tkatchenko,  D. G. Truhlar,  
 T. Van Voorhis,  T. A. Wesolowski,  K. B. Whaley,  H. L. Woodcock III,  
 P. M. Zimmerman,  S. Faraji,  P. M. W. Gill,  M. Head-Gordon,  
 J. M. Herbert,  A. I. Krylov

 Contributors to earlier versions of Q-Chem not listed above: 
 R. D. Adamson,  B. Austin,  R. Baer,  J. Baker,  G. J. O. Beran,  
 K. Brandhorst,  S. T. Brown,  E. F. C. Byrd,  A. K. Chakraborty,  
 G. K. L. Chan,  Chun-Min Chang,  Yunqing Chen,  C.-L. Cheng,  
 Siu Hung Chien,  D. M. Chipman,  D. L. Crittenden,  H. Dachsel,  
 R. J. Doerksen,  A. D. Dutoi,  R. G. Edgar,  J. Fosso-Tande,  
 L. Fusti-Molnar,  D. Ghosh,  A. Ghysels,  A. Golubeva-Zadorozhnaya,  
 J. Gonthier,  M. S. Gordon,  S. R. Gwaltney,  G. Hawkins,  J. E. Herr,  
 A. Heyden,  S. Hirata,  E. G. Hohenstein,  G. Kedziora,  F. J. Keil,  
 C. Kelley,  Jihan Kim,  R. A. King,  R. Z. Khaliullin,  P. P. Korambath,  
 W. Kurlancheek,  A. Laurent,  A. M. Lee,  M. S. Lee,  S. V. Levchenko,  
 Ching Yeh Lin,  D. Liotard,  E. Livshits,  R. C. Lochan,  I. Lotan,  
 L. A. Martinez-Martinez,  P. E. Maslen,  N. Nair,  D. P. O'Neill,  
 D. Neuhauser,  E. Neuscamman,  C. M. Oana,  R. Olivares-Amaya,  R. Olson,  
 T. M. Perrine,  B. Peters,  P. A. Pieniazek,  A. Prociuk,  Y. M. Rhee,  
 J. Ritchie,  M. A. Rohrdanz,  E. Rosta,  N. J. Russ,  H. F. Schaefer III,  
 M. W. Schmidt,  N. E. Schultz,  S. Sharma,  N. Shenvi,  C. D. Sherrill,  
 A. C. Simmonett,  A. Sodt,  T. Stein,  D. Stuck,  K. S. Thanthiriwatte,  
 V. Vanovschi,  L. Vogt,  Tao Wang,  A. Warshel,  M. A. Watson,  
 C. F. Williams,  Q. Wu,  X. Xu,  Jun Yang,  W. Zhang,  Yan Zhao

 Please cite Q-Chem as follows:
 Y. Shao et al., Mol. Phys. 113, 184-215 (2015)
 DOI: 10.1080/00268976.2014.952696

 Q-Chem 5.4.0 for Intel X86 EM64T Linux

 Parts of Q-Chem use Armadillo 9.800.1 (Horizon Scraper).
 http://arma.sourceforge.net/

 Q-Chem begins on Sun Sep 24 17:44:30 2023  

 Host: 
0

     Scratch files written to ./qchem2996191//
 May1621 |scratch|qcdevops|jenkins|workspace|build_RNUM    
 Parallel job on  1  processors
 Processing $rem in /cm/shared/apps/spack/cpu/opt/spack/linux-centos8-zen2/gcc-10.2.0/qchem-5.4-akfmr7b3t57bfs6qan3padb2wnb2i7cl/config/preferences:
 Processing $rem in /home/rramji/.qchemrc:
 Symmetry turned off for PCM/SM12/SMD calculation
 Core orbitals will be frozen

 Checking the input file for inconsistencies... 	...done.

 Q-Chem warning in module forms1/BasisType.C, line 2236:

 You are not using the predefined 5D/6D in this basis set.


--------------------------------------------------------------
User input:
--------------------------------------------------------------
$molecule
0 1
C	0.047927	-8.519741	-0.267851
C	0.056157	-7.635967	0.801461
S	0.029285	-7.651740	-1.822194
C	0.054516	-6.261894	0.415201
H	0.063290	-7.954738	1.851431
C	0.054687	-6.079985	-1.012650
C	0.028030	-4.798382	-1.584194
C	0.031399	-5.153542	1.309433
C	0.000427	-3.869626	0.737539
C	0.003462	-3.688927	-0.691828
O	0.061128	-5.481075	2.631211
O	-0.003021	-4.479871	-2.911907
C	0.602710	-5.356026	-3.854716
H	0.670671	-4.790496	-4.803517
H	-0.006913	-6.268513	-4.034285
H	1.623507	-5.658187	-3.535185
C	-0.375708	-4.546999	3.610841
H	-0.441115	-5.107564	4.562544
H	-1.376277	-4.131473	3.364029
H	0.346107	-3.712085	3.743566
C	-0.000458	-2.314326	-1.074491
S	0.013144	-2.295487	1.548848
C	-0.000000	-1.435180	-0.000000
H	-0.004953	-1.993211	-2.123688
H	0.045468	-9.615985	-0.262315
C	0.000000	0.000000	0.000000
S	0.579852	0.687566	1.510732
C	1.591625	1.895024	0.727629
C	0.583771	0.695758	-1.064665
C	1.475308	1.760606	-0.678287
C	0.542366	0.643841	-2.486150
C	1.355286	1.612843	-3.106916
S	2.154609	2.570627	-1.965735
C	1.522440	1.804778	-4.559972
O	0.924684	1.087757	-5.350277
O	2.349739	2.785679	-5.004375
F	-0.170780	-0.212144	-3.246290
C	2.588082	3.053936	-6.334976
H	3.298799	3.899999	-6.370268
H	1.655291	3.328371	-6.875609
H	3.026021	2.177385	-6.861878
H	2.183053	2.599759	1.321510
$end

$rem
JOBTYPE		SP
EXCHANGE	HF
CORRELATION	pRIMP2
BASIS		cc-pvtz
METHOD		rimp2
AUX_BASIS	rimp2-cc-pvtz
SOLVENT_METHOD	PCM
PURECART	11111
SYMMETRY	false
MEM_TOTAL	110000
SCF_CONVERGENCE = 6
THRESH=10
GUI = 2
$end



$solvent
dielectric 4.90
$end
--------------------------------------------------------------
 ----------------------------------------------------------------
             Standard Nuclear Orientation (Angstroms)
    I     Atom           X                Y                Z
 ----------------------------------------------------------------
    1      C       0.0479270000    -8.5197410000    -0.2678510000
    2      C       0.0561570000    -7.6359670000     0.8014610000
    3      S       0.0292850000    -7.6517400000    -1.8221940000
    4      C       0.0545160000    -6.2618940000     0.4152010000
    5      H       0.0632900000    -7.9547380000     1.8514310000
    6      C       0.0546870000    -6.0799850000    -1.0126500000
    7      C       0.0280300000    -4.7983820000    -1.5841940000
    8      C       0.0313990000    -5.1535420000     1.3094330000
    9      C       0.0004270000    -3.8696260000     0.7375390000
   10      C       0.0034620000    -3.6889270000    -0.6918280000
   11      O       0.0611280000    -5.4810750000     2.6312110000
   12      O      -0.0030210000    -4.4798710000    -2.9119070000
   13      C       0.6027100000    -5.3560260000    -3.8547160000
   14      H       0.6706710000    -4.7904960000    -4.8035170000
   15      H      -0.0069130000    -6.2685130000    -4.0342850000
   16      H       1.6235070000    -5.6581870000    -3.5351850000
   17      C      -0.3757080000    -4.5469990000     3.6108410000
   18      H      -0.4411150000    -5.1075640000     4.5625440000
   19      H      -1.3762770000    -4.1314730000     3.3640290000
   20      H       0.3461070000    -3.7120850000     3.7435660000
   21      C      -0.0004580000    -2.3143260000    -1.0744910000
   22      S       0.0131440000    -2.2954870000     1.5488480000
   23      C       0.0000000000    -1.4351800000     0.0000000000
   24      H      -0.0049530000    -1.9932110000    -2.1236880000
   25      H       0.0454680000    -9.6159850000    -0.2623150000
   26      C       0.0000000000     0.0000000000     0.0000000000
   27      S       0.5798520000     0.6875660000     1.5107320000
   28      C       1.5916250000     1.8950240000     0.7276290000
   29      C       0.5837710000     0.6957580000    -1.0646650000
   30      C       1.4753080000     1.7606060000    -0.6782870000
   31      C       0.5423660000     0.6438410000    -2.4861500000
   32      C       1.3552860000     1.6128430000    -3.1069160000
   33      S       2.1546090000     2.5706270000    -1.9657350000
   34      C       1.5224400000     1.8047780000    -4.5599720000
   35      O       0.9246840000     1.0877570000    -5.3502770000
   36      O       2.3497390000     2.7856790000    -5.0043750000
   37      F      -0.1707800000    -0.2121440000    -3.2462900000
   38      C       2.5880820000     3.0539360000    -6.3349760000
   39      H       3.2987990000     3.8999990000    -6.3702680000
   40      H       1.6552910000     3.3283710000    -6.8756090000
   41      H       3.0260210000     2.1773850000    -6.8618780000
   42      H       2.1830530000     2.5997590000     1.3215100000
 ----------------------------------------------------------------
 Nuclear Repulsion Energy =        3343.33082117 hartrees
 There are      119 alpha and      119 beta electrons
 Requested basis set is cc-pVTZ
 There are 376 shells and 1068 basis functions

 Total QAlloc Memory Limit 110000 MB
 Mega-Array Size       188 MB
 MEM_STATIC part       192 MB
 Discretize the solute cavity surface with Lebedev spheres
	Using 110 Lebedev grid points for each H atom
	Using 194 Lebedev grid points for other atoms
	Atomic van der Waals radii will be scaled by 1.20
 Remove points where switching function is < 1.0e-08
 Keep 2847 surface tesserae and discard 4209 interior tesserae
 Molecular Surface Area = 431.709 Angst**2
 Requested basis set is rimp2-cc-pVTZ
 There are 833 shells and 2903 basis functions
 A cutoff of  1.0D-10 yielded  32011 shell pairs
 There are    245023 function pairs (    317868 Cartesian)
 Smallest overlap matrix eigenvalue = 2.14E-05

 Scale SEOQF with 1.000000e-01/1.000000e-02/1.000000e-02

 Standard Electronic Orientation quadrupole field applied
 Nucleus-field energy     =     0.0000000201 hartrees
 Guess from superposition of atomic densities
 Warning:  Energy on first SCF cycle will be non-variational
 SAD guess density has 238.000000 electrons

 -----------------------------------------------------------------------
  General SCF calculation program by
  Eric Jon Sundstrom, Paul Horn, Yuezhi Mao, Dmitri Zuev, Alec White,
  David Stuck, Shaama M.S., Shane Yost, Joonho Lee, David Small,
  Daniel Levine, Susi Lehtola, Hugh Burton, Evgeny Epifanovsky,
  Bang C. Huynh
 -----------------------------------------------------------------------
 Hartree-Fock
 using 64 threads for integral computing
 -------------------------------------------------------
 OpenMP Integral computing Module                
 Release: version 1.0, May 2013, Q-Chem Inc. Pittsburgh 
 -------------------------------------------------------
 A restricted SCF calculation will be
 performed using DIIS
 SCF converges when DIIS error is below 1.0e-06
 ---------------------------------------
  Cycle       Energy         DIIS error
 ---------------------------------------
    1   -2765.6213005026      1.77e-02  
    2   -2753.8254207130      1.58e-03  
    3   -2754.1669220134      8.86e-04  
    4   -2754.2523643128      2.55e-04  
    5   -2754.2641069926      6.90e-05  
    6   -2754.2652156943      2.45e-05  
    7   -2754.2654642262      1.17e-05  
    8   -2754.2655485098      4.66e-06  
    9   -2754.2655662349      2.20e-06  
   10   -2754.2655691458      9.91e-07  Convergence criterion met
 ---------------------------------------
 SCF time:   CPU 6494.18s  wall 235.00s 

************** Final PCM Free Energy Summary **************
 G_electrostatic  =      -0.01998791 hartree =     -12.54260368 kcal/mol
 G_cavitation     =       0.00000000 hartree =       0.00000000 kcal/mol
 G_dispersion     =       0.00000000 hartree =       0.00000000 kcal/mol
 G_repulsion      =       0.00000000 hartree =       0.00000000 kcal/mol
 --------------------------------------------------
 Non-electrostatic Free Energy =       0.00000000 hartree =       0.00000000 kcal/mol
 Total                         =      -0.01998791 hartree =     -12.54260368 kcal/mol
 --------------------------------------------------
 SCF Energy (H0 + V/2)                       =   -2754.26556915 
 Solute Internal Energy (H0)                 =   -2754.24558123 
 Total Free Energy (H0 + V/2 + non-elec)     =   -2754.26556915 hartree
                                             = -1728327.73028820 kcal/mol
***********************************************************

 SCF   energy in the final basis set =    -2754.2655691458
 Total energy in the final basis set =    -2754.2655691458


 --------------------------------------------------------------
  Generalized many-body perturbation theory program
  by Joonho Lee, Fazle Rob, Xintian Feng, Evgeny Epifanovsky

 No regularization used 
 (reg. param. = 0.0000e+00)
  (P|Q)^-1/2 Time:  CPU 139.14 s  wall 2.65 s

 In RI-MP2 calculation: 
 # of frozen core orbitals: 45

 Components of the RIMP2 correlation energy:
        aaaa    correlation energy =        -0.6736456521 a.u.
        abab    correlation energy =        -3.7189818018 a.u.
        bbbb    correlation energy =        -0.6736456521 a.u.
        non-Brillouin singles      =        -0.0000000000 a.u.
        total same-spin energy     =        -1.3472913041 a.u.
        total opposite-spin energy =        -3.7189818018 a.u.

 Total  RIMP2   correlation energy =        -5.0662731059 a.u.
        RIMP2         total energy =     -2759.3318422518 a.u.

 RI-MP2 Energy Time:  CPU 2732.88 s  wall 44.41 s
 
 --------------------------------------------------------------
 
                    Orbital Energies (a.u.)
 --------------------------------------------------------------
 
 Alpha MOs
 -- Occupied --
-92.0170 -92.0017 -91.9868 -91.9846 -26.3384 -20.6143 -20.5916 -20.5884
-20.5539 -11.4138 -11.3783 -11.3179 -11.3137 -11.3086 -11.3054 -11.3005
-11.2992 -11.2959 -11.2897 -11.2884 -11.2868 -11.2839 -11.2825 -11.2822
-11.2771 -11.2590 -11.2556 -11.2486 -11.2453  -9.0160  -9.0054  -8.9877
 -8.9845  -6.6967  -6.6960  -6.6956  -6.6866  -6.6860  -6.6847  -6.6687
 -6.6680  -6.6670  -6.6655  -6.6649  -6.6640  -1.6529  -1.4743  -1.4156
 -1.4112  -1.3701  -1.2392  -1.1942  -1.1696  -1.1440  -1.0839  -1.0515
 -1.0492  -1.0314  -1.0007  -0.9929  -0.9749  -0.9592  -0.9492  -0.9382
 -0.8951  -0.8733  -0.8481  -0.8051  -0.7983  -0.7876  -0.7726  -0.7698
 -0.7557  -0.7319  -0.7236  -0.7193  -0.6997  -0.6918  -0.6827  -0.6802
 -0.6746  -0.6621  -0.6579  -0.6506  -0.6266  -0.6181  -0.6142  -0.6094
 -0.6036  -0.5998  -0.5866  -0.5743  -0.5672  -0.5602  -0.5552  -0.5442
 -0.5356  -0.5285  -0.5221  -0.5187  -0.5167  -0.5093  -0.5054  -0.4960
 -0.4872  -0.4834  -0.4756  -0.4671  -0.4632  -0.4611  -0.4572  -0.4251
 -0.3967  -0.3827  -0.3582  -0.3501  -0.3248  -0.2854  -0.2445
 -- Virtual --
  0.0000   0.0806   0.1112   0.1237   0.1291   0.1501   0.1512   0.1552
  0.1568   0.1607   0.1624   0.1793   0.1837   0.1862   0.1909   0.1999
  0.2025   0.2062   0.2137   0.2175   0.2225   0.2247   0.2251   0.2258
  0.2334   0.2464   0.2511   0.2544   0.2587   0.2687   0.2767   0.2863
  0.3002   0.3101   0.3175   0.3283   0.3313   0.3433   0.3500   0.3527
  0.3554   0.3689   0.3695   0.3726   0.3778   0.3797   0.3838   0.3861
  0.3877   0.3924   0.3938   0.4068   0.4108   0.4126   0.4173   0.4236
  0.4249   0.4325   0.4364   0.4392   0.4428   0.4493   0.4558   0.4560
  0.4617   0.4700   0.4726   0.4772   0.4788   0.4852   0.4897   0.4946
  0.4987   0.5010   0.5029   0.5080   0.5147   0.5197   0.5205   0.5237
  0.5291   0.5327   0.5361   0.5382   0.5443   0.5479   0.5551   0.5564
  0.5604   0.5619   0.5646   0.5661   0.5678   0.5745   0.5774   0.5811
  0.5844   0.5908   0.5914   0.6013   0.6019   0.6032   0.6058   0.6150
  0.6161   0.6190   0.6215   0.6240   0.6266   0.6319   0.6353   0.6366
  0.6410   0.6437   0.6471   0.6533   0.6553   0.6574   0.6614   0.6715
  0.6759   0.6829   0.6858   0.6924   0.6941   0.6983   0.7036   0.7078
  0.7105   0.7139   0.7209   0.7259   0.7327   0.7420   0.7508   0.7587
  0.7600   0.7646   0.7706   0.7784   0.7895   0.7926   0.7990   0.8004
  0.8063   0.8114   0.8194   0.8237   0.8280   0.8325   0.8406   0.8505
  0.8560   0.8619   0.8631   0.8675   0.8748   0.8788   0.8847   0.8941
  0.8961   0.9014   0.9087   0.9130   0.9165   0.9216   0.9228   0.9278
  0.9332   0.9360   0.9377   0.9492   0.9528   0.9564   0.9640   0.9681
  0.9730   0.9801   0.9840   0.9853   0.9935   0.9953   1.0010   1.0018
  1.0066   1.0134   1.0170   1.0185   1.0219   1.0293   1.0367   1.0447
  1.0479   1.0536   1.0566   1.0597   1.0649   1.0713   1.0764   1.0791
  1.0829   1.0855   1.0971   1.0987   1.1042   1.1068   1.1113   1.1136
  1.1212   1.1356   1.1369   1.1405   1.1461   1.1544   1.1564   1.1606
  1.1629   1.1662   1.1743   1.1830   1.1864   1.1901   1.1910   1.2023
  1.2055   1.2109   1.2156   1.2184   1.2190   1.2222   1.2270   1.2344
  1.2376   1.2449   1.2504   1.2563   1.2587   1.2652   1.2723   1.2743
  1.2800   1.2835   1.2936   1.3012   1.3059   1.3114   1.3199   1.3304
  1.3327   1.3365   1.3399   1.3473   1.3516   1.3595   1.3618   1.3703
  1.3736   1.3772   1.3813   1.3876   1.3967   1.4120   1.4180   1.4261
  1.4331   1.4357   1.4507   1.4631   1.4725   1.4752   1.4820   1.4877
  1.4920   1.4975   1.5017   1.5071   1.5114   1.5145   1.5242   1.5281
  1.5310   1.5334   1.5431   1.5465   1.5495   1.5525   1.5547   1.5676
  1.5820   1.5833   1.5894   1.5901   1.6040   1.6151   1.6293   1.6368
  1.6415   1.6494   1.6527   1.6559   1.6613   1.6717   1.6809   1.6850
  1.6898   1.6943   1.7067   1.7170   1.7296   1.7334   1.7423   1.7465
  1.7554   1.7640   1.7709   1.7851   1.7967   1.8076   1.8087   1.8169
  1.8247   1.8323   1.8407   1.8429   1.8572   1.8620   1.8656   1.8716
  1.8744   1.8926   1.9001   1.9101   1.9162   1.9199   1.9308   1.9362
  1.9430   1.9496   1.9538   1.9612   1.9627   1.9731   1.9804   1.9948
  2.0020   2.0169   2.0213   2.0259   2.0276   2.0438   2.0549   2.0691
  2.0957   2.1004   2.1068   2.1127   2.1183   2.1243   2.1353   2.1368
  2.1553   2.1626   2.1671   2.1683   2.1761   2.1823   2.1848   2.1900
  2.1963   2.2033   2.2093   2.2193   2.2230   2.2338   2.2401   2.2501
  2.2525   2.2560   2.2599   2.2693   2.2767   2.2772   2.2861   2.2906
  2.3065   2.3110   2.3177   2.3271   2.3439   2.3506   2.3569   2.3711
  2.3755   2.3813   2.3863   2.3939   2.3987   2.4096   2.4250   2.4293
  2.4347   2.4417   2.4505   2.4577   2.4627   2.4779   2.4903   2.4930
  2.5010   2.5099   2.5263   2.5276   2.5391   2.5439   2.5520   2.5573
  2.5690   2.5804   2.5845   2.6002   2.6065   2.6139   2.6216   2.6251
  2.6254   2.6309   2.6395   2.6401   2.6542   2.6584   2.6657   2.6687
  2.6768   2.6897   2.6952   2.6994   2.7036   2.7073   2.7121   2.7172
  2.7243   2.7324   2.7342   2.7419   2.7486   2.7502   2.7603   2.7778
  2.7809   2.7868   2.7949   2.7970   2.8064   2.8152   2.8243   2.8272
  2.8313   2.8397   2.8482   2.8505   2.8602   2.8650   2.8684   2.8759
  2.8784   2.8876   2.8909   2.9034   2.9113   2.9215   2.9249   2.9416
  2.9479   2.9526   2.9638   2.9742   2.9758   2.9859   2.9983   3.0067
  3.0113   3.0165   3.0229   3.0326   3.0369   3.0393   3.0428   3.0439
  3.0541   3.0560   3.0688   3.0771   3.0855   3.0899   3.0909   3.1062
  3.1097   3.1144   3.1178   3.1270   3.1361   3.1382   3.1513   3.1552
  3.1592   3.1628   3.1669   3.1704   3.1760   3.1800   3.1849   3.1857
  3.1919   3.2007   3.2059   3.2087   3.2146   3.2163   3.2277   3.2313
  3.2366   3.2424   3.2472   3.2521   3.2580   3.2602   3.2657   3.2741
  3.2748   3.2781   3.2831   3.2890   3.2935   3.2974   3.2999   3.3098
  3.3139   3.3181   3.3292   3.3304   3.3355   3.3423   3.3453   3.3498
  3.3515   3.3578   3.3621   3.3652   3.3672   3.3685   3.3791   3.3808
  3.3847   3.3883   3.3937   3.3971   3.4014   3.4051   3.4157   3.4228
  3.4300   3.4309   3.4352   3.4395   3.4436   3.4477   3.4548   3.4585
  3.4645   3.4663   3.4722   3.4774   3.4797   3.4863   3.4942   3.4967
  3.5043   3.5104   3.5196   3.5216   3.5296   3.5305   3.5371   3.5439
  3.5535   3.5546   3.5588   3.5696   3.5731   3.5788   3.5832   3.5870
  3.5908   3.5959   3.6010   3.6050   3.6098   3.6148   3.6259   3.6294
  3.6338   3.6367   3.6400   3.6475   3.6534   3.6579   3.6618   3.6649
  3.6731   3.6800   3.6818   3.6847   3.6911   3.6932   3.7039   3.7084
  3.7117   3.7133   3.7189   3.7228   3.7271   3.7313   3.7381   3.7409
  3.7465   3.7570   3.7657   3.7673   3.7747   3.7818   3.7879   3.7954
  3.7988   3.8054   3.8165   3.8180   3.8214   3.8252   3.8260   3.8375
  3.8393   3.8454   3.8488   3.8539   3.8646   3.8653   3.8679   3.8770
  3.8783   3.8921   3.8967   3.9004   3.9075   3.9135   3.9236   3.9261
  3.9300   3.9360   3.9397   3.9562   3.9586   3.9675   3.9855   3.9905
  3.9952   3.9986   4.0133   4.0165   4.0187   4.0302   4.0388   4.0475
  4.0525   4.0571   4.0662   4.0731   4.0830   4.0839   4.0919   4.0938
  4.0957   4.1066   4.1202   4.1253   4.1314   4.1462   4.1534   4.1646
  4.1673   4.1703   4.1730   4.1830   4.1899   4.1911   4.1979   4.2121
  4.2162   4.2292   4.2404   4.2441   4.2481   4.2546   4.2656   4.2750
  4.2826   4.3049   4.3191   4.3206   4.3312   4.3418   4.3464   4.3492
  4.3594   4.3674   4.3730   4.3770   4.3784   4.3928   4.3973   4.3994
  4.4097   4.4122   4.4209   4.4245   4.4302   4.4376   4.4409   4.4527
  4.4605   4.4753   4.4770   4.4943   4.5028   4.5093   4.5149   4.5188
  4.5371   4.5442   4.5466   4.5554   4.5610   4.5735   4.5850   4.5973
  4.6132   4.6150   4.6234   4.6333   4.6369   4.6421   4.6442   4.6608
  4.6611   4.6698   4.6794   4.6814   4.6906   4.7076   4.7213   4.7236
  4.7357   4.7445   4.7516   4.7757   4.7775   4.7930   4.8105   4.8291
  4.8320   4.8350   4.8487   4.8619   4.8786   4.8904   4.9111   4.9179
  4.9419   4.9512   4.9540   4.9667   4.9695   4.9908   4.9976   5.0012
  5.0088   5.0112   5.0119   5.0368   5.0525   5.0626   5.0719   5.0823
  5.0922   5.1164   5.1257   5.1344   5.1646   5.1770   5.1902   5.1935
  5.1992   5.2171   5.2208   5.2466   5.2533   5.2580   5.2630   5.2816
  5.3004   5.3141   5.3192   5.3289   5.3431   5.3539   5.3542   5.3778
  5.3864   5.3947   5.4018   5.4038   5.4132   5.4447   5.4653   5.4720
  5.4742   5.4797   5.4961   5.5064   5.5163   5.5198   5.5415   5.5678
  5.5768   5.5849   5.5922   5.6079   5.6152   5.6329   5.6456   5.6848
  5.7180   5.7424   5.7793   5.7987   5.8108   5.8278   5.8525   5.8557
  5.8752   5.8861   5.9172   5.9641   5.9670   5.9717   6.0019   6.0183
  6.0646   6.1149   6.1166   6.1318   6.1330   6.1715   6.1814   6.1842
  6.2396   6.2512   6.2739   6.2756   6.3067   6.3110   6.3172   6.3893
  6.4363   6.4492   6.4873   6.5127   6.5508   6.5538   6.5611   6.6548
  6.6738   6.6825   6.7088   6.7329   6.7473   6.8034   6.8448   6.8577
  6.8811   6.8961   6.9867   7.1245   7.1395   7.1762   7.2086   7.2170
  7.2379   7.3233   7.3248   7.3335   7.3726   7.3856   7.4253   7.4607
  7.4793   7.4900   7.4925   7.5174   7.5461   7.6031   7.7201   7.7686
  7.7994   7.8290   7.8985   7.9237   7.9502   8.0105   8.0858   8.1812
  8.5170   8.9953   9.0279   9.3702   9.5001   9.7143  10.2272  10.4956
 11.2242  11.3205  11.9326  12.0198  12.1373  12.2505  12.4112  12.5843
 12.6224  12.8158  12.9923  13.2483  13.3236  13.5722  13.8496  13.8616
 13.9061  14.0357  14.1209  14.6402  15.2171
 --------------------------------------------------------------
 
          Ground-State Mulliken Net Atomic Charges

     Atom                 Charge (a.u.)
  ----------------------------------------
      1 C                    -0.193608
      2 C                    -0.254626
      3 S                    -0.024550
      4 C                    -0.019674
      5 H                     0.195681
      6 C                    -0.026896
      7 C                     0.243039
      8 C                     0.245087
      9 C                    -0.046801
     10 C                    -0.017180
     11 O                    -0.333319
     12 O                    -0.341087
     13 C                    -0.086355
     14 H                     0.123472
     15 H                     0.090852
     16 H                     0.092739
     17 C                    -0.088292
     18 H                     0.125687
     19 H                     0.094726
     20 H                     0.089188
     21 C                    -0.256662
     22 S                    -0.043546
     23 C                    -0.026651
     24 H                     0.211875
     25 H                     0.205527
     26 C                    -0.020234
     27 S                     0.109340
     28 C                    -0.199213
     29 C                    -0.057235
     30 C                    -0.028547
     31 C                     0.339662
     32 C                    -0.120446
     33 S                     0.062375
     34 C                     0.457224
     35 O                    -0.444671
     36 O                    -0.297359
     37 F                    -0.212738
     38 C                    -0.054516
     39 H                     0.117202
     40 H                     0.085224
     41 H                     0.084977
     42 H                     0.220328
  ----------------------------------------
  Sum of atomic charges =     0.000000

 -----------------------------------------------------------------
                    Cartesian Multipole Moments
 -----------------------------------------------------------------
    Charge (ESU x 10^10)
                -0.0000
    Dipole Moment (Debye)
         X       3.2990      Y       2.6417      Z       3.1035
       Tot       5.2434
    Quadrupole Moments (Debye-Ang)
        XX    -192.7641     XY       7.7462     YY    -169.7083
        XZ     -13.2968     YZ      -9.1537     ZZ    -180.8638
    Octopole Moments (Debye-Ang^2)
       XXX    -326.7189    XXY     454.9407    XYY     -78.6118
       YYY    1022.9760    XXZ     169.4235    XYZ       1.7853
       YYZ     154.4044    XZZ     -32.2522    YZZ     412.0961
       ZZZ     584.7807
    Hexadecapole Moments (Debye-Ang^3)
      XXXX   -1441.2532   XXXY    -575.7462   XXYY   -3825.3455
      XYYY    -594.3062   YYYY  -17941.8424   XXXZ     947.7769
      XXYZ     116.7323   XYYZ     108.9288   YYYZ     547.0112
      XXZZ   -1365.4792   XYZZ      38.1470   YYZZ   -4079.2539
      XZZZ     455.0792   YZZZ      53.6831   ZZZZ   -7524.0761
 -----------------------------------------------------------------
 Total job time:  283.00s(wall), 9322.12s(cpu) 
 Sun Sep 24 17:49:13 2023

        *************************************************************
        *                                                           *
        *  Thank you very much for using Q-Chem.  Have a nice day.  *
        *                                                           *
        *************************************************************


0 sent ACK to 0 
now end server 0 ... 
cleanup process ... done
remove work dirs ./qchem2996191.0 -- ./qchem2996191.0
rm -rf ./qchem2996191.0
rm -rf ./qchem2996191
