You are running Q-Chem version: 5.4.0

#
# job setting
#
local host:  exp-4-17
current dir: /expanse/lustre/projects/csd626/rramji/aromodel/PTB7_fin/Rotation_Test
input file:  fin_bdt_Phi_15_Theta_160_fin_ftt.qcin
output file: 
nprocs     : 1
nthreads   : 64
#
# qchem installation setting
#
QC:          /cm/shared/apps/spack/cpu/opt/spack/linux-centos8-zen2/gcc-10.2.0/qchem-5.4-akfmr7b3t57bfs6qan3padb2wnb2i7cl
QCAUX:       /cm/shared/apps/spack/cpu/opt/spack/linux-centos8-zen2/gcc-10.2.0/qchem-5.4-akfmr7b3t57bfs6qan3padb2wnb2i7cl/qcaux
QCPROG:      /cm/shared/apps/spack/cpu/opt/spack/linux-centos8-zen2/gcc-10.2.0/qchem-5.4-akfmr7b3t57bfs6qan3padb2wnb2i7cl/exe/qcprog.exe
QCPROG_S:    /cm/shared/apps/spack/cpu/opt/spack/linux-centos8-zen2/gcc-10.2.0/qchem-5.4-akfmr7b3t57bfs6qan3padb2wnb2i7cl/exe/qcprog.exe_s
PARALLEL:    -DPARALLEL
QCMPI:       mpich
#
# qchem directory setting
#
qcrun:       qchem1301292
QCSCRATCH:   .
QCLOCALSCR:  
QCTMPDIR:    .
QCFILEPREF:  ./qchem1301292
QCSAVEDIR:   
workdirs:    ./qchem1301292
workdir0:    ./qchem1301292
partmpdirs =  
#
# parallel setting
#
QCRSH:           ssh
QCMPI:           mpich
QCMPIRUN:        /cm/shared/apps/spack/cpu/opt/spack/linux-centos8-zen2/gcc-10.2.0/qchem-5.4-akfmr7b3t57bfs6qan3padb2wnb2i7cl/bin/mpi/mpirun_qchem
QCMACHINEFILE:   ./qchem1301292/hostfile
exp-4-17

#
# env setting
#
exported envs:   QC QCAUX QCSCRATCH QCRUNNAME QCFILEPREF QCPROG QCPROG_S GUIFILE

Running Job 1 of 1 fin_bdt_Phi_15_Theta_160_fin_ftt.qcin
qchem fin_bdt_Phi_15_Theta_160_fin_ftt.qcin_1301292.0 ./qchem1301292/ 1
/cm/shared/apps/spack/cpu/opt/spack/linux-centos8-zen2/gcc-10.2.0/qchem-5.4-akfmr7b3t57bfs6qan3padb2wnb2i7cl/bin/mpi/mpirun_qchem -machinefile ./qchem1301292/hostfile -np 1 /cm/shared/apps/spack/cpu/opt/spack/linux-centos8-zen2/gcc-10.2.0/qchem-5.4-akfmr7b3t57bfs6qan3padb2wnb2i7cl/exe/qcprog.exe fin_bdt_Phi_15_Theta_160_fin_ftt.qcin_1301292.0 ./qchem1301292/

Process 0 of 1 is on exp-4-17 - thread support 0
initial socket setup ...start
initial socket setup ...done 
now start server 0 ... 
                  Welcome to Q-Chem
     A Quantum Leap Into The Future Of Chemistry


 Q-Chem 5.4, Q-Chem, Inc., Pleasanton, CA (2021)

 License issued to: University of California, San Diego (site)

 E. Epifanovsky,  A. T. B. Gilbert,  Xintian Feng,  Joonho Lee,  Yuezhi Mao,  
 N. Mardirossian,  P. Pokhilko,  A. White,  M. Wormit,  M. P. Coons,  
 A. L. Dempwolff,  Zhengting Gan,  D. Hait,  P. R. Horn,  L. D. Jacobson,  
 I. Kaliman,  J. Kussmann,  A. W. Lange,  Ka Un Lao,  D. S. Levine,  Jie Liu,  
 S. C. McKenzie,  A. F. Morrison,  K. Nanda,  F. Plasser,  D. R. Rehn,  
 M. L. Vidal,  Zhi-Qiang You,  Ying Zhu,  B. Alam,  B. Albrecht,  
 A. Aldossary,  E. Alguire,  J. H. Andersen,  D. Barton,  K. Begam,  A. Behn,  
 Y. A. Bernard,  E. J. Berquist,  H. Burton,  A. Carreras,  K. Carter-Fenk,  
 R. Chakraborty,  A. D. Chien,  K. D. Closser,  V. Cofer-Shabica,  
 S. Dasgupta,  Jia Deng,  M. de Wergifosse,  M. Diedenhofen,  Hainam Do,  
 S. Ehlert,  Po-Tung Fang,  S. Fatehi,  Qingguo Feng,  J. Gayvert,  
 Qinghui Ge,  G. Gidofalvi,  M. Goldey,  J. Gomes,  C. Gonzalez-Espinoza,  
 S. Gulania,  A. Gunina,  M. W. D. Hanson-Heine,  P. H. P. Harbach,  
 A. W. Hauser,  M. F. Herbst,  M. Hernandez Vera,  M. Hodecker,  
 Z. C. Holden,  S. Houck,  Xunkun Huang,  Kerwin Hui,  B. C. Huynh,  
 M. Ivanov,  Hyunjun Ji,  Hanjie Jiang,  B. Kaduk,  S. Kaehler,  
 K. Khistyaev,  Jaehoon Kim,  P. Klunzinger,  Z. Koczor-Benda,  
 Joong Hoon Koh,  D. Kosenkov,  L. Koulias,  T. Kowalczyk,  C. M. Krauter,  
 K. Kue,  A. Kunitsa,  T. Kus,  A. Landau,  K. V. Lawler,  D. Lefrancois,  
 S. Lehtola,  Rain Li,  Yi-Pei Li,  Jiashu Liang,  M. Liebenthal,  
 Hung-Hsuan Lin,  You-Sheng Lin,  Fenglai Liu,  Kuan-Yu Liu,  
 M. Loipersberger,  A. Luenser,  A. Manjanath,  P. Manohar,  E. Mansoor,  
 S. F. Manzer,  Shan-Ping Mao,  A. V. Marenich,  T. Markovich,  S. Mason,  
 S. A. Maurer,  P. F. McLaughlin,  M. F. S. J. Menger,  J.-M. Mewes,  
 S. A. Mewes,  P. Morgante,  J. W. Mullinax,  T. S. Nguyen-Beck,  
 K. J. Oosterbaan,  G. Paran,  Alexander C. Paul,  Suranjan K. Paul,  
 F. Pavosevic,  Zheng Pei,  S. Prager,  E. I. Proynov,  E. Ramos,  B. Rana,  
 A. E. Rask,  A. Rettig,  R. M. Richard,  F. Rob,  E. Rossomme,  T. Scheele,  
 M. Scheurer,  M. Schneider,  N. Sergueev,  S. M. Sharada,  W. Skomorowski,  
 D. W. Small,  C. J. Stein,  Yu-Chuan Su,  E. J. Sundstrom,  Zhen Tao,  
 J. Thirman,  T. Tsuchimochi,  N. M. Tubman,  S. P. Veccham,  O. Vydrov,  
 J. Wenzel,  J. Witte,  A. Yamada,  Kun Yao,  S. Yeganeh,  S. R. Yost,  
 A. Zech,  Igor Ying Zhang,  Xing Zhang,  Yu Zhang,  D. Zuev,  
 A. Aspuru-Guzik,  A. T. Bell,  N. A. Besley,  K. B. Bravaya,  B. R. Brooks,  
 D. Casanova,  Jeng-Da Chai,  S. Coriani,  C. J. Cramer,  
 A. E. DePrince, III,  R. A. DiStasio Jr.,  A. Dreuw,  B. D. Dunietz,  
 T. R. Furlani,  W. A. Goddard III,  S. Grimme,  S. Hammes-Schiffer,  
 T. Head-Gordon,  W. J. Hehre,  Chao-Ping Hsu,  T.-C. Jagau,  Yousung Jung,  
 A. Klamt,  Jing Kong,  D. S. Lambrecht,  WanZhen Liang,  N. J. Mayhall,  
 C. W. McCurdy,  J. B. Neaton,  C. Ochsenfeld,  J. A. Parkhill,  R. Peverati,  
 V. A. Rassolov,  Yihan Shao,  L. V. Slipchenko,  T. Stauch,  R. P. Steele,  
 J. E. Subotnik,  A. J. W. Thom,  A. Tkatchenko,  D. G. Truhlar,  
 T. Van Voorhis,  T. A. Wesolowski,  K. B. Whaley,  H. L. Woodcock III,  
 P. M. Zimmerman,  S. Faraji,  P. M. W. Gill,  M. Head-Gordon,  
 J. M. Herbert,  A. I. Krylov

 Contributors to earlier versions of Q-Chem not listed above: 
 R. D. Adamson,  B. Austin,  R. Baer,  J. Baker,  G. J. O. Beran,  
 K. Brandhorst,  S. T. Brown,  E. F. C. Byrd,  A. K. Chakraborty,  
 G. K. L. Chan,  Chun-Min Chang,  Yunqing Chen,  C.-L. Cheng,  
 Siu Hung Chien,  D. M. Chipman,  D. L. Crittenden,  H. Dachsel,  
 R. J. Doerksen,  A. D. Dutoi,  R. G. Edgar,  J. Fosso-Tande,  
 L. Fusti-Molnar,  D. Ghosh,  A. Ghysels,  A. Golubeva-Zadorozhnaya,  
 J. Gonthier,  M. S. Gordon,  S. R. Gwaltney,  G. Hawkins,  J. E. Herr,  
 A. Heyden,  S. Hirata,  E. G. Hohenstein,  G. Kedziora,  F. J. Keil,  
 C. Kelley,  Jihan Kim,  R. A. King,  R. Z. Khaliullin,  P. P. Korambath,  
 W. Kurlancheek,  A. Laurent,  A. M. Lee,  M. S. Lee,  S. V. Levchenko,  
 Ching Yeh Lin,  D. Liotard,  E. Livshits,  R. C. Lochan,  I. Lotan,  
 L. A. Martinez-Martinez,  P. E. Maslen,  N. Nair,  D. P. O'Neill,  
 D. Neuhauser,  E. Neuscamman,  C. M. Oana,  R. Olivares-Amaya,  R. Olson,  
 T. M. Perrine,  B. Peters,  P. A. Pieniazek,  A. Prociuk,  Y. M. Rhee,  
 J. Ritchie,  M. A. Rohrdanz,  E. Rosta,  N. J. Russ,  H. F. Schaefer III,  
 M. W. Schmidt,  N. E. Schultz,  S. Sharma,  N. Shenvi,  C. D. Sherrill,  
 A. C. Simmonett,  A. Sodt,  T. Stein,  D. Stuck,  K. S. Thanthiriwatte,  
 V. Vanovschi,  L. Vogt,  Tao Wang,  A. Warshel,  M. A. Watson,  
 C. F. Williams,  Q. Wu,  X. Xu,  Jun Yang,  W. Zhang,  Yan Zhao

 Please cite Q-Chem as follows:
 Y. Shao et al., Mol. Phys. 113, 184-215 (2015)
 DOI: 10.1080/00268976.2014.952696

 Q-Chem 5.4.0 for Intel X86 EM64T Linux

 Parts of Q-Chem use Armadillo 9.800.1 (Horizon Scraper).
 http://arma.sourceforge.net/

 Q-Chem begins on Tue Sep 26 18:50:12 2023  

 Host: 
0

     Scratch files written to ./qchem1301292//
 May1621 |scratch|qcdevops|jenkins|workspace|build_RNUM    
 Parallel job on  1  processors
 Processing $rem in /cm/shared/apps/spack/cpu/opt/spack/linux-centos8-zen2/gcc-10.2.0/qchem-5.4-akfmr7b3t57bfs6qan3padb2wnb2i7cl/config/preferences:
 Processing $rem in /home/rramji/.qchemrc:
 Symmetry turned off for PCM/SM12/SMD calculation
 Core orbitals will be frozen

 Checking the input file for inconsistencies... 	...done.

 Q-Chem warning in module forms1/BasisType.C, line 2236:

 You are not using the predefined 5D/6D in this basis set.


--------------------------------------------------------------
User input:
--------------------------------------------------------------
$molecule
0 1
C	-0.046574	-8.519741	-0.268090
C	0.326886	-7.635967	0.733920
S	-0.595708	-7.651740	-1.722318
C	0.193236	-6.261894	0.371516
H	0.692700	-7.954738	1.718130
C	-0.294958	-6.079985	-0.970283
C	-0.515487	-4.798382	-1.498243
C	0.477358	-5.153542	1.219725
C	0.252655	-3.869626	0.692914
C	-0.233366	-3.688927	-0.651289
O	0.957369	-5.481075	2.451623
O	-0.998769	-4.479871	-2.735264
C	-0.752029	-5.356026	-3.828387
H	-1.012675	-4.790496	-4.743213
H	-1.386303	-6.268513	-3.788623
H	0.316492	-5.658187	-3.877260
C	0.881930	-4.546999	3.521580
H	1.145969	-5.107564	4.438260
H	-0.142712	-4.131473	3.631868
H	1.605610	-3.712085	3.399425
C	-0.367928	-2.314326	-1.009535
S	0.542088	-2.295487	1.450945
C	0.000000	-1.435180	0.000000
H	-0.730999	-1.993211	-1.993920
H	-0.046991	-9.615985	-0.262047
C	0.000000	0.000000	0.000000
S	0.234946	0.868203	1.510732
C	0.641630	2.390125	0.727629
C	0.235036	0.877284	-1.064665
C	0.593019	2.219143	-0.678287
C	0.219452	0.812732	-2.486150
C	0.546689	2.034501	-3.106916
S	0.866345	3.240357	-1.965735
C	0.617067	2.279095	-4.559972
O	0.378342	1.376631	-5.350277
O	0.952308	3.517725	-5.004375
F	-0.065123	-0.264443	-3.246290
C	1.054950	3.861577	-6.334976
H	1.341516	4.928732	-6.370268
H	0.093573	3.716085	-6.875609
H	1.822303	3.252232	-6.861878
H	0.879812	3.278780	1.321510
$end

$rem
JOBTYPE		SP
EXCHANGE	HF
CORRELATION	pRIMP2
BASIS		cc-pvtz
METHOD		rimp2
AUX_BASIS	rimp2-cc-pvtz
SOLVENT_METHOD	PCM
PURECART	11111
SYMMETRY	false
MEM_TOTAL	110000
SCF_CONVERGENCE = 6
THRESH=10
GUI = 2
$end



$solvent
dielectric 4.90
$end
--------------------------------------------------------------
 ----------------------------------------------------------------
             Standard Nuclear Orientation (Angstroms)
    I     Atom           X                Y                Z
 ----------------------------------------------------------------
    1      C      -0.0465740000    -8.5197410000    -0.2680900000
    2      C       0.3268860000    -7.6359670000     0.7339200000
    3      S      -0.5957080000    -7.6517400000    -1.7223180000
    4      C       0.1932360000    -6.2618940000     0.3715160000
    5      H       0.6927000000    -7.9547380000     1.7181300000
    6      C      -0.2949580000    -6.0799850000    -0.9702830000
    7      C      -0.5154870000    -4.7983820000    -1.4982430000
    8      C       0.4773580000    -5.1535420000     1.2197250000
    9      C       0.2526550000    -3.8696260000     0.6929140000
   10      C      -0.2333660000    -3.6889270000    -0.6512890000
   11      O       0.9573690000    -5.4810750000     2.4516230000
   12      O      -0.9987690000    -4.4798710000    -2.7352640000
   13      C      -0.7520290000    -5.3560260000    -3.8283870000
   14      H      -1.0126750000    -4.7904960000    -4.7432130000
   15      H      -1.3863030000    -6.2685130000    -3.7886230000
   16      H       0.3164920000    -5.6581870000    -3.8772600000
   17      C       0.8819300000    -4.5469990000     3.5215800000
   18      H       1.1459690000    -5.1075640000     4.4382600000
   19      H      -0.1427120000    -4.1314730000     3.6318680000
   20      H       1.6056100000    -3.7120850000     3.3994250000
   21      C      -0.3679280000    -2.3143260000    -1.0095350000
   22      S       0.5420880000    -2.2954870000     1.4509450000
   23      C       0.0000000000    -1.4351800000     0.0000000000
   24      H      -0.7309990000    -1.9932110000    -1.9939200000
   25      H      -0.0469910000    -9.6159850000    -0.2620470000
   26      C       0.0000000000     0.0000000000     0.0000000000
   27      S       0.2349460000     0.8682030000     1.5107320000
   28      C       0.6416300000     2.3901250000     0.7276290000
   29      C       0.2350360000     0.8772840000    -1.0646650000
   30      C       0.5930190000     2.2191430000    -0.6782870000
   31      C       0.2194520000     0.8127320000    -2.4861500000
   32      C       0.5466890000     2.0345010000    -3.1069160000
   33      S       0.8663450000     3.2403570000    -1.9657350000
   34      C       0.6170670000     2.2790950000    -4.5599720000
   35      O       0.3783420000     1.3766310000    -5.3502770000
   36      O       0.9523080000     3.5177250000    -5.0043750000
   37      F      -0.0651230000    -0.2644430000    -3.2462900000
   38      C       1.0549500000     3.8615770000    -6.3349760000
   39      H       1.3415160000     4.9287320000    -6.3702680000
   40      H       0.0935730000     3.7160850000    -6.8756090000
   41      H       1.8223030000     3.2522320000    -6.8618780000
   42      H       0.8798120000     3.2787800000     1.3215100000
 ----------------------------------------------------------------
 Nuclear Repulsion Energy =        3313.15968671 hartrees
 There are      119 alpha and      119 beta electrons
 Requested basis set is cc-pVTZ
 There are 376 shells and 1068 basis functions

 Total QAlloc Memory Limit 110000 MB
 Mega-Array Size       188 MB
 MEM_STATIC part       192 MB
 Discretize the solute cavity surface with Lebedev spheres
	Using 110 Lebedev grid points for each H atom
	Using 194 Lebedev grid points for other atoms
	Atomic van der Waals radii will be scaled by 1.20
 Remove points where switching function is < 1.0e-08
 Keep 2854 surface tesserae and discard 4202 interior tesserae
 Molecular Surface Area = 434.061 Angst**2
 Requested basis set is rimp2-cc-pVTZ
 There are 833 shells and 2903 basis functions
 A cutoff of  1.0D-10 yielded  31465 shell pairs
 There are    241563 function pairs (    313591 Cartesian)
 Smallest overlap matrix eigenvalue = 2.18E-05

 Scale SEOQF with 1.000000e-01/1.000000e-02/1.000000e-02

 Standard Electronic Orientation quadrupole field applied
 Nucleus-field energy     =     0.0000000158 hartrees
 Guess from superposition of atomic densities
 Warning:  Energy on first SCF cycle will be non-variational
 SAD guess density has 238.000000 electrons

 -----------------------------------------------------------------------
  General SCF calculation program by
  Eric Jon Sundstrom, Paul Horn, Yuezhi Mao, Dmitri Zuev, Alec White,
  David Stuck, Shaama M.S., Shane Yost, Joonho Lee, David Small,
  Daniel Levine, Susi Lehtola, Hugh Burton, Evgeny Epifanovsky,
  Bang C. Huynh
 -----------------------------------------------------------------------
 Hartree-Fock
 using 64 threads for integral computing
 -------------------------------------------------------
 OpenMP Integral computing Module                
 Release: version 1.0, May 2013, Q-Chem Inc. Pittsburgh 
 -------------------------------------------------------
 A restricted SCF calculation will be
 performed using DIIS
 SCF converges when DIIS error is below 1.0e-06
 ---------------------------------------
  Cycle       Energy         DIIS error
 ---------------------------------------
    1   -2765.5637159080      1.77e-02  
    2   -2753.8552623790      1.57e-03  
    3   -2754.1959346339      8.82e-04  
    4   -2754.2803695182      2.55e-04  
    5   -2754.2920584142      6.84e-05  
    6   -2754.2931562746      2.41e-05  
    7   -2754.2934037568      1.16e-05  
    8   -2754.2934856025      4.48e-06  
    9   -2754.2935017166      1.89e-06  
   10   -2754.2935039761      7.98e-07  Convergence criterion met
 ---------------------------------------
 SCF time:   CPU 6664.20s  wall 250.00s 

************** Final PCM Free Energy Summary **************
 G_electrostatic  =      -0.01887286 hartree =     -11.84289689 kcal/mol
 G_cavitation     =       0.00000000 hartree =       0.00000000 kcal/mol
 G_dispersion     =       0.00000000 hartree =       0.00000000 kcal/mol
 G_repulsion      =       0.00000000 hartree =       0.00000000 kcal/mol
 --------------------------------------------------
 Non-electrostatic Free Energy =       0.00000000 hartree =       0.00000000 kcal/mol
 Total                         =      -0.01887286 hartree =     -11.84289689 kcal/mol
 --------------------------------------------------
 SCF Energy (H0 + V/2)                       =   -2754.29350398 
 Solute Internal Energy (H0)                 =   -2754.27463112 
 Total Free Energy (H0 + V/2 + non-elec)     =   -2754.29350398 hartree
                                             = -1728345.25965878 kcal/mol
***********************************************************

 SCF   energy in the final basis set =    -2754.2935039761
 Total energy in the final basis set =    -2754.2935039761


 --------------------------------------------------------------
  Generalized many-body perturbation theory program
  by Joonho Lee, Fazle Rob, Xintian Feng, Evgeny Epifanovsky

 No regularization used 
 (reg. param. = 0.0000e+00)
  (P|Q)^-1/2 Time:  CPU 260.22 s  wall 4.78 s

 In RI-MP2 calculation: 
 # of frozen core orbitals: 45

 Components of the RIMP2 correlation energy:
        aaaa    correlation energy =        -0.6716347686 a.u.
        abab    correlation energy =        -3.7129582146 a.u.
        bbbb    correlation energy =        -0.6716347686 a.u.
        non-Brillouin singles      =        -0.0000000000 a.u.
        total same-spin energy     =        -1.3432695372 a.u.
        total opposite-spin energy =        -3.7129582146 a.u.

 Total  RIMP2   correlation energy =        -5.0562277518 a.u.
        RIMP2         total energy =     -2759.3497317279 a.u.

 RI-MP2 Energy Time:  CPU 2917.11 s  wall 48.35 s
 
 --------------------------------------------------------------
 
                    Orbital Energies (a.u.)
 --------------------------------------------------------------
 
 Alpha MOs
 -- Occupied --
-92.0162 -91.9955 -91.9914 -91.9868 -26.3372 -20.6119 -20.5930 -20.5913
-20.5498 -11.4102 -11.3785 -11.3200 -11.3187 -11.3127 -11.2978 -11.2971
-11.2963 -11.2935 -11.2885 -11.2878 -11.2874 -11.2853 -11.2846 -11.2820
-11.2804 -11.2619 -11.2600 -11.2565 -11.2503  -9.0147  -8.9994  -8.9920
 -8.9867  -6.6955  -6.6949  -6.6944  -6.6807  -6.6800  -6.6787  -6.6729
 -6.6723  -6.6713  -6.6677  -6.6670  -6.6662  -1.6511  -1.4717  -1.4171
 -1.4140  -1.3670  -1.2342  -1.1970  -1.1697  -1.1427  -1.0847  -1.0528
 -1.0484  -1.0284  -1.0036  -0.9939  -0.9726  -0.9611  -0.9507  -0.9384
 -0.8970  -0.8699  -0.8517  -0.8061  -0.7959  -0.7887  -0.7722  -0.7698
 -0.7579  -0.7328  -0.7208  -0.7186  -0.7017  -0.6896  -0.6844  -0.6785
 -0.6725  -0.6622  -0.6595  -0.6525  -0.6295  -0.6201  -0.6161  -0.6064
 -0.6005  -0.5947  -0.5885  -0.5765  -0.5690  -0.5601  -0.5549  -0.5477
 -0.5375  -0.5274  -0.5223  -0.5201  -0.5175  -0.5095  -0.5053  -0.4961
 -0.4859  -0.4846  -0.4792  -0.4683  -0.4620  -0.4613  -0.4594  -0.4231
 -0.3982  -0.3860  -0.3593  -0.3507  -0.3251  -0.2853  -0.2478
 -- Virtual --
  0.0100   0.0789   0.1145   0.1232   0.1309   0.1479   0.1514   0.1554
  0.1558   0.1615   0.1622   0.1809   0.1867   0.1877   0.1924   0.1976
  0.2027   0.2077   0.2129   0.2186   0.2216   0.2233   0.2235   0.2286
  0.2360   0.2446   0.2474   0.2553   0.2632   0.2700   0.2757   0.2837
  0.3035   0.3058   0.3212   0.3322   0.3370   0.3434   0.3504   0.3525
  0.3570   0.3615   0.3677   0.3730   0.3770   0.3800   0.3851   0.3853
  0.3874   0.3944   0.3969   0.4065   0.4098   0.4160   0.4204   0.4228
  0.4317   0.4332   0.4372   0.4431   0.4448   0.4483   0.4518   0.4560
  0.4570   0.4645   0.4727   0.4778   0.4817   0.4852   0.4881   0.4922
  0.4965   0.4986   0.5038   0.5072   0.5134   0.5186   0.5222   0.5267
  0.5306   0.5317   0.5356   0.5417   0.5435   0.5475   0.5536   0.5568
  0.5582   0.5628   0.5633   0.5666   0.5697   0.5717   0.5785   0.5813
  0.5842   0.5892   0.5907   0.5976   0.6010   0.6037   0.6050   0.6125
  0.6160   0.6183   0.6194   0.6260   0.6267   0.6290   0.6314   0.6359
  0.6371   0.6404   0.6451   0.6522   0.6541   0.6587   0.6613   0.6685
  0.6728   0.6771   0.6808   0.6850   0.6928   0.6963   0.7023   0.7092
  0.7111   0.7204   0.7264   0.7325   0.7375   0.7443   0.7515   0.7575
  0.7579   0.7651   0.7761   0.7808   0.7831   0.7908   0.7961   0.8015
  0.8025   0.8119   0.8148   0.8209   0.8283   0.8315   0.8369   0.8499
  0.8554   0.8578   0.8624   0.8740   0.8746   0.8797   0.8877   0.8970
  0.9011   0.9032   0.9080   0.9123   0.9187   0.9214   0.9267   0.9313
  0.9325   0.9381   0.9405   0.9488   0.9553   0.9605   0.9637   0.9685
  0.9743   0.9826   0.9858   0.9865   0.9937   0.9954   0.9983   1.0011
  1.0048   1.0093   1.0148   1.0203   1.0273   1.0316   1.0371   1.0436
  1.0479   1.0489   1.0571   1.0606   1.0664   1.0692   1.0768   1.0808
  1.0854   1.0888   1.0932   1.0976   1.1020   1.1071   1.1160   1.1182
  1.1212   1.1279   1.1360   1.1427   1.1472   1.1525   1.1541   1.1626
  1.1647   1.1703   1.1712   1.1783   1.1826   1.1851   1.1890   1.1921
  1.1994   1.2028   1.2081   1.2126   1.2192   1.2206   1.2242   1.2325
  1.2354   1.2407   1.2498   1.2525   1.2595   1.2638   1.2681   1.2702
  1.2747   1.2907   1.2921   1.2980   1.3045   1.3104   1.3111   1.3203
  1.3286   1.3369   1.3386   1.3490   1.3541   1.3552   1.3568   1.3675
  1.3728   1.3750   1.3835   1.3868   1.3893   1.4016   1.4102   1.4235
  1.4288   1.4394   1.4480   1.4569   1.4688   1.4711   1.4755   1.4858
  1.4905   1.4999   1.5057   1.5120   1.5132   1.5135   1.5249   1.5290
  1.5302   1.5343   1.5444   1.5475   1.5514   1.5542   1.5561   1.5683
  1.5764   1.5847   1.5952   1.5994   1.6123   1.6163   1.6249   1.6337
  1.6393   1.6489   1.6538   1.6591   1.6643   1.6647   1.6763   1.6870
  1.6884   1.6992   1.7062   1.7143   1.7266   1.7336   1.7408   1.7484
  1.7621   1.7660   1.7723   1.7832   1.7888   1.8024   1.8114   1.8190
  1.8215   1.8335   1.8420   1.8474   1.8578   1.8657   1.8690   1.8713
  1.8825   1.8924   1.9051   1.9115   1.9172   1.9238   1.9251   1.9321
  1.9396   1.9468   1.9511   1.9582   1.9686   1.9748   1.9803   1.9909
  1.9990   2.0166   2.0231   2.0251   2.0292   2.0362   2.0508   2.0684
  2.0765   2.0909   2.1023   2.1144   2.1192   2.1282   2.1412   2.1488
  2.1571   2.1610   2.1637   2.1677   2.1704   2.1776   2.1906   2.1928
  2.1948   2.1978   2.2115   2.2140   2.2212   2.2252   2.2393   2.2443
  2.2546   2.2574   2.2609   2.2718   2.2779   2.2818   2.2860   2.2891
  2.3075   2.3107   2.3152   2.3220   2.3378   2.3448   2.3501   2.3646
  2.3770   2.3822   2.3847   2.3955   2.4003   2.4165   2.4214   2.4267
  2.4347   2.4442   2.4539   2.4643   2.4690   2.4802   2.4870   2.4903
  2.5004   2.5177   2.5245   2.5293   2.5373   2.5510   2.5577   2.5655
  2.5722   2.5831   2.5937   2.5989   2.6114   2.6153   2.6210   2.6228
  2.6255   2.6286   2.6370   2.6404   2.6504   2.6607   2.6642   2.6702
  2.6787   2.6875   2.6939   2.6977   2.7032   2.7083   2.7116   2.7238
  2.7289   2.7319   2.7363   2.7420   2.7474   2.7549   2.7579   2.7711
  2.7806   2.7826   2.7881   2.7993   2.8059   2.8098   2.8220   2.8273
  2.8300   2.8368   2.8450   2.8476   2.8479   2.8572   2.8709   2.8753
  2.8785   2.8843   2.8894   2.8966   2.9021   2.9108   2.9252   2.9345
  2.9477   2.9587   2.9622   2.9714   2.9772   2.9833   2.9929   3.0045
  3.0131   3.0146   3.0240   3.0284   3.0343   3.0354   3.0443   3.0467
  3.0492   3.0606   3.0744   3.0852   3.0890   3.0910   3.0967   3.1030
  3.1049   3.1131   3.1173   3.1190   3.1320   3.1390   3.1431   3.1490
  3.1560   3.1574   3.1626   3.1672   3.1725   3.1778   3.1841   3.1900
  3.1907   3.2009   3.2041   3.2085   3.2132   3.2197   3.2271   3.2294
  3.2379   3.2396   3.2497   3.2525   3.2596   3.2626   3.2646   3.2721
  3.2774   3.2799   3.2844   3.2870   3.2891   3.2941   3.2969   3.3016
  3.3087   3.3186   3.3223   3.3291   3.3352   3.3422   3.3439   3.3474
  3.3512   3.3579   3.3602   3.3622   3.3635   3.3696   3.3716   3.3764
  3.3842   3.3885   3.3941   3.3979   3.4005   3.4052   3.4154   3.4218
  3.4236   3.4309   3.4349   3.4394   3.4431   3.4465   3.4487   3.4538
  3.4592   3.4608   3.4653   3.4730   3.4773   3.4827   3.4857   3.5061
  3.5090   3.5113   3.5201   3.5240   3.5274   3.5283   3.5310   3.5381
  3.5441   3.5496   3.5570   3.5667   3.5697   3.5746   3.5774   3.5806
  3.5898   3.5912   3.5977   3.6016   3.6026   3.6095   3.6124   3.6209
  3.6304   3.6335   3.6384   3.6429   3.6506   3.6511   3.6543   3.6643
  3.6649   3.6691   3.6764   3.6811   3.6827   3.6871   3.6929   3.7014
  3.7070   3.7092   3.7144   3.7183   3.7248   3.7287   3.7318   3.7325
  3.7443   3.7491   3.7547   3.7602   3.7648   3.7681   3.7765   3.7858
  3.7934   3.7938   3.8008   3.8134   3.8181   3.8225   3.8243   3.8310
  3.8407   3.8412   3.8495   3.8585   3.8657   3.8666   3.8681   3.8728
  3.8742   3.8816   3.8901   3.9046   3.9131   3.9150   3.9231   3.9249
  3.9301   3.9461   3.9473   3.9569   3.9601   3.9760   3.9822   3.9843
  3.9923   3.9969   4.0084   4.0146   4.0189   4.0309   4.0333   4.0439
  4.0515   4.0571   4.0630   4.0675   4.0711   4.0845   4.0911   4.0940
  4.0976   4.1019   4.1076   4.1235   4.1364   4.1442   4.1483   4.1530
  4.1573   4.1696   4.1721   4.1783   4.1885   4.1907   4.1968   4.2033
  4.2086   4.2143   4.2368   4.2384   4.2481   4.2619   4.2705   4.2783
  4.2850   4.3002   4.3141   4.3240   4.3306   4.3406   4.3437   4.3484
  4.3589   4.3637   4.3713   4.3763   4.3798   4.3903   4.4000   4.4056
  4.4092   4.4114   4.4159   4.4257   4.4324   4.4330   4.4450   4.4516
  4.4566   4.4740   4.4871   4.4926   4.4961   4.5034   4.5095   4.5158
  4.5252   4.5322   4.5429   4.5569   4.5583   4.5677   4.5841   4.6000
  4.6056   4.6197   4.6261   4.6300   4.6348   4.6396   4.6457   4.6591
  4.6597   4.6676   4.6804   4.6834   4.6965   4.7009   4.7178   4.7286
  4.7375   4.7460   4.7519   4.7632   4.7784   4.7939   4.8051   4.8079
  4.8219   4.8309   4.8369   4.8511   4.8578   4.8847   4.9123   4.9232
  4.9413   4.9501   4.9553   4.9650   4.9693   4.9934   4.9967   5.0044
  5.0063   5.0120   5.0230   5.0403   5.0501   5.0651   5.0740   5.0773
  5.0891   5.1131   5.1309   5.1561   5.1738   5.1786   5.1934   5.1986
  5.2072   5.2181   5.2278   5.2498   5.2542   5.2592   5.2801   5.2970
  5.3005   5.3140   5.3166   5.3284   5.3428   5.3553   5.3565   5.3661
  5.3840   5.3947   5.3989   5.4029   5.4257   5.4289   5.4631   5.4731
  5.4747   5.4782   5.5023   5.5069   5.5146   5.5224   5.5541   5.5698
  5.5793   5.5878   5.5967   5.6065   5.6179   5.6339   5.6433   5.6994
  5.7196   5.7422   5.7678   5.8009   5.8137   5.8320   5.8541   5.8628
  5.8725   5.8832   5.9591   5.9689   5.9699   5.9800   6.0073   6.0429
  6.0636   6.1183   6.1337   6.1344   6.1657   6.1703   6.1851   6.1862
  6.2408   6.2566   6.2743   6.2768   6.3087   6.3131   6.3184   6.4028
  6.4432   6.4578   6.4971   6.5377   6.5545   6.5566   6.5606   6.6521
  6.6769   6.6835   6.7213   6.7407   6.7538   6.8026   6.8504   6.8606
  6.8847   6.8932   6.9914   7.1199   7.1386   7.1786   7.2118   7.2154
  7.2343   7.3209   7.3267   7.3323   7.3705   7.3771   7.4321   7.4627
  7.4784   7.4838   7.4888   7.5283   7.5499   7.6108   7.7193   7.7674
  7.7967   7.8318   7.9034   7.9210   7.9479   8.0072   8.0873   8.1808
  8.6046   8.9327   9.0397   9.3631   9.5042   9.7159  10.1996  10.6538
 11.2662  11.3446  11.9505  12.0068  12.1342  12.2583  12.3616  12.5883
 12.6793  12.7488  12.9537  13.2112  13.2825  13.5674  13.8473  13.8919
 13.9079  14.0357  14.1546  14.7808  15.2096
 --------------------------------------------------------------
 
          Ground-State Mulliken Net Atomic Charges

     Atom                 Charge (a.u.)
  ----------------------------------------
      1 C                    -0.187042
      2 C                    -0.255232
      3 S                    -0.020386
      4 C                    -0.012759
      5 H                     0.196372
      6 C                    -0.029072
      7 C                     0.248207
      8 C                     0.240616
      9 C                    -0.041344
     10 C                    -0.030727
     11 O                    -0.333082
     12 O                    -0.339078
     13 C                    -0.086083
     14 H                     0.124185
     15 H                     0.091114
     16 H                     0.094034
     17 C                    -0.088228
     18 H                     0.125838
     19 H                     0.094899
     20 H                     0.089640
     21 C                    -0.220450
     22 S                    -0.031648
     23 C                    -0.043014
     24 H                     0.201771
     25 H                     0.206739
     26 C                     0.007387
     27 S                     0.086708
     28 C                    -0.231021
     29 C                    -0.056156
     30 C                    -0.022127
     31 C                     0.375966
     32 C                    -0.139005
     33 S                     0.040619
     34 C                     0.457974
     35 O                    -0.451207
     36 O                    -0.298015
     37 F                    -0.214151
     38 C                    -0.054897
     39 H                     0.116637
     40 H                     0.084450
     41 H                     0.084390
     42 H                     0.217179
  ----------------------------------------
  Sum of atomic charges =     0.000000

 -----------------------------------------------------------------
                    Cartesian Multipole Moments
 -----------------------------------------------------------------
    Charge (ESU x 10^10)
                -0.0000
    Dipole Moment (Debye)
         X       1.1625      Y       1.3135      Z       3.1323
       Tot       3.5900
    Quadrupole Moments (Debye-Ang)
        XX    -200.4953     XY       2.8040     YY    -158.4877
        XZ       0.1341     YZ      -9.1437     ZZ    -181.4923
    Octopole Moments (Debye-Ang^2)
       XXX    -130.7232    XXY     402.4077    XYY     -22.3015
       YYY     890.6993    XXZ     191.6372    XYZ     -27.8352
       YYZ     132.0186    XZZ     -11.7287    YZZ     385.7812
       ZZZ     592.3678
    Hexadecapole Moments (Debye-Ang^3)
      XXXX    -664.2398   XXXY    -478.2217   XXYY   -3934.5332
      XYYY    -413.1889   YYYY  -18397.1872   XXXZ      37.5917
      XXYZ     270.9193   XYYZ      50.4174   YYYZ     784.3017
      XXZZ   -1386.2659   XYZZ     -19.8549   YYZZ   -3998.7881
      XZZZ     -55.0646   YZZZ     249.6534   ZZZZ   -7407.5421
 -----------------------------------------------------------------
 Total job time:  304.44s(wall), 9758.61s(cpu) 
 Tue Sep 26 18:55:17 2023

        *************************************************************
        *                                                           *
        *  Thank you very much for using Q-Chem.  Have a nice day.  *
        *                                                           *
        *************************************************************


0 sent ACK to 0 
now end server 0 ... 
cleanup process ... done
remove work dirs ./qchem1301292.0 -- ./qchem1301292.0
rm -rf ./qchem1301292.0
rm -rf ./qchem1301292
