You are running Q-Chem version: 5.4.0

#
# job setting
#
local host:  exp-1-48
current dir: /expanse/lustre/projects/csd626/rramji/aromodel/PTB7_fin/Rotation_Test
input file:  fin_bdt_Phi_25_Theta_230_fin_ftt.qcin
output file: 
nprocs     : 1
nthreads   : 64
#
# qchem installation setting
#
QC:          /cm/shared/apps/spack/cpu/opt/spack/linux-centos8-zen2/gcc-10.2.0/qchem-5.4-akfmr7b3t57bfs6qan3padb2wnb2i7cl
QCAUX:       /cm/shared/apps/spack/cpu/opt/spack/linux-centos8-zen2/gcc-10.2.0/qchem-5.4-akfmr7b3t57bfs6qan3padb2wnb2i7cl/qcaux
QCPROG:      /cm/shared/apps/spack/cpu/opt/spack/linux-centos8-zen2/gcc-10.2.0/qchem-5.4-akfmr7b3t57bfs6qan3padb2wnb2i7cl/exe/qcprog.exe
QCPROG_S:    /cm/shared/apps/spack/cpu/opt/spack/linux-centos8-zen2/gcc-10.2.0/qchem-5.4-akfmr7b3t57bfs6qan3padb2wnb2i7cl/exe/qcprog.exe_s
PARALLEL:    -DPARALLEL
QCMPI:       mpich
#
# qchem directory setting
#
qcrun:       qchem178732
QCSCRATCH:   .
QCLOCALSCR:  
QCTMPDIR:    .
QCFILEPREF:  ./qchem178732
QCSAVEDIR:   
workdirs:    ./qchem178732
workdir0:    ./qchem178732
partmpdirs =  
#
# parallel setting
#
QCRSH:           ssh
QCMPI:           mpich
QCMPIRUN:        /cm/shared/apps/spack/cpu/opt/spack/linux-centos8-zen2/gcc-10.2.0/qchem-5.4-akfmr7b3t57bfs6qan3padb2wnb2i7cl/bin/mpi/mpirun_qchem
QCMACHINEFILE:   ./qchem178732/hostfile
exp-1-48

#
# env setting
#
exported envs:   QC QCAUX QCSCRATCH QCRUNNAME QCFILEPREF QCPROG QCPROG_S GUIFILE

Running Job 1 of 1 fin_bdt_Phi_25_Theta_230_fin_ftt.qcin
qchem fin_bdt_Phi_25_Theta_230_fin_ftt.qcin_178732.0 ./qchem178732/ 1
/cm/shared/apps/spack/cpu/opt/spack/linux-centos8-zen2/gcc-10.2.0/qchem-5.4-akfmr7b3t57bfs6qan3padb2wnb2i7cl/bin/mpi/mpirun_qchem -machinefile ./qchem178732/hostfile -np 1 /cm/shared/apps/spack/cpu/opt/spack/linux-centos8-zen2/gcc-10.2.0/qchem-5.4-akfmr7b3t57bfs6qan3padb2wnb2i7cl/exe/qcprog.exe fin_bdt_Phi_25_Theta_230_fin_ftt.qcin_178732.0 ./qchem178732/

Process 0 of 1 is on exp-1-48 - thread support 0
initial socket setup ...start
initial socket setup ...done 
now start server 0 ... 
                  Welcome to Q-Chem
     A Quantum Leap Into The Future Of Chemistry


 Q-Chem 5.4, Q-Chem, Inc., Pleasanton, CA (2021)

 License issued to: University of California, San Diego (site)

 E. Epifanovsky,  A. T. B. Gilbert,  Xintian Feng,  Joonho Lee,  Yuezhi Mao,  
 N. Mardirossian,  P. Pokhilko,  A. White,  M. Wormit,  M. P. Coons,  
 A. L. Dempwolff,  Zhengting Gan,  D. Hait,  P. R. Horn,  L. D. Jacobson,  
 I. Kaliman,  J. Kussmann,  A. W. Lange,  Ka Un Lao,  D. S. Levine,  Jie Liu,  
 S. C. McKenzie,  A. F. Morrison,  K. Nanda,  F. Plasser,  D. R. Rehn,  
 M. L. Vidal,  Zhi-Qiang You,  Ying Zhu,  B. Alam,  B. Albrecht,  
 A. Aldossary,  E. Alguire,  J. H. Andersen,  D. Barton,  K. Begam,  A. Behn,  
 Y. A. Bernard,  E. J. Berquist,  H. Burton,  A. Carreras,  K. Carter-Fenk,  
 R. Chakraborty,  A. D. Chien,  K. D. Closser,  V. Cofer-Shabica,  
 S. Dasgupta,  Jia Deng,  M. de Wergifosse,  M. Diedenhofen,  Hainam Do,  
 S. Ehlert,  Po-Tung Fang,  S. Fatehi,  Qingguo Feng,  J. Gayvert,  
 Qinghui Ge,  G. Gidofalvi,  M. Goldey,  J. Gomes,  C. Gonzalez-Espinoza,  
 S. Gulania,  A. Gunina,  M. W. D. Hanson-Heine,  P. H. P. Harbach,  
 A. W. Hauser,  M. F. Herbst,  M. Hernandez Vera,  M. Hodecker,  
 Z. C. Holden,  S. Houck,  Xunkun Huang,  Kerwin Hui,  B. C. Huynh,  
 M. Ivanov,  Hyunjun Ji,  Hanjie Jiang,  B. Kaduk,  S. Kaehler,  
 K. Khistyaev,  Jaehoon Kim,  P. Klunzinger,  Z. Koczor-Benda,  
 Joong Hoon Koh,  D. Kosenkov,  L. Koulias,  T. Kowalczyk,  C. M. Krauter,  
 K. Kue,  A. Kunitsa,  T. Kus,  A. Landau,  K. V. Lawler,  D. Lefrancois,  
 S. Lehtola,  Rain Li,  Yi-Pei Li,  Jiashu Liang,  M. Liebenthal,  
 Hung-Hsuan Lin,  You-Sheng Lin,  Fenglai Liu,  Kuan-Yu Liu,  
 M. Loipersberger,  A. Luenser,  A. Manjanath,  P. Manohar,  E. Mansoor,  
 S. F. Manzer,  Shan-Ping Mao,  A. V. Marenich,  T. Markovich,  S. Mason,  
 S. A. Maurer,  P. F. McLaughlin,  M. F. S. J. Menger,  J.-M. Mewes,  
 S. A. Mewes,  P. Morgante,  J. W. Mullinax,  T. S. Nguyen-Beck,  
 K. J. Oosterbaan,  G. Paran,  Alexander C. Paul,  Suranjan K. Paul,  
 F. Pavosevic,  Zheng Pei,  S. Prager,  E. I. Proynov,  E. Ramos,  B. Rana,  
 A. E. Rask,  A. Rettig,  R. M. Richard,  F. Rob,  E. Rossomme,  T. Scheele,  
 M. Scheurer,  M. Schneider,  N. Sergueev,  S. M. Sharada,  W. Skomorowski,  
 D. W. Small,  C. J. Stein,  Yu-Chuan Su,  E. J. Sundstrom,  Zhen Tao,  
 J. Thirman,  T. Tsuchimochi,  N. M. Tubman,  S. P. Veccham,  O. Vydrov,  
 J. Wenzel,  J. Witte,  A. Yamada,  Kun Yao,  S. Yeganeh,  S. R. Yost,  
 A. Zech,  Igor Ying Zhang,  Xing Zhang,  Yu Zhang,  D. Zuev,  
 A. Aspuru-Guzik,  A. T. Bell,  N. A. Besley,  K. B. Bravaya,  B. R. Brooks,  
 D. Casanova,  Jeng-Da Chai,  S. Coriani,  C. J. Cramer,  
 A. E. DePrince, III,  R. A. DiStasio Jr.,  A. Dreuw,  B. D. Dunietz,  
 T. R. Furlani,  W. A. Goddard III,  S. Grimme,  S. Hammes-Schiffer,  
 T. Head-Gordon,  W. J. Hehre,  Chao-Ping Hsu,  T.-C. Jagau,  Yousung Jung,  
 A. Klamt,  Jing Kong,  D. S. Lambrecht,  WanZhen Liang,  N. J. Mayhall,  
 C. W. McCurdy,  J. B. Neaton,  C. Ochsenfeld,  J. A. Parkhill,  R. Peverati,  
 V. A. Rassolov,  Yihan Shao,  L. V. Slipchenko,  T. Stauch,  R. P. Steele,  
 J. E. Subotnik,  A. J. W. Thom,  A. Tkatchenko,  D. G. Truhlar,  
 T. Van Voorhis,  T. A. Wesolowski,  K. B. Whaley,  H. L. Woodcock III,  
 P. M. Zimmerman,  S. Faraji,  P. M. W. Gill,  M. Head-Gordon,  
 J. M. Herbert,  A. I. Krylov

 Contributors to earlier versions of Q-Chem not listed above: 
 R. D. Adamson,  B. Austin,  R. Baer,  J. Baker,  G. J. O. Beran,  
 K. Brandhorst,  S. T. Brown,  E. F. C. Byrd,  A. K. Chakraborty,  
 G. K. L. Chan,  Chun-Min Chang,  Yunqing Chen,  C.-L. Cheng,  
 Siu Hung Chien,  D. M. Chipman,  D. L. Crittenden,  H. Dachsel,  
 R. J. Doerksen,  A. D. Dutoi,  R. G. Edgar,  J. Fosso-Tande,  
 L. Fusti-Molnar,  D. Ghosh,  A. Ghysels,  A. Golubeva-Zadorozhnaya,  
 J. Gonthier,  M. S. Gordon,  S. R. Gwaltney,  G. Hawkins,  J. E. Herr,  
 A. Heyden,  S. Hirata,  E. G. Hohenstein,  G. Kedziora,  F. J. Keil,  
 C. Kelley,  Jihan Kim,  R. A. King,  R. Z. Khaliullin,  P. P. Korambath,  
 W. Kurlancheek,  A. Laurent,  A. M. Lee,  M. S. Lee,  S. V. Levchenko,  
 Ching Yeh Lin,  D. Liotard,  E. Livshits,  R. C. Lochan,  I. Lotan,  
 L. A. Martinez-Martinez,  P. E. Maslen,  N. Nair,  D. P. O'Neill,  
 D. Neuhauser,  E. Neuscamman,  C. M. Oana,  R. Olivares-Amaya,  R. Olson,  
 T. M. Perrine,  B. Peters,  P. A. Pieniazek,  A. Prociuk,  Y. M. Rhee,  
 J. Ritchie,  M. A. Rohrdanz,  E. Rosta,  N. J. Russ,  H. F. Schaefer III,  
 M. W. Schmidt,  N. E. Schultz,  S. Sharma,  N. Shenvi,  C. D. Sherrill,  
 A. C. Simmonett,  A. Sodt,  T. Stein,  D. Stuck,  K. S. Thanthiriwatte,  
 V. Vanovschi,  L. Vogt,  Tao Wang,  A. Warshel,  M. A. Watson,  
 C. F. Williams,  Q. Wu,  X. Xu,  Jun Yang,  W. Zhang,  Yan Zhao

 Please cite Q-Chem as follows:
 Y. Shao et al., Mol. Phys. 113, 184-215 (2015)
 DOI: 10.1080/00268976.2014.952696

 Q-Chem 5.4.0 for Intel X86 EM64T Linux

 Parts of Q-Chem use Armadillo 9.800.1 (Horizon Scraper).
 http://arma.sourceforge.net/

 Q-Chem begins on Tue Sep 26 19:26:08 2023  

 Host: 
0

     Scratch files written to ./qchem178732//
 May1621 |scratch|qcdevops|jenkins|workspace|build_RNUM    
 Parallel job on  1  processors
 Processing $rem in /cm/shared/apps/spack/cpu/opt/spack/linux-centos8-zen2/gcc-10.2.0/qchem-5.4-akfmr7b3t57bfs6qan3padb2wnb2i7cl/config/preferences:
 Processing $rem in /home/rramji/.qchemrc:
 Symmetry turned off for PCM/SM12/SMD calculation
 Core orbitals will be frozen

 Checking the input file for inconsistencies... 	...done.

 Q-Chem warning in module forms1/BasisType.C, line 2236:

 You are not using the predefined 5D/6D in this basis set.


--------------------------------------------------------------
User input:
--------------------------------------------------------------
$molecule
0 1
C	0.235993	-8.519741	-0.135457
C	-0.577858	-7.635967	0.558188
S	1.414705	-7.651740	-1.148850
C	-0.283020	-6.261894	0.308648
H	-1.377597	-7.954738	1.238560
C	0.810887	-6.079985	-0.609026
C	1.231581	-4.798382	-0.996828
C	-0.982901	-5.153542	0.865740
C	-0.564713	-3.869626	0.474408
C	0.532196	-3.688927	-0.442046
O	-1.976332	-5.481075	1.738137
O	2.228709	-4.479871	-1.874052
C	3.340298	-5.356026	-2.016062
H	4.110807	-4.790496	-2.573877
H	3.085998	-6.268513	-2.598484
H	3.751679	-5.658187	-1.028695
C	-3.007565	-4.546999	2.033195
H	-3.778655	-5.107564	2.594833
H	-3.461650	-4.131473	1.108067
H	-2.645264	-3.712085	2.671451
C	0.822814	-2.314326	-0.691020
S	-1.178037	-2.295487	1.005649
C	-0.000000	-1.435180	-0.000000
H	1.623656	-1.993211	-1.368875
H	0.230172	-9.615985	-0.133782
C	0.000000	0.000000	0.000000
S	0.382139	0.814215	1.510732
C	1.046923	2.242395	0.727629
C	0.383804	0.823142	-1.064665
C	0.969360	2.082453	-0.678287
C	0.357247	0.762277	-2.486150
C	0.891671	1.908660	-3.106916
S	1.415865	3.040689	-1.965735
C	1.003453	2.137318	-4.559972
O	0.611644	1.290019	-5.350277
O	1.548687	3.298916	-5.004375
F	-0.110054	-0.249117	-3.246290
C	1.709479	3.619721	-6.334976
H	2.177001	4.620902	-6.370268
H	0.737443	3.643380	-6.875609
H	2.359363	2.886384	-6.861878
H	1.435800	3.076190	1.321510
$end

$rem
JOBTYPE		SP
EXCHANGE	HF
CORRELATION	pRIMP2
BASIS		cc-pvtz
METHOD		rimp2
AUX_BASIS	rimp2-cc-pvtz
SOLVENT_METHOD	PCM
PURECART	11111
SYMMETRY	false
MEM_TOTAL	110000
SCF_CONVERGENCE = 6
THRESH=10
GUI = 2
$end



$solvent
dielectric 4.90
$end
--------------------------------------------------------------
 ----------------------------------------------------------------
             Standard Nuclear Orientation (Angstroms)
    I     Atom           X                Y                Z
 ----------------------------------------------------------------
    1      C       0.2359930000    -8.5197410000    -0.1354570000
    2      C      -0.5778580000    -7.6359670000     0.5581880000
    3      S       1.4147050000    -7.6517400000    -1.1488500000
    4      C      -0.2830200000    -6.2618940000     0.3086480000
    5      H      -1.3775970000    -7.9547380000     1.2385600000
    6      C       0.8108870000    -6.0799850000    -0.6090260000
    7      C       1.2315810000    -4.7983820000    -0.9968280000
    8      C      -0.9829010000    -5.1535420000     0.8657400000
    9      C      -0.5647130000    -3.8696260000     0.4744080000
   10      C       0.5321960000    -3.6889270000    -0.4420460000
   11      O      -1.9763320000    -5.4810750000     1.7381370000
   12      O       2.2287090000    -4.4798710000    -1.8740520000
   13      C       3.3402980000    -5.3560260000    -2.0160620000
   14      H       4.1108070000    -4.7904960000    -2.5738770000
   15      H       3.0859980000    -6.2685130000    -2.5984840000
   16      H       3.7516790000    -5.6581870000    -1.0286950000
   17      C      -3.0075650000    -4.5469990000     2.0331950000
   18      H      -3.7786550000    -5.1075640000     2.5948330000
   19      H      -3.4616500000    -4.1314730000     1.1080670000
   20      H      -2.6452640000    -3.7120850000     2.6714510000
   21      C       0.8228140000    -2.3143260000    -0.6910200000
   22      S      -1.1780370000    -2.2954870000     1.0056490000
   23      C       0.0000000000    -1.4351800000     0.0000000000
   24      H       1.6236560000    -1.9932110000    -1.3688750000
   25      H       0.2301720000    -9.6159850000    -0.1337820000
   26      C       0.0000000000     0.0000000000     0.0000000000
   27      S       0.3821390000     0.8142150000     1.5107320000
   28      C       1.0469230000     2.2423950000     0.7276290000
   29      C       0.3838040000     0.8231420000    -1.0646650000
   30      C       0.9693600000     2.0824530000    -0.6782870000
   31      C       0.3572470000     0.7622770000    -2.4861500000
   32      C       0.8916710000     1.9086600000    -3.1069160000
   33      S       1.4158650000     3.0406890000    -1.9657350000
   34      C       1.0034530000     2.1373180000    -4.5599720000
   35      O       0.6116440000     1.2900190000    -5.3502770000
   36      O       1.5486870000     3.2989160000    -5.0043750000
   37      F      -0.1100540000    -0.2491170000    -3.2462900000
   38      C       1.7094790000     3.6197210000    -6.3349760000
   39      H       2.1770010000     4.6209020000    -6.3702680000
   40      H       0.7374430000     3.6433800000    -6.8756090000
   41      H       2.3593630000     2.8863840000    -6.8618780000
   42      H       1.4358000000     3.0761900000     1.3215100000
 ----------------------------------------------------------------
 Nuclear Repulsion Energy =        3311.09875150 hartrees
 There are      119 alpha and      119 beta electrons
 Requested basis set is cc-pVTZ
 There are 376 shells and 1068 basis functions

 Total QAlloc Memory Limit 110000 MB
 Mega-Array Size       188 MB
 MEM_STATIC part       192 MB
 Discretize the solute cavity surface with Lebedev spheres
	Using 110 Lebedev grid points for each H atom
	Using 194 Lebedev grid points for other atoms
	Atomic van der Waals radii will be scaled by 1.20
 Remove points where switching function is < 1.0e-08
 Keep 2904 surface tesserae and discard 4152 interior tesserae
 Molecular Surface Area = 440.445 Angst**2
 Requested basis set is rimp2-cc-pVTZ
 There are 833 shells and 2903 basis functions
 A cutoff of  1.0D-10 yielded  31438 shell pairs
 There are    241464 function pairs (    313494 Cartesian)
 Smallest overlap matrix eigenvalue = 2.15E-05

 Scale SEOQF with 1.000000e-01/1.000000e-02/1.000000e-02

 Standard Electronic Orientation quadrupole field applied
 Nucleus-field energy     =     0.0000000320 hartrees
 Guess from superposition of atomic densities
 Warning:  Energy on first SCF cycle will be non-variational
 SAD guess density has 238.000000 electrons

 -----------------------------------------------------------------------
  General SCF calculation program by
  Eric Jon Sundstrom, Paul Horn, Yuezhi Mao, Dmitri Zuev, Alec White,
  David Stuck, Shaama M.S., Shane Yost, Joonho Lee, David Small,
  Daniel Levine, Susi Lehtola, Hugh Burton, Evgeny Epifanovsky,
  Bang C. Huynh
 -----------------------------------------------------------------------
 Hartree-Fock
 using 64 threads for integral computing
 -------------------------------------------------------
 OpenMP Integral computing Module                
 Release: version 1.0, May 2013, Q-Chem Inc. Pittsburgh 
 -------------------------------------------------------
 A restricted SCF calculation will be
 performed using DIIS
 SCF converges when DIIS error is below 1.0e-06
 ---------------------------------------
  Cycle       Energy         DIIS error
 ---------------------------------------
    1   -2765.5425296097      1.77e-02  
    2   -2753.8506256665      1.57e-03  
    3   -2754.1905884198      8.82e-04  
    4   -2754.2747269097      2.54e-04  
    5   -2754.2863141292      6.84e-05  
    6   -2754.2873913603      2.39e-05  
    7   -2754.2876290554      1.15e-05  
    8   -2754.2877079663      4.48e-06  
    9   -2754.2877242427      1.96e-06  
   10   -2754.2877266702      8.38e-07  Convergence criterion met
 ---------------------------------------
 SCF time:   CPU 6440.17s  wall 255.00s 

************** Final PCM Free Energy Summary **************
 G_electrostatic  =      -0.02032365 hartree =     -12.75328355 kcal/mol
 G_cavitation     =       0.00000000 hartree =       0.00000000 kcal/mol
 G_dispersion     =       0.00000000 hartree =       0.00000000 kcal/mol
 G_repulsion      =       0.00000000 hartree =       0.00000000 kcal/mol
 --------------------------------------------------
 Non-electrostatic Free Energy =       0.00000000 hartree =       0.00000000 kcal/mol
 Total                         =      -0.02032365 hartree =     -12.75328355 kcal/mol
 --------------------------------------------------
 SCF Energy (H0 + V/2)                       =   -2754.28772667 
 Solute Internal Energy (H0)                 =   -2754.26740302 
 Total Free Energy (H0 + V/2 + non-elec)     =   -2754.28772667 hartree
                                             = -1728341.63434464 kcal/mol
***********************************************************

 SCF   energy in the final basis set =    -2754.2877266702
 Total energy in the final basis set =    -2754.2877266702


 --------------------------------------------------------------
  Generalized many-body perturbation theory program
  by Joonho Lee, Fazle Rob, Xintian Feng, Evgeny Epifanovsky

 No regularization used 
 (reg. param. = 0.0000e+00)
  (P|Q)^-1/2 Time:  CPU 245.54 s  wall 4.43 s

 In RI-MP2 calculation: 
 # of frozen core orbitals: 45

 Components of the RIMP2 correlation energy:
        aaaa    correlation energy =        -0.6713650678 a.u.
        abab    correlation energy =        -3.7137485085 a.u.
        bbbb    correlation energy =        -0.6713650678 a.u.
        non-Brillouin singles      =        -0.0000000000 a.u.
        total same-spin energy     =        -1.3427301355 a.u.
        total opposite-spin energy =        -3.7137485085 a.u.

 Total  RIMP2   correlation energy =        -5.0564786440 a.u.
        RIMP2         total energy =     -2759.3442053142 a.u.

 RI-MP2 Energy Time:  CPU 2747.94 s  wall 47.36 s
 
 --------------------------------------------------------------
 
                    Orbital Energies (a.u.)
 --------------------------------------------------------------
 
 Alpha MOs
 -- Occupied --
-92.0160 -91.9962 -91.9888 -91.9862 -26.3339 -20.6124 -20.5924 -20.5911
-20.5507 -11.4109 -11.3774 -11.3192 -11.3178 -11.3055 -11.2991 -11.2990
-11.2971 -11.2949 -11.2886 -11.2871 -11.2860 -11.2857 -11.2841 -11.2839
-11.2797 -11.2611 -11.2589 -11.2570 -11.2498  -9.0144  -9.0002  -8.9893
 -8.9861  -6.6951  -6.6945  -6.6940  -6.6814  -6.6808  -6.6794  -6.6703
 -6.6696  -6.6687  -6.6671  -6.6665  -6.6656  -1.6469  -1.4722  -1.4164
 -1.4139  -1.3676  -1.2348  -1.1959  -1.1687  -1.1426  -1.0841  -1.0519
 -1.0483  -1.0284  -1.0020  -0.9932  -0.9721  -0.9609  -0.9503  -0.9388
 -0.8958  -0.8700  -0.8494  -0.8033  -0.7935  -0.7878  -0.7726  -0.7708
 -0.7573  -0.7324  -0.7186  -0.7152  -0.7014  -0.6894  -0.6827  -0.6788
 -0.6719  -0.6609  -0.6589  -0.6524  -0.6292  -0.6198  -0.6165  -0.6069
 -0.6033  -0.5958  -0.5827  -0.5762  -0.5708  -0.5637  -0.5535  -0.5508
 -0.5344  -0.5263  -0.5251  -0.5161  -0.5146  -0.5081  -0.5031  -0.4965
 -0.4887  -0.4852  -0.4750  -0.4680  -0.4619  -0.4616  -0.4600  -0.4139
 -0.3973  -0.3867  -0.3588  -0.3493  -0.3209  -0.2868  -0.2534
 -- Virtual --
  0.0165   0.0705   0.1137   0.1239   0.1349   0.1418   0.1499   0.1551
  0.1559   0.1605   0.1632   0.1751   0.1807   0.1842   0.1886   0.1943
  0.2033   0.2040   0.2090   0.2176   0.2201   0.2216   0.2238   0.2300
  0.2323   0.2372   0.2469   0.2534   0.2600   0.2670   0.2731   0.2790
  0.2933   0.3100   0.3171   0.3315   0.3343   0.3396   0.3465   0.3493
  0.3530   0.3593   0.3681   0.3720   0.3755   0.3797   0.3810   0.3854
  0.3871   0.3915   0.3955   0.4068   0.4093   0.4168   0.4199   0.4219
  0.4310   0.4325   0.4376   0.4421   0.4449   0.4516   0.4559   0.4567
  0.4588   0.4617   0.4683   0.4698   0.4778   0.4788   0.4831   0.4905
  0.4967   0.5010   0.5037   0.5083   0.5092   0.5160   0.5188   0.5223
  0.5298   0.5364   0.5371   0.5424   0.5438   0.5470   0.5485   0.5526
  0.5541   0.5574   0.5643   0.5669   0.5716   0.5718   0.5770   0.5800
  0.5889   0.5897   0.5923   0.5952   0.5995   0.6029   0.6098   0.6130
  0.6161   0.6168   0.6185   0.6243   0.6271   0.6284   0.6328   0.6377
  0.6407   0.6436   0.6442   0.6500   0.6545   0.6553   0.6585   0.6664
  0.6671   0.6741   0.6809   0.6822   0.6880   0.6979   0.7002   0.7034
  0.7098   0.7152   0.7190   0.7219   0.7347   0.7404   0.7504   0.7548
  0.7580   0.7620   0.7650   0.7797   0.7816   0.7888   0.7931   0.7964
  0.8010   0.8074   0.8109   0.8189   0.8252   0.8294   0.8321   0.8436
  0.8462   0.8538   0.8629   0.8673   0.8706   0.8815   0.8857   0.8950
  0.8974   0.9018   0.9090   0.9107   0.9157   0.9183   0.9210   0.9289
  0.9320   0.9381   0.9391   0.9468   0.9493   0.9543   0.9583   0.9648
  0.9699   0.9790   0.9814   0.9893   0.9915   0.9953   0.9999   1.0029
  1.0058   1.0112   1.0144   1.0188   1.0265   1.0309   1.0351   1.0411
  1.0476   1.0513   1.0594   1.0598   1.0686   1.0713   1.0728   1.0760
  1.0800   1.0840   1.0900   1.0958   1.0972   1.1055   1.1112   1.1145
  1.1198   1.1307   1.1340   1.1430   1.1447   1.1472   1.1535   1.1584
  1.1682   1.1717   1.1743   1.1783   1.1817   1.1835   1.1910   1.1942
  1.2006   1.2056   1.2079   1.2091   1.2187   1.2212   1.2287   1.2312
  1.2370   1.2398   1.2440   1.2539   1.2561   1.2643   1.2735   1.2753
  1.2796   1.2853   1.2892   1.2979   1.3076   1.3094   1.3186   1.3249
  1.3337   1.3358   1.3442   1.3471   1.3513   1.3555   1.3615   1.3715
  1.3749   1.3794   1.3896   1.3990   1.4058   1.4154   1.4196   1.4270
  1.4318   1.4396   1.4487   1.4613   1.4676   1.4727   1.4857   1.4920
  1.4961   1.4987   1.5043   1.5099   1.5121   1.5205   1.5222   1.5262
  1.5326   1.5377   1.5391   1.5437   1.5488   1.5564   1.5608   1.5674
  1.5709   1.5805   1.5901   1.5969   1.6081   1.6117   1.6237   1.6258
  1.6370   1.6455   1.6571   1.6587   1.6633   1.6679   1.6756   1.6815
  1.6887   1.6923   1.6982   1.7129   1.7201   1.7281   1.7363   1.7526
  1.7573   1.7641   1.7772   1.7849   1.7939   1.7986   1.8118   1.8213
  1.8268   1.8317   1.8358   1.8424   1.8627   1.8652   1.8664   1.8772
  1.8842   1.8903   1.8966   1.9042   1.9141   1.9224   1.9264   1.9332
  1.9399   1.9474   1.9535   1.9618   1.9707   1.9724   1.9762   1.9837
  1.9992   2.0105   2.0182   2.0296   2.0376   2.0407   2.0464   2.0546
  2.0707   2.0816   2.0977   2.1048   2.1140   2.1224   2.1350   2.1494
  2.1498   2.1554   2.1600   2.1643   2.1717   2.1771   2.1879   2.1945
  2.1952   2.2005   2.2144   2.2183   2.2304   2.2341   2.2379   2.2454
  2.2474   2.2494   2.2625   2.2739   2.2756   2.2811   2.2841   2.2953
  2.3003   2.3132   2.3183   2.3205   2.3255   2.3383   2.3519   2.3558
  2.3637   2.3797   2.3857   2.3925   2.4051   2.4113   2.4167   2.4292
  2.4318   2.4440   2.4502   2.4596   2.4671   2.4814   2.4847   2.4925
  2.5024   2.5241   2.5271   2.5299   2.5328   2.5465   2.5551   2.5609
  2.5789   2.5823   2.5895   2.5933   2.6110   2.6174   2.6189   2.6231
  2.6293   2.6347   2.6392   2.6429   2.6514   2.6598   2.6646   2.6707
  2.6743   2.6895   2.6959   2.7001   2.7013   2.7025   2.7115   2.7207
  2.7263   2.7345   2.7376   2.7407   2.7478   2.7568   2.7634   2.7699
  2.7806   2.7905   2.7924   2.8020   2.8048   2.8069   2.8141   2.8225
  2.8324   2.8384   2.8416   2.8490   2.8561   2.8597   2.8617   2.8747
  2.8760   2.8798   2.8857   2.8971   2.9088   2.9173   2.9259   2.9336
  2.9454   2.9509   2.9564   2.9664   2.9790   2.9845   2.9911   3.0007
  3.0117   3.0167   3.0274   3.0298   3.0340   3.0390   3.0436   3.0461
  3.0535   3.0565   3.0667   3.0752   3.0823   3.0901   3.0911   3.1016
  3.1037   3.1116   3.1135   3.1200   3.1239   3.1338   3.1463   3.1494
  3.1544   3.1550   3.1607   3.1650   3.1664   3.1710   3.1798   3.1847
  3.1921   3.2004   3.2025   3.2082   3.2143   3.2185   3.2238   3.2291
  3.2361   3.2401   3.2449   3.2494   3.2498   3.2582   3.2631   3.2673
  3.2756   3.2786   3.2843   3.2857   3.2885   3.2910   3.2973   3.3006
  3.3131   3.3184   3.3232   3.3275   3.3313   3.3372   3.3420   3.3483
  3.3545   3.3570   3.3611   3.3612   3.3626   3.3660   3.3725   3.3814
  3.3842   3.3905   3.3939   3.3986   3.4025   3.4126   3.4172   3.4213
  3.4242   3.4328   3.4367   3.4410   3.4431   3.4512   3.4522   3.4560
  3.4578   3.4649   3.4685   3.4698   3.4763   3.4859   3.4950   3.5000
  3.5042   3.5106   3.5202   3.5257   3.5286   3.5306   3.5358   3.5370
  3.5469   3.5538   3.5591   3.5648   3.5697   3.5733   3.5773   3.5836
  3.5921   3.5946   3.5970   3.5993   3.6063   3.6082   3.6145   3.6247
  3.6308   3.6328   3.6382   3.6448   3.6489   3.6545   3.6573   3.6642
  3.6688   3.6726   3.6789   3.6806   3.6882   3.6919   3.6931   3.7022
  3.7044   3.7102   3.7122   3.7212   3.7272   3.7313   3.7362   3.7422
  3.7442   3.7484   3.7563   3.7616   3.7690   3.7779   3.7802   3.7848
  3.7912   3.7965   3.8056   3.8123   3.8177   3.8216   3.8266   3.8299
  3.8335   3.8422   3.8507   3.8573   3.8610   3.8637   3.8709   3.8763
  3.8768   3.8850   3.8918   3.8945   3.9080   3.9168   3.9200   3.9275
  3.9354   3.9395   3.9487   3.9605   3.9613   3.9620   3.9725   3.9825
  3.9882   3.9931   4.0070   4.0136   4.0221   4.0280   4.0326   4.0398
  4.0514   4.0582   4.0631   4.0646   4.0747   4.0805   4.0858   4.0890
  4.0942   4.1010   4.1096   4.1177   4.1305   4.1403   4.1487   4.1497
  4.1638   4.1653   4.1727   4.1798   4.1830   4.1884   4.1937   4.2046
  4.2092   4.2196   4.2361   4.2472   4.2501   4.2576   4.2688   4.2718
  4.2861   4.2869   4.3084   4.3129   4.3227   4.3396   4.3430   4.3478
  4.3557   4.3672   4.3725   4.3748   4.3768   4.3908   4.3943   4.4039
  4.4059   4.4118   4.4180   4.4219   4.4300   4.4342   4.4409   4.4556
  4.4561   4.4725   4.4856   4.4896   4.5011   4.5041   4.5064   4.5151
  4.5415   4.5426   4.5442   4.5556   4.5573   4.5729   4.5876   4.5970
  4.6052   4.6123   4.6211   4.6298   4.6346   4.6415   4.6475   4.6572
  4.6586   4.6693   4.6748   4.6782   4.6860   4.6983   4.7202   4.7244
  4.7357   4.7498   4.7581   4.7643   4.7766   4.7828   4.7930   4.8094
  4.8246   4.8303   4.8386   4.8453   4.8693   4.8841   4.9109   4.9197
  4.9426   4.9443   4.9559   4.9654   4.9656   4.9797   4.9958   5.0014
  5.0109   5.0117   5.0148   5.0348   5.0442   5.0518   5.0676   5.0744
  5.0862   5.0994   5.1271   5.1585   5.1718   5.1762   5.1828   5.1965
  5.2051   5.2164   5.2188   5.2403   5.2530   5.2548   5.2592   5.2822
  5.2997   5.3114   5.3257   5.3327   5.3390   5.3550   5.3575   5.3667
  5.3753   5.3858   5.3967   5.3996   5.4132   5.4322   5.4635   5.4730
  5.4736   5.4853   5.5008   5.5068   5.5133   5.5191   5.5449   5.5613
  5.5732   5.5822   5.5903   5.6061   5.6173   5.6300   5.6418   5.6941
  5.7109   5.7327   5.7771   5.8005   5.8123   5.8348   5.8504   5.8559
  5.8744   5.8819   5.9155   5.9677   5.9695   5.9790   6.0002   6.0340
  6.0625   6.0936   6.1201   6.1335   6.1549   6.1709   6.1796   6.1854
  6.2401   6.2445   6.2701   6.2834   6.3026   6.3083   6.3222   6.3851
  6.4431   6.4480   6.5001   6.5377   6.5518   6.5560   6.5601   6.6553
  6.6676   6.6764   6.7083   6.7379   6.7419   6.8028   6.8426   6.8600
  6.8824   6.8924   6.9914   7.1195   7.1382   7.1781   7.2107   7.2156
  7.2342   7.3203   7.3262   7.3316   7.3744   7.3764   7.4273   7.4623
  7.4788   7.4868   7.4894   7.5201   7.5487   7.6093   7.7110   7.7704
  7.7970   7.8312   7.9032   7.9217   7.9482   8.0042   8.0957   8.1743
  8.5626   8.9348   9.0084   9.3660   9.4995   9.6938  10.2081  10.6093
 11.2424  11.4070  11.9354  11.9810  12.1294  12.1856  12.3420  12.5785
 12.6597  12.7054  12.9414  13.2170  13.2718  13.5461  13.8464  13.8710
 13.9020  14.0331  14.1402  14.6788  15.2005
 --------------------------------------------------------------
 
          Ground-State Mulliken Net Atomic Charges

     Atom                 Charge (a.u.)
  ----------------------------------------
      1 C                    -0.188596
      2 C                    -0.254164
      3 S                    -0.021546
      4 C                    -0.015948
      5 H                     0.196320
      6 C                    -0.029212
      7 C                     0.243027
      8 C                     0.244784
      9 C                    -0.045941
     10 C                    -0.023905
     11 O                    -0.333426
     12 O                    -0.339289
     13 C                    -0.085775
     14 H                     0.122757
     15 H                     0.091332
     16 H                     0.093576
     17 C                    -0.087057
     18 H                     0.125311
     19 H                     0.095240
     20 H                     0.089118
     21 C                    -0.211648
     22 S                    -0.017628
     23 C                    -0.005743
     24 H                     0.199200
     25 H                     0.206423
     26 C                    -0.045442
     27 S                     0.122288
     28 C                    -0.228655
     29 C                    -0.121743
     30 C                    -0.006418
     31 C                     0.387063
     32 C                    -0.149568
     33 S                     0.044119
     34 C                     0.460839
     35 O                    -0.448536
     36 O                    -0.297923
     37 F                    -0.210489
     38 C                    -0.054847
     39 H                     0.116674
     40 H                     0.084803
     41 H                     0.084609
     42 H                     0.216019
  ----------------------------------------
  Sum of atomic charges =     0.000000

 -----------------------------------------------------------------
                    Cartesian Multipole Moments
 -----------------------------------------------------------------
    Charge (ESU x 10^10)
                 0.0000
    Dipole Moment (Debye)
         X       1.7900      Y       1.6654      Z       3.3946
       Tot       4.1834
    Quadrupole Moments (Debye-Ang)
        XX    -178.6469     XY       5.0964     YY    -161.5189
        XZ     -14.8636     YZ     -10.6470     ZZ    -201.1338
    Octopole Moments (Debye-Ang^2)
       XXX    -250.4922    XXY     321.5729    XYY     -49.7188
       YYY     925.1820    XXZ     172.1762    XYZ      30.8667
       YYZ     142.0485    XZZ     -39.1373    YZZ     491.8358
       ZZZ     573.6056
    Hexadecapole Moments (Debye-Ang^3)
      XXXX   -2158.8449   XXXY    -149.2710   XXYY   -3626.9480
      XYYY    -111.2469   YYYY  -18221.0364   XXXZ    1037.3987
      XXYZ     330.6260   XYYZ      39.7866   YYYZ     890.2704
      XXZZ   -1295.3284   XYZZ     171.1739   YYZZ   -4289.8441
      XZZZ     848.4093   YZZZ     365.4607   ZZZZ   -6389.6469
 -----------------------------------------------------------------
 Total job time:  326.75s(wall), 10520.40s(cpu) 
 Tue Sep 26 19:31:35 2023

        *************************************************************
        *                                                           *
        *  Thank you very much for using Q-Chem.  Have a nice day.  *
        *                                                           *
        *************************************************************


0 sent ACK to 0 
now end server 0 ... 
cleanup process ... done
remove work dirs ./qchem178732.0 -- ./qchem178732.0
rm -rf ./qchem178732.0
rm -rf ./qchem178732
