You are running Q-Chem version: 5.4.0

#
# job setting
#
local host:  exp-8-26
current dir: /expanse/lustre/projects/csd626/rramji/aromodel/PTB7_fin/Rotation_Test
input file:  fin_bdt_Phi_5_Theta_100_fin_ftt.qcin
output file: 
nprocs     : 1
nthreads   : 64
#
# qchem installation setting
#
QC:          /cm/shared/apps/spack/cpu/opt/spack/linux-centos8-zen2/gcc-10.2.0/qchem-5.4-akfmr7b3t57bfs6qan3padb2wnb2i7cl
QCAUX:       /cm/shared/apps/spack/cpu/opt/spack/linux-centos8-zen2/gcc-10.2.0/qchem-5.4-akfmr7b3t57bfs6qan3padb2wnb2i7cl/qcaux
QCPROG:      /cm/shared/apps/spack/cpu/opt/spack/linux-centos8-zen2/gcc-10.2.0/qchem-5.4-akfmr7b3t57bfs6qan3padb2wnb2i7cl/exe/qcprog.exe
QCPROG_S:    /cm/shared/apps/spack/cpu/opt/spack/linux-centos8-zen2/gcc-10.2.0/qchem-5.4-akfmr7b3t57bfs6qan3padb2wnb2i7cl/exe/qcprog.exe_s
PARALLEL:    -DPARALLEL
QCMPI:       mpich
#
# qchem directory setting
#
qcrun:       qchem1190640
QCSCRATCH:   .
QCLOCALSCR:  
QCTMPDIR:    .
QCFILEPREF:  ./qchem1190640
QCSAVEDIR:   
workdirs:    ./qchem1190640
workdir0:    ./qchem1190640
partmpdirs =  
#
# parallel setting
#
QCRSH:           ssh
QCMPI:           mpich
QCMPIRUN:        /cm/shared/apps/spack/cpu/opt/spack/linux-centos8-zen2/gcc-10.2.0/qchem-5.4-akfmr7b3t57bfs6qan3padb2wnb2i7cl/bin/mpi/mpirun_qchem
QCMACHINEFILE:   ./qchem1190640/hostfile
exp-8-26

#
# env setting
#
exported envs:   QC QCAUX QCSCRATCH QCRUNNAME QCFILEPREF QCPROG QCPROG_S GUIFILE

Running Job 1 of 1 fin_bdt_Phi_5_Theta_100_fin_ftt.qcin
qchem fin_bdt_Phi_5_Theta_100_fin_ftt.qcin_1190640.0 ./qchem1190640/ 1
/cm/shared/apps/spack/cpu/opt/spack/linux-centos8-zen2/gcc-10.2.0/qchem-5.4-akfmr7b3t57bfs6qan3padb2wnb2i7cl/bin/mpi/mpirun_qchem -machinefile ./qchem1190640/hostfile -np 1 /cm/shared/apps/spack/cpu/opt/spack/linux-centos8-zen2/gcc-10.2.0/qchem-5.4-akfmr7b3t57bfs6qan3padb2wnb2i7cl/exe/qcprog.exe fin_bdt_Phi_5_Theta_100_fin_ftt.qcin_1190640.0 ./qchem1190640/

Process 0 of 1 is on exp-8-26 - thread support 0
initial socket setup ...start
initial socket setup ...done 
now start server 0 ... 
                  Welcome to Q-Chem
     A Quantum Leap Into The Future Of Chemistry


 Q-Chem 5.4, Q-Chem, Inc., Pleasanton, CA (2021)

 License issued to: University of California, San Diego (site)

 E. Epifanovsky,  A. T. B. Gilbert,  Xintian Feng,  Joonho Lee,  Yuezhi Mao,  
 N. Mardirossian,  P. Pokhilko,  A. White,  M. Wormit,  M. P. Coons,  
 A. L. Dempwolff,  Zhengting Gan,  D. Hait,  P. R. Horn,  L. D. Jacobson,  
 I. Kaliman,  J. Kussmann,  A. W. Lange,  Ka Un Lao,  D. S. Levine,  Jie Liu,  
 S. C. McKenzie,  A. F. Morrison,  K. Nanda,  F. Plasser,  D. R. Rehn,  
 M. L. Vidal,  Zhi-Qiang You,  Ying Zhu,  B. Alam,  B. Albrecht,  
 A. Aldossary,  E. Alguire,  J. H. Andersen,  D. Barton,  K. Begam,  A. Behn,  
 Y. A. Bernard,  E. J. Berquist,  H. Burton,  A. Carreras,  K. Carter-Fenk,  
 R. Chakraborty,  A. D. Chien,  K. D. Closser,  V. Cofer-Shabica,  
 S. Dasgupta,  Jia Deng,  M. de Wergifosse,  M. Diedenhofen,  Hainam Do,  
 S. Ehlert,  Po-Tung Fang,  S. Fatehi,  Qingguo Feng,  J. Gayvert,  
 Qinghui Ge,  G. Gidofalvi,  M. Goldey,  J. Gomes,  C. Gonzalez-Espinoza,  
 S. Gulania,  A. Gunina,  M. W. D. Hanson-Heine,  P. H. P. Harbach,  
 A. W. Hauser,  M. F. Herbst,  M. Hernandez Vera,  M. Hodecker,  
 Z. C. Holden,  S. Houck,  Xunkun Huang,  Kerwin Hui,  B. C. Huynh,  
 M. Ivanov,  Hyunjun Ji,  Hanjie Jiang,  B. Kaduk,  S. Kaehler,  
 K. Khistyaev,  Jaehoon Kim,  P. Klunzinger,  Z. Koczor-Benda,  
 Joong Hoon Koh,  D. Kosenkov,  L. Koulias,  T. Kowalczyk,  C. M. Krauter,  
 K. Kue,  A. Kunitsa,  T. Kus,  A. Landau,  K. V. Lawler,  D. Lefrancois,  
 S. Lehtola,  Rain Li,  Yi-Pei Li,  Jiashu Liang,  M. Liebenthal,  
 Hung-Hsuan Lin,  You-Sheng Lin,  Fenglai Liu,  Kuan-Yu Liu,  
 M. Loipersberger,  A. Luenser,  A. Manjanath,  P. Manohar,  E. Mansoor,  
 S. F. Manzer,  Shan-Ping Mao,  A. V. Marenich,  T. Markovich,  S. Mason,  
 S. A. Maurer,  P. F. McLaughlin,  M. F. S. J. Menger,  J.-M. Mewes,  
 S. A. Mewes,  P. Morgante,  J. W. Mullinax,  T. S. Nguyen-Beck,  
 K. J. Oosterbaan,  G. Paran,  Alexander C. Paul,  Suranjan K. Paul,  
 F. Pavosevic,  Zheng Pei,  S. Prager,  E. I. Proynov,  E. Ramos,  B. Rana,  
 A. E. Rask,  A. Rettig,  R. M. Richard,  F. Rob,  E. Rossomme,  T. Scheele,  
 M. Scheurer,  M. Schneider,  N. Sergueev,  S. M. Sharada,  W. Skomorowski,  
 D. W. Small,  C. J. Stein,  Yu-Chuan Su,  E. J. Sundstrom,  Zhen Tao,  
 J. Thirman,  T. Tsuchimochi,  N. M. Tubman,  S. P. Veccham,  O. Vydrov,  
 J. Wenzel,  J. Witte,  A. Yamada,  Kun Yao,  S. Yeganeh,  S. R. Yost,  
 A. Zech,  Igor Ying Zhang,  Xing Zhang,  Yu Zhang,  D. Zuev,  
 A. Aspuru-Guzik,  A. T. Bell,  N. A. Besley,  K. B. Bravaya,  B. R. Brooks,  
 D. Casanova,  Jeng-Da Chai,  S. Coriani,  C. J. Cramer,  
 A. E. DePrince, III,  R. A. DiStasio Jr.,  A. Dreuw,  B. D. Dunietz,  
 T. R. Furlani,  W. A. Goddard III,  S. Grimme,  S. Hammes-Schiffer,  
 T. Head-Gordon,  W. J. Hehre,  Chao-Ping Hsu,  T.-C. Jagau,  Yousung Jung,  
 A. Klamt,  Jing Kong,  D. S. Lambrecht,  WanZhen Liang,  N. J. Mayhall,  
 C. W. McCurdy,  J. B. Neaton,  C. Ochsenfeld,  J. A. Parkhill,  R. Peverati,  
 V. A. Rassolov,  Yihan Shao,  L. V. Slipchenko,  T. Stauch,  R. P. Steele,  
 J. E. Subotnik,  A. J. W. Thom,  A. Tkatchenko,  D. G. Truhlar,  
 T. Van Voorhis,  T. A. Wesolowski,  K. B. Whaley,  H. L. Woodcock III,  
 P. M. Zimmerman,  S. Faraji,  P. M. W. Gill,  M. Head-Gordon,  
 J. M. Herbert,  A. I. Krylov

 Contributors to earlier versions of Q-Chem not listed above: 
 R. D. Adamson,  B. Austin,  R. Baer,  J. Baker,  G. J. O. Beran,  
 K. Brandhorst,  S. T. Brown,  E. F. C. Byrd,  A. K. Chakraborty,  
 G. K. L. Chan,  Chun-Min Chang,  Yunqing Chen,  C.-L. Cheng,  
 Siu Hung Chien,  D. M. Chipman,  D. L. Crittenden,  H. Dachsel,  
 R. J. Doerksen,  A. D. Dutoi,  R. G. Edgar,  J. Fosso-Tande,  
 L. Fusti-Molnar,  D. Ghosh,  A. Ghysels,  A. Golubeva-Zadorozhnaya,  
 J. Gonthier,  M. S. Gordon,  S. R. Gwaltney,  G. Hawkins,  J. E. Herr,  
 A. Heyden,  S. Hirata,  E. G. Hohenstein,  G. Kedziora,  F. J. Keil,  
 C. Kelley,  Jihan Kim,  R. A. King,  R. Z. Khaliullin,  P. P. Korambath,  
 W. Kurlancheek,  A. Laurent,  A. M. Lee,  M. S. Lee,  S. V. Levchenko,  
 Ching Yeh Lin,  D. Liotard,  E. Livshits,  R. C. Lochan,  I. Lotan,  
 L. A. Martinez-Martinez,  P. E. Maslen,  N. Nair,  D. P. O'Neill,  
 D. Neuhauser,  E. Neuscamman,  C. M. Oana,  R. Olivares-Amaya,  R. Olson,  
 T. M. Perrine,  B. Peters,  P. A. Pieniazek,  A. Prociuk,  Y. M. Rhee,  
 J. Ritchie,  M. A. Rohrdanz,  E. Rosta,  N. J. Russ,  H. F. Schaefer III,  
 M. W. Schmidt,  N. E. Schultz,  S. Sharma,  N. Shenvi,  C. D. Sherrill,  
 A. C. Simmonett,  A. Sodt,  T. Stein,  D. Stuck,  K. S. Thanthiriwatte,  
 V. Vanovschi,  L. Vogt,  Tao Wang,  A. Warshel,  M. A. Watson,  
 C. F. Williams,  Q. Wu,  X. Xu,  Jun Yang,  W. Zhang,  Yan Zhao

 Please cite Q-Chem as follows:
 Y. Shao et al., Mol. Phys. 113, 184-215 (2015)
 DOI: 10.1080/00268976.2014.952696

 Q-Chem 5.4.0 for Intel X86 EM64T Linux

 Parts of Q-Chem use Armadillo 9.800.1 (Horizon Scraper).
 http://arma.sourceforge.net/

 Q-Chem begins on Tue Sep 26 18:12:05 2023  

 Host: 
0

     Scratch files written to ./qchem1190640//
 May1621 |scratch|qcdevops|jenkins|workspace|build_RNUM    
 Parallel job on  1  processors
 Processing $rem in /cm/shared/apps/spack/cpu/opt/spack/linux-centos8-zen2/gcc-10.2.0/qchem-5.4-akfmr7b3t57bfs6qan3padb2wnb2i7cl/config/preferences:
 Processing $rem in /home/rramji/.qchemrc:
 Symmetry turned off for PCM/SM12/SMD calculation
 Core orbitals will be frozen

 Checking the input file for inconsistencies... 	...done.

 Q-Chem warning in module forms1/BasisType.C, line 2236:

 You are not using the predefined 5D/6D in this basis set.


--------------------------------------------------------------
User input:
--------------------------------------------------------------
$molecule
0 1
C	-0.255459	-8.519741	-0.093711
C	0.799036	-7.635967	0.083869
S	-1.789425	-7.651740	-0.345260
C	0.418360	-6.261894	0.018411
H	1.834294	-7.954738	0.259169
C	-0.987769	-6.079985	-0.229701
C	-1.555260	-4.798382	-0.302697
C	1.294992	-5.153542	0.196459
C	0.726408	-3.869626	0.127651
C	-0.680716	-3.688927	-0.123544
O	2.601852	-5.481075	0.396706
O	-2.868193	-4.479871	-0.502673
C	-3.691495	-5.356026	-1.262918
H	-4.614080	-4.790496	-1.494604
H	-3.974195	-6.268513	-0.693738
H	-3.199559	-5.658187	-2.212720
C	3.490743	-4.546999	0.997016
H	4.416630	-5.107564	1.226691
H	3.073934	-4.131473	1.939526
H	3.746794	-3.712085	0.309214
C	-1.058247	-2.314326	-0.186133
S	1.527599	-2.295487	0.256010
C	0.000000	-1.435180	0.000000
H	-2.092285	-1.993211	-0.363896
H	-0.250435	-9.615985	-0.090328
C	0.000000	0.000000	0.000000
S	0.080615	0.895811	1.510732
C	0.216842	2.465231	0.727629
C	0.079127	0.904769	-1.064665
C	0.198659	2.288406	-0.678287
C	0.074988	0.838492	-2.486150
C	0.185097	2.098524	-3.106916
S	0.290501	3.341568	-1.965735
C	0.211932	2.351623	-4.559972
O	0.133545	1.421416	-5.350277
O	0.326994	3.629649	-5.004375
F	-0.018214	-0.271734	-3.246290
C	0.368367	3.986101	-6.334976
H	0.465270	5.086806	-6.370268
H	-0.553140	3.675878	-6.875609
H	1.229874	3.519263	-6.861878
H	0.297091	3.381746	1.321510
$end

$rem
JOBTYPE		SP
EXCHANGE	HF
CORRELATION	pRIMP2
BASIS		cc-pvtz
METHOD		rimp2
AUX_BASIS	rimp2-cc-pvtz
SOLVENT_METHOD	PCM
PURECART	11111
SYMMETRY	false
MEM_TOTAL	110000
SCF_CONVERGENCE = 6
THRESH=10
GUI = 2
$end



$solvent
dielectric 4.90
$end
--------------------------------------------------------------
 ----------------------------------------------------------------
             Standard Nuclear Orientation (Angstroms)
    I     Atom           X                Y                Z
 ----------------------------------------------------------------
    1      C      -0.2554590000    -8.5197410000    -0.0937110000
    2      C       0.7990360000    -7.6359670000     0.0838690000
    3      S      -1.7894250000    -7.6517400000    -0.3452600000
    4      C       0.4183600000    -6.2618940000     0.0184110000
    5      H       1.8342940000    -7.9547380000     0.2591690000
    6      C      -0.9877690000    -6.0799850000    -0.2297010000
    7      C      -1.5552600000    -4.7983820000    -0.3026970000
    8      C       1.2949920000    -5.1535420000     0.1964590000
    9      C       0.7264080000    -3.8696260000     0.1276510000
   10      C      -0.6807160000    -3.6889270000    -0.1235440000
   11      O       2.6018520000    -5.4810750000     0.3967060000
   12      O      -2.8681930000    -4.4798710000    -0.5026730000
   13      C      -3.6914950000    -5.3560260000    -1.2629180000
   14      H      -4.6140800000    -4.7904960000    -1.4946040000
   15      H      -3.9741950000    -6.2685130000    -0.6937380000
   16      H      -3.1995590000    -5.6581870000    -2.2127200000
   17      C       3.4907430000    -4.5469990000     0.9970160000
   18      H       4.4166300000    -5.1075640000     1.2266910000
   19      H       3.0739340000    -4.1314730000     1.9395260000
   20      H       3.7467940000    -3.7120850000     0.3092140000
   21      C      -1.0582470000    -2.3143260000    -0.1861330000
   22      S       1.5275990000    -2.2954870000     0.2560100000
   23      C       0.0000000000    -1.4351800000     0.0000000000
   24      H      -2.0922850000    -1.9932110000    -0.3638960000
   25      H      -0.2504350000    -9.6159850000    -0.0903280000
   26      C       0.0000000000     0.0000000000     0.0000000000
   27      S       0.0806150000     0.8958110000     1.5107320000
   28      C       0.2168420000     2.4652310000     0.7276290000
   29      C       0.0791270000     0.9047690000    -1.0646650000
   30      C       0.1986590000     2.2884060000    -0.6782870000
   31      C       0.0749880000     0.8384920000    -2.4861500000
   32      C       0.1850970000     2.0985240000    -3.1069160000
   33      S       0.2905010000     3.3415680000    -1.9657350000
   34      C       0.2119320000     2.3516230000    -4.5599720000
   35      O       0.1335450000     1.4214160000    -5.3502770000
   36      O       0.3269940000     3.6296490000    -5.0043750000
   37      F      -0.0182140000    -0.2717340000    -3.2462900000
   38      C       0.3683670000     3.9861010000    -6.3349760000
   39      H       0.4652700000     5.0868060000    -6.3702680000
   40      H      -0.5531400000     3.6758780000    -6.8756090000
   41      H       1.2298740000     3.5192630000    -6.8618780000
   42      H       0.2970910000     3.3817460000     1.3215100000
 ----------------------------------------------------------------
 Nuclear Repulsion Energy =        3296.72009034 hartrees
 There are      119 alpha and      119 beta electrons
 Requested basis set is cc-pVTZ
 There are 376 shells and 1068 basis functions

 Total QAlloc Memory Limit 110000 MB
 Mega-Array Size       188 MB
 MEM_STATIC part       192 MB
 Discretize the solute cavity surface with Lebedev spheres
	Using 110 Lebedev grid points for each H atom
	Using 194 Lebedev grid points for other atoms
	Atomic van der Waals radii will be scaled by 1.20
 Remove points where switching function is < 1.0e-08
 Keep 2949 surface tesserae and discard 4107 interior tesserae
 Molecular Surface Area = 444.227 Angst**2
 Requested basis set is rimp2-cc-pVTZ
 There are 833 shells and 2903 basis functions
 A cutoff of  1.0D-10 yielded  31013 shell pairs
 There are    238269 function pairs (    309407 Cartesian)
 Smallest overlap matrix eigenvalue = 2.23E-05

 Scale SEOQF with 1.000000e-01/1.000000e-02/1.000000e-02

 Standard Electronic Orientation quadrupole field applied
 Nucleus-field energy     =     0.0000000362 hartrees
 Guess from superposition of atomic densities
 Warning:  Energy on first SCF cycle will be non-variational
 SAD guess density has 238.000000 electrons

 -----------------------------------------------------------------------
  General SCF calculation program by
  Eric Jon Sundstrom, Paul Horn, Yuezhi Mao, Dmitri Zuev, Alec White,
  David Stuck, Shaama M.S., Shane Yost, Joonho Lee, David Small,
  Daniel Levine, Susi Lehtola, Hugh Burton, Evgeny Epifanovsky,
  Bang C. Huynh
 -----------------------------------------------------------------------
 Hartree-Fock
 using 64 threads for integral computing
 -------------------------------------------------------
 OpenMP Integral computing Module                
 Release: version 1.0, May 2013, Q-Chem Inc. Pittsburgh 
 -------------------------------------------------------
 A restricted SCF calculation will be
 performed using DIIS
 SCF converges when DIIS error is below 1.0e-06
 ---------------------------------------
  Cycle       Energy         DIIS error
 ---------------------------------------
    1   -2765.5200927752      1.77e-02  
    2   -2753.8587069444      1.57e-03  
    3   -2754.1976837815      8.82e-04  
    4   -2754.2817811270      2.54e-04  
    5   -2754.2933797038      6.82e-05  
    6   -2754.2944461851      2.37e-05  
    7   -2754.2946806886      1.16e-05  
    8   -2754.2947579898      4.50e-06  
    9   -2754.2947738904      2.10e-06  
   10   -2754.2947763096      8.68e-07  Convergence criterion met
 ---------------------------------------
 SCF time:   CPU 6443.46s  wall 236.00s 

************** Final PCM Free Energy Summary **************
 G_electrostatic  =      -0.01995075 hartree =     -12.51928283 kcal/mol
 G_cavitation     =       0.00000000 hartree =       0.00000000 kcal/mol
 G_dispersion     =       0.00000000 hartree =       0.00000000 kcal/mol
 G_repulsion      =       0.00000000 hartree =       0.00000000 kcal/mol
 --------------------------------------------------
 Non-electrostatic Free Energy =       0.00000000 hartree =       0.00000000 kcal/mol
 Total                         =      -0.01995075 hartree =     -12.51928283 kcal/mol
 --------------------------------------------------
 SCF Energy (H0 + V/2)                       =   -2754.29477631 
 Solute Internal Energy (H0)                 =   -2754.27482556 
 Total Free Energy (H0 + V/2 + non-elec)     =   -2754.29477631 hartree
                                             = -1728346.05806008 kcal/mol
***********************************************************

 SCF   energy in the final basis set =    -2754.2947763096
 Total energy in the final basis set =    -2754.2947763096


 --------------------------------------------------------------
  Generalized many-body perturbation theory program
  by Joonho Lee, Fazle Rob, Xintian Feng, Evgeny Epifanovsky

 No regularization used 
 (reg. param. = 0.0000e+00)
  (P|Q)^-1/2 Time:  CPU 143.84 s  wall 2.43 s

 In RI-MP2 calculation: 
 # of frozen core orbitals: 45

 Components of the RIMP2 correlation energy:
        aaaa    correlation energy =        -0.6702942966 a.u.
        abab    correlation energy =        -3.7115560621 a.u.
        bbbb    correlation energy =        -0.6702942966 a.u.
        non-Brillouin singles      =        -0.0000000000 a.u.
        total same-spin energy     =        -1.3405885932 a.u.
        total opposite-spin energy =        -3.7115560621 a.u.

 Total  RIMP2   correlation energy =        -5.0521446552 a.u.
        RIMP2         total energy =     -2759.3469209648 a.u.

 RI-MP2 Energy Time:  CPU 2740.44 s  wall 44.12 s
 
 --------------------------------------------------------------
 
                    Orbital Energies (a.u.)
 --------------------------------------------------------------
 
 Alpha MOs
 -- Occupied --
-92.0159 -91.9942 -91.9902 -91.9867 -26.3337 -20.6119 -20.5926 -20.5919
-20.5499 -11.4102 -11.3770 -11.3194 -11.3190 -11.3094 -11.2971 -11.2958
-11.2934 -11.2930 -11.2883 -11.2873 -11.2869 -11.2861 -11.2842 -11.2827
-11.2804 -11.2610 -11.2599 -11.2596 -11.2502  -9.0140  -8.9982  -8.9905
 -8.9866  -6.6947  -6.6942  -6.6937  -6.6795  -6.6788  -6.6775  -6.6715
 -6.6708  -6.6698  -6.6676  -6.6669  -6.6661  -1.6465  -1.4717  -1.4167
 -1.4146  -1.3670  -1.2328  -1.1962  -1.1683  -1.1416  -1.0840  -1.0524
 -1.0471  -1.0273  -1.0026  -0.9933  -0.9710  -0.9615  -0.9506  -0.9382
 -0.8961  -0.8689  -0.8509  -0.8044  -0.7909  -0.7883  -0.7734  -0.7691
 -0.7585  -0.7329  -0.7179  -0.7148  -0.7016  -0.6886  -0.6833  -0.6783
 -0.6708  -0.6603  -0.6593  -0.6528  -0.6310  -0.6203  -0.6172  -0.6062
 -0.6019  -0.5941  -0.5829  -0.5796  -0.5676  -0.5644  -0.5561  -0.5510
 -0.5360  -0.5259  -0.5241  -0.5162  -0.5147  -0.5079  -0.5014  -0.4934
 -0.4913  -0.4837  -0.4763  -0.4689  -0.4617  -0.4610  -0.4608  -0.4067
 -0.3999  -0.3877  -0.3579  -0.3485  -0.3148  -0.2893  -0.2594
 -- Virtual --
  0.0294   0.0613   0.1145   0.1260   0.1369   0.1408   0.1499   0.1555
  0.1559   0.1605   0.1665   0.1726   0.1808   0.1827   0.1853   0.1931
  0.1949   0.2039   0.2103   0.2199   0.2203   0.2209   0.2244   0.2262
  0.2337   0.2357   0.2408   0.2524   0.2611   0.2675   0.2709   0.2806
  0.2836   0.3088   0.3206   0.3278   0.3326   0.3373   0.3390   0.3467
  0.3520   0.3581   0.3676   0.3706   0.3751   0.3804   0.3827   0.3853
  0.3888   0.3921   0.3953   0.4042   0.4063   0.4100   0.4174   0.4218
  0.4260   0.4294   0.4345   0.4401   0.4465   0.4485   0.4528   0.4552
  0.4580   0.4618   0.4659   0.4713   0.4762   0.4779   0.4803   0.4893
  0.4944   0.4967   0.5002   0.5106   0.5128   0.5148   0.5179   0.5194
  0.5260   0.5348   0.5389   0.5441   0.5468   0.5473   0.5500   0.5556
  0.5559   0.5596   0.5671   0.5683   0.5695   0.5764   0.5781   0.5822
  0.5831   0.5892   0.5924   0.5961   0.5992   0.6018   0.6071   0.6073
  0.6156   0.6186   0.6189   0.6236   0.6252   0.6273   0.6293   0.6372
  0.6392   0.6411   0.6451   0.6472   0.6537   0.6557   0.6593   0.6636
  0.6736   0.6784   0.6800   0.6861   0.6888   0.6920   0.6955   0.6992
  0.7062   0.7121   0.7166   0.7199   0.7250   0.7440   0.7453   0.7506
  0.7550   0.7674   0.7692   0.7737   0.7794   0.7894   0.7942   0.7999
  0.8029   0.8116   0.8157   0.8175   0.8211   0.8239   0.8300   0.8397
  0.8503   0.8564   0.8609   0.8674   0.8717   0.8843   0.8874   0.8949
  0.8973   0.9013   0.9042   0.9093   0.9129   0.9193   0.9219   0.9265
  0.9301   0.9355   0.9399   0.9452   0.9520   0.9581   0.9603   0.9683
  0.9725   0.9752   0.9798   0.9829   0.9929   0.9965   0.9978   1.0024
  1.0049   1.0100   1.0115   1.0170   1.0228   1.0239   1.0300   1.0371
  1.0444   1.0510   1.0537   1.0598   1.0655   1.0688   1.0741   1.0766
  1.0780   1.0856   1.0869   1.0923   1.0947   1.1015   1.1081   1.1110
  1.1151   1.1301   1.1342   1.1404   1.1426   1.1468   1.1546   1.1588
  1.1629   1.1692   1.1778   1.1806   1.1813   1.1832   1.1896   1.1909
  1.1969   1.2049   1.2099   1.2137   1.2163   1.2214   1.2231   1.2309
  1.2326   1.2447   1.2468   1.2529   1.2598   1.2680   1.2689   1.2744
  1.2781   1.2806   1.2909   1.2997   1.3073   1.3140   1.3163   1.3191
  1.3281   1.3286   1.3386   1.3458   1.3510   1.3556   1.3602   1.3722
  1.3732   1.3825   1.3906   1.3940   1.4080   1.4095   1.4147   1.4219
  1.4327   1.4343   1.4455   1.4640   1.4667   1.4767   1.4872   1.4900
  1.4914   1.4985   1.5007   1.5013   1.5087   1.5129   1.5242   1.5292
  1.5299   1.5367   1.5434   1.5469   1.5476   1.5554   1.5620   1.5679
  1.5756   1.5812   1.5867   1.5961   1.6013   1.6161   1.6234   1.6319
  1.6438   1.6466   1.6560   1.6584   1.6628   1.6681   1.6749   1.6781
  1.6834   1.6957   1.7001   1.7080   1.7275   1.7314   1.7362   1.7519
  1.7572   1.7698   1.7767   1.7828   1.7911   1.8004   1.8112   1.8183
  1.8284   1.8327   1.8375   1.8472   1.8549   1.8614   1.8667   1.8707
  1.8759   1.8835   1.8957   1.9086   1.9186   1.9219   1.9320   1.9350
  1.9410   1.9429   1.9508   1.9600   1.9632   1.9712   1.9764   1.9860
  2.0044   2.0138   2.0181   2.0284   2.0360   2.0417   2.0513   2.0579
  2.0633   2.0859   2.0934   2.0980   2.1089   2.1246   2.1333   2.1405
  2.1479   2.1569   2.1589   2.1685   2.1698   2.1780   2.1865   2.1934
  2.1967   2.2039   2.2100   2.2177   2.2220   2.2287   2.2342   2.2417
  2.2513   2.2538   2.2620   2.2712   2.2752   2.2788   2.2843   2.3075
  2.3078   2.3136   2.3196   2.3217   2.3335   2.3448   2.3520   2.3597
  2.3699   2.3839   2.3846   2.3998   2.4017   2.4194   2.4270   2.4290
  2.4349   2.4416   2.4530   2.4616   2.4741   2.4776   2.4868   2.4960
  2.5015   2.5248   2.5273   2.5304   2.5337   2.5496   2.5606   2.5687
  2.5773   2.5775   2.5833   2.5961   2.6019   2.6144   2.6168   2.6252
  2.6284   2.6352   2.6395   2.6471   2.6512   2.6605   2.6635   2.6743
  2.6780   2.6908   2.6945   2.6976   2.6993   2.7012   2.7069   2.7228
  2.7253   2.7344   2.7367   2.7379   2.7421   2.7462   2.7574   2.7663
  2.7744   2.7864   2.7909   2.7992   2.7996   2.8108   2.8140   2.8169
  2.8266   2.8364   2.8413   2.8477   2.8531   2.8622   2.8661   2.8732
  2.8773   2.8826   2.8871   2.8991   2.9050   2.9174   2.9271   2.9372
  2.9465   2.9520   2.9645   2.9744   2.9782   2.9850   2.9942   3.0047
  3.0085   3.0126   3.0182   3.0318   3.0347   3.0410   3.0434   3.0439
  3.0529   3.0644   3.0685   3.0808   3.0904   3.0942   3.1016   3.1052
  3.1062   3.1144   3.1194   3.1239   3.1305   3.1355   3.1506   3.1524
  3.1559   3.1619   3.1630   3.1671   3.1734   3.1759   3.1798   3.1864
  3.1915   3.1960   3.2017   3.2046   3.2124   3.2224   3.2246   3.2267
  3.2315   3.2434   3.2474   3.2506   3.2557   3.2619   3.2670   3.2704
  3.2735   3.2781   3.2841   3.2857   3.2891   3.2944   3.2975   3.2991
  3.3098   3.3119   3.3240   3.3299   3.3325   3.3369   3.3429   3.3469
  3.3484   3.3548   3.3568   3.3592   3.3620   3.3673   3.3680   3.3738
  3.3810   3.3888   3.3893   3.3934   3.3999   3.4079   3.4142   3.4181
  3.4203   3.4259   3.4343   3.4366   3.4445   3.4472   3.4514   3.4521
  3.4536   3.4601   3.4664   3.4692   3.4735   3.4840   3.4890   3.4961
  3.5056   3.5116   3.5164   3.5205   3.5273   3.5302   3.5303   3.5371
  3.5522   3.5566   3.5625   3.5663   3.5690   3.5719   3.5818   3.5834
  3.5876   3.5913   3.5953   3.6002   3.6039   3.6080   3.6105   3.6238
  3.6275   3.6337   3.6439   3.6490   3.6527   3.6546   3.6563   3.6618
  3.6667   3.6726   3.6777   3.6798   3.6813   3.6882   3.6935   3.7014
  3.7082   3.7104   3.7151   3.7191   3.7251   3.7265   3.7301   3.7403
  3.7437   3.7459   3.7487   3.7548   3.7584   3.7726   3.7742   3.7900
  3.7923   3.7952   3.8034   3.8123   3.8180   3.8223   3.8244   3.8343
  3.8376   3.8413   3.8505   3.8556   3.8574   3.8579   3.8705   3.8728
  3.8806   3.8900   3.8959   3.8985   3.9035   3.9125   3.9174   3.9255
  3.9331   3.9355   3.9493   3.9647   3.9694   3.9706   3.9779   3.9841
  3.9961   3.9999   4.0080   4.0124   4.0204   4.0279   4.0329   4.0369
  4.0470   4.0541   4.0604   4.0714   4.0815   4.0820   4.0852   4.0940
  4.1025   4.1090   4.1173   4.1256   4.1314   4.1437   4.1456   4.1559
  4.1640   4.1690   4.1727   4.1833   4.1879   4.1911   4.1918   4.1996
  4.2084   4.2090   4.2299   4.2368   4.2381   4.2546   4.2697   4.2754
  4.2817   4.2964   4.3081   4.3116   4.3197   4.3267   4.3395   4.3475
  4.3485   4.3675   4.3721   4.3755   4.3785   4.3912   4.3938   4.3996
  4.4060   4.4093   4.4113   4.4215   4.4233   4.4373   4.4413   4.4486
  4.4629   4.4657   4.4750   4.4896   4.4948   4.4999   4.5061   4.5072
  4.5283   4.5413   4.5456   4.5508   4.5581   4.5750   4.5822   4.5963
  4.5997   4.6036   4.6217   4.6340   4.6390   4.6398   4.6475   4.6547
  4.6623   4.6657   4.6706   4.6808   4.6823   4.7094   4.7149   4.7280
  4.7358   4.7416   4.7555   4.7644   4.7773   4.7911   4.8088   4.8138
  4.8184   4.8245   4.8332   4.8542   4.8700   4.8976   4.9116   4.9288
  4.9377   4.9449   4.9532   4.9618   4.9710   4.9793   4.9935   4.9992
  5.0104   5.0121   5.0192   5.0439   5.0467   5.0565   5.0688   5.0808
  5.0855   5.1262   5.1522   5.1602   5.1718   5.1803   5.1940   5.2033
  5.2088   5.2135   5.2198   5.2445   5.2559   5.2591   5.2715   5.2942
  5.2985   5.3099   5.3160   5.3328   5.3397   5.3529   5.3554   5.3658
  5.3723   5.3947   5.3972   5.3989   5.4251   5.4462   5.4604   5.4633
  5.4732   5.4803   5.4970   5.5063   5.5128   5.5209   5.5509   5.5623
  5.5737   5.5829   5.5929   5.6057   5.6178   5.6343   5.6380   5.6918
  5.7125   5.7367   5.7859   5.8010   5.8144   5.8283   5.8536   5.8576
  5.8723   5.8818   5.9201   5.9699   5.9744   5.9801   6.0005   6.0554
  6.0647   6.0875   6.1247   6.1338   6.1705   6.1756   6.1806   6.1860
  6.2320   6.2446   6.2673   6.2756   6.2899   6.3088   6.3184   6.3800
  6.4386   6.4470   6.4869   6.5187   6.5475   6.5552   6.5566   6.6517
  6.6682   6.6770   6.7058   6.7360   6.7425   6.7995   6.8405   6.8606
  6.8829   6.8916   6.9916   7.1192   7.1374   7.1786   7.2114   7.2153
  7.2331   7.3189   7.3267   7.3317   7.3737   7.3769   7.4281   7.4627
  7.4785   7.4870   7.4886   7.5203   7.5497   7.6098   7.7164   7.7710
  7.7965   7.8315   7.9054   7.9203   7.9473   8.0018   8.0997   8.1758
  8.5924   8.9287   9.0092   9.3637   9.4999   9.6916  10.2084  10.7340
 11.2368  11.5357  11.9159  11.9610  12.1250  12.1928  12.2998  12.5763
 12.6989  12.7377  12.9280  13.2272  13.2813  13.5712  13.8449  13.8993
 13.9254  14.0181  14.1852  14.4934  15.1923
 --------------------------------------------------------------
 
          Ground-State Mulliken Net Atomic Charges

     Atom                 Charge (a.u.)
  ----------------------------------------
      1 C                    -0.186722
      2 C                    -0.254553
      3 S                    -0.021312
      4 C                    -0.012386
      5 H                     0.196554
      6 C                    -0.027746
      7 C                     0.247653
      8 C                     0.238979
      9 C                    -0.045739
     10 C                    -0.032586
     11 O                    -0.333062
     12 O                    -0.339836
     13 C                    -0.085652
     14 H                     0.122819
     15 H                     0.090844
     16 H                     0.094799
     17 C                    -0.086466
     18 H                     0.124867
     19 H                     0.094226
     20 H                     0.090191
     21 C                    -0.211697
     22 S                     0.001895
     23 C                    -0.057586
     24 H                     0.196607
     25 H                     0.206712
     26 C                    -0.014791
     27 S                     0.118907
     28 C                    -0.239547
     29 C                    -0.088703
     30 C                    -0.004897
     31 C                     0.392581
     32 C                    -0.158516
     33 S                     0.036975
     34 C                     0.460603
     35 O                    -0.450208
     36 O                    -0.297758
     37 F                    -0.210908
     38 C                    -0.055063
     39 H                     0.116536
     40 H                     0.084543
     41 H                     0.084534
     42 H                     0.214906
  ----------------------------------------
  Sum of atomic charges =     0.000000

 -----------------------------------------------------------------
                    Cartesian Multipole Moments
 -----------------------------------------------------------------
    Charge (ESU x 10^10)
                -0.0000
    Dipole Moment (Debye)
         X       0.3814      Y       1.4272      Z       3.0300
       Tot       3.3709
    Quadrupole Moments (Debye-Ang)
        XX    -180.2142     XY       1.7312     YY    -158.0728
        XZ       8.2567     YZ      -9.0386     ZZ    -202.7141
    Octopole Moments (Debye-Ang^2)
       XXX      -6.3519    XXY     287.6261    XYY      -4.2427
       YYY     881.5274    XXZ     178.4082    XYZ     -51.0557
       YYZ     123.1551    XZZ       6.4588    YZZ     490.4861
       ZZZ     573.2432
    Hexadecapole Moments (Debye-Ang^3)
      XXXX   -2261.3600   XXXY    -597.5340   XXYY   -3742.0300
      XYYY    -519.6027   YYYY  -18548.0497   XXXZ     -17.9674
      XXYZ     456.1458   XYYZ     163.0062   YYYZ    1118.5480
      XXZZ   -1362.5038   XYZZ    -147.8540   YYZZ   -4212.3353
      XZZZ    -209.8725   YZZZ     552.8084   ZZZZ   -5685.4018
 -----------------------------------------------------------------
 Total job time:  284.99s(wall), 9322.89s(cpu) 
 Tue Sep 26 18:16:50 2023

        *************************************************************
        *                                                           *
        *  Thank you very much for using Q-Chem.  Have a nice day.  *
        *                                                           *
        *************************************************************


0 sent ACK to 0 
now end server 0 ... 
cleanup process ... done
remove work dirs ./qchem1190640.0 -- ./qchem1190640.0
rm -rf ./qchem1190640.0
rm -rf ./qchem1190640
