You are running Q-Chem version: 5.4.0

#
# job setting
#
local host:  exp-3-12
current dir: /expanse/lustre/projects/csd626/rramji/aromodel/PTB7_fin/Rotation_Test
input file:  fin_bdt_Phi_20_Theta_240_fin_ftt.qcin
output file: 
nprocs     : 1
nthreads   : 64
#
# qchem installation setting
#
QC:          /cm/shared/apps/spack/cpu/opt/spack/linux-centos8-zen2/gcc-10.2.0/qchem-5.4-akfmr7b3t57bfs6qan3padb2wnb2i7cl
QCAUX:       /cm/shared/apps/spack/cpu/opt/spack/linux-centos8-zen2/gcc-10.2.0/qchem-5.4-akfmr7b3t57bfs6qan3padb2wnb2i7cl/qcaux
QCPROG:      /cm/shared/apps/spack/cpu/opt/spack/linux-centos8-zen2/gcc-10.2.0/qchem-5.4-akfmr7b3t57bfs6qan3padb2wnb2i7cl/exe/qcprog.exe
QCPROG_S:    /cm/shared/apps/spack/cpu/opt/spack/linux-centos8-zen2/gcc-10.2.0/qchem-5.4-akfmr7b3t57bfs6qan3padb2wnb2i7cl/exe/qcprog.exe_s
PARALLEL:    -DPARALLEL
QCMPI:       mpich
#
# qchem directory setting
#
qcrun:       qchem3981590
QCSCRATCH:   .
QCLOCALSCR:  
QCTMPDIR:    .
QCFILEPREF:  ./qchem3981590
QCSAVEDIR:   
workdirs:    ./qchem3981590
workdir0:    ./qchem3981590
partmpdirs =  
#
# parallel setting
#
QCRSH:           ssh
QCMPI:           mpich
QCMPIRUN:        /cm/shared/apps/spack/cpu/opt/spack/linux-centos8-zen2/gcc-10.2.0/qchem-5.4-akfmr7b3t57bfs6qan3padb2wnb2i7cl/bin/mpi/mpirun_qchem
QCMACHINEFILE:   ./qchem3981590/hostfile
exp-3-12

#
# env setting
#
exported envs:   QC QCAUX QCSCRATCH QCRUNNAME QCFILEPREF QCPROG QCPROG_S GUIFILE

Running Job 1 of 1 fin_bdt_Phi_20_Theta_240_fin_ftt.qcin
qchem fin_bdt_Phi_20_Theta_240_fin_ftt.qcin_3981590.0 ./qchem3981590/ 1
/cm/shared/apps/spack/cpu/opt/spack/linux-centos8-zen2/gcc-10.2.0/qchem-5.4-akfmr7b3t57bfs6qan3padb2wnb2i7cl/bin/mpi/mpirun_qchem -machinefile ./qchem3981590/hostfile -np 1 /cm/shared/apps/spack/cpu/opt/spack/linux-centos8-zen2/gcc-10.2.0/qchem-5.4-akfmr7b3t57bfs6qan3padb2wnb2i7cl/exe/qcprog.exe fin_bdt_Phi_20_Theta_240_fin_ftt.qcin_3981590.0 ./qchem3981590/

Process 0 of 1 is on exp-3-12 - thread support 0
initial socket setup ...start
initial socket setup ...done 
now start server 0 ... 
                  Welcome to Q-Chem
     A Quantum Leap Into The Future Of Chemistry


 Q-Chem 5.4, Q-Chem, Inc., Pleasanton, CA (2021)

 License issued to: University of California, San Diego (site)

 E. Epifanovsky,  A. T. B. Gilbert,  Xintian Feng,  Joonho Lee,  Yuezhi Mao,  
 N. Mardirossian,  P. Pokhilko,  A. White,  M. Wormit,  M. P. Coons,  
 A. L. Dempwolff,  Zhengting Gan,  D. Hait,  P. R. Horn,  L. D. Jacobson,  
 I. Kaliman,  J. Kussmann,  A. W. Lange,  Ka Un Lao,  D. S. Levine,  Jie Liu,  
 S. C. McKenzie,  A. F. Morrison,  K. Nanda,  F. Plasser,  D. R. Rehn,  
 M. L. Vidal,  Zhi-Qiang You,  Ying Zhu,  B. Alam,  B. Albrecht,  
 A. Aldossary,  E. Alguire,  J. H. Andersen,  D. Barton,  K. Begam,  A. Behn,  
 Y. A. Bernard,  E. J. Berquist,  H. Burton,  A. Carreras,  K. Carter-Fenk,  
 R. Chakraborty,  A. D. Chien,  K. D. Closser,  V. Cofer-Shabica,  
 S. Dasgupta,  Jia Deng,  M. de Wergifosse,  M. Diedenhofen,  Hainam Do,  
 S. Ehlert,  Po-Tung Fang,  S. Fatehi,  Qingguo Feng,  J. Gayvert,  
 Qinghui Ge,  G. Gidofalvi,  M. Goldey,  J. Gomes,  C. Gonzalez-Espinoza,  
 S. Gulania,  A. Gunina,  M. W. D. Hanson-Heine,  P. H. P. Harbach,  
 A. W. Hauser,  M. F. Herbst,  M. Hernandez Vera,  M. Hodecker,  
 Z. C. Holden,  S. Houck,  Xunkun Huang,  Kerwin Hui,  B. C. Huynh,  
 M. Ivanov,  Hyunjun Ji,  Hanjie Jiang,  B. Kaduk,  S. Kaehler,  
 K. Khistyaev,  Jaehoon Kim,  P. Klunzinger,  Z. Koczor-Benda,  
 Joong Hoon Koh,  D. Kosenkov,  L. Koulias,  T. Kowalczyk,  C. M. Krauter,  
 K. Kue,  A. Kunitsa,  T. Kus,  A. Landau,  K. V. Lawler,  D. Lefrancois,  
 S. Lehtola,  Rain Li,  Yi-Pei Li,  Jiashu Liang,  M. Liebenthal,  
 Hung-Hsuan Lin,  You-Sheng Lin,  Fenglai Liu,  Kuan-Yu Liu,  
 M. Loipersberger,  A. Luenser,  A. Manjanath,  P. Manohar,  E. Mansoor,  
 S. F. Manzer,  Shan-Ping Mao,  A. V. Marenich,  T. Markovich,  S. Mason,  
 S. A. Maurer,  P. F. McLaughlin,  M. F. S. J. Menger,  J.-M. Mewes,  
 S. A. Mewes,  P. Morgante,  J. W. Mullinax,  T. S. Nguyen-Beck,  
 K. J. Oosterbaan,  G. Paran,  Alexander C. Paul,  Suranjan K. Paul,  
 F. Pavosevic,  Zheng Pei,  S. Prager,  E. I. Proynov,  E. Ramos,  B. Rana,  
 A. E. Rask,  A. Rettig,  R. M. Richard,  F. Rob,  E. Rossomme,  T. Scheele,  
 M. Scheurer,  M. Schneider,  N. Sergueev,  S. M. Sharada,  W. Skomorowski,  
 D. W. Small,  C. J. Stein,  Yu-Chuan Su,  E. J. Sundstrom,  Zhen Tao,  
 J. Thirman,  T. Tsuchimochi,  N. M. Tubman,  S. P. Veccham,  O. Vydrov,  
 J. Wenzel,  J. Witte,  A. Yamada,  Kun Yao,  S. Yeganeh,  S. R. Yost,  
 A. Zech,  Igor Ying Zhang,  Xing Zhang,  Yu Zhang,  D. Zuev,  
 A. Aspuru-Guzik,  A. T. Bell,  N. A. Besley,  K. B. Bravaya,  B. R. Brooks,  
 D. Casanova,  Jeng-Da Chai,  S. Coriani,  C. J. Cramer,  
 A. E. DePrince, III,  R. A. DiStasio Jr.,  A. Dreuw,  B. D. Dunietz,  
 T. R. Furlani,  W. A. Goddard III,  S. Grimme,  S. Hammes-Schiffer,  
 T. Head-Gordon,  W. J. Hehre,  Chao-Ping Hsu,  T.-C. Jagau,  Yousung Jung,  
 A. Klamt,  Jing Kong,  D. S. Lambrecht,  WanZhen Liang,  N. J. Mayhall,  
 C. W. McCurdy,  J. B. Neaton,  C. Ochsenfeld,  J. A. Parkhill,  R. Peverati,  
 V. A. Rassolov,  Yihan Shao,  L. V. Slipchenko,  T. Stauch,  R. P. Steele,  
 J. E. Subotnik,  A. J. W. Thom,  A. Tkatchenko,  D. G. Truhlar,  
 T. Van Voorhis,  T. A. Wesolowski,  K. B. Whaley,  H. L. Woodcock III,  
 P. M. Zimmerman,  S. Faraji,  P. M. W. Gill,  M. Head-Gordon,  
 J. M. Herbert,  A. I. Krylov

 Contributors to earlier versions of Q-Chem not listed above: 
 R. D. Adamson,  B. Austin,  R. Baer,  J. Baker,  G. J. O. Beran,  
 K. Brandhorst,  S. T. Brown,  E. F. C. Byrd,  A. K. Chakraborty,  
 G. K. L. Chan,  Chun-Min Chang,  Yunqing Chen,  C.-L. Cheng,  
 Siu Hung Chien,  D. M. Chipman,  D. L. Crittenden,  H. Dachsel,  
 R. J. Doerksen,  A. D. Dutoi,  R. G. Edgar,  J. Fosso-Tande,  
 L. Fusti-Molnar,  D. Ghosh,  A. Ghysels,  A. Golubeva-Zadorozhnaya,  
 J. Gonthier,  M. S. Gordon,  S. R. Gwaltney,  G. Hawkins,  J. E. Herr,  
 A. Heyden,  S. Hirata,  E. G. Hohenstein,  G. Kedziora,  F. J. Keil,  
 C. Kelley,  Jihan Kim,  R. A. King,  R. Z. Khaliullin,  P. P. Korambath,  
 W. Kurlancheek,  A. Laurent,  A. M. Lee,  M. S. Lee,  S. V. Levchenko,  
 Ching Yeh Lin,  D. Liotard,  E. Livshits,  R. C. Lochan,  I. Lotan,  
 L. A. Martinez-Martinez,  P. E. Maslen,  N. Nair,  D. P. O'Neill,  
 D. Neuhauser,  E. Neuscamman,  C. M. Oana,  R. Olivares-Amaya,  R. Olson,  
 T. M. Perrine,  B. Peters,  P. A. Pieniazek,  A. Prociuk,  Y. M. Rhee,  
 J. Ritchie,  M. A. Rohrdanz,  E. Rosta,  N. J. Russ,  H. F. Schaefer III,  
 M. W. Schmidt,  N. E. Schultz,  S. Sharma,  N. Shenvi,  C. D. Sherrill,  
 A. C. Simmonett,  A. Sodt,  T. Stein,  D. Stuck,  K. S. Thanthiriwatte,  
 V. Vanovschi,  L. Vogt,  Tao Wang,  A. Warshel,  M. A. Watson,  
 C. F. Williams,  Q. Wu,  X. Xu,  Jun Yang,  W. Zhang,  Yan Zhao

 Please cite Q-Chem as follows:
 Y. Shao et al., Mol. Phys. 113, 184-215 (2015)
 DOI: 10.1080/00268976.2014.952696

 Q-Chem 5.4.0 for Intel X86 EM64T Linux

 Parts of Q-Chem use Armadillo 9.800.1 (Horizon Scraper).
 http://arma.sourceforge.net/

 Q-Chem begins on Sun Sep 24 18:27:15 2023  

 Host: 
0

     Scratch files written to ./qchem3981590//
 May1621 |scratch|qcdevops|jenkins|workspace|build_RNUM    
 Parallel job on  1  processors
 Processing $rem in /cm/shared/apps/spack/cpu/opt/spack/linux-centos8-zen2/gcc-10.2.0/qchem-5.4-akfmr7b3t57bfs6qan3padb2wnb2i7cl/config/preferences:
 Processing $rem in /home/rramji/.qchemrc:
 Symmetry turned off for PCM/SM12/SMD calculation
 Core orbitals will be frozen

 Checking the input file for inconsistencies... 	...done.

 Q-Chem warning in module forms1/BasisType.C, line 2236:

 You are not using the predefined 5D/6D in this basis set.


--------------------------------------------------------------
User input:
--------------------------------------------------------------
$molecule
0 1
C	0.255929	-8.519741	-0.092419
C	-0.666007	-7.635967	0.449364
S	1.592708	-7.651740	-0.885736
C	-0.332317	-6.261894	0.254813
H	-1.571741	-7.954738	0.980526
C	0.904324	-6.079985	-0.458965
C	1.385968	-4.798382	-0.767823
C	-1.118303	-5.153542	0.681909
C	-0.638514	-3.869626	0.369139
C	0.600871	-3.688927	-0.342916
O	-2.248132	-5.481075	1.368544
O	2.520275	-4.479871	-1.458570
C	3.639637	-5.356026	-1.405396
H	4.495304	-4.790496	-1.820940
H	3.490336	-6.268513	-2.023129
H	3.873314	-5.658187	-0.361595
C	-3.314934	-4.546999	1.480048
H	-4.171837	-5.107564	1.899255
H	-3.601473	-4.131473	0.490123
H	-3.068969	-3.712085	2.171521
C	0.930308	-2.314326	-0.537642
S	-1.334769	-2.295487	0.785807
C	0.000000	-1.435180	0.000000
H	1.836691	-1.993211	-1.066134
H	0.249906	-9.615985	-0.091781
C	0.000000	0.000000	0.000000
S	0.309721	0.844422	1.510732
C	0.847502	2.325108	0.727629
C	0.310602	0.853460	-1.064665
C	0.784173	2.159014	-0.678287
C	0.289451	0.790512	-2.486150
C	0.721927	1.979112	-3.106916
S	1.145464	3.152519	-1.965735
C	0.813355	2.216642	-4.559972
O	0.496884	1.338418	-5.350277
O	1.255274	3.421340	-5.004375
F	-0.087923	-0.257761	-3.246290
C	1.387494	3.754937	-6.334976
H	1.765978	4.793056	-6.370268
H	0.417095	3.693789	-6.875609
H	2.098820	3.081033	-6.861878
H	1.162229	3.189623	1.321510
$end

$rem
JOBTYPE		SP
EXCHANGE	HF
CORRELATION	pRIMP2
BASIS		cc-pvtz
METHOD		rimp2
AUX_BASIS	rimp2-cc-pvtz
SOLVENT_METHOD	PCM
PURECART	11111
SYMMETRY	false
MEM_TOTAL	110000
SCF_CONVERGENCE = 6
THRESH=10
GUI = 2
$end



$solvent
dielectric 4.90
$end
--------------------------------------------------------------
 ----------------------------------------------------------------
             Standard Nuclear Orientation (Angstroms)
    I     Atom           X                Y                Z
 ----------------------------------------------------------------
    1      C       0.2559290000    -8.5197410000    -0.0924190000
    2      C      -0.6660070000    -7.6359670000     0.4493640000
    3      S       1.5927080000    -7.6517400000    -0.8857360000
    4      C      -0.3323170000    -6.2618940000     0.2548130000
    5      H      -1.5717410000    -7.9547380000     0.9805260000
    6      C       0.9043240000    -6.0799850000    -0.4589650000
    7      C       1.3859680000    -4.7983820000    -0.7678230000
    8      C      -1.1183030000    -5.1535420000     0.6819090000
    9      C      -0.6385140000    -3.8696260000     0.3691390000
   10      C       0.6008710000    -3.6889270000    -0.3429160000
   11      O      -2.2481320000    -5.4810750000     1.3685440000
   12      O       2.5202750000    -4.4798710000    -1.4585700000
   13      C       3.6396370000    -5.3560260000    -1.4053960000
   14      H       4.4953040000    -4.7904960000    -1.8209400000
   15      H       3.4903360000    -6.2685130000    -2.0231290000
   16      H       3.8733140000    -5.6581870000    -0.3615950000
   17      C      -3.3149340000    -4.5469990000     1.4800480000
   18      H      -4.1718370000    -5.1075640000     1.8992550000
   19      H      -3.6014730000    -4.1314730000     0.4901230000
   20      H      -3.0689690000    -3.7120850000     2.1715210000
   21      C       0.9303080000    -2.3143260000    -0.5376420000
   22      S      -1.3347690000    -2.2954870000     0.7858070000
   23      C       0.0000000000    -1.4351800000     0.0000000000
   24      H       1.8366910000    -1.9932110000    -1.0661340000
   25      H       0.2499060000    -9.6159850000    -0.0917810000
   26      C       0.0000000000     0.0000000000     0.0000000000
   27      S       0.3097210000     0.8444220000     1.5107320000
   28      C       0.8475020000     2.3251080000     0.7276290000
   29      C       0.3106020000     0.8534600000    -1.0646650000
   30      C       0.7841730000     2.1590140000    -0.6782870000
   31      C       0.2894510000     0.7905120000    -2.4861500000
   32      C       0.7219270000     1.9791120000    -3.1069160000
   33      S       1.1454640000     3.1525190000    -1.9657350000
   34      C       0.8133550000     2.2166420000    -4.5599720000
   35      O       0.4968840000     1.3384180000    -5.3502770000
   36      O       1.2552740000     3.4213400000    -5.0043750000
   37      F      -0.0879230000    -0.2577610000    -3.2462900000
   38      C       1.3874940000     3.7549370000    -6.3349760000
   39      H       1.7659780000     4.7930560000    -6.3702680000
   40      H       0.4170950000     3.6937890000    -6.8756090000
   41      H       2.0988200000     3.0810330000    -6.8618780000
   42      H       1.1622290000     3.1896230000     1.3215100000
 ----------------------------------------------------------------
 Nuclear Repulsion Energy =        3303.86610797 hartrees
 There are      119 alpha and      119 beta electrons
 Requested basis set is cc-pVTZ
 There are 376 shells and 1068 basis functions

 Total QAlloc Memory Limit 110000 MB
 Mega-Array Size       188 MB
 MEM_STATIC part       192 MB
 Discretize the solute cavity surface with Lebedev spheres
	Using 110 Lebedev grid points for each H atom
	Using 194 Lebedev grid points for other atoms
	Atomic van der Waals radii will be scaled by 1.20
 Remove points where switching function is < 1.0e-08
 Keep 2915 surface tesserae and discard 4141 interior tesserae
 Molecular Surface Area = 442.023 Angst**2
 Requested basis set is rimp2-cc-pVTZ
 There are 833 shells and 2903 basis functions
 A cutoff of  1.0D-10 yielded  31282 shell pairs
 There are    240490 function pairs (    312333 Cartesian)
 Smallest overlap matrix eigenvalue = 2.16E-05

 Scale SEOQF with 1.000000e-01/1.000000e-02/1.000000e-02

 Standard Electronic Orientation quadrupole field applied
 Nucleus-field energy     =     0.0000000347 hartrees
 Guess from superposition of atomic densities
 Warning:  Energy on first SCF cycle will be non-variational
 SAD guess density has 238.000000 electrons

 -----------------------------------------------------------------------
  General SCF calculation program by
  Eric Jon Sundstrom, Paul Horn, Yuezhi Mao, Dmitri Zuev, Alec White,
  David Stuck, Shaama M.S., Shane Yost, Joonho Lee, David Small,
  Daniel Levine, Susi Lehtola, Hugh Burton, Evgeny Epifanovsky,
  Bang C. Huynh
 -----------------------------------------------------------------------
 Hartree-Fock
 using 64 threads for integral computing
 -------------------------------------------------------
 OpenMP Integral computing Module                
 Release: version 1.0, May 2013, Q-Chem Inc. Pittsburgh 
 -------------------------------------------------------
 A restricted SCF calculation will be
 performed using DIIS
 SCF converges when DIIS error is below 1.0e-06
 ---------------------------------------
  Cycle       Energy         DIIS error
 ---------------------------------------
    1   -2765.5322142822      1.77e-02  
    2   -2753.8536999056      1.57e-03  
    3   -2754.1932692224      8.82e-04  
    4   -2754.2772963921      2.54e-04  
    5   -2754.2888785667      6.83e-05  
    6   -2754.2899507716      2.38e-05  
    7   -2754.2901870044      1.15e-05  
    8   -2754.2902652584      4.48e-06  
    9   -2754.2902814487      1.99e-06  
   10   -2754.2902838571      8.39e-07  Convergence criterion met
 ---------------------------------------
 SCF time:   CPU 6846.69s  wall 267.00s 

************** Final PCM Free Energy Summary **************
 G_electrostatic  =      -0.02022890 hartree =     -12.69382413 kcal/mol
 G_cavitation     =       0.00000000 hartree =       0.00000000 kcal/mol
 G_dispersion     =       0.00000000 hartree =       0.00000000 kcal/mol
 G_repulsion      =       0.00000000 hartree =       0.00000000 kcal/mol
 --------------------------------------------------
 Non-electrostatic Free Energy =       0.00000000 hartree =       0.00000000 kcal/mol
 Total                         =      -0.02022890 hartree =     -12.69382413 kcal/mol
 --------------------------------------------------
 SCF Energy (H0 + V/2)                       =   -2754.29028386 
 Solute Internal Energy (H0)                 =   -2754.27005496 
 Total Free Energy (H0 + V/2 + non-elec)     =   -2754.29028386 hartree
                                             = -1728343.23900363 kcal/mol
***********************************************************

 SCF   energy in the final basis set =    -2754.2902838571
 Total energy in the final basis set =    -2754.2902838571


 --------------------------------------------------------------
  Generalized many-body perturbation theory program
  by Joonho Lee, Fazle Rob, Xintian Feng, Evgeny Epifanovsky

 No regularization used 
 (reg. param. = 0.0000e+00)
  (P|Q)^-1/2 Time:  CPU 261.84 s  wall 5.16 s

 In RI-MP2 calculation: 
 # of frozen core orbitals: 45

 Components of the RIMP2 correlation energy:
        aaaa    correlation energy =        -0.6709408758 a.u.
        abab    correlation energy =        -3.7129355157 a.u.
        bbbb    correlation energy =        -0.6709408758 a.u.
        non-Brillouin singles      =        -0.0000000000 a.u.
        total same-spin energy     =        -1.3418817516 a.u.
        total opposite-spin energy =        -3.7129355157 a.u.

 Total  RIMP2   correlation energy =        -5.0548172674 a.u.
        RIMP2         total energy =     -2759.3451011245 a.u.

 RI-MP2 Energy Time:  CPU 5001.95 s  wall 83.26 s
 
 --------------------------------------------------------------
 
                    Orbital Energies (a.u.)
 --------------------------------------------------------------
 
 Alpha MOs
 -- Occupied --
-92.0158 -91.9953 -91.9892 -91.9864 -26.3337 -20.6122 -20.5924 -20.5914
-20.5504 -11.4106 -11.3772 -11.3192 -11.3183 -11.3068 -11.2982 -11.2974
-11.2962 -11.2943 -11.2885 -11.2871 -11.2863 -11.2860 -11.2841 -11.2837
-11.2800 -11.2611 -11.2592 -11.2582 -11.2500  -9.0141  -8.9993  -8.9896
 -8.9863  -6.6948  -6.6942  -6.6938  -6.6806  -6.6799  -6.6786  -6.6706
 -6.6699  -6.6689  -6.6673  -6.6667  -6.6658  -1.6466  -1.4720  -1.4165
 -1.4142  -1.3673  -1.2340  -1.1960  -1.1685  -1.1422  -1.0841  -1.0521
 -1.0478  -1.0279  -1.0022  -0.9932  -0.9716  -0.9611  -0.9504  -0.9386
 -0.8958  -0.8695  -0.8499  -0.8036  -0.7925  -0.7879  -0.7730  -0.7703
 -0.7577  -0.7326  -0.7183  -0.7149  -0.7016  -0.6891  -0.6829  -0.6786
 -0.6714  -0.6607  -0.6590  -0.6526  -0.6298  -0.6200  -0.6167  -0.6066
 -0.6027  -0.5951  -0.5825  -0.5768  -0.5711  -0.5645  -0.5529  -0.5518
 -0.5345  -0.5263  -0.5249  -0.5162  -0.5143  -0.5079  -0.5021  -0.4961
 -0.4894  -0.4847  -0.4751  -0.4681  -0.4617  -0.4614  -0.4603  -0.4112
 -0.3979  -0.3873  -0.3589  -0.3484  -0.3189  -0.2876  -0.2557
 -- Virtual --
  0.0212   0.0672   0.1140   0.1244   0.1367   0.1406   0.1496   0.1552
  0.1558   0.1603   0.1639   0.1741   0.1801   0.1837   0.1886   0.1927
  0.1997   0.2039   0.2099   0.2187   0.2198   0.2214   0.2238   0.2291
  0.2334   0.2361   0.2450   0.2526   0.2601   0.2666   0.2717   0.2802
  0.2902   0.3089   0.3184   0.3317   0.3322   0.3385   0.3453   0.3490
  0.3525   0.3610   0.3680   0.3716   0.3745   0.3797   0.3806   0.3855
  0.3865   0.3916   0.3953   0.4056   0.4090   0.4156   0.4197   0.4216
  0.4300   0.4314   0.4351   0.4440   0.4445   0.4518   0.4566   0.4571
  0.4588   0.4593   0.4661   0.4680   0.4770   0.4810   0.4819   0.4878
  0.4951   0.5009   0.5022   0.5093   0.5104   0.5151   0.5188   0.5224
  0.5278   0.5355   0.5387   0.5423   0.5439   0.5462   0.5489   0.5521
  0.5536   0.5573   0.5631   0.5669   0.5715   0.5724   0.5782   0.5815
  0.5876   0.5891   0.5919   0.5967   0.5983   0.6024   0.6078   0.6127
  0.6150   0.6156   0.6194   0.6230   0.6251   0.6283   0.6326   0.6373
  0.6396   0.6431   0.6444   0.6492   0.6497   0.6539   0.6594   0.6647
  0.6694   0.6748   0.6809   0.6824   0.6875   0.6965   0.6991   0.7024
  0.7099   0.7171   0.7187   0.7218   0.7295   0.7416   0.7479   0.7543
  0.7597   0.7629   0.7676   0.7799   0.7804   0.7884   0.7911   0.7969
  0.7997   0.8068   0.8130   0.8168   0.8261   0.8294   0.8298   0.8398
  0.8463   0.8566   0.8594   0.8677   0.8715   0.8830   0.8866   0.8932
  0.8971   0.8993   0.9099   0.9127   0.9148   0.9180   0.9201   0.9299
  0.9316   0.9381   0.9413   0.9444   0.9511   0.9552   0.9571   0.9651
  0.9721   0.9807   0.9816   0.9872   0.9920   0.9935   1.0002   1.0028
  1.0068   1.0088   1.0149   1.0191   1.0239   1.0285   1.0299   1.0429
  1.0438   1.0485   1.0590   1.0604   1.0687   1.0709   1.0737   1.0782
  1.0801   1.0856   1.0886   1.0904   1.0966   1.1057   1.1075   1.1137
  1.1153   1.1261   1.1290   1.1422   1.1439   1.1488   1.1531   1.1562
  1.1688   1.1700   1.1749   1.1813   1.1824   1.1845   1.1893   1.1924
  1.2001   1.2069   1.2076   1.2082   1.2172   1.2216   1.2236   1.2307
  1.2394   1.2417   1.2456   1.2522   1.2554   1.2673   1.2707   1.2746
  1.2792   1.2852   1.2862   1.2947   1.3067   1.3094   1.3190   1.3240
  1.3280   1.3336   1.3432   1.3450   1.3520   1.3531   1.3587   1.3712
  1.3768   1.3797   1.3881   1.3971   1.4047   1.4142   1.4174   1.4299
  1.4324   1.4462   1.4494   1.4581   1.4692   1.4739   1.4847   1.4919
  1.4977   1.4995   1.5036   1.5098   1.5121   1.5192   1.5211   1.5284
  1.5320   1.5374   1.5380   1.5446   1.5480   1.5566   1.5603   1.5673
  1.5689   1.5756   1.5906   1.5928   1.6066   1.6097   1.6244   1.6289
  1.6377   1.6451   1.6556   1.6590   1.6612   1.6676   1.6760   1.6839
  1.6881   1.6921   1.6976   1.7126   1.7216   1.7302   1.7367   1.7543
  1.7586   1.7662   1.7774   1.7853   1.7921   1.7990   1.8109   1.8149
  1.8246   1.8314   1.8354   1.8422   1.8613   1.8635   1.8661   1.8799
  1.8823   1.8911   1.9000   1.9095   1.9156   1.9239   1.9263   1.9343
  1.9400   1.9471   1.9526   1.9608   1.9662   1.9737   1.9746   1.9842
  2.0010   2.0065   2.0152   2.0345   2.0380   2.0405   2.0494   2.0590
  2.0696   2.0804   2.0977   2.1039   2.1127   2.1241   2.1300   2.1459
  2.1523   2.1564   2.1609   2.1649   2.1714   2.1774   2.1874   2.1940
  2.1958   2.2004   2.2150   2.2160   2.2294   2.2319   2.2392   2.2465
  2.2488   2.2503   2.2654   2.2735   2.2786   2.2821   2.2858   2.2981
  2.3017   2.3120   2.3133   2.3206   2.3286   2.3355   2.3512   2.3571
  2.3640   2.3796   2.3852   2.3917   2.4058   2.4106   2.4181   2.4286
  2.4331   2.4408   2.4502   2.4612   2.4724   2.4801   2.4864   2.4931
  2.5020   2.5251   2.5287   2.5314   2.5371   2.5523   2.5537   2.5664
  2.5795   2.5856   2.5869   2.5954   2.6120   2.6157   2.6196   2.6214
  2.6313   2.6347   2.6403   2.6460   2.6515   2.6550   2.6667   2.6725
  2.6753   2.6908   2.6944   2.6989   2.7002   2.7031   2.7110   2.7230
  2.7249   2.7336   2.7357   2.7426   2.7479   2.7544   2.7592   2.7697
  2.7780   2.7901   2.7945   2.8004   2.8034   2.8102   2.8141   2.8236
  2.8309   2.8401   2.8421   2.8505   2.8548   2.8592   2.8606   2.8732
  2.8787   2.8801   2.8858   2.8957   2.9090   2.9137   2.9236   2.9294
  2.9498   2.9510   2.9564   2.9655   2.9784   2.9843   2.9912   2.9994
  3.0114   3.0157   3.0259   3.0288   3.0339   3.0403   3.0431   3.0448
  3.0538   3.0580   3.0679   3.0752   3.0853   3.0898   3.0911   3.1009
  3.1037   3.1097   3.1141   3.1182   3.1213   3.1394   3.1458   3.1499
  3.1511   3.1546   3.1599   3.1634   3.1673   3.1739   3.1795   3.1844
  3.1923   3.1998   3.2025   3.2087   3.2149   3.2167   3.2229   3.2283
  3.2316   3.2409   3.2459   3.2496   3.2504   3.2601   3.2639   3.2666
  3.2776   3.2787   3.2816   3.2861   3.2886   3.2914   3.2990   3.3019
  3.3115   3.3173   3.3261   3.3284   3.3325   3.3358   3.3403   3.3473
  3.3508   3.3565   3.3606   3.3607   3.3630   3.3655   3.3734   3.3817
  3.3830   3.3910   3.3938   3.3974   3.4047   3.4077   3.4154   3.4209
  3.4251   3.4319   3.4335   3.4382   3.4428   3.4500   3.4531   3.4557
  3.4608   3.4625   3.4675   3.4719   3.4767   3.4870   3.4914   3.4972
  3.5049   3.5147   3.5234   3.5253   3.5289   3.5333   3.5366   3.5418
  3.5461   3.5522   3.5616   3.5656   3.5708   3.5751   3.5770   3.5820
  3.5891   3.5919   3.5986   3.6018   3.6076   3.6099   3.6151   3.6237
  3.6287   3.6317   3.6353   3.6439   3.6529   3.6540   3.6571   3.6643
  3.6662   3.6707   3.6780   3.6794   3.6861   3.6911   3.6916   3.7014
  3.7053   3.7097   3.7110   3.7178   3.7264   3.7319   3.7348   3.7393
  3.7435   3.7531   3.7564   3.7576   3.7674   3.7764   3.7789   3.7841
  3.7926   3.7949   3.8026   3.8147   3.8181   3.8225   3.8258   3.8296
  3.8330   3.8417   3.8498   3.8540   3.8621   3.8639   3.8725   3.8738
  3.8780   3.8847   3.8935   3.9013   3.9086   3.9130   3.9168   3.9282
  3.9350   3.9411   3.9468   3.9512   3.9595   3.9622   3.9682   3.9845
  3.9871   3.9950   4.0059   4.0123   4.0205   4.0265   4.0337   4.0383
  4.0507   4.0580   4.0641   4.0653   4.0739   4.0814   4.0827   4.0887
  4.0968   4.1023   4.1102   4.1186   4.1330   4.1440   4.1462   4.1494
  4.1632   4.1668   4.1735   4.1777   4.1823   4.1883   4.1953   4.2002
  4.2046   4.2184   4.2352   4.2431   4.2494   4.2560   4.2694   4.2731
  4.2860   4.2918   4.3073   4.3098   4.3249   4.3395   4.3471   4.3486
  4.3537   4.3658   4.3724   4.3736   4.3768   4.3906   4.3926   4.4017
  4.4047   4.4106   4.4181   4.4224   4.4276   4.4343   4.4393   4.4532
  4.4577   4.4742   4.4860   4.4889   4.4963   4.5048   4.5065   4.5144
  4.5378   4.5414   4.5454   4.5557   4.5585   4.5702   4.5859   4.5992
  4.6037   4.6111   4.6230   4.6246   4.6361   4.6422   4.6448   4.6539
  4.6604   4.6684   4.6721   4.6815   4.6870   4.6990   4.7170   4.7301
  4.7364   4.7479   4.7588   4.7629   4.7790   4.7840   4.7947   4.8083
  4.8238   4.8302   4.8372   4.8511   4.8735   4.8801   4.9091   4.9181
  4.9426   4.9457   4.9590   4.9657   4.9673   4.9775   4.9977   5.0013
  5.0085   5.0119   5.0170   5.0367   5.0407   5.0486   5.0679   5.0763
  5.0877   5.1012   5.1346   5.1589   5.1708   5.1731   5.1893   5.1989
  5.2078   5.2156   5.2172   5.2436   5.2546   5.2582   5.2594   5.2815
  5.2993   5.3103   5.3251   5.3315   5.3378   5.3488   5.3552   5.3650
  5.3746   5.3845   5.3971   5.3997   5.4205   5.4288   5.4629   5.4687
  5.4731   5.4824   5.4995   5.5066   5.5130   5.5194   5.5473   5.5602
  5.5724   5.5841   5.5910   5.6058   5.6175   5.6311   5.6408   5.6949
  5.7108   5.7325   5.7740   5.8007   5.8125   5.8330   5.8527   5.8551
  5.8741   5.8807   5.9120   5.9691   5.9699   5.9783   5.9995   6.0374
  6.0624   6.0889   6.1216   6.1336   6.1598   6.1710   6.1793   6.1856
  6.2392   6.2431   6.2691   6.2832   6.2999   6.3085   6.3223   6.3818
  6.4419   6.4475   6.5004   6.5373   6.5506   6.5563   6.5580   6.6541
  6.6673   6.6766   6.7086   6.7374   6.7419   6.8017   6.8420   6.8603
  6.8822   6.8923   6.9918   7.1196   7.1382   7.1783   7.2109   7.2155
  7.2337   7.3197   7.3264   7.3313   7.3741   7.3765   7.4276   7.4625
  7.4788   7.4870   7.4888   7.5202   7.5490   7.6092   7.7121   7.7706
  7.7967   7.8314   7.9038   7.9211   7.9481   8.0039   8.0986   8.1754
  8.5726   8.9311   9.0085   9.3653   9.4993   9.6948  10.2089  10.6440
 11.2425  11.4455  11.9315  11.9721  12.1297  12.1826  12.3351  12.5804
 12.6978  12.7069  12.9403  13.2139  13.2694  13.5527  13.8460  13.8800
 13.9026  14.0299  14.1460  14.6320  15.1982
 --------------------------------------------------------------
 
          Ground-State Mulliken Net Atomic Charges

     Atom                 Charge (a.u.)
  ----------------------------------------
      1 C                    -0.187910
      2 C                    -0.254122
      3 S                    -0.021429
      4 C                    -0.015364
      5 H                     0.196368
      6 C                    -0.029219
      7 C                     0.243027
      8 C                     0.243872
      9 C                    -0.050283
     10 C                    -0.022239
     11 O                    -0.333449
     12 O                    -0.339400
     13 C                    -0.085608
     14 H                     0.122774
     15 H                     0.091201
     16 H                     0.093726
     17 C                    -0.086736
     18 H                     0.125022
     19 H                     0.095283
     20 H                     0.089161
     21 C                    -0.207143
     22 S                    -0.007547
     23 C                    -0.013120
     24 H                     0.199618
     25 H                     0.206540
     26 C                    -0.051166
     27 S                     0.119993
     28 C                    -0.231613
     29 C                    -0.120166
     30 C                    -0.005254
     31 C                     0.397351
     32 C                    -0.152883
     33 S                     0.040935
     34 C                     0.460915
     35 O                    -0.449077
     36 O                    -0.297883
     37 F                    -0.210815
     38 C                    -0.054896
     39 H                     0.116585
     40 H                     0.084766
     41 H                     0.084528
     42 H                     0.215657
  ----------------------------------------
  Sum of atomic charges =     0.000000

 -----------------------------------------------------------------
                    Cartesian Multipole Moments
 -----------------------------------------------------------------
    Charge (ESU x 10^10)
                 0.0000
    Dipole Moment (Debye)
         X       1.4011      Y       1.5841      Z       3.4433
       Tot       4.0409
    Quadrupole Moments (Debye-Ang)
        XX    -176.6353     XY       4.0837     YY    -160.3224
        XZ     -10.7498     YZ     -11.1505     ZZ    -204.3213
    Octopole Moments (Debye-Ang^2)
       XXX    -213.0268    XXY     296.3519    XYY     -40.0170
       YYY     908.9373    XXZ     174.9961    XYZ      18.1033
       YYZ     138.9105    XZZ     -36.6140    YZZ     504.3730
       ZZZ     565.9598
    Hexadecapole Moments (Debye-Ang^3)
      XXXX   -2257.2384   XXXY     -38.3826   XXYY   -3620.9006
      XYYY       6.3112   YYYY  -18341.9367   XXXZ     843.3740
      XXYZ     376.9861   XYYZ      60.1971   YYYZ     984.5718
      XXZZ   -1342.4815   XYZZ     188.6765   YYZZ   -4307.9874
      XZZZ     729.8696   YZZZ     474.8369   ZZZZ   -6031.9549
 -----------------------------------------------------------------
 Total job time:  355.69s(wall), 11987.99s(cpu) 
 Sun Sep 24 18:33:10 2023

        *************************************************************
        *                                                           *
        *  Thank you very much for using Q-Chem.  Have a nice day.  *
        *                                                           *
        *************************************************************


0 sent ACK to 0 
now end server 0 ... 
cleanup process ... done
remove work dirs ./qchem3981590.0 -- ./qchem3981590.0
rm -rf ./qchem3981590.0
rm -rf ./qchem3981590
