You are running Q-Chem version: 5.4.0

#
# job setting
#
local host:  exp-2-27
current dir: /expanse/lustre/projects/csd626/rramji/aromodel/PTB7_fin/Rotation_Test
input file:  fin_bdt_Phi_0_Theta_290_fin_ftt.qcin
output file: 
nprocs     : 1
nthreads   : 64
#
# qchem installation setting
#
QC:          /cm/shared/apps/spack/cpu/opt/spack/linux-centos8-zen2/gcc-10.2.0/qchem-5.4-akfmr7b3t57bfs6qan3padb2wnb2i7cl
QCAUX:       /cm/shared/apps/spack/cpu/opt/spack/linux-centos8-zen2/gcc-10.2.0/qchem-5.4-akfmr7b3t57bfs6qan3padb2wnb2i7cl/qcaux
QCPROG:      /cm/shared/apps/spack/cpu/opt/spack/linux-centos8-zen2/gcc-10.2.0/qchem-5.4-akfmr7b3t57bfs6qan3padb2wnb2i7cl/exe/qcprog.exe
QCPROG_S:    /cm/shared/apps/spack/cpu/opt/spack/linux-centos8-zen2/gcc-10.2.0/qchem-5.4-akfmr7b3t57bfs6qan3padb2wnb2i7cl/exe/qcprog.exe_s
PARALLEL:    -DPARALLEL
QCMPI:       mpich
#
# qchem directory setting
#
qcrun:       qchem54830
QCSCRATCH:   .
QCLOCALSCR:  
QCTMPDIR:    .
QCFILEPREF:  ./qchem54830
QCSAVEDIR:   
workdirs:    ./qchem54830
workdir0:    ./qchem54830
partmpdirs =  
#
# parallel setting
#
QCRSH:           ssh
QCMPI:           mpich
QCMPIRUN:        /cm/shared/apps/spack/cpu/opt/spack/linux-centos8-zen2/gcc-10.2.0/qchem-5.4-akfmr7b3t57bfs6qan3padb2wnb2i7cl/bin/mpi/mpirun_qchem
QCMACHINEFILE:   ./qchem54830/hostfile
exp-2-27

#
# env setting
#
exported envs:   QC QCAUX QCSCRATCH QCRUNNAME QCFILEPREF QCPROG QCPROG_S GUIFILE

Running Job 1 of 1 fin_bdt_Phi_0_Theta_290_fin_ftt.qcin
qchem fin_bdt_Phi_0_Theta_290_fin_ftt.qcin_54830.0 ./qchem54830/ 1
/cm/shared/apps/spack/cpu/opt/spack/linux-centos8-zen2/gcc-10.2.0/qchem-5.4-akfmr7b3t57bfs6qan3padb2wnb2i7cl/bin/mpi/mpirun_qchem -machinefile ./qchem54830/hostfile -np 1 /cm/shared/apps/spack/cpu/opt/spack/linux-centos8-zen2/gcc-10.2.0/qchem-5.4-akfmr7b3t57bfs6qan3padb2wnb2i7cl/exe/qcprog.exe fin_bdt_Phi_0_Theta_290_fin_ftt.qcin_54830.0 ./qchem54830/

Process 0 of 1 is on exp-2-27 - thread support 0
initial socket setup ...start
initial socket setup ...done 
now start server 0 ... 
                  Welcome to Q-Chem
     A Quantum Leap Into The Future Of Chemistry


 Q-Chem 5.4, Q-Chem, Inc., Pleasanton, CA (2021)

 License issued to: University of California, San Diego (site)

 E. Epifanovsky,  A. T. B. Gilbert,  Xintian Feng,  Joonho Lee,  Yuezhi Mao,  
 N. Mardirossian,  P. Pokhilko,  A. White,  M. Wormit,  M. P. Coons,  
 A. L. Dempwolff,  Zhengting Gan,  D. Hait,  P. R. Horn,  L. D. Jacobson,  
 I. Kaliman,  J. Kussmann,  A. W. Lange,  Ka Un Lao,  D. S. Levine,  Jie Liu,  
 S. C. McKenzie,  A. F. Morrison,  K. Nanda,  F. Plasser,  D. R. Rehn,  
 M. L. Vidal,  Zhi-Qiang You,  Ying Zhu,  B. Alam,  B. Albrecht,  
 A. Aldossary,  E. Alguire,  J. H. Andersen,  D. Barton,  K. Begam,  A. Behn,  
 Y. A. Bernard,  E. J. Berquist,  H. Burton,  A. Carreras,  K. Carter-Fenk,  
 R. Chakraborty,  A. D. Chien,  K. D. Closser,  V. Cofer-Shabica,  
 S. Dasgupta,  Jia Deng,  M. de Wergifosse,  M. Diedenhofen,  Hainam Do,  
 S. Ehlert,  Po-Tung Fang,  S. Fatehi,  Qingguo Feng,  J. Gayvert,  
 Qinghui Ge,  G. Gidofalvi,  M. Goldey,  J. Gomes,  C. Gonzalez-Espinoza,  
 S. Gulania,  A. Gunina,  M. W. D. Hanson-Heine,  P. H. P. Harbach,  
 A. W. Hauser,  M. F. Herbst,  M. Hernandez Vera,  M. Hodecker,  
 Z. C. Holden,  S. Houck,  Xunkun Huang,  Kerwin Hui,  B. C. Huynh,  
 M. Ivanov,  Hyunjun Ji,  Hanjie Jiang,  B. Kaduk,  S. Kaehler,  
 K. Khistyaev,  Jaehoon Kim,  P. Klunzinger,  Z. Koczor-Benda,  
 Joong Hoon Koh,  D. Kosenkov,  L. Koulias,  T. Kowalczyk,  C. M. Krauter,  
 K. Kue,  A. Kunitsa,  T. Kus,  A. Landau,  K. V. Lawler,  D. Lefrancois,  
 S. Lehtola,  Rain Li,  Yi-Pei Li,  Jiashu Liang,  M. Liebenthal,  
 Hung-Hsuan Lin,  You-Sheng Lin,  Fenglai Liu,  Kuan-Yu Liu,  
 M. Loipersberger,  A. Luenser,  A. Manjanath,  P. Manohar,  E. Mansoor,  
 S. F. Manzer,  Shan-Ping Mao,  A. V. Marenich,  T. Markovich,  S. Mason,  
 S. A. Maurer,  P. F. McLaughlin,  M. F. S. J. Menger,  J.-M. Mewes,  
 S. A. Mewes,  P. Morgante,  J. W. Mullinax,  T. S. Nguyen-Beck,  
 K. J. Oosterbaan,  G. Paran,  Alexander C. Paul,  Suranjan K. Paul,  
 F. Pavosevic,  Zheng Pei,  S. Prager,  E. I. Proynov,  E. Ramos,  B. Rana,  
 A. E. Rask,  A. Rettig,  R. M. Richard,  F. Rob,  E. Rossomme,  T. Scheele,  
 M. Scheurer,  M. Schneider,  N. Sergueev,  S. M. Sharada,  W. Skomorowski,  
 D. W. Small,  C. J. Stein,  Yu-Chuan Su,  E. J. Sundstrom,  Zhen Tao,  
 J. Thirman,  T. Tsuchimochi,  N. M. Tubman,  S. P. Veccham,  O. Vydrov,  
 J. Wenzel,  J. Witte,  A. Yamada,  Kun Yao,  S. Yeganeh,  S. R. Yost,  
 A. Zech,  Igor Ying Zhang,  Xing Zhang,  Yu Zhang,  D. Zuev,  
 A. Aspuru-Guzik,  A. T. Bell,  N. A. Besley,  K. B. Bravaya,  B. R. Brooks,  
 D. Casanova,  Jeng-Da Chai,  S. Coriani,  C. J. Cramer,  
 A. E. DePrince, III,  R. A. DiStasio Jr.,  A. Dreuw,  B. D. Dunietz,  
 T. R. Furlani,  W. A. Goddard III,  S. Grimme,  S. Hammes-Schiffer,  
 T. Head-Gordon,  W. J. Hehre,  Chao-Ping Hsu,  T.-C. Jagau,  Yousung Jung,  
 A. Klamt,  Jing Kong,  D. S. Lambrecht,  WanZhen Liang,  N. J. Mayhall,  
 C. W. McCurdy,  J. B. Neaton,  C. Ochsenfeld,  J. A. Parkhill,  R. Peverati,  
 V. A. Rassolov,  Yihan Shao,  L. V. Slipchenko,  T. Stauch,  R. P. Steele,  
 J. E. Subotnik,  A. J. W. Thom,  A. Tkatchenko,  D. G. Truhlar,  
 T. Van Voorhis,  T. A. Wesolowski,  K. B. Whaley,  H. L. Woodcock III,  
 P. M. Zimmerman,  S. Faraji,  P. M. W. Gill,  M. Head-Gordon,  
 J. M. Herbert,  A. I. Krylov

 Contributors to earlier versions of Q-Chem not listed above: 
 R. D. Adamson,  B. Austin,  R. Baer,  J. Baker,  G. J. O. Beran,  
 K. Brandhorst,  S. T. Brown,  E. F. C. Byrd,  A. K. Chakraborty,  
 G. K. L. Chan,  Chun-Min Chang,  Yunqing Chen,  C.-L. Cheng,  
 Siu Hung Chien,  D. M. Chipman,  D. L. Crittenden,  H. Dachsel,  
 R. J. Doerksen,  A. D. Dutoi,  R. G. Edgar,  J. Fosso-Tande,  
 L. Fusti-Molnar,  D. Ghosh,  A. Ghysels,  A. Golubeva-Zadorozhnaya,  
 J. Gonthier,  M. S. Gordon,  S. R. Gwaltney,  G. Hawkins,  J. E. Herr,  
 A. Heyden,  S. Hirata,  E. G. Hohenstein,  G. Kedziora,  F. J. Keil,  
 C. Kelley,  Jihan Kim,  R. A. King,  R. Z. Khaliullin,  P. P. Korambath,  
 W. Kurlancheek,  A. Laurent,  A. M. Lee,  M. S. Lee,  S. V. Levchenko,  
 Ching Yeh Lin,  D. Liotard,  E. Livshits,  R. C. Lochan,  I. Lotan,  
 L. A. Martinez-Martinez,  P. E. Maslen,  N. Nair,  D. P. O'Neill,  
 D. Neuhauser,  E. Neuscamman,  C. M. Oana,  R. Olivares-Amaya,  R. Olson,  
 T. M. Perrine,  B. Peters,  P. A. Pieniazek,  A. Prociuk,  Y. M. Rhee,  
 J. Ritchie,  M. A. Rohrdanz,  E. Rosta,  N. J. Russ,  H. F. Schaefer III,  
 M. W. Schmidt,  N. E. Schultz,  S. Sharma,  N. Shenvi,  C. D. Sherrill,  
 A. C. Simmonett,  A. Sodt,  T. Stein,  D. Stuck,  K. S. Thanthiriwatte,  
 V. Vanovschi,  L. Vogt,  Tao Wang,  A. Warshel,  M. A. Watson,  
 C. F. Williams,  Q. Wu,  X. Xu,  Jun Yang,  W. Zhang,  Yan Zhao

 Please cite Q-Chem as follows:
 Y. Shao et al., Mol. Phys. 113, 184-215 (2015)
 DOI: 10.1080/00268976.2014.952696

 Q-Chem 5.4.0 for Intel X86 EM64T Linux

 Parts of Q-Chem use Armadillo 9.800.1 (Horizon Scraper).
 http://arma.sourceforge.net/

 Q-Chem begins on Sun Sep 24 18:39:52 2023  

 Host: 
0

     Scratch files written to ./qchem54830//
 May1621 |scratch|qcdevops|jenkins|workspace|build_RNUM    
 Parallel job on  1  processors
 Processing $rem in /cm/shared/apps/spack/cpu/opt/spack/linux-centos8-zen2/gcc-10.2.0/qchem-5.4-akfmr7b3t57bfs6qan3padb2wnb2i7cl/config/preferences:
 Processing $rem in /home/rramji/.qchemrc:
 Symmetry turned off for PCM/SM12/SMD calculation
 Core orbitals will be frozen

 Checking the input file for inconsistencies... 	...done.

 Q-Chem warning in module forms1/BasisType.C, line 2236:

 You are not using the predefined 5D/6D in this basis set.


--------------------------------------------------------------
User input:
--------------------------------------------------------------
$molecule
0 1
C	0.235306	-8.519741	0.136647
C	-0.772334	-7.635967	-0.221346
S	1.702286	-7.651740	0.650746
C	-0.408807	-6.261894	-0.090779
H	-1.761423	-7.954738	-0.573754
C	0.932876	-6.079985	0.397735
C	1.479069	-4.798382	0.568166
C	-1.241204	-5.153542	-0.418347
C	-0.693206	-3.869626	-0.251852
C	0.648921	-3.688927	0.239872
O	-2.493437	-5.481075	-0.842486
O	2.737331	-4.479871	0.993092
C	3.416110	-5.356026	1.884752
H	4.284447	-4.790496	2.273124
H	3.793352	-6.268513	1.373310
H	2.766716	-5.658187	2.734702
C	-3.264581	-4.546999	-1.588030
H	-4.136519	-5.107564	-1.974995
H	-2.690439	-4.131473	-2.443843
H	-3.636177	-3.712085	-0.955140
C	1.009848	-2.314326	0.367068
S	-1.459936	-2.295487	-0.517386
C	0.000000	-1.435180	0.000000
H	1.997308	-1.993211	0.721689
H	0.230945	-9.615985	0.132444
C	0.000000	0.000000	0.000000
S	0.002233	0.899428	1.510732
C	0.001157	2.474749	0.727629
C	-0.000030	0.908223	-1.064665
C	-0.001545	2.297013	-0.678287
C	0.001624	0.841837	-2.486150
C	0.001494	2.106670	-3.106916
S	-0.001841	3.354171	-1.965735
C	0.006168	2.361146	-4.559972
O	0.009152	1.427646	-5.350277
O	0.009405	3.644337	-5.004375
F	0.005539	-0.272288	-3.246290
C	0.019554	4.003038	-6.334976
H	0.020155	5.108000	-6.370268
H	-0.871409	3.613681	-6.875609
H	0.918470	3.613062	-6.861878
H	0.001222	3.394771	1.321510
$end

$rem
JOBTYPE		SP
EXCHANGE	HF
CORRELATION	pRIMP2
BASIS		cc-pvtz
METHOD		rimp2
AUX_BASIS	rimp2-cc-pvtz
SOLVENT_METHOD	PCM
PURECART	11111
SYMMETRY	false
MEM_TOTAL	110000
SCF_CONVERGENCE = 6
THRESH=10
GUI = 2
$end



$solvent
dielectric 4.90
$end
--------------------------------------------------------------
 ----------------------------------------------------------------
             Standard Nuclear Orientation (Angstroms)
    I     Atom           X                Y                Z
 ----------------------------------------------------------------
    1      C       0.2353060000    -8.5197410000     0.1366470000
    2      C      -0.7723340000    -7.6359670000    -0.2213460000
    3      S       1.7022860000    -7.6517400000     0.6507460000
    4      C      -0.4088070000    -6.2618940000    -0.0907790000
    5      H      -1.7614230000    -7.9547380000    -0.5737540000
    6      C       0.9328760000    -6.0799850000     0.3977350000
    7      C       1.4790690000    -4.7983820000     0.5681660000
    8      C      -1.2412040000    -5.1535420000    -0.4183470000
    9      C      -0.6932060000    -3.8696260000    -0.2518520000
   10      C       0.6489210000    -3.6889270000     0.2398720000
   11      O      -2.4934370000    -5.4810750000    -0.8424860000
   12      O       2.7373310000    -4.4798710000     0.9930920000
   13      C       3.4161100000    -5.3560260000     1.8847520000
   14      H       4.2844470000    -4.7904960000     2.2731240000
   15      H       3.7933520000    -6.2685130000     1.3733100000
   16      H       2.7667160000    -5.6581870000     2.7347020000
   17      C      -3.2645810000    -4.5469990000    -1.5880300000
   18      H      -4.1365190000    -5.1075640000    -1.9749950000
   19      H      -2.6904390000    -4.1314730000    -2.4438430000
   20      H      -3.6361770000    -3.7120850000    -0.9551400000
   21      C       1.0098480000    -2.3143260000     0.3670680000
   22      S      -1.4599360000    -2.2954870000    -0.5173860000
   23      C       0.0000000000    -1.4351800000     0.0000000000
   24      H       1.9973080000    -1.9932110000     0.7216890000
   25      H       0.2309450000    -9.6159850000     0.1324440000
   26      C       0.0000000000     0.0000000000     0.0000000000
   27      S       0.0022330000     0.8994280000     1.5107320000
   28      C       0.0011570000     2.4747490000     0.7276290000
   29      C      -0.0000300000     0.9082230000    -1.0646650000
   30      C      -0.0015450000     2.2970130000    -0.6782870000
   31      C       0.0016240000     0.8418370000    -2.4861500000
   32      C       0.0014940000     2.1066700000    -3.1069160000
   33      S      -0.0018410000     3.3541710000    -1.9657350000
   34      C       0.0061680000     2.3611460000    -4.5599720000
   35      O       0.0091520000     1.4276460000    -5.3502770000
   36      O       0.0094050000     3.6443370000    -5.0043750000
   37      F       0.0055390000    -0.2722880000    -3.2462900000
   38      C       0.0195540000     4.0030380000    -6.3349760000
   39      H       0.0201550000     5.1080000000    -6.3702680000
   40      H      -0.8714090000     3.6136810000    -6.8756090000
   41      H       0.9184700000     3.6130620000    -6.8618780000
   42      H       0.0012220000     3.3947710000     1.3215100000
 ----------------------------------------------------------------
 Nuclear Repulsion Energy =        3298.46208288 hartrees
 There are      119 alpha and      119 beta electrons
 Requested basis set is cc-pVTZ
 There are 376 shells and 1068 basis functions

 Total QAlloc Memory Limit 110000 MB
 Mega-Array Size       188 MB
 MEM_STATIC part       192 MB
 Discretize the solute cavity surface with Lebedev spheres
	Using 110 Lebedev grid points for each H atom
	Using 194 Lebedev grid points for other atoms
	Atomic van der Waals radii will be scaled by 1.20
 Remove points where switching function is < 1.0e-08
 Keep 2941 surface tesserae and discard 4115 interior tesserae
 Molecular Surface Area = 442.598 Angst**2
 Requested basis set is rimp2-cc-pVTZ
 There are 833 shells and 2903 basis functions
 A cutoff of  1.0D-10 yielded  31047 shell pairs
 There are    238673 function pairs (    310031 Cartesian)
 Smallest overlap matrix eigenvalue = 2.22E-05

 Scale SEOQF with 1.000000e-01/1.000000e-02/1.000000e-02

 Standard Electronic Orientation quadrupole field applied
 Nucleus-field energy     =     0.0000000335 hartrees
 Guess from superposition of atomic densities
 Warning:  Energy on first SCF cycle will be non-variational
 SAD guess density has 238.000000 electrons

 -----------------------------------------------------------------------
  General SCF calculation program by
  Eric Jon Sundstrom, Paul Horn, Yuezhi Mao, Dmitri Zuev, Alec White,
  David Stuck, Shaama M.S., Shane Yost, Joonho Lee, David Small,
  Daniel Levine, Susi Lehtola, Hugh Burton, Evgeny Epifanovsky,
  Bang C. Huynh
 -----------------------------------------------------------------------
 Hartree-Fock
 using 64 threads for integral computing
 -------------------------------------------------------
 OpenMP Integral computing Module                
 Release: version 1.0, May 2013, Q-Chem Inc. Pittsburgh 
 -------------------------------------------------------
 A restricted SCF calculation will be
 performed using DIIS
 SCF converges when DIIS error is below 1.0e-06
 ---------------------------------------
  Cycle       Energy         DIIS error
 ---------------------------------------
    1   -2765.5208047804      1.77e-02  
    2   -2753.8599584433      1.57e-03  
    3   -2754.1988532516      8.82e-04  
    4   -2754.2830711703      2.54e-04  
    5   -2754.2947019787      6.82e-05  
    6   -2754.2957741504      2.37e-05  
    7   -2754.2960115189      1.16e-05  
    8   -2754.2960898893      4.53e-06  
    9   -2754.2961059978      2.13e-06  
   10   -2754.2961084713      8.76e-07  Convergence criterion met
 ---------------------------------------
 SCF time:   CPU 6418.29s  wall 237.00s 

************** Final PCM Free Energy Summary **************
 G_electrostatic  =      -0.01994392 hartree =     -12.51499999 kcal/mol
 G_cavitation     =       0.00000000 hartree =       0.00000000 kcal/mol
 G_dispersion     =       0.00000000 hartree =       0.00000000 kcal/mol
 G_repulsion      =       0.00000000 hartree =       0.00000000 kcal/mol
 --------------------------------------------------
 Non-electrostatic Free Energy =       0.00000000 hartree =       0.00000000 kcal/mol
 Total                         =      -0.01994392 hartree =     -12.51499999 kcal/mol
 --------------------------------------------------
 SCF Energy (H0 + V/2)                       =   -2754.29610847 
 Solute Internal Energy (H0)                 =   -2754.27616455 
 Total Free Energy (H0 + V/2 + non-elec)     =   -2754.29610847 hartree
                                             = -1728346.89400419 kcal/mol
***********************************************************

 SCF   energy in the final basis set =    -2754.2961084713
 Total energy in the final basis set =    -2754.2961084713


 --------------------------------------------------------------
  Generalized many-body perturbation theory program
  by Joonho Lee, Fazle Rob, Xintian Feng, Evgeny Epifanovsky

 No regularization used 
 (reg. param. = 0.0000e+00)
  (P|Q)^-1/2 Time:  CPU 169.89 s  wall 2.88 s

 In RI-MP2 calculation: 
 # of frozen core orbitals: 45

 Components of the RIMP2 correlation energy:
        aaaa    correlation energy =        -0.6704096212 a.u.
        abab    correlation energy =        -3.7114804798 a.u.
        bbbb    correlation energy =        -0.6704096212 a.u.
        non-Brillouin singles      =        -0.0000000000 a.u.
        total same-spin energy     =        -1.3408192423 a.u.
        total opposite-spin energy =        -3.7114804798 a.u.

 Total  RIMP2   correlation energy =        -5.0522997221 a.u.
        RIMP2         total energy =     -2759.3484081934 a.u.

 RI-MP2 Energy Time:  CPU 2699.58 s  wall 45.69 s
 
 --------------------------------------------------------------
 
                    Orbital Energies (a.u.)
 --------------------------------------------------------------
 
 Alpha MOs
 -- Occupied --
-92.0166 -91.9942 -91.9900 -91.9868 -26.3339 -20.6118 -20.5923 -20.5922
-20.5497 -11.4100 -11.3771 -11.3194 -11.3192 -11.3104 -11.2967 -11.2961
-11.2940 -11.2927 -11.2883 -11.2870 -11.2867 -11.2866 -11.2844 -11.2822
-11.2805 -11.2614 -11.2600 -11.2599 -11.2502  -9.0146  -8.9983  -8.9903
 -8.9867  -6.6953  -6.6948  -6.6943  -6.6795  -6.6789  -6.6775  -6.6712
 -6.6705  -6.6696  -6.6677  -6.6670  -6.6662  -1.6468  -1.4716  -1.4165
 -1.4149  -1.3668  -1.2329  -1.1964  -1.1684  -1.1416  -1.0843  -1.0525
 -1.0471  -1.0274  -1.0027  -0.9934  -0.9711  -0.9615  -0.9505  -0.9384
 -0.8960  -0.8689  -0.8511  -0.8061  -0.7900  -0.7885  -0.7745  -0.7672
 -0.7587  -0.7330  -0.7179  -0.7150  -0.7013  -0.6884  -0.6835  -0.6783
 -0.6708  -0.6609  -0.6588  -0.6529  -0.6310  -0.6204  -0.6171  -0.6062
 -0.6017  -0.5941  -0.5833  -0.5771  -0.5707  -0.5672  -0.5557  -0.5513
 -0.5334  -0.5265  -0.5239  -0.5168  -0.5147  -0.5077  -0.5014  -0.4934
 -0.4909  -0.4837  -0.4780  -0.4680  -0.4617  -0.4607  -0.4607  -0.4078
 -0.4005  -0.3874  -0.3578  -0.3490  -0.3166  -0.2883  -0.2583
 -- Virtual --
  0.0274   0.0638   0.1166   0.1244   0.1337   0.1432   0.1495   0.1551
  0.1560   0.1597   0.1680   0.1695   0.1819   0.1845   0.1875   0.1908
  0.1980   0.2040   0.2105   0.2189   0.2208   0.2209   0.2243   0.2262
  0.2329   0.2370   0.2433   0.2531   0.2617   0.2672   0.2706   0.2792
  0.2847   0.3094   0.3196   0.3268   0.3331   0.3377   0.3433   0.3472
  0.3529   0.3589   0.3690   0.3726   0.3751   0.3807   0.3837   0.3851
  0.3880   0.3889   0.3997   0.4049   0.4081   0.4101   0.4192   0.4206
  0.4282   0.4322   0.4377   0.4409   0.4476   0.4482   0.4505   0.4534
  0.4573   0.4634   0.4663   0.4714   0.4777   0.4806   0.4828   0.4867
  0.4896   0.5000   0.5012   0.5087   0.5098   0.5160   0.5200   0.5264
  0.5303   0.5308   0.5354   0.5408   0.5442   0.5465   0.5509   0.5530
  0.5560   0.5611   0.5635   0.5676   0.5694   0.5716   0.5786   0.5832
  0.5842   0.5882   0.5913   0.5954   0.5985   0.6009   0.6078   0.6085
  0.6139   0.6167   0.6200   0.6233   0.6253   0.6285   0.6295   0.6331
  0.6380   0.6401   0.6454   0.6480   0.6527   0.6564   0.6646   0.6653
  0.6749   0.6820   0.6843   0.6855   0.6867   0.6965   0.6974   0.7007
  0.7093   0.7144   0.7168   0.7222   0.7259   0.7419   0.7466   0.7543
  0.7592   0.7631   0.7654   0.7750   0.7767   0.7880   0.7953   0.7991
  0.8059   0.8079   0.8124   0.8207   0.8225   0.8259   0.8317   0.8403
  0.8444   0.8515   0.8605   0.8634   0.8777   0.8812   0.8911   0.8927
  0.8989   0.9023   0.9035   0.9086   0.9136   0.9177   0.9222   0.9271
  0.9327   0.9369   0.9399   0.9472   0.9513   0.9543   0.9606   0.9681
  0.9741   0.9750   0.9801   0.9885   0.9906   0.9946   1.0000   1.0022
  1.0050   1.0107   1.0155   1.0181   1.0225   1.0285   1.0360   1.0381
  1.0416   1.0479   1.0532   1.0607   1.0666   1.0713   1.0744   1.0766
  1.0832   1.0847   1.0922   1.0953   1.0998   1.1014   1.1045   1.1079
  1.1171   1.1261   1.1327   1.1379   1.1423   1.1509   1.1528   1.1558
  1.1646   1.1711   1.1728   1.1775   1.1791   1.1853   1.1892   1.1954
  1.1976   1.2049   1.2111   1.2138   1.2155   1.2197   1.2260   1.2342
  1.2363   1.2434   1.2454   1.2546   1.2584   1.2678   1.2717   1.2737
  1.2753   1.2820   1.2993   1.3039   1.3069   1.3116   1.3141   1.3238
  1.3291   1.3319   1.3353   1.3415   1.3523   1.3542   1.3576   1.3704
  1.3745   1.3782   1.3877   1.3962   1.4034   1.4145   1.4202   1.4262
  1.4325   1.4352   1.4478   1.4599   1.4683   1.4749   1.4834   1.4881
  1.4916   1.4999   1.5049   1.5075   1.5116   1.5133   1.5226   1.5274
  1.5318   1.5376   1.5387   1.5425   1.5483   1.5544   1.5602   1.5635
  1.5684   1.5834   1.5914   1.5993   1.6035   1.6136   1.6243   1.6325
  1.6435   1.6511   1.6573   1.6592   1.6635   1.6702   1.6775   1.6795
  1.6859   1.6957   1.7038   1.7100   1.7159   1.7351   1.7401   1.7482
  1.7575   1.7748   1.7758   1.7823   1.7891   1.8053   1.8119   1.8175
  1.8306   1.8328   1.8361   1.8469   1.8509   1.8614   1.8651   1.8683
  1.8790   1.8825   1.8915   1.9063   1.9105   1.9158   1.9246   1.9311
  1.9406   1.9436   1.9468   1.9588   1.9633   1.9739   1.9793   1.9838
  2.0011   2.0108   2.0187   2.0294   2.0351   2.0436   2.0511   2.0570
  2.0789   2.0876   2.0932   2.1021   2.1129   2.1240   2.1387   2.1427
  2.1471   2.1561   2.1626   2.1659   2.1742   2.1797   2.1905   2.1944
  2.1969   2.2006   2.2071   2.2189   2.2257   2.2278   2.2342   2.2375
  2.2513   2.2558   2.2691   2.2735   2.2790   2.2852   2.3004   2.3025
  2.3058   2.3142   2.3227   2.3286   2.3373   2.3474   2.3527   2.3621
  2.3693   2.3825   2.3860   2.3895   2.4012   2.4074   2.4206   2.4281
  2.4337   2.4362   2.4526   2.4604   2.4714   2.4784   2.4866   2.4914
  2.5001   2.5129   2.5251   2.5295   2.5354   2.5528   2.5615   2.5692
  2.5763   2.5841   2.5876   2.5945   2.6031   2.6173   2.6195   2.6258
  2.6296   2.6359   2.6371   2.6448   2.6528   2.6629   2.6724   2.6751
  2.6803   2.6859   2.6922   2.6970   2.6997   2.7029   2.7052   2.7213
  2.7227   2.7311   2.7348   2.7404   2.7453   2.7484   2.7541   2.7615
  2.7748   2.7838   2.7924   2.7972   2.8030   2.8083   2.8159   2.8188
  2.8257   2.8334   2.8409   2.8425   2.8522   2.8595   2.8699   2.8734
  2.8796   2.8869   2.8881   2.8973   2.9070   2.9124   2.9294   2.9368
  2.9477   2.9581   2.9657   2.9707   2.9787   2.9856   2.9914   3.0060
  3.0100   3.0171   3.0243   3.0298   3.0331   3.0409   3.0427   3.0452
  3.0500   3.0569   3.0716   3.0804   3.0891   3.0929   3.0998   3.1068
  3.1107   3.1129   3.1140   3.1231   3.1336   3.1366   3.1414   3.1481
  3.1527   3.1580   3.1631   3.1696   3.1757   3.1773   3.1807   3.1827
  3.1863   3.1943   3.2014   3.2052   3.2101   3.2161   3.2241   3.2294
  3.2331   3.2388   3.2449   3.2501   3.2567   3.2578   3.2650   3.2699
  3.2739   3.2778   3.2789   3.2872   3.2906   3.2934   3.2992   3.3000
  3.3040   3.3225   3.3230   3.3267   3.3338   3.3377   3.3427   3.3467
  3.3518   3.3525   3.3559   3.3621   3.3645   3.3677   3.3697   3.3732
  3.3792   3.3848   3.3888   3.3932   3.4013   3.4061   3.4091   3.4197
  3.4227   3.4286   3.4325   3.4386   3.4421   3.4436   3.4483   3.4534
  3.4599   3.4677   3.4713   3.4755   3.4783   3.4857   3.4898   3.4985
  3.5034   3.5067   3.5161   3.5194   3.5211   3.5293   3.5345   3.5431
  3.5509   3.5534   3.5598   3.5657   3.5733   3.5748   3.5773   3.5814
  3.5838   3.5879   3.5950   3.5981   3.6039   3.6040   3.6092   3.6227
  3.6314   3.6350   3.6424   3.6483   3.6504   3.6551   3.6588   3.6634
  3.6652   3.6715   3.6735   3.6792   3.6830   3.6900   3.6933   3.6955
  3.7060   3.7113   3.7138   3.7200   3.7263   3.7289   3.7298   3.7405
  3.7422   3.7468   3.7537   3.7594   3.7642   3.7726   3.7790   3.7886
  3.7932   3.7967   3.8070   3.8119   3.8162   3.8219   3.8259   3.8302
  3.8350   3.8413   3.8512   3.8539   3.8557   3.8592   3.8679   3.8768
  3.8841   3.8847   3.8921   3.8984   3.9027   3.9160   3.9200   3.9290
  3.9329   3.9412   3.9464   3.9597   3.9703   3.9734   3.9812   3.9858
  3.9913   4.0013   4.0066   4.0167   4.0181   4.0290   4.0327   4.0371
  4.0449   4.0577   4.0610   4.0687   4.0788   4.0835   4.0858   4.0938
  4.1009   4.1045   4.1122   4.1251   4.1277   4.1443   4.1483   4.1595
  4.1613   4.1689   4.1729   4.1784   4.1868   4.1913   4.1981   4.1999
  4.2073   4.2117   4.2258   4.2365   4.2422   4.2606   4.2680   4.2742
  4.2832   4.2920   4.3134   4.3194   4.3245   4.3332   4.3386   4.3480
  4.3516   4.3615   4.3746   4.3769   4.3811   4.3913   4.3927   4.3952
  4.4056   4.4091   4.4109   4.4199   4.4250   4.4367   4.4404   4.4546
  4.4650   4.4686   4.4823   4.4941   4.4973   4.5019   4.5061   4.5080
  4.5296   4.5368   4.5448   4.5553   4.5581   4.5727   4.5807   4.5974
  4.6019   4.6095   4.6159   4.6298   4.6371   4.6389   4.6441   4.6485
  4.6563   4.6683   4.6703   4.6806   4.6848   4.6973   4.7136   4.7286
  4.7376   4.7455   4.7484   4.7763   4.7806   4.7876   4.8060   4.8128
  4.8202   4.8273   4.8407   4.8522   4.8686   4.8998   4.9117   4.9281
  4.9403   4.9486   4.9513   4.9641   4.9647   4.9799   4.9923   5.0018
  5.0115   5.0120   5.0205   5.0408   5.0524   5.0587   5.0694   5.0863
  5.0984   5.1314   5.1415   5.1526   5.1662   5.1768   5.1844   5.2015
  5.2095   5.2147   5.2281   5.2425   5.2557   5.2592   5.2714   5.2903
  5.2964   5.3073   5.3134   5.3356   5.3375   5.3431   5.3554   5.3668
  5.3704   5.3874   5.3988   5.4039   5.4259   5.4338   5.4611   5.4658
  5.4733   5.4816   5.4911   5.5071   5.5115   5.5255   5.5475   5.5619
  5.5731   5.5837   5.5986   5.6057   5.6180   5.6375   5.6396   5.6855
  5.7165   5.7377   5.7914   5.8011   5.8150   5.8302   5.8535   5.8604
  5.8732   5.8871   5.9167   5.9701   5.9734   5.9842   5.9984   6.0560
  6.0671   6.0877   6.1240   6.1339   6.1695   6.1713   6.1823   6.1861
  6.2324   6.2554   6.2685   6.2736   6.2908   6.3088   6.3191   6.3874
  6.4357   6.4488   6.4833   6.5175   6.5482   6.5555   6.5567   6.6509
  6.6746   6.6772   6.7009   6.7368   6.7428   6.7998   6.8401   6.8608
  6.8825   6.8919   6.9921   7.1194   7.1378   7.1787   7.2116   7.2156
  7.2329   7.3187   7.3268   7.3321   7.3736   7.3767   7.4284   7.4628
  7.4790   7.4869   7.4887   7.5204   7.5499   7.6105   7.7183   7.7707
  7.7965   7.8316   7.9054   7.9193   7.9479   8.0034   8.1039   8.1749
  8.6165   8.9290   9.0091   9.3639   9.5002   9.6949  10.2072  10.7327
 11.2359  11.4970  11.9065  11.9559  12.1263  12.2029  12.3194  12.5746
 12.6608  12.7942  12.9473  13.2176  13.2798  13.5748  13.8453  13.9020
 13.9418  14.0161  14.2145  14.4505  15.1931
 --------------------------------------------------------------
 
          Ground-State Mulliken Net Atomic Charges

     Atom                 Charge (a.u.)
  ----------------------------------------
      1 C                    -0.186778
      2 C                    -0.254334
      3 S                    -0.021425
      4 C                    -0.012631
      5 H                     0.196644
      6 C                    -0.028048
      7 C                     0.246733
      8 C                     0.240176
      9 C                    -0.045933
     10 C                    -0.032546
     11 O                    -0.333358
     12 O                    -0.339866
     13 C                    -0.085808
     14 H                     0.122733
     15 H                     0.091365
     16 H                     0.094066
     17 C                    -0.087020
     18 H                     0.124628
     19 H                     0.096262
     20 H                     0.089500
     21 C                    -0.219445
     22 S                     0.001867
     23 C                    -0.041145
     24 H                     0.197849
     25 H                     0.206718
     26 C                    -0.016236
     27 S                     0.118769
     28 C                    -0.242009
     29 C                    -0.097822
     30 C                    -0.006109
     31 C                     0.397777
     32 C                    -0.158013
     33 S                     0.036909
     34 C                     0.460796
     35 O                    -0.450647
     36 O                    -0.297854
     37 F                    -0.211042
     38 C                    -0.055003
     39 H                     0.116515
     40 H                     0.084463
     41 H                     0.084509
     42 H                     0.214790
  ----------------------------------------
  Sum of atomic charges =     0.000000

 -----------------------------------------------------------------
                    Cartesian Multipole Moments
 -----------------------------------------------------------------
    Charge (ESU x 10^10)
                 0.0000
    Dipole Moment (Debye)
         X      -0.1399      Y       1.4100      Z       3.5009
       Tot       3.7767
    Quadrupole Moments (Debye-Ang)
        XX    -184.0639     XY       0.1142     YY    -157.9814
        XZ      11.7033     YZ     -12.1506     ZZ    -199.0871
    Octopole Moments (Debye-Ang^2)
       XXX     -39.7186    XXY     304.7598    XYY      -5.8561
       YYY     880.0731    XXZ     172.7516    XYZ     -58.7609
       YYZ     129.4777    XZZ      -8.9489    YZZ     471.6235
       ZZZ     529.6833
    Hexadecapole Moments (Debye-Ang^3)
      XXXX   -2081.8960   XXXY     441.7812   XXYY   -3796.9387
      XYYY     393.4917   YYYY  -18565.5826   XXXZ    -292.3827
      XXYZ     540.6721   XYYZ     152.9725   YYYZ    1398.4161
      XXZZ   -1318.8778   XYZZ     136.1854   YYZZ   -4160.5041
      XZZZ    -413.8530   YZZZ     967.0605   ZZZZ   -5933.4255
 -----------------------------------------------------------------
 Total job time:  289.72s(wall), 9318.16s(cpu) 
 Sun Sep 24 18:44:42 2023

        *************************************************************
        *                                                           *
        *  Thank you very much for using Q-Chem.  Have a nice day.  *
        *                                                           *
        *************************************************************


0 sent ACK to 0 
now end server 0 ... 
cleanup process ... done
remove work dirs ./qchem54830.0 -- ./qchem54830.0
rm -rf ./qchem54830.0
rm -rf ./qchem54830
