You are running Q-Chem version: 5.4.0

#
# job setting
#
local host:  exp-3-12
current dir: /expanse/lustre/projects/csd626/rramji/aromodel/PTB7_fin/Rotation_Test
input file:  fin_bdt_Phi_20_Theta_0_fin_ftt.qcin
output file: 
nprocs     : 1
nthreads   : 64
#
# qchem installation setting
#
QC:          /cm/shared/apps/spack/cpu/opt/spack/linux-centos8-zen2/gcc-10.2.0/qchem-5.4-akfmr7b3t57bfs6qan3padb2wnb2i7cl
QCAUX:       /cm/shared/apps/spack/cpu/opt/spack/linux-centos8-zen2/gcc-10.2.0/qchem-5.4-akfmr7b3t57bfs6qan3padb2wnb2i7cl/qcaux
QCPROG:      /cm/shared/apps/spack/cpu/opt/spack/linux-centos8-zen2/gcc-10.2.0/qchem-5.4-akfmr7b3t57bfs6qan3padb2wnb2i7cl/exe/qcprog.exe
QCPROG_S:    /cm/shared/apps/spack/cpu/opt/spack/linux-centos8-zen2/gcc-10.2.0/qchem-5.4-akfmr7b3t57bfs6qan3padb2wnb2i7cl/exe/qcprog.exe_s
PARALLEL:    -DPARALLEL
QCMPI:       mpich
#
# qchem directory setting
#
qcrun:       qchem3961783
QCSCRATCH:   .
QCLOCALSCR:  
QCTMPDIR:    .
QCFILEPREF:  ./qchem3961783
QCSAVEDIR:   
workdirs:    ./qchem3961783
workdir0:    ./qchem3961783
partmpdirs =  
#
# parallel setting
#
QCRSH:           ssh
QCMPI:           mpich
QCMPIRUN:        /cm/shared/apps/spack/cpu/opt/spack/linux-centos8-zen2/gcc-10.2.0/qchem-5.4-akfmr7b3t57bfs6qan3padb2wnb2i7cl/bin/mpi/mpirun_qchem
QCMACHINEFILE:   ./qchem3961783/hostfile
exp-3-12

#
# env setting
#
exported envs:   QC QCAUX QCSCRATCH QCRUNNAME QCFILEPREF QCPROG QCPROG_S GUIFILE

Running Job 1 of 1 fin_bdt_Phi_20_Theta_0_fin_ftt.qcin
qchem fin_bdt_Phi_20_Theta_0_fin_ftt.qcin_3961783.0 ./qchem3961783/ 1
/cm/shared/apps/spack/cpu/opt/spack/linux-centos8-zen2/gcc-10.2.0/qchem-5.4-akfmr7b3t57bfs6qan3padb2wnb2i7cl/bin/mpi/mpirun_qchem -machinefile ./qchem3961783/hostfile -np 1 /cm/shared/apps/spack/cpu/opt/spack/linux-centos8-zen2/gcc-10.2.0/qchem-5.4-akfmr7b3t57bfs6qan3padb2wnb2i7cl/exe/qcprog.exe fin_bdt_Phi_20_Theta_0_fin_ftt.qcin_3961783.0 ./qchem3961783/

Process 0 of 1 is on exp-3-12 - thread support 0
initial socket setup ...start
initial socket setup ...done 
now start server 0 ... 
                  Welcome to Q-Chem
     A Quantum Leap Into The Future Of Chemistry


 Q-Chem 5.4, Q-Chem, Inc., Pleasanton, CA (2021)

 License issued to: University of California, San Diego (site)

 E. Epifanovsky,  A. T. B. Gilbert,  Xintian Feng,  Joonho Lee,  Yuezhi Mao,  
 N. Mardirossian,  P. Pokhilko,  A. White,  M. Wormit,  M. P. Coons,  
 A. L. Dempwolff,  Zhengting Gan,  D. Hait,  P. R. Horn,  L. D. Jacobson,  
 I. Kaliman,  J. Kussmann,  A. W. Lange,  Ka Un Lao,  D. S. Levine,  Jie Liu,  
 S. C. McKenzie,  A. F. Morrison,  K. Nanda,  F. Plasser,  D. R. Rehn,  
 M. L. Vidal,  Zhi-Qiang You,  Ying Zhu,  B. Alam,  B. Albrecht,  
 A. Aldossary,  E. Alguire,  J. H. Andersen,  D. Barton,  K. Begam,  A. Behn,  
 Y. A. Bernard,  E. J. Berquist,  H. Burton,  A. Carreras,  K. Carter-Fenk,  
 R. Chakraborty,  A. D. Chien,  K. D. Closser,  V. Cofer-Shabica,  
 S. Dasgupta,  Jia Deng,  M. de Wergifosse,  M. Diedenhofen,  Hainam Do,  
 S. Ehlert,  Po-Tung Fang,  S. Fatehi,  Qingguo Feng,  J. Gayvert,  
 Qinghui Ge,  G. Gidofalvi,  M. Goldey,  J. Gomes,  C. Gonzalez-Espinoza,  
 S. Gulania,  A. Gunina,  M. W. D. Hanson-Heine,  P. H. P. Harbach,  
 A. W. Hauser,  M. F. Herbst,  M. Hernandez Vera,  M. Hodecker,  
 Z. C. Holden,  S. Houck,  Xunkun Huang,  Kerwin Hui,  B. C. Huynh,  
 M. Ivanov,  Hyunjun Ji,  Hanjie Jiang,  B. Kaduk,  S. Kaehler,  
 K. Khistyaev,  Jaehoon Kim,  P. Klunzinger,  Z. Koczor-Benda,  
 Joong Hoon Koh,  D. Kosenkov,  L. Koulias,  T. Kowalczyk,  C. M. Krauter,  
 K. Kue,  A. Kunitsa,  T. Kus,  A. Landau,  K. V. Lawler,  D. Lefrancois,  
 S. Lehtola,  Rain Li,  Yi-Pei Li,  Jiashu Liang,  M. Liebenthal,  
 Hung-Hsuan Lin,  You-Sheng Lin,  Fenglai Liu,  Kuan-Yu Liu,  
 M. Loipersberger,  A. Luenser,  A. Manjanath,  P. Manohar,  E. Mansoor,  
 S. F. Manzer,  Shan-Ping Mao,  A. V. Marenich,  T. Markovich,  S. Mason,  
 S. A. Maurer,  P. F. McLaughlin,  M. F. S. J. Menger,  J.-M. Mewes,  
 S. A. Mewes,  P. Morgante,  J. W. Mullinax,  T. S. Nguyen-Beck,  
 K. J. Oosterbaan,  G. Paran,  Alexander C. Paul,  Suranjan K. Paul,  
 F. Pavosevic,  Zheng Pei,  S. Prager,  E. I. Proynov,  E. Ramos,  B. Rana,  
 A. E. Rask,  A. Rettig,  R. M. Richard,  F. Rob,  E. Rossomme,  T. Scheele,  
 M. Scheurer,  M. Schneider,  N. Sergueev,  S. M. Sharada,  W. Skomorowski,  
 D. W. Small,  C. J. Stein,  Yu-Chuan Su,  E. J. Sundstrom,  Zhen Tao,  
 J. Thirman,  T. Tsuchimochi,  N. M. Tubman,  S. P. Veccham,  O. Vydrov,  
 J. Wenzel,  J. Witte,  A. Yamada,  Kun Yao,  S. Yeganeh,  S. R. Yost,  
 A. Zech,  Igor Ying Zhang,  Xing Zhang,  Yu Zhang,  D. Zuev,  
 A. Aspuru-Guzik,  A. T. Bell,  N. A. Besley,  K. B. Bravaya,  B. R. Brooks,  
 D. Casanova,  Jeng-Da Chai,  S. Coriani,  C. J. Cramer,  
 A. E. DePrince, III,  R. A. DiStasio Jr.,  A. Dreuw,  B. D. Dunietz,  
 T. R. Furlani,  W. A. Goddard III,  S. Grimme,  S. Hammes-Schiffer,  
 T. Head-Gordon,  W. J. Hehre,  Chao-Ping Hsu,  T.-C. Jagau,  Yousung Jung,  
 A. Klamt,  Jing Kong,  D. S. Lambrecht,  WanZhen Liang,  N. J. Mayhall,  
 C. W. McCurdy,  J. B. Neaton,  C. Ochsenfeld,  J. A. Parkhill,  R. Peverati,  
 V. A. Rassolov,  Yihan Shao,  L. V. Slipchenko,  T. Stauch,  R. P. Steele,  
 J. E. Subotnik,  A. J. W. Thom,  A. Tkatchenko,  D. G. Truhlar,  
 T. Van Voorhis,  T. A. Wesolowski,  K. B. Whaley,  H. L. Woodcock III,  
 P. M. Zimmerman,  S. Faraji,  P. M. W. Gill,  M. Head-Gordon,  
 J. M. Herbert,  A. I. Krylov

 Contributors to earlier versions of Q-Chem not listed above: 
 R. D. Adamson,  B. Austin,  R. Baer,  J. Baker,  G. J. O. Beran,  
 K. Brandhorst,  S. T. Brown,  E. F. C. Byrd,  A. K. Chakraborty,  
 G. K. L. Chan,  Chun-Min Chang,  Yunqing Chen,  C.-L. Cheng,  
 Siu Hung Chien,  D. M. Chipman,  D. L. Crittenden,  H. Dachsel,  
 R. J. Doerksen,  A. D. Dutoi,  R. G. Edgar,  J. Fosso-Tande,  
 L. Fusti-Molnar,  D. Ghosh,  A. Ghysels,  A. Golubeva-Zadorozhnaya,  
 J. Gonthier,  M. S. Gordon,  S. R. Gwaltney,  G. Hawkins,  J. E. Herr,  
 A. Heyden,  S. Hirata,  E. G. Hohenstein,  G. Kedziora,  F. J. Keil,  
 C. Kelley,  Jihan Kim,  R. A. King,  R. Z. Khaliullin,  P. P. Korambath,  
 W. Kurlancheek,  A. Laurent,  A. M. Lee,  M. S. Lee,  S. V. Levchenko,  
 Ching Yeh Lin,  D. Liotard,  E. Livshits,  R. C. Lochan,  I. Lotan,  
 L. A. Martinez-Martinez,  P. E. Maslen,  N. Nair,  D. P. O'Neill,  
 D. Neuhauser,  E. Neuscamman,  C. M. Oana,  R. Olivares-Amaya,  R. Olson,  
 T. M. Perrine,  B. Peters,  P. A. Pieniazek,  A. Prociuk,  Y. M. Rhee,  
 J. Ritchie,  M. A. Rohrdanz,  E. Rosta,  N. J. Russ,  H. F. Schaefer III,  
 M. W. Schmidt,  N. E. Schultz,  S. Sharma,  N. Shenvi,  C. D. Sherrill,  
 A. C. Simmonett,  A. Sodt,  T. Stein,  D. Stuck,  K. S. Thanthiriwatte,  
 V. Vanovschi,  L. Vogt,  Tao Wang,  A. Warshel,  M. A. Watson,  
 C. F. Williams,  Q. Wu,  X. Xu,  Jun Yang,  W. Zhang,  Yan Zhao

 Please cite Q-Chem as follows:
 Y. Shao et al., Mol. Phys. 113, 184-215 (2015)
 DOI: 10.1080/00268976.2014.952696

 Q-Chem 5.4.0 for Intel X86 EM64T Linux

 Parts of Q-Chem use Armadillo 9.800.1 (Horizon Scraper).
 http://arma.sourceforge.net/

 Q-Chem begins on Sun Sep 24 16:13:45 2023  

 Host: 
0

     Scratch files written to ./qchem3961783//
 May1621 |scratch|qcdevops|jenkins|workspace|build_RNUM    
 Parallel job on  1  processors
 Processing $rem in /cm/shared/apps/spack/cpu/opt/spack/linux-centos8-zen2/gcc-10.2.0/qchem-5.4-akfmr7b3t57bfs6qan3padb2wnb2i7cl/config/preferences:
 Processing $rem in /home/rramji/.qchemrc:
 Symmetry turned off for PCM/SM12/SMD calculation
 Core orbitals will be frozen

 Checking the input file for inconsistencies... 	...done.

 Q-Chem warning in module forms1/BasisType.C, line 2236:

 You are not using the predefined 5D/6D in this basis set.


--------------------------------------------------------------
User input:
--------------------------------------------------------------
$molecule
0 1
C	1.432238	-8.398629	0.267851
C	1.270668	-7.529711	-0.801461
S	1.299871	-7.540578	1.822194
C	1.033679	-6.176229	-0.415201
H	1.318997	-7.844878	-1.851431
C	1.001923	-5.997113	1.012650
C	0.805626	-4.730351	1.584194
C	0.863981	-5.080701	-1.309433
C	0.671533	-3.810912	-0.737539
C	0.637166	-3.633485	0.691828
O	0.891580	-5.408420	-2.631211
O	0.780896	-4.411287	2.911907
C	0.336511	-5.379315	3.854716
H	0.171379	-4.834178	4.803517
H	1.095324	-6.172080	4.034285
H	-0.616308	-5.854145	3.535185
C	1.159578	-4.412679	-3.610841
H	1.321333	-4.953370	-4.562544
H	2.072791	-3.829719	-3.364029
H	0.303747	-3.715791	-3.743566
C	0.402329	-2.279087	1.074491
S	0.385663	-2.262896	-1.548848
C	0.249216	-1.413377	0.000000
H	0.350996	-1.962069	2.123688
H	1.625021	-9.477792	0.262315
C	0.000000	0.000000	0.000000
S	0.158383	0.885376	1.510732
C	0.430876	2.436951	0.727629
C	0.157682	0.894430	-1.064665
C	0.397351	2.262384	-0.678287
C	0.147783	0.828765	-2.486150
C	0.367291	2.074406	-3.106916
S	0.580633	3.303533	-1.965735
C	0.416083	2.324204	-4.559972
O	0.256921	1.404367	-5.350277
O	0.642094	3.587338	-5.004375
F	-0.041828	-0.269113	-3.246290
C	0.714377	3.938827	-6.334976
H	0.906844	5.026898	-6.370268
H	-0.230661	3.710099	-6.875609
H	1.531918	3.398681	-6.861878
H	0.590699	3.342984	1.321510
$end

$rem
JOBTYPE		SP
EXCHANGE	HF
CORRELATION	pRIMP2
BASIS		cc-pvtz
METHOD		rimp2
AUX_BASIS	rimp2-cc-pvtz
SOLVENT_METHOD	PCM
PURECART	11111
SYMMETRY	false
MEM_TOTAL	110000
SCF_CONVERGENCE = 6
THRESH=10
GUI = 2
$end



$solvent
dielectric 4.90
$end
--------------------------------------------------------------
 ----------------------------------------------------------------
             Standard Nuclear Orientation (Angstroms)
    I     Atom           X                Y                Z
 ----------------------------------------------------------------
    1      C       1.4322380000    -8.3986290000     0.2678510000
    2      C       1.2706680000    -7.5297110000    -0.8014610000
    3      S       1.2998710000    -7.5405780000     1.8221940000
    4      C       1.0336790000    -6.1762290000    -0.4152010000
    5      H       1.3189970000    -7.8448780000    -1.8514310000
    6      C       1.0019230000    -5.9971130000     1.0126500000
    7      C       0.8056260000    -4.7303510000     1.5841940000
    8      C       0.8639810000    -5.0807010000    -1.3094330000
    9      C       0.6715330000    -3.8109120000    -0.7375390000
   10      C       0.6371660000    -3.6334850000     0.6918280000
   11      O       0.8915800000    -5.4084200000    -2.6312110000
   12      O       0.7808960000    -4.4112870000     2.9119070000
   13      C       0.3365110000    -5.3793150000     3.8547160000
   14      H       0.1713790000    -4.8341780000     4.8035170000
   15      H       1.0953240000    -6.1720800000     4.0342850000
   16      H      -0.6163080000    -5.8541450000     3.5351850000
   17      C       1.1595780000    -4.4126790000    -3.6108410000
   18      H       1.3213330000    -4.9533700000    -4.5625440000
   19      H       2.0727910000    -3.8297190000    -3.3640290000
   20      H       0.3037470000    -3.7157910000    -3.7435660000
   21      C       0.4023290000    -2.2790870000     1.0744910000
   22      S       0.3856630000    -2.2628960000    -1.5488480000
   23      C       0.2492160000    -1.4133770000     0.0000000000
   24      H       0.3509960000    -1.9620690000     2.1236880000
   25      H       1.6250210000    -9.4777920000     0.2623150000
   26      C       0.0000000000     0.0000000000     0.0000000000
   27      S       0.1583830000     0.8853760000     1.5107320000
   28      C       0.4308760000     2.4369510000     0.7276290000
   29      C       0.1576820000     0.8944300000    -1.0646650000
   30      C       0.3973510000     2.2623840000    -0.6782870000
   31      C       0.1477830000     0.8287650000    -2.4861500000
   32      C       0.3672910000     2.0744060000    -3.1069160000
   33      S       0.5806330000     3.3035330000    -1.9657350000
   34      C       0.4160830000     2.3242040000    -4.5599720000
   35      O       0.2569210000     1.4043670000    -5.3502770000
   36      O       0.6420940000     3.5873380000    -5.0043750000
   37      F      -0.0418280000    -0.2691130000    -3.2462900000
   38      C       0.7143770000     3.9388270000    -6.3349760000
   39      H       0.9068440000     5.0268980000    -6.3702680000
   40      H      -0.2306610000     3.7100990000    -6.8756090000
   41      H       1.5319180000     3.3986810000    -6.8618780000
   42      H       0.5906990000     3.3429840000     1.3215100000
 ----------------------------------------------------------------
 Nuclear Repulsion Energy =        3329.06534657 hartrees
 There are      119 alpha and      119 beta electrons
 Requested basis set is cc-pVTZ
 There are 376 shells and 1068 basis functions

 Total QAlloc Memory Limit 110000 MB
 Mega-Array Size       188 MB
 MEM_STATIC part       192 MB
 Discretize the solute cavity surface with Lebedev spheres
	Using 110 Lebedev grid points for each H atom
	Using 194 Lebedev grid points for other atoms
	Atomic van der Waals radii will be scaled by 1.20
 Remove points where switching function is < 1.0e-08
 Keep 2870 surface tesserae and discard 4186 interior tesserae
 Molecular Surface Area = 431.877 Angst**2
 Requested basis set is rimp2-cc-pVTZ
 There are 833 shells and 2903 basis functions
 A cutoff of  1.0D-10 yielded  31562 shell pairs
 There are    242182 function pairs (    314294 Cartesian)
 Smallest overlap matrix eigenvalue = 2.16E-05

 Scale SEOQF with 1.000000e-01/1.000000e-02/1.000000e-02

 Standard Electronic Orientation quadrupole field applied
 Nucleus-field energy     =     0.0000000163 hartrees
 Guess from superposition of atomic densities
 Warning:  Energy on first SCF cycle will be non-variational
 SAD guess density has 238.000000 electrons

 -----------------------------------------------------------------------
  General SCF calculation program by
  Eric Jon Sundstrom, Paul Horn, Yuezhi Mao, Dmitri Zuev, Alec White,
  David Stuck, Shaama M.S., Shane Yost, Joonho Lee, David Small,
  Daniel Levine, Susi Lehtola, Hugh Burton, Evgeny Epifanovsky,
  Bang C. Huynh
 -----------------------------------------------------------------------
 Hartree-Fock
 using 64 threads for integral computing
 -------------------------------------------------------
 OpenMP Integral computing Module                
 Release: version 1.0, May 2013, Q-Chem Inc. Pittsburgh 
 -------------------------------------------------------
 A restricted SCF calculation will be
 performed using DIIS
 SCF converges when DIIS error is below 1.0e-06
 ---------------------------------------
  Cycle       Energy         DIIS error
 ---------------------------------------
    1   -2765.5816562658      1.77e-02  
    2   -2753.8463026927      1.57e-03  
    3   -2754.1864064689      8.86e-04  
    4   -2754.2718242492      2.55e-04  
    5   -2754.2836106924      6.83e-05  
    6   -2754.2847180723      2.40e-05  
    7   -2754.2849716776      1.17e-05  
    8   -2754.2850568920      4.60e-06  
    9   -2754.2850745254      1.95e-06  
   10   -2754.2850771395      8.39e-07  Convergence criterion met
 ---------------------------------------
 SCF time:   CPU 6681.80s  wall 249.00s 

************** Final PCM Free Energy Summary **************
 G_electrostatic  =      -0.01927086 hartree =     -12.09264961 kcal/mol
 G_cavitation     =       0.00000000 hartree =       0.00000000 kcal/mol
 G_dispersion     =       0.00000000 hartree =       0.00000000 kcal/mol
 G_repulsion      =       0.00000000 hartree =       0.00000000 kcal/mol
 --------------------------------------------------
 Non-electrostatic Free Energy =       0.00000000 hartree =       0.00000000 kcal/mol
 Total                         =      -0.01927086 hartree =     -12.09264961 kcal/mol
 --------------------------------------------------
 SCF Energy (H0 + V/2)                       =   -2754.28507714 
 Solute Internal Energy (H0)                 =   -2754.26580628 
 Total Free Energy (H0 + V/2 + non-elec)     =   -2754.28507714 hartree
                                             = -1728339.97173897 kcal/mol
***********************************************************

 SCF   energy in the final basis set =    -2754.2850771395
 Total energy in the final basis set =    -2754.2850771395


 --------------------------------------------------------------
  Generalized many-body perturbation theory program
  by Joonho Lee, Fazle Rob, Xintian Feng, Evgeny Epifanovsky

 No regularization used 
 (reg. param. = 0.0000e+00)
  (P|Q)^-1/2 Time:  CPU 206.29 s  wall 3.78 s

 In RI-MP2 calculation: 
 # of frozen core orbitals: 45

 Components of the RIMP2 correlation energy:
        aaaa    correlation energy =        -0.6722335305 a.u.
        abab    correlation energy =        -3.7147359615 a.u.
        bbbb    correlation energy =        -0.6722335305 a.u.
        non-Brillouin singles      =        -0.0000000000 a.u.
        total same-spin energy     =        -1.3444670611 a.u.
        total opposite-spin energy =        -3.7147359615 a.u.

 Total  RIMP2   correlation energy =        -5.0592030225 a.u.
        RIMP2         total energy =     -2759.3442801620 a.u.

 RI-MP2 Energy Time:  CPU 3717.77 s  wall 65.35 s
 
 --------------------------------------------------------------
 
                    Orbital Energies (a.u.)
 --------------------------------------------------------------
 
 Alpha MOs
 -- Occupied --
-92.0145 -91.9964 -91.9859 -91.9845 -26.3365 -20.6127 -20.5913 -20.5910
-20.5509 -11.4112 -11.3791 -11.3181 -11.3170 -11.3110 -11.2992 -11.2982
-11.2972 -11.2965 -11.2889 -11.2861 -11.2853 -11.2843 -11.2834 -11.2832
-11.2791 -11.2609 -11.2581 -11.2565 -11.2495  -9.0132  -9.0003  -8.9858
 -8.9856  -6.6939  -6.6933  -6.6928  -6.6816  -6.6809  -6.6796  -6.6668
 -6.6664  -6.6662  -6.6657  -6.6653  -6.6646  -1.6525  -1.4725  -1.4153
 -1.4139  -1.3679  -1.2355  -1.1955  -1.1689  -1.1425  -1.0844  -1.0516
 -1.0487  -1.0295  -1.0016  -0.9936  -0.9731  -0.9601  -0.9495  -0.9382
 -0.8954  -0.8707  -0.8514  -0.8102  -0.7964  -0.7871  -0.7751  -0.7631
 -0.7577  -0.7320  -0.7218  -0.7193  -0.7001  -0.6892  -0.6838  -0.6792
 -0.6746  -0.6622  -0.6581  -0.6520  -0.6281  -0.6191  -0.6158  -0.6073
 -0.6026  -0.5970  -0.5881  -0.5700  -0.5689  -0.5647  -0.5590  -0.5527
 -0.5305  -0.5262  -0.5235  -0.5190  -0.5144  -0.5085  -0.5020  -0.4949
 -0.4858  -0.4832  -0.4798  -0.4639  -0.4620  -0.4616  -0.4567  -0.4250
 -0.3947  -0.3863  -0.3606  -0.3499  -0.3249  -0.2839  -0.2458
 -- Virtual --
  0.0067   0.0812   0.1113   0.1282   0.1384   0.1495   0.1536   0.1555
  0.1560   0.1606   0.1676   0.1793   0.1801   0.1843   0.1919   0.1957
  0.2025   0.2055   0.2116   0.2162   0.2211   0.2229   0.2253   0.2299
  0.2314   0.2433   0.2481   0.2589   0.2610   0.2710   0.2760   0.2906
  0.2999   0.3102   0.3283   0.3353   0.3414   0.3482   0.3519   0.3579
  0.3632   0.3674   0.3714   0.3743   0.3777   0.3801   0.3841   0.3862
  0.3908   0.3939   0.4001   0.4073   0.4117   0.4131   0.4182   0.4194
  0.4273   0.4392   0.4427   0.4439   0.4475   0.4503   0.4541   0.4611
  0.4620   0.4632   0.4722   0.4743   0.4789   0.4844   0.4902   0.4909
  0.4974   0.5013   0.5025   0.5105   0.5122   0.5189   0.5225   0.5253
  0.5320   0.5348   0.5378   0.5406   0.5446   0.5513   0.5532   0.5543
  0.5551   0.5638   0.5685   0.5701   0.5713   0.5759   0.5801   0.5818
  0.5869   0.5897   0.5921   0.5954   0.6016   0.6067   0.6119   0.6150
  0.6167   0.6179   0.6200   0.6225   0.6283   0.6293   0.6330   0.6375
  0.6394   0.6417   0.6435   0.6492   0.6550   0.6573   0.6655   0.6662
  0.6705   0.6806   0.6859   0.6877   0.6917   0.6935   0.6989   0.7056
  0.7111   0.7163   0.7252   0.7284   0.7417   0.7466   0.7506   0.7598
  0.7611   0.7649   0.7723   0.7796   0.7870   0.7930   0.7980   0.8016
  0.8100   0.8170   0.8209   0.8244   0.8295   0.8398   0.8486   0.8557
  0.8575   0.8583   0.8674   0.8772   0.8807   0.8871   0.8901   0.8940
  0.9007   0.9010   0.9041   0.9117   0.9176   0.9191   0.9245   0.9325
  0.9345   0.9448   0.9475   0.9524   0.9542   0.9583   0.9608   0.9744
  0.9786   0.9797   0.9819   0.9846   0.9940   0.9991   1.0020   1.0064
  1.0079   1.0120   1.0160   1.0264   1.0285   1.0315   1.0362   1.0376
  1.0436   1.0467   1.0580   1.0596   1.0711   1.0720   1.0768   1.0814
  1.0863   1.0914   1.0956   1.1013   1.1047   1.1087   1.1137   1.1212
  1.1254   1.1299   1.1395   1.1448   1.1502   1.1517   1.1564   1.1634
  1.1653   1.1681   1.1759   1.1841   1.1871   1.1904   1.1919   1.1985
  1.2006   1.2052   1.2123   1.2188   1.2210   1.2236   1.2313   1.2323
  1.2355   1.2423   1.2477   1.2559   1.2591   1.2657   1.2724   1.2788
  1.2830   1.2881   1.2973   1.3053   1.3096   1.3149   1.3235   1.3292
  1.3332   1.3371   1.3421   1.3432   1.3530   1.3561   1.3602   1.3686
  1.3771   1.3823   1.3856   1.3882   1.3980   1.4065   1.4182   1.4240
  1.4316   1.4397   1.4430   1.4595   1.4668   1.4711   1.4831   1.4912
  1.5003   1.5025   1.5040   1.5079   1.5102   1.5120   1.5139   1.5253
  1.5324   1.5366   1.5430   1.5462   1.5551   1.5580   1.5617   1.5664
  1.5703   1.5863   1.5925   1.5962   1.6016   1.6143   1.6312   1.6327
  1.6365   1.6486   1.6562   1.6605   1.6637   1.6708   1.6750   1.6865
  1.6958   1.6984   1.7042   1.7132   1.7169   1.7345   1.7347   1.7484
  1.7596   1.7614   1.7758   1.7840   1.7933   1.7999   1.8195   1.8227
  1.8272   1.8308   1.8349   1.8461   1.8505   1.8634   1.8689   1.8765
  1.8833   1.8913   1.8993   1.9047   1.9164   1.9224   1.9278   1.9334
  1.9453   1.9460   1.9563   1.9592   1.9662   1.9730   1.9849   1.9893
  1.9960   2.0007   2.0200   2.0273   2.0340   2.0356   2.0522   2.0706
  2.0742   2.0958   2.0982   2.1059   2.1170   2.1354   2.1381   2.1470
  2.1539   2.1597   2.1650   2.1689   2.1783   2.1876   2.1882   2.1930
  2.1996   2.2075   2.2179   2.2215   2.2306   2.2353   2.2452   2.2502
  2.2534   2.2571   2.2723   2.2767   2.2803   2.2876   2.2904   2.2966
  2.3038   2.3146   2.3172   2.3282   2.3428   2.3500   2.3504   2.3598
  2.3769   2.3823   2.3864   2.3959   2.4021   2.4176   2.4287   2.4333
  2.4361   2.4435   2.4532   2.4646   2.4660   2.4767   2.4866   2.4891
  2.5011   2.5223   2.5255   2.5290   2.5379   2.5508   2.5541   2.5644
  2.5790   2.5837   2.5871   2.5977   2.6058   2.6176   2.6185   2.6220
  2.6286   2.6335   2.6416   2.6421   2.6468   2.6573   2.6626   2.6719
  2.6750   2.6900   2.6905   2.6995   2.7028   2.7119   2.7146   2.7171
  2.7270   2.7329   2.7396   2.7435   2.7458   2.7533   2.7615   2.7702
  2.7790   2.7876   2.7892   2.7954   2.8048   2.8067   2.8197   2.8278
  2.8322   2.8335   2.8422   2.8512   2.8542   2.8671   2.8723   2.8748
  2.8780   2.8868   2.8911   2.8969   2.9066   2.9126   2.9266   2.9407
  2.9513   2.9568   2.9613   2.9678   2.9770   2.9825   2.9855   2.9887
  3.0107   3.0133   3.0229   3.0300   3.0354   3.0401   3.0441   3.0469
  3.0488   3.0614   3.0655   3.0771   3.0821   3.0897   3.0941   3.1022
  3.1084   3.1104   3.1136   3.1232   3.1300   3.1439   3.1522   3.1529
  3.1593   3.1622   3.1633   3.1662   3.1748   3.1802   3.1852   3.1877
  3.1927   3.1988   3.2042   3.2084   3.2098   3.2204   3.2255   3.2305
  3.2327   3.2398   3.2451   3.2504   3.2534   3.2581   3.2702   3.2731
  3.2779   3.2822   3.2853   3.2892   3.2951   3.2987   3.3018   3.3070
  3.3135   3.3161   3.3287   3.3315   3.3372   3.3424   3.3438   3.3497
  3.3570   3.3586   3.3612   3.3669   3.3680   3.3701   3.3743   3.3844
  3.3855   3.3902   3.3918   3.3961   3.3987   3.4080   3.4161   3.4185
  3.4215   3.4237   3.4299   3.4418   3.4450   3.4498   3.4524   3.4571
  3.4612   3.4639   3.4713   3.4743   3.4821   3.4850   3.4887   3.4988
  3.5051   3.5136   3.5178   3.5197   3.5211   3.5283   3.5319   3.5362
  3.5525   3.5535   3.5602   3.5708   3.5762   3.5793   3.5827   3.5857
  3.5908   3.5952   3.5960   3.6007   3.6028   3.6081   3.6151   3.6251
  3.6308   3.6338   3.6395   3.6427   3.6481   3.6559   3.6642   3.6652
  3.6700   3.6708   3.6784   3.6846   3.6865   3.6921   3.6957   3.7033
  3.7066   3.7100   3.7112   3.7229   3.7254   3.7295   3.7317   3.7390
  3.7416   3.7488   3.7535   3.7547   3.7712   3.7770   3.7807   3.7893
  3.7933   3.7969   3.8035   3.8082   3.8200   3.8245   3.8294   3.8405
  3.8444   3.8459   3.8515   3.8566   3.8617   3.8683   3.8687   3.8729
  3.8883   3.8909   3.9015   3.9052   3.9101   3.9121   3.9153   3.9216
  3.9287   3.9324   3.9410   3.9592   3.9661   3.9698   3.9768   3.9916
  3.9950   4.0039   4.0076   4.0108   4.0206   4.0281   4.0324   4.0382
  4.0558   4.0563   4.0598   4.0684   4.0737   4.0828   4.0861   4.0949
  4.1043   4.1068   4.1208   4.1249   4.1368   4.1413   4.1476   4.1563
  4.1592   4.1695   4.1708   4.1818   4.1870   4.1905   4.1993   4.2002
  4.2077   4.2200   4.2229   4.2423   4.2509   4.2680   4.2733   4.2800
  4.2871   4.3009   4.3077   4.3142   4.3192   4.3405   4.3455   4.3479
  4.3523   4.3651   4.3744   4.3766   4.3796   4.3928   4.3970   4.4027
  4.4091   4.4140   4.4171   4.4220   4.4299   4.4300   4.4523   4.4585
  4.4647   4.4774   4.4894   4.4930   4.4954   4.5057   4.5098   4.5172
  4.5223   4.5438   4.5495   4.5558   4.5592   4.5639   4.5823   4.5920
  4.6054   4.6118   4.6177   4.6294   4.6336   4.6383   4.6439   4.6491
  4.6572   4.6710   4.6789   4.6886   4.6948   4.7020   4.7102   4.7321
  4.7376   4.7511   4.7732   4.7765   4.7902   4.8017   4.8033   4.8150
  4.8227   4.8302   4.8406   4.8589   4.8773   4.8850   4.9140   4.9234
  4.9454   4.9502   4.9542   4.9600   4.9650   4.9867   4.9972   5.0028
  5.0092   5.0115   5.0260   5.0306   5.0513   5.0663   5.0688   5.0750
  5.0900   5.1294   5.1421   5.1489   5.1672   5.1764   5.1869   5.2022
  5.2049   5.2240   5.2291   5.2416   5.2540   5.2588   5.2728   5.2915
  5.3016   5.3124   5.3182   5.3304   5.3391   5.3548   5.3556   5.3776
  5.3800   5.3870   5.3957   5.4013   5.4058   5.4394   5.4596   5.4649
  5.4728   5.4799   5.4933   5.5097   5.5136   5.5258   5.5473   5.5674
  5.5733   5.5854   5.5988   5.6076   5.6170   5.6326   5.6469   5.6671
  5.7199   5.7348   5.8002   5.8062   5.8192   5.8326   5.8574   5.8696
  5.8792   5.8877   5.9326   5.9690   5.9730   5.9884   5.9999   6.0435
  6.0739   6.0907   6.1245   6.1332   6.1712   6.1743   6.1858   6.1890
  6.2432   6.2656   6.2747   6.2782   6.3069   6.3082   6.3276   6.4251
  6.4383   6.4660   6.4853   6.5226   6.5504   6.5557   6.5596   6.6553
  6.6660   6.6761   6.7092   6.7385   6.7541   6.8018   6.8473   6.8598
  6.8838   6.8956   6.9900   7.1213   7.1405   7.1779   7.2108   7.2176
  7.2345   7.3211   7.3258   7.3345   7.3703   7.3821   7.4304   7.4621
  7.4811   7.4843   7.4893   7.5252   7.5487   7.6181   7.7242   7.7674
  7.7979   7.8313   7.9043   7.9202   7.9500   8.0101   8.1004   8.2133
  8.5629   8.9457   9.0369   9.3641   9.5069   9.7295  10.2308  10.6244
 11.2616  11.3452  11.9549  11.9964  12.1350  12.2696  12.4350  12.6037
 12.6645  12.7294  12.9720  13.2325  13.2838  13.5918  13.8464  13.9093
 13.9626  14.0277  14.2400  14.5522  15.2320
 --------------------------------------------------------------
 
          Ground-State Mulliken Net Atomic Charges

     Atom                 Charge (a.u.)
  ----------------------------------------
      1 C                    -0.189379
      2 C                    -0.254343
      3 S                    -0.023918
      4 C                    -0.015049
      5 H                     0.196446
      6 C                    -0.028348
      7 C                     0.239908
      8 C                     0.242764
      9 C                    -0.040721
     10 C                    -0.022026
     11 O                    -0.333789
     12 O                    -0.340854
     13 C                    -0.085592
     14 H                     0.122111
     15 H                     0.091074
     16 H                     0.094081
     17 C                    -0.088855
     18 H                     0.125449
     19 H                     0.094291
     20 H                     0.091637
     21 C                    -0.246896
     22 S                    -0.026283
     23 C                    -0.007666
     24 H                     0.186843
     25 H                     0.206275
     26 C                     0.040372
     27 S                     0.096559
     28 C                    -0.225842
     29 C                    -0.092773
     30 C                    -0.029894
     31 C                     0.356863
     32 C                    -0.127332
     33 S                     0.044499
     34 C                     0.457618
     35 O                    -0.449643
     36 O                    -0.297702
     37 F                    -0.208511
     38 C                    -0.054807
     39 H                     0.116886
     40 H                     0.084645
     41 H                     0.084500
     42 H                     0.217404
  ----------------------------------------
  Sum of atomic charges =     0.000000

 -----------------------------------------------------------------
                    Cartesian Multipole Moments
 -----------------------------------------------------------------
    Charge (ESU x 10^10)
                 0.0000
    Dipole Moment (Debye)
         X       0.6838      Y       2.0717      Z       2.8081
       Tot       3.5560
    Quadrupole Moments (Debye-Ang)
        XX    -199.9050     XY       0.1987     YY    -161.1861
        XZ      -7.5537     YZ     -11.5441     ZZ    -181.7935
    Octopole Moments (Debye-Ang^2)
       XXX    -370.9930    XXY     377.7943    XYY     -64.2930
       YYY     898.3105    XXZ     151.8110    XYZ      16.1524
       YYZ     130.2152    XZZ     -89.0028    YZZ     386.0769
       ZZZ     508.1539
    Hexadecapole Moments (Debye-Ang^3)
      XXXX    -907.1652   XXXY    1356.2512   XXYY   -3798.2042
      XYYY     791.7688   YYYY  -18329.2236   XXXZ     231.2871
      XXYZ     687.8782   XYYZ     -71.9062   YYYZ    1590.6950
      XXZZ   -1478.0914   XYZZ     475.0284   YYZZ   -3972.9046
      XZZZ      49.4375   YZZZ    1180.1463   ZZZZ   -7565.3794
 -----------------------------------------------------------------
 Total job time:  420.66s(wall), 10585.04s(cpu) 
 Sun Sep 24 16:20:46 2023

        *************************************************************
        *                                                           *
        *  Thank you very much for using Q-Chem.  Have a nice day.  *
        *                                                           *
        *************************************************************


0 sent ACK to 0 
now end server 0 ... 
cleanup process ... done
remove work dirs ./qchem3961783.0 -- ./qchem3961783.0
rm -rf ./qchem3961783.0
rm -rf ./qchem3961783
