You are running Q-Chem version: 5.4.0

#
# job setting
#
local host:  exp-2-27
current dir: /expanse/lustre/projects/csd626/rramji/aromodel/PTB7_fin/Rotation_Test
input file:  fin_bdt_Phi_0_Theta_220_fin_ftt.qcin
output file: 
nprocs     : 1
nthreads   : 64
#
# qchem installation setting
#
QC:          /cm/shared/apps/spack/cpu/opt/spack/linux-centos8-zen2/gcc-10.2.0/qchem-5.4-akfmr7b3t57bfs6qan3padb2wnb2i7cl
QCAUX:       /cm/shared/apps/spack/cpu/opt/spack/linux-centos8-zen2/gcc-10.2.0/qchem-5.4-akfmr7b3t57bfs6qan3padb2wnb2i7cl/qcaux
QCPROG:      /cm/shared/apps/spack/cpu/opt/spack/linux-centos8-zen2/gcc-10.2.0/qchem-5.4-akfmr7b3t57bfs6qan3padb2wnb2i7cl/exe/qcprog.exe
QCPROG_S:    /cm/shared/apps/spack/cpu/opt/spack/linux-centos8-zen2/gcc-10.2.0/qchem-5.4-akfmr7b3t57bfs6qan3padb2wnb2i7cl/exe/qcprog.exe_s
PARALLEL:    -DPARALLEL
QCMPI:       mpich
#
# qchem directory setting
#
qcrun:       qchem49870
QCSCRATCH:   .
QCLOCALSCR:  
QCTMPDIR:    .
QCFILEPREF:  ./qchem49870
QCSAVEDIR:   
workdirs:    ./qchem49870
workdir0:    ./qchem49870
partmpdirs =  
#
# parallel setting
#
QCRSH:           ssh
QCMPI:           mpich
QCMPIRUN:        /cm/shared/apps/spack/cpu/opt/spack/linux-centos8-zen2/gcc-10.2.0/qchem-5.4-akfmr7b3t57bfs6qan3padb2wnb2i7cl/bin/mpi/mpirun_qchem
QCMACHINEFILE:   ./qchem49870/hostfile
exp-2-27

#
# env setting
#
exported envs:   QC QCAUX QCSCRATCH QCRUNNAME QCFILEPREF QCPROG QCPROG_S GUIFILE

Running Job 1 of 1 fin_bdt_Phi_0_Theta_220_fin_ftt.qcin
qchem fin_bdt_Phi_0_Theta_220_fin_ftt.qcin_49870.0 ./qchem49870/ 1
/cm/shared/apps/spack/cpu/opt/spack/linux-centos8-zen2/gcc-10.2.0/qchem-5.4-akfmr7b3t57bfs6qan3padb2wnb2i7cl/bin/mpi/mpirun_qchem -machinefile ./qchem49870/hostfile -np 1 /cm/shared/apps/spack/cpu/opt/spack/linux-centos8-zen2/gcc-10.2.0/qchem-5.4-akfmr7b3t57bfs6qan3padb2wnb2i7cl/exe/qcprog.exe fin_bdt_Phi_0_Theta_220_fin_ftt.qcin_49870.0 ./qchem49870/

Process 0 of 1 is on exp-2-27 - thread support 0
initial socket setup ...start
initial socket setup ...done 
now start server 0 ... 
                  Welcome to Q-Chem
     A Quantum Leap Into The Future Of Chemistry


 Q-Chem 5.4, Q-Chem, Inc., Pleasanton, CA (2021)

 License issued to: University of California, San Diego (site)

 E. Epifanovsky,  A. T. B. Gilbert,  Xintian Feng,  Joonho Lee,  Yuezhi Mao,  
 N. Mardirossian,  P. Pokhilko,  A. White,  M. Wormit,  M. P. Coons,  
 A. L. Dempwolff,  Zhengting Gan,  D. Hait,  P. R. Horn,  L. D. Jacobson,  
 I. Kaliman,  J. Kussmann,  A. W. Lange,  Ka Un Lao,  D. S. Levine,  Jie Liu,  
 S. C. McKenzie,  A. F. Morrison,  K. Nanda,  F. Plasser,  D. R. Rehn,  
 M. L. Vidal,  Zhi-Qiang You,  Ying Zhu,  B. Alam,  B. Albrecht,  
 A. Aldossary,  E. Alguire,  J. H. Andersen,  D. Barton,  K. Begam,  A. Behn,  
 Y. A. Bernard,  E. J. Berquist,  H. Burton,  A. Carreras,  K. Carter-Fenk,  
 R. Chakraborty,  A. D. Chien,  K. D. Closser,  V. Cofer-Shabica,  
 S. Dasgupta,  Jia Deng,  M. de Wergifosse,  M. Diedenhofen,  Hainam Do,  
 S. Ehlert,  Po-Tung Fang,  S. Fatehi,  Qingguo Feng,  J. Gayvert,  
 Qinghui Ge,  G. Gidofalvi,  M. Goldey,  J. Gomes,  C. Gonzalez-Espinoza,  
 S. Gulania,  A. Gunina,  M. W. D. Hanson-Heine,  P. H. P. Harbach,  
 A. W. Hauser,  M. F. Herbst,  M. Hernandez Vera,  M. Hodecker,  
 Z. C. Holden,  S. Houck,  Xunkun Huang,  Kerwin Hui,  B. C. Huynh,  
 M. Ivanov,  Hyunjun Ji,  Hanjie Jiang,  B. Kaduk,  S. Kaehler,  
 K. Khistyaev,  Jaehoon Kim,  P. Klunzinger,  Z. Koczor-Benda,  
 Joong Hoon Koh,  D. Kosenkov,  L. Koulias,  T. Kowalczyk,  C. M. Krauter,  
 K. Kue,  A. Kunitsa,  T. Kus,  A. Landau,  K. V. Lawler,  D. Lefrancois,  
 S. Lehtola,  Rain Li,  Yi-Pei Li,  Jiashu Liang,  M. Liebenthal,  
 Hung-Hsuan Lin,  You-Sheng Lin,  Fenglai Liu,  Kuan-Yu Liu,  
 M. Loipersberger,  A. Luenser,  A. Manjanath,  P. Manohar,  E. Mansoor,  
 S. F. Manzer,  Shan-Ping Mao,  A. V. Marenich,  T. Markovich,  S. Mason,  
 S. A. Maurer,  P. F. McLaughlin,  M. F. S. J. Menger,  J.-M. Mewes,  
 S. A. Mewes,  P. Morgante,  J. W. Mullinax,  T. S. Nguyen-Beck,  
 K. J. Oosterbaan,  G. Paran,  Alexander C. Paul,  Suranjan K. Paul,  
 F. Pavosevic,  Zheng Pei,  S. Prager,  E. I. Proynov,  E. Ramos,  B. Rana,  
 A. E. Rask,  A. Rettig,  R. M. Richard,  F. Rob,  E. Rossomme,  T. Scheele,  
 M. Scheurer,  M. Schneider,  N. Sergueev,  S. M. Sharada,  W. Skomorowski,  
 D. W. Small,  C. J. Stein,  Yu-Chuan Su,  E. J. Sundstrom,  Zhen Tao,  
 J. Thirman,  T. Tsuchimochi,  N. M. Tubman,  S. P. Veccham,  O. Vydrov,  
 J. Wenzel,  J. Witte,  A. Yamada,  Kun Yao,  S. Yeganeh,  S. R. Yost,  
 A. Zech,  Igor Ying Zhang,  Xing Zhang,  Yu Zhang,  D. Zuev,  
 A. Aspuru-Guzik,  A. T. Bell,  N. A. Besley,  K. B. Bravaya,  B. R. Brooks,  
 D. Casanova,  Jeng-Da Chai,  S. Coriani,  C. J. Cramer,  
 A. E. DePrince, III,  R. A. DiStasio Jr.,  A. Dreuw,  B. D. Dunietz,  
 T. R. Furlani,  W. A. Goddard III,  S. Grimme,  S. Hammes-Schiffer,  
 T. Head-Gordon,  W. J. Hehre,  Chao-Ping Hsu,  T.-C. Jagau,  Yousung Jung,  
 A. Klamt,  Jing Kong,  D. S. Lambrecht,  WanZhen Liang,  N. J. Mayhall,  
 C. W. McCurdy,  J. B. Neaton,  C. Ochsenfeld,  J. A. Parkhill,  R. Peverati,  
 V. A. Rassolov,  Yihan Shao,  L. V. Slipchenko,  T. Stauch,  R. P. Steele,  
 J. E. Subotnik,  A. J. W. Thom,  A. Tkatchenko,  D. G. Truhlar,  
 T. Van Voorhis,  T. A. Wesolowski,  K. B. Whaley,  H. L. Woodcock III,  
 P. M. Zimmerman,  S. Faraji,  P. M. W. Gill,  M. Head-Gordon,  
 J. M. Herbert,  A. I. Krylov

 Contributors to earlier versions of Q-Chem not listed above: 
 R. D. Adamson,  B. Austin,  R. Baer,  J. Baker,  G. J. O. Beran,  
 K. Brandhorst,  S. T. Brown,  E. F. C. Byrd,  A. K. Chakraborty,  
 G. K. L. Chan,  Chun-Min Chang,  Yunqing Chen,  C.-L. Cheng,  
 Siu Hung Chien,  D. M. Chipman,  D. L. Crittenden,  H. Dachsel,  
 R. J. Doerksen,  A. D. Dutoi,  R. G. Edgar,  J. Fosso-Tande,  
 L. Fusti-Molnar,  D. Ghosh,  A. Ghysels,  A. Golubeva-Zadorozhnaya,  
 J. Gonthier,  M. S. Gordon,  S. R. Gwaltney,  G. Hawkins,  J. E. Herr,  
 A. Heyden,  S. Hirata,  E. G. Hohenstein,  G. Kedziora,  F. J. Keil,  
 C. Kelley,  Jihan Kim,  R. A. King,  R. Z. Khaliullin,  P. P. Korambath,  
 W. Kurlancheek,  A. Laurent,  A. M. Lee,  M. S. Lee,  S. V. Levchenko,  
 Ching Yeh Lin,  D. Liotard,  E. Livshits,  R. C. Lochan,  I. Lotan,  
 L. A. Martinez-Martinez,  P. E. Maslen,  N. Nair,  D. P. O'Neill,  
 D. Neuhauser,  E. Neuscamman,  C. M. Oana,  R. Olivares-Amaya,  R. Olson,  
 T. M. Perrine,  B. Peters,  P. A. Pieniazek,  A. Prociuk,  Y. M. Rhee,  
 J. Ritchie,  M. A. Rohrdanz,  E. Rosta,  N. J. Russ,  H. F. Schaefer III,  
 M. W. Schmidt,  N. E. Schultz,  S. Sharma,  N. Shenvi,  C. D. Sherrill,  
 A. C. Simmonett,  A. Sodt,  T. Stein,  D. Stuck,  K. S. Thanthiriwatte,  
 V. Vanovschi,  L. Vogt,  Tao Wang,  A. Warshel,  M. A. Watson,  
 C. F. Williams,  Q. Wu,  X. Xu,  Jun Yang,  W. Zhang,  Yan Zhao

 Please cite Q-Chem as follows:
 Y. Shao et al., Mol. Phys. 113, 184-215 (2015)
 DOI: 10.1080/00268976.2014.952696

 Q-Chem 5.4.0 for Intel X86 EM64T Linux

 Parts of Q-Chem use Armadillo 9.800.1 (Horizon Scraper).
 http://arma.sourceforge.net/

 Q-Chem begins on Sun Sep 24 18:04:12 2023  

 Host: 
0

     Scratch files written to ./qchem49870//
 May1621 |scratch|qcdevops|jenkins|workspace|build_RNUM    
 Parallel job on  1  processors
 Processing $rem in /cm/shared/apps/spack/cpu/opt/spack/linux-centos8-zen2/gcc-10.2.0/qchem-5.4-akfmr7b3t57bfs6qan3padb2wnb2i7cl/config/preferences:
 Processing $rem in /home/rramji/.qchemrc:
 Symmetry turned off for PCM/SM12/SMD calculation
 Core orbitals will be frozen

 Checking the input file for inconsistencies... 	...done.

 Q-Chem warning in module forms1/BasisType.C, line 2236:

 You are not using the predefined 5D/6D in this basis set.


--------------------------------------------------------------
User input:
--------------------------------------------------------------
$molecule
0 1
C	0.208886	-8.519741	-0.174379
C	-0.472151	-7.635967	0.650052
S	1.193717	-7.651740	-1.377058
C	-0.225125	-6.261894	0.353105
H	-1.141594	-7.954738	1.458961
C	0.692811	-6.079985	-0.740583
C	1.039773	-4.798382	-1.195546
C	-0.817634	-5.153542	1.023267
C	-0.473754	-3.869626	0.565262
C	0.447350	-3.688927	-0.527745
O	-1.644483	-5.481075	2.054917
O	1.869424	-4.479871	-2.232592
C	2.939466	-5.356026	-2.565470
H	3.601405	-4.790496	-3.248608
H	2.587892	-6.268513	-3.094885
H	3.516052	-5.658187	-1.664539
C	-2.608813	-4.546999	2.524564
H	-3.270661	-5.107564	3.211568
H	-3.216646	-4.131473	1.692342
H	-2.141184	-3.712085	3.090211
C	0.690319	-2.314326	-0.823402
S	-0.985511	-2.295487	1.194935
C	0.000000	-1.435180	0.000000
H	1.361286	-1.993211	-1.630024
H	0.203444	-9.615985	-0.171719
C	0.000000	0.000000	0.000000
S	0.002233	0.899428	1.510732
C	0.001157	2.474749	0.727629
C	-0.000030	0.908223	-1.064665
C	-0.001545	2.297013	-0.678287
C	0.001624	0.841837	-2.486150
C	0.001494	2.106670	-3.106916
S	-0.001841	3.354171	-1.965735
C	0.006168	2.361146	-4.559972
O	0.009152	1.427646	-5.350277
O	0.009405	3.644337	-5.004375
F	0.005539	-0.272288	-3.246290
C	0.019554	4.003038	-6.334976
H	0.020155	5.108000	-6.370268
H	-0.871409	3.613681	-6.875609
H	0.918470	3.613062	-6.861878
H	0.001222	3.394771	1.321510
$end

$rem
JOBTYPE		SP
EXCHANGE	HF
CORRELATION	pRIMP2
BASIS		cc-pvtz
METHOD		rimp2
AUX_BASIS	rimp2-cc-pvtz
SOLVENT_METHOD	PCM
PURECART	11111
SYMMETRY	false
MEM_TOTAL	110000
SCF_CONVERGENCE = 6
THRESH=10
GUI = 2
$end



$solvent
dielectric 4.90
$end
--------------------------------------------------------------
 ----------------------------------------------------------------
             Standard Nuclear Orientation (Angstroms)
    I     Atom           X                Y                Z
 ----------------------------------------------------------------
    1      C       0.2088860000    -8.5197410000    -0.1743790000
    2      C      -0.4721510000    -7.6359670000     0.6500520000
    3      S       1.1937170000    -7.6517400000    -1.3770580000
    4      C      -0.2251250000    -6.2618940000     0.3531050000
    5      H      -1.1415940000    -7.9547380000     1.4589610000
    6      C       0.6928110000    -6.0799850000    -0.7405830000
    7      C       1.0397730000    -4.7983820000    -1.1955460000
    8      C      -0.8176340000    -5.1535420000     1.0232670000
    9      C      -0.4737540000    -3.8696260000     0.5652620000
   10      C       0.4473500000    -3.6889270000    -0.5277450000
   11      O      -1.6444830000    -5.4810750000     2.0549170000
   12      O       1.8694240000    -4.4798710000    -2.2325920000
   13      C       2.9394660000    -5.3560260000    -2.5654700000
   14      H       3.6014050000    -4.7904960000    -3.2486080000
   15      H       2.5878920000    -6.2685130000    -3.0948850000
   16      H       3.5160520000    -5.6581870000    -1.6645390000
   17      C      -2.6088130000    -4.5469990000     2.5245640000
   18      H      -3.2706610000    -5.1075640000     3.2115680000
   19      H      -3.2166460000    -4.1314730000     1.6923420000
   20      H      -2.1411840000    -3.7120850000     3.0902110000
   21      C       0.6903190000    -2.3143260000    -0.8234020000
   22      S      -0.9855110000    -2.2954870000     1.1949350000
   23      C       0.0000000000    -1.4351800000     0.0000000000
   24      H       1.3612860000    -1.9932110000    -1.6300240000
   25      H       0.2034440000    -9.6159850000    -0.1717190000
   26      C       0.0000000000     0.0000000000     0.0000000000
   27      S       0.0022330000     0.8994280000     1.5107320000
   28      C       0.0011570000     2.4747490000     0.7276290000
   29      C      -0.0000300000     0.9082230000    -1.0646650000
   30      C      -0.0015450000     2.2970130000    -0.6782870000
   31      C       0.0016240000     0.8418370000    -2.4861500000
   32      C       0.0014940000     2.1066700000    -3.1069160000
   33      S      -0.0018410000     3.3541710000    -1.9657350000
   34      C       0.0061680000     2.3611460000    -4.5599720000
   35      O       0.0091520000     1.4276460000    -5.3502770000
   36      O       0.0094050000     3.6443370000    -5.0043750000
   37      F       0.0055390000    -0.2722880000    -3.2462900000
   38      C       0.0195540000     4.0030380000    -6.3349760000
   39      H       0.0201550000     5.1080000000    -6.3702680000
   40      H      -0.8714090000     3.6136810000    -6.8756090000
   41      H       0.9184700000     3.6130620000    -6.8618780000
   42      H       0.0012220000     3.3947710000     1.3215100000
 ----------------------------------------------------------------
 Nuclear Repulsion Energy =        3301.51487361 hartrees
 There are      119 alpha and      119 beta electrons
 Requested basis set is cc-pVTZ
 There are 376 shells and 1068 basis functions

 Total QAlloc Memory Limit 110000 MB
 Mega-Array Size       188 MB
 MEM_STATIC part       192 MB
 Discretize the solute cavity surface with Lebedev spheres
	Using 110 Lebedev grid points for each H atom
	Using 194 Lebedev grid points for other atoms
	Atomic van der Waals radii will be scaled by 1.20
 Remove points where switching function is < 1.0e-08
 Keep 2893 surface tesserae and discard 4163 interior tesserae
 Molecular Surface Area = 438.120 Angst**2
 Requested basis set is rimp2-cc-pVTZ
 There are 833 shells and 2903 basis functions
 A cutoff of  1.0D-10 yielded  31204 shell pairs
 There are    239994 function pairs (    311718 Cartesian)
 Smallest overlap matrix eigenvalue = 2.19E-05

 Scale SEOQF with 1.000000e-01/1.000000e-02/1.000000e-02

 Standard Electronic Orientation quadrupole field applied
 Nucleus-field energy     =     0.0000000246 hartrees
 Guess from superposition of atomic densities
 Warning:  Energy on first SCF cycle will be non-variational
 SAD guess density has 238.000000 electrons

 -----------------------------------------------------------------------
  General SCF calculation program by
  Eric Jon Sundstrom, Paul Horn, Yuezhi Mao, Dmitri Zuev, Alec White,
  David Stuck, Shaama M.S., Shane Yost, Joonho Lee, David Small,
  Daniel Levine, Susi Lehtola, Hugh Burton, Evgeny Epifanovsky,
  Bang C. Huynh
 -----------------------------------------------------------------------
 Hartree-Fock
 using 64 threads for integral computing
 -------------------------------------------------------
 OpenMP Integral computing Module                
 Release: version 1.0, May 2013, Q-Chem Inc. Pittsburgh 
 -------------------------------------------------------
 A restricted SCF calculation will be
 performed using DIIS
 SCF converges when DIIS error is below 1.0e-06
 ---------------------------------------
  Cycle       Energy         DIIS error
 ---------------------------------------
    1   -2765.5358475231      1.77e-02  
    2   -2753.8610648814      1.57e-03  
    3   -2754.2012343846      8.82e-04  
    4   -2754.2855933984      2.54e-04  
    5   -2754.2972290981      6.83e-05  
    6   -2754.2983140094      2.39e-05  
    7   -2754.2985555712      1.15e-05  
    8   -2754.2986349397      4.43e-06  
    9   -2754.2986504936      1.88e-06  
   10   -2754.2986526323      7.80e-07  Convergence criterion met
 ---------------------------------------
 SCF time:   CPU 6364.38s  wall 234.00s 

************** Final PCM Free Energy Summary **************
 G_electrostatic  =      -0.01967555 hartree =     -12.34659679 kcal/mol
 G_cavitation     =       0.00000000 hartree =       0.00000000 kcal/mol
 G_dispersion     =       0.00000000 hartree =       0.00000000 kcal/mol
 G_repulsion      =       0.00000000 hartree =       0.00000000 kcal/mol
 --------------------------------------------------
 Non-electrostatic Free Energy =       0.00000000 hartree =       0.00000000 kcal/mol
 Total                         =      -0.01967555 hartree =     -12.34659679 kcal/mol
 --------------------------------------------------
 SCF Energy (H0 + V/2)                       =   -2754.29865263 
 Solute Internal Energy (H0)                 =   -2754.27897708 
 Total Free Energy (H0 + V/2 + non-elec)     =   -2754.29865263 hartree
                                             = -1728348.49048930 kcal/mol
***********************************************************

 SCF   energy in the final basis set =    -2754.2986526323
 Total energy in the final basis set =    -2754.2986526323


 --------------------------------------------------------------
  Generalized many-body perturbation theory program
  by Joonho Lee, Fazle Rob, Xintian Feng, Evgeny Epifanovsky

 No regularization used 
 (reg. param. = 0.0000e+00)
  (P|Q)^-1/2 Time:  CPU 203.37 s  wall 3.64 s

 In RI-MP2 calculation: 
 # of frozen core orbitals: 45

 Components of the RIMP2 correlation energy:
        aaaa    correlation energy =        -0.6708516900 a.u.
        abab    correlation energy =        -3.7114683531 a.u.
        bbbb    correlation energy =        -0.6708516900 a.u.
        non-Brillouin singles      =        -0.0000000000 a.u.
        total same-spin energy     =        -1.3417033800 a.u.
        total opposite-spin energy =        -3.7114683531 a.u.

 Total  RIMP2   correlation energy =        -5.0531717331 a.u.
        RIMP2         total energy =     -2759.3518243654 a.u.

 RI-MP2 Energy Time:  CPU 3759.73 s  wall 62.25 s
 
 --------------------------------------------------------------
 
                    Orbital Energies (a.u.)
 --------------------------------------------------------------
 
 Alpha MOs
 -- Occupied --
-92.0161 -91.9943 -91.9918 -91.9870 -26.3345 -20.6116 -20.5931 -20.5918
-20.5492 -11.4096 -11.3776 -11.3202 -11.3194 -11.3132 -11.2968 -11.2959
-11.2958 -11.2922 -11.2882 -11.2879 -11.2878 -11.2860 -11.2848 -11.2814
-11.2807 -11.2623 -11.2604 -11.2596 -11.2505  -9.0144  -8.9983  -8.9922
 -8.9869  -6.6951  -6.6946  -6.6941  -6.6796  -6.6789  -6.6776  -6.6732
 -6.6725  -6.6715  -6.6679  -6.6673  -6.6664  -1.6476  -1.4713  -1.4172
 -1.4146  -1.3665  -1.2332  -1.1972  -1.1694  -1.1421  -1.0848  -1.0531
 -1.0476  -1.0275  -1.0035  -0.9939  -0.9716  -0.9617  -0.9510  -0.9385
 -0.8970  -0.8690  -0.8516  -0.8042  -0.7939  -0.7884  -0.7727  -0.7697
 -0.7583  -0.7332  -0.7189  -0.7157  -0.7020  -0.6887  -0.6838  -0.6781
 -0.6711  -0.6615  -0.6597  -0.6529  -0.6301  -0.6205  -0.6169  -0.6059
 -0.6013  -0.5937  -0.5868  -0.5762  -0.5706  -0.5636  -0.5530  -0.5497
 -0.5372  -0.5263  -0.5258  -0.5171  -0.5156  -0.5085  -0.5041  -0.4969
 -0.4890  -0.4837  -0.4775  -0.4693  -0.4617  -0.4610  -0.4596  -0.4190
 -0.3979  -0.3869  -0.3590  -0.3502  -0.3231  -0.2855  -0.2520
 -- Virtual --
  0.0170   0.0743   0.1145   0.1236   0.1348   0.1443   0.1501   0.1552
  0.1558   0.1604   0.1642   0.1801   0.1845   0.1861   0.1889   0.1948
  0.2032   0.2061   0.2088   0.2172   0.2204   0.2217   0.2234   0.2311
  0.2327   0.2393   0.2464   0.2532   0.2608   0.2680   0.2736   0.2829
  0.2979   0.3083   0.3206   0.3326   0.3377   0.3418   0.3475   0.3499
  0.3536   0.3555   0.3695   0.3729   0.3763   0.3806   0.3808   0.3853
  0.3874   0.3927   0.3990   0.4072   0.4089   0.4164   0.4203   0.4226
  0.4313   0.4368   0.4405   0.4423   0.4483   0.4520   0.4543   0.4592
  0.4609   0.4647   0.4682   0.4734   0.4794   0.4833   0.4873   0.4898
  0.4993   0.5009   0.5030   0.5057   0.5095   0.5154   0.5222   0.5233
  0.5267   0.5339   0.5360   0.5397   0.5463   0.5485   0.5512   0.5532
  0.5569   0.5587   0.5622   0.5682   0.5697   0.5725   0.5768   0.5805
  0.5854   0.5890   0.5932   0.5965   0.5982   0.6054   0.6083   0.6127
  0.6154   0.6180   0.6197   0.6241   0.6255   0.6282   0.6306   0.6371
  0.6379   0.6423   0.6437   0.6490   0.6526   0.6551   0.6579   0.6670
  0.6697   0.6773   0.6803   0.6852   0.6904   0.6972   0.6997   0.7067
  0.7102   0.7165   0.7183   0.7233   0.7370   0.7400   0.7526   0.7537
  0.7586   0.7643   0.7754   0.7767   0.7853   0.7909   0.7937   0.7973
  0.8032   0.8077   0.8143   0.8197   0.8246   0.8293   0.8338   0.8424
  0.8510   0.8563   0.8608   0.8710   0.8745   0.8836   0.8917   0.8980
  0.9015   0.9059   0.9079   0.9128   0.9182   0.9196   0.9223   0.9276
  0.9317   0.9358   0.9402   0.9444   0.9553   0.9585   0.9632   0.9655
  0.9744   0.9811   0.9839   0.9868   0.9941   0.9952   0.9975   1.0014
  1.0046   1.0107   1.0146   1.0189   1.0234   1.0308   1.0331   1.0405
  1.0423   1.0478   1.0588   1.0643   1.0679   1.0746   1.0747   1.0802
  1.0840   1.0881   1.0920   1.1009   1.1024   1.1059   1.1083   1.1103
  1.1205   1.1289   1.1341   1.1397   1.1468   1.1490   1.1523   1.1530
  1.1669   1.1697   1.1767   1.1826   1.1840   1.1861   1.1884   1.1922
  1.1969   1.2060   1.2094   1.2168   1.2185   1.2199   1.2235   1.2306
  1.2334   1.2415   1.2448   1.2523   1.2610   1.2696   1.2706   1.2742
  1.2785   1.2797   1.2907   1.3014   1.3069   1.3142   1.3200   1.3250
  1.3270   1.3400   1.3441   1.3463   1.3527   1.3574   1.3609   1.3709
  1.3802   1.3841   1.3917   1.3945   1.4041   1.4092   1.4113   1.4256
  1.4338   1.4437   1.4455   1.4574   1.4645   1.4780   1.4828   1.4904
  1.4940   1.4995   1.5048   1.5108   1.5126   1.5195   1.5231   1.5294
  1.5320   1.5373   1.5387   1.5429   1.5492   1.5589   1.5638   1.5670
  1.5786   1.5832   1.5924   1.5953   1.6023   1.6083   1.6255   1.6322
  1.6443   1.6486   1.6546   1.6596   1.6625   1.6663   1.6766   1.6842
  1.6857   1.6907   1.6976   1.7105   1.7233   1.7331   1.7351   1.7523
  1.7593   1.7724   1.7772   1.7838   1.7868   1.7943   1.8115   1.8244
  1.8263   1.8327   1.8410   1.8442   1.8551   1.8644   1.8664   1.8695
  1.8743   1.8883   1.8919   1.9022   1.9125   1.9208   1.9235   1.9378
  1.9388   1.9507   1.9525   1.9574   1.9653   1.9683   1.9773   1.9806
  2.0000   2.0095   2.0201   2.0267   2.0364   2.0444   2.0486   2.0637
  2.0769   2.0829   2.0962   2.1028   2.1136   2.1259   2.1356   2.1464
  2.1526   2.1579   2.1591   2.1657   2.1756   2.1782   2.1876   2.1934
  2.1971   2.2006   2.2121   2.2189   2.2266   2.2333   2.2403   2.2485
  2.2533   2.2544   2.2635   2.2702   2.2754   2.2812   2.2895   2.3034
  2.3058   2.3139   2.3194   2.3277   2.3372   2.3449   2.3537   2.3641
  2.3723   2.3826   2.3846   2.3886   2.4037   2.4188   2.4236   2.4286
  2.4364   2.4439   2.4474   2.4641   2.4663   2.4772   2.4870   2.4937
  2.5030   2.5085   2.5242   2.5295   2.5360   2.5470   2.5552   2.5655
  2.5716   2.5821   2.5877   2.5945   2.6134   2.6170   2.6185   2.6207
  2.6351   2.6364   2.6373   2.6436   2.6517   2.6582   2.6705   2.6727
  2.6817   2.6920   2.6939   2.6970   2.7013   2.7055   2.7153   2.7223
  2.7302   2.7345   2.7363   2.7437   2.7471   2.7529   2.7574   2.7673
  2.7726   2.7878   2.7911   2.8013   2.8050   2.8129   2.8174   2.8232
  2.8259   2.8345   2.8415   2.8470   2.8496   2.8613   2.8719   2.8751
  2.8786   2.8797   2.8903   2.8967   2.9030   2.9141   2.9246   2.9323
  2.9426   2.9570   2.9606   2.9689   2.9775   2.9815   2.9869   3.0038
  3.0120   3.0129   3.0249   3.0314   3.0328   3.0404   3.0430   3.0448
  3.0503   3.0601   3.0699   3.0815   3.0907   3.0947   3.0983   3.1014
  3.1061   3.1091   3.1132   3.1170   3.1229   3.1380   3.1415   3.1492
  3.1529   3.1560   3.1644   3.1645   3.1694   3.1735   3.1791   3.1862
  3.1886   3.1985   3.2026   3.2084   3.2148   3.2166   3.2232   3.2305
  3.2403   3.2435   3.2460   3.2513   3.2547   3.2655   3.2669   3.2694
  3.2756   3.2795   3.2834   3.2858   3.2890   3.2905   3.2958   3.3070
  3.3081   3.3158   3.3167   3.3213   3.3313   3.3364   3.3396   3.3430
  3.3498   3.3527   3.3567   3.3578   3.3624   3.3636   3.3679   3.3770
  3.3815   3.3875   3.3891   3.3902   3.3929   3.3989   3.4023   3.4178
  3.4210   3.4270   3.4348   3.4375   3.4416   3.4445   3.4533   3.4555
  3.4568   3.4642   3.4693   3.4739   3.4774   3.4864   3.4927   3.4978
  3.5050   3.5097   3.5168   3.5210   3.5235   3.5256   3.5334   3.5420
  3.5490   3.5541   3.5604   3.5673   3.5723   3.5745   3.5792   3.5835
  3.5853   3.5918   3.5989   3.5999   3.6041   3.6093   3.6144   3.6271
  3.6274   3.6342   3.6375   3.6477   3.6489   3.6531   3.6557   3.6611
  3.6637   3.6679   3.6765   3.6793   3.6842   3.6892   3.6916   3.6926
  3.7000   3.7066   3.7103   3.7169   3.7219   3.7276   3.7314   3.7354
  3.7432   3.7468   3.7501   3.7588   3.7655   3.7662   3.7790   3.7806
  3.7906   3.7912   3.7984   3.8136   3.8192   3.8224   3.8276   3.8305
  3.8379   3.8413   3.8475   3.8581   3.8615   3.8662   3.8692   3.8734
  3.8761   3.8829   3.8934   3.9048   3.9080   3.9153   3.9209   3.9293
  3.9348   3.9438   3.9535   3.9557   3.9646   3.9731   3.9797   3.9849
  3.9868   3.9985   4.0054   4.0107   4.0222   4.0362   4.0372   4.0405
  4.0538   4.0582   4.0592   4.0650   4.0719   4.0823   4.0891   4.0908
  4.0962   4.1000   4.1147   4.1248   4.1374   4.1400   4.1471   4.1506
  4.1613   4.1675   4.1729   4.1746   4.1864   4.1879   4.1946   4.2017
  4.2086   4.2118   4.2363   4.2396   4.2440   4.2613   4.2745   4.2764
  4.2883   4.2969   4.3067   4.3135   4.3295   4.3389   4.3442   4.3482
  4.3538   4.3655   4.3702   4.3770   4.3778   4.3903   4.3966   4.4011
  4.4078   4.4111   4.4181   4.4257   4.4304   4.4355   4.4424   4.4537
  4.4578   4.4714   4.4766   4.4864   4.4943   4.4978   4.5026   4.5161
  4.5291   4.5389   4.5424   4.5542   4.5573   4.5698   4.5834   4.6003
  4.6034   4.6129   4.6217   4.6300   4.6316   4.6419   4.6443   4.6539
  4.6564   4.6682   4.6747   4.6813   4.6878   4.7024   4.7198   4.7264
  4.7377   4.7468   4.7549   4.7570   4.7744   4.7905   4.7966   4.8090
  4.8226   4.8307   4.8363   4.8494   4.8765   4.8808   4.9140   4.9169
  4.9437   4.9452   4.9588   4.9642   4.9678   4.9814   4.9969   5.0034
  5.0082   5.0117   5.0181   5.0412   5.0447   5.0590   5.0731   5.0761
  5.0857   5.1066   5.1479   5.1578   5.1717   5.1743   5.1917   5.1993
  5.2122   5.2162   5.2230   5.2464   5.2546   5.2595   5.2797   5.2990
  5.3102   5.3112   5.3226   5.3330   5.3444   5.3521   5.3556   5.3705
  5.3738   5.3827   5.3976   5.4009   5.4276   5.4403   5.4630   5.4687
  5.4734   5.4759   5.5008   5.5064   5.5136   5.5216   5.5530   5.5639
  5.5751   5.5830   5.5896   5.6056   5.6184   5.6336   5.6419   5.7058
  5.7190   5.7380   5.7678   5.8013   5.8146   5.8330   5.8539   5.8569
  5.8734   5.8828   5.9538   5.9704   5.9714   5.9820   6.0033   6.0592
  6.0709   6.1042   6.1304   6.1340   6.1692   6.1720   6.1845   6.1866
  6.2420   6.2466   6.2705   6.2810   6.3029   6.3090   6.3173   6.3877
  6.4416   6.4515   6.5009   6.5421   6.5536   6.5570   6.5671   6.6541
  6.6743   6.6774   6.7134   6.7414   6.7437   6.8024   6.8472   6.8612
  6.8855   6.8915   6.9928   7.1185   7.1383   7.1789   7.2122   7.2149
  7.2337   7.3194   7.3273   7.3322   7.3739   7.3766   7.4299   7.4631
  7.4778   7.4864   7.4886   7.5209   7.5501   7.6158   7.7171   7.7697
  7.7961   7.8322   7.9067   7.9213   7.9476   8.0070   8.0951   8.1854
  8.6619   8.9336   9.0131   9.3658   9.5019   9.6964  10.1881  10.7026
 11.2503  11.4191  11.9268  11.9869  12.1295  12.2262  12.3832  12.5802
 12.6858  12.7790  12.9301  13.2306  13.2695  13.5705  13.8458  13.8951
 13.9077  14.0333  14.1686  14.7245  15.2019
 --------------------------------------------------------------
 
          Ground-State Mulliken Net Atomic Charges

     Atom                 Charge (a.u.)
  ----------------------------------------
      1 C                    -0.186517
      2 C                    -0.254329
      3 S                    -0.020104
      4 C                    -0.013049
      5 H                     0.196571
      6 C                    -0.029200
      7 C                     0.248261
      8 C                     0.238929
      9 C                    -0.042730
     10 C                    -0.034825
     11 O                    -0.333157
     12 O                    -0.338351
     13 C                    -0.085969
     14 H                     0.123444
     15 H                     0.091313
     16 H                     0.093862
     17 C                    -0.087402
     18 H                     0.125539
     19 H                     0.095456
     20 H                     0.089430
     21 C                    -0.206345
     22 S                    -0.019030
     23 C                    -0.021793
     24 H                     0.195833
     25 H                     0.206839
     26 C                    -0.022861
     27 S                     0.101968
     28 C                    -0.244400
     29 C                    -0.079611
     30 C                    -0.010483
     31 C                     0.390258
     32 C                    -0.147810
     33 S                     0.035711
     34 C                     0.460704
     35 O                    -0.451589
     36 O                    -0.298103
     37 F                    -0.212603
     38 C                    -0.055030
     39 H                     0.116499
     40 H                     0.084561
     41 H                     0.084260
     42 H                     0.215852
  ----------------------------------------
  Sum of atomic charges =     0.000000

 -----------------------------------------------------------------
                    Cartesian Multipole Moments
 -----------------------------------------------------------------
    Charge (ESU x 10^10)
                 0.0000
    Dipole Moment (Debye)
         X       0.2017      Y       1.1851      Z       3.4418
       Tot       3.6457
    Quadrupole Moments (Debye-Ang)
        XX    -185.4621     XY      -1.4350     YY    -157.0354
        XZ     -12.3415     YZ     -10.9476     ZZ    -197.8814
    Octopole Moments (Debye-Ang^2)
       XXX     -32.4834    XXY     311.0111    XYY       1.0662
       YYY     873.0973    XXZ     182.4609    XYZ      60.8895
       YYZ     132.7742    XZZ     -12.1469    YZZ     463.3263
       ZZZ     585.5185
    Hexadecapole Moments (Debye-Ang^3)
      XXXX   -1304.9460   XXXY     355.5131   XXYY   -3710.2800
      XYYY     294.9495   YYYY  -18517.6043   XXXZ     491.9505
      XXYZ     397.7745   XYYZ    -125.6499   YYYZ     916.6749
      XXZZ   -1281.9403   XYZZ     120.2342   YYZZ   -4241.9271
      XZZZ     522.4397   YZZZ     376.0592   ZZZZ   -6790.2033
 -----------------------------------------------------------------
 Total job time:  301.69s(wall), 10322.72s(cpu) 
 Sun Sep 24 18:09:14 2023

        *************************************************************
        *                                                           *
        *  Thank you very much for using Q-Chem.  Have a nice day.  *
        *                                                           *
        *************************************************************


0 sent ACK to 0 
now end server 0 ... 
cleanup process ... done
remove work dirs ./qchem49870.0 -- ./qchem49870.0
rm -rf ./qchem49870.0
rm -rf ./qchem49870
