You are running Q-Chem version: 5.4.0

#
# job setting
#
local host:  exp-2-27
current dir: /expanse/lustre/projects/csd626/rramji/aromodel/PTB7_fin/Rotation_Test
input file:  fin_bdt_Phi_0_Theta_50_fin_ftt.qcin
output file: 
nprocs     : 1
nthreads   : 64
#
# qchem installation setting
#
QC:          /cm/shared/apps/spack/cpu/opt/spack/linux-centos8-zen2/gcc-10.2.0/qchem-5.4-akfmr7b3t57bfs6qan3padb2wnb2i7cl
QCAUX:       /cm/shared/apps/spack/cpu/opt/spack/linux-centos8-zen2/gcc-10.2.0/qchem-5.4-akfmr7b3t57bfs6qan3padb2wnb2i7cl/qcaux
QCPROG:      /cm/shared/apps/spack/cpu/opt/spack/linux-centos8-zen2/gcc-10.2.0/qchem-5.4-akfmr7b3t57bfs6qan3padb2wnb2i7cl/exe/qcprog.exe
QCPROG_S:    /cm/shared/apps/spack/cpu/opt/spack/linux-centos8-zen2/gcc-10.2.0/qchem-5.4-akfmr7b3t57bfs6qan3padb2wnb2i7cl/exe/qcprog.exe_s
PARALLEL:    -DPARALLEL
QCMPI:       mpich
#
# qchem directory setting
#
qcrun:       qchem36312
QCSCRATCH:   .
QCLOCALSCR:  
QCTMPDIR:    .
QCFILEPREF:  ./qchem36312
QCSAVEDIR:   
workdirs:    ./qchem36312
workdir0:    ./qchem36312
partmpdirs =  
#
# parallel setting
#
QCRSH:           ssh
QCMPI:           mpich
QCMPIRUN:        /cm/shared/apps/spack/cpu/opt/spack/linux-centos8-zen2/gcc-10.2.0/qchem-5.4-akfmr7b3t57bfs6qan3padb2wnb2i7cl/bin/mpi/mpirun_qchem
QCMACHINEFILE:   ./qchem36312/hostfile
exp-2-27

#
# env setting
#
exported envs:   QC QCAUX QCSCRATCH QCRUNNAME QCFILEPREF QCPROG QCPROG_S GUIFILE

Running Job 1 of 1 fin_bdt_Phi_0_Theta_50_fin_ftt.qcin
qchem fin_bdt_Phi_0_Theta_50_fin_ftt.qcin_36312.0 ./qchem36312/ 1
/cm/shared/apps/spack/cpu/opt/spack/linux-centos8-zen2/gcc-10.2.0/qchem-5.4-akfmr7b3t57bfs6qan3padb2wnb2i7cl/bin/mpi/mpirun_qchem -machinefile ./qchem36312/hostfile -np 1 /cm/shared/apps/spack/cpu/opt/spack/linux-centos8-zen2/gcc-10.2.0/qchem-5.4-akfmr7b3t57bfs6qan3padb2wnb2i7cl/exe/qcprog.exe fin_bdt_Phi_0_Theta_50_fin_ftt.qcin_36312.0 ./qchem36312/

Process 0 of 1 is on exp-2-27 - thread support 0
initial socket setup ...start
initial socket setup ...done 
now start server 0 ... 
                  Welcome to Q-Chem
     A Quantum Leap Into The Future Of Chemistry


 Q-Chem 5.4, Q-Chem, Inc., Pleasanton, CA (2021)

 License issued to: University of California, San Diego (site)

 E. Epifanovsky,  A. T. B. Gilbert,  Xintian Feng,  Joonho Lee,  Yuezhi Mao,  
 N. Mardirossian,  P. Pokhilko,  A. White,  M. Wormit,  M. P. Coons,  
 A. L. Dempwolff,  Zhengting Gan,  D. Hait,  P. R. Horn,  L. D. Jacobson,  
 I. Kaliman,  J. Kussmann,  A. W. Lange,  Ka Un Lao,  D. S. Levine,  Jie Liu,  
 S. C. McKenzie,  A. F. Morrison,  K. Nanda,  F. Plasser,  D. R. Rehn,  
 M. L. Vidal,  Zhi-Qiang You,  Ying Zhu,  B. Alam,  B. Albrecht,  
 A. Aldossary,  E. Alguire,  J. H. Andersen,  D. Barton,  K. Begam,  A. Behn,  
 Y. A. Bernard,  E. J. Berquist,  H. Burton,  A. Carreras,  K. Carter-Fenk,  
 R. Chakraborty,  A. D. Chien,  K. D. Closser,  V. Cofer-Shabica,  
 S. Dasgupta,  Jia Deng,  M. de Wergifosse,  M. Diedenhofen,  Hainam Do,  
 S. Ehlert,  Po-Tung Fang,  S. Fatehi,  Qingguo Feng,  J. Gayvert,  
 Qinghui Ge,  G. Gidofalvi,  M. Goldey,  J. Gomes,  C. Gonzalez-Espinoza,  
 S. Gulania,  A. Gunina,  M. W. D. Hanson-Heine,  P. H. P. Harbach,  
 A. W. Hauser,  M. F. Herbst,  M. Hernandez Vera,  M. Hodecker,  
 Z. C. Holden,  S. Houck,  Xunkun Huang,  Kerwin Hui,  B. C. Huynh,  
 M. Ivanov,  Hyunjun Ji,  Hanjie Jiang,  B. Kaduk,  S. Kaehler,  
 K. Khistyaev,  Jaehoon Kim,  P. Klunzinger,  Z. Koczor-Benda,  
 Joong Hoon Koh,  D. Kosenkov,  L. Koulias,  T. Kowalczyk,  C. M. Krauter,  
 K. Kue,  A. Kunitsa,  T. Kus,  A. Landau,  K. V. Lawler,  D. Lefrancois,  
 S. Lehtola,  Rain Li,  Yi-Pei Li,  Jiashu Liang,  M. Liebenthal,  
 Hung-Hsuan Lin,  You-Sheng Lin,  Fenglai Liu,  Kuan-Yu Liu,  
 M. Loipersberger,  A. Luenser,  A. Manjanath,  P. Manohar,  E. Mansoor,  
 S. F. Manzer,  Shan-Ping Mao,  A. V. Marenich,  T. Markovich,  S. Mason,  
 S. A. Maurer,  P. F. McLaughlin,  M. F. S. J. Menger,  J.-M. Mewes,  
 S. A. Mewes,  P. Morgante,  J. W. Mullinax,  T. S. Nguyen-Beck,  
 K. J. Oosterbaan,  G. Paran,  Alexander C. Paul,  Suranjan K. Paul,  
 F. Pavosevic,  Zheng Pei,  S. Prager,  E. I. Proynov,  E. Ramos,  B. Rana,  
 A. E. Rask,  A. Rettig,  R. M. Richard,  F. Rob,  E. Rossomme,  T. Scheele,  
 M. Scheurer,  M. Schneider,  N. Sergueev,  S. M. Sharada,  W. Skomorowski,  
 D. W. Small,  C. J. Stein,  Yu-Chuan Su,  E. J. Sundstrom,  Zhen Tao,  
 J. Thirman,  T. Tsuchimochi,  N. M. Tubman,  S. P. Veccham,  O. Vydrov,  
 J. Wenzel,  J. Witte,  A. Yamada,  Kun Yao,  S. Yeganeh,  S. R. Yost,  
 A. Zech,  Igor Ying Zhang,  Xing Zhang,  Yu Zhang,  D. Zuev,  
 A. Aspuru-Guzik,  A. T. Bell,  N. A. Besley,  K. B. Bravaya,  B. R. Brooks,  
 D. Casanova,  Jeng-Da Chai,  S. Coriani,  C. J. Cramer,  
 A. E. DePrince, III,  R. A. DiStasio Jr.,  A. Dreuw,  B. D. Dunietz,  
 T. R. Furlani,  W. A. Goddard III,  S. Grimme,  S. Hammes-Schiffer,  
 T. Head-Gordon,  W. J. Hehre,  Chao-Ping Hsu,  T.-C. Jagau,  Yousung Jung,  
 A. Klamt,  Jing Kong,  D. S. Lambrecht,  WanZhen Liang,  N. J. Mayhall,  
 C. W. McCurdy,  J. B. Neaton,  C. Ochsenfeld,  J. A. Parkhill,  R. Peverati,  
 V. A. Rassolov,  Yihan Shao,  L. V. Slipchenko,  T. Stauch,  R. P. Steele,  
 J. E. Subotnik,  A. J. W. Thom,  A. Tkatchenko,  D. G. Truhlar,  
 T. Van Voorhis,  T. A. Wesolowski,  K. B. Whaley,  H. L. Woodcock III,  
 P. M. Zimmerman,  S. Faraji,  P. M. W. Gill,  M. Head-Gordon,  
 J. M. Herbert,  A. I. Krylov

 Contributors to earlier versions of Q-Chem not listed above: 
 R. D. Adamson,  B. Austin,  R. Baer,  J. Baker,  G. J. O. Beran,  
 K. Brandhorst,  S. T. Brown,  E. F. C. Byrd,  A. K. Chakraborty,  
 G. K. L. Chan,  Chun-Min Chang,  Yunqing Chen,  C.-L. Cheng,  
 Siu Hung Chien,  D. M. Chipman,  D. L. Crittenden,  H. Dachsel,  
 R. J. Doerksen,  A. D. Dutoi,  R. G. Edgar,  J. Fosso-Tande,  
 L. Fusti-Molnar,  D. Ghosh,  A. Ghysels,  A. Golubeva-Zadorozhnaya,  
 J. Gonthier,  M. S. Gordon,  S. R. Gwaltney,  G. Hawkins,  J. E. Herr,  
 A. Heyden,  S. Hirata,  E. G. Hohenstein,  G. Kedziora,  F. J. Keil,  
 C. Kelley,  Jihan Kim,  R. A. King,  R. Z. Khaliullin,  P. P. Korambath,  
 W. Kurlancheek,  A. Laurent,  A. M. Lee,  M. S. Lee,  S. V. Levchenko,  
 Ching Yeh Lin,  D. Liotard,  E. Livshits,  R. C. Lochan,  I. Lotan,  
 L. A. Martinez-Martinez,  P. E. Maslen,  N. Nair,  D. P. O'Neill,  
 D. Neuhauser,  E. Neuscamman,  C. M. Oana,  R. Olivares-Amaya,  R. Olson,  
 T. M. Perrine,  B. Peters,  P. A. Pieniazek,  A. Prociuk,  Y. M. Rhee,  
 J. Ritchie,  M. A. Rohrdanz,  E. Rosta,  N. J. Russ,  H. F. Schaefer III,  
 M. W. Schmidt,  N. E. Schultz,  S. Sharma,  N. Shenvi,  C. D. Sherrill,  
 A. C. Simmonett,  A. Sodt,  T. Stein,  D. Stuck,  K. S. Thanthiriwatte,  
 V. Vanovschi,  L. Vogt,  Tao Wang,  A. Warshel,  M. A. Watson,  
 C. F. Williams,  Q. Wu,  X. Xu,  Jun Yang,  W. Zhang,  Yan Zhao

 Please cite Q-Chem as follows:
 Y. Shao et al., Mol. Phys. 113, 184-215 (2015)
 DOI: 10.1080/00268976.2014.952696

 Q-Chem 5.4.0 for Intel X86 EM64T Linux

 Parts of Q-Chem use Armadillo 9.800.1 (Horizon Scraper).
 http://arma.sourceforge.net/

 Q-Chem begins on Sun Sep 24 16:36:31 2023  

 Host: 
0

     Scratch files written to ./qchem36312//
 May1621 |scratch|qcdevops|jenkins|workspace|build_RNUM    
 Parallel job on  1  processors
 Processing $rem in /cm/shared/apps/spack/cpu/opt/spack/linux-centos8-zen2/gcc-10.2.0/qchem-5.4-akfmr7b3t57bfs6qan3padb2wnb2i7cl/config/preferences:
 Processing $rem in /home/rramji/.qchemrc:
 Symmetry turned off for PCM/SM12/SMD calculation
 Core orbitals will be frozen

 Checking the input file for inconsistencies... 	...done.

 Q-Chem warning in module forms1/BasisType.C, line 2236:

 You are not using the predefined 5D/6D in this basis set.


--------------------------------------------------------------
User input:
--------------------------------------------------------------
$molecule
0 1
C	-0.235993	-8.519741	0.135457
C	0.577858	-7.635967	-0.558188
S	-1.414705	-7.651740	1.148850
C	0.283020	-6.261894	-0.308648
H	1.377597	-7.954738	-1.238560
C	-0.810887	-6.079985	0.609026
C	-1.231581	-4.798382	0.996828
C	0.982901	-5.153542	-0.865740
C	0.564713	-3.869626	-0.474408
C	-0.532196	-3.688927	0.442046
O	1.976332	-5.481075	-1.738137
O	-2.228709	-4.479871	1.874052
C	-3.340298	-5.356026	2.016062
H	-4.110807	-4.790496	2.573877
H	-3.085998	-6.268513	2.598484
H	-3.751679	-5.658187	1.028695
C	3.007565	-4.546999	-2.033195
H	3.778655	-5.107564	-2.594833
H	3.461650	-4.131473	-1.108067
H	2.645264	-3.712085	-2.671451
C	-0.822814	-2.314326	0.691020
S	1.178037	-2.295487	-1.005649
C	0.000000	-1.435180	0.000000
H	-1.623656	-1.993211	1.368875
H	-0.230172	-9.615985	0.133782
C	0.000000	0.000000	0.000000
S	0.002233	0.899428	1.510732
C	0.001157	2.474749	0.727629
C	-0.000030	0.908223	-1.064665
C	-0.001545	2.297013	-0.678287
C	0.001624	0.841837	-2.486150
C	0.001494	2.106670	-3.106916
S	-0.001841	3.354171	-1.965735
C	0.006168	2.361146	-4.559972
O	0.009152	1.427646	-5.350277
O	0.009405	3.644337	-5.004375
F	0.005539	-0.272288	-3.246290
C	0.019554	4.003038	-6.334976
H	0.020155	5.108000	-6.370268
H	-0.871409	3.613681	-6.875609
H	0.918470	3.613062	-6.861878
H	0.001222	3.394771	1.321510
$end

$rem
JOBTYPE		SP
EXCHANGE	HF
CORRELATION	pRIMP2
BASIS		cc-pvtz
METHOD		rimp2
AUX_BASIS	rimp2-cc-pvtz
SOLVENT_METHOD	PCM
PURECART	11111
SYMMETRY	false
MEM_TOTAL	110000
SCF_CONVERGENCE = 6
THRESH=10
GUI = 2
$end



$solvent
dielectric 4.90
$end
--------------------------------------------------------------
 ----------------------------------------------------------------
             Standard Nuclear Orientation (Angstroms)
    I     Atom           X                Y                Z
 ----------------------------------------------------------------
    1      C      -0.2359930000    -8.5197410000     0.1354570000
    2      C       0.5778580000    -7.6359670000    -0.5581880000
    3      S      -1.4147050000    -7.6517400000     1.1488500000
    4      C       0.2830200000    -6.2618940000    -0.3086480000
    5      H       1.3775970000    -7.9547380000    -1.2385600000
    6      C      -0.8108870000    -6.0799850000     0.6090260000
    7      C      -1.2315810000    -4.7983820000     0.9968280000
    8      C       0.9829010000    -5.1535420000    -0.8657400000
    9      C       0.5647130000    -3.8696260000    -0.4744080000
   10      C      -0.5321960000    -3.6889270000     0.4420460000
   11      O       1.9763320000    -5.4810750000    -1.7381370000
   12      O      -2.2287090000    -4.4798710000     1.8740520000
   13      C      -3.3402980000    -5.3560260000     2.0160620000
   14      H      -4.1108070000    -4.7904960000     2.5738770000
   15      H      -3.0859980000    -6.2685130000     2.5984840000
   16      H      -3.7516790000    -5.6581870000     1.0286950000
   17      C       3.0075650000    -4.5469990000    -2.0331950000
   18      H       3.7786550000    -5.1075640000    -2.5948330000
   19      H       3.4616500000    -4.1314730000    -1.1080670000
   20      H       2.6452640000    -3.7120850000    -2.6714510000
   21      C      -0.8228140000    -2.3143260000     0.6910200000
   22      S       1.1780370000    -2.2954870000    -1.0056490000
   23      C       0.0000000000    -1.4351800000     0.0000000000
   24      H      -1.6236560000    -1.9932110000     1.3688750000
   25      H      -0.2301720000    -9.6159850000     0.1337820000
   26      C       0.0000000000     0.0000000000     0.0000000000
   27      S       0.0022330000     0.8994280000     1.5107320000
   28      C       0.0011570000     2.4747490000     0.7276290000
   29      C      -0.0000300000     0.9082230000    -1.0646650000
   30      C      -0.0015450000     2.2970130000    -0.6782870000
   31      C       0.0016240000     0.8418370000    -2.4861500000
   32      C       0.0014940000     2.1066700000    -3.1069160000
   33      S      -0.0018410000     3.3541710000    -1.9657350000
   34      C       0.0061680000     2.3611460000    -4.5599720000
   35      O       0.0091520000     1.4276460000    -5.3502770000
   36      O       0.0094050000     3.6443370000    -5.0043750000
   37      F       0.0055390000    -0.2722880000    -3.2462900000
   38      C       0.0195540000     4.0030380000    -6.3349760000
   39      H       0.0201550000     5.1080000000    -6.3702680000
   40      H      -0.8714090000     3.6136810000    -6.8756090000
   41      H       0.9184700000     3.6130620000    -6.8618780000
   42      H       0.0012220000     3.3947710000     1.3215100000
 ----------------------------------------------------------------
 Nuclear Repulsion Energy =        3305.79408305 hartrees
 There are      119 alpha and      119 beta electrons
 Requested basis set is cc-pVTZ
 There are 376 shells and 1068 basis functions

 Total QAlloc Memory Limit 110000 MB
 Mega-Array Size       188 MB
 MEM_STATIC part       192 MB
 Discretize the solute cavity surface with Lebedev spheres
	Using 110 Lebedev grid points for each H atom
	Using 194 Lebedev grid points for other atoms
	Atomic van der Waals radii will be scaled by 1.20
 Remove points where switching function is < 1.0e-08
 Keep 2903 surface tesserae and discard 4153 interior tesserae
 Molecular Surface Area = 438.889 Angst**2
 Requested basis set is rimp2-cc-pVTZ
 There are 833 shells and 2903 basis functions
 A cutoff of  1.0D-10 yielded  31106 shell pairs
 There are    239304 function pairs (    310889 Cartesian)
 Smallest overlap matrix eigenvalue = 2.20E-05

 Scale SEOQF with 1.000000e-01/1.000000e-02/1.000000e-02

 Standard Electronic Orientation quadrupole field applied
 Nucleus-field energy     =     0.0000000289 hartrees
 Guess from superposition of atomic densities
 Warning:  Energy on first SCF cycle will be non-variational
 SAD guess density has 238.000000 electrons

 -----------------------------------------------------------------------
  General SCF calculation program by
  Eric Jon Sundstrom, Paul Horn, Yuezhi Mao, Dmitri Zuev, Alec White,
  David Stuck, Shaama M.S., Shane Yost, Joonho Lee, David Small,
  Daniel Levine, Susi Lehtola, Hugh Burton, Evgeny Epifanovsky,
  Bang C. Huynh
 -----------------------------------------------------------------------
 Hartree-Fock
 using 64 threads for integral computing
 -------------------------------------------------------
 OpenMP Integral computing Module                
 Release: version 1.0, May 2013, Q-Chem Inc. Pittsburgh 
 -------------------------------------------------------
 A restricted SCF calculation will be
 performed using DIIS
 SCF converges when DIIS error is below 1.0e-06
 ---------------------------------------
  Cycle       Energy         DIIS error
 ---------------------------------------
    1   -2765.5297793224      1.77e-02  
    2   -2753.8604302343      1.57e-03  
    3   -2754.1996619042      8.84e-04  
    4   -2754.2842187560      2.55e-04  
    5   -2754.2958825892      6.81e-05  
    6   -2754.2969647372      2.37e-05  
    7   -2754.2972069718      1.16e-05  
    8   -2754.2972869727      4.51e-06  
    9   -2754.2973031376      2.00e-06  
   10   -2754.2973054667      8.27e-07  Convergence criterion met
 ---------------------------------------
 SCF time:   CPU 6332.60s  wall 238.00s 

************** Final PCM Free Energy Summary **************
 G_electrostatic  =      -0.01988981 hartree =     -12.48104431 kcal/mol
 G_cavitation     =       0.00000000 hartree =       0.00000000 kcal/mol
 G_dispersion     =       0.00000000 hartree =       0.00000000 kcal/mol
 G_repulsion      =       0.00000000 hartree =       0.00000000 kcal/mol
 --------------------------------------------------
 Non-electrostatic Free Energy =       0.00000000 hartree =       0.00000000 kcal/mol
 Total                         =      -0.01988981 hartree =     -12.48104431 kcal/mol
 --------------------------------------------------
 SCF Energy (H0 + V/2)                       =   -2754.29730547 
 Solute Internal Energy (H0)                 =   -2754.27741566 
 Total Free Energy (H0 + V/2 + non-elec)     =   -2754.29730547 hartree
                                             = -1728347.64513011 kcal/mol
***********************************************************

 SCF   energy in the final basis set =    -2754.2973054667
 Total energy in the final basis set =    -2754.2973054667


 --------------------------------------------------------------
  Generalized many-body perturbation theory program
  by Joonho Lee, Fazle Rob, Xintian Feng, Evgeny Epifanovsky

 No regularization used 
 (reg. param. = 0.0000e+00)
  (P|Q)^-1/2 Time:  CPU 223.61 s  wall 4.06 s

 In RI-MP2 calculation: 
 # of frozen core orbitals: 45

 Components of the RIMP2 correlation energy:
        aaaa    correlation energy =        -0.6708071428 a.u.
        abab    correlation energy =        -3.7116439272 a.u.
        bbbb    correlation energy =        -0.6708071428 a.u.
        non-Brillouin singles      =        -0.0000000000 a.u.
        total same-spin energy     =        -1.3416142855 a.u.
        total opposite-spin energy =        -3.7116439272 a.u.

 Total  RIMP2   correlation energy =        -5.0532582128 a.u.
        RIMP2         total energy =     -2759.3505636794 a.u.

 RI-MP2 Energy Time:  CPU 2973.92 s  wall 50.38 s
 
 --------------------------------------------------------------
 
                    Orbital Energies (a.u.)
 --------------------------------------------------------------
 
 Alpha MOs
 -- Occupied --
-92.0165 -91.9943 -91.9894 -91.9867 -26.3336 -20.6117 -20.5922 -20.5921
-20.5494 -11.4098 -11.3774 -11.3193 -11.3190 -11.3123 -11.2966 -11.2962
-11.2957 -11.2923 -11.2883 -11.2870 -11.2866 -11.2865 -11.2843 -11.2818
-11.2804 -11.2617 -11.2598 -11.2598 -11.2502  -9.0146  -8.9984  -8.9898
 -8.9866  -6.6953  -6.6947  -6.6943  -6.6796  -6.6790  -6.6776  -6.6707
 -6.6700  -6.6690  -6.6676  -6.6670  -6.6661  -1.6469  -1.4714  -1.4163
 -1.4149  -1.3666  -1.2332  -1.1965  -1.1687  -1.1418  -1.0846  -1.0525
 -1.0473  -1.0277  -1.0027  -0.9936  -0.9714  -0.9613  -0.9505  -0.9385
 -0.8961  -0.8689  -0.8514  -0.8074  -0.7911  -0.7877  -0.7748  -0.7656
 -0.7586  -0.7330  -0.7182  -0.7151  -0.7010  -0.6882  -0.6837  -0.6782
 -0.6710  -0.6611  -0.6592  -0.6528  -0.6302  -0.6203  -0.6170  -0.6061
 -0.6017  -0.5941  -0.5859  -0.5755  -0.5695  -0.5656  -0.5573  -0.5524
 -0.5320  -0.5263  -0.5252  -0.5163  -0.5144  -0.5082  -0.5014  -0.4964
 -0.4893  -0.4839  -0.4771  -0.4679  -0.4615  -0.4611  -0.4595  -0.4157
 -0.3976  -0.3869  -0.3583  -0.3499  -0.3206  -0.2858  -0.2542
 -- Virtual --
  0.0203   0.0715   0.1160   0.1246   0.1345   0.1460   0.1492   0.1551
  0.1561   0.1598   0.1688   0.1699   0.1816   0.1843   0.1901   0.1920
  0.2042   0.2054   0.2099   0.2171   0.2200   0.2219   0.2235   0.2296
  0.2337   0.2348   0.2442   0.2545   0.2597   0.2690   0.2726   0.2846
  0.2891   0.3100   0.3211   0.3296   0.3353   0.3411   0.3476   0.3505
  0.3523   0.3596   0.3702   0.3714   0.3772   0.3811   0.3828   0.3854
  0.3891   0.3962   0.4024   0.4069   0.4090   0.4150   0.4175   0.4234
  0.4255   0.4342   0.4415   0.4427   0.4503   0.4511   0.4525   0.4557
  0.4578   0.4679   0.4693   0.4751   0.4770   0.4801   0.4848   0.4902
  0.4934   0.4981   0.5052   0.5087   0.5123   0.5187   0.5215   0.5226
  0.5275   0.5318   0.5354   0.5393   0.5418   0.5466   0.5518   0.5545
  0.5578   0.5585   0.5640   0.5675   0.5698   0.5721   0.5780   0.5815
  0.5857   0.5868   0.5925   0.5973   0.5991   0.6051   0.6054   0.6098
  0.6140   0.6152   0.6190   0.6216   0.6238   0.6255   0.6295   0.6364
  0.6387   0.6414   0.6451   0.6465   0.6503   0.6569   0.6663   0.6697
  0.6738   0.6778   0.6796   0.6869   0.6924   0.6945   0.7004   0.7086
  0.7099   0.7148   0.7192   0.7229   0.7310   0.7429   0.7442   0.7528
  0.7609   0.7678   0.7719   0.7753   0.7844   0.7888   0.7986   0.8000
  0.8058   0.8092   0.8144   0.8197   0.8216   0.8314   0.8379   0.8415
  0.8478   0.8584   0.8618   0.8662   0.8818   0.8823   0.8904   0.8961
  0.8975   0.9040   0.9067   0.9099   0.9107   0.9169   0.9210   0.9286
  0.9304   0.9350   0.9432   0.9462   0.9520   0.9561   0.9619   0.9675
  0.9738   0.9784   0.9789   0.9820   0.9884   0.9966   1.0004   1.0026
  1.0053   1.0116   1.0156   1.0224   1.0267   1.0299   1.0369   1.0409
  1.0430   1.0508   1.0562   1.0633   1.0650   1.0746   1.0755   1.0786
  1.0823   1.0870   1.0909   1.0940   1.1027   1.1056   1.1100   1.1113
  1.1154   1.1250   1.1308   1.1370   1.1441   1.1515   1.1548   1.1574
  1.1655   1.1703   1.1730   1.1811   1.1824   1.1888   1.1928   1.1945
  1.1990   1.2034   1.2101   1.2148   1.2174   1.2187   1.2262   1.2302
  1.2377   1.2459   1.2467   1.2515   1.2599   1.2667   1.2721   1.2748
  1.2785   1.2818   1.2925   1.3020   1.3081   1.3146   1.3210   1.3220
  1.3310   1.3333   1.3414   1.3452   1.3505   1.3582   1.3600   1.3677
  1.3785   1.3813   1.3913   1.3951   1.4067   1.4082   1.4181   1.4250
  1.4263   1.4451   1.4516   1.4617   1.4692   1.4768   1.4841   1.4886
  1.4940   1.5008   1.5020   1.5071   1.5121   1.5149   1.5201   1.5339
  1.5348   1.5384   1.5402   1.5481   1.5520   1.5555   1.5622   1.5661
  1.5678   1.5844   1.5869   1.5949   1.6003   1.6109   1.6230   1.6323
  1.6389   1.6532   1.6582   1.6597   1.6652   1.6695   1.6809   1.6850
  1.6865   1.6953   1.7073   1.7109   1.7120   1.7300   1.7405   1.7520
  1.7592   1.7707   1.7797   1.7844   1.7921   1.7952   1.8106   1.8196
  1.8254   1.8337   1.8384   1.8465   1.8489   1.8627   1.8661   1.8725
  1.8805   1.8878   1.8958   1.9010   1.9046   1.9194   1.9308   1.9335
  1.9384   1.9426   1.9548   1.9575   1.9646   1.9741   1.9845   1.9891
  2.0014   2.0036   2.0181   2.0305   2.0389   2.0417   2.0466   2.0499
  2.0698   2.0831   2.0920   2.1039   2.1133   2.1237   2.1351   2.1459
  2.1531   2.1567   2.1640   2.1658   2.1769   2.1774   2.1890   2.1949
  2.1995   2.2060   2.2108   2.2210   2.2230   2.2283   2.2406   2.2450
  2.2498   2.2530   2.2657   2.2728   2.2779   2.2825   2.2966   2.3064
  2.3123   2.3171   2.3218   2.3300   2.3373   2.3481   2.3542   2.3652
  2.3710   2.3821   2.3882   2.3912   2.3984   2.4135   2.4213   2.4258
  2.4323   2.4416   2.4486   2.4627   2.4698   2.4768   2.4869   2.4922
  2.5077   2.5087   2.5256   2.5297   2.5350   2.5538   2.5614   2.5734
  2.5758   2.5882   2.5929   2.5948   2.6085   2.6146   2.6190   2.6269
  2.6306   2.6357   2.6366   2.6467   2.6580   2.6654   2.6668   2.6718
  2.6783   2.6847   2.6915   2.6996   2.7026   2.7061   2.7097   2.7210
  2.7257   2.7316   2.7356   2.7404   2.7455   2.7462   2.7572   2.7619
  2.7759   2.7804   2.7885   2.7971   2.7994   2.8085   2.8171   2.8205
  2.8291   2.8347   2.8444   2.8500   2.8565   2.8589   2.8699   2.8743
  2.8821   2.8824   2.8844   2.8940   2.9092   2.9113   2.9188   2.9343
  2.9458   2.9538   2.9585   2.9702   2.9763   2.9805   2.9942   3.0058
  3.0091   3.0164   3.0242   3.0306   3.0330   3.0429   3.0438   3.0450
  3.0521   3.0583   3.0691   3.0823   3.0900   3.0929   3.1000   3.1034
  3.1090   3.1130   3.1163   3.1185   3.1300   3.1370   3.1419   3.1488
  3.1503   3.1550   3.1626   3.1658   3.1735   3.1752   3.1798   3.1837
  3.1892   3.1942   3.2052   3.2095   3.2158   3.2180   3.2243   3.2327
  3.2354   3.2396   3.2450   3.2473   3.2528   3.2592   3.2672   3.2709
  3.2734   3.2763   3.2794   3.2887   3.2899   3.2915   3.2960   3.2974
  3.3064   3.3079   3.3230   3.3297   3.3313   3.3397   3.3440   3.3470
  3.3501   3.3547   3.3609   3.3629   3.3641   3.3677   3.3706   3.3750
  3.3778   3.3844   3.3864   3.3934   3.3962   3.4020   3.4069   3.4141
  3.4165   3.4242   3.4336   3.4358   3.4418   3.4438   3.4465   3.4527
  3.4577   3.4663   3.4688   3.4731   3.4786   3.4874   3.4918   3.4986
  3.5013   3.5076   3.5168   3.5176   3.5236   3.5279   3.5337   3.5422
  3.5507   3.5537   3.5580   3.5669   3.5697   3.5731   3.5804   3.5850
  3.5865   3.5882   3.5935   3.5986   3.6026   3.6088   3.6135   3.6197
  3.6271   3.6328   3.6393   3.6511   3.6526   3.6555   3.6569   3.6614
  3.6680   3.6705   3.6757   3.6805   3.6839   3.6882   3.6901   3.6988
  3.7022   3.7045   3.7111   3.7215   3.7269   3.7303   3.7326   3.7367
  3.7425   3.7490   3.7517   3.7607   3.7684   3.7754   3.7765   3.7888
  3.7923   3.7949   3.8010   3.8081   3.8226   3.8235   3.8280   3.8316
  3.8396   3.8429   3.8486   3.8516   3.8577   3.8586   3.8679   3.8750
  3.8818   3.8883   3.8941   3.8996   3.9091   3.9151   3.9217   3.9303
  3.9388   3.9425   3.9454   3.9515   3.9670   3.9701   3.9808   3.9876
  3.9939   4.0046   4.0098   4.0134   4.0210   4.0230   4.0353   4.0412
  4.0453   4.0528   4.0605   4.0661   4.0748   4.0815   4.0837   4.0898
  4.1005   4.1087   4.1156   4.1245   4.1327   4.1448   4.1496   4.1586
  4.1616   4.1714   4.1732   4.1828   4.1863   4.1882   4.1891   4.2018
  4.2092   4.2171   4.2232   4.2367   4.2491   4.2605   4.2720   4.2793
  4.2864   4.2897   4.3092   4.3231   4.3261   4.3336   4.3425   4.3476
  4.3505   4.3539   4.3742   4.3759   4.3772   4.3929   4.3948   4.4025
  4.4105   4.4119   4.4144   4.4205   4.4243   4.4384   4.4439   4.4533
  4.4643   4.4742   4.4842   4.4914   4.4957   4.4973   4.5044   4.5152
  4.5317   4.5333   4.5442   4.5555   4.5574   4.5748   4.5822   4.5887
  4.5992   4.6127   4.6194   4.6266   4.6295   4.6400   4.6438   4.6532
  4.6555   4.6691   4.6712   4.6781   4.6888   4.7045   4.7082   4.7282
  4.7364   4.7421   4.7644   4.7666   4.7781   4.7943   4.8041   4.8060
  4.8197   4.8290   4.8404   4.8589   4.8669   4.9015   4.9122   4.9190
  4.9433   4.9470   4.9573   4.9626   4.9651   4.9823   4.9953   5.0035
  5.0097   5.0121   5.0249   5.0443   5.0494   5.0632   5.0715   5.0800
  5.0976   5.1197   5.1347   5.1553   5.1610   5.1748   5.1865   5.1997
  5.2090   5.2124   5.2214   5.2430   5.2542   5.2594   5.2769   5.2931
  5.3003   5.3073   5.3171   5.3308   5.3384   5.3527   5.3555   5.3601
  5.3730   5.3902   5.3973   5.4022   5.4203   5.4297   5.4630   5.4666
  5.4733   5.4796   5.4935   5.5075   5.5116   5.5272   5.5439   5.5625
  5.5731   5.5848   5.6006   5.6062   5.6182   5.6372   5.6444   5.6719
  5.7185   5.7357   5.7953   5.8012   5.8153   5.8311   5.8546   5.8677
  5.8737   5.8889   5.9242   5.9703   5.9749   5.9875   5.9990   6.0616
  6.0699   6.0885   6.1247   6.1339   6.1665   6.1728   6.1862   6.1910
  6.2349   6.2686   6.2693   6.2745   6.2947   6.3090   6.3206   6.3992
  6.4378   6.4521   6.4842   6.5204   6.5486   6.5559   6.5569   6.6520
  6.6723   6.6773   6.7012   6.7383   6.7433   6.8001   6.8425   6.8610
  6.8830   6.8919   6.9925   7.1190   7.1389   7.1788   7.2117   7.2158
  7.2333   7.3188   7.3271   7.3329   7.3740   7.3772   7.4295   7.4630
  7.4793   7.4872   7.4876   7.5208   7.5502   7.6143   7.7201   7.7704
  7.7964   7.8318   7.9056   7.9190   7.9480   8.0051   8.1076   8.1908
  8.6216   8.9330   9.0110   9.3652   9.5024   9.6990  10.2083  10.7262
 11.2421  11.4068  11.9140  11.9608  12.1283  12.2065  12.3541  12.5764
 12.6567  12.8014  12.9466  13.2340  13.2852  13.5913  13.8459  13.9035
 13.9621  14.0181  14.2525  14.4649  15.1975
 --------------------------------------------------------------
 
          Ground-State Mulliken Net Atomic Charges

     Atom                 Charge (a.u.)
  ----------------------------------------
      1 C                    -0.186933
      2 C                    -0.254092
      3 S                    -0.021956
      4 C                    -0.013476
      5 H                     0.196759
      6 C                    -0.028306
      7 C                     0.246644
      8 C                     0.239912
      9 C                    -0.043538
     10 C                    -0.028484
     11 O                    -0.333226
     12 O                    -0.339894
     13 C                    -0.085765
     14 H                     0.122597
     15 H                     0.091221
     16 H                     0.094545
     17 C                    -0.086857
     18 H                     0.125114
     19 H                     0.094233
     20 H                     0.090921
     21 C                    -0.239887
     22 S                    -0.002740
     23 C                    -0.014654
     24 H                     0.198275
     25 H                     0.206699
     26 C                    -0.006087
     27 S                     0.112823
     28 C                    -0.242791
     29 C                    -0.105848
     30 C                    -0.008594
     31 C                     0.390725
     32 C                    -0.150274
     33 S                     0.036331
     34 C                     0.460452
     35 O                    -0.451188
     36 O                    -0.298023
     37 F                    -0.209947
     38 C                    -0.055017
     39 H                     0.116502
     40 H                     0.084559
     41 H                     0.084289
     42 H                     0.214976
  ----------------------------------------
  Sum of atomic charges =     0.000000

 -----------------------------------------------------------------
                    Cartesian Multipole Moments
 -----------------------------------------------------------------
    Charge (ESU x 10^10)
                -0.0000
    Dipole Moment (Debye)
         X      -0.0773      Y       1.3762      Z       3.0048
       Tot       3.3059
    Quadrupole Moments (Debye-Ang)
        XX    -181.6034     XY       1.3146     YY    -158.2105
        XZ     -10.3522     YZ      -9.5055     ZZ    -201.6281
    Octopole Moments (Debye-Ang^2)
       XXX      33.1075    XXY     291.9999    XYY       0.6870
       YYY     881.4618    XXZ     173.4320    XYZ      50.5801
       YYZ     119.8138    XZZ      15.8201    YZZ     483.6387
       ZZZ     532.2664
    Hexadecapole Moments (Debye-Ang^3)
      XXXX   -1631.6288   XXXY    -401.6190   XXYY   -3677.2280
      XYYY    -351.2585   YYYY  -18579.2428   XXXZ     441.2469
      XXYZ     554.4778   XYYZ     -84.3821   YYYZ    1480.6665
      XXZZ   -1307.5756   XYZZ    -146.9570   YYZZ   -4281.5108
      XZZZ     544.9716   YZZZ    1012.0513   ZZZZ   -6410.7978
 -----------------------------------------------------------------
 Total job time:  293.58s(wall), 9486.69s(cpu) 
 Sun Sep 24 16:41:24 2023

        *************************************************************
        *                                                           *
        *  Thank you very much for using Q-Chem.  Have a nice day.  *
        *                                                           *
        *************************************************************


0 sent ACK to 0 
now end server 0 ... 
cleanup process ... done
remove work dirs ./qchem36312.0 -- ./qchem36312.0
rm -rf ./qchem36312.0
rm -rf ./qchem36312
