You are running Q-Chem version: 5.4.0

#
# job setting
#
local host:  exp-4-17
current dir: /expanse/lustre/projects/csd626/rramji/aromodel/PTB7_fin/Rotation_Test
input file:  fin_bdt_Phi_15_Theta_270_fin_ftt.qcin
output file: 
nprocs     : 1
nthreads   : 64
#
# qchem installation setting
#
QC:          /cm/shared/apps/spack/cpu/opt/spack/linux-centos8-zen2/gcc-10.2.0/qchem-5.4-akfmr7b3t57bfs6qan3padb2wnb2i7cl
QCAUX:       /cm/shared/apps/spack/cpu/opt/spack/linux-centos8-zen2/gcc-10.2.0/qchem-5.4-akfmr7b3t57bfs6qan3padb2wnb2i7cl/qcaux
QCPROG:      /cm/shared/apps/spack/cpu/opt/spack/linux-centos8-zen2/gcc-10.2.0/qchem-5.4-akfmr7b3t57bfs6qan3padb2wnb2i7cl/exe/qcprog.exe
QCPROG_S:    /cm/shared/apps/spack/cpu/opt/spack/linux-centos8-zen2/gcc-10.2.0/qchem-5.4-akfmr7b3t57bfs6qan3padb2wnb2i7cl/exe/qcprog.exe_s
PARALLEL:    -DPARALLEL
QCMPI:       mpich
#
# qchem directory setting
#
qcrun:       qchem1312322
QCSCRATCH:   .
QCLOCALSCR:  
QCTMPDIR:    .
QCFILEPREF:  ./qchem1312322
QCSAVEDIR:   
workdirs:    ./qchem1312322
workdir0:    ./qchem1312322
partmpdirs =  
#
# parallel setting
#
QCRSH:           ssh
QCMPI:           mpich
QCMPIRUN:        /cm/shared/apps/spack/cpu/opt/spack/linux-centos8-zen2/gcc-10.2.0/qchem-5.4-akfmr7b3t57bfs6qan3padb2wnb2i7cl/bin/mpi/mpirun_qchem
QCMACHINEFILE:   ./qchem1312322/hostfile
exp-4-17

#
# env setting
#
exported envs:   QC QCAUX QCSCRATCH QCRUNNAME QCFILEPREF QCPROG QCPROG_S GUIFILE

Running Job 1 of 1 fin_bdt_Phi_15_Theta_270_fin_ftt.qcin
qchem fin_bdt_Phi_15_Theta_270_fin_ftt.qcin_1312322.0 ./qchem1312322/ 1
/cm/shared/apps/spack/cpu/opt/spack/linux-centos8-zen2/gcc-10.2.0/qchem-5.4-akfmr7b3t57bfs6qan3padb2wnb2i7cl/bin/mpi/mpirun_qchem -machinefile ./qchem1312322/hostfile -np 1 /cm/shared/apps/spack/cpu/opt/spack/linux-centos8-zen2/gcc-10.2.0/qchem-5.4-akfmr7b3t57bfs6qan3padb2wnb2i7cl/exe/qcprog.exe fin_bdt_Phi_15_Theta_270_fin_ftt.qcin_1312322.0 ./qchem1312322/

Process 0 of 1 is on exp-4-17 - thread support 0
initial socket setup ...start
initial socket setup ...done 
now start server 0 ... 
                  Welcome to Q-Chem
     A Quantum Leap Into The Future Of Chemistry


 Q-Chem 5.4, Q-Chem, Inc., Pleasanton, CA (2021)

 License issued to: University of California, San Diego (site)

 E. Epifanovsky,  A. T. B. Gilbert,  Xintian Feng,  Joonho Lee,  Yuezhi Mao,  
 N. Mardirossian,  P. Pokhilko,  A. White,  M. Wormit,  M. P. Coons,  
 A. L. Dempwolff,  Zhengting Gan,  D. Hait,  P. R. Horn,  L. D. Jacobson,  
 I. Kaliman,  J. Kussmann,  A. W. Lange,  Ka Un Lao,  D. S. Levine,  Jie Liu,  
 S. C. McKenzie,  A. F. Morrison,  K. Nanda,  F. Plasser,  D. R. Rehn,  
 M. L. Vidal,  Zhi-Qiang You,  Ying Zhu,  B. Alam,  B. Albrecht,  
 A. Aldossary,  E. Alguire,  J. H. Andersen,  D. Barton,  K. Begam,  A. Behn,  
 Y. A. Bernard,  E. J. Berquist,  H. Burton,  A. Carreras,  K. Carter-Fenk,  
 R. Chakraborty,  A. D. Chien,  K. D. Closser,  V. Cofer-Shabica,  
 S. Dasgupta,  Jia Deng,  M. de Wergifosse,  M. Diedenhofen,  Hainam Do,  
 S. Ehlert,  Po-Tung Fang,  S. Fatehi,  Qingguo Feng,  J. Gayvert,  
 Qinghui Ge,  G. Gidofalvi,  M. Goldey,  J. Gomes,  C. Gonzalez-Espinoza,  
 S. Gulania,  A. Gunina,  M. W. D. Hanson-Heine,  P. H. P. Harbach,  
 A. W. Hauser,  M. F. Herbst,  M. Hernandez Vera,  M. Hodecker,  
 Z. C. Holden,  S. Houck,  Xunkun Huang,  Kerwin Hui,  B. C. Huynh,  
 M. Ivanov,  Hyunjun Ji,  Hanjie Jiang,  B. Kaduk,  S. Kaehler,  
 K. Khistyaev,  Jaehoon Kim,  P. Klunzinger,  Z. Koczor-Benda,  
 Joong Hoon Koh,  D. Kosenkov,  L. Koulias,  T. Kowalczyk,  C. M. Krauter,  
 K. Kue,  A. Kunitsa,  T. Kus,  A. Landau,  K. V. Lawler,  D. Lefrancois,  
 S. Lehtola,  Rain Li,  Yi-Pei Li,  Jiashu Liang,  M. Liebenthal,  
 Hung-Hsuan Lin,  You-Sheng Lin,  Fenglai Liu,  Kuan-Yu Liu,  
 M. Loipersberger,  A. Luenser,  A. Manjanath,  P. Manohar,  E. Mansoor,  
 S. F. Manzer,  Shan-Ping Mao,  A. V. Marenich,  T. Markovich,  S. Mason,  
 S. A. Maurer,  P. F. McLaughlin,  M. F. S. J. Menger,  J.-M. Mewes,  
 S. A. Mewes,  P. Morgante,  J. W. Mullinax,  T. S. Nguyen-Beck,  
 K. J. Oosterbaan,  G. Paran,  Alexander C. Paul,  Suranjan K. Paul,  
 F. Pavosevic,  Zheng Pei,  S. Prager,  E. I. Proynov,  E. Ramos,  B. Rana,  
 A. E. Rask,  A. Rettig,  R. M. Richard,  F. Rob,  E. Rossomme,  T. Scheele,  
 M. Scheurer,  M. Schneider,  N. Sergueev,  S. M. Sharada,  W. Skomorowski,  
 D. W. Small,  C. J. Stein,  Yu-Chuan Su,  E. J. Sundstrom,  Zhen Tao,  
 J. Thirman,  T. Tsuchimochi,  N. M. Tubman,  S. P. Veccham,  O. Vydrov,  
 J. Wenzel,  J. Witte,  A. Yamada,  Kun Yao,  S. Yeganeh,  S. R. Yost,  
 A. Zech,  Igor Ying Zhang,  Xing Zhang,  Yu Zhang,  D. Zuev,  
 A. Aspuru-Guzik,  A. T. Bell,  N. A. Besley,  K. B. Bravaya,  B. R. Brooks,  
 D. Casanova,  Jeng-Da Chai,  S. Coriani,  C. J. Cramer,  
 A. E. DePrince, III,  R. A. DiStasio Jr.,  A. Dreuw,  B. D. Dunietz,  
 T. R. Furlani,  W. A. Goddard III,  S. Grimme,  S. Hammes-Schiffer,  
 T. Head-Gordon,  W. J. Hehre,  Chao-Ping Hsu,  T.-C. Jagau,  Yousung Jung,  
 A. Klamt,  Jing Kong,  D. S. Lambrecht,  WanZhen Liang,  N. J. Mayhall,  
 C. W. McCurdy,  J. B. Neaton,  C. Ochsenfeld,  J. A. Parkhill,  R. Peverati,  
 V. A. Rassolov,  Yihan Shao,  L. V. Slipchenko,  T. Stauch,  R. P. Steele,  
 J. E. Subotnik,  A. J. W. Thom,  A. Tkatchenko,  D. G. Truhlar,  
 T. Van Voorhis,  T. A. Wesolowski,  K. B. Whaley,  H. L. Woodcock III,  
 P. M. Zimmerman,  S. Faraji,  P. M. W. Gill,  M. Head-Gordon,  
 J. M. Herbert,  A. I. Krylov

 Contributors to earlier versions of Q-Chem not listed above: 
 R. D. Adamson,  B. Austin,  R. Baer,  J. Baker,  G. J. O. Beran,  
 K. Brandhorst,  S. T. Brown,  E. F. C. Byrd,  A. K. Chakraborty,  
 G. K. L. Chan,  Chun-Min Chang,  Yunqing Chen,  C.-L. Cheng,  
 Siu Hung Chien,  D. M. Chipman,  D. L. Crittenden,  H. Dachsel,  
 R. J. Doerksen,  A. D. Dutoi,  R. G. Edgar,  J. Fosso-Tande,  
 L. Fusti-Molnar,  D. Ghosh,  A. Ghysels,  A. Golubeva-Zadorozhnaya,  
 J. Gonthier,  M. S. Gordon,  S. R. Gwaltney,  G. Hawkins,  J. E. Herr,  
 A. Heyden,  S. Hirata,  E. G. Hohenstein,  G. Kedziora,  F. J. Keil,  
 C. Kelley,  Jihan Kim,  R. A. King,  R. Z. Khaliullin,  P. P. Korambath,  
 W. Kurlancheek,  A. Laurent,  A. M. Lee,  M. S. Lee,  S. V. Levchenko,  
 Ching Yeh Lin,  D. Liotard,  E. Livshits,  R. C. Lochan,  I. Lotan,  
 L. A. Martinez-Martinez,  P. E. Maslen,  N. Nair,  D. P. O'Neill,  
 D. Neuhauser,  E. Neuscamman,  C. M. Oana,  R. Olivares-Amaya,  R. Olson,  
 T. M. Perrine,  B. Peters,  P. A. Pieniazek,  A. Prociuk,  Y. M. Rhee,  
 J. Ritchie,  M. A. Rohrdanz,  E. Rosta,  N. J. Russ,  H. F. Schaefer III,  
 M. W. Schmidt,  N. E. Schultz,  S. Sharma,  N. Shenvi,  C. D. Sherrill,  
 A. C. Simmonett,  A. Sodt,  T. Stein,  D. Stuck,  K. S. Thanthiriwatte,  
 V. Vanovschi,  L. Vogt,  Tao Wang,  A. Warshel,  M. A. Watson,  
 C. F. Williams,  Q. Wu,  X. Xu,  Jun Yang,  W. Zhang,  Yan Zhao

 Please cite Q-Chem as follows:
 Y. Shao et al., Mol. Phys. 113, 184-215 (2015)
 DOI: 10.1080/00268976.2014.952696

 Q-Chem 5.4.0 for Intel X86 EM64T Linux

 Parts of Q-Chem use Armadillo 9.800.1 (Horizon Scraper).
 http://arma.sourceforge.net/

 Q-Chem begins on Tue Sep 26 19:47:02 2023  

 Host: 
0

     Scratch files written to ./qchem1312322//
 May1621 |scratch|qcdevops|jenkins|workspace|build_RNUM    
 Parallel job on  1  processors
 Processing $rem in /cm/shared/apps/spack/cpu/opt/spack/linux-centos8-zen2/gcc-10.2.0/qchem-5.4-akfmr7b3t57bfs6qan3padb2wnb2i7cl/config/preferences:
 Processing $rem in /home/rramji/.qchemrc:
 Symmetry turned off for PCM/SM12/SMD calculation
 Core orbitals will be frozen

 Checking the input file for inconsistencies... 	...done.

 Q-Chem warning in module forms1/BasisType.C, line 2236:

 You are not using the predefined 5D/6D in this basis set.


--------------------------------------------------------------
User input:
--------------------------------------------------------------
$molecule
0 1
C	0.267851	-8.519741	0.047927
C	-0.801461	-7.635967	0.056157
S	1.822194	-7.651740	0.029285
C	-0.415201	-6.261894	0.054516
H	-1.851431	-7.954738	0.063290
C	1.012650	-6.079985	0.054687
C	1.584194	-4.798382	0.028030
C	-1.309433	-5.153542	0.031399
C	-0.737539	-3.869626	0.000427
C	0.691828	-3.688927	0.003462
O	-2.631211	-5.481075	0.061128
O	2.911907	-4.479871	-0.003021
C	3.854716	-5.356026	0.602710
H	4.803517	-4.790496	0.670671
H	4.034285	-6.268513	-0.006913
H	3.535185	-5.658187	1.623507
C	-3.610841	-4.546999	-0.375708
H	-4.562544	-5.107564	-0.441115
H	-3.364029	-4.131473	-1.376277
H	-3.743566	-3.712085	0.346107
C	1.074491	-2.314326	-0.000458
S	-1.548848	-2.295487	0.013144
C	0.000000	-1.435180	0.000000
H	2.123688	-1.993211	-0.004953
H	0.262315	-9.615985	0.045468
C	0.000000	0.000000	0.000000
S	0.234946	0.868203	1.510732
C	0.641630	2.390125	0.727629
C	0.235036	0.877284	-1.064665
C	0.593019	2.219143	-0.678287
C	0.219452	0.812732	-2.486150
C	0.546689	2.034501	-3.106916
S	0.866345	3.240357	-1.965735
C	0.617067	2.279095	-4.559972
O	0.378342	1.376631	-5.350277
O	0.952308	3.517725	-5.004375
F	-0.065123	-0.264443	-3.246290
C	1.054950	3.861577	-6.334976
H	1.341516	4.928732	-6.370268
H	0.093573	3.716085	-6.875609
H	1.822303	3.252232	-6.861878
H	0.879812	3.278780	1.321510
$end

$rem
JOBTYPE		SP
EXCHANGE	HF
CORRELATION	pRIMP2
BASIS		cc-pvtz
METHOD		rimp2
AUX_BASIS	rimp2-cc-pvtz
SOLVENT_METHOD	PCM
PURECART	11111
SYMMETRY	false
MEM_TOTAL	110000
SCF_CONVERGENCE = 6
THRESH=10
GUI = 2
$end



$solvent
dielectric 4.90
$end
--------------------------------------------------------------
 ----------------------------------------------------------------
             Standard Nuclear Orientation (Angstroms)
    I     Atom           X                Y                Z
 ----------------------------------------------------------------
    1      C       0.2678510000    -8.5197410000     0.0479270000
    2      C      -0.8014610000    -7.6359670000     0.0561570000
    3      S       1.8221940000    -7.6517400000     0.0292850000
    4      C      -0.4152010000    -6.2618940000     0.0545160000
    5      H      -1.8514310000    -7.9547380000     0.0632900000
    6      C       1.0126500000    -6.0799850000     0.0546870000
    7      C       1.5841940000    -4.7983820000     0.0280300000
    8      C      -1.3094330000    -5.1535420000     0.0313990000
    9      C      -0.7375390000    -3.8696260000     0.0004270000
   10      C       0.6918280000    -3.6889270000     0.0034620000
   11      O      -2.6312110000    -5.4810750000     0.0611280000
   12      O       2.9119070000    -4.4798710000    -0.0030210000
   13      C       3.8547160000    -5.3560260000     0.6027100000
   14      H       4.8035170000    -4.7904960000     0.6706710000
   15      H       4.0342850000    -6.2685130000    -0.0069130000
   16      H       3.5351850000    -5.6581870000     1.6235070000
   17      C      -3.6108410000    -4.5469990000    -0.3757080000
   18      H      -4.5625440000    -5.1075640000    -0.4411150000
   19      H      -3.3640290000    -4.1314730000    -1.3762770000
   20      H      -3.7435660000    -3.7120850000     0.3461070000
   21      C       1.0744910000    -2.3143260000    -0.0004580000
   22      S      -1.5488480000    -2.2954870000     0.0131440000
   23      C       0.0000000000    -1.4351800000     0.0000000000
   24      H       2.1236880000    -1.9932110000    -0.0049530000
   25      H       0.2623150000    -9.6159850000     0.0454680000
   26      C       0.0000000000     0.0000000000     0.0000000000
   27      S       0.2349460000     0.8682030000     1.5107320000
   28      C       0.6416300000     2.3901250000     0.7276290000
   29      C       0.2350360000     0.8772840000    -1.0646650000
   30      C       0.5930190000     2.2191430000    -0.6782870000
   31      C       0.2194520000     0.8127320000    -2.4861500000
   32      C       0.5466890000     2.0345010000    -3.1069160000
   33      S       0.8663450000     3.2403570000    -1.9657350000
   34      C       0.6170670000     2.2790950000    -4.5599720000
   35      O       0.3783420000     1.3766310000    -5.3502770000
   36      O       0.9523080000     3.5177250000    -5.0043750000
   37      F      -0.0651230000    -0.2644430000    -3.2462900000
   38      C       1.0549500000     3.8615770000    -6.3349760000
   39      H       1.3415160000     4.9287320000    -6.3702680000
   40      H       0.0935730000     3.7160850000    -6.8756090000
   41      H       1.8223030000     3.2522320000    -6.8618780000
   42      H       0.8798120000     3.2787800000     1.3215100000
 ----------------------------------------------------------------
 Nuclear Repulsion Energy =        3297.62503834 hartrees
 There are      119 alpha and      119 beta electrons
 Requested basis set is cc-pVTZ
 There are 376 shells and 1068 basis functions

 Total QAlloc Memory Limit 110000 MB
 Mega-Array Size       188 MB
 MEM_STATIC part       192 MB
 Discretize the solute cavity surface with Lebedev spheres
	Using 110 Lebedev grid points for each H atom
	Using 194 Lebedev grid points for other atoms
	Atomic van der Waals radii will be scaled by 1.20
 Remove points where switching function is < 1.0e-08
 Keep 2925 surface tesserae and discard 4131 interior tesserae
 Molecular Surface Area = 444.615 Angst**2
 Requested basis set is rimp2-cc-pVTZ
 There are 833 shells and 2903 basis functions
 A cutoff of  1.0D-10 yielded  31079 shell pairs
 There are    238709 function pairs (    310010 Cartesian)
 Smallest overlap matrix eigenvalue = 2.19E-05

 Scale SEOQF with 1.000000e-01/1.000000e-02/1.000000e-02

 Standard Electronic Orientation quadrupole field applied
 Nucleus-field energy     =     0.0000000386 hartrees
 Guess from superposition of atomic densities
 Warning:  Energy on first SCF cycle will be non-variational
 SAD guess density has 238.000000 electrons

 -----------------------------------------------------------------------
  General SCF calculation program by
  Eric Jon Sundstrom, Paul Horn, Yuezhi Mao, Dmitri Zuev, Alec White,
  David Stuck, Shaama M.S., Shane Yost, Joonho Lee, David Small,
  Daniel Levine, Susi Lehtola, Hugh Burton, Evgeny Epifanovsky,
  Bang C. Huynh
 -----------------------------------------------------------------------
 Hartree-Fock
 using 64 threads for integral computing
 -------------------------------------------------------
 OpenMP Integral computing Module                
 Release: version 1.0, May 2013, Q-Chem Inc. Pittsburgh 
 -------------------------------------------------------
 A restricted SCF calculation will be
 performed using DIIS
 SCF converges when DIIS error is below 1.0e-06
 ---------------------------------------
  Cycle       Energy         DIIS error
 ---------------------------------------
    1   -2765.5229922088      1.77e-02  
    2   -2753.8549903789      1.57e-03  
    3   -2754.1937873940      8.81e-04  
    4   -2754.2777054184      2.54e-04  
    5   -2754.2893050729      6.82e-05  
    6   -2754.2903719009      2.37e-05  
    7   -2754.2906071116      1.16e-05  
    8   -2754.2906852237      4.54e-06  
    9   -2754.2907017702      2.15e-06  
   10   -2754.2907043718      8.98e-07  Convergence criterion met
 ---------------------------------------
 SCF time:   CPU 6610.37s  wall 259.00s 

************** Final PCM Free Energy Summary **************
 G_electrostatic  =      -0.02009498 hartree =     -12.60978844 kcal/mol
 G_cavitation     =       0.00000000 hartree =       0.00000000 kcal/mol
 G_dispersion     =       0.00000000 hartree =       0.00000000 kcal/mol
 G_repulsion      =       0.00000000 hartree =       0.00000000 kcal/mol
 --------------------------------------------------
 Non-electrostatic Free Energy =       0.00000000 hartree =       0.00000000 kcal/mol
 Total                         =      -0.02009498 hartree =     -12.60978844 kcal/mol
 --------------------------------------------------
 SCF Energy (H0 + V/2)                       =   -2754.29070437 
 Solute Internal Energy (H0)                 =   -2754.27060939 
 Total Free Energy (H0 + V/2 + non-elec)     =   -2754.29070437 hartree
                                             = -1728343.50288056 kcal/mol
***********************************************************

 SCF   energy in the final basis set =    -2754.2907043718
 Total energy in the final basis set =    -2754.2907043718


 --------------------------------------------------------------
  Generalized many-body perturbation theory program
  by Joonho Lee, Fazle Rob, Xintian Feng, Evgeny Epifanovsky

 No regularization used 
 (reg. param. = 0.0000e+00)
  (P|Q)^-1/2 Time:  CPU 202.46 s  wall 3.54 s

 In RI-MP2 calculation: 
 # of frozen core orbitals: 45

 Components of the RIMP2 correlation energy:
        aaaa    correlation energy =        -0.6705775486 a.u.
        abab    correlation energy =        -3.7125829372 a.u.
        bbbb    correlation energy =        -0.6705775486 a.u.
        non-Brillouin singles      =        -0.0000000000 a.u.
        total same-spin energy     =        -1.3411550973 a.u.
        total opposite-spin energy =        -3.7125829372 a.u.

 Total  RIMP2   correlation energy =        -5.0537380345 a.u.
        RIMP2         total energy =     -2759.3444424063 a.u.

 RI-MP2 Energy Time:  CPU 2808.79 s  wall 45.69 s
 
 --------------------------------------------------------------
 
                    Orbital Energies (a.u.)
 --------------------------------------------------------------
 
 Alpha MOs
 -- Occupied --
-92.0161 -91.9948 -91.9887 -91.9864 -26.3337 -20.6121 -20.5921 -20.5917
-20.5503 -11.4105 -11.3768 -11.3190 -11.3185 -11.3069 -11.2980 -11.2962
-11.2950 -11.2930 -11.2884 -11.2867 -11.2863 -11.2860 -11.2839 -11.2835
-11.2800 -11.2608 -11.2593 -11.2591 -11.2499  -9.0143  -8.9988  -8.9890
 -8.9863  -6.6949  -6.6944  -6.6939  -6.6801  -6.6794  -6.6780  -6.6700
 -6.6693  -6.6683  -6.6673  -6.6667  -6.6658  -1.6466  -1.4719  -1.4163
 -1.4144  -1.3672  -1.2332  -1.1957  -1.1680  -1.1416  -1.0838  -1.0519
 -1.0473  -1.0276  -1.0020  -0.9930  -0.9712  -0.9611  -0.9503  -0.9384
 -0.8955  -0.8692  -0.8501  -0.8047  -0.7905  -0.7881  -0.7740  -0.7687
 -0.7580  -0.7326  -0.7179  -0.7149  -0.7013  -0.6888  -0.6830  -0.6785
 -0.6711  -0.6605  -0.6586  -0.6527  -0.6306  -0.6201  -0.6168  -0.6065
 -0.6019  -0.5947  -0.5826  -0.5771  -0.5710  -0.5661  -0.5540  -0.5521
 -0.5330  -0.5263  -0.5241  -0.5162  -0.5140  -0.5075  -0.5012  -0.4937
 -0.4909  -0.4844  -0.4759  -0.4672  -0.4616  -0.4612  -0.4604  -0.4045
 -0.4011  -0.3873  -0.3584  -0.3472  -0.3139  -0.2903  -0.2592
 -- Virtual --
  0.0285   0.0609   0.1152   0.1253   0.1359   0.1408   0.1498   0.1554
  0.1559   0.1600   0.1666   0.1712   0.1806   0.1833   0.1871   0.1920
  0.1942   0.2042   0.2106   0.2198   0.2208   0.2212   0.2243   0.2269
  0.2331   0.2368   0.2412   0.2528   0.2601   0.2660   0.2695   0.2771
  0.2856   0.3079   0.3177   0.3281   0.3340   0.3374   0.3390   0.3470
  0.3527   0.3632   0.3686   0.3717   0.3751   0.3796   0.3809   0.3858
  0.3862   0.3906   0.3952   0.4013   0.4085   0.4101   0.4191   0.4209
  0.4252   0.4322   0.4336   0.4433   0.4442   0.4476   0.4522   0.4543
  0.4583   0.4622   0.4638   0.4694   0.4759   0.4793   0.4825   0.4873
  0.4895   0.5008   0.5032   0.5094   0.5140   0.5172   0.5200   0.5237
  0.5256   0.5332   0.5383   0.5414   0.5458   0.5484   0.5528   0.5532
  0.5584   0.5608   0.5619   0.5639   0.5704   0.5732   0.5777   0.5796
  0.5819   0.5893   0.5915   0.5957   0.5994   0.6016   0.6055   0.6099
  0.6153   0.6159   0.6186   0.6228   0.6262   0.6290   0.6300   0.6338
  0.6394   0.6408   0.6443   0.6470   0.6545   0.6547   0.6575   0.6668
  0.6758   0.6792   0.6815   0.6824   0.6862   0.6944   0.6970   0.7046
  0.7073   0.7117   0.7188   0.7219   0.7251   0.7435   0.7460   0.7502
  0.7592   0.7626   0.7710   0.7738   0.7798   0.7810   0.7907   0.8023
  0.8027   0.8081   0.8102   0.8171   0.8219   0.8273   0.8286   0.8394
  0.8471   0.8560   0.8604   0.8646   0.8819   0.8842   0.8884   0.8901
  0.8963   0.9014   0.9047   0.9145   0.9159   0.9185   0.9194   0.9249
  0.9313   0.9360   0.9436   0.9474   0.9493   0.9543   0.9617   0.9685
  0.9704   0.9785   0.9795   0.9866   0.9921   0.9954   0.9994   1.0030
  1.0061   1.0101   1.0129   1.0148   1.0198   1.0250   1.0349   1.0394
  1.0404   1.0491   1.0546   1.0620   1.0655   1.0688   1.0701   1.0759
  1.0775   1.0847   1.0895   1.0941   1.0966   1.0991   1.1038   1.1065
  1.1157   1.1267   1.1300   1.1388   1.1410   1.1507   1.1523   1.1576
  1.1628   1.1704   1.1770   1.1788   1.1800   1.1860   1.1881   1.1936
  1.1965   1.2023   1.2096   1.2136   1.2180   1.2189   1.2229   1.2316
  1.2344   1.2414   1.2463   1.2538   1.2602   1.2675   1.2715   1.2743
  1.2750   1.2795   1.2945   1.2977   1.3062   1.3112   1.3137   1.3164
  1.3250   1.3317   1.3384   1.3408   1.3502   1.3565   1.3641   1.3697
  1.3777   1.3870   1.3874   1.3945   1.4013   1.4079   1.4179   1.4228
  1.4260   1.4342   1.4416   1.4570   1.4699   1.4746   1.4848   1.4910
  1.4927   1.5010   1.5023   1.5059   1.5122   1.5163   1.5196   1.5292
  1.5313   1.5375   1.5382   1.5431   1.5481   1.5506   1.5596   1.5619
  1.5684   1.5804   1.5850   1.5989   1.6072   1.6174   1.6231   1.6302
  1.6355   1.6485   1.6559   1.6594   1.6631   1.6680   1.6775   1.6820
  1.6923   1.6950   1.6998   1.7095   1.7218   1.7277   1.7387   1.7497
  1.7600   1.7690   1.7707   1.7822   1.7871   1.8080   1.8107   1.8206
  1.8313   1.8335   1.8361   1.8475   1.8522   1.8631   1.8662   1.8755
  1.8795   1.8838   1.8979   1.9064   1.9184   1.9200   1.9244   1.9331
  1.9386   1.9444   1.9460   1.9603   1.9688   1.9741   1.9786   1.9848
  1.9957   2.0056   2.0184   2.0292   2.0355   2.0409   2.0487   2.0599
  2.0759   2.0961   2.0984   2.1050   2.1145   2.1255   2.1316   2.1437
  2.1482   2.1570   2.1622   2.1670   2.1767   2.1794   2.1869   2.1938
  2.1949   2.1980   2.2049   2.2222   2.2254   2.2314   2.2361   2.2405
  2.2520   2.2546   2.2683   2.2726   2.2780   2.2836   2.2934   2.3026
  2.3070   2.3133   2.3225   2.3241   2.3276   2.3401   2.3523   2.3540
  2.3646   2.3828   2.3848   2.3883   2.4038   2.4132   2.4166   2.4267
  2.4353   2.4373   2.4500   2.4592   2.4748   2.4782   2.4837   2.4952
  2.5014   2.5235   2.5267   2.5291   2.5396   2.5521   2.5688   2.5704
  2.5762   2.5796   2.5879   2.5954   2.6065   2.6158   2.6177   2.6215
  2.6250   2.6362   2.6391   2.6402   2.6510   2.6556   2.6673   2.6698
  2.6797   2.6857   2.6909   2.6998   2.7017   2.7032   2.7075   2.7202
  2.7282   2.7323   2.7343   2.7364   2.7437   2.7497   2.7575   2.7645
  2.7747   2.7879   2.7943   2.7957   2.8053   2.8113   2.8157   2.8258
  2.8284   2.8374   2.8402   2.8467   2.8483   2.8562   2.8722   2.8758
  2.8774   2.8835   2.8874   2.8949   2.8984   2.9129   2.9318   2.9355
  2.9464   2.9581   2.9623   2.9697   2.9716   2.9804   2.9923   3.0057
  3.0094   3.0170   3.0248   3.0267   3.0309   3.0381   3.0439   3.0454
  3.0494   3.0639   3.0700   3.0863   3.0897   3.0915   3.0949   3.1009
  3.1056   3.1104   3.1168   3.1233   3.1269   3.1382   3.1460   3.1512
  3.1552   3.1566   3.1615   3.1670   3.1705   3.1757   3.1795   3.1850
  3.1963   3.1990   3.2033   3.2063   3.2114   3.2168   3.2215   3.2274
  3.2288   3.2401   3.2477   3.2495   3.2544   3.2595   3.2638   3.2712
  3.2754   3.2779   3.2832   3.2872   3.2904   3.2960   3.3005   3.3007
  3.3085   3.3159   3.3278   3.3303   3.3326   3.3400   3.3432   3.3458
  3.3500   3.3547   3.3562   3.3578   3.3636   3.3675   3.3729   3.3767
  3.3780   3.3870   3.3898   3.3964   3.4082   3.4106   3.4167   3.4199
  3.4271   3.4290   3.4339   3.4375   3.4447   3.4456   3.4547   3.4565
  3.4600   3.4660   3.4714   3.4759   3.4805   3.4867   3.4909   3.4926
  3.5020   3.5081   3.5151   3.5222   3.5291   3.5335   3.5361   3.5444
  3.5464   3.5535   3.5540   3.5592   3.5725   3.5769   3.5779   3.5831
  3.5871   3.5878   3.5928   3.5966   3.6024   3.6050   3.6244   3.6262
  3.6298   3.6335   3.6411   3.6467   3.6523   3.6558   3.6586   3.6624
  3.6670   3.6693   3.6781   3.6795   3.6895   3.6918   3.6963   3.7027
  3.7088   3.7101   3.7129   3.7179   3.7254   3.7293   3.7343   3.7373
  3.7473   3.7499   3.7508   3.7566   3.7662   3.7697   3.7787   3.7892
  3.7914   3.7986   3.8083   3.8087   3.8182   3.8194   3.8278   3.8300
  3.8385   3.8389   3.8475   3.8516   3.8579   3.8610   3.8679   3.8730
  3.8810   3.8845   3.8908   3.8966   3.9039   3.9140   3.9169   3.9266
  3.9296   3.9359   3.9402   3.9479   3.9635   3.9690   3.9740   3.9861
  3.9926   3.9972   4.0087   4.0127   4.0192   4.0236   4.0306   4.0399
  4.0514   4.0586   4.0615   4.0657   4.0780   4.0801   4.0851   4.0868
  4.0988   4.1053   4.1125   4.1221   4.1288   4.1409   4.1479   4.1504
  4.1651   4.1664   4.1724   4.1781   4.1861   4.1893   4.1934   4.2026
  4.2050   4.2151   4.2275   4.2335   4.2390   4.2542   4.2695   4.2739
  4.2826   4.2967   4.3070   4.3123   4.3257   4.3350   4.3376   4.3483
  4.3579   4.3674   4.3754   4.3775   4.3787   4.3903   4.3937   4.3992
  4.4011   4.4092   4.4121   4.4198   4.4269   4.4334   4.4425   4.4508
  4.4596   4.4705   4.4785   4.4903   4.4958   4.5031   4.5054   4.5091
  4.5297   4.5403   4.5426   4.5542   4.5589   4.5683   4.5840   4.6002
  4.6029   4.6119   4.6155   4.6272   4.6342   4.6410   4.6458   4.6490
  4.6609   4.6681   4.6699   4.6810   4.6921   4.6992   4.7107   4.7307
  4.7374   4.7449   4.7508   4.7666   4.7828   4.7902   4.8054   4.8105
  4.8234   4.8268   4.8427   4.8503   4.8698   4.8923   4.9119   4.9185
  4.9390   4.9445   4.9528   4.9629   4.9697   4.9766   4.9908   5.0011
  5.0119   5.0129   5.0170   5.0392   5.0470   5.0578   5.0698   5.0857
  5.0910   5.1168   5.1535   5.1571   5.1695   5.1747   5.1927   5.2063
  5.2089   5.2141   5.2193   5.2432   5.2559   5.2591   5.2631   5.2820
  5.2987   5.3042   5.3172   5.3320   5.3375   5.3409   5.3553   5.3609
  5.3773   5.3863   5.3984   5.4005   5.4241   5.4401   5.4446   5.4638
  5.4732   5.4824   5.4948   5.5070   5.5128   5.5220   5.5492   5.5592
  5.5723   5.5840   5.5946   5.6058   5.6176   5.6346   5.6401   5.6929
  5.7118   5.7362   5.7814   5.8008   5.8134   5.8286   5.8539   5.8581
  5.8739   5.8823   5.9091   5.9696   5.9721   5.9779   5.9994   6.0374
  6.0650   6.0824   6.1229   6.1337   6.1655   6.1718   6.1780   6.1858
  6.2319   6.2434   6.2682   6.2804   6.2892   6.3086   6.3201   6.3789
  6.4366   6.4436   6.4883   6.5153   6.5483   6.5552   6.5564   6.6515
  6.6719   6.6767   6.7040   6.7347   6.7420   6.7998   6.8385   6.8603
  6.8820   6.8924   6.9913   7.1198   7.1376   7.1784   7.2111   7.2157
  7.2332   7.3193   7.3264   7.3312   7.3739   7.3764   7.4276   7.4626
  7.4791   7.4871   7.4884   7.5199   7.5493   7.6066   7.7124   7.7712
  7.7967   7.8313   7.9038   7.9205   7.9484   8.0019   8.0938   8.1644
  8.5647   8.9288   9.0084   9.3635   9.4998   9.6894  10.2101  10.6927
 11.2354  11.5263  11.9227  11.9529  12.1282  12.1874  12.2927  12.5831
 12.6870  12.7377  12.9293  13.2071  13.2789  13.5672  13.8458  13.8991
 13.9192  14.0219  14.1728  14.5122  15.1940
 --------------------------------------------------------------
 
          Ground-State Mulliken Net Atomic Charges

     Atom                 Charge (a.u.)
  ----------------------------------------
      1 C                    -0.187540
      2 C                    -0.254384
      3 S                    -0.021951
      4 C                    -0.014319
      5 H                     0.196591
      6 C                    -0.028968
      7 C                     0.243609
      8 C                     0.243060
      9 C                    -0.054346
     10 C                    -0.024762
     11 O                    -0.333423
     12 O                    -0.339783
     13 C                    -0.085638
     14 H                     0.122629
     15 H                     0.091218
     16 H                     0.093820
     17 C                    -0.086322
     18 H                     0.124529
     19 H                     0.095507
     20 H                     0.089260
     21 C                    -0.201894
     22 S                     0.004415
     23 C                    -0.033024
     24 H                     0.198414
     25 H                     0.206549
     26 C                    -0.047743
     27 S                     0.120927
     28 C                    -0.235423
     29 C                    -0.099227
     30 C                    -0.004017
     31 C                     0.391089
     32 C                    -0.157044
     33 S                     0.039792
     34 C                     0.460179
     35 O                    -0.449205
     36 O                    -0.297718
     37 F                    -0.210702
     38 C                    -0.054946
     39 H                     0.116537
     40 H                     0.084649
     41 H                     0.084576
     42 H                     0.215028
  ----------------------------------------
  Sum of atomic charges =     0.000000

 -----------------------------------------------------------------
                    Cartesian Multipole Moments
 -----------------------------------------------------------------
    Charge (ESU x 10^10)
                -0.0000
    Dipole Moment (Debye)
         X       0.9249      Y       1.6069      Z       3.4818
       Tot       3.9447
    Quadrupole Moments (Debye-Ang)
        XX    -176.7527     XY       3.5506     YY    -159.7926
        XZ       2.8286     YZ     -11.8763     ZZ    -205.0472
    Octopole Moments (Debye-Ang^2)
       XXX    -175.5971    XXY     284.9720    XYY     -33.0763
       YYY     899.7069    XXZ     174.9756    XYZ     -41.4816
       YYZ     134.7009    XZZ     -29.2219    YZZ     506.2930
       ZZZ     539.9175
    Hexadecapole Moments (Debye-Ang^3)
      XXXX   -2495.0106   XXXY     102.1122   XXYY   -3681.9632
      XYYY     140.3244   YYYY  -18463.0367   XXXZ     371.3111
      XXYZ     453.7058   XYYZ     179.9625   YYYZ    1226.1588
      XXZZ   -1394.5515   XYZZ     188.7524   YYZZ   -4260.8083
      XZZZ     109.6124   YZZZ     774.7770   ZZZZ   -5551.1780
 -----------------------------------------------------------------
 Total job time:  315.27s(wall), 9955.99s(cpu) 
 Tue Sep 26 19:52:17 2023

        *************************************************************
        *                                                           *
        *  Thank you very much for using Q-Chem.  Have a nice day.  *
        *                                                           *
        *************************************************************


0 sent ACK to 0 
now end server 0 ... 
cleanup process ... done
remove work dirs ./qchem1312322.0 -- ./qchem1312322.0
rm -rf ./qchem1312322.0
rm -rf ./qchem1312322
