You are running Q-Chem version: 5.4.0

#
# job setting
#
local host:  exp-8-26
current dir: /expanse/lustre/projects/csd626/rramji/aromodel/PTB7_fin/Rotation_Test
input file:  fin_bdt_Phi_5_Theta_310_fin_ftt.qcin
output file: 
nprocs     : 1
nthreads   : 64
#
# qchem installation setting
#
QC:          /cm/shared/apps/spack/cpu/opt/spack/linux-centos8-zen2/gcc-10.2.0/qchem-5.4-akfmr7b3t57bfs6qan3padb2wnb2i7cl
QCAUX:       /cm/shared/apps/spack/cpu/opt/spack/linux-centos8-zen2/gcc-10.2.0/qchem-5.4-akfmr7b3t57bfs6qan3padb2wnb2i7cl/qcaux
QCPROG:      /cm/shared/apps/spack/cpu/opt/spack/linux-centos8-zen2/gcc-10.2.0/qchem-5.4-akfmr7b3t57bfs6qan3padb2wnb2i7cl/exe/qcprog.exe
QCPROG_S:    /cm/shared/apps/spack/cpu/opt/spack/linux-centos8-zen2/gcc-10.2.0/qchem-5.4-akfmr7b3t57bfs6qan3padb2wnb2i7cl/exe/qcprog.exe_s
PARALLEL:    -DPARALLEL
QCMPI:       mpich
#
# qchem directory setting
#
qcrun:       qchem1209305
QCSCRATCH:   .
QCLOCALSCR:  
QCTMPDIR:    .
QCFILEPREF:  ./qchem1209305
QCSAVEDIR:   
workdirs:    ./qchem1209305
workdir0:    ./qchem1209305
partmpdirs =  
#
# parallel setting
#
QCRSH:           ssh
QCMPI:           mpich
QCMPIRUN:        /cm/shared/apps/spack/cpu/opt/spack/linux-centos8-zen2/gcc-10.2.0/qchem-5.4-akfmr7b3t57bfs6qan3padb2wnb2i7cl/bin/mpi/mpirun_qchem
QCMACHINEFILE:   ./qchem1209305/hostfile
exp-8-26

#
# env setting
#
exported envs:   QC QCAUX QCSCRATCH QCRUNNAME QCFILEPREF QCPROG QCPROG_S GUIFILE

Running Job 1 of 1 fin_bdt_Phi_5_Theta_310_fin_ftt.qcin
qchem fin_bdt_Phi_5_Theta_310_fin_ftt.qcin_1209305.0 ./qchem1209305/ 1
/cm/shared/apps/spack/cpu/opt/spack/linux-centos8-zen2/gcc-10.2.0/qchem-5.4-akfmr7b3t57bfs6qan3padb2wnb2i7cl/bin/mpi/mpirun_qchem -machinefile ./qchem1209305/hostfile -np 1 /cm/shared/apps/spack/cpu/opt/spack/linux-centos8-zen2/gcc-10.2.0/qchem-5.4-akfmr7b3t57bfs6qan3padb2wnb2i7cl/exe/qcprog.exe fin_bdt_Phi_5_Theta_310_fin_ftt.qcin_1209305.0 ./qchem1209305/

Process 0 of 1 is on exp-8-26 - thread support 0
initial socket setup ...start
initial socket setup ...done 
now start server 0 ... 
                  Welcome to Q-Chem
     A Quantum Leap Into The Future Of Chemistry


 Q-Chem 5.4, Q-Chem, Inc., Pleasanton, CA (2021)

 License issued to: University of California, San Diego (site)

 E. Epifanovsky,  A. T. B. Gilbert,  Xintian Feng,  Joonho Lee,  Yuezhi Mao,  
 N. Mardirossian,  P. Pokhilko,  A. White,  M. Wormit,  M. P. Coons,  
 A. L. Dempwolff,  Zhengting Gan,  D. Hait,  P. R. Horn,  L. D. Jacobson,  
 I. Kaliman,  J. Kussmann,  A. W. Lange,  Ka Un Lao,  D. S. Levine,  Jie Liu,  
 S. C. McKenzie,  A. F. Morrison,  K. Nanda,  F. Plasser,  D. R. Rehn,  
 M. L. Vidal,  Zhi-Qiang You,  Ying Zhu,  B. Alam,  B. Albrecht,  
 A. Aldossary,  E. Alguire,  J. H. Andersen,  D. Barton,  K. Begam,  A. Behn,  
 Y. A. Bernard,  E. J. Berquist,  H. Burton,  A. Carreras,  K. Carter-Fenk,  
 R. Chakraborty,  A. D. Chien,  K. D. Closser,  V. Cofer-Shabica,  
 S. Dasgupta,  Jia Deng,  M. de Wergifosse,  M. Diedenhofen,  Hainam Do,  
 S. Ehlert,  Po-Tung Fang,  S. Fatehi,  Qingguo Feng,  J. Gayvert,  
 Qinghui Ge,  G. Gidofalvi,  M. Goldey,  J. Gomes,  C. Gonzalez-Espinoza,  
 S. Gulania,  A. Gunina,  M. W. D. Hanson-Heine,  P. H. P. Harbach,  
 A. W. Hauser,  M. F. Herbst,  M. Hernandez Vera,  M. Hodecker,  
 Z. C. Holden,  S. Houck,  Xunkun Huang,  Kerwin Hui,  B. C. Huynh,  
 M. Ivanov,  Hyunjun Ji,  Hanjie Jiang,  B. Kaduk,  S. Kaehler,  
 K. Khistyaev,  Jaehoon Kim,  P. Klunzinger,  Z. Koczor-Benda,  
 Joong Hoon Koh,  D. Kosenkov,  L. Koulias,  T. Kowalczyk,  C. M. Krauter,  
 K. Kue,  A. Kunitsa,  T. Kus,  A. Landau,  K. V. Lawler,  D. Lefrancois,  
 S. Lehtola,  Rain Li,  Yi-Pei Li,  Jiashu Liang,  M. Liebenthal,  
 Hung-Hsuan Lin,  You-Sheng Lin,  Fenglai Liu,  Kuan-Yu Liu,  
 M. Loipersberger,  A. Luenser,  A. Manjanath,  P. Manohar,  E. Mansoor,  
 S. F. Manzer,  Shan-Ping Mao,  A. V. Marenich,  T. Markovich,  S. Mason,  
 S. A. Maurer,  P. F. McLaughlin,  M. F. S. J. Menger,  J.-M. Mewes,  
 S. A. Mewes,  P. Morgante,  J. W. Mullinax,  T. S. Nguyen-Beck,  
 K. J. Oosterbaan,  G. Paran,  Alexander C. Paul,  Suranjan K. Paul,  
 F. Pavosevic,  Zheng Pei,  S. Prager,  E. I. Proynov,  E. Ramos,  B. Rana,  
 A. E. Rask,  A. Rettig,  R. M. Richard,  F. Rob,  E. Rossomme,  T. Scheele,  
 M. Scheurer,  M. Schneider,  N. Sergueev,  S. M. Sharada,  W. Skomorowski,  
 D. W. Small,  C. J. Stein,  Yu-Chuan Su,  E. J. Sundstrom,  Zhen Tao,  
 J. Thirman,  T. Tsuchimochi,  N. M. Tubman,  S. P. Veccham,  O. Vydrov,  
 J. Wenzel,  J. Witte,  A. Yamada,  Kun Yao,  S. Yeganeh,  S. R. Yost,  
 A. Zech,  Igor Ying Zhang,  Xing Zhang,  Yu Zhang,  D. Zuev,  
 A. Aspuru-Guzik,  A. T. Bell,  N. A. Besley,  K. B. Bravaya,  B. R. Brooks,  
 D. Casanova,  Jeng-Da Chai,  S. Coriani,  C. J. Cramer,  
 A. E. DePrince, III,  R. A. DiStasio Jr.,  A. Dreuw,  B. D. Dunietz,  
 T. R. Furlani,  W. A. Goddard III,  S. Grimme,  S. Hammes-Schiffer,  
 T. Head-Gordon,  W. J. Hehre,  Chao-Ping Hsu,  T.-C. Jagau,  Yousung Jung,  
 A. Klamt,  Jing Kong,  D. S. Lambrecht,  WanZhen Liang,  N. J. Mayhall,  
 C. W. McCurdy,  J. B. Neaton,  C. Ochsenfeld,  J. A. Parkhill,  R. Peverati,  
 V. A. Rassolov,  Yihan Shao,  L. V. Slipchenko,  T. Stauch,  R. P. Steele,  
 J. E. Subotnik,  A. J. W. Thom,  A. Tkatchenko,  D. G. Truhlar,  
 T. Van Voorhis,  T. A. Wesolowski,  K. B. Whaley,  H. L. Woodcock III,  
 P. M. Zimmerman,  S. Faraji,  P. M. W. Gill,  M. Head-Gordon,  
 J. M. Herbert,  A. I. Krylov

 Contributors to earlier versions of Q-Chem not listed above: 
 R. D. Adamson,  B. Austin,  R. Baer,  J. Baker,  G. J. O. Beran,  
 K. Brandhorst,  S. T. Brown,  E. F. C. Byrd,  A. K. Chakraborty,  
 G. K. L. Chan,  Chun-Min Chang,  Yunqing Chen,  C.-L. Cheng,  
 Siu Hung Chien,  D. M. Chipman,  D. L. Crittenden,  H. Dachsel,  
 R. J. Doerksen,  A. D. Dutoi,  R. G. Edgar,  J. Fosso-Tande,  
 L. Fusti-Molnar,  D. Ghosh,  A. Ghysels,  A. Golubeva-Zadorozhnaya,  
 J. Gonthier,  M. S. Gordon,  S. R. Gwaltney,  G. Hawkins,  J. E. Herr,  
 A. Heyden,  S. Hirata,  E. G. Hohenstein,  G. Kedziora,  F. J. Keil,  
 C. Kelley,  Jihan Kim,  R. A. King,  R. Z. Khaliullin,  P. P. Korambath,  
 W. Kurlancheek,  A. Laurent,  A. M. Lee,  M. S. Lee,  S. V. Levchenko,  
 Ching Yeh Lin,  D. Liotard,  E. Livshits,  R. C. Lochan,  I. Lotan,  
 L. A. Martinez-Martinez,  P. E. Maslen,  N. Nair,  D. P. O'Neill,  
 D. Neuhauser,  E. Neuscamman,  C. M. Oana,  R. Olivares-Amaya,  R. Olson,  
 T. M. Perrine,  B. Peters,  P. A. Pieniazek,  A. Prociuk,  Y. M. Rhee,  
 J. Ritchie,  M. A. Rohrdanz,  E. Rosta,  N. J. Russ,  H. F. Schaefer III,  
 M. W. Schmidt,  N. E. Schultz,  S. Sharma,  N. Shenvi,  C. D. Sherrill,  
 A. C. Simmonett,  A. Sodt,  T. Stein,  D. Stuck,  K. S. Thanthiriwatte,  
 V. Vanovschi,  L. Vogt,  Tao Wang,  A. Warshel,  M. A. Watson,  
 C. F. Williams,  Q. Wu,  X. Xu,  Jun Yang,  W. Zhang,  Yan Zhao

 Please cite Q-Chem as follows:
 Y. Shao et al., Mol. Phys. 113, 184-215 (2015)
 DOI: 10.1080/00268976.2014.952696

 Q-Chem 5.4.0 for Intel X86 EM64T Linux

 Parts of Q-Chem use Armadillo 9.800.1 (Horizon Scraper).
 http://arma.sourceforge.net/

 Q-Chem begins on Tue Sep 26 19:54:34 2023  

 Host: 
0

     Scratch files written to ./qchem1209305//
 May1621 |scratch|qcdevops|jenkins|workspace|build_RNUM    
 Parallel job on  1  processors
 Processing $rem in /cm/shared/apps/spack/cpu/opt/spack/linux-centos8-zen2/gcc-10.2.0/qchem-5.4-akfmr7b3t57bfs6qan3padb2wnb2i7cl/config/preferences:
 Processing $rem in /home/rramji/.qchemrc:
 Symmetry turned off for PCM/SM12/SMD calculation
 Core orbitals will be frozen

 Checking the input file for inconsistencies... 	...done.

 Q-Chem warning in module forms1/BasisType.C, line 2236:

 You are not using the predefined 5D/6D in this basis set.


--------------------------------------------------------------
User input:
--------------------------------------------------------------
$molecule
0 1
C	0.174379	-8.519741	0.208886
C	-0.650052	-7.635967	-0.472151
S	1.377058	-7.651740	1.193717
C	-0.353105	-6.261894	-0.225125
H	-1.458961	-7.954738	-1.141594
C	0.740583	-6.079985	0.692811
C	1.195546	-4.798382	1.039773
C	-1.023267	-5.153542	-0.817634
C	-0.565262	-3.869626	-0.473754
C	0.527745	-3.688927	0.447350
O	-2.054917	-5.481075	-1.644483
O	2.232592	-4.479871	1.869424
C	2.565470	-5.356026	2.939466
H	3.248608	-4.790496	3.601405
H	3.094885	-6.268513	2.587892
H	1.664539	-5.658187	3.516052
C	-2.524564	-4.546999	-2.608813
H	-3.211568	-5.107564	-3.270661
H	-1.692342	-4.131473	-3.216646
H	-3.090211	-3.712085	-2.141184
C	0.823402	-2.314326	0.690319
S	-1.194935	-2.295487	-0.985511
C	0.000000	-1.435180	0.000000
H	1.630024	-1.993211	1.361286
H	0.171719	-9.615985	0.203444
C	0.000000	0.000000	0.000000
S	0.080615	0.895811	1.510732
C	0.216842	2.465231	0.727629
C	0.079127	0.904769	-1.064665
C	0.198659	2.288406	-0.678287
C	0.074988	0.838492	-2.486150
C	0.185097	2.098524	-3.106916
S	0.290501	3.341568	-1.965735
C	0.211932	2.351623	-4.559972
O	0.133545	1.421416	-5.350277
O	0.326994	3.629649	-5.004375
F	-0.018214	-0.271734	-3.246290
C	0.368367	3.986101	-6.334976
H	0.465270	5.086806	-6.370268
H	-0.553140	3.675878	-6.875609
H	1.229874	3.519263	-6.861878
H	0.297091	3.381746	1.321510
$end

$rem
JOBTYPE		SP
EXCHANGE	HF
CORRELATION	pRIMP2
BASIS		cc-pvtz
METHOD		rimp2
AUX_BASIS	rimp2-cc-pvtz
SOLVENT_METHOD	PCM
PURECART	11111
SYMMETRY	false
MEM_TOTAL	110000
SCF_CONVERGENCE = 6
THRESH=10
GUI = 2
$end



$solvent
dielectric 4.90
$end
--------------------------------------------------------------
 ----------------------------------------------------------------
             Standard Nuclear Orientation (Angstroms)
    I     Atom           X                Y                Z
 ----------------------------------------------------------------
    1      C       0.1743790000    -8.5197410000     0.2088860000
    2      C      -0.6500520000    -7.6359670000    -0.4721510000
    3      S       1.3770580000    -7.6517400000     1.1937170000
    4      C      -0.3531050000    -6.2618940000    -0.2251250000
    5      H      -1.4589610000    -7.9547380000    -1.1415940000
    6      C       0.7405830000    -6.0799850000     0.6928110000
    7      C       1.1955460000    -4.7983820000     1.0397730000
    8      C      -1.0232670000    -5.1535420000    -0.8176340000
    9      C      -0.5652620000    -3.8696260000    -0.4737540000
   10      C       0.5277450000    -3.6889270000     0.4473500000
   11      O      -2.0549170000    -5.4810750000    -1.6444830000
   12      O       2.2325920000    -4.4798710000     1.8694240000
   13      C       2.5654700000    -5.3560260000     2.9394660000
   14      H       3.2486080000    -4.7904960000     3.6014050000
   15      H       3.0948850000    -6.2685130000     2.5878920000
   16      H       1.6645390000    -5.6581870000     3.5160520000
   17      C      -2.5245640000    -4.5469990000    -2.6088130000
   18      H      -3.2115680000    -5.1075640000    -3.2706610000
   19      H      -1.6923420000    -4.1314730000    -3.2166460000
   20      H      -3.0902110000    -3.7120850000    -2.1411840000
   21      C       0.8234020000    -2.3143260000     0.6903190000
   22      S      -1.1949350000    -2.2954870000    -0.9855110000
   23      C       0.0000000000    -1.4351800000     0.0000000000
   24      H       1.6300240000    -1.9932110000     1.3612860000
   25      H       0.1717190000    -9.6159850000     0.2034440000
   26      C       0.0000000000     0.0000000000     0.0000000000
   27      S       0.0806150000     0.8958110000     1.5107320000
   28      C       0.2168420000     2.4652310000     0.7276290000
   29      C       0.0791270000     0.9047690000    -1.0646650000
   30      C       0.1986590000     2.2884060000    -0.6782870000
   31      C       0.0749880000     0.8384920000    -2.4861500000
   32      C       0.1850970000     2.0985240000    -3.1069160000
   33      S       0.2905010000     3.3415680000    -1.9657350000
   34      C       0.2119320000     2.3516230000    -4.5599720000
   35      O       0.1335450000     1.4214160000    -5.3502770000
   36      O       0.3269940000     3.6296490000    -5.0043750000
   37      F      -0.0182140000    -0.2717340000    -3.2462900000
   38      C       0.3683670000     3.9861010000    -6.3349760000
   39      H       0.4652700000     5.0868060000    -6.3702680000
   40      H      -0.5531400000     3.6758780000    -6.8756090000
   41      H       1.2298740000     3.5192630000    -6.8618780000
   42      H       0.2970910000     3.3817460000     1.3215100000
 ----------------------------------------------------------------
 Nuclear Repulsion Energy =        3305.68071128 hartrees
 There are      119 alpha and      119 beta electrons
 Requested basis set is cc-pVTZ
 There are 376 shells and 1068 basis functions

 Total QAlloc Memory Limit 110000 MB
 Mega-Array Size       188 MB
 MEM_STATIC part       192 MB
 Discretize the solute cavity surface with Lebedev spheres
	Using 110 Lebedev grid points for each H atom
	Using 194 Lebedev grid points for other atoms
	Atomic van der Waals radii will be scaled by 1.20
 Remove points where switching function is < 1.0e-08
 Keep 2910 surface tesserae and discard 4146 interior tesserae
 Molecular Surface Area = 438.489 Angst**2
 Requested basis set is rimp2-cc-pVTZ
 There are 833 shells and 2903 basis functions
 A cutoff of  1.0D-10 yielded  31189 shell pairs
 There are    239701 function pairs (    311312 Cartesian)
 Smallest overlap matrix eigenvalue = 2.21E-05

 Scale SEOQF with 1.000000e-01/1.000000e-02/1.000000e-02

 Standard Electronic Orientation quadrupole field applied
 Nucleus-field energy     =     0.0000000258 hartrees
 Guess from superposition of atomic densities
 Warning:  Energy on first SCF cycle will be non-variational
 SAD guess density has 238.000000 electrons

 -----------------------------------------------------------------------
  General SCF calculation program by
  Eric Jon Sundstrom, Paul Horn, Yuezhi Mao, Dmitri Zuev, Alec White,
  David Stuck, Shaama M.S., Shane Yost, Joonho Lee, David Small,
  Daniel Levine, Susi Lehtola, Hugh Burton, Evgeny Epifanovsky,
  Bang C. Huynh
 -----------------------------------------------------------------------
 Hartree-Fock
 using 64 threads for integral computing
 -------------------------------------------------------
 OpenMP Integral computing Module                
 Release: version 1.0, May 2013, Q-Chem Inc. Pittsburgh 
 -------------------------------------------------------
 A restricted SCF calculation will be
 performed using DIIS
 SCF converges when DIIS error is below 1.0e-06
 ---------------------------------------
  Cycle       Energy         DIIS error
 ---------------------------------------
    1   -2765.5298910862      1.77e-02  
    2   -2753.8601621927      1.57e-03  
    3   -2754.1993177506      8.83e-04  
    4   -2754.2838050590      2.55e-04  
    5   -2754.2954728370      6.81e-05  
    6   -2754.2965549855      2.37e-05  
    7   -2754.2967971788      1.16e-05  
    8   -2754.2968770425      4.50e-06  
    9   -2754.2968931814      2.00e-06  
   10   -2754.2968955161      8.27e-07  Convergence criterion met
 ---------------------------------------
 SCF time:   CPU 6427.52s  wall 230.00s 

************** Final PCM Free Energy Summary **************
 G_electrostatic  =      -0.01967934 hartree =     -12.34897298 kcal/mol
 G_cavitation     =       0.00000000 hartree =       0.00000000 kcal/mol
 G_dispersion     =       0.00000000 hartree =       0.00000000 kcal/mol
 G_repulsion      =       0.00000000 hartree =       0.00000000 kcal/mol
 --------------------------------------------------
 Non-electrostatic Free Energy =       0.00000000 hartree =       0.00000000 kcal/mol
 Total                         =      -0.01967934 hartree =     -12.34897298 kcal/mol
 --------------------------------------------------
 SCF Energy (H0 + V/2)                       =   -2754.29689552 
 Solute Internal Energy (H0)                 =   -2754.27721617 
 Total Free Energy (H0 + V/2 + non-elec)     =   -2754.29689552 hartree
                                             = -1728347.38788223 kcal/mol
***********************************************************

 SCF   energy in the final basis set =    -2754.2968955161
 Total energy in the final basis set =    -2754.2968955161


 --------------------------------------------------------------
  Generalized many-body perturbation theory program
  by Joonho Lee, Fazle Rob, Xintian Feng, Evgeny Epifanovsky

 No regularization used 
 (reg. param. = 0.0000e+00)
  (P|Q)^-1/2 Time:  CPU 127.44 s  wall 2.09 s

 In RI-MP2 calculation: 
 # of frozen core orbitals: 45

 Components of the RIMP2 correlation energy:
        aaaa    correlation energy =        -0.6708394549 a.u.
        abab    correlation energy =        -3.7117585093 a.u.
        bbbb    correlation energy =        -0.6708394549 a.u.
        non-Brillouin singles      =        -0.0000000000 a.u.
        total same-spin energy     =        -1.3416789099 a.u.
        total opposite-spin energy =        -3.7117585093 a.u.

 Total  RIMP2   correlation energy =        -5.0534374192 a.u.
        RIMP2         total energy =     -2759.3503329353 a.u.

 RI-MP2 Energy Time:  CPU 2732.86 s  wall 43.90 s
 
 --------------------------------------------------------------
 
                    Orbital Energies (a.u.)
 --------------------------------------------------------------
 
 Alpha MOs
 -- Occupied --
-92.0166 -91.9944 -91.9891 -91.9867 -26.3337 -20.6118 -20.5922 -20.5920
-20.5495 -11.4099 -11.3774 -11.3192 -11.3190 -11.3120 -11.2966 -11.2964
-11.2958 -11.2925 -11.2883 -11.2869 -11.2866 -11.2863 -11.2843 -11.2820
-11.2803 -11.2616 -11.2597 -11.2597 -11.2502  -9.0147  -8.9984  -8.9895
 -8.9866  -6.6954  -6.6948  -6.6944  -6.6797  -6.6790  -6.6777  -6.6705
 -6.6698  -6.6688  -6.6676  -6.6670  -6.6661  -1.6471  -1.4715  -1.4163
 -1.4148  -1.3667  -1.2333  -1.1965  -1.1687  -1.1418  -1.0845  -1.0525
 -1.0474  -1.0278  -1.0026  -0.9936  -0.9714  -0.9613  -0.9504  -0.9385
 -0.8960  -0.8690  -0.8513  -0.8074  -0.7910  -0.7878  -0.7749  -0.7658
 -0.7585  -0.7329  -0.7182  -0.7152  -0.7010  -0.6883  -0.6836  -0.6782
 -0.6711  -0.6612  -0.6588  -0.6528  -0.6303  -0.6203  -0.6169  -0.6061
 -0.6015  -0.5943  -0.5859  -0.5749  -0.5702  -0.5676  -0.5564  -0.5520
 -0.5316  -0.5268  -0.5231  -0.5173  -0.5150  -0.5082  -0.5017  -0.4941
 -0.4891  -0.4836  -0.4791  -0.4676  -0.4617  -0.4607  -0.4604  -0.4147
 -0.3978  -0.3870  -0.3582  -0.3499  -0.3205  -0.2863  -0.2540
 -- Virtual --
  0.0204   0.0713   0.1157   0.1250   0.1341   0.1460   0.1494   0.1552
  0.1561   0.1599   0.1686   0.1714   0.1817   0.1847   0.1897   0.1902
  0.2031   0.2044   0.2099   0.2175   0.2208   0.2212   0.2239   0.2268
  0.2330   0.2383   0.2454   0.2545   0.2631   0.2672   0.2716   0.2821
  0.2861   0.3105   0.3234   0.3275   0.3342   0.3407   0.3466   0.3512
  0.3535   0.3603   0.3702   0.3743   0.3760   0.3808   0.3839   0.3867
  0.3896   0.3912   0.4003   0.4080   0.4111   0.4121   0.4189   0.4220
  0.4270   0.4349   0.4420   0.4437   0.4478   0.4482   0.4541   0.4561
  0.4576   0.4615   0.4688   0.4720   0.4799   0.4819   0.4844   0.4901
  0.4948   0.4993   0.5031   0.5071   0.5099   0.5149   0.5199   0.5258
  0.5282   0.5332   0.5343   0.5399   0.5410   0.5463   0.5506   0.5523
  0.5570   0.5584   0.5632   0.5678   0.5692   0.5730   0.5791   0.5817
  0.5841   0.5886   0.5928   0.5966   0.5995   0.6017   0.6074   0.6074
  0.6146   0.6178   0.6208   0.6229   0.6259   0.6280   0.6299   0.6326
  0.6362   0.6406   0.6458   0.6478   0.6545   0.6562   0.6662   0.6673
  0.6735   0.6794   0.6846   0.6868   0.6925   0.6950   0.6992   0.7008
  0.7111   0.7173   0.7176   0.7245   0.7284   0.7399   0.7464   0.7552
  0.7608   0.7679   0.7716   0.7778   0.7851   0.7857   0.7991   0.7997
  0.8013   0.8078   0.8153   0.8209   0.8242   0.8266   0.8405   0.8449
  0.8477   0.8524   0.8617   0.8677   0.8776   0.8816   0.8923   0.8972
  0.9017   0.9041   0.9048   0.9083   0.9098   0.9190   0.9201   0.9282
  0.9289   0.9335   0.9432   0.9467   0.9506   0.9542   0.9641   0.9695
  0.9732   0.9744   0.9801   0.9873   0.9878   0.9959   0.9996   1.0026
  1.0036   1.0136   1.0178   1.0205   1.0221   1.0319   1.0379   1.0384
  1.0488   1.0523   1.0536   1.0625   1.0657   1.0681   1.0726   1.0768
  1.0834   1.0882   1.0935   1.0941   1.0960   1.1055   1.1093   1.1116
  1.1202   1.1263   1.1338   1.1353   1.1452   1.1473   1.1553   1.1570
  1.1687   1.1708   1.1774   1.1788   1.1813   1.1839   1.1900   1.1939
  1.1981   1.2053   1.2144   1.2154   1.2177   1.2202   1.2248   1.2298
  1.2350   1.2398   1.2477   1.2524   1.2595   1.2647   1.2700   1.2743
  1.2807   1.2827   1.2940   1.3044   1.3090   1.3112   1.3162   1.3239
  1.3279   1.3340   1.3418   1.3432   1.3487   1.3550   1.3582   1.3668
  1.3737   1.3821   1.3861   1.3952   1.4003   1.4082   1.4213   1.4244
  1.4365   1.4492   1.4505   1.4648   1.4662   1.4748   1.4827   1.4890
  1.4929   1.4997   1.5059   1.5077   1.5122   1.5131   1.5237   1.5272
  1.5313   1.5364   1.5377   1.5456   1.5485   1.5540   1.5603   1.5631
  1.5683   1.5851   1.5928   1.5953   1.6063   1.6102   1.6238   1.6327
  1.6435   1.6518   1.6577   1.6605   1.6625   1.6694   1.6787   1.6844
  1.6868   1.6958   1.7012   1.7096   1.7155   1.7310   1.7400   1.7516
  1.7601   1.7768   1.7774   1.7841   1.7888   1.7991   1.8103   1.8224
  1.8298   1.8335   1.8354   1.8456   1.8527   1.8612   1.8688   1.8721
  1.8750   1.8902   1.8922   1.9002   1.9068   1.9188   1.9300   1.9354
  1.9392   1.9455   1.9494   1.9522   1.9642   1.9750   1.9823   1.9919
  2.0016   2.0053   2.0121   2.0359   2.0380   2.0458   2.0480   2.0530
  2.0747   2.0856   2.0900   2.1049   2.1118   2.1136   2.1366   2.1454
  2.1526   2.1581   2.1610   2.1702   2.1748   2.1804   2.1901   2.1944
  2.1982   2.2060   2.2063   2.2192   2.2256   2.2328   2.2377   2.2439
  2.2497   2.2579   2.2602   2.2750   2.2785   2.2834   2.2989   2.3032
  2.3108   2.3157   2.3272   2.3327   2.3423   2.3458   2.3516   2.3661
  2.3709   2.3789   2.3864   2.3945   2.3989   2.4065   2.4218   2.4285
  2.4332   2.4404   2.4543   2.4599   2.4668   2.4775   2.4868   2.4927
  2.4996   2.5050   2.5255   2.5295   2.5365   2.5540   2.5623   2.5759
  2.5782   2.5868   2.5888   2.5940   2.6014   2.6162   2.6204   2.6297
  2.6313   2.6337   2.6369   2.6472   2.6523   2.6657   2.6710   2.6733
  2.6820   2.6881   2.6909   2.6982   2.7016   2.7055   2.7088   2.7204
  2.7241   2.7328   2.7366   2.7402   2.7463   2.7520   2.7569   2.7634
  2.7744   2.7826   2.7881   2.7980   2.8027   2.8078   2.8180   2.8216
  2.8287   2.8335   2.8408   2.8467   2.8529   2.8571   2.8707   2.8725
  2.8786   2.8854   2.8889   2.8978   2.9058   2.9115   2.9129   2.9377
  2.9439   2.9519   2.9582   2.9685   2.9769   2.9829   2.9960   3.0063
  3.0072   3.0149   3.0261   3.0315   3.0371   3.0391   3.0419   3.0450
  3.0482   3.0571   3.0709   3.0802   3.0905   3.0913   3.0981   3.1056
  3.1099   3.1130   3.1141   3.1216   3.1290   3.1345   3.1429   3.1449
  3.1545   3.1562   3.1613   3.1690   3.1749   3.1760   3.1802   3.1835
  3.1860   3.1975   3.2044   3.2094   3.2152   3.2178   3.2224   3.2310
  3.2332   3.2422   3.2444   3.2464   3.2516   3.2609   3.2657   3.2725
  3.2744   3.2753   3.2808   3.2888   3.2904   3.2939   3.2976   3.2999
  3.3040   3.3117   3.3228   3.3287   3.3327   3.3367   3.3441   3.3476
  3.3509   3.3547   3.3569   3.3618   3.3635   3.3663   3.3690   3.3733
  3.3847   3.3864   3.3876   3.3950   3.3990   3.4028   3.4075   3.4138
  3.4182   3.4246   3.4346   3.4390   3.4400   3.4455   3.4523   3.4529
  3.4606   3.4620   3.4661   3.4738   3.4765   3.4854   3.4906   3.4975
  3.5004   3.5125   3.5152   3.5193   3.5233   3.5274   3.5317   3.5394
  3.5473   3.5543   3.5561   3.5639   3.5709   3.5742   3.5785   3.5846
  3.5860   3.5920   3.5962   3.6012   3.6029   3.6080   3.6160   3.6183
  3.6303   3.6346   3.6372   3.6486   3.6513   3.6561   3.6571   3.6591
  3.6629   3.6697   3.6732   3.6791   3.6852   3.6892   3.6899   3.6979
  3.7029   3.7108   3.7125   3.7245   3.7277   3.7297   3.7324   3.7365
  3.7431   3.7483   3.7517   3.7567   3.7670   3.7742   3.7774   3.7910
  3.7926   3.7987   3.8028   3.8072   3.8133   3.8235   3.8285   3.8315
  3.8340   3.8471   3.8492   3.8519   3.8572   3.8625   3.8696   3.8750
  3.8818   3.8882   3.8915   3.9023   3.9081   3.9177   3.9215   3.9277
  3.9351   3.9412   3.9495   3.9522   3.9669   3.9704   3.9786   3.9884
  3.9975   4.0001   4.0066   4.0150   4.0177   4.0274   4.0387   4.0422
  4.0446   4.0567   4.0597   4.0683   4.0745   4.0829   4.0854   4.0900
  4.1017   4.1045   4.1137   4.1247   4.1290   4.1429   4.1493   4.1542
  4.1658   4.1698   4.1760   4.1782   4.1856   4.1903   4.1977   4.2021
  4.2074   4.2122   4.2264   4.2357   4.2455   4.2617   4.2723   4.2768
  4.2827   4.2883   4.3137   4.3168   4.3266   4.3374   4.3421   4.3477
  4.3514   4.3553   4.3738   4.3768   4.3797   4.3926   4.3941   4.3951
  4.4065   4.4097   4.4128   4.4207   4.4250   4.4390   4.4420   4.4539
  4.4624   4.4756   4.4835   4.4907   4.4933   4.5040   4.5061   4.5109
  4.5291   4.5337   4.5439   4.5571   4.5587   4.5764   4.5800   4.5965
  4.5991   4.6096   4.6163   4.6278   4.6347   4.6410   4.6441   4.6483
  4.6515   4.6680   4.6701   4.6764   4.6824   4.7001   4.7128   4.7281
  4.7387   4.7447   4.7573   4.7738   4.7803   4.7927   4.8065   4.8077
  4.8201   4.8287   4.8377   4.8542   4.8692   4.9018   4.9123   4.9236
  4.9469   4.9504   4.9537   4.9592   4.9660   4.9817   4.9944   5.0020
  5.0111   5.0120   5.0224   5.0399   5.0510   5.0616   5.0695   5.0870
  5.1052   5.1160   5.1365   5.1505   5.1651   5.1757   5.1851   5.2016
  5.2112   5.2143   5.2309   5.2385   5.2541   5.2593   5.2736   5.2942
  5.2973   5.3044   5.3135   5.3332   5.3367   5.3461   5.3554   5.3652
  5.3739   5.3874   5.3988   5.4039   5.4177   5.4285   5.4595   5.4647
  5.4733   5.4790   5.4927   5.5078   5.5114   5.5268   5.5445   5.5617
  5.5731   5.5848   5.6002   5.6059   5.6181   5.6368   5.6460   5.6777
  5.7207   5.7364   5.7933   5.8011   5.8158   5.8292   5.8544   5.8665
  5.8745   5.8901   5.9269   5.9702   5.9750   5.9860   5.9983   6.0631
  6.0695   6.0887   6.1250   6.1339   6.1667   6.1718   6.1844   6.1861
  6.2368   6.2647   6.2709   6.2738   6.2937   6.3089   6.3198   6.3954
  6.4378   6.4507   6.4840   6.5179   6.5486   6.5559   6.5568   6.6519
  6.6738   6.6773   6.6992   6.7377   6.7438   6.8000   6.8421   6.8609
  6.8830   6.8919   6.9920   7.1188   7.1390   7.1788   7.2115   7.2159
  7.2329   7.3187   7.3270   7.3326   7.3738   7.3772   7.4296   7.4629
  7.4797   7.4869   7.4886   7.5209   7.5500   7.6141   7.7206   7.7704
  7.7963   7.8317   7.9046   7.9189   7.9482   8.0046   8.1053   8.1880
  8.6064   8.9317   9.0113   9.3648   9.5021   9.7012  10.1936  10.7246
 11.2405  11.4355  11.9116  11.9571  12.1288  12.2122  12.3431  12.5786
 12.6617  12.7951  12.9472  13.2362  13.2835  13.5933  13.8455  13.9027
 13.9618  14.0198  14.2454  14.4684  15.1990
 --------------------------------------------------------------
 
          Ground-State Mulliken Net Atomic Charges

     Atom                 Charge (a.u.)
  ----------------------------------------
      1 C                    -0.187085
      2 C                    -0.254002
      3 S                    -0.022103
      4 C                    -0.013249
      5 H                     0.196740
      6 C                    -0.029088
      7 C                     0.245049
      8 C                     0.240917
      9 C                    -0.045903
     10 C                    -0.031339
     11 O                    -0.333574
     12 O                    -0.340019
     13 C                    -0.085754
     14 H                     0.122653
     15 H                     0.091328
     16 H                     0.094115
     17 C                    -0.087440
     18 H                     0.124711
     19 H                     0.096517
     20 H                     0.089464
     21 C                    -0.232772
     22 S                     0.000376
     23 C                    -0.015741
     24 H                     0.199081
     25 H                     0.206686
     26 C                    -0.013833
     27 S                     0.110976
     28 C                    -0.240419
     29 C                    -0.097024
     30 C                    -0.009879
     31 C                     0.388042
     32 C                    -0.150449
     33 S                     0.036937
     34 C                     0.460000
     35 O                    -0.451253
     36 O                    -0.297944
     37 F                    -0.210098
     38 C                    -0.055080
     39 H                     0.116529
     40 H                     0.084387
     41 H                     0.084471
     42 H                     0.215071
  ----------------------------------------
  Sum of atomic charges =     0.000000

 -----------------------------------------------------------------
                    Cartesian Multipole Moments
 -----------------------------------------------------------------
    Charge (ESU x 10^10)
                -0.0000
    Dipole Moment (Debye)
         X       0.0672      Y       1.4126      Z       3.3686
       Tot       3.6534
    Quadrupole Moments (Debye-Ang)
        XX    -192.7158     XY       2.1055     YY    -158.4976
        XZ      11.3021     YZ     -11.7233     ZZ    -190.3966
    Octopole Moments (Debye-Ang^2)
       XXX     -76.5570    XXY     349.5400    XYY     -16.1221
       YYY     884.1936    XXZ     164.6542    XYZ     -65.6181
       YYZ     127.2850    XZZ     -10.3127    YZZ     427.9060
       ZZZ     522.9981
    Hexadecapole Moments (Debye-Ang^3)
      XXXX   -1515.3206   XXXY     221.4489   XXYY   -3895.9435
      XYYY     212.5414   YYYY  -18569.9756   XXXZ    -389.1153
      XXYZ     600.8352   XYYZ     143.8156   YYYZ    1522.7499
      XXZZ   -1281.7441   XYZZ      95.8611   YYZZ   -4061.6434
      XZZZ    -422.6616   YZZZ    1083.8726   ZZZZ   -6601.0021
 -----------------------------------------------------------------
 Total job time:  280.55s(wall), 9454.72s(cpu) 
 Tue Sep 26 19:59:14 2023

        *************************************************************
        *                                                           *
        *  Thank you very much for using Q-Chem.  Have a nice day.  *
        *                                                           *
        *************************************************************


0 sent ACK to 0 
now end server 0 ... 
cleanup process ... done
remove work dirs ./qchem1209305.0 -- ./qchem1209305.0
rm -rf ./qchem1209305.0
rm -rf ./qchem1209305
