You are running Q-Chem version: 5.4.0

#
# job setting
#
local host:  exp-3-12
current dir: /expanse/lustre/projects/csd626/rramji/aromodel/PTB7_fin/Rotation_Test
input file:  fin_bdt_Phi_20_Theta_310_fin_ftt.qcin
output file: 
nprocs     : 1
nthreads   : 64
#
# qchem installation setting
#
QC:          /cm/shared/apps/spack/cpu/opt/spack/linux-centos8-zen2/gcc-10.2.0/qchem-5.4-akfmr7b3t57bfs6qan3padb2wnb2i7cl
QCAUX:       /cm/shared/apps/spack/cpu/opt/spack/linux-centos8-zen2/gcc-10.2.0/qchem-5.4-akfmr7b3t57bfs6qan3padb2wnb2i7cl/qcaux
QCPROG:      /cm/shared/apps/spack/cpu/opt/spack/linux-centos8-zen2/gcc-10.2.0/qchem-5.4-akfmr7b3t57bfs6qan3padb2wnb2i7cl/exe/qcprog.exe
QCPROG_S:    /cm/shared/apps/spack/cpu/opt/spack/linux-centos8-zen2/gcc-10.2.0/qchem-5.4-akfmr7b3t57bfs6qan3padb2wnb2i7cl/exe/qcprog.exe_s
PARALLEL:    -DPARALLEL
QCMPI:       mpich
#
# qchem directory setting
#
qcrun:       qchem3987770
QCSCRATCH:   .
QCLOCALSCR:  
QCTMPDIR:    .
QCFILEPREF:  ./qchem3987770
QCSAVEDIR:   
workdirs:    ./qchem3987770
workdir0:    ./qchem3987770
partmpdirs =  
#
# parallel setting
#
QCRSH:           ssh
QCMPI:           mpich
QCMPIRUN:        /cm/shared/apps/spack/cpu/opt/spack/linux-centos8-zen2/gcc-10.2.0/qchem-5.4-akfmr7b3t57bfs6qan3padb2wnb2i7cl/bin/mpi/mpirun_qchem
QCMACHINEFILE:   ./qchem3987770/hostfile
exp-3-12

#
# env setting
#
exported envs:   QC QCAUX QCSCRATCH QCRUNNAME QCFILEPREF QCPROG QCPROG_S GUIFILE

Running Job 1 of 1 fin_bdt_Phi_20_Theta_310_fin_ftt.qcin
qchem fin_bdt_Phi_20_Theta_310_fin_ftt.qcin_3987770.0 ./qchem3987770/ 1
/cm/shared/apps/spack/cpu/opt/spack/linux-centos8-zen2/gcc-10.2.0/qchem-5.4-akfmr7b3t57bfs6qan3padb2wnb2i7cl/bin/mpi/mpirun_qchem -machinefile ./qchem3987770/hostfile -np 1 /cm/shared/apps/spack/cpu/opt/spack/linux-centos8-zen2/gcc-10.2.0/qchem-5.4-akfmr7b3t57bfs6qan3padb2wnb2i7cl/exe/qcprog.exe fin_bdt_Phi_20_Theta_310_fin_ftt.qcin_3987770.0 ./qchem3987770/

Process 0 of 1 is on exp-3-12 - thread support 0
initial socket setup ...start
initial socket setup ...done 
now start server 0 ... 
                  Welcome to Q-Chem
     A Quantum Leap Into The Future Of Chemistry


 Q-Chem 5.4, Q-Chem, Inc., Pleasanton, CA (2021)

 License issued to: University of California, San Diego (site)

 E. Epifanovsky,  A. T. B. Gilbert,  Xintian Feng,  Joonho Lee,  Yuezhi Mao,  
 N. Mardirossian,  P. Pokhilko,  A. White,  M. Wormit,  M. P. Coons,  
 A. L. Dempwolff,  Zhengting Gan,  D. Hait,  P. R. Horn,  L. D. Jacobson,  
 I. Kaliman,  J. Kussmann,  A. W. Lange,  Ka Un Lao,  D. S. Levine,  Jie Liu,  
 S. C. McKenzie,  A. F. Morrison,  K. Nanda,  F. Plasser,  D. R. Rehn,  
 M. L. Vidal,  Zhi-Qiang You,  Ying Zhu,  B. Alam,  B. Albrecht,  
 A. Aldossary,  E. Alguire,  J. H. Andersen,  D. Barton,  K. Begam,  A. Behn,  
 Y. A. Bernard,  E. J. Berquist,  H. Burton,  A. Carreras,  K. Carter-Fenk,  
 R. Chakraborty,  A. D. Chien,  K. D. Closser,  V. Cofer-Shabica,  
 S. Dasgupta,  Jia Deng,  M. de Wergifosse,  M. Diedenhofen,  Hainam Do,  
 S. Ehlert,  Po-Tung Fang,  S. Fatehi,  Qingguo Feng,  J. Gayvert,  
 Qinghui Ge,  G. Gidofalvi,  M. Goldey,  J. Gomes,  C. Gonzalez-Espinoza,  
 S. Gulania,  A. Gunina,  M. W. D. Hanson-Heine,  P. H. P. Harbach,  
 A. W. Hauser,  M. F. Herbst,  M. Hernandez Vera,  M. Hodecker,  
 Z. C. Holden,  S. Houck,  Xunkun Huang,  Kerwin Hui,  B. C. Huynh,  
 M. Ivanov,  Hyunjun Ji,  Hanjie Jiang,  B. Kaduk,  S. Kaehler,  
 K. Khistyaev,  Jaehoon Kim,  P. Klunzinger,  Z. Koczor-Benda,  
 Joong Hoon Koh,  D. Kosenkov,  L. Koulias,  T. Kowalczyk,  C. M. Krauter,  
 K. Kue,  A. Kunitsa,  T. Kus,  A. Landau,  K. V. Lawler,  D. Lefrancois,  
 S. Lehtola,  Rain Li,  Yi-Pei Li,  Jiashu Liang,  M. Liebenthal,  
 Hung-Hsuan Lin,  You-Sheng Lin,  Fenglai Liu,  Kuan-Yu Liu,  
 M. Loipersberger,  A. Luenser,  A. Manjanath,  P. Manohar,  E. Mansoor,  
 S. F. Manzer,  Shan-Ping Mao,  A. V. Marenich,  T. Markovich,  S. Mason,  
 S. A. Maurer,  P. F. McLaughlin,  M. F. S. J. Menger,  J.-M. Mewes,  
 S. A. Mewes,  P. Morgante,  J. W. Mullinax,  T. S. Nguyen-Beck,  
 K. J. Oosterbaan,  G. Paran,  Alexander C. Paul,  Suranjan K. Paul,  
 F. Pavosevic,  Zheng Pei,  S. Prager,  E. I. Proynov,  E. Ramos,  B. Rana,  
 A. E. Rask,  A. Rettig,  R. M. Richard,  F. Rob,  E. Rossomme,  T. Scheele,  
 M. Scheurer,  M. Schneider,  N. Sergueev,  S. M. Sharada,  W. Skomorowski,  
 D. W. Small,  C. J. Stein,  Yu-Chuan Su,  E. J. Sundstrom,  Zhen Tao,  
 J. Thirman,  T. Tsuchimochi,  N. M. Tubman,  S. P. Veccham,  O. Vydrov,  
 J. Wenzel,  J. Witte,  A. Yamada,  Kun Yao,  S. Yeganeh,  S. R. Yost,  
 A. Zech,  Igor Ying Zhang,  Xing Zhang,  Yu Zhang,  D. Zuev,  
 A. Aspuru-Guzik,  A. T. Bell,  N. A. Besley,  K. B. Bravaya,  B. R. Brooks,  
 D. Casanova,  Jeng-Da Chai,  S. Coriani,  C. J. Cramer,  
 A. E. DePrince, III,  R. A. DiStasio Jr.,  A. Dreuw,  B. D. Dunietz,  
 T. R. Furlani,  W. A. Goddard III,  S. Grimme,  S. Hammes-Schiffer,  
 T. Head-Gordon,  W. J. Hehre,  Chao-Ping Hsu,  T.-C. Jagau,  Yousung Jung,  
 A. Klamt,  Jing Kong,  D. S. Lambrecht,  WanZhen Liang,  N. J. Mayhall,  
 C. W. McCurdy,  J. B. Neaton,  C. Ochsenfeld,  J. A. Parkhill,  R. Peverati,  
 V. A. Rassolov,  Yihan Shao,  L. V. Slipchenko,  T. Stauch,  R. P. Steele,  
 J. E. Subotnik,  A. J. W. Thom,  A. Tkatchenko,  D. G. Truhlar,  
 T. Van Voorhis,  T. A. Wesolowski,  K. B. Whaley,  H. L. Woodcock III,  
 P. M. Zimmerman,  S. Faraji,  P. M. W. Gill,  M. Head-Gordon,  
 J. M. Herbert,  A. I. Krylov

 Contributors to earlier versions of Q-Chem not listed above: 
 R. D. Adamson,  B. Austin,  R. Baer,  J. Baker,  G. J. O. Beran,  
 K. Brandhorst,  S. T. Brown,  E. F. C. Byrd,  A. K. Chakraborty,  
 G. K. L. Chan,  Chun-Min Chang,  Yunqing Chen,  C.-L. Cheng,  
 Siu Hung Chien,  D. M. Chipman,  D. L. Crittenden,  H. Dachsel,  
 R. J. Doerksen,  A. D. Dutoi,  R. G. Edgar,  J. Fosso-Tande,  
 L. Fusti-Molnar,  D. Ghosh,  A. Ghysels,  A. Golubeva-Zadorozhnaya,  
 J. Gonthier,  M. S. Gordon,  S. R. Gwaltney,  G. Hawkins,  J. E. Herr,  
 A. Heyden,  S. Hirata,  E. G. Hohenstein,  G. Kedziora,  F. J. Keil,  
 C. Kelley,  Jihan Kim,  R. A. King,  R. Z. Khaliullin,  P. P. Korambath,  
 W. Kurlancheek,  A. Laurent,  A. M. Lee,  M. S. Lee,  S. V. Levchenko,  
 Ching Yeh Lin,  D. Liotard,  E. Livshits,  R. C. Lochan,  I. Lotan,  
 L. A. Martinez-Martinez,  P. E. Maslen,  N. Nair,  D. P. O'Neill,  
 D. Neuhauser,  E. Neuscamman,  C. M. Oana,  R. Olivares-Amaya,  R. Olson,  
 T. M. Perrine,  B. Peters,  P. A. Pieniazek,  A. Prociuk,  Y. M. Rhee,  
 J. Ritchie,  M. A. Rohrdanz,  E. Rosta,  N. J. Russ,  H. F. Schaefer III,  
 M. W. Schmidt,  N. E. Schultz,  S. Sharma,  N. Shenvi,  C. D. Sherrill,  
 A. C. Simmonett,  A. Sodt,  T. Stein,  D. Stuck,  K. S. Thanthiriwatte,  
 V. Vanovschi,  L. Vogt,  Tao Wang,  A. Warshel,  M. A. Watson,  
 C. F. Williams,  Q. Wu,  X. Xu,  Jun Yang,  W. Zhang,  Yan Zhao

 Please cite Q-Chem as follows:
 Y. Shao et al., Mol. Phys. 113, 184-215 (2015)
 DOI: 10.1080/00268976.2014.952696

 Q-Chem 5.4.0 for Intel X86 EM64T Linux

 Parts of Q-Chem use Armadillo 9.800.1 (Horizon Scraper).
 http://arma.sourceforge.net/

 Q-Chem begins on Sun Sep 24 19:08:53 2023  

 Host: 
0

     Scratch files written to ./qchem3987770//
 May1621 |scratch|qcdevops|jenkins|workspace|build_RNUM    
 Parallel job on  1  processors
 Processing $rem in /cm/shared/apps/spack/cpu/opt/spack/linux-centos8-zen2/gcc-10.2.0/qchem-5.4-akfmr7b3t57bfs6qan3padb2wnb2i7cl/config/preferences:
 Processing $rem in /home/rramji/.qchemrc:
 Symmetry turned off for PCM/SM12/SMD calculation
 Core orbitals will be frozen

 Checking the input file for inconsistencies... 	...done.

 Q-Chem warning in module forms1/BasisType.C, line 2236:

 You are not using the predefined 5D/6D in this basis set.


--------------------------------------------------------------
User input:
--------------------------------------------------------------
$molecule
0 1
C	0.174379	-8.519741	0.208886
C	-0.650052	-7.635967	-0.472151
S	1.377058	-7.651740	1.193717
C	-0.353105	-6.261894	-0.225125
H	-1.458961	-7.954738	-1.141594
C	0.740583	-6.079985	0.692811
C	1.195546	-4.798382	1.039773
C	-1.023267	-5.153542	-0.817634
C	-0.565262	-3.869626	-0.473754
C	0.527745	-3.688927	0.447350
O	-2.054917	-5.481075	-1.644483
O	2.232592	-4.479871	1.869424
C	2.565470	-5.356026	2.939466
H	3.248608	-4.790496	3.601405
H	3.094885	-6.268513	2.587892
H	1.664539	-5.658187	3.516052
C	-2.524564	-4.546999	-2.608813
H	-3.211568	-5.107564	-3.270661
H	-1.692342	-4.131473	-3.216646
H	-3.090211	-3.712085	-2.141184
C	0.823402	-2.314326	0.690319
S	-1.194935	-2.295487	-0.985511
C	0.000000	-1.435180	0.000000
H	1.630024	-1.993211	1.361286
H	0.171719	-9.615985	0.203444
C	0.000000	0.000000	0.000000
S	0.309721	0.844422	1.510732
C	0.847502	2.325108	0.727629
C	0.310602	0.853460	-1.064665
C	0.784173	2.159014	-0.678287
C	0.289451	0.790512	-2.486150
C	0.721927	1.979112	-3.106916
S	1.145464	3.152519	-1.965735
C	0.813355	2.216642	-4.559972
O	0.496884	1.338418	-5.350277
O	1.255274	3.421340	-5.004375
F	-0.087923	-0.257761	-3.246290
C	1.387494	3.754937	-6.334976
H	1.765978	4.793056	-6.370268
H	0.417095	3.693789	-6.875609
H	2.098820	3.081033	-6.861878
H	1.162229	3.189623	1.321510
$end

$rem
JOBTYPE		SP
EXCHANGE	HF
CORRELATION	pRIMP2
BASIS		cc-pvtz
METHOD		rimp2
AUX_BASIS	rimp2-cc-pvtz
SOLVENT_METHOD	PCM
PURECART	11111
SYMMETRY	false
MEM_TOTAL	110000
SCF_CONVERGENCE = 6
THRESH=10
GUI = 2
$end



$solvent
dielectric 4.90
$end
--------------------------------------------------------------
 ----------------------------------------------------------------
             Standard Nuclear Orientation (Angstroms)
    I     Atom           X                Y                Z
 ----------------------------------------------------------------
    1      C       0.1743790000    -8.5197410000     0.2088860000
    2      C      -0.6500520000    -7.6359670000    -0.4721510000
    3      S       1.3770580000    -7.6517400000     1.1937170000
    4      C      -0.3531050000    -6.2618940000    -0.2251250000
    5      H      -1.4589610000    -7.9547380000    -1.1415940000
    6      C       0.7405830000    -6.0799850000     0.6928110000
    7      C       1.1955460000    -4.7983820000     1.0397730000
    8      C      -1.0232670000    -5.1535420000    -0.8176340000
    9      C      -0.5652620000    -3.8696260000    -0.4737540000
   10      C       0.5277450000    -3.6889270000     0.4473500000
   11      O      -2.0549170000    -5.4810750000    -1.6444830000
   12      O       2.2325920000    -4.4798710000     1.8694240000
   13      C       2.5654700000    -5.3560260000     2.9394660000
   14      H       3.2486080000    -4.7904960000     3.6014050000
   15      H       3.0948850000    -6.2685130000     2.5878920000
   16      H       1.6645390000    -5.6581870000     3.5160520000
   17      C      -2.5245640000    -4.5469990000    -2.6088130000
   18      H      -3.2115680000    -5.1075640000    -3.2706610000
   19      H      -1.6923420000    -4.1314730000    -3.2166460000
   20      H      -3.0902110000    -3.7120850000    -2.1411840000
   21      C       0.8234020000    -2.3143260000     0.6903190000
   22      S      -1.1949350000    -2.2954870000    -0.9855110000
   23      C       0.0000000000    -1.4351800000     0.0000000000
   24      H       1.6300240000    -1.9932110000     1.3612860000
   25      H       0.1717190000    -9.6159850000     0.2034440000
   26      C       0.0000000000     0.0000000000     0.0000000000
   27      S       0.3097210000     0.8444220000     1.5107320000
   28      C       0.8475020000     2.3251080000     0.7276290000
   29      C       0.3106020000     0.8534600000    -1.0646650000
   30      C       0.7841730000     2.1590140000    -0.6782870000
   31      C       0.2894510000     0.7905120000    -2.4861500000
   32      C       0.7219270000     1.9791120000    -3.1069160000
   33      S       1.1454640000     3.1525190000    -1.9657350000
   34      C       0.8133550000     2.2166420000    -4.5599720000
   35      O       0.4968840000     1.3384180000    -5.3502770000
   36      O       1.2552740000     3.4213400000    -5.0043750000
   37      F      -0.0879230000    -0.2577610000    -3.2462900000
   38      C       1.3874940000     3.7549370000    -6.3349760000
   39      H       1.7659780000     4.7930560000    -6.3702680000
   40      H       0.4170950000     3.6937890000    -6.8756090000
   41      H       2.0988200000     3.0810330000    -6.8618780000
   42      H       1.1622290000     3.1896230000     1.3215100000
 ----------------------------------------------------------------
 Nuclear Repulsion Energy =        3311.26078371 hartrees
 There are      119 alpha and      119 beta electrons
 Requested basis set is cc-pVTZ
 There are 376 shells and 1068 basis functions

 Total QAlloc Memory Limit 110000 MB
 Mega-Array Size       188 MB
 MEM_STATIC part       192 MB
 Discretize the solute cavity surface with Lebedev spheres
	Using 110 Lebedev grid points for each H atom
	Using 194 Lebedev grid points for other atoms
	Atomic van der Waals radii will be scaled by 1.20
 Remove points where switching function is < 1.0e-08
 Keep 2899 surface tesserae and discard 4157 interior tesserae
 Molecular Surface Area = 438.053 Angst**2
 Requested basis set is rimp2-cc-pVTZ
 There are 833 shells and 2903 basis functions
 A cutoff of  1.0D-10 yielded  31293 shell pairs
 There are    240435 function pairs (    312224 Cartesian)
 Smallest overlap matrix eigenvalue = 2.17E-05

 Scale SEOQF with 1.000000e-01/1.000000e-02/1.000000e-02

 Standard Electronic Orientation quadrupole field applied
 Nucleus-field energy     =     0.0000000277 hartrees
 Guess from superposition of atomic densities
 Warning:  Energy on first SCF cycle will be non-variational
 SAD guess density has 238.000000 electrons

 -----------------------------------------------------------------------
  General SCF calculation program by
  Eric Jon Sundstrom, Paul Horn, Yuezhi Mao, Dmitri Zuev, Alec White,
  David Stuck, Shaama M.S., Shane Yost, Joonho Lee, David Small,
  Daniel Levine, Susi Lehtola, Hugh Burton, Evgeny Epifanovsky,
  Bang C. Huynh
 -----------------------------------------------------------------------
 Hartree-Fock
 using 64 threads for integral computing
 -------------------------------------------------------
 OpenMP Integral computing Module                
 Release: version 1.0, May 2013, Q-Chem Inc. Pittsburgh 
 -------------------------------------------------------
 A restricted SCF calculation will be
 performed using DIIS
 SCF converges when DIIS error is below 1.0e-06
 ---------------------------------------
  Cycle       Energy         DIIS error
 ---------------------------------------
    1   -2765.5394379788      1.77e-02  
    2   -2753.8534742328      1.57e-03  
    3   -2754.1925019478      8.83e-04  
    4   -2754.2769463181      2.55e-04  
    5   -2754.2886209467      6.81e-05  
    6   -2754.2897021597      2.37e-05  
    7   -2754.2899439118      1.16e-05  
    8   -2754.2900238975      4.50e-06  
    9   -2754.2900404808      2.03e-06  
   10   -2754.2900429516      8.44e-07  Convergence criterion met
 ---------------------------------------
 SCF time:   CPU 6765.64s  wall 274.00s 

************** Final PCM Free Energy Summary **************
 G_electrostatic  =      -0.01970784 hartree =     -12.36685608 kcal/mol
 G_cavitation     =       0.00000000 hartree =       0.00000000 kcal/mol
 G_dispersion     =       0.00000000 hartree =       0.00000000 kcal/mol
 G_repulsion      =       0.00000000 hartree =       0.00000000 kcal/mol
 --------------------------------------------------
 Non-electrostatic Free Energy =       0.00000000 hartree =       0.00000000 kcal/mol
 Total                         =      -0.01970784 hartree =     -12.36685608 kcal/mol
 --------------------------------------------------
 SCF Energy (H0 + V/2)                       =   -2754.29004295 
 Solute Internal Energy (H0)                 =   -2754.27033511 
 Total Free Energy (H0 + V/2 + non-elec)     =   -2754.29004295 hartree
                                             = -1728343.08783315 kcal/mol
***********************************************************

 SCF   energy in the final basis set =    -2754.2900429516
 Total energy in the final basis set =    -2754.2900429516


 --------------------------------------------------------------
  Generalized many-body perturbation theory program
  by Joonho Lee, Fazle Rob, Xintian Feng, Evgeny Epifanovsky

 No regularization used 
 (reg. param. = 0.0000e+00)
  (P|Q)^-1/2 Time:  CPU 191.11 s  wall 3.79 s

 In RI-MP2 calculation: 
 # of frozen core orbitals: 45

 Components of the RIMP2 correlation energy:
        aaaa    correlation energy =        -0.6713552638 a.u.
        abab    correlation energy =        -3.7133887929 a.u.
        bbbb    correlation energy =        -0.6713552638 a.u.
        non-Brillouin singles      =        -0.0000000000 a.u.
        total same-spin energy     =        -1.3427105276 a.u.
        total opposite-spin energy =        -3.7133887929 a.u.

 Total  RIMP2   correlation energy =        -5.0560993205 a.u.
        RIMP2         total energy =     -2759.3461422721 a.u.

 RI-MP2 Energy Time:  CPU 3953.89 s  wall 66.72 s
 
 --------------------------------------------------------------
 
                    Orbital Energies (a.u.)
 --------------------------------------------------------------
 
 Alpha MOs
 -- Occupied --
-92.0168 -91.9955 -91.9875 -91.9862 -26.3337 -20.6122 -20.5916 -20.5916
-20.5503 -11.4105 -11.3772 -11.3186 -11.3179 -11.3083 -11.2980 -11.2973
-11.2959 -11.2958 -11.2885 -11.2863 -11.2859 -11.2856 -11.2838 -11.2837
-11.2796 -11.2608 -11.2587 -11.2575 -11.2497  -9.0149  -8.9995  -8.9880
 -8.9861  -6.6956  -6.6950  -6.6946  -6.6808  -6.6801  -6.6788  -6.6689
 -6.6682  -6.6673  -6.6671  -6.6664  -6.6656  -1.6471  -1.4719  -1.4158
 -1.4143  -1.3673  -1.2342  -1.1957  -1.1685  -1.1421  -1.0841  -1.0517
 -1.0479  -1.0283  -1.0018  -0.9932  -0.9718  -0.9606  -0.9499  -0.9386
 -0.8952  -0.8697  -0.8501  -0.8074  -0.7911  -0.7875  -0.7749  -0.7657
 -0.7577  -0.7322  -0.7183  -0.7152  -0.7006  -0.6887  -0.6830  -0.6786
 -0.6718  -0.6609  -0.6584  -0.6524  -0.6297  -0.6198  -0.6163  -0.6066
 -0.6017  -0.5958  -0.5870  -0.5735  -0.5699  -0.5672  -0.5555  -0.5525
 -0.5297  -0.5272  -0.5226  -0.5167  -0.5144  -0.5081  -0.5018  -0.4937
 -0.4888  -0.4848  -0.4774  -0.4663  -0.4617  -0.4612  -0.4597  -0.4155
 -0.3969  -0.3861  -0.3578  -0.3494  -0.3199  -0.2868  -0.2535
 -- Virtual --
  0.0181   0.0716   0.1145   0.1257   0.1348   0.1468   0.1498   0.1556
  0.1560   0.1604   0.1689   0.1724   0.1808   0.1847   0.1884   0.1908
  0.2018   0.2047   0.2088   0.2170   0.2209   0.2214   0.2242   0.2271
  0.2316   0.2385   0.2443   0.2548   0.2622   0.2664   0.2709   0.2786
  0.2860   0.3094   0.3241   0.3269   0.3360   0.3406   0.3461   0.3512
  0.3541   0.3623   0.3678   0.3738   0.3766   0.3802   0.3846   0.3871
  0.3901   0.3907   0.3986   0.4032   0.4102   0.4112   0.4170   0.4217
  0.4229   0.4356   0.4408   0.4427   0.4450   0.4492   0.4506   0.4553
  0.4579   0.4629   0.4694   0.4720   0.4793   0.4819   0.4835   0.4908
  0.4953   0.4998   0.5044   0.5056   0.5092   0.5164   0.5182   0.5250
  0.5274   0.5322   0.5343   0.5382   0.5398   0.5451   0.5533   0.5553
  0.5558   0.5616   0.5650   0.5682   0.5702   0.5733   0.5781   0.5801
  0.5857   0.5880   0.5946   0.5967   0.6006   0.6040   0.6072   0.6107
  0.6153   0.6177   0.6189   0.6234   0.6267   0.6291   0.6309   0.6323
  0.6358   0.6413   0.6455   0.6488   0.6547   0.6565   0.6656   0.6681
  0.6745   0.6787   0.6810   0.6864   0.6891   0.6966   0.6991   0.7025
  0.7113   0.7175   0.7221   0.7229   0.7263   0.7379   0.7467   0.7552
  0.7602   0.7673   0.7689   0.7757   0.7807   0.7860   0.7928   0.7960
  0.8016   0.8100   0.8152   0.8178   0.8223   0.8284   0.8387   0.8428
  0.8491   0.8565   0.8638   0.8667   0.8768   0.8827   0.8877   0.8941
  0.9006   0.9042   0.9059   0.9098   0.9119   0.9196   0.9232   0.9286
  0.9303   0.9338   0.9411   0.9438   0.9514   0.9581   0.9645   0.9690
  0.9702   0.9786   0.9821   0.9877   0.9888   0.9959   0.9988   1.0016
  1.0068   1.0115   1.0151   1.0169   1.0217   1.0325   1.0361   1.0409
  1.0454   1.0489   1.0559   1.0618   1.0659   1.0677   1.0729   1.0809
  1.0843   1.0889   1.0906   1.0949   1.0968   1.1066   1.1097   1.1138
  1.1158   1.1240   1.1343   1.1387   1.1409   1.1444   1.1583   1.1610
  1.1641   1.1691   1.1714   1.1785   1.1822   1.1837   1.1904   1.1912
  1.1974   1.2062   1.2102   1.2151   1.2188   1.2216   1.2240   1.2257
  1.2371   1.2378   1.2427   1.2482   1.2537   1.2644   1.2678   1.2735
  1.2780   1.2813   1.2846   1.2957   1.3070   1.3105   1.3191   1.3224
  1.3301   1.3346   1.3407   1.3435   1.3481   1.3564   1.3580   1.3636
  1.3719   1.3850   1.3869   1.3895   1.4004   1.4040   1.4159   1.4248
  1.4327   1.4444   1.4488   1.4625   1.4696   1.4763   1.4822   1.4886
  1.4940   1.5003   1.5056   1.5111   1.5114   1.5128   1.5197   1.5243
  1.5316   1.5363   1.5381   1.5450   1.5459   1.5537   1.5596   1.5628
  1.5685   1.5851   1.5892   1.5955   1.6059   1.6152   1.6240   1.6315
  1.6429   1.6531   1.6566   1.6582   1.6643   1.6694   1.6789   1.6852
  1.6865   1.6943   1.6989   1.7088   1.7188   1.7300   1.7412   1.7489
  1.7594   1.7680   1.7753   1.7809   1.7858   1.8031   1.8083   1.8215
  1.8285   1.8329   1.8388   1.8452   1.8573   1.8656   1.8671   1.8695
  1.8751   1.8833   1.9009   1.9036   1.9126   1.9211   1.9282   1.9329
  1.9353   1.9460   1.9495   1.9535   1.9684   1.9778   1.9826   1.9961
  2.0006   2.0078   2.0151   2.0297   2.0352   2.0429   2.0474   2.0526
  2.0699   2.0813   2.0949   2.1032   2.1112   2.1205   2.1368   2.1439
  2.1535   2.1580   2.1609   2.1709   2.1745   2.1789   2.1879   2.1923
  2.1967   2.2017   2.2084   2.2211   2.2264   2.2320   2.2364   2.2430
  2.2520   2.2605   2.2634   2.2735   2.2784   2.2800   2.2956   2.3037
  2.3089   2.3146   2.3176   2.3340   2.3365   2.3506   2.3518   2.3608
  2.3696   2.3798   2.3837   2.3955   2.3991   2.4035   2.4204   2.4318
  2.4347   2.4429   2.4543   2.4582   2.4700   2.4755   2.4871   2.4883
  2.5006   2.5056   2.5257   2.5291   2.5367   2.5547   2.5590   2.5710
  2.5776   2.5808   2.5866   2.5995   2.6078   2.6133   2.6217   2.6285
  2.6302   2.6345   2.6381   2.6427   2.6485   2.6585   2.6661   2.6698
  2.6830   2.6879   2.6903   2.6976   2.7014   2.7083   2.7168   2.7229
  2.7251   2.7346   2.7356   2.7398   2.7458   2.7566   2.7660   2.7705
  2.7729   2.7879   2.7902   2.7927   2.7975   2.8094   2.8176   2.8257
  2.8310   2.8347   2.8420   2.8505   2.8561   2.8587   2.8692   2.8739
  2.8757   2.8837   2.8871   2.8922   2.9023   2.9056   2.9152   2.9407
  2.9460   2.9515   2.9597   2.9694   2.9760   2.9828   2.9892   3.0041
  3.0133   3.0157   3.0214   3.0316   3.0372   3.0411   3.0434   3.0479
  3.0511   3.0597   3.0730   3.0764   3.0870   3.0886   3.0924   3.1042
  3.1073   3.1108   3.1168   3.1207   3.1274   3.1295   3.1451   3.1480
  3.1551   3.1563   3.1600   3.1709   3.1752   3.1783   3.1815   3.1838
  3.1887   3.1999   3.2038   3.2085   3.2164   3.2196   3.2216   3.2278
  3.2325   3.2401   3.2422   3.2465   3.2504   3.2620   3.2635   3.2737
  3.2753   3.2815   3.2831   3.2883   3.2915   3.2958   3.2978   3.3076
  3.3094   3.3157   3.3229   3.3288   3.3337   3.3378   3.3453   3.3488
  3.3517   3.3565   3.3581   3.3605   3.3620   3.3672   3.3680   3.3764
  3.3828   3.3888   3.3923   3.3979   3.4002   3.4085   3.4154   3.4228
  3.4256   3.4294   3.4351   3.4410   3.4451   3.4490   3.4508   3.4534
  3.4601   3.4688   3.4698   3.4710   3.4761   3.4857   3.4875   3.4938
  3.5077   3.5095   3.5165   3.5205   3.5253   3.5284   3.5309   3.5361
  3.5430   3.5499   3.5578   3.5628   3.5718   3.5737   3.5817   3.5837
  3.5871   3.5901   3.5975   3.6027   3.6030   3.6142   3.6181   3.6242
  3.6292   3.6340   3.6370   3.6447   3.6488   3.6500   3.6601   3.6636
  3.6666   3.6691   3.6778   3.6826   3.6869   3.6921   3.6961   3.7003
  3.7012   3.7086   3.7122   3.7195   3.7281   3.7306   3.7331   3.7403
  3.7458   3.7495   3.7518   3.7589   3.7660   3.7727   3.7780   3.7889
  3.7929   3.8014   3.8025   3.8056   3.8195   3.8234   3.8276   3.8314
  3.8338   3.8478   3.8503   3.8532   3.8572   3.8636   3.8693   3.8729
  3.8806   3.8905   3.8925   3.8988   3.9066   3.9131   3.9178   3.9250
  3.9330   3.9405   3.9502   3.9533   3.9668   3.9727   3.9776   3.9868
  4.0002   4.0029   4.0059   4.0128   4.0212   4.0226   4.0349   4.0434
  4.0526   4.0558   4.0583   4.0707   4.0758   4.0840   4.0878   4.0904
  4.1013   4.1029   4.1147   4.1200   4.1215   4.1382   4.1484   4.1547
  4.1619   4.1659   4.1735   4.1794   4.1870   4.1904   4.2023   4.2048
  4.2122   4.2148   4.2282   4.2359   4.2426   4.2572   4.2635   4.2748
  4.2819   4.2929   4.3099   4.3120   4.3254   4.3362   4.3395   4.3478
  4.3499   4.3590   4.3712   4.3767   4.3795   4.3929   4.3932   4.3964
  4.4054   4.4090   4.4113   4.4222   4.4255   4.4339   4.4407   4.4534
  4.4586   4.4698   4.4850   4.4889   4.4950   4.5028   4.5069   4.5110
  4.5273   4.5360   4.5462   4.5559   4.5596   4.5762   4.5826   4.5989
  4.6047   4.6065   4.6136   4.6249   4.6271   4.6406   4.6430   4.6491
  4.6557   4.6686   4.6718   4.6750   4.6852   4.6989   4.7120   4.7272
  4.7379   4.7436   4.7563   4.7756   4.7806   4.7850   4.8049   4.8086
  4.8234   4.8307   4.8413   4.8536   4.8677   4.8993   4.9138   4.9233
  4.9427   4.9474   4.9554   4.9626   4.9665   4.9771   4.9912   5.0021
  5.0117   5.0123   5.0171   5.0368   5.0473   5.0619   5.0716   5.0889
  5.1077   5.1318   5.1362   5.1540   5.1637   5.1719   5.1787   5.1989
  5.2057   5.2138   5.2296   5.2318   5.2528   5.2591   5.2626   5.2802
  5.2988   5.3021   5.3139   5.3300   5.3375   5.3468   5.3552   5.3688
  5.3710   5.3864   5.3977   5.4011   5.4137   5.4258   5.4432   5.4641
  5.4731   5.4774   5.4938   5.5082   5.5118   5.5238   5.5417   5.5610
  5.5734   5.5848   5.5963   5.6063   5.6175   5.6354   5.6451   5.6795
  5.7184   5.7345   5.7859   5.8008   5.8159   5.8288   5.8552   5.8635
  5.8751   5.8848   5.9266   5.9696   5.9757   5.9791   5.9976   6.0445
  6.0689   6.0905   6.1232   6.1336   6.1452   6.1718   6.1772   6.1857
  6.2375   6.2501   6.2720   6.2743   6.2938   6.3085   6.3192   6.3847
  6.4352   6.4443   6.4796   6.5094   6.5493   6.5562   6.5563   6.6524
  6.6723   6.6766   6.6974   6.7348   6.7426   6.8000   6.8402   6.8603
  6.8818   6.8926   6.9907   7.1198   7.1388   7.1784   7.2108   7.2164
  7.2335   7.3197   7.3264   7.3321   7.3735   7.3770   7.4294   7.4625
  7.4801   7.4868   7.4892   7.5207   7.5493   7.6109   7.7154   7.7709
  7.7968   7.8312   7.9020   7.9204   7.9486   8.0027   8.0989   8.1781
  8.5179   8.9299   9.0134   9.3640   9.5005   9.7011  10.1827  10.6774
 11.2362  11.4574  11.9268  11.9454  12.1265  12.2044  12.3218  12.5811
 12.6653  12.7740  12.9490  13.2244  13.2765  13.5996  13.8461  13.9035
 13.9453  14.0226  14.1972  14.4823  15.2011
 --------------------------------------------------------------
 
          Ground-State Mulliken Net Atomic Charges

     Atom                 Charge (a.u.)
  ----------------------------------------
      1 C                    -0.188545
      2 C                    -0.253996
      3 S                    -0.023098
      4 C                    -0.014917
      5 H                     0.196547
      6 C                    -0.029646
      7 C                     0.242175
      8 C                     0.243746
      9 C                    -0.047124
     10 C                    -0.027280
     11 O                    -0.333791
     12 O                    -0.340244
     13 C                    -0.085608
     14 H                     0.122380
     15 H                     0.091152
     16 H                     0.093932
     17 C                    -0.087053
     18 H                     0.124523
     19 H                     0.096215
     20 H                     0.089398
     21 C                    -0.232017
     22 S                    -0.001040
     23 C                    -0.021281
     24 H                     0.200353
     25 H                     0.206419
     26 C                    -0.029870
     27 S                     0.108387
     28 C                    -0.226603
     29 C                    -0.078329
     30 C                    -0.012206
     31 C                     0.372031
     32 C                    -0.144741
     33 S                     0.042219
     34 C                     0.457991
     35 O                    -0.449575
     36 O                    -0.297888
     37 F                    -0.208857
     38 C                    -0.054852
     39 H                     0.116594
     40 H                     0.084520
     41 H                     0.084536
     42 H                     0.215446
  ----------------------------------------
  Sum of atomic charges =     0.000000

 -----------------------------------------------------------------
                    Cartesian Multipole Moments
 -----------------------------------------------------------------
    Charge (ESU x 10^10)
                -0.0000
    Dipole Moment (Debye)
         X       1.0154      Y       1.7155      Z       3.2524
       Tot       3.8147
    Quadrupole Moments (Debye-Ang)
        XX    -191.0104     XY       6.0254     YY    -161.5082
        XZ       8.3762     YZ     -11.1471     ZZ    -190.0010
    Octopole Moments (Debye-Ang^2)
       XXX    -207.1958    XXY     368.0172    XYY     -45.8986
       YYY     917.1515    XXZ     158.7121    XYZ     -76.9795
       YYZ     131.9150    XZZ     -24.9351    YZZ     433.0683
       ZZZ     520.4788
    Hexadecapole Moments (Debye-Ang^3)
      XXXX   -1841.0211   XXXY    -114.7015   XXYY   -3865.5363
      XYYY     -64.1992   YYYY  -18404.2773   XXXZ     -29.5183
      XXYZ     548.0060   XYYZ     214.2181   YYYZ    1481.4045
      XXZZ   -1274.6496   XYZZ     109.4018   YYZZ   -4069.7084
      XZZZ    -240.4476   YZZZ    1037.8707   ZZZZ   -6588.6803
 -----------------------------------------------------------------
 Total job time:  345.32s(wall), 10861.55s(cpu) 
 Sun Sep 24 19:14:38 2023

        *************************************************************
        *                                                           *
        *  Thank you very much for using Q-Chem.  Have a nice day.  *
        *                                                           *
        *************************************************************


0 sent ACK to 0 
now end server 0 ... 
cleanup process ... done
remove work dirs ./qchem3987770.0 -- ./qchem3987770.0
rm -rf ./qchem3987770.0
rm -rf ./qchem3987770
