You are running Q-Chem version: 5.4.0

#
# job setting
#
local host:  exp-4-17
current dir: /expanse/lustre/projects/csd626/rramji/aromodel/PTB7_fin/Rotation_Test
input file:  fin_bdt_Phi_15_Theta_190_fin_ftt.qcin
output file: 
nprocs     : 1
nthreads   : 64
#
# qchem installation setting
#
QC:          /cm/shared/apps/spack/cpu/opt/spack/linux-centos8-zen2/gcc-10.2.0/qchem-5.4-akfmr7b3t57bfs6qan3padb2wnb2i7cl
QCAUX:       /cm/shared/apps/spack/cpu/opt/spack/linux-centos8-zen2/gcc-10.2.0/qchem-5.4-akfmr7b3t57bfs6qan3padb2wnb2i7cl/qcaux
QCPROG:      /cm/shared/apps/spack/cpu/opt/spack/linux-centos8-zen2/gcc-10.2.0/qchem-5.4-akfmr7b3t57bfs6qan3padb2wnb2i7cl/exe/qcprog.exe
QCPROG_S:    /cm/shared/apps/spack/cpu/opt/spack/linux-centos8-zen2/gcc-10.2.0/qchem-5.4-akfmr7b3t57bfs6qan3padb2wnb2i7cl/exe/qcprog.exe_s
PARALLEL:    -DPARALLEL
QCMPI:       mpich
#
# qchem directory setting
#
qcrun:       qchem1304010
QCSCRATCH:   .
QCLOCALSCR:  
QCTMPDIR:    .
QCFILEPREF:  ./qchem1304010
QCSAVEDIR:   
workdirs:    ./qchem1304010
workdir0:    ./qchem1304010
partmpdirs =  
#
# parallel setting
#
QCRSH:           ssh
QCMPI:           mpich
QCMPIRUN:        /cm/shared/apps/spack/cpu/opt/spack/linux-centos8-zen2/gcc-10.2.0/qchem-5.4-akfmr7b3t57bfs6qan3padb2wnb2i7cl/bin/mpi/mpirun_qchem
QCMACHINEFILE:   ./qchem1304010/hostfile
exp-4-17

#
# env setting
#
exported envs:   QC QCAUX QCSCRATCH QCRUNNAME QCFILEPREF QCPROG QCPROG_S GUIFILE

Running Job 1 of 1 fin_bdt_Phi_15_Theta_190_fin_ftt.qcin
qchem fin_bdt_Phi_15_Theta_190_fin_ftt.qcin_1304010.0 ./qchem1304010/ 1
/cm/shared/apps/spack/cpu/opt/spack/linux-centos8-zen2/gcc-10.2.0/qchem-5.4-akfmr7b3t57bfs6qan3padb2wnb2i7cl/bin/mpi/mpirun_qchem -machinefile ./qchem1304010/hostfile -np 1 /cm/shared/apps/spack/cpu/opt/spack/linux-centos8-zen2/gcc-10.2.0/qchem-5.4-akfmr7b3t57bfs6qan3padb2wnb2i7cl/exe/qcprog.exe fin_bdt_Phi_15_Theta_190_fin_ftt.qcin_1304010.0 ./qchem1304010/

Process 0 of 1 is on exp-4-17 - thread support 0
initial socket setup ...start
initial socket setup ...done 
now start server 0 ... 
                  Welcome to Q-Chem
     A Quantum Leap Into The Future Of Chemistry


 Q-Chem 5.4, Q-Chem, Inc., Pleasanton, CA (2021)

 License issued to: University of California, San Diego (site)

 E. Epifanovsky,  A. T. B. Gilbert,  Xintian Feng,  Joonho Lee,  Yuezhi Mao,  
 N. Mardirossian,  P. Pokhilko,  A. White,  M. Wormit,  M. P. Coons,  
 A. L. Dempwolff,  Zhengting Gan,  D. Hait,  P. R. Horn,  L. D. Jacobson,  
 I. Kaliman,  J. Kussmann,  A. W. Lange,  Ka Un Lao,  D. S. Levine,  Jie Liu,  
 S. C. McKenzie,  A. F. Morrison,  K. Nanda,  F. Plasser,  D. R. Rehn,  
 M. L. Vidal,  Zhi-Qiang You,  Ying Zhu,  B. Alam,  B. Albrecht,  
 A. Aldossary,  E. Alguire,  J. H. Andersen,  D. Barton,  K. Begam,  A. Behn,  
 Y. A. Bernard,  E. J. Berquist,  H. Burton,  A. Carreras,  K. Carter-Fenk,  
 R. Chakraborty,  A. D. Chien,  K. D. Closser,  V. Cofer-Shabica,  
 S. Dasgupta,  Jia Deng,  M. de Wergifosse,  M. Diedenhofen,  Hainam Do,  
 S. Ehlert,  Po-Tung Fang,  S. Fatehi,  Qingguo Feng,  J. Gayvert,  
 Qinghui Ge,  G. Gidofalvi,  M. Goldey,  J. Gomes,  C. Gonzalez-Espinoza,  
 S. Gulania,  A. Gunina,  M. W. D. Hanson-Heine,  P. H. P. Harbach,  
 A. W. Hauser,  M. F. Herbst,  M. Hernandez Vera,  M. Hodecker,  
 Z. C. Holden,  S. Houck,  Xunkun Huang,  Kerwin Hui,  B. C. Huynh,  
 M. Ivanov,  Hyunjun Ji,  Hanjie Jiang,  B. Kaduk,  S. Kaehler,  
 K. Khistyaev,  Jaehoon Kim,  P. Klunzinger,  Z. Koczor-Benda,  
 Joong Hoon Koh,  D. Kosenkov,  L. Koulias,  T. Kowalczyk,  C. M. Krauter,  
 K. Kue,  A. Kunitsa,  T. Kus,  A. Landau,  K. V. Lawler,  D. Lefrancois,  
 S. Lehtola,  Rain Li,  Yi-Pei Li,  Jiashu Liang,  M. Liebenthal,  
 Hung-Hsuan Lin,  You-Sheng Lin,  Fenglai Liu,  Kuan-Yu Liu,  
 M. Loipersberger,  A. Luenser,  A. Manjanath,  P. Manohar,  E. Mansoor,  
 S. F. Manzer,  Shan-Ping Mao,  A. V. Marenich,  T. Markovich,  S. Mason,  
 S. A. Maurer,  P. F. McLaughlin,  M. F. S. J. Menger,  J.-M. Mewes,  
 S. A. Mewes,  P. Morgante,  J. W. Mullinax,  T. S. Nguyen-Beck,  
 K. J. Oosterbaan,  G. Paran,  Alexander C. Paul,  Suranjan K. Paul,  
 F. Pavosevic,  Zheng Pei,  S. Prager,  E. I. Proynov,  E. Ramos,  B. Rana,  
 A. E. Rask,  A. Rettig,  R. M. Richard,  F. Rob,  E. Rossomme,  T. Scheele,  
 M. Scheurer,  M. Schneider,  N. Sergueev,  S. M. Sharada,  W. Skomorowski,  
 D. W. Small,  C. J. Stein,  Yu-Chuan Su,  E. J. Sundstrom,  Zhen Tao,  
 J. Thirman,  T. Tsuchimochi,  N. M. Tubman,  S. P. Veccham,  O. Vydrov,  
 J. Wenzel,  J. Witte,  A. Yamada,  Kun Yao,  S. Yeganeh,  S. R. Yost,  
 A. Zech,  Igor Ying Zhang,  Xing Zhang,  Yu Zhang,  D. Zuev,  
 A. Aspuru-Guzik,  A. T. Bell,  N. A. Besley,  K. B. Bravaya,  B. R. Brooks,  
 D. Casanova,  Jeng-Da Chai,  S. Coriani,  C. J. Cramer,  
 A. E. DePrince, III,  R. A. DiStasio Jr.,  A. Dreuw,  B. D. Dunietz,  
 T. R. Furlani,  W. A. Goddard III,  S. Grimme,  S. Hammes-Schiffer,  
 T. Head-Gordon,  W. J. Hehre,  Chao-Ping Hsu,  T.-C. Jagau,  Yousung Jung,  
 A. Klamt,  Jing Kong,  D. S. Lambrecht,  WanZhen Liang,  N. J. Mayhall,  
 C. W. McCurdy,  J. B. Neaton,  C. Ochsenfeld,  J. A. Parkhill,  R. Peverati,  
 V. A. Rassolov,  Yihan Shao,  L. V. Slipchenko,  T. Stauch,  R. P. Steele,  
 J. E. Subotnik,  A. J. W. Thom,  A. Tkatchenko,  D. G. Truhlar,  
 T. Van Voorhis,  T. A. Wesolowski,  K. B. Whaley,  H. L. Woodcock III,  
 P. M. Zimmerman,  S. Faraji,  P. M. W. Gill,  M. Head-Gordon,  
 J. M. Herbert,  A. I. Krylov

 Contributors to earlier versions of Q-Chem not listed above: 
 R. D. Adamson,  B. Austin,  R. Baer,  J. Baker,  G. J. O. Beran,  
 K. Brandhorst,  S. T. Brown,  E. F. C. Byrd,  A. K. Chakraborty,  
 G. K. L. Chan,  Chun-Min Chang,  Yunqing Chen,  C.-L. Cheng,  
 Siu Hung Chien,  D. M. Chipman,  D. L. Crittenden,  H. Dachsel,  
 R. J. Doerksen,  A. D. Dutoi,  R. G. Edgar,  J. Fosso-Tande,  
 L. Fusti-Molnar,  D. Ghosh,  A. Ghysels,  A. Golubeva-Zadorozhnaya,  
 J. Gonthier,  M. S. Gordon,  S. R. Gwaltney,  G. Hawkins,  J. E. Herr,  
 A. Heyden,  S. Hirata,  E. G. Hohenstein,  G. Kedziora,  F. J. Keil,  
 C. Kelley,  Jihan Kim,  R. A. King,  R. Z. Khaliullin,  P. P. Korambath,  
 W. Kurlancheek,  A. Laurent,  A. M. Lee,  M. S. Lee,  S. V. Levchenko,  
 Ching Yeh Lin,  D. Liotard,  E. Livshits,  R. C. Lochan,  I. Lotan,  
 L. A. Martinez-Martinez,  P. E. Maslen,  N. Nair,  D. P. O'Neill,  
 D. Neuhauser,  E. Neuscamman,  C. M. Oana,  R. Olivares-Amaya,  R. Olson,  
 T. M. Perrine,  B. Peters,  P. A. Pieniazek,  A. Prociuk,  Y. M. Rhee,  
 J. Ritchie,  M. A. Rohrdanz,  E. Rosta,  N. J. Russ,  H. F. Schaefer III,  
 M. W. Schmidt,  N. E. Schultz,  S. Sharma,  N. Shenvi,  C. D. Sherrill,  
 A. C. Simmonett,  A. Sodt,  T. Stein,  D. Stuck,  K. S. Thanthiriwatte,  
 V. Vanovschi,  L. Vogt,  Tao Wang,  A. Warshel,  M. A. Watson,  
 C. F. Williams,  Q. Wu,  X. Xu,  Jun Yang,  W. Zhang,  Yan Zhao

 Please cite Q-Chem as follows:
 Y. Shao et al., Mol. Phys. 113, 184-215 (2015)
 DOI: 10.1080/00268976.2014.952696

 Q-Chem 5.4.0 for Intel X86 EM64T Linux

 Parts of Q-Chem use Armadillo 9.800.1 (Horizon Scraper).
 http://arma.sourceforge.net/

 Q-Chem begins on Tue Sep 26 19:06:03 2023  

 Host: 
0

     Scratch files written to ./qchem1304010//
 May1621 |scratch|qcdevops|jenkins|workspace|build_RNUM    
 Parallel job on  1  processors
 Processing $rem in /cm/shared/apps/spack/cpu/opt/spack/linux-centos8-zen2/gcc-10.2.0/qchem-5.4-akfmr7b3t57bfs6qan3padb2wnb2i7cl/config/preferences:
 Processing $rem in /home/rramji/.qchemrc:
 Symmetry turned off for PCM/SM12/SMD calculation
 Core orbitals will be frozen

 Checking the input file for inconsistencies... 	...done.

 Q-Chem warning in module forms1/BasisType.C, line 2236:

 You are not using the predefined 5D/6D in this basis set.


--------------------------------------------------------------
User input:
--------------------------------------------------------------
$molecule
0 1
C	0.093711	-8.519741	-0.255459
C	-0.083869	-7.635967	0.799036
S	0.345260	-7.651740	-1.789425
C	-0.018411	-6.261894	0.418360
H	-0.259169	-7.954738	1.834294
C	0.229701	-6.079985	-0.987769
C	0.302697	-4.798382	-1.555260
C	-0.196459	-5.153542	1.294992
C	-0.127651	-3.869626	0.726408
C	0.123544	-3.688927	-0.680716
O	-0.396706	-5.481075	2.601852
O	0.502673	-4.479871	-2.868193
C	1.262918	-5.356026	-3.691495
H	1.494604	-4.790496	-4.614080
H	0.693738	-6.268513	-3.974195
H	2.212720	-5.658187	-3.199559
C	-0.997016	-4.546999	3.490743
H	-1.226691	-5.107564	4.416630
H	-1.939526	-4.131473	3.073934
H	-0.309214	-3.712085	3.746794
C	0.186133	-2.314326	-1.058247
S	-0.256010	-2.295487	1.527599
C	0.000000	-1.435180	0.000000
H	0.363896	-1.993211	-2.092285
H	0.090328	-9.615985	-0.250435
C	0.000000	0.000000	0.000000
S	0.234946	0.868203	1.510732
C	0.641630	2.390125	0.727629
C	0.235036	0.877284	-1.064665
C	0.593019	2.219143	-0.678287
C	0.219452	0.812732	-2.486150
C	0.546689	2.034501	-3.106916
S	0.866345	3.240357	-1.965735
C	0.617067	2.279095	-4.559972
O	0.378342	1.376631	-5.350277
O	0.952308	3.517725	-5.004375
F	-0.065123	-0.264443	-3.246290
C	1.054950	3.861577	-6.334976
H	1.341516	4.928732	-6.370268
H	0.093573	3.716085	-6.875609
H	1.822303	3.252232	-6.861878
H	0.879812	3.278780	1.321510
$end

$rem
JOBTYPE		SP
EXCHANGE	HF
CORRELATION	pRIMP2
BASIS		cc-pvtz
METHOD		rimp2
AUX_BASIS	rimp2-cc-pvtz
SOLVENT_METHOD	PCM
PURECART	11111
SYMMETRY	false
MEM_TOTAL	110000
SCF_CONVERGENCE = 6
THRESH=10
GUI = 2
$end



$solvent
dielectric 4.90
$end
--------------------------------------------------------------
 ----------------------------------------------------------------
             Standard Nuclear Orientation (Angstroms)
    I     Atom           X                Y                Z
 ----------------------------------------------------------------
    1      C       0.0937110000    -8.5197410000    -0.2554590000
    2      C      -0.0838690000    -7.6359670000     0.7990360000
    3      S       0.3452600000    -7.6517400000    -1.7894250000
    4      C      -0.0184110000    -6.2618940000     0.4183600000
    5      H      -0.2591690000    -7.9547380000     1.8342940000
    6      C       0.2297010000    -6.0799850000    -0.9877690000
    7      C       0.3026970000    -4.7983820000    -1.5552600000
    8      C      -0.1964590000    -5.1535420000     1.2949920000
    9      C      -0.1276510000    -3.8696260000     0.7264080000
   10      C       0.1235440000    -3.6889270000    -0.6807160000
   11      O      -0.3967060000    -5.4810750000     2.6018520000
   12      O       0.5026730000    -4.4798710000    -2.8681930000
   13      C       1.2629180000    -5.3560260000    -3.6914950000
   14      H       1.4946040000    -4.7904960000    -4.6140800000
   15      H       0.6937380000    -6.2685130000    -3.9741950000
   16      H       2.2127200000    -5.6581870000    -3.1995590000
   17      C      -0.9970160000    -4.5469990000     3.4907430000
   18      H      -1.2266910000    -5.1075640000     4.4166300000
   19      H      -1.9395260000    -4.1314730000     3.0739340000
   20      H      -0.3092140000    -3.7120850000     3.7467940000
   21      C       0.1861330000    -2.3143260000    -1.0582470000
   22      S      -0.2560100000    -2.2954870000     1.5275990000
   23      C       0.0000000000    -1.4351800000     0.0000000000
   24      H       0.3638960000    -1.9932110000    -2.0922850000
   25      H       0.0903280000    -9.6159850000    -0.2504350000
   26      C       0.0000000000     0.0000000000     0.0000000000
   27      S       0.2349460000     0.8682030000     1.5107320000
   28      C       0.6416300000     2.3901250000     0.7276290000
   29      C       0.2350360000     0.8772840000    -1.0646650000
   30      C       0.5930190000     2.2191430000    -0.6782870000
   31      C       0.2194520000     0.8127320000    -2.4861500000
   32      C       0.5466890000     2.0345010000    -3.1069160000
   33      S       0.8663450000     3.2403570000    -1.9657350000
   34      C       0.6170670000     2.2790950000    -4.5599720000
   35      O       0.3783420000     1.3766310000    -5.3502770000
   36      O       0.9523080000     3.5177250000    -5.0043750000
   37      F      -0.0651230000    -0.2644430000    -3.2462900000
   38      C       1.0549500000     3.8615770000    -6.3349760000
   39      H       1.3415160000     4.9287320000    -6.3702680000
   40      H       0.0935730000     3.7160850000    -6.8756090000
   41      H       1.8223030000     3.2522320000    -6.8618780000
   42      H       0.8798120000     3.2787800000     1.3215100000
 ----------------------------------------------------------------
 Nuclear Repulsion Energy =        3313.66198978 hartrees
 There are      119 alpha and      119 beta electrons
 Requested basis set is cc-pVTZ
 There are 376 shells and 1068 basis functions

 Total QAlloc Memory Limit 110000 MB
 Mega-Array Size       188 MB
 MEM_STATIC part       192 MB
 Discretize the solute cavity surface with Lebedev spheres
	Using 110 Lebedev grid points for each H atom
	Using 194 Lebedev grid points for other atoms
	Atomic van der Waals radii will be scaled by 1.20
 Remove points where switching function is < 1.0e-08
 Keep 2875 surface tesserae and discard 4181 interior tesserae
 Molecular Surface Area = 433.857 Angst**2
 Requested basis set is rimp2-cc-pVTZ
 There are 833 shells and 2903 basis functions
 A cutoff of  1.0D-10 yielded  31509 shell pairs
 There are    241725 function pairs (    313786 Cartesian)
 Smallest overlap matrix eigenvalue = 2.08E-05

 Scale SEOQF with 1.000000e-01/1.000000e-02/1.000000e-02

 Standard Electronic Orientation quadrupole field applied
 Nucleus-field energy     =     0.0000000153 hartrees
 Guess from superposition of atomic densities
 Warning:  Energy on first SCF cycle will be non-variational
 SAD guess density has 238.000000 electrons

 -----------------------------------------------------------------------
  General SCF calculation program by
  Eric Jon Sundstrom, Paul Horn, Yuezhi Mao, Dmitri Zuev, Alec White,
  David Stuck, Shaama M.S., Shane Yost, Joonho Lee, David Small,
  Daniel Levine, Susi Lehtola, Hugh Burton, Evgeny Epifanovsky,
  Bang C. Huynh
 -----------------------------------------------------------------------
 Hartree-Fock
 using 64 threads for integral computing
 -------------------------------------------------------
 OpenMP Integral computing Module                
 Release: version 1.0, May 2013, Q-Chem Inc. Pittsburgh 
 -------------------------------------------------------
 A restricted SCF calculation will be
 performed using DIIS
 SCF converges when DIIS error is below 1.0e-06
 ---------------------------------------
  Cycle       Energy         DIIS error
 ---------------------------------------
    1   -2765.5708892208      1.77e-02  
    2   -2753.8548338976      1.57e-03  
    3   -2754.1957011452      8.81e-04  
    4   -2754.2800374660      2.55e-04  
    5   -2754.2917184748      6.85e-05  
    6   -2754.2928183180      2.41e-05  
    7   -2754.2930661964      1.16e-05  
    8   -2754.2931484337      4.51e-06  
    9   -2754.2931647174      1.92e-06  
   10   -2754.2931670784      8.27e-07  Convergence criterion met
 ---------------------------------------
 SCF time:   CPU 6860.66s  wall 260.00s 

************** Final PCM Free Energy Summary **************
 G_electrostatic  =      -0.01895515 hartree =     -11.89453765 kcal/mol
 G_cavitation     =       0.00000000 hartree =       0.00000000 kcal/mol
 G_dispersion     =       0.00000000 hartree =       0.00000000 kcal/mol
 G_repulsion      =       0.00000000 hartree =       0.00000000 kcal/mol
 --------------------------------------------------
 Non-electrostatic Free Energy =       0.00000000 hartree =       0.00000000 kcal/mol
 Total                         =      -0.01895515 hartree =     -11.89453765 kcal/mol
 --------------------------------------------------
 SCF Energy (H0 + V/2)                       =   -2754.29316708 
 Solute Internal Energy (H0)                 =   -2754.27421193 
 Total Free Energy (H0 + V/2 + non-elec)     =   -2754.29316708 hartree
                                             = -1728345.04825227 kcal/mol
***********************************************************

 SCF   energy in the final basis set =    -2754.2931670784
 Total energy in the final basis set =    -2754.2931670784


 --------------------------------------------------------------
  Generalized many-body perturbation theory program
  by Joonho Lee, Fazle Rob, Xintian Feng, Evgeny Epifanovsky

 No regularization used 
 (reg. param. = 0.0000e+00)
  (P|Q)^-1/2 Time:  CPU 216.58 s  wall 4.04 s

 In RI-MP2 calculation: 
 # of frozen core orbitals: 45

 Components of the RIMP2 correlation energy:
        aaaa    correlation energy =        -0.6717448969 a.u.
        abab    correlation energy =        -3.7130768066 a.u.
        bbbb    correlation energy =        -0.6717448969 a.u.
        non-Brillouin singles      =        -0.0000000000 a.u.
        total same-spin energy     =        -1.3434897938 a.u.
        total opposite-spin energy =        -3.7130768066 a.u.

 Total  RIMP2   correlation energy =        -5.0565666004 a.u.
        RIMP2         total energy =     -2759.3497336787 a.u.

 RI-MP2 Energy Time:  CPU 2847.03 s  wall 47.28 s
 
 --------------------------------------------------------------
 
                    Orbital Energies (a.u.)
 --------------------------------------------------------------
 
 Alpha MOs
 -- Occupied --
-92.0162 -91.9958 -91.9904 -91.9870 -26.3382 -20.6120 -20.5930 -20.5915
-20.5499 -11.4103 -11.3787 -11.3201 -11.3192 -11.3127 -11.2979 -11.2973
-11.2965 -11.2936 -11.2885 -11.2880 -11.2878 -11.2855 -11.2847 -11.2814
-11.2806 -11.2620 -11.2603 -11.2569 -11.2504  -9.0147  -8.9998  -8.9911
 -8.9869  -6.6955  -6.6949  -6.6944  -6.6810  -6.6803  -6.6790  -6.6722
 -6.6715  -6.6705  -6.6678  -6.6672  -6.6664  -1.6525  -1.4718  -1.4171
 -1.4142  -1.3671  -1.2343  -1.1972  -1.1699  -1.1428  -1.0849  -1.0530
 -1.0486  -1.0285  -1.0037  -0.9941  -0.9727  -0.9611  -0.9508  -0.9386
 -0.8971  -0.8700  -0.8518  -0.8069  -0.7966  -0.7889  -0.7725  -0.7700
 -0.7580  -0.7336  -0.7220  -0.7194  -0.7018  -0.6898  -0.6845  -0.6786
 -0.6728  -0.6624  -0.6596  -0.6526  -0.6292  -0.6202  -0.6159  -0.6065
 -0.6006  -0.5947  -0.5879  -0.5760  -0.5697  -0.5610  -0.5536  -0.5483
 -0.5366  -0.5274  -0.5253  -0.5188  -0.5174  -0.5095  -0.5058  -0.4969
 -0.4866  -0.4845  -0.4794  -0.4676  -0.4619  -0.4614  -0.4587  -0.4247
 -0.3985  -0.3859  -0.3597  -0.3509  -0.3258  -0.2847  -0.2473
 -- Virtual --
  0.0083   0.0800   0.1169   0.1238   0.1257   0.1479   0.1508   0.1550
  0.1558   0.1609   0.1618   0.1801   0.1858   0.1876   0.1949   0.1983
  0.2039   0.2089   0.2132   0.2174   0.2217   0.2231   0.2241   0.2304
  0.2357   0.2478   0.2518   0.2579   0.2642   0.2702   0.2769   0.2829
  0.3038   0.3107   0.3248   0.3337   0.3371   0.3440   0.3507   0.3515
  0.3607   0.3635   0.3715   0.3735   0.3793   0.3798   0.3835   0.3855
  0.3880   0.3936   0.3943   0.4079   0.4095   0.4164   0.4217   0.4227
  0.4294   0.4350   0.4359   0.4432   0.4485   0.4489   0.4563   0.4574
  0.4604   0.4681   0.4720   0.4758   0.4774   0.4850   0.4912   0.4924
  0.4988   0.5009   0.5023   0.5104   0.5171   0.5212   0.5235   0.5279
  0.5284   0.5337   0.5354   0.5379   0.5422   0.5514   0.5527   0.5555
  0.5581   0.5595   0.5650   0.5657   0.5677   0.5744   0.5784   0.5791
  0.5848   0.5898   0.5911   0.5965   0.6012   0.6060   0.6080   0.6131
  0.6164   0.6172   0.6195   0.6239   0.6271   0.6304   0.6331   0.6337
  0.6364   0.6405   0.6467   0.6507   0.6545   0.6594   0.6634   0.6691
  0.6729   0.6785   0.6854   0.6884   0.6944   0.6987   0.7064   0.7114
  0.7130   0.7181   0.7300   0.7315   0.7417   0.7445   0.7523   0.7555
  0.7607   0.7662   0.7716   0.7770   0.7826   0.7934   0.7986   0.8011
  0.8097   0.8136   0.8189   0.8240   0.8247   0.8354   0.8465   0.8541
  0.8566   0.8621   0.8662   0.8716   0.8816   0.8837   0.8921   0.8976
  0.9004   0.9047   0.9067   0.9080   0.9192   0.9218   0.9279   0.9320
  0.9362   0.9376   0.9438   0.9473   0.9575   0.9600   0.9676   0.9721
  0.9762   0.9784   0.9852   0.9879   0.9985   1.0005   1.0017   1.0039
  1.0071   1.0096   1.0113   1.0190   1.0287   1.0294   1.0325   1.0378
  1.0490   1.0518   1.0576   1.0618   1.0682   1.0742   1.0768   1.0826
  1.0866   1.0881   1.0948   1.0984   1.1040   1.1072   1.1099   1.1160
  1.1226   1.1257   1.1412   1.1475   1.1520   1.1537   1.1578   1.1607
  1.1653   1.1717   1.1804   1.1829   1.1877   1.1894   1.1919   1.1957
  1.2023   1.2067   1.2141   1.2175   1.2221   1.2237   1.2308   1.2332
  1.2366   1.2394   1.2478   1.2564   1.2606   1.2672   1.2718   1.2743
  1.2765   1.2853   1.2898   1.3003   1.3097   1.3134   1.3205   1.3235
  1.3343   1.3381   1.3459   1.3483   1.3532   1.3574   1.3668   1.3713
  1.3787   1.3813   1.3840   1.3869   1.3973   1.4097   1.4150   1.4182
  1.4342   1.4381   1.4412   1.4552   1.4669   1.4730   1.4829   1.4870
  1.4947   1.4980   1.5038   1.5067   1.5116   1.5131   1.5222   1.5286
  1.5317   1.5369   1.5373   1.5454   1.5521   1.5548   1.5568   1.5690
  1.5774   1.5850   1.5899   1.6008   1.6137   1.6162   1.6252   1.6345
  1.6426   1.6455   1.6501   1.6579   1.6592   1.6729   1.6866   1.6891
  1.6917   1.6956   1.7101   1.7189   1.7269   1.7314   1.7392   1.7475
  1.7608   1.7614   1.7767   1.7816   1.7964   1.8061   1.8150   1.8195
  1.8269   1.8326   1.8401   1.8491   1.8557   1.8659   1.8687   1.8746
  1.8776   1.8881   1.9069   1.9113   1.9148   1.9184   1.9294   1.9321
  1.9369   1.9415   1.9511   1.9614   1.9686   1.9728   1.9823   1.9976
  2.0080   2.0118   2.0194   2.0281   2.0337   2.0430   2.0608   2.0641
  2.0963   2.1007   2.1070   2.1131   2.1216   2.1322   2.1375   2.1416
  2.1511   2.1536   2.1623   2.1699   2.1723   2.1770   2.1895   2.1936
  2.1974   2.2012   2.2159   2.2170   2.2276   2.2335   2.2452   2.2475
  2.2531   2.2574   2.2666   2.2696   2.2800   2.2822   2.2834   2.2934
  2.2949   2.3095   2.3139   2.3204   2.3436   2.3461   2.3499   2.3708
  2.3774   2.3826   2.3859   2.3901   2.4071   2.4228   2.4253   2.4271
  2.4366   2.4407   2.4520   2.4609   2.4683   2.4766   2.4906   2.4950
  2.5082   2.5118   2.5252   2.5291   2.5380   2.5486   2.5586   2.5726
  2.5757   2.5852   2.5910   2.5991   2.6127   2.6169   2.6185   2.6216
  2.6311   2.6368   2.6425   2.6464   2.6542   2.6592   2.6667   2.6715
  2.6721   2.6885   2.6929   2.6970   2.7038   2.7062   2.7111   2.7224
  2.7267   2.7316   2.7344   2.7401   2.7408   2.7508   2.7588   2.7749
  2.7812   2.7854   2.7925   2.8011   2.8062   2.8122   2.8259   2.8287
  2.8337   2.8402   2.8418   2.8468   2.8541   2.8659   2.8723   2.8730
  2.8794   2.8831   2.8863   2.8974   2.9046   2.9206   2.9264   2.9438
  2.9462   2.9581   2.9617   2.9691   2.9742   2.9819   2.9929   2.9974
  3.0071   3.0205   3.0257   3.0323   3.0365   3.0398   3.0447   3.0470
  3.0530   3.0611   3.0697   3.0723   3.0883   3.0913   3.0938   3.1023
  3.1061   3.1154   3.1163   3.1190   3.1291   3.1385   3.1468   3.1501
  3.1558   3.1583   3.1609   3.1673   3.1740   3.1776   3.1847   3.1883
  3.1985   3.1986   3.2068   3.2112   3.2133   3.2200   3.2240   3.2276
  3.2321   3.2410   3.2450   3.2494   3.2568   3.2601   3.2663   3.2704
  3.2766   3.2793   3.2836   3.2866   3.2899   3.2922   3.2958   3.3055
  3.3102   3.3177   3.3257   3.3316   3.3343   3.3383   3.3420   3.3477
  3.3551   3.3574   3.3589   3.3627   3.3655   3.3675   3.3721   3.3790
  3.3798   3.3912   3.3923   3.3948   3.3967   3.4007   3.4070   3.4138
  3.4220   3.4273   3.4311   3.4403   3.4453   3.4463   3.4485   3.4574
  3.4598   3.4671   3.4689   3.4716   3.4759   3.4805   3.4891   3.4955
  3.5000   3.5115   3.5167   3.5179   3.5187   3.5230   3.5311   3.5373
  3.5461   3.5505   3.5561   3.5654   3.5688   3.5790   3.5813   3.5848
  3.5911   3.5953   3.5993   3.6042   3.6054   3.6148   3.6180   3.6224
  3.6320   3.6350   3.6395   3.6430   3.6444   3.6533   3.6566   3.6652
  3.6685   3.6729   3.6750   3.6786   3.6841   3.6903   3.6926   3.7017
  3.7052   3.7102   3.7119   3.7185   3.7259   3.7298   3.7316   3.7365
  3.7392   3.7468   3.7547   3.7586   3.7670   3.7726   3.7798   3.7854
  3.7923   3.7975   3.8038   3.8085   3.8193   3.8239   3.8284   3.8376
  3.8420   3.8443   3.8489   3.8555   3.8641   3.8660   3.8719   3.8729
  3.8817   3.8917   3.8946   3.9026   3.9060   3.9129   3.9182   3.9233
  3.9320   3.9328   3.9484   3.9536   3.9682   3.9688   3.9821   3.9861
  3.9884   3.9978   4.0093   4.0121   4.0208   4.0345   4.0375   4.0467
  4.0506   4.0568   4.0607   4.0675   4.0749   4.0828   4.0891   4.0945
  4.0980   4.1027   4.1173   4.1234   4.1315   4.1415   4.1479   4.1505
  4.1630   4.1671   4.1717   4.1813   4.1879   4.1913   4.1916   4.2056
  4.2108   4.2183   4.2383   4.2403   4.2465   4.2661   4.2672   4.2812
  4.2882   4.2993   4.3145   4.3187   4.3313   4.3368   4.3441   4.3480
  4.3612   4.3671   4.3686   4.3756   4.3781   4.3901   4.3982   4.4033
  4.4096   4.4100   4.4199   4.4261   4.4329   4.4362   4.4468   4.4508
  4.4600   4.4738   4.4893   4.4926   4.4988   4.5035   4.5132   4.5177
  4.5203   4.5385   4.5453   4.5565   4.5574   4.5628   4.5863   4.5946
  4.6059   4.6182   4.6214   4.6308   4.6379   4.6397   4.6446   4.6571
  4.6654   4.6696   4.6773   4.6812   4.6948   4.7056   4.7190   4.7315
  4.7419   4.7459   4.7599   4.7721   4.7765   4.7926   4.7959   4.8073
  4.8240   4.8254   4.8336   4.8583   4.8709   4.8820   4.9145   4.9202
  4.9401   4.9458   4.9532   4.9638   4.9689   4.9946   4.9970   5.0030
  5.0052   5.0122   5.0221   5.0403   5.0496   5.0666   5.0737   5.0812
  5.1043   5.1151   5.1281   5.1595   5.1749   5.1843   5.1913   5.2017
  5.2085   5.2182   5.2274   5.2488   5.2560   5.2593   5.2809   5.2987
  5.3002   5.3126   5.3269   5.3309   5.3436   5.3552   5.3566   5.3720
  5.3800   5.3952   5.4000   5.4079   5.4175   5.4358   5.4632   5.4731
  5.4756   5.4852   5.5037   5.5077   5.5150   5.5230   5.5539   5.5689
  5.5810   5.5872   5.5908   5.6063   5.6180   5.6296   5.6445   5.6993
  5.7325   5.7415   5.7677   5.8009   5.8127   5.8372   5.8539   5.8628
  5.8734   5.8833   5.9619   5.9699   5.9740   5.9791   6.0103   6.0444
  6.0674   6.1207   6.1337   6.1365   6.1668   6.1708   6.1857   6.1871
  6.2423   6.2560   6.2780   6.2810   6.3087   6.3169   6.3221   6.4171
  6.4457   6.4633   6.5002   6.5413   6.5565   6.5573   6.5749   6.6521
  6.6769   6.6862   6.7270   6.7464   6.7592   6.8057   6.8571   6.8607
  6.8850   6.8936   6.9914   7.1206   7.1390   7.1785   7.2116   7.2154
  7.2355   7.3220   7.3269   7.3326   7.3724   7.3820   7.4304   7.4628
  7.4778   7.4875   7.4894   7.5297   7.5501   7.6096   7.7205   7.7667
  7.7970   7.8318   7.9039   7.9217   7.9486   8.0120   8.0873   8.1841
  8.6174   8.9650   9.0444   9.3653   9.5058   9.7213  10.2196  10.6423
 11.2622  11.3144  11.9485  11.9985  12.1385  12.2799  12.3852  12.5929
 12.6544  12.8125  12.9899  13.2029  13.2941  13.5507  13.8474  13.8804
 13.9036  14.0397  14.1501  14.9326  15.2305
 --------------------------------------------------------------
 
          Ground-State Mulliken Net Atomic Charges

     Atom                 Charge (a.u.)
  ----------------------------------------
      1 C                    -0.186868
      2 C                    -0.254852
      3 S                    -0.020100
      4 C                    -0.014235
      5 H                     0.196467
      6 C                    -0.028895
      7 C                     0.250088
      8 C                     0.242989
      9 C                    -0.037394
     10 C                    -0.033748
     11 O                    -0.333270
     12 O                    -0.338942
     13 C                    -0.086421
     14 H                     0.124194
     15 H                     0.091536
     16 H                     0.093884
     17 C                    -0.088432
     18 H                     0.126228
     19 H                     0.095224
     20 H                     0.089460
     21 C                    -0.210518
     22 S                    -0.041413
     23 C                    -0.024367
     24 H                     0.209389
     25 H                     0.206847
     26 C                     0.002601
     27 S                     0.096739
     28 C                    -0.245351
     29 C                    -0.087346
     30 C                    -0.016968
     31 C                     0.372608
     32 C                    -0.135446
     33 S                     0.042172
     34 C                     0.460545
     35 O                    -0.451201
     36 O                    -0.298055
     37 F                    -0.215249
     38 C                    -0.054908
     39 H                     0.116716
     40 H                     0.084600
     41 H                     0.084324
     42 H                     0.217369
  ----------------------------------------
  Sum of atomic charges =     0.000000

 -----------------------------------------------------------------
                    Cartesian Multipole Moments
 -----------------------------------------------------------------
    Charge (ESU x 10^10)
                 0.0000
    Dipole Moment (Debye)
         X       1.1801      Y       1.2691      Z       3.2137
       Tot       3.6512
    Quadrupole Moments (Debye-Ang)
        XX    -196.8388     XY       2.4775     YY    -157.8706
        XZ     -12.1318     YZ      -9.7827     ZZ    -185.0864
    Octopole Moments (Debye-Ang^2)
       XXX    -154.6589    XXY     384.1729    XYY     -24.1034
       YYY     886.9756    XXZ     185.5671    XYZ      33.2693
       YYZ     133.7947    XZZ     -16.3451    YZZ     403.9544
       ZZZ     594.4122
    Hexadecapole Moments (Debye-Ang^3)
      XXXX    -599.2676   XXXY    -203.4921   XXYY   -3841.7949
      XYYY    -191.0319   YYYY  -18363.3285   XXXZ     651.2127
      XXYZ     296.6444   XYYZ     -74.3032   YYYZ     782.7117
      XXZZ   -1358.3544   XYZZ      40.8760   YYZZ   -4088.5258
      XZZZ     338.7433   YZZZ     237.6426   ZZZZ   -7526.4151
 -----------------------------------------------------------------
 Total job time:  317.66s(wall), 10187.90s(cpu) 
 Tue Sep 26 19:11:21 2023

        *************************************************************
        *                                                           *
        *  Thank you very much for using Q-Chem.  Have a nice day.  *
        *                                                           *
        *************************************************************


0 sent ACK to 0 
now end server 0 ... 
cleanup process ... done
remove work dirs ./qchem1304010.0 -- ./qchem1304010.0
rm -rf ./qchem1304010.0
rm -rf ./qchem1304010
