You are running Q-Chem version: 5.4.0

#
# job setting
#
local host:  exp-2-38
current dir: /expanse/lustre/projects/csd626/rramji/aromodel/PTB7_fin/Rotation_Test
input file:  fin_bdt_Phi_10_Theta_340_fin_ftt.qcin
output file: 
nprocs     : 1
nthreads   : 64
#
# qchem installation setting
#
QC:          /cm/shared/apps/spack/cpu/opt/spack/linux-centos8-zen2/gcc-10.2.0/qchem-5.4-akfmr7b3t57bfs6qan3padb2wnb2i7cl
QCAUX:       /cm/shared/apps/spack/cpu/opt/spack/linux-centos8-zen2/gcc-10.2.0/qchem-5.4-akfmr7b3t57bfs6qan3padb2wnb2i7cl/qcaux
QCPROG:      /cm/shared/apps/spack/cpu/opt/spack/linux-centos8-zen2/gcc-10.2.0/qchem-5.4-akfmr7b3t57bfs6qan3padb2wnb2i7cl/exe/qcprog.exe
QCPROG_S:    /cm/shared/apps/spack/cpu/opt/spack/linux-centos8-zen2/gcc-10.2.0/qchem-5.4-akfmr7b3t57bfs6qan3padb2wnb2i7cl/exe/qcprog.exe_s
PARALLEL:    -DPARALLEL
QCMPI:       mpich
#
# qchem directory setting
#
qcrun:       qchem3776613
QCSCRATCH:   .
QCLOCALSCR:  
QCTMPDIR:    .
QCFILEPREF:  ./qchem3776613
QCSAVEDIR:   
workdirs:    ./qchem3776613
workdir0:    ./qchem3776613
partmpdirs =  
#
# parallel setting
#
QCRSH:           ssh
QCMPI:           mpich
QCMPIRUN:        /cm/shared/apps/spack/cpu/opt/spack/linux-centos8-zen2/gcc-10.2.0/qchem-5.4-akfmr7b3t57bfs6qan3padb2wnb2i7cl/bin/mpi/mpirun_qchem
QCMACHINEFILE:   ./qchem3776613/hostfile
exp-2-38

#
# env setting
#
exported envs:   QC QCAUX QCSCRATCH QCRUNNAME QCFILEPREF QCPROG QCPROG_S GUIFILE

Running Job 1 of 1 fin_bdt_Phi_10_Theta_340_fin_ftt.qcin
qchem fin_bdt_Phi_10_Theta_340_fin_ftt.qcin_3776613.0 ./qchem3776613/ 1
/cm/shared/apps/spack/cpu/opt/spack/linux-centos8-zen2/gcc-10.2.0/qchem-5.4-akfmr7b3t57bfs6qan3padb2wnb2i7cl/bin/mpi/mpirun_qchem -machinefile ./qchem3776613/hostfile -np 1 /cm/shared/apps/spack/cpu/opt/spack/linux-centos8-zen2/gcc-10.2.0/qchem-5.4-akfmr7b3t57bfs6qan3padb2wnb2i7cl/exe/qcprog.exe fin_bdt_Phi_10_Theta_340_fin_ftt.qcin_3776613.0 ./qchem3776613/

Process 0 of 1 is on exp-2-38 - thread support 0
initial socket setup ...start
initial socket setup ...done 
now start server 0 ... 
                  Welcome to Q-Chem
     A Quantum Leap Into The Future Of Chemistry


 Q-Chem 5.4, Q-Chem, Inc., Pleasanton, CA (2021)

 License issued to: University of California, San Diego (site)

 E. Epifanovsky,  A. T. B. Gilbert,  Xintian Feng,  Joonho Lee,  Yuezhi Mao,  
 N. Mardirossian,  P. Pokhilko,  A. White,  M. Wormit,  M. P. Coons,  
 A. L. Dempwolff,  Zhengting Gan,  D. Hait,  P. R. Horn,  L. D. Jacobson,  
 I. Kaliman,  J. Kussmann,  A. W. Lange,  Ka Un Lao,  D. S. Levine,  Jie Liu,  
 S. C. McKenzie,  A. F. Morrison,  K. Nanda,  F. Plasser,  D. R. Rehn,  
 M. L. Vidal,  Zhi-Qiang You,  Ying Zhu,  B. Alam,  B. Albrecht,  
 A. Aldossary,  E. Alguire,  J. H. Andersen,  D. Barton,  K. Begam,  A. Behn,  
 Y. A. Bernard,  E. J. Berquist,  H. Burton,  A. Carreras,  K. Carter-Fenk,  
 R. Chakraborty,  A. D. Chien,  K. D. Closser,  V. Cofer-Shabica,  
 S. Dasgupta,  Jia Deng,  M. de Wergifosse,  M. Diedenhofen,  Hainam Do,  
 S. Ehlert,  Po-Tung Fang,  S. Fatehi,  Qingguo Feng,  J. Gayvert,  
 Qinghui Ge,  G. Gidofalvi,  M. Goldey,  J. Gomes,  C. Gonzalez-Espinoza,  
 S. Gulania,  A. Gunina,  M. W. D. Hanson-Heine,  P. H. P. Harbach,  
 A. W. Hauser,  M. F. Herbst,  M. Hernandez Vera,  M. Hodecker,  
 Z. C. Holden,  S. Houck,  Xunkun Huang,  Kerwin Hui,  B. C. Huynh,  
 M. Ivanov,  Hyunjun Ji,  Hanjie Jiang,  B. Kaduk,  S. Kaehler,  
 K. Khistyaev,  Jaehoon Kim,  P. Klunzinger,  Z. Koczor-Benda,  
 Joong Hoon Koh,  D. Kosenkov,  L. Koulias,  T. Kowalczyk,  C. M. Krauter,  
 K. Kue,  A. Kunitsa,  T. Kus,  A. Landau,  K. V. Lawler,  D. Lefrancois,  
 S. Lehtola,  Rain Li,  Yi-Pei Li,  Jiashu Liang,  M. Liebenthal,  
 Hung-Hsuan Lin,  You-Sheng Lin,  Fenglai Liu,  Kuan-Yu Liu,  
 M. Loipersberger,  A. Luenser,  A. Manjanath,  P. Manohar,  E. Mansoor,  
 S. F. Manzer,  Shan-Ping Mao,  A. V. Marenich,  T. Markovich,  S. Mason,  
 S. A. Maurer,  P. F. McLaughlin,  M. F. S. J. Menger,  J.-M. Mewes,  
 S. A. Mewes,  P. Morgante,  J. W. Mullinax,  T. S. Nguyen-Beck,  
 K. J. Oosterbaan,  G. Paran,  Alexander C. Paul,  Suranjan K. Paul,  
 F. Pavosevic,  Zheng Pei,  S. Prager,  E. I. Proynov,  E. Ramos,  B. Rana,  
 A. E. Rask,  A. Rettig,  R. M. Richard,  F. Rob,  E. Rossomme,  T. Scheele,  
 M. Scheurer,  M. Schneider,  N. Sergueev,  S. M. Sharada,  W. Skomorowski,  
 D. W. Small,  C. J. Stein,  Yu-Chuan Su,  E. J. Sundstrom,  Zhen Tao,  
 J. Thirman,  T. Tsuchimochi,  N. M. Tubman,  S. P. Veccham,  O. Vydrov,  
 J. Wenzel,  J. Witte,  A. Yamada,  Kun Yao,  S. Yeganeh,  S. R. Yost,  
 A. Zech,  Igor Ying Zhang,  Xing Zhang,  Yu Zhang,  D. Zuev,  
 A. Aspuru-Guzik,  A. T. Bell,  N. A. Besley,  K. B. Bravaya,  B. R. Brooks,  
 D. Casanova,  Jeng-Da Chai,  S. Coriani,  C. J. Cramer,  
 A. E. DePrince, III,  R. A. DiStasio Jr.,  A. Dreuw,  B. D. Dunietz,  
 T. R. Furlani,  W. A. Goddard III,  S. Grimme,  S. Hammes-Schiffer,  
 T. Head-Gordon,  W. J. Hehre,  Chao-Ping Hsu,  T.-C. Jagau,  Yousung Jung,  
 A. Klamt,  Jing Kong,  D. S. Lambrecht,  WanZhen Liang,  N. J. Mayhall,  
 C. W. McCurdy,  J. B. Neaton,  C. Ochsenfeld,  J. A. Parkhill,  R. Peverati,  
 V. A. Rassolov,  Yihan Shao,  L. V. Slipchenko,  T. Stauch,  R. P. Steele,  
 J. E. Subotnik,  A. J. W. Thom,  A. Tkatchenko,  D. G. Truhlar,  
 T. Van Voorhis,  T. A. Wesolowski,  K. B. Whaley,  H. L. Woodcock III,  
 P. M. Zimmerman,  S. Faraji,  P. M. W. Gill,  M. Head-Gordon,  
 J. M. Herbert,  A. I. Krylov

 Contributors to earlier versions of Q-Chem not listed above: 
 R. D. Adamson,  B. Austin,  R. Baer,  J. Baker,  G. J. O. Beran,  
 K. Brandhorst,  S. T. Brown,  E. F. C. Byrd,  A. K. Chakraborty,  
 G. K. L. Chan,  Chun-Min Chang,  Yunqing Chen,  C.-L. Cheng,  
 Siu Hung Chien,  D. M. Chipman,  D. L. Crittenden,  H. Dachsel,  
 R. J. Doerksen,  A. D. Dutoi,  R. G. Edgar,  J. Fosso-Tande,  
 L. Fusti-Molnar,  D. Ghosh,  A. Ghysels,  A. Golubeva-Zadorozhnaya,  
 J. Gonthier,  M. S. Gordon,  S. R. Gwaltney,  G. Hawkins,  J. E. Herr,  
 A. Heyden,  S. Hirata,  E. G. Hohenstein,  G. Kedziora,  F. J. Keil,  
 C. Kelley,  Jihan Kim,  R. A. King,  R. Z. Khaliullin,  P. P. Korambath,  
 W. Kurlancheek,  A. Laurent,  A. M. Lee,  M. S. Lee,  S. V. Levchenko,  
 Ching Yeh Lin,  D. Liotard,  E. Livshits,  R. C. Lochan,  I. Lotan,  
 L. A. Martinez-Martinez,  P. E. Maslen,  N. Nair,  D. P. O'Neill,  
 D. Neuhauser,  E. Neuscamman,  C. M. Oana,  R. Olivares-Amaya,  R. Olson,  
 T. M. Perrine,  B. Peters,  P. A. Pieniazek,  A. Prociuk,  Y. M. Rhee,  
 J. Ritchie,  M. A. Rohrdanz,  E. Rosta,  N. J. Russ,  H. F. Schaefer III,  
 M. W. Schmidt,  N. E. Schultz,  S. Sharma,  N. Shenvi,  C. D. Sherrill,  
 A. C. Simmonett,  A. Sodt,  T. Stein,  D. Stuck,  K. S. Thanthiriwatte,  
 V. Vanovschi,  L. Vogt,  Tao Wang,  A. Warshel,  M. A. Watson,  
 C. F. Williams,  Q. Wu,  X. Xu,  Jun Yang,  W. Zhang,  Yan Zhao

 Please cite Q-Chem as follows:
 Y. Shao et al., Mol. Phys. 113, 184-215 (2015)
 DOI: 10.1080/00268976.2014.952696

 Q-Chem 5.4.0 for Intel X86 EM64T Linux

 Parts of Q-Chem use Armadillo 9.800.1 (Horizon Scraper).
 http://arma.sourceforge.net/

 Q-Chem begins on Sun Sep 24 19:00:29 2023  

 Host: 
0

     Scratch files written to ./qchem3776613//
 May1621 |scratch|qcdevops|jenkins|workspace|build_RNUM    
 Parallel job on  1  processors
 Processing $rem in /cm/shared/apps/spack/cpu/opt/spack/linux-centos8-zen2/gcc-10.2.0/qchem-5.4-akfmr7b3t57bfs6qan3padb2wnb2i7cl/config/preferences:
 Processing $rem in /home/rramji/.qchemrc:
 Symmetry turned off for PCM/SM12/SMD calculation
 Core orbitals will be frozen

 Checking the input file for inconsistencies... 	...done.

 Q-Chem warning in module forms1/BasisType.C, line 2236:

 You are not using the predefined 5D/6D in this basis set.


--------------------------------------------------------------
User input:
--------------------------------------------------------------
$molecule
0 1
C	0.046574	-8.519741	0.268090
C	-0.326886	-7.635967	-0.733920
S	0.595708	-7.651740	1.722318
C	-0.193236	-6.261894	-0.371516
H	-0.692700	-7.954738	-1.718130
C	0.294958	-6.079985	0.970283
C	0.515487	-4.798382	1.498243
C	-0.477358	-5.153542	-1.219725
C	-0.252655	-3.869626	-0.692914
C	0.233366	-3.688927	0.651289
O	-0.957369	-5.481075	-2.451623
O	0.998769	-4.479871	2.735264
C	0.752029	-5.356026	3.828387
H	1.012675	-4.790496	4.743213
H	1.386303	-6.268513	3.788623
H	-0.316492	-5.658187	3.877260
C	-0.881930	-4.546999	-3.521580
H	-1.145969	-5.107564	-4.438260
H	0.142712	-4.131473	-3.631868
H	-1.605610	-3.712085	-3.399425
C	0.367928	-2.314326	1.009535
S	-0.542088	-2.295487	-1.450945
C	-0.000000	-1.435180	-0.000000
H	0.730999	-1.993211	1.993920
H	0.046991	-9.615985	0.262047
C	0.000000	0.000000	0.000000
S	0.158383	0.885376	1.510732
C	0.430876	2.436951	0.727629
C	0.157682	0.894430	-1.064665
C	0.397351	2.262384	-0.678287
C	0.147783	0.828765	-2.486150
C	0.367291	2.074406	-3.106916
S	0.580633	3.303533	-1.965735
C	0.416083	2.324204	-4.559972
O	0.256921	1.404367	-5.350277
O	0.642094	3.587338	-5.004375
F	-0.041828	-0.269113	-3.246290
C	0.714377	3.938827	-6.334976
H	0.906844	5.026898	-6.370268
H	-0.230661	3.710099	-6.875609
H	1.531918	3.398681	-6.861878
H	0.590699	3.342984	1.321510
$end

$rem
JOBTYPE		SP
EXCHANGE	HF
CORRELATION	pRIMP2
BASIS		cc-pvtz
METHOD		rimp2
AUX_BASIS	rimp2-cc-pvtz
SOLVENT_METHOD	PCM
PURECART	11111
SYMMETRY	false
MEM_TOTAL	110000
SCF_CONVERGENCE = 6
THRESH=10
GUI = 2
$end



$solvent
dielectric 4.90
$end
--------------------------------------------------------------
 ----------------------------------------------------------------
             Standard Nuclear Orientation (Angstroms)
    I     Atom           X                Y                Z
 ----------------------------------------------------------------
    1      C       0.0465740000    -8.5197410000     0.2680900000
    2      C      -0.3268860000    -7.6359670000    -0.7339200000
    3      S       0.5957080000    -7.6517400000     1.7223180000
    4      C      -0.1932360000    -6.2618940000    -0.3715160000
    5      H      -0.6927000000    -7.9547380000    -1.7181300000
    6      C       0.2949580000    -6.0799850000     0.9702830000
    7      C       0.5154870000    -4.7983820000     1.4982430000
    8      C      -0.4773580000    -5.1535420000    -1.2197250000
    9      C      -0.2526550000    -3.8696260000    -0.6929140000
   10      C       0.2333660000    -3.6889270000     0.6512890000
   11      O      -0.9573690000    -5.4810750000    -2.4516230000
   12      O       0.9987690000    -4.4798710000     2.7352640000
   13      C       0.7520290000    -5.3560260000     3.8283870000
   14      H       1.0126750000    -4.7904960000     4.7432130000
   15      H       1.3863030000    -6.2685130000     3.7886230000
   16      H      -0.3164920000    -5.6581870000     3.8772600000
   17      C      -0.8819300000    -4.5469990000    -3.5215800000
   18      H      -1.1459690000    -5.1075640000    -4.4382600000
   19      H       0.1427120000    -4.1314730000    -3.6318680000
   20      H      -1.6056100000    -3.7120850000    -3.3994250000
   21      C       0.3679280000    -2.3143260000     1.0095350000
   22      S      -0.5420880000    -2.2954870000    -1.4509450000
   23      C       0.0000000000    -1.4351800000     0.0000000000
   24      H       0.7309990000    -1.9932110000     1.9939200000
   25      H       0.0469910000    -9.6159850000     0.2620470000
   26      C       0.0000000000     0.0000000000     0.0000000000
   27      S       0.1583830000     0.8853760000     1.5107320000
   28      C       0.4308760000     2.4369510000     0.7276290000
   29      C       0.1576820000     0.8944300000    -1.0646650000
   30      C       0.3973510000     2.2623840000    -0.6782870000
   31      C       0.1477830000     0.8287650000    -2.4861500000
   32      C       0.3672910000     2.0744060000    -3.1069160000
   33      S       0.5806330000     3.3035330000    -1.9657350000
   34      C       0.4160830000     2.3242040000    -4.5599720000
   35      O       0.2569210000     1.4043670000    -5.3502770000
   36      O       0.6420940000     3.5873380000    -5.0043750000
   37      F      -0.0418280000    -0.2691130000    -3.2462900000
   38      C       0.7143770000     3.9388270000    -6.3349760000
   39      H       0.9068440000     5.0268980000    -6.3702680000
   40      H      -0.2306610000     3.7100990000    -6.8756090000
   41      H       1.5319180000     3.3986810000    -6.8618780000
   42      H       0.5906990000     3.3429840000     1.3215100000
 ----------------------------------------------------------------
 Nuclear Repulsion Energy =        3319.17921741 hartrees
 There are      119 alpha and      119 beta electrons
 Requested basis set is cc-pVTZ
 There are 376 shells and 1068 basis functions

 Total QAlloc Memory Limit 110000 MB
 Mega-Array Size       188 MB
 MEM_STATIC part       192 MB
 Discretize the solute cavity surface with Lebedev spheres
	Using 110 Lebedev grid points for each H atom
	Using 194 Lebedev grid points for other atoms
	Atomic van der Waals radii will be scaled by 1.20
 Remove points where switching function is < 1.0e-08
 Keep 2864 surface tesserae and discard 4192 interior tesserae
 Molecular Surface Area = 432.879 Angst**2
 Requested basis set is rimp2-cc-pVTZ
 There are 833 shells and 2903 basis functions
 A cutoff of  1.0D-10 yielded  31400 shell pairs
 There are    240858 function pairs (    312629 Cartesian)
 Smallest overlap matrix eigenvalue = 2.16E-05

 Scale SEOQF with 1.000000e-01/1.000000e-02/1.000000e-02

 Standard Electronic Orientation quadrupole field applied
 Nucleus-field energy     =     0.0000000152 hartrees
 Guess from superposition of atomic densities
 Warning:  Energy on first SCF cycle will be non-variational
 SAD guess density has 238.000000 electrons

 -----------------------------------------------------------------------
  General SCF calculation program by
  Eric Jon Sundstrom, Paul Horn, Yuezhi Mao, Dmitri Zuev, Alec White,
  David Stuck, Shaama M.S., Shane Yost, Joonho Lee, David Small,
  Daniel Levine, Susi Lehtola, Hugh Burton, Evgeny Epifanovsky,
  Bang C. Huynh
 -----------------------------------------------------------------------
 Hartree-Fock
 using 64 threads for integral computing
 -------------------------------------------------------
 OpenMP Integral computing Module                
 Release: version 1.0, May 2013, Q-Chem Inc. Pittsburgh 
 -------------------------------------------------------
 A restricted SCF calculation will be
 performed using DIIS
 SCF converges when DIIS error is below 1.0e-06
 ---------------------------------------
  Cycle       Energy         DIIS error
 ---------------------------------------
    1   -2765.5607792889      1.77e-02  
    2   -2753.8545331712      1.57e-03  
    3   -2754.1943096460      8.85e-04  
    4   -2754.2793454712      2.55e-04  
    5   -2754.2910860796      6.82e-05  
    6   -2754.2921855791      2.39e-05  
    7   -2754.2924363474      1.17e-05  
    8   -2754.2925198732      4.55e-06  
    9   -2754.2925368072      1.92e-06  
   10   -2754.2925392319      8.16e-07  Convergence criterion met
 ---------------------------------------
 SCF time:   CPU 6386.44s  wall 231.00s 

************** Final PCM Free Energy Summary **************
 G_electrostatic  =      -0.01916492 hartree =     -12.02617156 kcal/mol
 G_cavitation     =       0.00000000 hartree =       0.00000000 kcal/mol
 G_dispersion     =       0.00000000 hartree =       0.00000000 kcal/mol
 G_repulsion      =       0.00000000 hartree =       0.00000000 kcal/mol
 --------------------------------------------------
 Non-electrostatic Free Energy =       0.00000000 hartree =       0.00000000 kcal/mol
 Total                         =      -0.01916492 hartree =     -12.02617156 kcal/mol
 --------------------------------------------------
 SCF Energy (H0 + V/2)                       =   -2754.29253923 
 Solute Internal Energy (H0)                 =   -2754.27337431 
 Total Free Energy (H0 + V/2 + non-elec)     =   -2754.29253923 hartree
                                             = -1728344.65427263 kcal/mol
***********************************************************

 SCF   energy in the final basis set =    -2754.2925392319
 Total energy in the final basis set =    -2754.2925392319


 --------------------------------------------------------------
  Generalized many-body perturbation theory program
  by Joonho Lee, Fazle Rob, Xintian Feng, Evgeny Epifanovsky

 No regularization used 
 (reg. param. = 0.0000e+00)
  (P|Q)^-1/2 Time:  CPU 111.65 s  wall 2.26 s

 In RI-MP2 calculation: 
 # of frozen core orbitals: 45

 Components of the RIMP2 correlation energy:
        aaaa    correlation energy =        -0.6716649525 a.u.
        abab    correlation energy =        -3.7130759069 a.u.
        bbbb    correlation energy =        -0.6716649525 a.u.
        non-Brillouin singles      =        -0.0000000000 a.u.
        total same-spin energy     =        -1.3433299051 a.u.
        total opposite-spin energy =        -3.7130759069 a.u.

 Total  RIMP2   correlation energy =        -5.0564058120 a.u.
        RIMP2         total energy =     -2759.3489450439 a.u.

 RI-MP2 Energy Time:  CPU 2683.00 s  wall 44.24 s
 
 --------------------------------------------------------------
 
                    Orbital Energies (a.u.)
 --------------------------------------------------------------
 
 Alpha MOs
 -- Occupied --
-92.0151 -91.9950 -91.9864 -91.9860 -26.3353 -20.6120 -20.5920 -20.5914
-20.5499 -11.4103 -11.3786 -11.3185 -11.3183 -11.3135 -11.2974 -11.2974
-11.2971 -11.2934 -11.2885 -11.2865 -11.2856 -11.2852 -11.2839 -11.2827
-11.2799 -11.2615 -11.2592 -11.2589 -11.2499  -9.0135  -8.9990  -8.9869
 -8.9863  -6.6943  -6.6937  -6.6932  -6.6803  -6.6796  -6.6783  -6.6678
 -6.6673  -6.6671  -6.6667  -6.6660  -6.6658  -1.6505  -1.4718  -1.4157
 -1.4145  -1.3671  -1.2343  -1.1963  -1.1690  -1.1421  -1.0847  -1.0521
 -1.0481  -1.0287  -1.0023  -0.9938  -0.9724  -0.9607  -0.9499  -0.9382
 -0.8958  -0.8697  -0.8520  -0.8096  -0.7948  -0.7871  -0.7751  -0.7637
 -0.7582  -0.7325  -0.7202  -0.7179  -0.7006  -0.6886  -0.6840  -0.6786
 -0.6734  -0.6619  -0.6586  -0.6524  -0.6290  -0.6197  -0.6163  -0.6066
 -0.6015  -0.5954  -0.5888  -0.5720  -0.5684  -0.5671  -0.5580  -0.5526
 -0.5302  -0.5272  -0.5217  -0.5195  -0.5146  -0.5092  -0.5017  -0.4950
 -0.4863  -0.4829  -0.4803  -0.4653  -0.4616  -0.4608  -0.4590  -0.4231
 -0.3957  -0.3865  -0.3596  -0.3503  -0.3244  -0.2839  -0.2480
 -- Virtual --
  0.0109   0.0796   0.1126   0.1276   0.1375   0.1490   0.1521   0.1554
  0.1561   0.1603   0.1683   0.1779   0.1805   0.1848   0.1910   0.1930
  0.2047   0.2075   0.2107   0.2161   0.2212   0.2224   0.2247   0.2295
  0.2325   0.2411   0.2483   0.2586   0.2648   0.2682   0.2742   0.2884
  0.2955   0.3104   0.3260   0.3357   0.3393   0.3466   0.3510   0.3534
  0.3595   0.3602   0.3686   0.3733   0.3798   0.3811   0.3845   0.3875
  0.3929   0.3954   0.4003   0.4098   0.4129   0.4141   0.4171   0.4201
  0.4249   0.4383   0.4416   0.4443   0.4499   0.4519   0.4551   0.4589
  0.4594   0.4634   0.4712   0.4752   0.4813   0.4844   0.4873   0.4894
  0.4967   0.4998   0.5017   0.5071   0.5132   0.5204   0.5229   0.5251
  0.5291   0.5344   0.5367   0.5418   0.5451   0.5477   0.5515   0.5554
  0.5573   0.5612   0.5665   0.5681   0.5732   0.5747   0.5806   0.5846
  0.5879   0.5899   0.5912   0.5957   0.6031   0.6038   0.6086   0.6144
  0.6170   0.6182   0.6199   0.6221   0.6254   0.6283   0.6326   0.6356
  0.6382   0.6401   0.6445   0.6483   0.6570   0.6594   0.6649   0.6660
  0.6709   0.6753   0.6841   0.6869   0.6912   0.6946   0.6977   0.7027
  0.7116   0.7168   0.7243   0.7274   0.7384   0.7451   0.7506   0.7596
  0.7612   0.7685   0.7721   0.7824   0.7874   0.7957   0.7990   0.8020
  0.8050   0.8166   0.8192   0.8268   0.8312   0.8374   0.8439   0.8476
  0.8544   0.8569   0.8697   0.8721   0.8799   0.8854   0.8935   0.8960
  0.9000   0.9035   0.9060   0.9108   0.9160   0.9187   0.9254   0.9297
  0.9352   0.9391   0.9418   0.9466   0.9532   0.9580   0.9655   0.9712
  0.9764   0.9798   0.9843   0.9882   0.9926   0.9961   1.0000   1.0015
  1.0047   1.0133   1.0179   1.0215   1.0237   1.0284   1.0359   1.0424
  1.0453   1.0547   1.0598   1.0632   1.0692   1.0749   1.0771   1.0819
  1.0842   1.0915   1.0957   1.0982   1.1043   1.1095   1.1137   1.1157
  1.1242   1.1273   1.1349   1.1402   1.1427   1.1476   1.1558   1.1632
  1.1657   1.1712   1.1732   1.1811   1.1843   1.1893   1.1934   1.1962
  1.1999   1.2083   1.2125   1.2179   1.2193   1.2233   1.2254   1.2288
  1.2379   1.2441   1.2485   1.2530   1.2570   1.2641   1.2761   1.2776
  1.2835   1.2880   1.2922   1.3010   1.3060   1.3115   1.3201   1.3275
  1.3319   1.3355   1.3437   1.3453   1.3518   1.3572   1.3638   1.3667
  1.3792   1.3817   1.3848   1.3893   1.3951   1.4042   1.4176   1.4250
  1.4283   1.4376   1.4486   1.4591   1.4663   1.4719   1.4840   1.4926
  1.4930   1.4999   1.5016   1.5058   1.5105   1.5124   1.5181   1.5290
  1.5307   1.5356   1.5421   1.5482   1.5510   1.5542   1.5632   1.5657
  1.5758   1.5829   1.5896   1.5945   1.5976   1.6121   1.6296   1.6341
  1.6364   1.6508   1.6538   1.6614   1.6638   1.6672   1.6796   1.6872
  1.6892   1.7006   1.7061   1.7111   1.7137   1.7295   1.7403   1.7528
  1.7622   1.7676   1.7758   1.7875   1.7955   1.8099   1.8164   1.8243
  1.8287   1.8302   1.8336   1.8456   1.8576   1.8628   1.8703   1.8769
  1.8814   1.8900   1.8972   1.9025   1.9085   1.9221   1.9267   1.9334
  1.9397   1.9456   1.9530   1.9639   1.9715   1.9764   1.9810   1.9942
  2.0007   2.0081   2.0227   2.0294   2.0320   2.0384   2.0438   2.0664
  2.0807   2.0939   2.0973   2.1064   2.1156   2.1253   2.1390   2.1481
  2.1542   2.1588   2.1639   2.1704   2.1769   2.1865   2.1906   2.1939
  2.1962   2.2063   2.2155   2.2245   2.2269   2.2343   2.2413   2.2504
  2.2567   2.2607   2.2672   2.2738   2.2794   2.2825   2.2894   2.3035
  2.3106   2.3214   2.3228   2.3311   2.3384   2.3521   2.3542   2.3661
  2.3773   2.3800   2.3844   2.3992   2.4012   2.4110   2.4244   2.4268
  2.4356   2.4391   2.4488   2.4636   2.4670   2.4738   2.4851   2.4904
  2.4967   2.5170   2.5266   2.5293   2.5350   2.5529   2.5548   2.5690
  2.5806   2.5858   2.5887   2.5936   2.6122   2.6166   2.6198   2.6236
  2.6301   2.6340   2.6383   2.6419   2.6494   2.6602   2.6642   2.6694
  2.6822   2.6832   2.6907   2.6978   2.7009   2.7084   2.7131   2.7179
  2.7293   2.7318   2.7368   2.7427   2.7453   2.7573   2.7599   2.7685
  2.7735   2.7832   2.7872   2.7949   2.8024   2.8052   2.8211   2.8262
  2.8325   2.8338   2.8425   2.8523   2.8572   2.8646   2.8665   2.8743
  2.8769   2.8833   2.8891   2.8949   2.9075   2.9103   2.9373   2.9447
  2.9490   2.9504   2.9586   2.9646   2.9780   2.9806   2.9936   2.9984
  3.0105   3.0123   3.0256   3.0346   3.0368   3.0383   3.0442   3.0458
  3.0540   3.0576   3.0631   3.0797   3.0829   3.0904   3.0948   3.1002
  3.1049   3.1075   3.1166   3.1212   3.1297   3.1404   3.1456   3.1529
  3.1577   3.1613   3.1653   3.1691   3.1754   3.1761   3.1819   3.1851
  3.1931   3.1946   3.2019   3.2093   3.2113   3.2182   3.2237   3.2310
  3.2351   3.2407   3.2440   3.2510   3.2528   3.2570   3.2689   3.2729
  3.2761   3.2793   3.2815   3.2883   3.2891   3.2932   3.2980   3.3026
  3.3073   3.3110   3.3248   3.3294   3.3346   3.3431   3.3465   3.3491
  3.3540   3.3560   3.3588   3.3607   3.3643   3.3687   3.3736   3.3795
  3.3850   3.3862   3.3881   3.3956   3.3960   3.4036   3.4053   3.4150
  3.4202   3.4246   3.4319   3.4399   3.4425   3.4442   3.4484   3.4538
  3.4586   3.4633   3.4680   3.4762   3.4814   3.4846   3.4931   3.5025
  3.5087   3.5137   3.5162   3.5195   3.5250   3.5259   3.5311   3.5359
  3.5407   3.5531   3.5603   3.5664   3.5723   3.5761   3.5816   3.5842
  3.5895   3.5921   3.5949   3.6015   3.6030   3.6055   3.6138   3.6249
  3.6273   3.6335   3.6345   3.6445   3.6474   3.6555   3.6602   3.6631
  3.6651   3.6723   3.6756   3.6803   3.6817   3.6887   3.6923   3.6992
  3.7042   3.7102   3.7166   3.7211   3.7261   3.7296   3.7313   3.7352
  3.7423   3.7459   3.7541   3.7580   3.7632   3.7771   3.7802   3.7810
  3.7927   3.7955   3.8017   3.8053   3.8211   3.8237   3.8275   3.8302
  3.8425   3.8479   3.8532   3.8609   3.8615   3.8681   3.8697   3.8722
  3.8830   3.8904   3.8974   3.9022   3.9090   3.9158   3.9209   3.9231
  3.9332   3.9353   3.9532   3.9581   3.9620   3.9677   3.9813   3.9902
  3.9993   4.0013   4.0055   4.0164   4.0179   4.0281   4.0363   4.0437
  4.0530   4.0550   4.0603   4.0654   4.0740   4.0813   4.0869   4.0962
  4.0990   4.1021   4.1176   4.1261   4.1307   4.1389   4.1460   4.1558
  4.1633   4.1695   4.1711   4.1826   4.1848   4.1902   4.1940   4.1994
  4.2074   4.2147   4.2255   4.2381   4.2498   4.2642   4.2725   4.2774
  4.2859   4.2958   4.3026   4.3146   4.3204   4.3381   4.3435   4.3478
  4.3511   4.3603   4.3762   4.3769   4.3779   4.3925   4.3978   4.4024
  4.4076   4.4118   4.4154   4.4212   4.4265   4.4344   4.4509   4.4515
  4.4646   4.4812   4.4841   4.4887   4.4943   4.5011   4.5066   4.5165
  4.5225   4.5402   4.5437   4.5536   4.5575   4.5691   4.5832   4.5947
  4.6025   4.6101   4.6183   4.6252   4.6345   4.6389   4.6457   4.6493
  4.6542   4.6686   4.6772   4.6836   4.6874   4.7027   4.7077   4.7306
  4.7422   4.7448   4.7719   4.7739   4.7840   4.7979   4.8069   4.8100
  4.8200   4.8295   4.8399   4.8587   4.8709   4.8967   4.9128   4.9234
  4.9480   4.9510   4.9547   4.9610   4.9624   4.9848   4.9998   5.0043
  5.0083   5.0118   5.0245   5.0373   5.0504   5.0679   5.0693   5.0702
  5.0885   5.1188   5.1400   5.1541   5.1650   5.1762   5.1894   5.2064
  5.2125   5.2238   5.2324   5.2403   5.2541   5.2591   5.2798   5.2969
  5.3042   5.3120   5.3185   5.3352   5.3383   5.3534   5.3552   5.3708
  5.3714   5.3896   5.3953   5.3999   5.4052   5.4356   5.4624   5.4665
  5.4731   5.4793   5.4964   5.5091   5.5127   5.5272   5.5487   5.5670
  5.5739   5.5845   5.5993   5.6074   5.6178   5.6356   5.6496   5.6753
  5.7234   5.7363   5.8009   5.8065   5.8178   5.8307   5.8567   5.8707
  5.8804   5.8922   5.9456   5.9698   5.9757   5.9886   6.0005   6.0649
  6.0736   6.0900   6.1268   6.1337   6.1703   6.1737   6.1864   6.1918
  6.2425   6.2713   6.2730   6.2777   6.3031   6.3086   6.3254   6.4203
  6.4416   6.4605   6.4861   6.5231   6.5496   6.5565   6.5578   6.6536
  6.6693   6.6769   6.7073   6.7391   6.7537   6.8013   6.8465   6.8605
  6.8838   6.8938   6.9911   7.1195   7.1401   7.1785   7.2115   7.2169
  7.2335   7.3201   7.3266   7.3338   7.3710   7.3787   7.4321   7.4626
  7.4817   7.4843   7.4888   7.5256   7.5496   7.6191   7.7225   7.7681
  7.7972   7.8317   7.9062   7.9200   7.9495   8.0079   8.1002   8.2039
  8.5961   8.9309   9.0302   9.3633   9.5077   9.7182  10.2241  10.6877
 11.2711  11.3602  11.9477  11.9735  12.1317  12.2660  12.3748  12.5969
 12.6728  12.7738  12.9418  13.2352  13.2814  13.6054  13.8461  13.9059
 13.9820  14.0272  14.2964  14.5556  15.2154
 --------------------------------------------------------------
 
          Ground-State Mulliken Net Atomic Charges

     Atom                 Charge (a.u.)
  ----------------------------------------
      1 C                    -0.187748
      2 C                    -0.254156
      3 S                    -0.022929
      4 C                    -0.013221
      5 H                     0.196645
      6 C                    -0.030055
      7 C                     0.243318
      8 C                     0.241281
      9 C                    -0.044169
     10 C                    -0.028101
     11 O                    -0.333850
     12 O                    -0.340410
     13 C                    -0.085663
     14 H                     0.122393
     15 H                     0.091332
     16 H                     0.094147
     17 C                    -0.087747
     18 H                     0.125085
     19 H                     0.095510
     20 H                     0.090037
     21 C                    -0.242621
     22 S                    -0.011726
     23 C                     0.001480
     24 H                     0.190041
     25 H                     0.206558
     26 C                     0.006004
     27 S                     0.091672
     28 C                    -0.229884
     29 C                    -0.081000
     30 C                    -0.025751
     31 C                     0.377340
     32 C                    -0.139102
     33 S                     0.037766
     34 C                     0.458900
     35 O                    -0.451258
     36 O                    -0.297858
     37 F                    -0.209328
     38 C                    -0.054971
     39 H                     0.116672
     40 H                     0.084395
     41 H                     0.084426
     42 H                     0.216544
  ----------------------------------------
  Sum of atomic charges =     0.000000

 -----------------------------------------------------------------
                    Cartesian Multipole Moments
 -----------------------------------------------------------------
    Charge (ESU x 10^10)
                -0.0000
    Dipole Moment (Debye)
         X       0.3505      Y       1.5757      Z       3.0387
       Tot       3.4408
    Quadrupole Moments (Debye-Ang)
        XX    -201.1612     XY       4.0490     YY    -159.8686
        XZ       1.0435     YZ     -10.9234     ZZ    -181.2453
    Octopole Moments (Debye-Ang^2)
       XXX     -96.3409    XXY     396.8718    XYY     -24.6574
       YYY     896.9372    XXZ     158.1337    XYZ     -23.4972
       YYZ     124.3135    XZZ     -13.7091    YZZ     385.4320
       ZZZ     514.4451
    Hexadecapole Moments (Debye-Ang^3)
      XXXX    -554.7310   XXXY    -148.5024   XXYY   -3949.1685
      XYYY     -77.7711   YYYY  -18576.2966   XXXZ     -83.2428
      XXYZ     651.1722   XYYZ      24.2553   YYYZ    1631.7590
      XXZZ   -1388.8477   XYZZ      47.8926   YYZZ   -4005.5516
      XZZZ    -117.6174   YZZZ    1172.5957   ZZZZ   -7406.7719
 -----------------------------------------------------------------
 Total job time:  280.63s(wall), 9163.47s(cpu) 
 Sun Sep 24 19:05:10 2023

        *************************************************************
        *                                                           *
        *  Thank you very much for using Q-Chem.  Have a nice day.  *
        *                                                           *
        *************************************************************


0 sent ACK to 0 
now end server 0 ... 
cleanup process ... done
remove work dirs ./qchem3776613.0 -- ./qchem3776613.0
rm -rf ./qchem3776613.0
rm -rf ./qchem3776613
