You are running Q-Chem version: 5.4.0

#
# job setting
#
local host:  exp-4-01
current dir: /expanse/lustre/projects/csd626/rramji/aromodel/PTB7_fin/Rotation_Test
input file:  fin_bdt_Phi_40_Theta_250_fin_ftt.qcin
output file: 
nprocs     : 1
nthreads   : 64
#
# qchem installation setting
#
QC:          /cm/shared/apps/spack/cpu/opt/spack/linux-centos8-zen2/gcc-10.2.0/qchem-5.4-akfmr7b3t57bfs6qan3padb2wnb2i7cl
QCAUX:       /cm/shared/apps/spack/cpu/opt/spack/linux-centos8-zen2/gcc-10.2.0/qchem-5.4-akfmr7b3t57bfs6qan3padb2wnb2i7cl/qcaux
QCPROG:      /cm/shared/apps/spack/cpu/opt/spack/linux-centos8-zen2/gcc-10.2.0/qchem-5.4-akfmr7b3t57bfs6qan3padb2wnb2i7cl/exe/qcprog.exe
QCPROG_S:    /cm/shared/apps/spack/cpu/opt/spack/linux-centos8-zen2/gcc-10.2.0/qchem-5.4-akfmr7b3t57bfs6qan3padb2wnb2i7cl/exe/qcprog.exe_s
PARALLEL:    -DPARALLEL
QCMPI:       mpich
#
# qchem directory setting
#
qcrun:       qchem3003097
QCSCRATCH:   .
QCLOCALSCR:  
QCTMPDIR:    .
QCFILEPREF:  ./qchem3003097
QCSAVEDIR:   
workdirs:    ./qchem3003097
workdir0:    ./qchem3003097
partmpdirs =  
#
# parallel setting
#
QCRSH:           ssh
QCMPI:           mpich
QCMPIRUN:        /cm/shared/apps/spack/cpu/opt/spack/linux-centos8-zen2/gcc-10.2.0/qchem-5.4-akfmr7b3t57bfs6qan3padb2wnb2i7cl/bin/mpi/mpirun_qchem
QCMACHINEFILE:   ./qchem3003097/hostfile
exp-4-01

#
# env setting
#
exported envs:   QC QCAUX QCSCRATCH QCRUNNAME QCFILEPREF QCPROG QCPROG_S GUIFILE

Running Job 1 of 1 fin_bdt_Phi_40_Theta_250_fin_ftt.qcin
qchem fin_bdt_Phi_40_Theta_250_fin_ftt.qcin_3003097.0 ./qchem3003097/ 1
/cm/shared/apps/spack/cpu/opt/spack/linux-centos8-zen2/gcc-10.2.0/qchem-5.4-akfmr7b3t57bfs6qan3padb2wnb2i7cl/bin/mpi/mpirun_qchem -machinefile ./qchem3003097/hostfile -np 1 /cm/shared/apps/spack/cpu/opt/spack/linux-centos8-zen2/gcc-10.2.0/qchem-5.4-akfmr7b3t57bfs6qan3padb2wnb2i7cl/exe/qcprog.exe fin_bdt_Phi_40_Theta_250_fin_ftt.qcin_3003097.0 ./qchem3003097/

Process 0 of 1 is on exp-4-01 - thread support 0
initial socket setup ...start
initial socket setup ...done 
now start server 0 ... 
                  Welcome to Q-Chem
     A Quantum Leap Into The Future Of Chemistry


 Q-Chem 5.4, Q-Chem, Inc., Pleasanton, CA (2021)

 License issued to: University of California, San Diego (site)

 E. Epifanovsky,  A. T. B. Gilbert,  Xintian Feng,  Joonho Lee,  Yuezhi Mao,  
 N. Mardirossian,  P. Pokhilko,  A. White,  M. Wormit,  M. P. Coons,  
 A. L. Dempwolff,  Zhengting Gan,  D. Hait,  P. R. Horn,  L. D. Jacobson,  
 I. Kaliman,  J. Kussmann,  A. W. Lange,  Ka Un Lao,  D. S. Levine,  Jie Liu,  
 S. C. McKenzie,  A. F. Morrison,  K. Nanda,  F. Plasser,  D. R. Rehn,  
 M. L. Vidal,  Zhi-Qiang You,  Ying Zhu,  B. Alam,  B. Albrecht,  
 A. Aldossary,  E. Alguire,  J. H. Andersen,  D. Barton,  K. Begam,  A. Behn,  
 Y. A. Bernard,  E. J. Berquist,  H. Burton,  A. Carreras,  K. Carter-Fenk,  
 R. Chakraborty,  A. D. Chien,  K. D. Closser,  V. Cofer-Shabica,  
 S. Dasgupta,  Jia Deng,  M. de Wergifosse,  M. Diedenhofen,  Hainam Do,  
 S. Ehlert,  Po-Tung Fang,  S. Fatehi,  Qingguo Feng,  J. Gayvert,  
 Qinghui Ge,  G. Gidofalvi,  M. Goldey,  J. Gomes,  C. Gonzalez-Espinoza,  
 S. Gulania,  A. Gunina,  M. W. D. Hanson-Heine,  P. H. P. Harbach,  
 A. W. Hauser,  M. F. Herbst,  M. Hernandez Vera,  M. Hodecker,  
 Z. C. Holden,  S. Houck,  Xunkun Huang,  Kerwin Hui,  B. C. Huynh,  
 M. Ivanov,  Hyunjun Ji,  Hanjie Jiang,  B. Kaduk,  S. Kaehler,  
 K. Khistyaev,  Jaehoon Kim,  P. Klunzinger,  Z. Koczor-Benda,  
 Joong Hoon Koh,  D. Kosenkov,  L. Koulias,  T. Kowalczyk,  C. M. Krauter,  
 K. Kue,  A. Kunitsa,  T. Kus,  A. Landau,  K. V. Lawler,  D. Lefrancois,  
 S. Lehtola,  Rain Li,  Yi-Pei Li,  Jiashu Liang,  M. Liebenthal,  
 Hung-Hsuan Lin,  You-Sheng Lin,  Fenglai Liu,  Kuan-Yu Liu,  
 M. Loipersberger,  A. Luenser,  A. Manjanath,  P. Manohar,  E. Mansoor,  
 S. F. Manzer,  Shan-Ping Mao,  A. V. Marenich,  T. Markovich,  S. Mason,  
 S. A. Maurer,  P. F. McLaughlin,  M. F. S. J. Menger,  J.-M. Mewes,  
 S. A. Mewes,  P. Morgante,  J. W. Mullinax,  T. S. Nguyen-Beck,  
 K. J. Oosterbaan,  G. Paran,  Alexander C. Paul,  Suranjan K. Paul,  
 F. Pavosevic,  Zheng Pei,  S. Prager,  E. I. Proynov,  E. Ramos,  B. Rana,  
 A. E. Rask,  A. Rettig,  R. M. Richard,  F. Rob,  E. Rossomme,  T. Scheele,  
 M. Scheurer,  M. Schneider,  N. Sergueev,  S. M. Sharada,  W. Skomorowski,  
 D. W. Small,  C. J. Stein,  Yu-Chuan Su,  E. J. Sundstrom,  Zhen Tao,  
 J. Thirman,  T. Tsuchimochi,  N. M. Tubman,  S. P. Veccham,  O. Vydrov,  
 J. Wenzel,  J. Witte,  A. Yamada,  Kun Yao,  S. Yeganeh,  S. R. Yost,  
 A. Zech,  Igor Ying Zhang,  Xing Zhang,  Yu Zhang,  D. Zuev,  
 A. Aspuru-Guzik,  A. T. Bell,  N. A. Besley,  K. B. Bravaya,  B. R. Brooks,  
 D. Casanova,  Jeng-Da Chai,  S. Coriani,  C. J. Cramer,  
 A. E. DePrince, III,  R. A. DiStasio Jr.,  A. Dreuw,  B. D. Dunietz,  
 T. R. Furlani,  W. A. Goddard III,  S. Grimme,  S. Hammes-Schiffer,  
 T. Head-Gordon,  W. J. Hehre,  Chao-Ping Hsu,  T.-C. Jagau,  Yousung Jung,  
 A. Klamt,  Jing Kong,  D. S. Lambrecht,  WanZhen Liang,  N. J. Mayhall,  
 C. W. McCurdy,  J. B. Neaton,  C. Ochsenfeld,  J. A. Parkhill,  R. Peverati,  
 V. A. Rassolov,  Yihan Shao,  L. V. Slipchenko,  T. Stauch,  R. P. Steele,  
 J. E. Subotnik,  A. J. W. Thom,  A. Tkatchenko,  D. G. Truhlar,  
 T. Van Voorhis,  T. A. Wesolowski,  K. B. Whaley,  H. L. Woodcock III,  
 P. M. Zimmerman,  S. Faraji,  P. M. W. Gill,  M. Head-Gordon,  
 J. M. Herbert,  A. I. Krylov

 Contributors to earlier versions of Q-Chem not listed above: 
 R. D. Adamson,  B. Austin,  R. Baer,  J. Baker,  G. J. O. Beran,  
 K. Brandhorst,  S. T. Brown,  E. F. C. Byrd,  A. K. Chakraborty,  
 G. K. L. Chan,  Chun-Min Chang,  Yunqing Chen,  C.-L. Cheng,  
 Siu Hung Chien,  D. M. Chipman,  D. L. Crittenden,  H. Dachsel,  
 R. J. Doerksen,  A. D. Dutoi,  R. G. Edgar,  J. Fosso-Tande,  
 L. Fusti-Molnar,  D. Ghosh,  A. Ghysels,  A. Golubeva-Zadorozhnaya,  
 J. Gonthier,  M. S. Gordon,  S. R. Gwaltney,  G. Hawkins,  J. E. Herr,  
 A. Heyden,  S. Hirata,  E. G. Hohenstein,  G. Kedziora,  F. J. Keil,  
 C. Kelley,  Jihan Kim,  R. A. King,  R. Z. Khaliullin,  P. P. Korambath,  
 W. Kurlancheek,  A. Laurent,  A. M. Lee,  M. S. Lee,  S. V. Levchenko,  
 Ching Yeh Lin,  D. Liotard,  E. Livshits,  R. C. Lochan,  I. Lotan,  
 L. A. Martinez-Martinez,  P. E. Maslen,  N. Nair,  D. P. O'Neill,  
 D. Neuhauser,  E. Neuscamman,  C. M. Oana,  R. Olivares-Amaya,  R. Olson,  
 T. M. Perrine,  B. Peters,  P. A. Pieniazek,  A. Prociuk,  Y. M. Rhee,  
 J. Ritchie,  M. A. Rohrdanz,  E. Rosta,  N. J. Russ,  H. F. Schaefer III,  
 M. W. Schmidt,  N. E. Schultz,  S. Sharma,  N. Shenvi,  C. D. Sherrill,  
 A. C. Simmonett,  A. Sodt,  T. Stein,  D. Stuck,  K. S. Thanthiriwatte,  
 V. Vanovschi,  L. Vogt,  Tao Wang,  A. Warshel,  M. A. Watson,  
 C. F. Williams,  Q. Wu,  X. Xu,  Jun Yang,  W. Zhang,  Yan Zhao

 Please cite Q-Chem as follows:
 Y. Shao et al., Mol. Phys. 113, 184-215 (2015)
 DOI: 10.1080/00268976.2014.952696

 Q-Chem 5.4.0 for Intel X86 EM64T Linux

 Parts of Q-Chem use Armadillo 9.800.1 (Horizon Scraper).
 http://arma.sourceforge.net/

 Q-Chem begins on Sun Sep 24 18:19:43 2023  

 Host: 
0

     Scratch files written to ./qchem3003097//
 May1621 |scratch|qcdevops|jenkins|workspace|build_RNUM    
 Parallel job on  1  processors
 Processing $rem in /cm/shared/apps/spack/cpu/opt/spack/linux-centos8-zen2/gcc-10.2.0/qchem-5.4-akfmr7b3t57bfs6qan3padb2wnb2i7cl/config/preferences:
 Processing $rem in /home/rramji/.qchemrc:
 Symmetry turned off for PCM/SM12/SMD calculation
 Core orbitals will be frozen

 Checking the input file for inconsistencies... 	...done.

 Q-Chem warning in module forms1/BasisType.C, line 2236:

 You are not using the predefined 5D/6D in this basis set.


--------------------------------------------------------------
User input:
--------------------------------------------------------------
$molecule
0 1
C	0.268090	-8.519741	-0.046574
C	-0.733920	-7.635967	0.326886
S	1.722318	-7.651740	-0.595708
C	-0.371516	-6.261894	0.193236
H	-1.718130	-7.954738	0.692700
C	0.970283	-6.079985	-0.294958
C	1.498243	-4.798382	-0.515487
C	-1.219725	-5.153542	0.477358
C	-0.692914	-3.869626	0.252655
C	0.651289	-3.688927	-0.233366
O	-2.451623	-5.481075	0.957369
O	2.735264	-4.479871	-0.998769
C	3.828387	-5.356026	-0.752029
H	4.743213	-4.790496	-1.012675
H	3.788623	-6.268513	-1.386303
H	3.877260	-5.658187	0.316492
C	-3.521580	-4.546999	0.881930
H	-4.438260	-5.107564	1.145969
H	-3.631868	-4.131473	-0.142712
H	-3.399425	-3.712085	1.605610
C	1.009535	-2.314326	-0.367928
S	-1.450945	-2.295487	0.542088
C	-0.000000	-1.435180	-0.000000
H	1.993920	-1.993211	-0.730999
H	0.262047	-9.615985	-0.046991
C	0.000000	0.000000	0.000000
S	0.579852	0.687566	1.510732
C	1.591625	1.895024	0.727629
C	0.583771	0.695758	-1.064665
C	1.475308	1.760606	-0.678287
C	0.542366	0.643841	-2.486150
C	1.355286	1.612843	-3.106916
S	2.154609	2.570627	-1.965735
C	1.522440	1.804778	-4.559972
O	0.924684	1.087757	-5.350277
O	2.349739	2.785679	-5.004375
F	-0.170780	-0.212144	-3.246290
C	2.588082	3.053936	-6.334976
H	3.298799	3.899999	-6.370268
H	1.655291	3.328371	-6.875609
H	3.026021	2.177385	-6.861878
H	2.183053	2.599759	1.321510
$end

$rem
JOBTYPE		SP
EXCHANGE	HF
CORRELATION	pRIMP2
BASIS		cc-pvtz
METHOD		rimp2
AUX_BASIS	rimp2-cc-pvtz
SOLVENT_METHOD	PCM
PURECART	11111
SYMMETRY	false
MEM_TOTAL	110000
SCF_CONVERGENCE = 6
THRESH=10
GUI = 2
$end



$solvent
dielectric 4.90
$end
--------------------------------------------------------------
 ----------------------------------------------------------------
             Standard Nuclear Orientation (Angstroms)
    I     Atom           X                Y                Z
 ----------------------------------------------------------------
    1      C       0.2680900000    -8.5197410000    -0.0465740000
    2      C      -0.7339200000    -7.6359670000     0.3268860000
    3      S       1.7223180000    -7.6517400000    -0.5957080000
    4      C      -0.3715160000    -6.2618940000     0.1932360000
    5      H      -1.7181300000    -7.9547380000     0.6927000000
    6      C       0.9702830000    -6.0799850000    -0.2949580000
    7      C       1.4982430000    -4.7983820000    -0.5154870000
    8      C      -1.2197250000    -5.1535420000     0.4773580000
    9      C      -0.6929140000    -3.8696260000     0.2526550000
   10      C       0.6512890000    -3.6889270000    -0.2333660000
   11      O      -2.4516230000    -5.4810750000     0.9573690000
   12      O       2.7352640000    -4.4798710000    -0.9987690000
   13      C       3.8283870000    -5.3560260000    -0.7520290000
   14      H       4.7432130000    -4.7904960000    -1.0126750000
   15      H       3.7886230000    -6.2685130000    -1.3863030000
   16      H       3.8772600000    -5.6581870000     0.3164920000
   17      C      -3.5215800000    -4.5469990000     0.8819300000
   18      H      -4.4382600000    -5.1075640000     1.1459690000
   19      H      -3.6318680000    -4.1314730000    -0.1427120000
   20      H      -3.3994250000    -3.7120850000     1.6056100000
   21      C       1.0095350000    -2.3143260000    -0.3679280000
   22      S      -1.4509450000    -2.2954870000     0.5420880000
   23      C       0.0000000000    -1.4351800000     0.0000000000
   24      H       1.9939200000    -1.9932110000    -0.7309990000
   25      H       0.2620470000    -9.6159850000    -0.0469910000
   26      C       0.0000000000     0.0000000000     0.0000000000
   27      S       0.5798520000     0.6875660000     1.5107320000
   28      C       1.5916250000     1.8950240000     0.7276290000
   29      C       0.5837710000     0.6957580000    -1.0646650000
   30      C       1.4753080000     1.7606060000    -0.6782870000
   31      C       0.5423660000     0.6438410000    -2.4861500000
   32      C       1.3552860000     1.6128430000    -3.1069160000
   33      S       2.1546090000     2.5706270000    -1.9657350000
   34      C       1.5224400000     1.8047780000    -4.5599720000
   35      O       0.9246840000     1.0877570000    -5.3502770000
   36      O       2.3497390000     2.7856790000    -5.0043750000
   37      F      -0.1707800000    -0.2121440000    -3.2462900000
   38      C       2.5880820000     3.0539360000    -6.3349760000
   39      H       3.2987990000     3.8999990000    -6.3702680000
   40      H       1.6552910000     3.3283710000    -6.8756090000
   41      H       3.0260210000     2.1773850000    -6.8618780000
   42      H       2.1830530000     2.5997590000     1.3215100000
 ----------------------------------------------------------------
 Nuclear Repulsion Energy =        3326.25997632 hartrees
 There are      119 alpha and      119 beta electrons
 Requested basis set is cc-pVTZ
 There are 376 shells and 1068 basis functions

 Total QAlloc Memory Limit 110000 MB
 Mega-Array Size       188 MB
 MEM_STATIC part       192 MB
 Discretize the solute cavity surface with Lebedev spheres
	Using 110 Lebedev grid points for each H atom
	Using 194 Lebedev grid points for other atoms
	Atomic van der Waals radii will be scaled by 1.20
 Remove points where switching function is < 1.0e-08
 Keep 2885 surface tesserae and discard 4171 interior tesserae
 Molecular Surface Area = 441.487 Angst**2
 Requested basis set is rimp2-cc-pVTZ
 There are 833 shells and 2903 basis functions
 A cutoff of  1.0D-10 yielded  31717 shell pairs
 There are    243085 function pairs (    315434 Cartesian)
 Smallest overlap matrix eigenvalue = 2.17E-05

 Scale SEOQF with 1.000000e-01/1.000000e-02/1.000000e-02

 Standard Electronic Orientation quadrupole field applied
 Nucleus-field energy     =     0.0000000428 hartrees
 Guess from superposition of atomic densities
 Warning:  Energy on first SCF cycle will be non-variational
 SAD guess density has 238.000000 electrons

 -----------------------------------------------------------------------
  General SCF calculation program by
  Eric Jon Sundstrom, Paul Horn, Yuezhi Mao, Dmitri Zuev, Alec White,
  David Stuck, Shaama M.S., Shane Yost, Joonho Lee, David Small,
  Daniel Levine, Susi Lehtola, Hugh Burton, Evgeny Epifanovsky,
  Bang C. Huynh
 -----------------------------------------------------------------------
 Hartree-Fock
 using 64 threads for integral computing
 -------------------------------------------------------
 OpenMP Integral computing Module                
 Release: version 1.0, May 2013, Q-Chem Inc. Pittsburgh 
 -------------------------------------------------------
 A restricted SCF calculation will be
 performed using DIIS
 SCF converges when DIIS error is below 1.0e-06
 ---------------------------------------
  Cycle       Energy         DIIS error
 ---------------------------------------
    1   -2765.5607939347      1.77e-02  
    2   -2753.8316897146      1.57e-03  
    3   -2754.1712310679      8.84e-04  
    4   -2754.2554978091      2.55e-04  
    5   -2754.2671114355      6.88e-05  
    6   -2754.2681989531      2.44e-05  
    7   -2754.2684415110      1.16e-05  
    8   -2754.2685254647      4.90e-06  
    9   -2754.2685447319      2.30e-06  
   10   -2754.2685482506      1.17e-06  
   11   -2754.2685492621      4.95e-07  Convergence criterion met
 ---------------------------------------
 SCF time:   CPU 6945.70s  wall 253.00s 

************** Final PCM Free Energy Summary **************
 G_electrostatic  =      -0.02094168 hartree =     -13.14110203 kcal/mol
 G_cavitation     =       0.00000000 hartree =       0.00000000 kcal/mol
 G_dispersion     =       0.00000000 hartree =       0.00000000 kcal/mol
 G_repulsion      =       0.00000000 hartree =       0.00000000 kcal/mol
 --------------------------------------------------
 Non-electrostatic Free Energy =       0.00000000 hartree =       0.00000000 kcal/mol
 Total                         =      -0.02094168 hartree =     -13.14110203 kcal/mol
 --------------------------------------------------
 SCF Energy (H0 + V/2)                       =   -2754.26854926 
 Solute Internal Energy (H0)                 =   -2754.24760758 
 Total Free Energy (H0 + V/2 + non-elec)     =   -2754.26854926 hartree
                                             = -1728329.60033940 kcal/mol
***********************************************************

 SCF   energy in the final basis set =    -2754.2685492621
 Total energy in the final basis set =    -2754.2685492621


 --------------------------------------------------------------
  Generalized many-body perturbation theory program
  by Joonho Lee, Fazle Rob, Xintian Feng, Evgeny Epifanovsky

 No regularization used 
 (reg. param. = 0.0000e+00)
  (P|Q)^-1/2 Time:  CPU 191.56 s  wall 3.70 s

 In RI-MP2 calculation: 
 # of frozen core orbitals: 45

 Components of the RIMP2 correlation energy:
        aaaa    correlation energy =        -0.6722092104 a.u.
        abab    correlation energy =        -3.7173116992 a.u.
        bbbb    correlation energy =        -0.6722092104 a.u.
        non-Brillouin singles      =        -0.0000000000 a.u.
        total same-spin energy     =        -1.3444184209 a.u.
        total opposite-spin energy =        -3.7173116992 a.u.

 Total  RIMP2   correlation energy =        -5.0617301201 a.u.
        RIMP2         total energy =     -2759.3302793822 a.u.

 RI-MP2 Energy Time:  CPU 2782.50 s  wall 45.48 s
 
 --------------------------------------------------------------
 
                    Orbital Energies (a.u.)
 --------------------------------------------------------------
 
 Alpha MOs
 -- Occupied --
-92.0155 -91.9991 -91.9851 -91.9847 -26.3338 -20.6138 -20.5913 -20.5901
-20.5532 -11.4130 -11.3768 -11.3176 -11.3156 -11.3086 -11.3038 -11.2978
-11.2930 -11.2921 -11.2893 -11.2884 -11.2860 -11.2854 -11.2829 -11.2826
-11.2782 -11.2591 -11.2568 -11.2524 -11.2490  -9.0140  -9.0030  -8.9853
 -8.9850  -6.6947  -6.6940  -6.6936  -6.6842  -6.6835  -6.6822  -6.6663
 -6.6660  -6.6655  -6.6654  -6.6647  -6.6645  -1.6467  -1.4738  -1.4153
 -1.4129  -1.3694  -1.2372  -1.1939  -1.1680  -1.1431  -1.0832  -1.0503
 -1.0491  -1.0297  -0.9999  -0.9922  -0.9730  -0.9596  -0.9493  -0.9387
 -0.8940  -0.8717  -0.8463  -0.8034  -0.7929  -0.7867  -0.7742  -0.7701
 -0.7557  -0.7313  -0.7182  -0.7152  -0.7005  -0.6907  -0.6812  -0.6799
 -0.6736  -0.6603  -0.6579  -0.6516  -0.6285  -0.6189  -0.6157  -0.6086
 -0.6046  -0.5984  -0.5814  -0.5751  -0.5699  -0.5638  -0.5539  -0.5507
 -0.5315  -0.5265  -0.5236  -0.5149  -0.5134  -0.5080  -0.5014  -0.4945
 -0.4891  -0.4866  -0.4717  -0.4647  -0.4637  -0.4624  -0.4590  -0.4055
 -0.3978  -0.3861  -0.3597  -0.3457  -0.3150  -0.2917  -0.2550
 -- Virtual --
  0.0140   0.0660   0.1111   0.1256   0.1369   0.1401   0.1499   0.1550
  0.1561   0.1604   0.1624   0.1714   0.1791   0.1838   0.1885   0.1915
  0.1968   0.2048   0.2099   0.2190   0.2200   0.2219   0.2245   0.2277
  0.2313   0.2352   0.2446   0.2534   0.2575   0.2649   0.2709   0.2784
  0.2854   0.3041   0.3102   0.3253   0.3352   0.3379   0.3423   0.3480
  0.3531   0.3598   0.3670   0.3702   0.3732   0.3789   0.3834   0.3844
  0.3873   0.3900   0.3920   0.4057   0.4092   0.4135   0.4165   0.4209
  0.4261   0.4310   0.4325   0.4374   0.4462   0.4487   0.4538   0.4563
  0.4589   0.4594   0.4676   0.4701   0.4753   0.4800   0.4847   0.4897
  0.4968   0.4991   0.5017   0.5108   0.5125   0.5154   0.5206   0.5212
  0.5319   0.5352   0.5370   0.5401   0.5447   0.5453   0.5478   0.5525
  0.5563   0.5577   0.5625   0.5684   0.5701   0.5744   0.5784   0.5827
  0.5858   0.5888   0.5935   0.5964   0.5981   0.6040   0.6081   0.6148
  0.6148   0.6162   0.6183   0.6222   0.6237   0.6280   0.6324   0.6370
  0.6401   0.6423   0.6460   0.6509   0.6530   0.6555   0.6565   0.6657
  0.6755   0.6784   0.6822   0.6877   0.6890   0.6931   0.6994   0.7037
  0.7110   0.7118   0.7159   0.7278   0.7282   0.7440   0.7477   0.7562
  0.7572   0.7609   0.7699   0.7761   0.7804   0.7870   0.7909   0.7977
  0.8020   0.8025   0.8102   0.8184   0.8215   0.8306   0.8358   0.8422
  0.8453   0.8626   0.8643   0.8651   0.8705   0.8776   0.8804   0.8926
  0.8979   0.8999   0.9075   0.9110   0.9148   0.9168   0.9219   0.9245
  0.9291   0.9393   0.9428   0.9474   0.9499   0.9571   0.9609   0.9660
  0.9734   0.9757   0.9809   0.9852   0.9902   0.9935   0.9980   1.0025
  1.0054   1.0097   1.0146   1.0187   1.0216   1.0285   1.0361   1.0409
  1.0473   1.0513   1.0546   1.0609   1.0618   1.0708   1.0720   1.0761
  1.0792   1.0845   1.0878   1.0938   1.1038   1.1059   1.1111   1.1149
  1.1171   1.1257   1.1293   1.1413   1.1446   1.1489   1.1589   1.1625
  1.1651   1.1700   1.1747   1.1767   1.1816   1.1832   1.1834   1.1943
  1.1993   1.2010   1.2099   1.2148   1.2187   1.2195   1.2221   1.2308
  1.2363   1.2419   1.2508   1.2549   1.2563   1.2602   1.2724   1.2751
  1.2760   1.2853   1.2874   1.3020   1.3060   1.3098   1.3168   1.3210
  1.3231   1.3321   1.3411   1.3462   1.3514   1.3561   1.3609   1.3718
  1.3774   1.3808   1.3912   1.3919   1.4039   1.4169   1.4180   1.4258
  1.4389   1.4453   1.4529   1.4643   1.4684   1.4723   1.4829   1.4927
  1.4944   1.5041   1.5054   1.5068   1.5101   1.5115   1.5198   1.5270
  1.5287   1.5361   1.5389   1.5432   1.5485   1.5543   1.5567   1.5626
  1.5699   1.5785   1.5886   1.5921   1.6049   1.6094   1.6221   1.6305
  1.6376   1.6451   1.6490   1.6605   1.6631   1.6685   1.6771   1.6821
  1.6869   1.6954   1.6984   1.7109   1.7160   1.7293   1.7323   1.7519
  1.7593   1.7631   1.7777   1.7844   1.7963   1.7990   1.8099   1.8109
  1.8285   1.8309   1.8356   1.8495   1.8581   1.8636   1.8675   1.8748
  1.8831   1.8899   1.8961   1.9071   1.9180   1.9218   1.9272   1.9286
  1.9362   1.9457   1.9521   1.9618   1.9652   1.9750   1.9814   1.9935
  2.0031   2.0088   2.0156   2.0319   2.0342   2.0383   2.0448   2.0648
  2.0710   2.0876   2.0964   2.1053   2.1146   2.1183   2.1390   2.1449
  2.1502   2.1557   2.1581   2.1658   2.1731   2.1744   2.1841   2.1939
  2.1964   2.2000   2.2069   2.2177   2.2227   2.2301   2.2357   2.2446
  2.2449   2.2533   2.2565   2.2751   2.2763   2.2788   2.2954   2.3009
  2.3076   2.3115   2.3149   2.3180   2.3330   2.3484   2.3565   2.3583
  2.3630   2.3815   2.3895   2.3932   2.4000   2.4084   2.4162   2.4242
  2.4391   2.4423   2.4530   2.4585   2.4660   2.4737   2.4851   2.4908
  2.5014   2.5109   2.5261   2.5279   2.5361   2.5443   2.5543   2.5626
  2.5778   2.5802   2.5948   2.5982   2.6031   2.6066   2.6174   2.6207
  2.6249   2.6301   2.6386   2.6453   2.6502   2.6540   2.6623   2.6734
  2.6822   2.6888   2.6929   2.6984   2.7012   2.7062   2.7137   2.7194
  2.7282   2.7317   2.7374   2.7419   2.7499   2.7536   2.7611   2.7704
  2.7795   2.7834   2.7912   2.8003   2.8061   2.8085   2.8166   2.8235
  2.8287   2.8412   2.8457   2.8515   2.8548   2.8623   2.8674   2.8713
  2.8759   2.8841   2.8876   2.8918   2.9038   2.9122   2.9255   2.9430
  2.9449   2.9524   2.9554   2.9696   2.9811   2.9845   2.9945   2.9989
  3.0117   3.0157   3.0237   3.0336   3.0342   3.0397   3.0428   3.0460
  3.0518   3.0599   3.0633   3.0740   3.0856   3.0901   3.0929   3.0978
  3.1059   3.1116   3.1149   3.1216   3.1261   3.1366   3.1453   3.1494
  3.1547   3.1589   3.1650   3.1670   3.1689   3.1771   3.1813   3.1852
  3.1945   3.1960   3.2005   3.2091   3.2107   3.2160   3.2203   3.2259
  3.2338   3.2382   3.2432   3.2491   3.2541   3.2557   3.2661   3.2704
  3.2779   3.2802   3.2840   3.2890   3.2907   3.2940   3.2990   3.3006
  3.3088   3.3199   3.3224   3.3251   3.3317   3.3414   3.3460   3.3506
  3.3550   3.3592   3.3611   3.3625   3.3636   3.3711   3.3756   3.3824
  3.3853   3.3904   3.3953   3.3999   3.4098   3.4139   3.4174   3.4193
  3.4256   3.4300   3.4352   3.4390   3.4443   3.4494   3.4508   3.4537
  3.4630   3.4667   3.4685   3.4749   3.4850   3.4880   3.4947   3.5006
  3.5078   3.5140   3.5193   3.5246   3.5297   3.5326   3.5355   3.5428
  3.5491   3.5524   3.5553   3.5688   3.5715   3.5736   3.5807   3.5860
  3.5905   3.5931   3.5968   3.6051   3.6081   3.6105   3.6179   3.6318
  3.6334   3.6357   3.6432   3.6496   3.6513   3.6569   3.6582   3.6653
  3.6736   3.6754   3.6818   3.6841   3.6890   3.6922   3.6978   3.7068
  3.7093   3.7100   3.7196   3.7264   3.7293   3.7377   3.7407   3.7414
  3.7456   3.7536   3.7659   3.7697   3.7747   3.7829   3.7854   3.7865
  3.7971   3.8017   3.8084   3.8113   3.8138   3.8217   3.8280   3.8373
  3.8386   3.8431   3.8460   3.8525   3.8535   3.8571   3.8689   3.8739
  3.8805   3.8844   3.8861   3.8946   3.9068   3.9091   3.9250   3.9289
  3.9319   3.9364   3.9457   3.9515   3.9583   3.9693   3.9807   3.9876
  3.9912   3.9999   4.0095   4.0146   4.0191   4.0288   4.0305   4.0396
  4.0558   4.0600   4.0617   4.0726   4.0766   4.0825   4.0830   4.0951
  4.1018   4.1074   4.1171   4.1286   4.1369   4.1465   4.1489   4.1533
  4.1598   4.1701   4.1723   4.1789   4.1824   4.1899   4.2036   4.2062
  4.2148   4.2272   4.2341   4.2393   4.2508   4.2557   4.2658   4.2764
  4.2855   4.2920   4.3116   4.3139   4.3295   4.3392   4.3470   4.3552
  4.3573   4.3681   4.3693   4.3755   4.3816   4.3894   4.3966   4.4070
  4.4127   4.4145   4.4196   4.4211   4.4317   4.4339   4.4397   4.4562
  4.4647   4.4713   4.4834   4.4847   4.4997   4.5066   4.5124   4.5148
  4.5237   4.5401   4.5476   4.5552   4.5591   4.5705   4.5912   4.5927
  4.6070   4.6116   4.6166   4.6310   4.6399   4.6409   4.6512   4.6564
  4.6584   4.6673   4.6758   4.6856   4.6972   4.7023   4.7163   4.7304
  4.7364   4.7465   4.7705   4.7756   4.7805   4.7834   4.8061   4.8134
  4.8246   4.8316   4.8406   4.8557   4.8778   4.8892   4.9061   4.9199
  4.9397   4.9457   4.9607   4.9629   4.9661   4.9808   4.9948   5.0021
  5.0075   5.0112   5.0159   5.0379   5.0485   5.0508   5.0644   5.0722
  5.0866   5.0945   5.1166   5.1519   5.1618   5.1741   5.1877   5.1929
  5.1990   5.2118   5.2166   5.2326   5.2511   5.2541   5.2583   5.2809
  5.3008   5.3105   5.3254   5.3301   5.3426   5.3480   5.3543   5.3617
  5.3726   5.3895   5.3983   5.4009   5.4173   5.4297   5.4642   5.4723
  5.4744   5.4914   5.4956   5.5085   5.5113   5.5148   5.5382   5.5606
  5.5731   5.5834   5.5889   5.6067   5.6153   5.6323   5.6405   5.6674
  5.7114   5.7334   5.7962   5.7992   5.8117   5.8289   5.8451   5.8564
  5.8750   5.8839   5.9071   5.9635   5.9677   5.9731   5.9990   6.0166
  6.0611   6.0891   6.1158   6.1325   6.1364   6.1719   6.1797   6.1844
  6.2396   6.2448   6.2698   6.2827   6.2999   6.3072   6.3219   6.3851
  6.4296   6.4445   6.4893   6.5103   6.5492   6.5544   6.5573   6.6545
  6.6670   6.6746   6.7018   6.7319   6.7406   6.8021   6.8380   6.8579
  6.8792   6.8941   6.9884   7.1217   7.1377   7.1767   7.2090   7.2166
  7.2347   7.3209   7.3241   7.3319   7.3739   7.3758   7.4245   7.4610
  7.4797   7.4872   7.4894   7.5189   7.5467   7.6013   7.7085   7.7713
  7.7979   7.8295   7.9003   7.9222   7.9487   8.0027   8.0901   8.1553
  8.5062   8.9287   9.0086   9.3639   9.4983   9.6914  10.2119  10.5608
 11.2228  11.4249  11.9326  12.0665  12.1317  12.1774  12.3337  12.5795
 12.6279  12.7015  12.9633  13.2583  13.2938  13.5704  13.8457  13.8700
 13.9029  14.0285  14.1280  14.5482  15.1989
 --------------------------------------------------------------
 
          Ground-State Mulliken Net Atomic Charges

     Atom                 Charge (a.u.)
  ----------------------------------------
      1 C                    -0.191087
      2 C                    -0.254255
      3 S                    -0.024380
      4 C                    -0.017626
      5 H                     0.195976
      6 C                    -0.028240
      7 C                     0.239306
      8 C                     0.244465
      9 C                    -0.049328
     10 C                    -0.014683
     11 O                    -0.333673
     12 O                    -0.340604
     13 C                    -0.085628
     14 H                     0.121957
     15 H                     0.091105
     16 H                     0.093301
     17 C                    -0.086813
     18 H                     0.124697
     19 H                     0.094939
     20 H                     0.089225
     21 C                    -0.239928
     22 S                    -0.014472
     23 C                    -0.005980
     24 H                     0.198027
     25 H                     0.205865
     26 C                    -0.071703
     27 S                     0.128851
     28 C                    -0.197671
     29 C                    -0.125624
     30 C                    -0.003709
     31 C                     0.391670
     32 C                    -0.145091
     33 S                     0.053291
     34 C                     0.459253
     35 O                    -0.444237
     36 O                    -0.297388
     37 F                    -0.210094
     38 C                    -0.054703
     39 H                     0.116933
     40 H                     0.085185
     41 H                     0.085088
     42 H                     0.217784
  ----------------------------------------
  Sum of atomic charges =     0.000000

 -----------------------------------------------------------------
                    Cartesian Multipole Moments
 -----------------------------------------------------------------
    Charge (ESU x 10^10)
                 0.0000
    Dipole Moment (Debye)
         X       2.9704      Y       2.1996      Z       3.2505
       Tot       4.9221
    Quadrupole Moments (Debye-Ang)
        XX    -169.8588     XY       8.2668     YY    -168.2436
        XZ     -10.2425     YZ     -10.0577     ZZ    -204.4133
    Octopole Moments (Debye-Ang^2)
       XXX    -353.5203    XXY     338.0385    XYY     -88.7201
       YYY    1007.5433    XXZ     158.7222    XYZ     -11.9665
       YYZ     153.1808    XZZ     -51.5289    YZZ     527.0433
       ZZZ     548.4261
    Hexadecapole Moments (Debye-Ang^3)
      XXXX   -3299.0812   XXXY    -202.3177   XXYY   -3581.9082
      XYYY    -197.7634   YYYY  -17829.2207   XXXZ    1118.8609
      XXYZ     256.7492   XYYZ     243.9849   YYYZ     884.3269
      XXZZ   -1359.6075   XYZZ     215.2282   YYZZ   -4326.0981
      XZZZ     790.0558   YZZZ     425.0060   ZZZZ   -5693.5894
 -----------------------------------------------------------------
 Total job time:  302.26s(wall), 9832.23s(cpu) 
 Sun Sep 24 18:24:46 2023

        *************************************************************
        *                                                           *
        *  Thank you very much for using Q-Chem.  Have a nice day.  *
        *                                                           *
        *************************************************************


0 sent ACK to 0 
now end server 0 ... 
cleanup process ... done
remove work dirs ./qchem3003097.0 -- ./qchem3003097.0
rm -rf ./qchem3003097.0
rm -rf ./qchem3003097
