You are running Q-Chem version: 5.4.0

#
# job setting
#
local host:  exp-4-17
current dir: /expanse/lustre/projects/csd626/rramji/aromodel/PTB7_fin/Rotation_Test
input file:  fin_bdt_Phi_15_Theta_0_fin_ftt.qcin
output file: 
nprocs     : 1
nthreads   : 64
#
# qchem installation setting
#
QC:          /cm/shared/apps/spack/cpu/opt/spack/linux-centos8-zen2/gcc-10.2.0/qchem-5.4-akfmr7b3t57bfs6qan3padb2wnb2i7cl
QCAUX:       /cm/shared/apps/spack/cpu/opt/spack/linux-centos8-zen2/gcc-10.2.0/qchem-5.4-akfmr7b3t57bfs6qan3padb2wnb2i7cl/qcaux
QCPROG:      /cm/shared/apps/spack/cpu/opt/spack/linux-centos8-zen2/gcc-10.2.0/qchem-5.4-akfmr7b3t57bfs6qan3padb2wnb2i7cl/exe/qcprog.exe
QCPROG_S:    /cm/shared/apps/spack/cpu/opt/spack/linux-centos8-zen2/gcc-10.2.0/qchem-5.4-akfmr7b3t57bfs6qan3padb2wnb2i7cl/exe/qcprog.exe_s
PARALLEL:    -DPARALLEL
QCMPI:       mpich
#
# qchem directory setting
#
qcrun:       qchem1287489
QCSCRATCH:   .
QCLOCALSCR:  
QCTMPDIR:    .
QCFILEPREF:  ./qchem1287489
QCSAVEDIR:   
workdirs:    ./qchem1287489
workdir0:    ./qchem1287489
partmpdirs =  
#
# parallel setting
#
QCRSH:           ssh
QCMPI:           mpich
QCMPIRUN:        /cm/shared/apps/spack/cpu/opt/spack/linux-centos8-zen2/gcc-10.2.0/qchem-5.4-akfmr7b3t57bfs6qan3padb2wnb2i7cl/bin/mpi/mpirun_qchem
QCMACHINEFILE:   ./qchem1287489/hostfile
exp-4-17

#
# env setting
#
exported envs:   QC QCAUX QCSCRATCH QCRUNNAME QCFILEPREF QCPROG QCPROG_S GUIFILE

Running Job 1 of 1 fin_bdt_Phi_15_Theta_0_fin_ftt.qcin
qchem fin_bdt_Phi_15_Theta_0_fin_ftt.qcin_1287489.0 ./qchem1287489/ 1
/cm/shared/apps/spack/cpu/opt/spack/linux-centos8-zen2/gcc-10.2.0/qchem-5.4-akfmr7b3t57bfs6qan3padb2wnb2i7cl/bin/mpi/mpirun_qchem -machinefile ./qchem1287489/hostfile -np 1 /cm/shared/apps/spack/cpu/opt/spack/linux-centos8-zen2/gcc-10.2.0/qchem-5.4-akfmr7b3t57bfs6qan3padb2wnb2i7cl/exe/qcprog.exe fin_bdt_Phi_15_Theta_0_fin_ftt.qcin_1287489.0 ./qchem1287489/

Process 0 of 1 is on exp-4-17 - thread support 0
initial socket setup ...start
initial socket setup ...done 
now start server 0 ... 
                  Welcome to Q-Chem
     A Quantum Leap Into The Future Of Chemistry


 Q-Chem 5.4, Q-Chem, Inc., Pleasanton, CA (2021)

 License issued to: University of California, San Diego (site)

 E. Epifanovsky,  A. T. B. Gilbert,  Xintian Feng,  Joonho Lee,  Yuezhi Mao,  
 N. Mardirossian,  P. Pokhilko,  A. White,  M. Wormit,  M. P. Coons,  
 A. L. Dempwolff,  Zhengting Gan,  D. Hait,  P. R. Horn,  L. D. Jacobson,  
 I. Kaliman,  J. Kussmann,  A. W. Lange,  Ka Un Lao,  D. S. Levine,  Jie Liu,  
 S. C. McKenzie,  A. F. Morrison,  K. Nanda,  F. Plasser,  D. R. Rehn,  
 M. L. Vidal,  Zhi-Qiang You,  Ying Zhu,  B. Alam,  B. Albrecht,  
 A. Aldossary,  E. Alguire,  J. H. Andersen,  D. Barton,  K. Begam,  A. Behn,  
 Y. A. Bernard,  E. J. Berquist,  H. Burton,  A. Carreras,  K. Carter-Fenk,  
 R. Chakraborty,  A. D. Chien,  K. D. Closser,  V. Cofer-Shabica,  
 S. Dasgupta,  Jia Deng,  M. de Wergifosse,  M. Diedenhofen,  Hainam Do,  
 S. Ehlert,  Po-Tung Fang,  S. Fatehi,  Qingguo Feng,  J. Gayvert,  
 Qinghui Ge,  G. Gidofalvi,  M. Goldey,  J. Gomes,  C. Gonzalez-Espinoza,  
 S. Gulania,  A. Gunina,  M. W. D. Hanson-Heine,  P. H. P. Harbach,  
 A. W. Hauser,  M. F. Herbst,  M. Hernandez Vera,  M. Hodecker,  
 Z. C. Holden,  S. Houck,  Xunkun Huang,  Kerwin Hui,  B. C. Huynh,  
 M. Ivanov,  Hyunjun Ji,  Hanjie Jiang,  B. Kaduk,  S. Kaehler,  
 K. Khistyaev,  Jaehoon Kim,  P. Klunzinger,  Z. Koczor-Benda,  
 Joong Hoon Koh,  D. Kosenkov,  L. Koulias,  T. Kowalczyk,  C. M. Krauter,  
 K. Kue,  A. Kunitsa,  T. Kus,  A. Landau,  K. V. Lawler,  D. Lefrancois,  
 S. Lehtola,  Rain Li,  Yi-Pei Li,  Jiashu Liang,  M. Liebenthal,  
 Hung-Hsuan Lin,  You-Sheng Lin,  Fenglai Liu,  Kuan-Yu Liu,  
 M. Loipersberger,  A. Luenser,  A. Manjanath,  P. Manohar,  E. Mansoor,  
 S. F. Manzer,  Shan-Ping Mao,  A. V. Marenich,  T. Markovich,  S. Mason,  
 S. A. Maurer,  P. F. McLaughlin,  M. F. S. J. Menger,  J.-M. Mewes,  
 S. A. Mewes,  P. Morgante,  J. W. Mullinax,  T. S. Nguyen-Beck,  
 K. J. Oosterbaan,  G. Paran,  Alexander C. Paul,  Suranjan K. Paul,  
 F. Pavosevic,  Zheng Pei,  S. Prager,  E. I. Proynov,  E. Ramos,  B. Rana,  
 A. E. Rask,  A. Rettig,  R. M. Richard,  F. Rob,  E. Rossomme,  T. Scheele,  
 M. Scheurer,  M. Schneider,  N. Sergueev,  S. M. Sharada,  W. Skomorowski,  
 D. W. Small,  C. J. Stein,  Yu-Chuan Su,  E. J. Sundstrom,  Zhen Tao,  
 J. Thirman,  T. Tsuchimochi,  N. M. Tubman,  S. P. Veccham,  O. Vydrov,  
 J. Wenzel,  J. Witte,  A. Yamada,  Kun Yao,  S. Yeganeh,  S. R. Yost,  
 A. Zech,  Igor Ying Zhang,  Xing Zhang,  Yu Zhang,  D. Zuev,  
 A. Aspuru-Guzik,  A. T. Bell,  N. A. Besley,  K. B. Bravaya,  B. R. Brooks,  
 D. Casanova,  Jeng-Da Chai,  S. Coriani,  C. J. Cramer,  
 A. E. DePrince, III,  R. A. DiStasio Jr.,  A. Dreuw,  B. D. Dunietz,  
 T. R. Furlani,  W. A. Goddard III,  S. Grimme,  S. Hammes-Schiffer,  
 T. Head-Gordon,  W. J. Hehre,  Chao-Ping Hsu,  T.-C. Jagau,  Yousung Jung,  
 A. Klamt,  Jing Kong,  D. S. Lambrecht,  WanZhen Liang,  N. J. Mayhall,  
 C. W. McCurdy,  J. B. Neaton,  C. Ochsenfeld,  J. A. Parkhill,  R. Peverati,  
 V. A. Rassolov,  Yihan Shao,  L. V. Slipchenko,  T. Stauch,  R. P. Steele,  
 J. E. Subotnik,  A. J. W. Thom,  A. Tkatchenko,  D. G. Truhlar,  
 T. Van Voorhis,  T. A. Wesolowski,  K. B. Whaley,  H. L. Woodcock III,  
 P. M. Zimmerman,  S. Faraji,  P. M. W. Gill,  M. Head-Gordon,  
 J. M. Herbert,  A. I. Krylov

 Contributors to earlier versions of Q-Chem not listed above: 
 R. D. Adamson,  B. Austin,  R. Baer,  J. Baker,  G. J. O. Beran,  
 K. Brandhorst,  S. T. Brown,  E. F. C. Byrd,  A. K. Chakraborty,  
 G. K. L. Chan,  Chun-Min Chang,  Yunqing Chen,  C.-L. Cheng,  
 Siu Hung Chien,  D. M. Chipman,  D. L. Crittenden,  H. Dachsel,  
 R. J. Doerksen,  A. D. Dutoi,  R. G. Edgar,  J. Fosso-Tande,  
 L. Fusti-Molnar,  D. Ghosh,  A. Ghysels,  A. Golubeva-Zadorozhnaya,  
 J. Gonthier,  M. S. Gordon,  S. R. Gwaltney,  G. Hawkins,  J. E. Herr,  
 A. Heyden,  S. Hirata,  E. G. Hohenstein,  G. Kedziora,  F. J. Keil,  
 C. Kelley,  Jihan Kim,  R. A. King,  R. Z. Khaliullin,  P. P. Korambath,  
 W. Kurlancheek,  A. Laurent,  A. M. Lee,  M. S. Lee,  S. V. Levchenko,  
 Ching Yeh Lin,  D. Liotard,  E. Livshits,  R. C. Lochan,  I. Lotan,  
 L. A. Martinez-Martinez,  P. E. Maslen,  N. Nair,  D. P. O'Neill,  
 D. Neuhauser,  E. Neuscamman,  C. M. Oana,  R. Olivares-Amaya,  R. Olson,  
 T. M. Perrine,  B. Peters,  P. A. Pieniazek,  A. Prociuk,  Y. M. Rhee,  
 J. Ritchie,  M. A. Rohrdanz,  E. Rosta,  N. J. Russ,  H. F. Schaefer III,  
 M. W. Schmidt,  N. E. Schultz,  S. Sharma,  N. Shenvi,  C. D. Sherrill,  
 A. C. Simmonett,  A. Sodt,  T. Stein,  D. Stuck,  K. S. Thanthiriwatte,  
 V. Vanovschi,  L. Vogt,  Tao Wang,  A. Warshel,  M. A. Watson,  
 C. F. Williams,  Q. Wu,  X. Xu,  Jun Yang,  W. Zhang,  Yan Zhao

 Please cite Q-Chem as follows:
 Y. Shao et al., Mol. Phys. 113, 184-215 (2015)
 DOI: 10.1080/00268976.2014.952696

 Q-Chem 5.4.0 for Intel X86 EM64T Linux

 Parts of Q-Chem use Armadillo 9.800.1 (Horizon Scraper).
 http://arma.sourceforge.net/

 Q-Chem begins on Tue Sep 26 17:25:27 2023  

 Host: 
0

     Scratch files written to ./qchem1287489//
 May1621 |scratch|qcdevops|jenkins|workspace|build_RNUM    
 Parallel job on  1  processors
 Processing $rem in /cm/shared/apps/spack/cpu/opt/spack/linux-centos8-zen2/gcc-10.2.0/qchem-5.4-akfmr7b3t57bfs6qan3padb2wnb2i7cl/config/preferences:
 Processing $rem in /home/rramji/.qchemrc:
 Symmetry turned off for PCM/SM12/SMD calculation
 Core orbitals will be frozen

 Checking the input file for inconsistencies... 	...done.

 Q-Chem warning in module forms1/BasisType.C, line 2236:

 You are not using the predefined 5D/6D in this basis set.


--------------------------------------------------------------
User input:
--------------------------------------------------------------
$molecule
0 1
C	0.694800	-8.491498	0.267851
C	0.609575	-7.611804	-0.801461
S	0.637720	-7.625175	1.822194
C	0.491451	-6.242817	-0.415201
H	0.630252	-7.929984	-1.851431
C	0.475427	-6.061615	1.012650
C	0.390283	-4.782565	1.584194
C	0.417881	-5.136668	-1.309433
C	0.336834	-3.854939	-0.737539
C	0.318062	-3.675191	0.691828
O	0.416812	-5.465546	-2.631211
O	0.393456	-4.462560	2.911907
C	-0.133608	-5.388174	3.854716
H	-0.250600	-4.830719	4.803517
H	0.553224	-6.244057	4.034285
H	-1.124185	-5.778154	3.535185
C	0.770575	-4.496951	-3.610841
H	0.884590	-5.049682	-4.562544
H	1.731122	-3.995801	-3.364029
H	-0.021261	-3.728125	-3.743566
C	0.202163	-2.305480	1.074491
S	0.186971	-2.287897	-1.548848
C	0.125084	-1.429719	0.000000
H	0.178654	-1.985194	2.123688
H	0.792793	-9.583356	0.262315
C	0.000000	0.000000	0.000000
S	0.158383	0.885376	1.510732
C	0.430876	2.436951	0.727629
C	0.157682	0.894430	-1.064665
C	0.397351	2.262384	-0.678287
C	0.147783	0.828765	-2.486150
C	0.367291	2.074406	-3.106916
S	0.580633	3.303533	-1.965735
C	0.416083	2.324204	-4.559972
O	0.256921	1.404367	-5.350277
O	0.642094	3.587338	-5.004375
F	-0.041828	-0.269113	-3.246290
C	0.714377	3.938827	-6.334976
H	0.906844	5.026898	-6.370268
H	-0.230661	3.710099	-6.875609
H	1.531918	3.398681	-6.861878
H	0.590699	3.342984	1.321510
$end

$rem
JOBTYPE		SP
EXCHANGE	HF
CORRELATION	pRIMP2
BASIS		cc-pvtz
METHOD		rimp2
AUX_BASIS	rimp2-cc-pvtz
SOLVENT_METHOD	PCM
PURECART	11111
SYMMETRY	false
MEM_TOTAL	110000
SCF_CONVERGENCE = 6
THRESH=10
GUI = 2
$end



$solvent
dielectric 4.90
$end
--------------------------------------------------------------
 ----------------------------------------------------------------
             Standard Nuclear Orientation (Angstroms)
    I     Atom           X                Y                Z
 ----------------------------------------------------------------
    1      C       0.6948000000    -8.4914980000     0.2678510000
    2      C       0.6095750000    -7.6118040000    -0.8014610000
    3      S       0.6377200000    -7.6251750000     1.8221940000
    4      C       0.4914510000    -6.2428170000    -0.4152010000
    5      H       0.6302520000    -7.9299840000    -1.8514310000
    6      C       0.4754270000    -6.0616150000     1.0126500000
    7      C       0.3902830000    -4.7825650000     1.5841940000
    8      C       0.4178810000    -5.1366680000    -1.3094330000
    9      C       0.3368340000    -3.8549390000    -0.7375390000
   10      C       0.3180620000    -3.6751910000     0.6918280000
   11      O       0.4168120000    -5.4655460000    -2.6312110000
   12      O       0.3934560000    -4.4625600000     2.9119070000
   13      C      -0.1336080000    -5.3881740000     3.8547160000
   14      H      -0.2506000000    -4.8307190000     4.8035170000
   15      H       0.5532240000    -6.2440570000     4.0342850000
   16      H      -1.1241850000    -5.7781540000     3.5351850000
   17      C       0.7705750000    -4.4969510000    -3.6108410000
   18      H       0.8845900000    -5.0496820000    -4.5625440000
   19      H       1.7311220000    -3.9958010000    -3.3640290000
   20      H      -0.0212610000    -3.7281250000    -3.7435660000
   21      C       0.2021630000    -2.3054800000     1.0744910000
   22      S       0.1869710000    -2.2878970000    -1.5488480000
   23      C       0.1250840000    -1.4297190000     0.0000000000
   24      H       0.1786540000    -1.9851940000     2.1236880000
   25      H       0.7927930000    -9.5833560000     0.2623150000
   26      C       0.0000000000     0.0000000000     0.0000000000
   27      S       0.1583830000     0.8853760000     1.5107320000
   28      C       0.4308760000     2.4369510000     0.7276290000
   29      C       0.1576820000     0.8944300000    -1.0646650000
   30      C       0.3973510000     2.2623840000    -0.6782870000
   31      C       0.1477830000     0.8287650000    -2.4861500000
   32      C       0.3672910000     2.0744060000    -3.1069160000
   33      S       0.5806330000     3.3035330000    -1.9657350000
   34      C       0.4160830000     2.3242040000    -4.5599720000
   35      O       0.2569210000     1.4043670000    -5.3502770000
   36      O       0.6420940000     3.5873380000    -5.0043750000
   37      F      -0.0418280000    -0.2691130000    -3.2462900000
   38      C       0.7143770000     3.9388270000    -6.3349760000
   39      H       0.9068440000     5.0268980000    -6.3702680000
   40      H      -0.2306610000     3.7100990000    -6.8756090000
   41      H       1.5319180000     3.3986810000    -6.8618780000
   42      H       0.5906990000     3.3429840000     1.3215100000
 ----------------------------------------------------------------
 Nuclear Repulsion Energy =        3325.54148523 hartrees
 There are      119 alpha and      119 beta electrons
 Requested basis set is cc-pVTZ
 There are 376 shells and 1068 basis functions

 Total QAlloc Memory Limit 110000 MB
 Mega-Array Size       188 MB
 MEM_STATIC part       192 MB
 Discretize the solute cavity surface with Lebedev spheres
	Using 110 Lebedev grid points for each H atom
	Using 194 Lebedev grid points for other atoms
	Atomic van der Waals radii will be scaled by 1.20
 Remove points where switching function is < 1.0e-08
 Keep 2880 surface tesserae and discard 4176 interior tesserae
 Molecular Surface Area = 431.599 Angst**2
 Requested basis set is rimp2-cc-pVTZ
 There are 833 shells and 2903 basis functions
 A cutoff of  1.0D-10 yielded  31497 shell pairs
 There are    241585 function pairs (    313544 Cartesian)
 Smallest overlap matrix eigenvalue = 2.15E-05

 Scale SEOQF with 1.000000e-01/1.000000e-02/1.000000e-02

 Standard Electronic Orientation quadrupole field applied
 Nucleus-field energy     =     0.0000000140 hartrees
 Guess from superposition of atomic densities
 Warning:  Energy on first SCF cycle will be non-variational
 SAD guess density has 238.000000 electrons

 -----------------------------------------------------------------------
  General SCF calculation program by
  Eric Jon Sundstrom, Paul Horn, Yuezhi Mao, Dmitri Zuev, Alec White,
  David Stuck, Shaama M.S., Shane Yost, Joonho Lee, David Small,
  Daniel Levine, Susi Lehtola, Hugh Burton, Evgeny Epifanovsky,
  Bang C. Huynh
 -----------------------------------------------------------------------
 Hartree-Fock
 using 64 threads for integral computing
 -------------------------------------------------------
 OpenMP Integral computing Module                
 Release: version 1.0, May 2013, Q-Chem Inc. Pittsburgh 
 -------------------------------------------------------
 A restricted SCF calculation will be
 performed using DIIS
 SCF converges when DIIS error is below 1.0e-06
 ---------------------------------------
  Cycle       Energy         DIIS error
 ---------------------------------------
    1   -2765.5769103048      1.77e-02  
    2   -2753.8496690623      1.57e-03  
    3   -2754.1897465219      8.86e-04  
    4   -2754.2750242467      2.55e-04  
    5   -2754.2868047492      6.83e-05  
    6   -2754.2879125121      2.40e-05  
    7   -2754.2881668687      1.17e-05  
    8   -2754.2882522810      4.61e-06  
    9   -2754.2882698743      1.95e-06  
   10   -2754.2882724846      8.46e-07  Convergence criterion met
 ---------------------------------------
 SCF time:   CPU 6833.80s  wall 255.00s 

************** Final PCM Free Energy Summary **************
 G_electrostatic  =      -0.01918118 hartree =     -12.03637297 kcal/mol
 G_cavitation     =       0.00000000 hartree =       0.00000000 kcal/mol
 G_dispersion     =       0.00000000 hartree =       0.00000000 kcal/mol
 G_repulsion      =       0.00000000 hartree =       0.00000000 kcal/mol
 --------------------------------------------------
 Non-electrostatic Free Energy =       0.00000000 hartree =       0.00000000 kcal/mol
 Total                         =      -0.01918118 hartree =     -12.03637297 kcal/mol
 --------------------------------------------------
 SCF Energy (H0 + V/2)                       =   -2754.28827248 
 Solute Internal Energy (H0)                 =   -2754.26909130 
 Total Free Energy (H0 + V/2 + non-elec)     =   -2754.28827248 hartree
                                             = -1728341.97684831 kcal/mol
***********************************************************

 SCF   energy in the final basis set =    -2754.2882724846
 Total energy in the final basis set =    -2754.2882724846


 --------------------------------------------------------------
  Generalized many-body perturbation theory program
  by Joonho Lee, Fazle Rob, Xintian Feng, Evgeny Epifanovsky

 No regularization used 
 (reg. param. = 0.0000e+00)
  (P|Q)^-1/2 Time:  CPU 313.79 s  wall 6.00 s

 In RI-MP2 calculation: 
 # of frozen core orbitals: 45

 Components of the RIMP2 correlation energy:
        aaaa    correlation energy =        -0.6720017557 a.u.
        abab    correlation energy =        -3.7139729402 a.u.
        bbbb    correlation energy =        -0.6720017557 a.u.
        non-Brillouin singles      =        -0.0000000000 a.u.
        total same-spin energy     =        -1.3440035114 a.u.
        total opposite-spin energy =        -3.7139729402 a.u.

 Total  RIMP2   correlation energy =        -5.0579764516 a.u.
        RIMP2         total energy =     -2759.3462489362 a.u.

 RI-MP2 Energy Time:  CPU 3068.71 s  wall 50.95 s
 
 --------------------------------------------------------------
 
                    Orbital Energies (a.u.)
 --------------------------------------------------------------
 
 Alpha MOs
 -- Occupied --
-92.0145 -91.9957 -91.9862 -91.9849 -26.3365 -20.6124 -20.5917 -20.5911
-20.5504 -11.4108 -11.3791 -11.3183 -11.3177 -11.3127 -11.2982 -11.2978
-11.2972 -11.2948 -11.2887 -11.2863 -11.2854 -11.2837 -11.2837 -11.2834
-11.2796 -11.2613 -11.2587 -11.2580 -11.2497  -9.0131  -8.9997  -8.9861
 -8.9859  -6.6938  -6.6933  -6.6927  -6.6809  -6.6803  -6.6789  -6.6671
 -6.6667  -6.6665  -6.6660  -6.6656  -6.6649  -1.6525  -1.4722  -1.4155
 -1.4142  -1.3676  -1.2350  -1.1959  -1.1690  -1.1423  -1.0846  -1.0519
 -1.0485  -1.0292  -1.0020  -0.9938  -0.9729  -0.9604  -0.9497  -0.9382
 -0.8957  -0.8702  -0.8520  -0.8103  -0.7965  -0.7871  -0.7751  -0.7631
 -0.7580  -0.7323  -0.7215  -0.7194  -0.7004  -0.6890  -0.6841  -0.6789
 -0.6744  -0.6622  -0.6583  -0.6522  -0.6284  -0.6194  -0.6160  -0.6070
 -0.6022  -0.5963  -0.5885  -0.5705  -0.5690  -0.5649  -0.5593  -0.5527
 -0.5303  -0.5265  -0.5237  -0.5191  -0.5146  -0.5087  -0.5018  -0.4950
 -0.4859  -0.4829  -0.4802  -0.4641  -0.4617  -0.4612  -0.4571  -0.4250
 -0.3952  -0.3865  -0.3606  -0.3499  -0.3251  -0.2837  -0.2462
 -- Virtual --
  0.0077   0.0811   0.1118   0.1280   0.1384   0.1494   0.1534   0.1555
  0.1559   0.1605   0.1675   0.1793   0.1801   0.1843   0.1918   0.1958
  0.2041   0.2057   0.2116   0.2163   0.2211   0.2228   0.2253   0.2310
  0.2316   0.2432   0.2482   0.2593   0.2620   0.2712   0.2761   0.2908
  0.2998   0.3105   0.3285   0.3362   0.3412   0.3479   0.3519   0.3578
  0.3634   0.3676   0.3719   0.3746   0.3774   0.3807   0.3839   0.3863
  0.3908   0.3944   0.4016   0.4087   0.4116   0.4129   0.4182   0.4198
  0.4268   0.4392   0.4428   0.4443   0.4482   0.4512   0.4554   0.4610
  0.4624   0.4634   0.4718   0.4747   0.4785   0.4839   0.4901   0.4911
  0.4974   0.5014   0.5025   0.5112   0.5129   0.5193   0.5223   0.5254
  0.5317   0.5353   0.5389   0.5419   0.5453   0.5513   0.5530   0.5548
  0.5565   0.5641   0.5685   0.5698   0.5712   0.5761   0.5804   0.5823
  0.5869   0.5886   0.5915   0.5954   0.6021   0.6057   0.6122   0.6145
  0.6166   0.6184   0.6195   0.6215   0.6282   0.6287   0.6328   0.6364
  0.6386   0.6416   0.6428   0.6498   0.6548   0.6568   0.6660   0.6661
  0.6696   0.6797   0.6857   0.6878   0.6911   0.6928   0.6994   0.7052
  0.7114   0.7163   0.7255   0.7284   0.7419   0.7474   0.7532   0.7593
  0.7638   0.7661   0.7724   0.7801   0.7869   0.7953   0.7990   0.8022
  0.8114   0.8173   0.8235   0.8246   0.8322   0.8398   0.8512   0.8550
  0.8566   0.8590   0.8682   0.8780   0.8820   0.8881   0.8918   0.8953
  0.8994   0.9006   0.9039   0.9121   0.9170   0.9193   0.9253   0.9335
  0.9354   0.9452   0.9491   0.9529   0.9544   0.9584   0.9625   0.9731
  0.9788   0.9823   0.9831   0.9866   0.9936   0.9989   1.0026   1.0073
  1.0084   1.0102   1.0152   1.0260   1.0277   1.0351   1.0367   1.0406
  1.0456   1.0481   1.0590   1.0600   1.0714   1.0731   1.0792   1.0812
  1.0870   1.0910   1.0966   1.1017   1.1060   1.1089   1.1143   1.1216
  1.1283   1.1329   1.1422   1.1435   1.1497   1.1535   1.1559   1.1644
  1.1655   1.1671   1.1743   1.1842   1.1873   1.1892   1.1945   1.1985
  1.2015   1.2054   1.2114   1.2188   1.2202   1.2239   1.2313   1.2320
  1.2361   1.2441   1.2495   1.2567   1.2607   1.2670   1.2731   1.2795
  1.2843   1.2890   1.2990   1.3065   1.3096   1.3148   1.3238   1.3288
  1.3351   1.3390   1.3427   1.3453   1.3540   1.3558   1.3610   1.3682
  1.3785   1.3805   1.3867   1.3894   1.3965   1.4062   1.4185   1.4257
  1.4322   1.4422   1.4445   1.4595   1.4678   1.4704   1.4843   1.4909
  1.5007   1.5029   1.5042   1.5087   1.5105   1.5135   1.5143   1.5258
  1.5323   1.5359   1.5432   1.5466   1.5548   1.5585   1.5622   1.5668
  1.5719   1.5860   1.5922   1.5957   1.6022   1.6156   1.6299   1.6318
  1.6383   1.6487   1.6569   1.6601   1.6640   1.6702   1.6749   1.6865
  1.6972   1.6992   1.7047   1.7128   1.7164   1.7335   1.7372   1.7504
  1.7615   1.7640   1.7764   1.7853   1.7935   1.8007   1.8210   1.8228
  1.8284   1.8307   1.8356   1.8480   1.8515   1.8629   1.8700   1.8780
  1.8839   1.8892   1.8946   1.9059   1.9171   1.9221   1.9271   1.9326
  1.9431   1.9461   1.9554   1.9565   1.9667   1.9728   1.9865   1.9873
  1.9976   2.0000   2.0199   2.0275   2.0346   2.0387   2.0521   2.0712
  2.0734   2.0953   2.0982   2.1050   2.1173   2.1357   2.1402   2.1511
  2.1551   2.1588   2.1650   2.1686   2.1785   2.1885   2.1895   2.1935
  2.2004   2.2075   2.2175   2.2221   2.2320   2.2353   2.2470   2.2505
  2.2533   2.2606   2.2726   2.2763   2.2806   2.2877   2.2958   2.2983
  2.3045   2.3139   2.3164   2.3265   2.3428   2.3489   2.3525   2.3608
  2.3773   2.3825   2.3861   2.3997   2.4019   2.4197   2.4287   2.4323
  2.4359   2.4427   2.4529   2.4657   2.4677   2.4778   2.4858   2.4904
  2.5013   2.5253   2.5260   2.5296   2.5374   2.5515   2.5540   2.5680
  2.5807   2.5857   2.5864   2.5968   2.6115   2.6169   2.6188   2.6226
  2.6321   2.6335   2.6412   2.6430   2.6484   2.6581   2.6618   2.6713
  2.6764   2.6886   2.6911   2.6994   2.7025   2.7126   2.7137   2.7165
  2.7281   2.7334   2.7394   2.7434   2.7443   2.7558   2.7593   2.7696
  2.7787   2.7873   2.7912   2.7949   2.8056   2.8061   2.8203   2.8276
  2.8316   2.8341   2.8423   2.8526   2.8541   2.8674   2.8738   2.8745
  2.8776   2.8869   2.8899   2.8996   2.9072   2.9182   2.9238   2.9414
  2.9509   2.9546   2.9596   2.9701   2.9774   2.9817   2.9829   2.9944
  3.0105   3.0125   3.0228   3.0317   3.0357   3.0411   3.0446   3.0466
  3.0485   3.0595   3.0671   3.0799   3.0822   3.0903   3.0943   3.1019
  3.1046   3.1103   3.1139   3.1227   3.1284   3.1441   3.1513   3.1530
  3.1594   3.1628   3.1644   3.1659   3.1750   3.1809   3.1854   3.1892
  3.1920   3.1980   3.2035   3.2084   3.2099   3.2203   3.2269   3.2307
  3.2325   3.2417   3.2451   3.2506   3.2544   3.2573   3.2684   3.2750
  3.2777   3.2810   3.2840   3.2886   3.2945   3.2970   3.3003   3.3066
  3.3081   3.3152   3.3281   3.3314   3.3363   3.3415   3.3438   3.3492
  3.3572   3.3584   3.3610   3.3660   3.3667   3.3695   3.3746   3.3845
  3.3857   3.3899   3.3913   3.3948   3.3994   3.4058   3.4157   3.4159
  3.4208   3.4244   3.4271   3.4401   3.4435   3.4492   3.4517   3.4575
  3.4601   3.4634   3.4702   3.4727   3.4818   3.4848   3.4886   3.4967
  3.5060   3.5089   3.5177   3.5180   3.5219   3.5295   3.5315   3.5361
  3.5522   3.5553   3.5603   3.5681   3.5753   3.5784   3.5812   3.5853
  3.5898   3.5942   3.5976   3.6018   3.6029   3.6075   3.6143   3.6228
  3.6288   3.6331   3.6403   3.6414   3.6490   3.6554   3.6630   3.6641
  3.6685   3.6695   3.6780   3.6842   3.6853   3.6902   3.6962   3.7038
  3.7067   3.7106   3.7129   3.7224   3.7240   3.7294   3.7315   3.7362
  3.7405   3.7507   3.7540   3.7549   3.7703   3.7778   3.7807   3.7834
  3.7938   3.7953   3.8013   3.8086   3.8203   3.8236   3.8298   3.8395
  3.8446   3.8474   3.8518   3.8577   3.8609   3.8681   3.8701   3.8726
  3.8885   3.8920   3.8998   3.9058   3.9101   3.9111   3.9172   3.9217
  3.9318   3.9341   3.9445   3.9586   3.9658   3.9699   3.9784   3.9922
  3.9964   4.0039   4.0058   4.0104   4.0200   4.0279   4.0328   4.0392
  4.0559   4.0578   4.0606   4.0674   4.0745   4.0830   4.0861   4.0960
  4.1041   4.1071   4.1196   4.1254   4.1374   4.1392   4.1481   4.1575
  4.1593   4.1701   4.1712   4.1827   4.1865   4.1901   4.1964   4.1998
  4.2072   4.2190   4.2229   4.2420   4.2510   4.2681   4.2745   4.2802
  4.2886   4.3001   4.3075   4.3137   4.3197   4.3423   4.3462   4.3478
  4.3558   4.3639   4.3740   4.3768   4.3798   4.3931   4.3981   4.4043
  4.4079   4.4137   4.4196   4.4223   4.4297   4.4315   4.4527   4.4569
  4.4666   4.4803   4.4909   4.4918   4.4959   4.5037   4.5094   4.5152
  4.5210   4.5440   4.5481   4.5558   4.5588   4.5633   4.5837   4.5926
  4.6061   4.6097   4.6204   4.6287   4.6349   4.6386   4.6448   4.6492
  4.6571   4.6709   4.6789   4.6889   4.6963   4.7029   4.7106   4.7319
  4.7389   4.7514   4.7747   4.7778   4.7886   4.7998   4.8090   4.8128
  4.8208   4.8307   4.8423   4.8592   4.8773   4.8858   4.9158   4.9239
  4.9464   4.9500   4.9542   4.9591   4.9648   4.9880   4.9964   5.0030
  5.0112   5.0117   5.0266   5.0350   5.0524   5.0643   5.0680   5.0760
  5.0901   5.1253   5.1411   5.1522   5.1664   5.1755   5.1892   5.2063
  5.2073   5.2267   5.2310   5.2431   5.2544   5.2589   5.2792   5.2964
  5.3033   5.3125   5.3199   5.3325   5.3395   5.3550   5.3564   5.3765
  5.3818   5.3831   5.3948   5.4012   5.4066   5.4402   5.4618   5.4653
  5.4729   5.4806   5.4944   5.5098   5.5134   5.5267   5.5481   5.5685
  5.5738   5.5856   5.6013   5.6077   5.6173   5.6342   5.6484   5.6709
  5.7209   5.7360   5.8005   5.8116   5.8197   5.8331   5.8577   5.8706
  5.8804   5.8906   5.9441   5.9693   5.9744   5.9909   6.0024   6.0556
  6.0746   6.0938   6.1265   6.1334   6.1714   6.1750   6.1864   6.1955
  6.2438   6.2700   6.2763   6.2790   6.3082   6.3091   6.3286   6.4273
  6.4424   6.4700   6.4879   6.5301   6.5504   6.5561   6.5603   6.6551
  6.6673   6.6764   6.7110   6.7396   6.7582   6.8020   6.8488   6.8601
  6.8843   6.8957   6.9909   7.1211   7.1410   7.1782   7.2113   7.2175
  7.2342   7.3210   7.3262   7.3347   7.3696   7.3820   7.4317   7.4623
  7.4809   7.4835   7.4890   7.5277   7.5493   7.6204   7.7257   7.7667
  7.7977   7.8317   7.9059   7.9201   7.9499   8.0111   8.1021   8.2194
  8.5887   8.9388   9.0407   9.3630   9.5087   9.7336  10.2430  10.6576
 11.2709  11.3501  11.9608  11.9929  12.1354  12.2905  12.4366  12.6075
 12.6744  12.7458  12.9666  13.2435  13.2834  13.5989  13.8464  13.9095
 13.9784  14.0286  14.2921  14.5720  15.2342
 --------------------------------------------------------------
 
          Ground-State Mulliken Net Atomic Charges

     Atom                 Charge (a.u.)
  ----------------------------------------
      1 C                    -0.188400
      2 C                    -0.254550
      3 S                    -0.023558
      4 C                    -0.014440
      5 H                     0.196639
      6 C                    -0.028903
      7 C                     0.241619
      8 C                     0.242786
      9 C                    -0.040032
     10 C                    -0.023068
     11 O                    -0.333687
     12 O                    -0.340619
     13 C                    -0.085615
     14 H                     0.122260
     15 H                     0.091134
     16 H                     0.094159
     17 C                    -0.088942
     18 H                     0.125585
     19 H                     0.094329
     20 H                     0.091630
     21 C                    -0.246953
     22 S                    -0.026493
     23 C                     0.000032
     24 H                     0.186769
     25 H                     0.206462
     26 C                     0.038119
     27 S                     0.094036
     28 C                    -0.231050
     29 C                    -0.094914
     30 C                    -0.028625
     31 C                     0.363497
     32 C                    -0.129525
     33 S                     0.041133
     34 C                     0.458585
     35 O                    -0.450537
     36 O                    -0.297762
     37 F                    -0.209117
     38 C                    -0.054894
     39 H                     0.116823
     40 H                     0.084562
     41 H                     0.084434
     42 H                     0.217094
  ----------------------------------------
  Sum of atomic charges =     0.000000

 -----------------------------------------------------------------
                    Cartesian Multipole Moments
 -----------------------------------------------------------------
    Charge (ESU x 10^10)
                 0.0000
    Dipole Moment (Debye)
         X       0.5294      Y       1.7977      Z       2.8743
       Tot       3.4313
    Quadrupole Moments (Debye-Ang)
        XX    -200.2115     XY       2.1424     YY    -160.3149
        XZ      -7.5760     YZ     -11.0298     ZZ    -181.9746
    Octopole Moments (Debye-Ang^2)
       XXX    -225.9744    XXY     389.2893    XYY     -42.8566
       YYY     899.7601    XXZ     156.4838    XYZ      18.1127
       YYZ     126.4618    XZZ     -50.2658    YZZ     389.9643
       ZZZ     509.7864
    Hexadecapole Moments (Debye-Ang^3)
      XXXX    -487.2255   XXXY     527.9199   XXYY   -3879.1583
      XYYY     277.9704   YYYY  -18537.2150   XXXZ     285.9746
      XXYZ     667.3311   XYYZ     -72.9202   YYYZ    1619.5712
      XXZZ   -1417.3555   XYZZ     246.0630   YYZZ   -4033.3693
      XZZZ      91.6012   YZZZ    1187.8000   ZZZZ   -7572.2653
 -----------------------------------------------------------------
 Total job time:  319.71s(wall), 10535.84s(cpu) 
 Tue Sep 26 17:30:47 2023

        *************************************************************
        *                                                           *
        *  Thank you very much for using Q-Chem.  Have a nice day.  *
        *                                                           *
        *************************************************************


0 sent ACK to 0 
now end server 0 ... 
cleanup process ... done
remove work dirs ./qchem1287489.0 -- ./qchem1287489.0
rm -rf ./qchem1287489.0
rm -rf ./qchem1287489
