You are running Q-Chem version: 5.4.0

#
# job setting
#
local host:  exp-8-26
current dir: /expanse/lustre/projects/csd626/rramji/aromodel/PTB7_fin/Rotation_Test
input file:  fin_bdt_Phi_5_Theta_140_fin_ftt.qcin
output file: 
nprocs     : 1
nthreads   : 64
#
# qchem installation setting
#
QC:          /cm/shared/apps/spack/cpu/opt/spack/linux-centos8-zen2/gcc-10.2.0/qchem-5.4-akfmr7b3t57bfs6qan3padb2wnb2i7cl
QCAUX:       /cm/shared/apps/spack/cpu/opt/spack/linux-centos8-zen2/gcc-10.2.0/qchem-5.4-akfmr7b3t57bfs6qan3padb2wnb2i7cl/qcaux
QCPROG:      /cm/shared/apps/spack/cpu/opt/spack/linux-centos8-zen2/gcc-10.2.0/qchem-5.4-akfmr7b3t57bfs6qan3padb2wnb2i7cl/exe/qcprog.exe
QCPROG_S:    /cm/shared/apps/spack/cpu/opt/spack/linux-centos8-zen2/gcc-10.2.0/qchem-5.4-akfmr7b3t57bfs6qan3padb2wnb2i7cl/exe/qcprog.exe_s
PARALLEL:    -DPARALLEL
QCMPI:       mpich
#
# qchem directory setting
#
qcrun:       qchem1193949
QCSCRATCH:   .
QCLOCALSCR:  
QCTMPDIR:    .
QCFILEPREF:  ./qchem1193949
QCSAVEDIR:   
workdirs:    ./qchem1193949
workdir0:    ./qchem1193949
partmpdirs =  
#
# parallel setting
#
QCRSH:           ssh
QCMPI:           mpich
QCMPIRUN:        /cm/shared/apps/spack/cpu/opt/spack/linux-centos8-zen2/gcc-10.2.0/qchem-5.4-akfmr7b3t57bfs6qan3padb2wnb2i7cl/bin/mpi/mpirun_qchem
QCMACHINEFILE:   ./qchem1193949/hostfile
exp-8-26

#
# env setting
#
exported envs:   QC QCAUX QCSCRATCH QCRUNNAME QCFILEPREF QCPROG QCPROG_S GUIFILE

Running Job 1 of 1 fin_bdt_Phi_5_Theta_140_fin_ftt.qcin
qchem fin_bdt_Phi_5_Theta_140_fin_ftt.qcin_1193949.0 ./qchem1193949/ 1
/cm/shared/apps/spack/cpu/opt/spack/linux-centos8-zen2/gcc-10.2.0/qchem-5.4-akfmr7b3t57bfs6qan3padb2wnb2i7cl/bin/mpi/mpirun_qchem -machinefile ./qchem1193949/hostfile -np 1 /cm/shared/apps/spack/cpu/opt/spack/linux-centos8-zen2/gcc-10.2.0/qchem-5.4-akfmr7b3t57bfs6qan3padb2wnb2i7cl/exe/qcprog.exe fin_bdt_Phi_5_Theta_140_fin_ftt.qcin_1193949.0 ./qchem1193949/

Process 0 of 1 is on exp-8-26 - thread support 0
initial socket setup ...start
initial socket setup ...done 
now start server 0 ... 
                  Welcome to Q-Chem
     A Quantum Leap Into The Future Of Chemistry


 Q-Chem 5.4, Q-Chem, Inc., Pleasanton, CA (2021)

 License issued to: University of California, San Diego (site)

 E. Epifanovsky,  A. T. B. Gilbert,  Xintian Feng,  Joonho Lee,  Yuezhi Mao,  
 N. Mardirossian,  P. Pokhilko,  A. White,  M. Wormit,  M. P. Coons,  
 A. L. Dempwolff,  Zhengting Gan,  D. Hait,  P. R. Horn,  L. D. Jacobson,  
 I. Kaliman,  J. Kussmann,  A. W. Lange,  Ka Un Lao,  D. S. Levine,  Jie Liu,  
 S. C. McKenzie,  A. F. Morrison,  K. Nanda,  F. Plasser,  D. R. Rehn,  
 M. L. Vidal,  Zhi-Qiang You,  Ying Zhu,  B. Alam,  B. Albrecht,  
 A. Aldossary,  E. Alguire,  J. H. Andersen,  D. Barton,  K. Begam,  A. Behn,  
 Y. A. Bernard,  E. J. Berquist,  H. Burton,  A. Carreras,  K. Carter-Fenk,  
 R. Chakraborty,  A. D. Chien,  K. D. Closser,  V. Cofer-Shabica,  
 S. Dasgupta,  Jia Deng,  M. de Wergifosse,  M. Diedenhofen,  Hainam Do,  
 S. Ehlert,  Po-Tung Fang,  S. Fatehi,  Qingguo Feng,  J. Gayvert,  
 Qinghui Ge,  G. Gidofalvi,  M. Goldey,  J. Gomes,  C. Gonzalez-Espinoza,  
 S. Gulania,  A. Gunina,  M. W. D. Hanson-Heine,  P. H. P. Harbach,  
 A. W. Hauser,  M. F. Herbst,  M. Hernandez Vera,  M. Hodecker,  
 Z. C. Holden,  S. Houck,  Xunkun Huang,  Kerwin Hui,  B. C. Huynh,  
 M. Ivanov,  Hyunjun Ji,  Hanjie Jiang,  B. Kaduk,  S. Kaehler,  
 K. Khistyaev,  Jaehoon Kim,  P. Klunzinger,  Z. Koczor-Benda,  
 Joong Hoon Koh,  D. Kosenkov,  L. Koulias,  T. Kowalczyk,  C. M. Krauter,  
 K. Kue,  A. Kunitsa,  T. Kus,  A. Landau,  K. V. Lawler,  D. Lefrancois,  
 S. Lehtola,  Rain Li,  Yi-Pei Li,  Jiashu Liang,  M. Liebenthal,  
 Hung-Hsuan Lin,  You-Sheng Lin,  Fenglai Liu,  Kuan-Yu Liu,  
 M. Loipersberger,  A. Luenser,  A. Manjanath,  P. Manohar,  E. Mansoor,  
 S. F. Manzer,  Shan-Ping Mao,  A. V. Marenich,  T. Markovich,  S. Mason,  
 S. A. Maurer,  P. F. McLaughlin,  M. F. S. J. Menger,  J.-M. Mewes,  
 S. A. Mewes,  P. Morgante,  J. W. Mullinax,  T. S. Nguyen-Beck,  
 K. J. Oosterbaan,  G. Paran,  Alexander C. Paul,  Suranjan K. Paul,  
 F. Pavosevic,  Zheng Pei,  S. Prager,  E. I. Proynov,  E. Ramos,  B. Rana,  
 A. E. Rask,  A. Rettig,  R. M. Richard,  F. Rob,  E. Rossomme,  T. Scheele,  
 M. Scheurer,  M. Schneider,  N. Sergueev,  S. M. Sharada,  W. Skomorowski,  
 D. W. Small,  C. J. Stein,  Yu-Chuan Su,  E. J. Sundstrom,  Zhen Tao,  
 J. Thirman,  T. Tsuchimochi,  N. M. Tubman,  S. P. Veccham,  O. Vydrov,  
 J. Wenzel,  J. Witte,  A. Yamada,  Kun Yao,  S. Yeganeh,  S. R. Yost,  
 A. Zech,  Igor Ying Zhang,  Xing Zhang,  Yu Zhang,  D. Zuev,  
 A. Aspuru-Guzik,  A. T. Bell,  N. A. Besley,  K. B. Bravaya,  B. R. Brooks,  
 D. Casanova,  Jeng-Da Chai,  S. Coriani,  C. J. Cramer,  
 A. E. DePrince, III,  R. A. DiStasio Jr.,  A. Dreuw,  B. D. Dunietz,  
 T. R. Furlani,  W. A. Goddard III,  S. Grimme,  S. Hammes-Schiffer,  
 T. Head-Gordon,  W. J. Hehre,  Chao-Ping Hsu,  T.-C. Jagau,  Yousung Jung,  
 A. Klamt,  Jing Kong,  D. S. Lambrecht,  WanZhen Liang,  N. J. Mayhall,  
 C. W. McCurdy,  J. B. Neaton,  C. Ochsenfeld,  J. A. Parkhill,  R. Peverati,  
 V. A. Rassolov,  Yihan Shao,  L. V. Slipchenko,  T. Stauch,  R. P. Steele,  
 J. E. Subotnik,  A. J. W. Thom,  A. Tkatchenko,  D. G. Truhlar,  
 T. Van Voorhis,  T. A. Wesolowski,  K. B. Whaley,  H. L. Woodcock III,  
 P. M. Zimmerman,  S. Faraji,  P. M. W. Gill,  M. Head-Gordon,  
 J. M. Herbert,  A. I. Krylov

 Contributors to earlier versions of Q-Chem not listed above: 
 R. D. Adamson,  B. Austin,  R. Baer,  J. Baker,  G. J. O. Beran,  
 K. Brandhorst,  S. T. Brown,  E. F. C. Byrd,  A. K. Chakraborty,  
 G. K. L. Chan,  Chun-Min Chang,  Yunqing Chen,  C.-L. Cheng,  
 Siu Hung Chien,  D. M. Chipman,  D. L. Crittenden,  H. Dachsel,  
 R. J. Doerksen,  A. D. Dutoi,  R. G. Edgar,  J. Fosso-Tande,  
 L. Fusti-Molnar,  D. Ghosh,  A. Ghysels,  A. Golubeva-Zadorozhnaya,  
 J. Gonthier,  M. S. Gordon,  S. R. Gwaltney,  G. Hawkins,  J. E. Herr,  
 A. Heyden,  S. Hirata,  E. G. Hohenstein,  G. Kedziora,  F. J. Keil,  
 C. Kelley,  Jihan Kim,  R. A. King,  R. Z. Khaliullin,  P. P. Korambath,  
 W. Kurlancheek,  A. Laurent,  A. M. Lee,  M. S. Lee,  S. V. Levchenko,  
 Ching Yeh Lin,  D. Liotard,  E. Livshits,  R. C. Lochan,  I. Lotan,  
 L. A. Martinez-Martinez,  P. E. Maslen,  N. Nair,  D. P. O'Neill,  
 D. Neuhauser,  E. Neuscamman,  C. M. Oana,  R. Olivares-Amaya,  R. Olson,  
 T. M. Perrine,  B. Peters,  P. A. Pieniazek,  A. Prociuk,  Y. M. Rhee,  
 J. Ritchie,  M. A. Rohrdanz,  E. Rosta,  N. J. Russ,  H. F. Schaefer III,  
 M. W. Schmidt,  N. E. Schultz,  S. Sharma,  N. Shenvi,  C. D. Sherrill,  
 A. C. Simmonett,  A. Sodt,  T. Stein,  D. Stuck,  K. S. Thanthiriwatte,  
 V. Vanovschi,  L. Vogt,  Tao Wang,  A. Warshel,  M. A. Watson,  
 C. F. Williams,  Q. Wu,  X. Xu,  Jun Yang,  W. Zhang,  Yan Zhao

 Please cite Q-Chem as follows:
 Y. Shao et al., Mol. Phys. 113, 184-215 (2015)
 DOI: 10.1080/00268976.2014.952696

 Q-Chem 5.4.0 for Intel X86 EM64T Linux

 Parts of Q-Chem use Armadillo 9.800.1 (Horizon Scraper).
 http://arma.sourceforge.net/

 Q-Chem begins on Tue Sep 26 18:31:32 2023  

 Host: 
0

     Scratch files written to ./qchem1193949//
 May1621 |scratch|qcdevops|jenkins|workspace|build_RNUM    
 Parallel job on  1  processors
 Processing $rem in /cm/shared/apps/spack/cpu/opt/spack/linux-centos8-zen2/gcc-10.2.0/qchem-5.4-akfmr7b3t57bfs6qan3padb2wnb2i7cl/config/preferences:
 Processing $rem in /home/rramji/.qchemrc:
 Symmetry turned off for PCM/SM12/SMD calculation
 Core orbitals will be frozen

 Checking the input file for inconsistencies... 	...done.

 Q-Chem warning in module forms1/BasisType.C, line 2236:

 You are not using the predefined 5D/6D in this basis set.


--------------------------------------------------------------
User input:
--------------------------------------------------------------
$molecule
0 1
C	-0.135457	-8.519741	-0.235993
C	0.558188	-7.635967	0.577858
S	-1.148850	-7.651740	-1.414705
C	0.308648	-6.261894	0.283020
H	1.238560	-7.954738	1.377597
C	-0.609026	-6.079985	-0.810887
C	-0.996828	-4.798382	-1.231581
C	0.865740	-5.153542	0.982901
C	0.474408	-3.869626	0.564713
C	-0.442046	-3.688927	-0.532196
O	1.738137	-5.481075	1.976332
O	-1.874052	-4.479871	-2.228709
C	-2.016062	-5.356026	-3.340298
H	-2.573877	-4.790496	-4.110807
H	-2.598484	-6.268513	-3.085998
H	-1.028695	-5.658187	-3.751679
C	2.033195	-4.546999	3.007565
H	2.594833	-5.107564	3.778655
H	1.108067	-4.131473	3.461650
H	2.671451	-3.712085	2.645264
C	-0.691020	-2.314326	-0.822814
S	1.005649	-2.295487	1.178037
C	0.000000	-1.435180	0.000000
H	-1.368875	-1.993211	-1.623656
H	-0.133782	-9.615985	-0.230172
C	0.000000	0.000000	0.000000
S	0.080615	0.895811	1.510732
C	0.216842	2.465231	0.727629
C	0.079127	0.904769	-1.064665
C	0.198659	2.288406	-0.678287
C	0.074988	0.838492	-2.486150
C	0.185097	2.098524	-3.106916
S	0.290501	3.341568	-1.965735
C	0.211932	2.351623	-4.559972
O	0.133545	1.421416	-5.350277
O	0.326994	3.629649	-5.004375
F	-0.018214	-0.271734	-3.246290
C	0.368367	3.986101	-6.334976
H	0.465270	5.086806	-6.370268
H	-0.553140	3.675878	-6.875609
H	1.229874	3.519263	-6.861878
H	0.297091	3.381746	1.321510
$end

$rem
JOBTYPE		SP
EXCHANGE	HF
CORRELATION	pRIMP2
BASIS		cc-pvtz
METHOD		rimp2
AUX_BASIS	rimp2-cc-pvtz
SOLVENT_METHOD	PCM
PURECART	11111
SYMMETRY	false
MEM_TOTAL	110000
SCF_CONVERGENCE = 6
THRESH=10
GUI = 2
$end



$solvent
dielectric 4.90
$end
--------------------------------------------------------------
 ----------------------------------------------------------------
             Standard Nuclear Orientation (Angstroms)
    I     Atom           X                Y                Z
 ----------------------------------------------------------------
    1      C      -0.1354570000    -8.5197410000    -0.2359930000
    2      C       0.5581880000    -7.6359670000     0.5778580000
    3      S      -1.1488500000    -7.6517400000    -1.4147050000
    4      C       0.3086480000    -6.2618940000     0.2830200000
    5      H       1.2385600000    -7.9547380000     1.3775970000
    6      C      -0.6090260000    -6.0799850000    -0.8108870000
    7      C      -0.9968280000    -4.7983820000    -1.2315810000
    8      C       0.8657400000    -5.1535420000     0.9829010000
    9      C       0.4744080000    -3.8696260000     0.5647130000
   10      C      -0.4420460000    -3.6889270000    -0.5321960000
   11      O       1.7381370000    -5.4810750000     1.9763320000
   12      O      -1.8740520000    -4.4798710000    -2.2287090000
   13      C      -2.0160620000    -5.3560260000    -3.3402980000
   14      H      -2.5738770000    -4.7904960000    -4.1108070000
   15      H      -2.5984840000    -6.2685130000    -3.0859980000
   16      H      -1.0286950000    -5.6581870000    -3.7516790000
   17      C       2.0331950000    -4.5469990000     3.0075650000
   18      H       2.5948330000    -5.1075640000     3.7786550000
   19      H       1.1080670000    -4.1314730000     3.4616500000
   20      H       2.6714510000    -3.7120850000     2.6452640000
   21      C      -0.6910200000    -2.3143260000    -0.8228140000
   22      S       1.0056490000    -2.2954870000     1.1780370000
   23      C       0.0000000000    -1.4351800000     0.0000000000
   24      H      -1.3688750000    -1.9932110000    -1.6236560000
   25      H      -0.1337820000    -9.6159850000    -0.2301720000
   26      C       0.0000000000     0.0000000000     0.0000000000
   27      S       0.0806150000     0.8958110000     1.5107320000
   28      C       0.2168420000     2.4652310000     0.7276290000
   29      C       0.0791270000     0.9047690000    -1.0646650000
   30      C       0.1986590000     2.2884060000    -0.6782870000
   31      C       0.0749880000     0.8384920000    -2.4861500000
   32      C       0.1850970000     2.0985240000    -3.1069160000
   33      S       0.2905010000     3.3415680000    -1.9657350000
   34      C       0.2119320000     2.3516230000    -4.5599720000
   35      O       0.1335450000     1.4214160000    -5.3502770000
   36      O       0.3269940000     3.6296490000    -5.0043750000
   37      F      -0.0182140000    -0.2717340000    -3.2462900000
   38      C       0.3683670000     3.9861010000    -6.3349760000
   39      H       0.4652700000     5.0868060000    -6.3702680000
   40      H      -0.5531400000     3.6758780000    -6.8756090000
   41      H       1.2298740000     3.5192630000    -6.8618780000
   42      H       0.2970910000     3.3817460000     1.3215100000
 ----------------------------------------------------------------
 Nuclear Repulsion Energy =        3304.19492109 hartrees
 There are      119 alpha and      119 beta electrons
 Requested basis set is cc-pVTZ
 There are 376 shells and 1068 basis functions

 Total QAlloc Memory Limit 110000 MB
 Mega-Array Size       188 MB
 MEM_STATIC part       192 MB
 Discretize the solute cavity surface with Lebedev spheres
	Using 110 Lebedev grid points for each H atom
	Using 194 Lebedev grid points for other atoms
	Atomic van der Waals radii will be scaled by 1.20
 Remove points where switching function is < 1.0e-08
 Keep 2901 surface tesserae and discard 4155 interior tesserae
 Molecular Surface Area = 438.221 Angst**2
 Requested basis set is rimp2-cc-pVTZ
 There are 833 shells and 2903 basis functions
 A cutoff of  1.0D-10 yielded  31267 shell pairs
 There are    240343 function pairs (    312128 Cartesian)
 Smallest overlap matrix eigenvalue = 2.21E-05

 Scale SEOQF with 1.000000e-01/1.000000e-02/1.000000e-02

 Standard Electronic Orientation quadrupole field applied
 Nucleus-field energy     =     0.0000000215 hartrees
 Guess from superposition of atomic densities
 Warning:  Energy on first SCF cycle will be non-variational
 SAD guess density has 238.000000 electrons

 -----------------------------------------------------------------------
  General SCF calculation program by
  Eric Jon Sundstrom, Paul Horn, Yuezhi Mao, Dmitri Zuev, Alec White,
  David Stuck, Shaama M.S., Shane Yost, Joonho Lee, David Small,
  Daniel Levine, Susi Lehtola, Hugh Burton, Evgeny Epifanovsky,
  Bang C. Huynh
 -----------------------------------------------------------------------
 Hartree-Fock
 using 64 threads for integral computing
 -------------------------------------------------------
 OpenMP Integral computing Module                
 Release: version 1.0, May 2013, Q-Chem Inc. Pittsburgh 
 -------------------------------------------------------
 A restricted SCF calculation will be
 performed using DIIS
 SCF converges when DIIS error is below 1.0e-06
 ---------------------------------------
  Cycle       Energy         DIIS error
 ---------------------------------------
    1   -2765.5368346537      1.77e-02  
    2   -2753.8605858278      1.57e-03  
    3   -2754.2007164086      8.82e-04  
    4   -2754.2850690202      2.54e-04  
    5   -2754.2967118117      6.82e-05  
    6   -2754.2977973991      2.39e-05  
    7   -2754.2980395078      1.15e-05  
    8   -2754.2981190771      4.44e-06  
    9   -2754.2981346787      1.88e-06  
   10   -2754.2981368256      7.79e-07  Convergence criterion met
 ---------------------------------------
 SCF time:   CPU 6452.04s  wall 234.00s 

************** Final PCM Free Energy Summary **************
 G_electrostatic  =      -0.01935543 hartree =     -12.14571656 kcal/mol
 G_cavitation     =       0.00000000 hartree =       0.00000000 kcal/mol
 G_dispersion     =       0.00000000 hartree =       0.00000000 kcal/mol
 G_repulsion      =       0.00000000 hartree =       0.00000000 kcal/mol
 --------------------------------------------------
 Non-electrostatic Free Energy =       0.00000000 hartree =       0.00000000 kcal/mol
 Total                         =      -0.01935543 hartree =     -12.14571656 kcal/mol
 --------------------------------------------------
 SCF Energy (H0 + V/2)                       =   -2754.29813683 
 Solute Internal Energy (H0)                 =   -2754.27878139 
 Total Free Energy (H0 + V/2 + non-elec)     =   -2754.29813683 hartree
                                             = -1728348.16681572 kcal/mol
***********************************************************

 SCF   energy in the final basis set =    -2754.2981368256
 Total energy in the final basis set =    -2754.2981368256


 --------------------------------------------------------------
  Generalized many-body perturbation theory program
  by Joonho Lee, Fazle Rob, Xintian Feng, Evgeny Epifanovsky

 No regularization used 
 (reg. param. = 0.0000e+00)
  (P|Q)^-1/2 Time:  CPU 138.91 s  wall 2.89 s

 In RI-MP2 calculation: 
 # of frozen core orbitals: 45

 Components of the RIMP2 correlation energy:
        aaaa    correlation energy =        -0.6708938689 a.u.
        abab    correlation energy =        -3.7115968460 a.u.
        bbbb    correlation energy =        -0.6708938689 a.u.
        non-Brillouin singles      =        -0.0000000000 a.u.
        total same-spin energy     =        -1.3417877379 a.u.
        total opposite-spin energy =        -3.7115968460 a.u.

 Total  RIMP2   correlation energy =        -5.0533845839 a.u.
        RIMP2         total energy =     -2759.3515214095 a.u.

 RI-MP2 Energy Time:  CPU 2742.24 s  wall 45.08 s
 
 --------------------------------------------------------------
 
                    Orbital Energies (a.u.)
 --------------------------------------------------------------
 
 Alpha MOs
 -- Occupied --
-92.0161 -91.9944 -91.9919 -91.9869 -26.3348 -20.6117 -20.5931 -20.5916
-20.5494 -11.4098 -11.3777 -11.3201 -11.3191 -11.3130 -11.2968 -11.2961
-11.2956 -11.2923 -11.2883 -11.2878 -11.2877 -11.2856 -11.2847 -11.2816
-11.2806 -11.2621 -11.2602 -11.2591 -11.2504  -9.0144  -8.9984  -8.9923
 -8.9868  -6.6952  -6.6946  -6.6941  -6.6797  -6.6790  -6.6777  -6.6733
 -6.6726  -6.6716  -6.6678  -6.6671  -6.6663  -1.6478  -1.4714  -1.4172
 -1.4144  -1.3667  -1.2333  -1.1971  -1.1693  -1.1422  -1.0847  -1.0529
 -1.0476  -1.0276  -1.0035  -0.9938  -0.9717  -0.9615  -0.9508  -0.9384
 -0.8969  -0.8691  -0.8515  -0.8042  -0.7939  -0.7883  -0.7725  -0.7698
 -0.7583  -0.7331  -0.7189  -0.7159  -0.7019  -0.6888  -0.6837  -0.6782
 -0.6713  -0.6614  -0.6596  -0.6527  -0.6302  -0.6203  -0.6169  -0.6061
 -0.6013  -0.5939  -0.5869  -0.5777  -0.5688  -0.5609  -0.5554  -0.5500
 -0.5375  -0.5263  -0.5230  -0.5179  -0.5170  -0.5088  -0.5038  -0.4953
 -0.4877  -0.4840  -0.4787  -0.4700  -0.4621  -0.4611  -0.4602  -0.4179
 -0.3979  -0.3869  -0.3588  -0.3502  -0.3229  -0.2860  -0.2517
 -- Virtual --
  0.0169   0.0742   0.1142   0.1238   0.1353   0.1441   0.1508   0.1556
  0.1557   0.1613   0.1642   0.1806   0.1837   0.1871   0.1898   0.1908
  0.2030   0.2056   0.2098   0.2187   0.2204   0.2218   0.2236   0.2274
  0.2365   0.2394   0.2427   0.2525   0.2638   0.2693   0.2736   0.2791
  0.2980   0.3086   0.3210   0.3299   0.3369   0.3432   0.3478   0.3500
  0.3519   0.3557   0.3686   0.3733   0.3767   0.3805   0.3837   0.3854
  0.3875   0.3916   0.3984   0.4062   0.4091   0.4151   0.4206   0.4228
  0.4307   0.4364   0.4413   0.4430   0.4469   0.4494   0.4516   0.4555
  0.4599   0.4618   0.4732   0.4746   0.4790   0.4821   0.4895   0.4916
  0.4930   0.4970   0.5074   0.5079   0.5092   0.5156   0.5201   0.5231
  0.5246   0.5314   0.5373   0.5402   0.5457   0.5483   0.5515   0.5534
  0.5558   0.5601   0.5631   0.5690   0.5698   0.5735   0.5790   0.5823
  0.5843   0.5877   0.5910   0.5975   0.5992   0.6029   0.6093   0.6113
  0.6148   0.6187   0.6196   0.6253   0.6276   0.6289   0.6315   0.6357
  0.6397   0.6408   0.6458   0.6490   0.6528   0.6547   0.6605   0.6676
  0.6731   0.6768   0.6790   0.6850   0.6912   0.6941   0.6972   0.7034
  0.7105   0.7182   0.7219   0.7259   0.7326   0.7429   0.7482   0.7557
  0.7560   0.7660   0.7727   0.7778   0.7851   0.7883   0.7894   0.8000
  0.8024   0.8038   0.8136   0.8182   0.8261   0.8326   0.8348   0.8458
  0.8545   0.8576   0.8612   0.8675   0.8749   0.8796   0.8875   0.8973
  0.9020   0.9028   0.9060   0.9113   0.9195   0.9207   0.9249   0.9268
  0.9337   0.9370   0.9430   0.9473   0.9503   0.9570   0.9645   0.9671
  0.9738   0.9786   0.9818   0.9862   0.9936   0.9974   0.9991   0.9998
  1.0063   1.0116   1.0158   1.0194   1.0234   1.0290   1.0318   1.0369
  1.0430   1.0499   1.0578   1.0623   1.0689   1.0726   1.0751   1.0771
  1.0860   1.0914   1.0942   1.0957   1.0985   1.1049   1.1079   1.1149
  1.1188   1.1283   1.1327   1.1405   1.1435   1.1499   1.1523   1.1533
  1.1644   1.1708   1.1787   1.1817   1.1827   1.1840   1.1910   1.1925
  1.1968   1.2033   1.2096   1.2173   1.2177   1.2212   1.2252   1.2301
  1.2339   1.2404   1.2469   1.2507   1.2611   1.2644   1.2705   1.2730
  1.2796   1.2872   1.2945   1.2954   1.3030   1.3064   1.3163   1.3253
  1.3278   1.3405   1.3446   1.3455   1.3536   1.3577   1.3604   1.3695
  1.3716   1.3779   1.3853   1.3964   1.4005   1.4038   1.4101   1.4209
  1.4362   1.4404   1.4557   1.4618   1.4684   1.4737   1.4824   1.4875
  1.4916   1.5021   1.5068   1.5104   1.5126   1.5162   1.5263   1.5282
  1.5300   1.5366   1.5380   1.5449   1.5522   1.5602   1.5644   1.5717
  1.5753   1.5784   1.5880   1.5952   1.5966   1.6091   1.6244   1.6341
  1.6451   1.6488   1.6550   1.6588   1.6638   1.6644   1.6786   1.6799
  1.6881   1.6951   1.7009   1.7092   1.7226   1.7292   1.7363   1.7535
  1.7587   1.7723   1.7804   1.7821   1.7905   1.7925   1.8097   1.8206
  1.8246   1.8320   1.8390   1.8461   1.8523   1.8622   1.8683   1.8709
  1.8744   1.8841   1.9003   1.9031   1.9119   1.9143   1.9287   1.9357
  1.9425   1.9480   1.9519   1.9593   1.9664   1.9705   1.9846   1.9855
  2.0005   2.0150   2.0196   2.0273   2.0358   2.0372   2.0481   2.0608
  2.0713   2.0830   2.0995   2.1028   2.1150   2.1252   2.1348   2.1466
  2.1555   2.1582   2.1609   2.1662   2.1687   2.1789   2.1897   2.1930
  2.1948   2.2020   2.2140   2.2166   2.2238   2.2280   2.2372   2.2448
  2.2533   2.2571   2.2617   2.2719   2.2785   2.2823   2.2915   2.2983
  2.3092   2.3161   2.3183   2.3300   2.3369   2.3452   2.3519   2.3612
  2.3728   2.3807   2.3848   2.3879   2.4001   2.4179   2.4236   2.4287
  2.4366   2.4422   2.4600   2.4616   2.4706   2.4743   2.4896   2.4947
  2.4986   2.5102   2.5248   2.5294   2.5370   2.5492   2.5551   2.5613
  2.5730   2.5778   2.5836   2.5957   2.6133   2.6161   2.6188   2.6221
  2.6321   2.6355   2.6390   2.6442   2.6504   2.6622   2.6661   2.6719
  2.6798   2.6914   2.6938   2.7000   2.7023   2.7081   2.7110   2.7230
  2.7295   2.7331   2.7361   2.7428   2.7468   2.7538   2.7606   2.7662
  2.7744   2.7864   2.7957   2.7991   2.8067   2.8136   2.8161   2.8232
  2.8265   2.8341   2.8430   2.8451   2.8476   2.8571   2.8699   2.8757
  2.8789   2.8857   2.8885   2.8973   2.9003   2.9135   2.9261   2.9392
  2.9409   2.9494   2.9617   2.9670   2.9775   2.9802   2.9915   3.0033
  3.0107   3.0152   3.0184   3.0298   3.0359   3.0415   3.0441   3.0450
  3.0525   3.0561   3.0734   3.0801   3.0897   3.0923   3.0971   3.1000
  3.1079   3.1084   3.1144   3.1183   3.1272   3.1384   3.1414   3.1505
  3.1520   3.1580   3.1654   3.1687   3.1710   3.1757   3.1791   3.1834
  3.1929   3.1972   3.2025   3.2049   3.2108   3.2178   3.2218   3.2288
  3.2391   3.2423   3.2470   3.2539   3.2558   3.2610   3.2671   3.2701
  3.2749   3.2777   3.2812   3.2871   3.2882   3.2920   3.2978   3.3036
  3.3111   3.3155   3.3171   3.3265   3.3323   3.3336   3.3410   3.3431
  3.3481   3.3528   3.3575   3.3602   3.3614   3.3687   3.3702   3.3766
  3.3791   3.3866   3.3888   3.3933   3.3971   3.4031   3.4087   3.4139
  3.4209   3.4249   3.4342   3.4370   3.4401   3.4449   3.4510   3.4530
  3.4573   3.4597   3.4718   3.4723   3.4781   3.4819   3.4885   3.5021
  3.5105   3.5108   3.5187   3.5212   3.5280   3.5293   3.5367   3.5398
  3.5469   3.5518   3.5582   3.5668   3.5720   3.5739   3.5757   3.5820
  3.5896   3.5899   3.5953   3.6018   3.6054   3.6123   3.6160   3.6210
  3.6320   3.6346   3.6371   3.6404   3.6478   3.6528   3.6579   3.6599
  3.6631   3.6659   3.6774   3.6814   3.6819   3.6883   3.6937   3.6970
  3.7021   3.7092   3.7120   3.7182   3.7242   3.7270   3.7305   3.7338
  3.7437   3.7494   3.7515   3.7586   3.7659   3.7674   3.7737   3.7811
  3.7918   3.7948   3.7990   3.8132   3.8178   3.8211   3.8216   3.8282
  3.8367   3.8438   3.8482   3.8562   3.8658   3.8669   3.8677   3.8736
  3.8759   3.8789   3.8919   3.9006   3.9094   3.9142   3.9217   3.9292
  3.9357   3.9451   3.9496   3.9563   3.9629   3.9721   3.9790   3.9833
  3.9873   3.9990   4.0094   4.0117   4.0178   4.0332   4.0370   4.0413
  4.0508   4.0551   4.0615   4.0684   4.0711   4.0826   4.0873   4.0952
  4.0982   4.1013   4.1084   4.1322   4.1333   4.1400   4.1467   4.1529
  4.1605   4.1680   4.1722   4.1797   4.1880   4.1882   4.1934   4.2008
  4.2040   4.2133   4.2356   4.2379   4.2426   4.2608   4.2759   4.2788
  4.2856   4.2952   4.3113   4.3173   4.3266   4.3394   4.3415   4.3481
  4.3548   4.3664   4.3719   4.3757   4.3778   4.3918   4.3974   4.4034
  4.4094   4.4104   4.4142   4.4238   4.4290   4.4351   4.4415   4.4535
  4.4556   4.4722   4.4750   4.4855   4.4949   4.4975   4.5068   4.5152
  4.5282   4.5380   4.5413   4.5541   4.5571   4.5682   4.5822   4.5994
  4.6025   4.6167   4.6242   4.6270   4.6365   4.6394   4.6501   4.6533
  4.6610   4.6670   4.6742   4.6810   4.6847   4.7055   4.7173   4.7241
  4.7367   4.7447   4.7491   4.7561   4.7771   4.7937   4.7999   4.8089
  4.8220   4.8299   4.8336   4.8551   4.8624   4.8954   4.9117   4.9165
  4.9436   4.9477   4.9575   4.9647   4.9669   4.9803   4.9964   5.0046
  5.0062   5.0113   5.0157   5.0403   5.0471   5.0601   5.0707   5.0763
  5.0867   5.1199   5.1377   5.1553   5.1716   5.1764   5.1914   5.1976
  5.2098   5.2164   5.2326   5.2469   5.2549   5.2593   5.2806   5.2981
  5.3065   5.3139   5.3165   5.3305   5.3409   5.3554   5.3599   5.3607
  5.3738   5.3897   5.3971   5.3997   5.4254   5.4400   5.4630   5.4716
  5.4733   5.4753   5.5015   5.5061   5.5138   5.5206   5.5515   5.5654
  5.5762   5.5835   5.5889   5.6057   5.6182   5.6350   5.6414   5.7049
  5.7168   5.7380   5.7710   5.8012   5.8151   5.8315   5.8540   5.8559
  5.8725   5.8826   5.9507   5.9702   5.9714   5.9812   6.0041   6.0596
  6.0675   6.1046   6.1311   6.1339   6.1703   6.1721   6.1840   6.1862
  6.2416   6.2476   6.2703   6.2785   6.3029   6.3089   6.3160   6.3870
  6.4417   6.4534   6.4995   6.5419   6.5529   6.5568   6.5602   6.6538
  6.6728   6.6773   6.7112   6.7403   6.7433   6.8017   6.8464   6.8610
  6.8854   6.8917   6.9923   7.1190   7.1383   7.1788   7.2120   7.2151
  7.2336   7.3193   7.3271   7.3322   7.3735   7.3764   7.4301   7.4629
  7.4783   7.4863   7.4885   7.5201   7.5498   7.6158   7.7191   7.7696
  7.7962   7.8320   7.9055   7.9211   7.9474   8.0060   8.0955   8.1870
  8.6422   8.9323   9.0138   9.3653   9.5017   9.6959  10.1849  10.7063
 11.2492  11.4290  11.9275  11.9887  12.1289  12.2175  12.3664  12.5793
 12.6925  12.7589  12.9310  13.2361  13.2702  13.5744  13.8460  13.8948
 13.9132  14.0322  14.1718  14.6963  15.2003
 --------------------------------------------------------------
 
          Ground-State Mulliken Net Atomic Charges

     Atom                 Charge (a.u.)
  ----------------------------------------
      1 C                    -0.186580
      2 C                    -0.254830
      3 S                    -0.020227
      4 C                    -0.012541
      5 H                     0.196525
      6 C                    -0.027927
      7 C                     0.246791
      8 C                     0.239637
      9 C                    -0.044169
     10 C                    -0.031266
     11 O                    -0.332940
     12 O                    -0.339209
     13 C                    -0.085776
     14 H                     0.123599
     15 H                     0.090909
     16 H                     0.094529
     17 C                    -0.087501
     18 H                     0.125418
     19 H                     0.094640
     20 H                     0.089906
     21 C                    -0.215658
     22 S                    -0.016432
     23 C                    -0.030857
     24 H                     0.195376
     25 H                     0.206784
     26 C                    -0.011241
     27 S                     0.099081
     28 C                    -0.240334
     29 C                    -0.071371
     30 C                    -0.011600
     31 C                     0.384313
     32 C                    -0.147012
     33 S                     0.036264
     34 C                     0.459933
     35 O                    -0.451712
     36 O                    -0.298001
     37 F                    -0.212649
     38 C                    -0.055081
     39 H                     0.116556
     40 H                     0.084372
     41 H                     0.084430
     42 H                     0.215851
  ----------------------------------------
  Sum of atomic charges =     0.000000

 -----------------------------------------------------------------
                    Cartesian Multipole Moments
 -----------------------------------------------------------------
    Charge (ESU x 10^10)
                 0.0000
    Dipole Moment (Debye)
         X       0.4936      Y       1.2151      Z       3.1252
       Tot       3.3892
    Quadrupole Moments (Debye-Ang)
        XX    -196.5961     XY       0.6198     YY    -157.3417
        XZ       9.3415     YZ      -9.0116     ZZ    -186.6037
    Octopole Moments (Debye-Ang^2)
       XXX     -24.1789    XXY     368.5824    XYY      -2.9897
       YYY     876.2205    XXZ     192.5998    XYZ     -56.1346
       YYZ     127.0615    XZZ      -1.2671    YZZ     407.4077
       ZZZ     589.5528
    Hexadecapole Moments (Debye-Ang^3)
      XXXX   -1138.8795   XXXY    -415.7481   XXYY   -3929.0455
      XYYY    -354.0400   YYYY  -18513.9369   XXXZ    -410.9203
      XXYZ     333.4930   XYYZ     107.3307   YYYZ     876.4824
      XXZZ   -1306.4363   XYZZ     -60.9767   YYZZ   -4021.0238
      XZZZ    -370.5076   YZZZ     327.9033   ZZZZ   -6929.3819
 -----------------------------------------------------------------
 Total job time:  282.71s(wall), 9310.46s(cpu) 
 Tue Sep 26 18:36:15 2023

        *************************************************************
        *                                                           *
        *  Thank you very much for using Q-Chem.  Have a nice day.  *
        *                                                           *
        *************************************************************


0 sent ACK to 0 
now end server 0 ... 
cleanup process ... done
remove work dirs ./qchem1193949.0 -- ./qchem1193949.0
rm -rf ./qchem1193949.0
rm -rf ./qchem1193949
