You are running Q-Chem version: 5.4.0

#
# job setting
#
local host:  exp-1-48
current dir: /expanse/lustre/projects/csd626/rramji/aromodel/PTB7_fin/Rotation_Test
input file:  fin_bdt_Phi_25_Theta_280_fin_ftt.qcin
output file: 
nprocs     : 1
nthreads   : 64
#
# qchem installation setting
#
QC:          /cm/shared/apps/spack/cpu/opt/spack/linux-centos8-zen2/gcc-10.2.0/qchem-5.4-akfmr7b3t57bfs6qan3padb2wnb2i7cl
QCAUX:       /cm/shared/apps/spack/cpu/opt/spack/linux-centos8-zen2/gcc-10.2.0/qchem-5.4-akfmr7b3t57bfs6qan3padb2wnb2i7cl/qcaux
QCPROG:      /cm/shared/apps/spack/cpu/opt/spack/linux-centos8-zen2/gcc-10.2.0/qchem-5.4-akfmr7b3t57bfs6qan3padb2wnb2i7cl/exe/qcprog.exe
QCPROG_S:    /cm/shared/apps/spack/cpu/opt/spack/linux-centos8-zen2/gcc-10.2.0/qchem-5.4-akfmr7b3t57bfs6qan3padb2wnb2i7cl/exe/qcprog.exe_s
PARALLEL:    -DPARALLEL
QCMPI:       mpich
#
# qchem directory setting
#
qcrun:       qchem186308
QCSCRATCH:   .
QCLOCALSCR:  
QCTMPDIR:    .
QCFILEPREF:  ./qchem186308
QCSAVEDIR:   
workdirs:    ./qchem186308
workdir0:    ./qchem186308
partmpdirs =  
#
# parallel setting
#
QCRSH:           ssh
QCMPI:           mpich
QCMPIRUN:        /cm/shared/apps/spack/cpu/opt/spack/linux-centos8-zen2/gcc-10.2.0/qchem-5.4-akfmr7b3t57bfs6qan3padb2wnb2i7cl/bin/mpi/mpirun_qchem
QCMACHINEFILE:   ./qchem186308/hostfile
exp-1-48

#
# env setting
#
exported envs:   QC QCAUX QCSCRATCH QCRUNNAME QCFILEPREF QCPROG QCPROG_S GUIFILE

Running Job 1 of 1 fin_bdt_Phi_25_Theta_280_fin_ftt.qcin
qchem fin_bdt_Phi_25_Theta_280_fin_ftt.qcin_186308.0 ./qchem186308/ 1
/cm/shared/apps/spack/cpu/opt/spack/linux-centos8-zen2/gcc-10.2.0/qchem-5.4-akfmr7b3t57bfs6qan3padb2wnb2i7cl/bin/mpi/mpirun_qchem -machinefile ./qchem186308/hostfile -np 1 /cm/shared/apps/spack/cpu/opt/spack/linux-centos8-zen2/gcc-10.2.0/qchem-5.4-akfmr7b3t57bfs6qan3padb2wnb2i7cl/exe/qcprog.exe fin_bdt_Phi_25_Theta_280_fin_ftt.qcin_186308.0 ./qchem186308/

Process 0 of 1 is on exp-1-48 - thread support 0
initial socket setup ...start
initial socket setup ...done 
now start server 0 ... 
                  Welcome to Q-Chem
     A Quantum Leap Into The Future Of Chemistry


 Q-Chem 5.4, Q-Chem, Inc., Pleasanton, CA (2021)

 License issued to: University of California, San Diego (site)

 E. Epifanovsky,  A. T. B. Gilbert,  Xintian Feng,  Joonho Lee,  Yuezhi Mao,  
 N. Mardirossian,  P. Pokhilko,  A. White,  M. Wormit,  M. P. Coons,  
 A. L. Dempwolff,  Zhengting Gan,  D. Hait,  P. R. Horn,  L. D. Jacobson,  
 I. Kaliman,  J. Kussmann,  A. W. Lange,  Ka Un Lao,  D. S. Levine,  Jie Liu,  
 S. C. McKenzie,  A. F. Morrison,  K. Nanda,  F. Plasser,  D. R. Rehn,  
 M. L. Vidal,  Zhi-Qiang You,  Ying Zhu,  B. Alam,  B. Albrecht,  
 A. Aldossary,  E. Alguire,  J. H. Andersen,  D. Barton,  K. Begam,  A. Behn,  
 Y. A. Bernard,  E. J. Berquist,  H. Burton,  A. Carreras,  K. Carter-Fenk,  
 R. Chakraborty,  A. D. Chien,  K. D. Closser,  V. Cofer-Shabica,  
 S. Dasgupta,  Jia Deng,  M. de Wergifosse,  M. Diedenhofen,  Hainam Do,  
 S. Ehlert,  Po-Tung Fang,  S. Fatehi,  Qingguo Feng,  J. Gayvert,  
 Qinghui Ge,  G. Gidofalvi,  M. Goldey,  J. Gomes,  C. Gonzalez-Espinoza,  
 S. Gulania,  A. Gunina,  M. W. D. Hanson-Heine,  P. H. P. Harbach,  
 A. W. Hauser,  M. F. Herbst,  M. Hernandez Vera,  M. Hodecker,  
 Z. C. Holden,  S. Houck,  Xunkun Huang,  Kerwin Hui,  B. C. Huynh,  
 M. Ivanov,  Hyunjun Ji,  Hanjie Jiang,  B. Kaduk,  S. Kaehler,  
 K. Khistyaev,  Jaehoon Kim,  P. Klunzinger,  Z. Koczor-Benda,  
 Joong Hoon Koh,  D. Kosenkov,  L. Koulias,  T. Kowalczyk,  C. M. Krauter,  
 K. Kue,  A. Kunitsa,  T. Kus,  A. Landau,  K. V. Lawler,  D. Lefrancois,  
 S. Lehtola,  Rain Li,  Yi-Pei Li,  Jiashu Liang,  M. Liebenthal,  
 Hung-Hsuan Lin,  You-Sheng Lin,  Fenglai Liu,  Kuan-Yu Liu,  
 M. Loipersberger,  A. Luenser,  A. Manjanath,  P. Manohar,  E. Mansoor,  
 S. F. Manzer,  Shan-Ping Mao,  A. V. Marenich,  T. Markovich,  S. Mason,  
 S. A. Maurer,  P. F. McLaughlin,  M. F. S. J. Menger,  J.-M. Mewes,  
 S. A. Mewes,  P. Morgante,  J. W. Mullinax,  T. S. Nguyen-Beck,  
 K. J. Oosterbaan,  G. Paran,  Alexander C. Paul,  Suranjan K. Paul,  
 F. Pavosevic,  Zheng Pei,  S. Prager,  E. I. Proynov,  E. Ramos,  B. Rana,  
 A. E. Rask,  A. Rettig,  R. M. Richard,  F. Rob,  E. Rossomme,  T. Scheele,  
 M. Scheurer,  M. Schneider,  N. Sergueev,  S. M. Sharada,  W. Skomorowski,  
 D. W. Small,  C. J. Stein,  Yu-Chuan Su,  E. J. Sundstrom,  Zhen Tao,  
 J. Thirman,  T. Tsuchimochi,  N. M. Tubman,  S. P. Veccham,  O. Vydrov,  
 J. Wenzel,  J. Witte,  A. Yamada,  Kun Yao,  S. Yeganeh,  S. R. Yost,  
 A. Zech,  Igor Ying Zhang,  Xing Zhang,  Yu Zhang,  D. Zuev,  
 A. Aspuru-Guzik,  A. T. Bell,  N. A. Besley,  K. B. Bravaya,  B. R. Brooks,  
 D. Casanova,  Jeng-Da Chai,  S. Coriani,  C. J. Cramer,  
 A. E. DePrince, III,  R. A. DiStasio Jr.,  A. Dreuw,  B. D. Dunietz,  
 T. R. Furlani,  W. A. Goddard III,  S. Grimme,  S. Hammes-Schiffer,  
 T. Head-Gordon,  W. J. Hehre,  Chao-Ping Hsu,  T.-C. Jagau,  Yousung Jung,  
 A. Klamt,  Jing Kong,  D. S. Lambrecht,  WanZhen Liang,  N. J. Mayhall,  
 C. W. McCurdy,  J. B. Neaton,  C. Ochsenfeld,  J. A. Parkhill,  R. Peverati,  
 V. A. Rassolov,  Yihan Shao,  L. V. Slipchenko,  T. Stauch,  R. P. Steele,  
 J. E. Subotnik,  A. J. W. Thom,  A. Tkatchenko,  D. G. Truhlar,  
 T. Van Voorhis,  T. A. Wesolowski,  K. B. Whaley,  H. L. Woodcock III,  
 P. M. Zimmerman,  S. Faraji,  P. M. W. Gill,  M. Head-Gordon,  
 J. M. Herbert,  A. I. Krylov

 Contributors to earlier versions of Q-Chem not listed above: 
 R. D. Adamson,  B. Austin,  R. Baer,  J. Baker,  G. J. O. Beran,  
 K. Brandhorst,  S. T. Brown,  E. F. C. Byrd,  A. K. Chakraborty,  
 G. K. L. Chan,  Chun-Min Chang,  Yunqing Chen,  C.-L. Cheng,  
 Siu Hung Chien,  D. M. Chipman,  D. L. Crittenden,  H. Dachsel,  
 R. J. Doerksen,  A. D. Dutoi,  R. G. Edgar,  J. Fosso-Tande,  
 L. Fusti-Molnar,  D. Ghosh,  A. Ghysels,  A. Golubeva-Zadorozhnaya,  
 J. Gonthier,  M. S. Gordon,  S. R. Gwaltney,  G. Hawkins,  J. E. Herr,  
 A. Heyden,  S. Hirata,  E. G. Hohenstein,  G. Kedziora,  F. J. Keil,  
 C. Kelley,  Jihan Kim,  R. A. King,  R. Z. Khaliullin,  P. P. Korambath,  
 W. Kurlancheek,  A. Laurent,  A. M. Lee,  M. S. Lee,  S. V. Levchenko,  
 Ching Yeh Lin,  D. Liotard,  E. Livshits,  R. C. Lochan,  I. Lotan,  
 L. A. Martinez-Martinez,  P. E. Maslen,  N. Nair,  D. P. O'Neill,  
 D. Neuhauser,  E. Neuscamman,  C. M. Oana,  R. Olivares-Amaya,  R. Olson,  
 T. M. Perrine,  B. Peters,  P. A. Pieniazek,  A. Prociuk,  Y. M. Rhee,  
 J. Ritchie,  M. A. Rohrdanz,  E. Rosta,  N. J. Russ,  H. F. Schaefer III,  
 M. W. Schmidt,  N. E. Schultz,  S. Sharma,  N. Shenvi,  C. D. Sherrill,  
 A. C. Simmonett,  A. Sodt,  T. Stein,  D. Stuck,  K. S. Thanthiriwatte,  
 V. Vanovschi,  L. Vogt,  Tao Wang,  A. Warshel,  M. A. Watson,  
 C. F. Williams,  Q. Wu,  X. Xu,  Jun Yang,  W. Zhang,  Yan Zhao

 Please cite Q-Chem as follows:
 Y. Shao et al., Mol. Phys. 113, 184-215 (2015)
 DOI: 10.1080/00268976.2014.952696

 Q-Chem 5.4.0 for Intel X86 EM64T Linux

 Parts of Q-Chem use Armadillo 9.800.1 (Horizon Scraper).
 http://arma.sourceforge.net/

 Q-Chem begins on Tue Sep 26 19:53:24 2023  

 Host: 
0

     Scratch files written to ./qchem186308//
 May1621 |scratch|qcdevops|jenkins|workspace|build_RNUM    
 Parallel job on  1  processors
 Processing $rem in /cm/shared/apps/spack/cpu/opt/spack/linux-centos8-zen2/gcc-10.2.0/qchem-5.4-akfmr7b3t57bfs6qan3padb2wnb2i7cl/config/preferences:
 Processing $rem in /home/rramji/.qchemrc:
 Symmetry turned off for PCM/SM12/SMD calculation
 Core orbitals will be frozen

 Checking the input file for inconsistencies... 	...done.

 Q-Chem warning in module forms1/BasisType.C, line 2236:

 You are not using the predefined 5D/6D in this basis set.


--------------------------------------------------------------
User input:
--------------------------------------------------------------
$molecule
0 1
C	0.255459	-8.519741	0.093711
C	-0.799036	-7.635967	-0.083869
S	1.789425	-7.651740	0.345260
C	-0.418360	-6.261894	-0.018411
H	-1.834294	-7.954738	-0.259169
C	0.987769	-6.079985	0.229701
C	1.555260	-4.798382	0.302697
C	-1.294992	-5.153542	-0.196459
C	-0.726408	-3.869626	-0.127651
C	0.680716	-3.688927	0.123544
O	-2.601852	-5.481075	-0.396706
O	2.868193	-4.479871	0.502673
C	3.691495	-5.356026	1.262918
H	4.614080	-4.790496	1.494604
H	3.974195	-6.268513	0.693738
H	3.199559	-5.658187	2.212720
C	-3.490743	-4.546999	-0.997016
H	-4.416630	-5.107564	-1.226691
H	-3.073934	-4.131473	-1.939526
H	-3.746794	-3.712085	-0.309214
C	1.058247	-2.314326	0.186133
S	-1.527599	-2.295487	-0.256010
C	-0.000000	-1.435180	-0.000000
H	2.092285	-1.993211	0.363896
H	0.250435	-9.615985	0.090328
C	0.000000	0.000000	0.000000
S	0.382139	0.814215	1.510732
C	1.046923	2.242395	0.727629
C	0.383804	0.823142	-1.064665
C	0.969360	2.082453	-0.678287
C	0.357247	0.762277	-2.486150
C	0.891671	1.908660	-3.106916
S	1.415865	3.040689	-1.965735
C	1.003453	2.137318	-4.559972
O	0.611644	1.290019	-5.350277
O	1.548687	3.298916	-5.004375
F	-0.110054	-0.249117	-3.246290
C	1.709479	3.619721	-6.334976
H	2.177001	4.620902	-6.370268
H	0.737443	3.643380	-6.875609
H	2.359363	2.886384	-6.861878
H	1.435800	3.076190	1.321510
$end

$rem
JOBTYPE		SP
EXCHANGE	HF
CORRELATION	pRIMP2
BASIS		cc-pvtz
METHOD		rimp2
AUX_BASIS	rimp2-cc-pvtz
SOLVENT_METHOD	PCM
PURECART	11111
SYMMETRY	false
MEM_TOTAL	110000
SCF_CONVERGENCE = 6
THRESH=10
GUI = 2
$end



$solvent
dielectric 4.90
$end
--------------------------------------------------------------
 ----------------------------------------------------------------
             Standard Nuclear Orientation (Angstroms)
    I     Atom           X                Y                Z
 ----------------------------------------------------------------
    1      C       0.2554590000    -8.5197410000     0.0937110000
    2      C      -0.7990360000    -7.6359670000    -0.0838690000
    3      S       1.7894250000    -7.6517400000     0.3452600000
    4      C      -0.4183600000    -6.2618940000    -0.0184110000
    5      H      -1.8342940000    -7.9547380000    -0.2591690000
    6      C       0.9877690000    -6.0799850000     0.2297010000
    7      C       1.5552600000    -4.7983820000     0.3026970000
    8      C      -1.2949920000    -5.1535420000    -0.1964590000
    9      C      -0.7264080000    -3.8696260000    -0.1276510000
   10      C       0.6807160000    -3.6889270000     0.1235440000
   11      O      -2.6018520000    -5.4810750000    -0.3967060000
   12      O       2.8681930000    -4.4798710000     0.5026730000
   13      C       3.6914950000    -5.3560260000     1.2629180000
   14      H       4.6140800000    -4.7904960000     1.4946040000
   15      H       3.9741950000    -6.2685130000     0.6937380000
   16      H       3.1995590000    -5.6581870000     2.2127200000
   17      C      -3.4907430000    -4.5469990000    -0.9970160000
   18      H      -4.4166300000    -5.1075640000    -1.2266910000
   19      H      -3.0739340000    -4.1314730000    -1.9395260000
   20      H      -3.7467940000    -3.7120850000    -0.3092140000
   21      C       1.0582470000    -2.3143260000     0.1861330000
   22      S      -1.5275990000    -2.2954870000    -0.2560100000
   23      C       0.0000000000    -1.4351800000     0.0000000000
   24      H       2.0922850000    -1.9932110000     0.3638960000
   25      H       0.2504350000    -9.6159850000     0.0903280000
   26      C       0.0000000000     0.0000000000     0.0000000000
   27      S       0.3821390000     0.8142150000     1.5107320000
   28      C       1.0469230000     2.2423950000     0.7276290000
   29      C       0.3838040000     0.8231420000    -1.0646650000
   30      C       0.9693600000     2.0824530000    -0.6782870000
   31      C       0.3572470000     0.7622770000    -2.4861500000
   32      C       0.8916710000     1.9086600000    -3.1069160000
   33      S       1.4158650000     3.0406890000    -1.9657350000
   34      C       1.0034530000     2.1373180000    -4.5599720000
   35      O       0.6116440000     1.2900190000    -5.3502770000
   36      O       1.5486870000     3.2989160000    -5.0043750000
   37      F      -0.1100540000    -0.2491170000    -3.2462900000
   38      C       1.7094790000     3.6197210000    -6.3349760000
   39      H       2.1770010000     4.6209020000    -6.3702680000
   40      H       0.7374430000     3.6433800000    -6.8756090000
   41      H       2.3593630000     2.8863840000    -6.8618780000
   42      H       1.4358000000     3.0761900000     1.3215100000
 ----------------------------------------------------------------
 Nuclear Repulsion Energy =        3305.93778900 hartrees
 There are      119 alpha and      119 beta electrons
 Requested basis set is cc-pVTZ
 There are 376 shells and 1068 basis functions

 Total QAlloc Memory Limit 110000 MB
 Mega-Array Size       188 MB
 MEM_STATIC part       192 MB
 Discretize the solute cavity surface with Lebedev spheres
	Using 110 Lebedev grid points for each H atom
	Using 194 Lebedev grid points for other atoms
	Atomic van der Waals radii will be scaled by 1.20
 Remove points where switching function is < 1.0e-08
 Keep 2936 surface tesserae and discard 4120 interior tesserae
 Molecular Surface Area = 443.577 Angst**2
 Requested basis set is rimp2-cc-pVTZ
 There are 833 shells and 2903 basis functions
 A cutoff of  1.0D-10 yielded  31211 shell pairs
 There are    239509 function pairs (    310990 Cartesian)
 Smallest overlap matrix eigenvalue = 2.17E-05

 Scale SEOQF with 1.000000e-01/1.000000e-02/1.000000e-02

 Standard Electronic Orientation quadrupole field applied
 Nucleus-field energy     =     0.0000000392 hartrees
 Guess from superposition of atomic densities
 Warning:  Energy on first SCF cycle will be non-variational
 SAD guess density has 238.000000 electrons

 -----------------------------------------------------------------------
  General SCF calculation program by
  Eric Jon Sundstrom, Paul Horn, Yuezhi Mao, Dmitri Zuev, Alec White,
  David Stuck, Shaama M.S., Shane Yost, Joonho Lee, David Small,
  Daniel Levine, Susi Lehtola, Hugh Burton, Evgeny Epifanovsky,
  Bang C. Huynh
 -----------------------------------------------------------------------
 Hartree-Fock
 using 64 threads for integral computing
 -------------------------------------------------------
 OpenMP Integral computing Module                
 Release: version 1.0, May 2013, Q-Chem Inc. Pittsburgh 
 -------------------------------------------------------
 A restricted SCF calculation will be
 performed using DIIS
 SCF converges when DIIS error is below 1.0e-06
 ---------------------------------------
  Cycle       Energy         DIIS error
 ---------------------------------------
    1   -2765.5330112697      1.77e-02  
    2   -2753.8482241241      1.57e-03  
    3   -2754.1868793470      8.81e-04  
    4   -2754.2707642109      2.55e-04  
    5   -2754.2823876282      6.82e-05  
    6   -2754.2834602467      2.38e-05  
    7   -2754.2836988400      1.16e-05  
    8   -2754.2837789751      4.59e-06  
    9   -2754.2837965807      2.15e-06  
   10   -2754.2837994125      9.20e-07  Convergence criterion met
 ---------------------------------------
 SCF time:   CPU 6422.62s  wall 247.00s 

************** Final PCM Free Energy Summary **************
 G_electrostatic  =      -0.02016285 hartree =     -12.65238040 kcal/mol
 G_cavitation     =       0.00000000 hartree =       0.00000000 kcal/mol
 G_dispersion     =       0.00000000 hartree =       0.00000000 kcal/mol
 G_repulsion      =       0.00000000 hartree =       0.00000000 kcal/mol
 --------------------------------------------------
 Non-electrostatic Free Energy =       0.00000000 hartree =       0.00000000 kcal/mol
 Total                         =      -0.02016285 hartree =     -12.65238040 kcal/mol
 --------------------------------------------------
 SCF Energy (H0 + V/2)                       =   -2754.28379941 
 Solute Internal Energy (H0)                 =   -2754.26363656 
 Total Free Energy (H0 + V/2 + non-elec)     =   -2754.28379941 hartree
                                             = -1728339.16995322 kcal/mol
***********************************************************

 SCF   energy in the final basis set =    -2754.2837994125
 Total energy in the final basis set =    -2754.2837994125


 --------------------------------------------------------------
  Generalized many-body perturbation theory program
  by Joonho Lee, Fazle Rob, Xintian Feng, Evgeny Epifanovsky

 No regularization used 
 (reg. param. = 0.0000e+00)
  (P|Q)^-1/2 Time:  CPU 156.62 s  wall 2.96 s

 In RI-MP2 calculation: 
 # of frozen core orbitals: 45

 Components of the RIMP2 correlation energy:
        aaaa    correlation energy =        -0.6711634479 a.u.
        abab    correlation energy =        -3.7142871912 a.u.
        bbbb    correlation energy =        -0.6711634479 a.u.
        non-Brillouin singles      =        -0.0000000000 a.u.
        total same-spin energy     =        -1.3423268957 a.u.
        total opposite-spin energy =        -3.7142871912 a.u.

 Total  RIMP2   correlation energy =        -5.0566140869 a.u.
        RIMP2         total energy =     -2759.3404134995 a.u.

 RI-MP2 Energy Time:  CPU 2683.88 s  wall 46.81 s
 
 --------------------------------------------------------------
 
                    Orbital Energies (a.u.)
 --------------------------------------------------------------
 
 Alpha MOs
 -- Occupied --
-92.0165 -91.9961 -91.9872 -91.9859 -26.3338 -20.6125 -20.5917 -20.5913
-20.5511 -11.4112 -11.3766 -11.3184 -11.3176 -11.3027 -11.2996 -11.2989
-11.2962 -11.2931 -11.2887 -11.2862 -11.2861 -11.2849 -11.2849 -11.2835
-11.2794 -11.2602 -11.2584 -11.2572 -11.2496  -9.0146  -9.0000  -8.9876
 -8.9859  -6.6953  -6.6947  -6.6942  -6.6813  -6.6806  -6.6793  -6.6685
 -6.6678  -6.6669  -6.6669  -6.6662  -6.6654  -1.6467  -1.4724  -1.4158
 -1.4140  -1.3678  -1.2342  -1.1951  -1.1679  -1.1420  -1.0834  -1.0513
 -1.0479  -1.0282  -1.0012  -0.9927  -0.9717  -0.9605  -0.9499  -0.9385
 -0.8948  -0.8699  -0.8489  -0.8052  -0.7905  -0.7876  -0.7745  -0.7681
 -0.7573  -0.7321  -0.7179  -0.7151  -0.7008  -0.6892  -0.6825  -0.6789
 -0.6718  -0.6603  -0.6582  -0.6523  -0.6301  -0.6197  -0.6163  -0.6070
 -0.6022  -0.5961  -0.5839  -0.5754  -0.5706  -0.5661  -0.5538  -0.5527
 -0.5308  -0.5266  -0.5235  -0.5158  -0.5137  -0.5076  -0.5013  -0.4926
 -0.4908  -0.4854  -0.4750  -0.4658  -0.4619  -0.4616  -0.4598  -0.4058
 -0.3999  -0.3865  -0.3586  -0.3462  -0.3135  -0.2913  -0.2579
 -- Virtual --
  0.0238   0.0629   0.1144   0.1253   0.1354   0.1420   0.1499   0.1556
  0.1559   0.1603   0.1671   0.1705   0.1797   0.1828   0.1871   0.1919
  0.1948   0.2045   0.2104   0.2197   0.2208   0.2213   0.2246   0.2265
  0.2317   0.2378   0.2409   0.2533   0.2595   0.2664   0.2685   0.2761
  0.2839   0.3072   0.3166   0.3272   0.3354   0.3383   0.3397   0.3471
  0.3532   0.3646   0.3680   0.3713   0.3752   0.3791   0.3818   0.3866
  0.3867   0.3907   0.3926   0.4004   0.4093   0.4103   0.4166   0.4205
  0.4221   0.4344   0.4355   0.4400   0.4451   0.4486   0.4521   0.4536
  0.4591   0.4622   0.4664   0.4708   0.4729   0.4795   0.4822   0.4872
  0.4934   0.5008   0.5034   0.5090   0.5153   0.5189   0.5200   0.5242
  0.5260   0.5303   0.5366   0.5397   0.5438   0.5453   0.5529   0.5551
  0.5574   0.5632   0.5640   0.5653   0.5700   0.5747   0.5766   0.5770
  0.5820   0.5885   0.5925   0.5965   0.5972   0.6015   0.6059   0.6130
  0.6148   0.6162   0.6187   0.6214   0.6271   0.6283   0.6317   0.6334
  0.6400   0.6417   0.6451   0.6476   0.6515   0.6544   0.6585   0.6684
  0.6772   0.6778   0.6817   0.6846   0.6852   0.6947   0.6977   0.7033
  0.7055   0.7147   0.7187   0.7235   0.7296   0.7439   0.7461   0.7508
  0.7585   0.7620   0.7709   0.7743   0.7753   0.7808   0.7922   0.7995
  0.8047   0.8081   0.8092   0.8197   0.8225   0.8276   0.8296   0.8441
  0.8466   0.8569   0.8596   0.8649   0.8802   0.8831   0.8864   0.8904
  0.8972   0.9004   0.9035   0.9122   0.9143   0.9188   0.9207   0.9237
  0.9335   0.9348   0.9421   0.9454   0.9498   0.9566   0.9580   0.9686
  0.9723   0.9753   0.9791   0.9854   0.9928   0.9952   0.9983   1.0018
  1.0041   1.0078   1.0141   1.0160   1.0234   1.0263   1.0358   1.0389
  1.0448   1.0493   1.0516   1.0559   1.0641   1.0695   1.0723   1.0742
  1.0791   1.0849   1.0888   1.0948   1.0985   1.1007   1.1029   1.1100
  1.1146   1.1257   1.1331   1.1357   1.1402   1.1485   1.1561   1.1601
  1.1617   1.1699   1.1752   1.1797   1.1806   1.1870   1.1892   1.1914
  1.1973   1.2012   1.2116   1.2139   1.2201   1.2211   1.2226   1.2265
  1.2328   1.2407   1.2465   1.2533   1.2575   1.2633   1.2697   1.2706
  1.2752   1.2770   1.2874   1.3045   1.3065   1.3091   1.3132   1.3177
  1.3257   1.3309   1.3402   1.3461   1.3492   1.3586   1.3664   1.3682
  1.3764   1.3826   1.3871   1.3909   1.3938   1.4113   1.4203   1.4213
  1.4259   1.4363   1.4447   1.4568   1.4705   1.4744   1.4839   1.4911
  1.4931   1.4992   1.5035   1.5053   1.5120   1.5161   1.5195   1.5249
  1.5328   1.5380   1.5389   1.5425   1.5455   1.5500   1.5548   1.5602
  1.5671   1.5832   1.5869   1.5993   1.6086   1.6120   1.6207   1.6323
  1.6353   1.6490   1.6567   1.6597   1.6627   1.6710   1.6758   1.6816
  1.6880   1.6981   1.7001   1.7083   1.7213   1.7241   1.7358   1.7478
  1.7575   1.7628   1.7697   1.7833   1.7875   1.8060   1.8107   1.8242
  1.8296   1.8333   1.8383   1.8445   1.8533   1.8615   1.8665   1.8700
  1.8753   1.8802   1.9008   1.9038   1.9193   1.9213   1.9261   1.9293
  1.9357   1.9415   1.9473   1.9614   1.9691   1.9739   1.9835   1.9856
  1.9983   2.0039   2.0214   2.0268   2.0341   2.0422   2.0467   2.0585
  2.0784   2.0948   2.0970   2.1044   2.1137   2.1248   2.1306   2.1431
  2.1469   2.1566   2.1633   2.1657   2.1778   2.1798   2.1898   2.1932
  2.1952   2.1985   2.2040   2.2213   2.2245   2.2299   2.2326   2.2429
  2.2488   2.2571   2.2712   2.2731   2.2779   2.2803   2.2907   2.2938
  2.3065   2.3097   2.3187   2.3264   2.3282   2.3489   2.3540   2.3596
  2.3723   2.3816   2.3854   2.3941   2.4010   2.4042   2.4147   2.4275
  2.4349   2.4423   2.4525   2.4595   2.4724   2.4783   2.4855   2.4938
  2.5021   2.5140   2.5269   2.5287   2.5375   2.5519   2.5613   2.5661
  2.5769   2.5830   2.5898   2.5983   2.6070   2.6128   2.6165   2.6239
  2.6298   2.6348   2.6355   2.6403   2.6501   2.6512   2.6647   2.6680
  2.6831   2.6838   2.6910   2.7005   2.7015   2.7044   2.7100   2.7213
  2.7295   2.7310   2.7354   2.7363   2.7438   2.7527   2.7622   2.7719
  2.7737   2.7861   2.7924   2.7982   2.7992   2.8130   2.8170   2.8276
  2.8313   2.8414   2.8432   2.8466   2.8526   2.8553   2.8721   2.8737
  2.8779   2.8838   2.8883   2.8909   2.8998   2.9137   2.9188   2.9346
  2.9469   2.9497   2.9623   2.9688   2.9719   2.9802   2.9910   3.0030
  3.0111   3.0163   3.0231   3.0286   3.0324   3.0386   3.0439   3.0463
  3.0496   3.0637   3.0710   3.0809   3.0880   3.0900   3.0926   3.0979
  3.1056   3.1104   3.1149   3.1231   3.1245   3.1321   3.1495   3.1521
  3.1533   3.1571   3.1614   3.1667   3.1715   3.1782   3.1798   3.1844
  3.1975   3.1998   3.2064   3.2096   3.2110   3.2214   3.2233   3.2260
  3.2295   3.2400   3.2459   3.2492   3.2515   3.2570   3.2639   3.2730
  3.2764   3.2827   3.2846   3.2874   3.2943   3.2985   3.3014   3.3042
  3.3089   3.3166   3.3264   3.3307   3.3333   3.3379   3.3437   3.3492
  3.3532   3.3554   3.3578   3.3598   3.3642   3.3669   3.3751   3.3758
  3.3816   3.3887   3.3926   3.3969   3.4058   3.4110   3.4158   3.4194
  3.4272   3.4306   3.4355   3.4391   3.4416   3.4468   3.4555   3.4586
  3.4611   3.4658   3.4707   3.4712   3.4822   3.4872   3.4901   3.4960
  3.5007   3.5057   3.5140   3.5240   3.5292   3.5352   3.5382   3.5411
  3.5450   3.5490   3.5518   3.5622   3.5708   3.5737   3.5791   3.5835
  3.5870   3.5915   3.5958   3.6024   3.6053   3.6101   3.6157   3.6228
  3.6318   3.6391   3.6427   3.6467   3.6543   3.6570   3.6582   3.6645
  3.6678   3.6725   3.6790   3.6861   3.6911   3.6954   3.6977   3.7043
  3.7089   3.7123   3.7151   3.7199   3.7248   3.7303   3.7359   3.7392
  3.7486   3.7515   3.7522   3.7635   3.7687   3.7758   3.7855   3.7906
  3.7934   3.8025   3.8065   3.8106   3.8207   3.8215   3.8253   3.8313
  3.8372   3.8394   3.8472   3.8510   3.8560   3.8594   3.8682   3.8719
  3.8755   3.8852   3.8879   3.9020   3.9046   3.9105   3.9179   3.9283
  3.9285   3.9360   3.9398   3.9419   3.9609   3.9673   3.9791   3.9857
  3.9917   3.9955   4.0106   4.0128   4.0169   4.0236   4.0307   4.0405
  4.0544   4.0583   4.0610   4.0641   4.0697   4.0816   4.0861   4.0867
  4.0996   4.1068   4.1132   4.1219   4.1309   4.1402   4.1477   4.1496
  4.1623   4.1668   4.1729   4.1787   4.1866   4.1902   4.1985   4.2050
  4.2118   4.2212   4.2288   4.2340   4.2405   4.2540   4.2677   4.2711
  4.2805   4.2977   4.3092   4.3125   4.3221   4.3353   4.3380   4.3481
  4.3596   4.3640   4.3754   4.3769   4.3795   4.3909   4.3930   4.4023
  4.4041   4.4084   4.4126   4.4200   4.4287   4.4305   4.4443   4.4484
  4.4578   4.4726   4.4805   4.4866   4.4999   4.5022   4.5065   4.5094
  4.5281   4.5373   4.5458   4.5533   4.5593   4.5717   4.5845   4.6010
  4.6024   4.6083   4.6160   4.6290   4.6345   4.6411   4.6452   4.6491
  4.6599   4.6687   4.6705   4.6790   4.6925   4.6955   4.7142   4.7294
  4.7382   4.7470   4.7507   4.7714   4.7796   4.7909   4.8050   4.8123
  4.8277   4.8292   4.8398   4.8499   4.8712   4.8903   4.9103   4.9207
  4.9386   4.9444   4.9517   4.9636   4.9683   4.9778   4.9907   5.0021
  5.0105   5.0119   5.0148   5.0382   5.0534   5.0595   5.0711   5.0876
  5.0939   5.1086   5.1410   5.1575   5.1689   5.1752   5.1902   5.2013
  5.2035   5.2140   5.2157   5.2351   5.2527   5.2559   5.2589   5.2747
  5.2987   5.3029   5.3165   5.3301   5.3382   5.3431   5.3550   5.3642
  5.3769   5.3876   5.3977   5.3999   5.4225   5.4330   5.4438   5.4643
  5.4729   5.4827   5.4911   5.5077   5.5122   5.5200   5.5428   5.5585
  5.5722   5.5846   5.5919   5.6061   5.6169   5.6339   5.6406   5.6830
  5.7125   5.7333   5.7820   5.8004   5.8133   5.8301   5.8512   5.8564
  5.8744   5.8811   5.9059   5.9689   5.9716   5.9736   5.9999   6.0244
  6.0653   6.0840   6.1208   6.1334   6.1460   6.1718   6.1773   6.1853
  6.2321   6.2415   6.2690   6.2790   6.2893   6.3082   6.3202   6.3757
  6.4314   6.4416   6.4830   6.5088   6.5487   6.5555   6.5559   6.6514
  6.6704   6.6761   6.6995   6.7327   6.7408   6.7999   6.8378   6.8596
  6.8809   6.8934   6.9901   7.1210   7.1376   7.1780   7.2104   7.2162
  7.2335   7.3197   7.3258   7.3312   7.3738   7.3762   7.4270   7.4621
  7.4794   7.4870   7.4888   7.5189   7.5485   7.6041   7.7117   7.7713
  7.7971   7.8308   7.9008   7.9211   7.9485   8.0010   8.0904   8.1601
  8.5100   8.9291   9.0084   9.3635   9.4986   9.6896  10.2023  10.6507
 11.2282  11.4970  11.9339  11.9522  12.1262  12.1818  12.2860  12.5820
 12.6596  12.7378  12.9423  13.2058  13.2763  13.5756  13.8462  13.8978
 13.9186  14.0217  14.1621  14.4833  15.1954
 --------------------------------------------------------------
 
          Ground-State Mulliken Net Atomic Charges

     Atom                 Charge (a.u.)
  ----------------------------------------
      1 C                    -0.188832
      2 C                    -0.254126
      3 S                    -0.022975
      4 C                    -0.015551
      5 H                     0.196376
      6 C                    -0.029139
      7 C                     0.241932
      8 C                     0.244413
      9 C                    -0.052104
     10 C                    -0.019096
     11 O                    -0.333659
     12 O                    -0.340295
     13 C                    -0.085567
     14 H                     0.122325
     15 H                     0.091216
     16 H                     0.093731
     17 C                    -0.086203
     18 H                     0.124383
     19 H                     0.095627
     20 H                     0.089163
     21 C                    -0.210112
     22 S                     0.000975
     23 C                    -0.034984
     24 H                     0.199611
     25 H                     0.206331
     26 C                    -0.048443
     27 S                     0.122075
     28 C                    -0.226274
     29 C                    -0.095801
     30 C                    -0.002622
     31 C                     0.374437
     32 C                    -0.151948
     33 S                     0.044750
     34 C                     0.458877
     35 O                    -0.447793
     36 O                    -0.297660
     37 F                    -0.209808
     38 C                    -0.054843
     39 H                     0.116662
     40 H                     0.084714
     41 H                     0.084753
     42 H                     0.215488
  ----------------------------------------
  Sum of atomic charges =     0.000000

 -----------------------------------------------------------------
                    Cartesian Multipole Moments
 -----------------------------------------------------------------
    Charge (ESU x 10^10)
                -0.0000
    Dipole Moment (Debye)
         X       1.5650      Y       1.8385      Z       3.3886
       Tot       4.1607
    Quadrupole Moments (Debye-Ang)
        XX    -177.6752     XY       6.2731     YY    -162.5995
        XZ       4.4244     YZ     -11.3906     ZZ    -201.9114
    Octopole Moments (Debye-Ang^2)
       XXX    -256.8910    XXY     317.0590    XYY     -55.2621
       YYY     932.3450    XXZ     166.4676    XYZ     -65.7075
       YYZ     138.8440    XZZ     -35.4069    YZZ     497.9347
       ZZZ     530.7218
    Hexadecapole Moments (Debye-Ang^3)
      XXXX   -2768.8293   XXXY     -82.7281   XXYY   -3701.3461
      XYYY     -35.4647   YYYY  -18272.6862   XXXZ     449.4587
      XXYZ     425.4064   XYYZ     261.9534   YYYZ    1251.3797
      XXZZ   -1350.5710   XYZZ     180.4759   YYZZ   -4221.8304
      XZZZ      28.1584   YZZZ     812.9518   ZZZZ   -5663.7513
 -----------------------------------------------------------------
 Total job time:  297.93s(wall), 9282.87s(cpu) 
 Tue Sep 26 19:58:22 2023

        *************************************************************
        *                                                           *
        *  Thank you very much for using Q-Chem.  Have a nice day.  *
        *                                                           *
        *************************************************************


0 sent ACK to 0 
now end server 0 ... 
cleanup process ... done
remove work dirs ./qchem186308.0 -- ./qchem186308.0
rm -rf ./qchem186308.0
rm -rf ./qchem186308
