You are running Q-Chem version: 5.4.0

#
# job setting
#
local host:  exp-2-27
current dir: /expanse/lustre/projects/csd626/rramji/aromodel/PTB7_fin/Rotation_Test
input file:  fin_bdt_Phi_0_Theta_100_fin_ftt.qcin
output file: 
nprocs     : 1
nthreads   : 64
#
# qchem installation setting
#
QC:          /cm/shared/apps/spack/cpu/opt/spack/linux-centos8-zen2/gcc-10.2.0/qchem-5.4-akfmr7b3t57bfs6qan3padb2wnb2i7cl
QCAUX:       /cm/shared/apps/spack/cpu/opt/spack/linux-centos8-zen2/gcc-10.2.0/qchem-5.4-akfmr7b3t57bfs6qan3padb2wnb2i7cl/qcaux
QCPROG:      /cm/shared/apps/spack/cpu/opt/spack/linux-centos8-zen2/gcc-10.2.0/qchem-5.4-akfmr7b3t57bfs6qan3padb2wnb2i7cl/exe/qcprog.exe
QCPROG_S:    /cm/shared/apps/spack/cpu/opt/spack/linux-centos8-zen2/gcc-10.2.0/qchem-5.4-akfmr7b3t57bfs6qan3padb2wnb2i7cl/exe/qcprog.exe_s
PARALLEL:    -DPARALLEL
QCMPI:       mpich
#
# qchem directory setting
#
qcrun:       qchem40326
QCSCRATCH:   .
QCLOCALSCR:  
QCTMPDIR:    .
QCFILEPREF:  ./qchem40326
QCSAVEDIR:   
workdirs:    ./qchem40326
workdir0:    ./qchem40326
partmpdirs =  
#
# parallel setting
#
QCRSH:           ssh
QCMPI:           mpich
QCMPIRUN:        /cm/shared/apps/spack/cpu/opt/spack/linux-centos8-zen2/gcc-10.2.0/qchem-5.4-akfmr7b3t57bfs6qan3padb2wnb2i7cl/bin/mpi/mpirun_qchem
QCMACHINEFILE:   ./qchem40326/hostfile
exp-2-27

#
# env setting
#
exported envs:   QC QCAUX QCSCRATCH QCRUNNAME QCFILEPREF QCPROG QCPROG_S GUIFILE

Running Job 1 of 1 fin_bdt_Phi_0_Theta_100_fin_ftt.qcin
qchem fin_bdt_Phi_0_Theta_100_fin_ftt.qcin_40326.0 ./qchem40326/ 1
/cm/shared/apps/spack/cpu/opt/spack/linux-centos8-zen2/gcc-10.2.0/qchem-5.4-akfmr7b3t57bfs6qan3padb2wnb2i7cl/bin/mpi/mpirun_qchem -machinefile ./qchem40326/hostfile -np 1 /cm/shared/apps/spack/cpu/opt/spack/linux-centos8-zen2/gcc-10.2.0/qchem-5.4-akfmr7b3t57bfs6qan3padb2wnb2i7cl/exe/qcprog.exe fin_bdt_Phi_0_Theta_100_fin_ftt.qcin_40326.0 ./qchem40326/

Process 0 of 1 is on exp-2-27 - thread support 0
initial socket setup ...start
initial socket setup ...done 
now start server 0 ... 
                  Welcome to Q-Chem
     A Quantum Leap Into The Future Of Chemistry


 Q-Chem 5.4, Q-Chem, Inc., Pleasanton, CA (2021)

 License issued to: University of California, San Diego (site)

 E. Epifanovsky,  A. T. B. Gilbert,  Xintian Feng,  Joonho Lee,  Yuezhi Mao,  
 N. Mardirossian,  P. Pokhilko,  A. White,  M. Wormit,  M. P. Coons,  
 A. L. Dempwolff,  Zhengting Gan,  D. Hait,  P. R. Horn,  L. D. Jacobson,  
 I. Kaliman,  J. Kussmann,  A. W. Lange,  Ka Un Lao,  D. S. Levine,  Jie Liu,  
 S. C. McKenzie,  A. F. Morrison,  K. Nanda,  F. Plasser,  D. R. Rehn,  
 M. L. Vidal,  Zhi-Qiang You,  Ying Zhu,  B. Alam,  B. Albrecht,  
 A. Aldossary,  E. Alguire,  J. H. Andersen,  D. Barton,  K. Begam,  A. Behn,  
 Y. A. Bernard,  E. J. Berquist,  H. Burton,  A. Carreras,  K. Carter-Fenk,  
 R. Chakraborty,  A. D. Chien,  K. D. Closser,  V. Cofer-Shabica,  
 S. Dasgupta,  Jia Deng,  M. de Wergifosse,  M. Diedenhofen,  Hainam Do,  
 S. Ehlert,  Po-Tung Fang,  S. Fatehi,  Qingguo Feng,  J. Gayvert,  
 Qinghui Ge,  G. Gidofalvi,  M. Goldey,  J. Gomes,  C. Gonzalez-Espinoza,  
 S. Gulania,  A. Gunina,  M. W. D. Hanson-Heine,  P. H. P. Harbach,  
 A. W. Hauser,  M. F. Herbst,  M. Hernandez Vera,  M. Hodecker,  
 Z. C. Holden,  S. Houck,  Xunkun Huang,  Kerwin Hui,  B. C. Huynh,  
 M. Ivanov,  Hyunjun Ji,  Hanjie Jiang,  B. Kaduk,  S. Kaehler,  
 K. Khistyaev,  Jaehoon Kim,  P. Klunzinger,  Z. Koczor-Benda,  
 Joong Hoon Koh,  D. Kosenkov,  L. Koulias,  T. Kowalczyk,  C. M. Krauter,  
 K. Kue,  A. Kunitsa,  T. Kus,  A. Landau,  K. V. Lawler,  D. Lefrancois,  
 S. Lehtola,  Rain Li,  Yi-Pei Li,  Jiashu Liang,  M. Liebenthal,  
 Hung-Hsuan Lin,  You-Sheng Lin,  Fenglai Liu,  Kuan-Yu Liu,  
 M. Loipersberger,  A. Luenser,  A. Manjanath,  P. Manohar,  E. Mansoor,  
 S. F. Manzer,  Shan-Ping Mao,  A. V. Marenich,  T. Markovich,  S. Mason,  
 S. A. Maurer,  P. F. McLaughlin,  M. F. S. J. Menger,  J.-M. Mewes,  
 S. A. Mewes,  P. Morgante,  J. W. Mullinax,  T. S. Nguyen-Beck,  
 K. J. Oosterbaan,  G. Paran,  Alexander C. Paul,  Suranjan K. Paul,  
 F. Pavosevic,  Zheng Pei,  S. Prager,  E. I. Proynov,  E. Ramos,  B. Rana,  
 A. E. Rask,  A. Rettig,  R. M. Richard,  F. Rob,  E. Rossomme,  T. Scheele,  
 M. Scheurer,  M. Schneider,  N. Sergueev,  S. M. Sharada,  W. Skomorowski,  
 D. W. Small,  C. J. Stein,  Yu-Chuan Su,  E. J. Sundstrom,  Zhen Tao,  
 J. Thirman,  T. Tsuchimochi,  N. M. Tubman,  S. P. Veccham,  O. Vydrov,  
 J. Wenzel,  J. Witte,  A. Yamada,  Kun Yao,  S. Yeganeh,  S. R. Yost,  
 A. Zech,  Igor Ying Zhang,  Xing Zhang,  Yu Zhang,  D. Zuev,  
 A. Aspuru-Guzik,  A. T. Bell,  N. A. Besley,  K. B. Bravaya,  B. R. Brooks,  
 D. Casanova,  Jeng-Da Chai,  S. Coriani,  C. J. Cramer,  
 A. E. DePrince, III,  R. A. DiStasio Jr.,  A. Dreuw,  B. D. Dunietz,  
 T. R. Furlani,  W. A. Goddard III,  S. Grimme,  S. Hammes-Schiffer,  
 T. Head-Gordon,  W. J. Hehre,  Chao-Ping Hsu,  T.-C. Jagau,  Yousung Jung,  
 A. Klamt,  Jing Kong,  D. S. Lambrecht,  WanZhen Liang,  N. J. Mayhall,  
 C. W. McCurdy,  J. B. Neaton,  C. Ochsenfeld,  J. A. Parkhill,  R. Peverati,  
 V. A. Rassolov,  Yihan Shao,  L. V. Slipchenko,  T. Stauch,  R. P. Steele,  
 J. E. Subotnik,  A. J. W. Thom,  A. Tkatchenko,  D. G. Truhlar,  
 T. Van Voorhis,  T. A. Wesolowski,  K. B. Whaley,  H. L. Woodcock III,  
 P. M. Zimmerman,  S. Faraji,  P. M. W. Gill,  M. Head-Gordon,  
 J. M. Herbert,  A. I. Krylov

 Contributors to earlier versions of Q-Chem not listed above: 
 R. D. Adamson,  B. Austin,  R. Baer,  J. Baker,  G. J. O. Beran,  
 K. Brandhorst,  S. T. Brown,  E. F. C. Byrd,  A. K. Chakraborty,  
 G. K. L. Chan,  Chun-Min Chang,  Yunqing Chen,  C.-L. Cheng,  
 Siu Hung Chien,  D. M. Chipman,  D. L. Crittenden,  H. Dachsel,  
 R. J. Doerksen,  A. D. Dutoi,  R. G. Edgar,  J. Fosso-Tande,  
 L. Fusti-Molnar,  D. Ghosh,  A. Ghysels,  A. Golubeva-Zadorozhnaya,  
 J. Gonthier,  M. S. Gordon,  S. R. Gwaltney,  G. Hawkins,  J. E. Herr,  
 A. Heyden,  S. Hirata,  E. G. Hohenstein,  G. Kedziora,  F. J. Keil,  
 C. Kelley,  Jihan Kim,  R. A. King,  R. Z. Khaliullin,  P. P. Korambath,  
 W. Kurlancheek,  A. Laurent,  A. M. Lee,  M. S. Lee,  S. V. Levchenko,  
 Ching Yeh Lin,  D. Liotard,  E. Livshits,  R. C. Lochan,  I. Lotan,  
 L. A. Martinez-Martinez,  P. E. Maslen,  N. Nair,  D. P. O'Neill,  
 D. Neuhauser,  E. Neuscamman,  C. M. Oana,  R. Olivares-Amaya,  R. Olson,  
 T. M. Perrine,  B. Peters,  P. A. Pieniazek,  A. Prociuk,  Y. M. Rhee,  
 J. Ritchie,  M. A. Rohrdanz,  E. Rosta,  N. J. Russ,  H. F. Schaefer III,  
 M. W. Schmidt,  N. E. Schultz,  S. Sharma,  N. Shenvi,  C. D. Sherrill,  
 A. C. Simmonett,  A. Sodt,  T. Stein,  D. Stuck,  K. S. Thanthiriwatte,  
 V. Vanovschi,  L. Vogt,  Tao Wang,  A. Warshel,  M. A. Watson,  
 C. F. Williams,  Q. Wu,  X. Xu,  Jun Yang,  W. Zhang,  Yan Zhao

 Please cite Q-Chem as follows:
 Y. Shao et al., Mol. Phys. 113, 184-215 (2015)
 DOI: 10.1080/00268976.2014.952696

 Q-Chem 5.4.0 for Intel X86 EM64T Linux

 Parts of Q-Chem use Armadillo 9.800.1 (Horizon Scraper).
 http://arma.sourceforge.net/

 Q-Chem begins on Sun Sep 24 17:02:22 2023  

 Host: 
0

     Scratch files written to ./qchem40326//
 May1621 |scratch|qcdevops|jenkins|workspace|build_RNUM    
 Parallel job on  1  processors
 Processing $rem in /cm/shared/apps/spack/cpu/opt/spack/linux-centos8-zen2/gcc-10.2.0/qchem-5.4-akfmr7b3t57bfs6qan3padb2wnb2i7cl/config/preferences:
 Processing $rem in /home/rramji/.qchemrc:
 Symmetry turned off for PCM/SM12/SMD calculation
 Core orbitals will be frozen

 Checking the input file for inconsistencies... 	...done.

 Q-Chem warning in module forms1/BasisType.C, line 2236:

 You are not using the predefined 5D/6D in this basis set.


--------------------------------------------------------------
User input:
--------------------------------------------------------------
$molecule
0 1
C	-0.255459	-8.519741	-0.093711
C	0.799036	-7.635967	0.083869
S	-1.789425	-7.651740	-0.345260
C	0.418360	-6.261894	0.018411
H	1.834294	-7.954738	0.259169
C	-0.987769	-6.079985	-0.229701
C	-1.555260	-4.798382	-0.302697
C	1.294992	-5.153542	0.196459
C	0.726408	-3.869626	0.127651
C	-0.680716	-3.688927	-0.123544
O	2.601852	-5.481075	0.396706
O	-2.868193	-4.479871	-0.502673
C	-3.691495	-5.356026	-1.262918
H	-4.614080	-4.790496	-1.494604
H	-3.974195	-6.268513	-0.693738
H	-3.199559	-5.658187	-2.212720
C	3.490743	-4.546999	0.997016
H	4.416630	-5.107564	1.226691
H	3.073934	-4.131473	1.939526
H	3.746794	-3.712085	0.309214
C	-1.058247	-2.314326	-0.186133
S	1.527599	-2.295487	0.256010
C	0.000000	-1.435180	0.000000
H	-2.092285	-1.993211	-0.363896
H	-0.250435	-9.615985	-0.090328
C	0.000000	0.000000	0.000000
S	0.002233	0.899428	1.510732
C	0.001157	2.474749	0.727629
C	-0.000030	0.908223	-1.064665
C	-0.001545	2.297013	-0.678287
C	0.001624	0.841837	-2.486150
C	0.001494	2.106670	-3.106916
S	-0.001841	3.354171	-1.965735
C	0.006168	2.361146	-4.559972
O	0.009152	1.427646	-5.350277
O	0.009405	3.644337	-5.004375
F	0.005539	-0.272288	-3.246290
C	0.019554	4.003038	-6.334976
H	0.020155	5.108000	-6.370268
H	-0.871409	3.613681	-6.875609
H	0.918470	3.613062	-6.861878
H	0.001222	3.394771	1.321510
$end

$rem
JOBTYPE		SP
EXCHANGE	HF
CORRELATION	pRIMP2
BASIS		cc-pvtz
METHOD		rimp2
AUX_BASIS	rimp2-cc-pvtz
SOLVENT_METHOD	PCM
PURECART	11111
SYMMETRY	false
MEM_TOTAL	110000
SCF_CONVERGENCE = 6
THRESH=10
GUI = 2
$end



$solvent
dielectric 4.90
$end
--------------------------------------------------------------
 ----------------------------------------------------------------
             Standard Nuclear Orientation (Angstroms)
    I     Atom           X                Y                Z
 ----------------------------------------------------------------
    1      C      -0.2554590000    -8.5197410000    -0.0937110000
    2      C       0.7990360000    -7.6359670000     0.0838690000
    3      S      -1.7894250000    -7.6517400000    -0.3452600000
    4      C       0.4183600000    -6.2618940000     0.0184110000
    5      H       1.8342940000    -7.9547380000     0.2591690000
    6      C      -0.9877690000    -6.0799850000    -0.2297010000
    7      C      -1.5552600000    -4.7983820000    -0.3026970000
    8      C       1.2949920000    -5.1535420000     0.1964590000
    9      C       0.7264080000    -3.8696260000     0.1276510000
   10      C      -0.6807160000    -3.6889270000    -0.1235440000
   11      O       2.6018520000    -5.4810750000     0.3967060000
   12      O      -2.8681930000    -4.4798710000    -0.5026730000
   13      C      -3.6914950000    -5.3560260000    -1.2629180000
   14      H      -4.6140800000    -4.7904960000    -1.4946040000
   15      H      -3.9741950000    -6.2685130000    -0.6937380000
   16      H      -3.1995590000    -5.6581870000    -2.2127200000
   17      C       3.4907430000    -4.5469990000     0.9970160000
   18      H       4.4166300000    -5.1075640000     1.2266910000
   19      H       3.0739340000    -4.1314730000     1.9395260000
   20      H       3.7467940000    -3.7120850000     0.3092140000
   21      C      -1.0582470000    -2.3143260000    -0.1861330000
   22      S       1.5275990000    -2.2954870000     0.2560100000
   23      C       0.0000000000    -1.4351800000     0.0000000000
   24      H      -2.0922850000    -1.9932110000    -0.3638960000
   25      H      -0.2504350000    -9.6159850000    -0.0903280000
   26      C       0.0000000000     0.0000000000     0.0000000000
   27      S       0.0022330000     0.8994280000     1.5107320000
   28      C       0.0011570000     2.4747490000     0.7276290000
   29      C      -0.0000300000     0.9082230000    -1.0646650000
   30      C      -0.0015450000     2.2970130000    -0.6782870000
   31      C       0.0016240000     0.8418370000    -2.4861500000
   32      C       0.0014940000     2.1066700000    -3.1069160000
   33      S      -0.0018410000     3.3541710000    -1.9657350000
   34      C       0.0061680000     2.3611460000    -4.5599720000
   35      O       0.0091520000     1.4276460000    -5.3502770000
   36      O       0.0094050000     3.6443370000    -5.0043750000
   37      F       0.0055390000    -0.2722880000    -3.2462900000
   38      C       0.0195540000     4.0030380000    -6.3349760000
   39      H       0.0201550000     5.1080000000    -6.3702680000
   40      H      -0.8714090000     3.6136810000    -6.8756090000
   41      H       0.9184700000     3.6130620000    -6.8618780000
   42      H       0.0012220000     3.3947710000     1.3215100000
 ----------------------------------------------------------------
 Nuclear Repulsion Energy =        3295.74649747 hartrees
 There are      119 alpha and      119 beta electrons
 Requested basis set is cc-pVTZ
 There are 376 shells and 1068 basis functions

 Total QAlloc Memory Limit 110000 MB
 Mega-Array Size       188 MB
 MEM_STATIC part       192 MB
 Discretize the solute cavity surface with Lebedev spheres
	Using 110 Lebedev grid points for each H atom
	Using 194 Lebedev grid points for other atoms
	Atomic van der Waals radii will be scaled by 1.20
 Remove points where switching function is < 1.0e-08
 Keep 2943 surface tesserae and discard 4113 interior tesserae
 Molecular Surface Area = 444.427 Angst**2
 Requested basis set is rimp2-cc-pVTZ
 There are 833 shells and 2903 basis functions
 A cutoff of  1.0D-10 yielded  31000 shell pairs
 There are    238278 function pairs (    309461 Cartesian)
 Smallest overlap matrix eigenvalue = 2.23E-05

 Scale SEOQF with 1.000000e-01/1.000000e-02/1.000000e-02

 Standard Electronic Orientation quadrupole field applied
 Nucleus-field energy     =     0.0000000361 hartrees
 Guess from superposition of atomic densities
 Warning:  Energy on first SCF cycle will be non-variational
 SAD guess density has 238.000000 electrons

 -----------------------------------------------------------------------
  General SCF calculation program by
  Eric Jon Sundstrom, Paul Horn, Yuezhi Mao, Dmitri Zuev, Alec White,
  David Stuck, Shaama M.S., Shane Yost, Joonho Lee, David Small,
  Daniel Levine, Susi Lehtola, Hugh Burton, Evgeny Epifanovsky,
  Bang C. Huynh
 -----------------------------------------------------------------------
 Hartree-Fock
 using 64 threads for integral computing
 -------------------------------------------------------
 OpenMP Integral computing Module                
 Release: version 1.0, May 2013, Q-Chem Inc. Pittsburgh 
 -------------------------------------------------------
 A restricted SCF calculation will be
 performed using DIIS
 SCF converges when DIIS error is below 1.0e-06
 ---------------------------------------
  Cycle       Energy         DIIS error
 ---------------------------------------
    1   -2765.5192052707      1.77e-02  
    2   -2753.8590987318      1.57e-03  
    3   -2754.1980772870      8.82e-04  
    4   -2754.2821396903      2.54e-04  
    5   -2754.2937358203      6.82e-05  
    6   -2754.2948020107      2.37e-05  
    7   -2754.2950363046      1.16e-05  
    8   -2754.2951135288      4.50e-06  
    9   -2754.2951294152      2.12e-06  
   10   -2754.2951318423      8.71e-07  Convergence criterion met
 ---------------------------------------
 SCF time:   CPU 6465.58s  wall 245.00s 

************** Final PCM Free Energy Summary **************
 G_electrostatic  =      -0.01996016 hartree =     -12.52518799 kcal/mol
 G_cavitation     =       0.00000000 hartree =       0.00000000 kcal/mol
 G_dispersion     =       0.00000000 hartree =       0.00000000 kcal/mol
 G_repulsion      =       0.00000000 hartree =       0.00000000 kcal/mol
 --------------------------------------------------
 Non-electrostatic Free Energy =       0.00000000 hartree =       0.00000000 kcal/mol
 Total                         =      -0.01996016 hartree =     -12.52518799 kcal/mol
 --------------------------------------------------
 SCF Energy (H0 + V/2)                       =   -2754.29513184 
 Solute Internal Energy (H0)                 =   -2754.27517168 
 Total Free Energy (H0 + V/2 + non-elec)     =   -2754.29513184 hartree
                                             = -1728346.28116022 kcal/mol
***********************************************************

 SCF   energy in the final basis set =    -2754.2951318423
 Total energy in the final basis set =    -2754.2951318423


 --------------------------------------------------------------
  Generalized many-body perturbation theory program
  by Joonho Lee, Fazle Rob, Xintian Feng, Evgeny Epifanovsky

 No regularization used 
 (reg. param. = 0.0000e+00)
  (P|Q)^-1/2 Time:  CPU 222.33 s  wall 3.57 s

 In RI-MP2 calculation: 
 # of frozen core orbitals: 45

 Components of the RIMP2 correlation energy:
        aaaa    correlation energy =        -0.6702684658 a.u.
        abab    correlation energy =        -3.7114859679 a.u.
        bbbb    correlation energy =        -0.6702684658 a.u.
        non-Brillouin singles      =        -0.0000000000 a.u.
        total same-spin energy     =        -1.3405369315 a.u.
        total opposite-spin energy =        -3.7114859679 a.u.

 Total  RIMP2   correlation energy =        -5.0520228994 a.u.
        RIMP2         total energy =     -2759.3471547417 a.u.

 RI-MP2 Energy Time:  CPU 2845.24 s  wall 47.89 s
 
 --------------------------------------------------------------
 
                    Orbital Energies (a.u.)
 --------------------------------------------------------------
 
 Alpha MOs
 -- Occupied --
-92.0159 -91.9941 -91.9901 -91.9867 -26.3337 -20.6119 -20.5926 -20.5919
-20.5499 -11.4101 -11.3770 -11.3194 -11.3191 -11.3096 -11.2970 -11.2957
-11.2932 -11.2931 -11.2883 -11.2873 -11.2869 -11.2861 -11.2843 -11.2826
-11.2805 -11.2611 -11.2599 -11.2598 -11.2502  -9.0141  -8.9981  -8.9905
 -8.9866  -6.6947  -6.6942  -6.6937  -6.6794  -6.6788  -6.6774  -6.6714
 -6.6707  -6.6697  -6.6676  -6.6670  -6.6661  -1.6465  -1.4717  -1.4167
 -1.4147  -1.3669  -1.2327  -1.1962  -1.1683  -1.1415  -1.0840  -1.0524
 -1.0471  -1.0273  -1.0026  -0.9933  -0.9710  -0.9615  -0.9506  -0.9383
 -0.8961  -0.8688  -0.8509  -0.8044  -0.7909  -0.7883  -0.7735  -0.7691
 -0.7585  -0.7330  -0.7179  -0.7148  -0.7016  -0.6886  -0.6833  -0.6783
 -0.6707  -0.6603  -0.6593  -0.6528  -0.6310  -0.6203  -0.6172  -0.6062
 -0.6019  -0.5940  -0.5827  -0.5797  -0.5676  -0.5646  -0.5561  -0.5515
 -0.5356  -0.5259  -0.5241  -0.5162  -0.5148  -0.5079  -0.5014  -0.4934
 -0.4913  -0.4837  -0.4766  -0.4686  -0.4617  -0.4610  -0.4607  -0.4064
 -0.4002  -0.3878  -0.3581  -0.3483  -0.3150  -0.2892  -0.2594
 -- Virtual --
  0.0298   0.0612   0.1148   0.1259   0.1368   0.1405   0.1498   0.1555
  0.1559   0.1604   0.1664   0.1727   0.1806   0.1833   0.1848   0.1930
  0.1951   0.2038   0.2103   0.2199   0.2204   0.2209   0.2244   0.2262
  0.2335   0.2363   0.2409   0.2524   0.2614   0.2675   0.2705   0.2804
  0.2838   0.3089   0.3201   0.3277   0.3329   0.3368   0.3398   0.3465
  0.3520   0.3595   0.3681   0.3706   0.3751   0.3806   0.3823   0.3854
  0.3888   0.3919   0.3944   0.4042   0.4067   0.4108   0.4173   0.4215
  0.4259   0.4297   0.4343   0.4408   0.4463   0.4495   0.4534   0.4553
  0.4575   0.4615   0.4661   0.4708   0.4775   0.4776   0.4808   0.4883
  0.4940   0.4968   0.5001   0.5105   0.5133   0.5151   0.5183   0.5196
  0.5251   0.5348   0.5393   0.5451   0.5464   0.5470   0.5493   0.5552
  0.5558   0.5592   0.5670   0.5678   0.5693   0.5751   0.5784   0.5815
  0.5842   0.5898   0.5921   0.5958   0.5986   0.6017   0.6065   0.6076
  0.6157   0.6182   0.6188   0.6240   0.6244   0.6278   0.6293   0.6374
  0.6390   0.6405   0.6445   0.6472   0.6538   0.6556   0.6608   0.6634
  0.6725   0.6769   0.6801   0.6862   0.6890   0.6921   0.6967   0.6998
  0.7065   0.7121   0.7167   0.7197   0.7259   0.7439   0.7453   0.7507
  0.7548   0.7672   0.7698   0.7745   0.7793   0.7893   0.7925   0.7993
  0.8030   0.8119   0.8151   0.8174   0.8211   0.8256   0.8301   0.8377
  0.8489   0.8555   0.8611   0.8668   0.8769   0.8845   0.8870   0.8960
  0.8988   0.9014   0.9037   0.9101   0.9137   0.9194   0.9224   0.9259
  0.9300   0.9353   0.9404   0.9450   0.9519   0.9602   0.9620   0.9668
  0.9697   0.9749   0.9803   0.9834   0.9924   0.9962   0.9973   1.0027
  1.0060   1.0098   1.0115   1.0161   1.0217   1.0244   1.0288   1.0379
  1.0437   1.0521   1.0539   1.0588   1.0665   1.0690   1.0744   1.0760
  1.0783   1.0857   1.0879   1.0919   1.0940   1.1013   1.1060   1.1116
  1.1130   1.1297   1.1336   1.1408   1.1435   1.1467   1.1547   1.1578
  1.1636   1.1697   1.1767   1.1806   1.1821   1.1827   1.1896   1.1901
  1.1973   1.2056   1.2085   1.2141   1.2160   1.2214   1.2241   1.2317
  1.2334   1.2441   1.2478   1.2533   1.2591   1.2682   1.2700   1.2745
  1.2785   1.2808   1.2915   1.2968   1.3071   1.3138   1.3148   1.3194
  1.3288   1.3292   1.3391   1.3457   1.3512   1.3569   1.3594   1.3719
  1.3737   1.3838   1.3922   1.3956   1.4082   1.4107   1.4163   1.4212
  1.4317   1.4360   1.4468   1.4639   1.4678   1.4769   1.4869   1.4899
  1.4921   1.4986   1.5013   1.5027   1.5087   1.5129   1.5241   1.5289
  1.5307   1.5366   1.5433   1.5467   1.5474   1.5555   1.5624   1.5676
  1.5759   1.5784   1.5873   1.5967   1.6014   1.6160   1.6235   1.6322
  1.6434   1.6460   1.6557   1.6584   1.6629   1.6673   1.6764   1.6795
  1.6840   1.6960   1.6995   1.7082   1.7277   1.7338   1.7364   1.7511
  1.7583   1.7705   1.7772   1.7840   1.7886   1.8012   1.8108   1.8175
  1.8281   1.8329   1.8373   1.8458   1.8571   1.8621   1.8664   1.8713
  1.8759   1.8826   1.8970   1.9105   1.9153   1.9220   1.9312   1.9339
  1.9405   1.9433   1.9500   1.9605   1.9658   1.9710   1.9760   1.9877
  2.0051   2.0125   2.0199   2.0314   2.0359   2.0415   2.0492   2.0553
  2.0652   2.0884   2.0943   2.0983   2.1093   2.1279   2.1332   2.1400
  2.1487   2.1564   2.1598   2.1677   2.1707   2.1778   2.1868   2.1940
  2.1973   2.2036   2.2094   2.2178   2.2222   2.2298   2.2351   2.2415
  2.2515   2.2541   2.2648   2.2705   2.2757   2.2790   2.2845   2.3068
  2.3093   2.3139   2.3195   2.3210   2.3328   2.3452   2.3521   2.3602
  2.3681   2.3835   2.3847   2.3979   2.4011   2.4184   2.4279   2.4281
  2.4339   2.4382   2.4519   2.4603   2.4735   2.4781   2.4846   2.4960
  2.5016   2.5252   2.5286   2.5322   2.5340   2.5493   2.5653   2.5705
  2.5772   2.5788   2.5837   2.5956   2.6036   2.6137   2.6173   2.6253
  2.6289   2.6356   2.6391   2.6476   2.6530   2.6600   2.6645   2.6743
  2.6791   2.6907   2.6938   2.6964   2.7004   2.7017   2.7049   2.7229
  2.7254   2.7322   2.7360   2.7394   2.7411   2.7464   2.7566   2.7630
  2.7743   2.7849   2.7909   2.7986   2.8020   2.8098   2.8143   2.8171
  2.8268   2.8356   2.8400   2.8471   2.8527   2.8616   2.8663   2.8738
  2.8772   2.8822   2.8868   2.8998   2.9029   2.9177   2.9274   2.9374
  2.9492   2.9526   2.9667   2.9757   2.9798   2.9858   2.9912   3.0046
  3.0071   3.0128   3.0183   3.0316   3.0345   3.0403   3.0434   3.0438
  3.0535   3.0653   3.0701   3.0812   3.0905   3.0947   3.1020   3.1037
  3.1058   3.1149   3.1187   3.1271   3.1291   3.1361   3.1493   3.1542
  3.1547   3.1619   3.1647   3.1662   3.1710   3.1776   3.1812   3.1859
  3.1875   3.1960   3.2004   3.2055   3.2114   3.2210   3.2240   3.2270
  3.2321   3.2426   3.2479   3.2514   3.2554   3.2619   3.2667   3.2692
  3.2727   3.2771   3.2829   3.2857   3.2884   3.2935   3.2967   3.2987
  3.3099   3.3133   3.3245   3.3309   3.3323   3.3363   3.3431   3.3466
  3.3484   3.3541   3.3570   3.3579   3.3621   3.3676   3.3716   3.3747
  3.3813   3.3889   3.3897   3.3936   3.3999   3.4085   3.4143   3.4182
  3.4192   3.4273   3.4337   3.4362   3.4438   3.4493   3.4504   3.4513
  3.4561   3.4597   3.4661   3.4698   3.4751   3.4833   3.4889   3.4963
  3.5058   3.5103   3.5166   3.5216   3.5280   3.5301   3.5310   3.5389
  3.5527   3.5556   3.5615   3.5648   3.5679   3.5730   3.5790   3.5827
  3.5870   3.5899   3.5927   3.5995   3.6022   3.6066   3.6149   3.6252
  3.6292   3.6328   3.6427   3.6494   3.6525   3.6547   3.6567   3.6615
  3.6678   3.6722   3.6766   3.6793   3.6836   3.6907   3.6926   3.7013
  3.7061   3.7106   3.7149   3.7195   3.7249   3.7265   3.7290   3.7399
  3.7436   3.7470   3.7512   3.7526   3.7591   3.7715   3.7748   3.7882
  3.7928   3.7967   3.8034   3.8132   3.8176   3.8218   3.8242   3.8344
  3.8370   3.8407   3.8497   3.8548   3.8586   3.8623   3.8693   3.8722
  3.8815   3.8895   3.8958   3.8975   3.9041   3.9111   3.9177   3.9251
  3.9334   3.9371   3.9452   3.9667   3.9678   3.9734   3.9787   3.9844
  3.9951   3.9972   4.0087   4.0140   4.0202   4.0300   4.0312   4.0358
  4.0474   4.0542   4.0601   4.0719   4.0804   4.0825   4.0844   4.0931
  4.1031   4.1093   4.1173   4.1239   4.1308   4.1439   4.1453   4.1547
  4.1634   4.1689   4.1722   4.1831   4.1880   4.1908   4.1930   4.1994
  4.2054   4.2086   4.2308   4.2351   4.2377   4.2536   4.2692   4.2769
  4.2825   4.2967   4.3075   4.3116   4.3205   4.3302   4.3425   4.3481
  4.3518   4.3679   4.3718   4.3760   4.3788   4.3911   4.3942   4.4007
  4.4058   4.4100   4.4112   4.4213   4.4242   4.4380   4.4438   4.4459
  4.4621   4.4669   4.4772   4.4915   4.4937   4.4996   4.5056   4.5064
  4.5287   4.5422   4.5448   4.5517   4.5578   4.5744   4.5803   4.5972
  4.5998   4.6047   4.6217   4.6336   4.6388   4.6401   4.6475   4.6523
  4.6624   4.6659   4.6702   4.6802   4.6818   4.7092   4.7148   4.7295
  4.7352   4.7426   4.7569   4.7630   4.7789   4.7914   4.8087   4.8130
  4.8187   4.8247   4.8329   4.8540   4.8696   4.8983   4.9128   4.9273
  4.9383   4.9461   4.9537   4.9619   4.9722   4.9782   4.9937   4.9993
  5.0106   5.0122   5.0195   5.0436   5.0480   5.0544   5.0697   5.0806
  5.0853   5.1276   5.1528   5.1590   5.1718   5.1786   5.1966   5.2033
  5.2096   5.2139   5.2225   5.2440   5.2561   5.2591   5.2703   5.2964
  5.2993   5.3089   5.3144   5.3329   5.3401   5.3513   5.3554   5.3674
  5.3705   5.3933   5.3972   5.3987   5.4252   5.4463   5.4590   5.4634
  5.4732   5.4805   5.4977   5.5064   5.5129   5.5214   5.5520   5.5610
  5.5732   5.5835   5.5937   5.6057   5.6179   5.6350   5.6384   5.6953
  5.7125   5.7377   5.7848   5.8010   5.8144   5.8273   5.8536   5.8592
  5.8725   5.8820   5.9211   5.9699   5.9743   5.9802   6.0002   6.0572
  6.0645   6.0856   6.1248   6.1338   6.1707   6.1757   6.1810   6.1860
  6.2323   6.2450   6.2674   6.2773   6.2893   6.3088   6.3188   6.3798
  6.4390   6.4477   6.4887   6.5202   6.5475   6.5551   6.5566   6.6516
  6.6692   6.6770   6.7070   6.7362   6.7427   6.7995   6.8406   6.8606
  6.8830   6.8916   6.9918   7.1192   7.1374   7.1786   7.2114   7.2153
  7.2331   7.3189   7.3267   7.3316   7.3737   7.3768   7.4281   7.4627
  7.4785   7.4870   7.4886   7.5204   7.5497   7.6101   7.7161   7.7710
  7.7965   7.8315   7.9063   7.9202   7.9475   8.0020   8.0999   8.1751
  8.6074   8.9286   9.0094   9.3637   9.4999   9.6914  10.2043  10.7324
 11.2367  11.5348  11.9156  11.9634  12.1253  12.1953  12.3074  12.5791
 12.7011  12.7427  12.9286  13.2249  13.2831  13.5706  13.8449  13.8989
 13.9240  14.0194  14.1820  14.5067  15.1930
 --------------------------------------------------------------
 
          Ground-State Mulliken Net Atomic Charges

     Atom                 Charge (a.u.)
  ----------------------------------------
      1 C                    -0.186763
      2 C                    -0.254410
      3 S                    -0.021259
      4 C                    -0.012778
      5 H                     0.196563
      6 C                    -0.027709
      7 C                     0.246795
      8 C                     0.239443
      9 C                    -0.048666
     10 C                    -0.031762
     11 O                    -0.333089
     12 O                    -0.339877
     13 C                    -0.085658
     14 H                     0.122808
     15 H                     0.090840
     16 H                     0.094806
     17 C                    -0.086397
     18 H                     0.124836
     19 H                     0.094167
     20 H                     0.090203
     21 C                    -0.210750
     22 S                     0.002658
     23 C                    -0.048665
     24 H                     0.196908
     25 H                     0.206711
     26 C                    -0.026175
     27 S                     0.118902
     28 C                    -0.239758
     29 C                    -0.087576
     30 C                    -0.006372
     31 C                     0.397473
     32 C                    -0.158891
     33 S                     0.036400
     34 C                     0.460773
     35 O                    -0.450316
     36 O                    -0.297774
     37 F                    -0.211159
     38 C                    -0.055005
     39 H                     0.116537
     40 H                     0.084513
     41 H                     0.084518
     42 H                     0.214955
  ----------------------------------------
  Sum of atomic charges =     0.000000

 -----------------------------------------------------------------
                    Cartesian Multipole Moments
 -----------------------------------------------------------------
    Charge (ESU x 10^10)
                -0.0000
    Dipole Moment (Debye)
         X       0.0664      Y       1.4261      Z       3.0360
       Tot       3.3550
    Quadrupole Moments (Debye-Ang)
        XX    -180.3473     XY       0.3812     YY    -157.9616
        XZ       9.2078     YZ      -9.0706     ZZ    -202.7454
    Octopole Moments (Debye-Ang^2)
       XXX      39.2986    XXY     286.3411    XYY       4.9055
       YYY     880.0913    XXZ     178.8763    XYZ     -46.6730
       YYZ     122.7209    XZZ      11.5032    YZZ     490.1973
       ZZZ     573.3610
    Hexadecapole Moments (Debye-Ang^3)
      XXXX   -2237.7838   XXXY    -467.7146   XXYY   -3744.9577
      XYYY    -419.3775   YYYY  -18565.3943   XXXZ    -144.6083
      XXYZ     460.3213   XYYZ     141.1668   YYYZ    1121.4722
      XXZZ   -1363.3373   XYZZ    -152.6320   YYZZ   -4211.7346
      XZZZ    -272.7726   YZZZ     556.0064   ZZZZ   -5686.0276
 -----------------------------------------------------------------
 Total job time:  318.63s(wall), 9612.65s(cpu) 
 Sun Sep 24 17:07:40 2023

        *************************************************************
        *                                                           *
        *  Thank you very much for using Q-Chem.  Have a nice day.  *
        *                                                           *
        *************************************************************


0 sent ACK to 0 
now end server 0 ... 
cleanup process ... done
remove work dirs ./qchem40326.0 -- ./qchem40326.0
rm -rf ./qchem40326.0
rm -rf ./qchem40326
