You are running Q-Chem version: 5.4.0

#
# job setting
#
local host:  exp-8-26
current dir: /expanse/lustre/projects/csd626/rramji/aromodel/PTB7_fin/Rotation_Test
input file:  fin_bdt_Phi_5_Theta_280_fin_ftt.qcin
output file: 
nprocs     : 1
nthreads   : 64
#
# qchem installation setting
#
QC:          /cm/shared/apps/spack/cpu/opt/spack/linux-centos8-zen2/gcc-10.2.0/qchem-5.4-akfmr7b3t57bfs6qan3padb2wnb2i7cl
QCAUX:       /cm/shared/apps/spack/cpu/opt/spack/linux-centos8-zen2/gcc-10.2.0/qchem-5.4-akfmr7b3t57bfs6qan3padb2wnb2i7cl/qcaux
QCPROG:      /cm/shared/apps/spack/cpu/opt/spack/linux-centos8-zen2/gcc-10.2.0/qchem-5.4-akfmr7b3t57bfs6qan3padb2wnb2i7cl/exe/qcprog.exe
QCPROG_S:    /cm/shared/apps/spack/cpu/opt/spack/linux-centos8-zen2/gcc-10.2.0/qchem-5.4-akfmr7b3t57bfs6qan3padb2wnb2i7cl/exe/qcprog.exe_s
PARALLEL:    -DPARALLEL
QCMPI:       mpich
#
# qchem directory setting
#
qcrun:       qchem1206598
QCSCRATCH:   .
QCLOCALSCR:  
QCTMPDIR:    .
QCFILEPREF:  ./qchem1206598
QCSAVEDIR:   
workdirs:    ./qchem1206598
workdir0:    ./qchem1206598
partmpdirs =  
#
# parallel setting
#
QCRSH:           ssh
QCMPI:           mpich
QCMPIRUN:        /cm/shared/apps/spack/cpu/opt/spack/linux-centos8-zen2/gcc-10.2.0/qchem-5.4-akfmr7b3t57bfs6qan3padb2wnb2i7cl/bin/mpi/mpirun_qchem
QCMACHINEFILE:   ./qchem1206598/hostfile
exp-8-26

#
# env setting
#
exported envs:   QC QCAUX QCSCRATCH QCRUNNAME QCFILEPREF QCPROG QCPROG_S GUIFILE

Running Job 1 of 1 fin_bdt_Phi_5_Theta_280_fin_ftt.qcin
qchem fin_bdt_Phi_5_Theta_280_fin_ftt.qcin_1206598.0 ./qchem1206598/ 1
/cm/shared/apps/spack/cpu/opt/spack/linux-centos8-zen2/gcc-10.2.0/qchem-5.4-akfmr7b3t57bfs6qan3padb2wnb2i7cl/bin/mpi/mpirun_qchem -machinefile ./qchem1206598/hostfile -np 1 /cm/shared/apps/spack/cpu/opt/spack/linux-centos8-zen2/gcc-10.2.0/qchem-5.4-akfmr7b3t57bfs6qan3padb2wnb2i7cl/exe/qcprog.exe fin_bdt_Phi_5_Theta_280_fin_ftt.qcin_1206598.0 ./qchem1206598/

Process 0 of 1 is on exp-8-26 - thread support 0
initial socket setup ...start
initial socket setup ...done 
now start server 0 ... 
                  Welcome to Q-Chem
     A Quantum Leap Into The Future Of Chemistry


 Q-Chem 5.4, Q-Chem, Inc., Pleasanton, CA (2021)

 License issued to: University of California, San Diego (site)

 E. Epifanovsky,  A. T. B. Gilbert,  Xintian Feng,  Joonho Lee,  Yuezhi Mao,  
 N. Mardirossian,  P. Pokhilko,  A. White,  M. Wormit,  M. P. Coons,  
 A. L. Dempwolff,  Zhengting Gan,  D. Hait,  P. R. Horn,  L. D. Jacobson,  
 I. Kaliman,  J. Kussmann,  A. W. Lange,  Ka Un Lao,  D. S. Levine,  Jie Liu,  
 S. C. McKenzie,  A. F. Morrison,  K. Nanda,  F. Plasser,  D. R. Rehn,  
 M. L. Vidal,  Zhi-Qiang You,  Ying Zhu,  B. Alam,  B. Albrecht,  
 A. Aldossary,  E. Alguire,  J. H. Andersen,  D. Barton,  K. Begam,  A. Behn,  
 Y. A. Bernard,  E. J. Berquist,  H. Burton,  A. Carreras,  K. Carter-Fenk,  
 R. Chakraborty,  A. D. Chien,  K. D. Closser,  V. Cofer-Shabica,  
 S. Dasgupta,  Jia Deng,  M. de Wergifosse,  M. Diedenhofen,  Hainam Do,  
 S. Ehlert,  Po-Tung Fang,  S. Fatehi,  Qingguo Feng,  J. Gayvert,  
 Qinghui Ge,  G. Gidofalvi,  M. Goldey,  J. Gomes,  C. Gonzalez-Espinoza,  
 S. Gulania,  A. Gunina,  M. W. D. Hanson-Heine,  P. H. P. Harbach,  
 A. W. Hauser,  M. F. Herbst,  M. Hernandez Vera,  M. Hodecker,  
 Z. C. Holden,  S. Houck,  Xunkun Huang,  Kerwin Hui,  B. C. Huynh,  
 M. Ivanov,  Hyunjun Ji,  Hanjie Jiang,  B. Kaduk,  S. Kaehler,  
 K. Khistyaev,  Jaehoon Kim,  P. Klunzinger,  Z. Koczor-Benda,  
 Joong Hoon Koh,  D. Kosenkov,  L. Koulias,  T. Kowalczyk,  C. M. Krauter,  
 K. Kue,  A. Kunitsa,  T. Kus,  A. Landau,  K. V. Lawler,  D. Lefrancois,  
 S. Lehtola,  Rain Li,  Yi-Pei Li,  Jiashu Liang,  M. Liebenthal,  
 Hung-Hsuan Lin,  You-Sheng Lin,  Fenglai Liu,  Kuan-Yu Liu,  
 M. Loipersberger,  A. Luenser,  A. Manjanath,  P. Manohar,  E. Mansoor,  
 S. F. Manzer,  Shan-Ping Mao,  A. V. Marenich,  T. Markovich,  S. Mason,  
 S. A. Maurer,  P. F. McLaughlin,  M. F. S. J. Menger,  J.-M. Mewes,  
 S. A. Mewes,  P. Morgante,  J. W. Mullinax,  T. S. Nguyen-Beck,  
 K. J. Oosterbaan,  G. Paran,  Alexander C. Paul,  Suranjan K. Paul,  
 F. Pavosevic,  Zheng Pei,  S. Prager,  E. I. Proynov,  E. Ramos,  B. Rana,  
 A. E. Rask,  A. Rettig,  R. M. Richard,  F. Rob,  E. Rossomme,  T. Scheele,  
 M. Scheurer,  M. Schneider,  N. Sergueev,  S. M. Sharada,  W. Skomorowski,  
 D. W. Small,  C. J. Stein,  Yu-Chuan Su,  E. J. Sundstrom,  Zhen Tao,  
 J. Thirman,  T. Tsuchimochi,  N. M. Tubman,  S. P. Veccham,  O. Vydrov,  
 J. Wenzel,  J. Witte,  A. Yamada,  Kun Yao,  S. Yeganeh,  S. R. Yost,  
 A. Zech,  Igor Ying Zhang,  Xing Zhang,  Yu Zhang,  D. Zuev,  
 A. Aspuru-Guzik,  A. T. Bell,  N. A. Besley,  K. B. Bravaya,  B. R. Brooks,  
 D. Casanova,  Jeng-Da Chai,  S. Coriani,  C. J. Cramer,  
 A. E. DePrince, III,  R. A. DiStasio Jr.,  A. Dreuw,  B. D. Dunietz,  
 T. R. Furlani,  W. A. Goddard III,  S. Grimme,  S. Hammes-Schiffer,  
 T. Head-Gordon,  W. J. Hehre,  Chao-Ping Hsu,  T.-C. Jagau,  Yousung Jung,  
 A. Klamt,  Jing Kong,  D. S. Lambrecht,  WanZhen Liang,  N. J. Mayhall,  
 C. W. McCurdy,  J. B. Neaton,  C. Ochsenfeld,  J. A. Parkhill,  R. Peverati,  
 V. A. Rassolov,  Yihan Shao,  L. V. Slipchenko,  T. Stauch,  R. P. Steele,  
 J. E. Subotnik,  A. J. W. Thom,  A. Tkatchenko,  D. G. Truhlar,  
 T. Van Voorhis,  T. A. Wesolowski,  K. B. Whaley,  H. L. Woodcock III,  
 P. M. Zimmerman,  S. Faraji,  P. M. W. Gill,  M. Head-Gordon,  
 J. M. Herbert,  A. I. Krylov

 Contributors to earlier versions of Q-Chem not listed above: 
 R. D. Adamson,  B. Austin,  R. Baer,  J. Baker,  G. J. O. Beran,  
 K. Brandhorst,  S. T. Brown,  E. F. C. Byrd,  A. K. Chakraborty,  
 G. K. L. Chan,  Chun-Min Chang,  Yunqing Chen,  C.-L. Cheng,  
 Siu Hung Chien,  D. M. Chipman,  D. L. Crittenden,  H. Dachsel,  
 R. J. Doerksen,  A. D. Dutoi,  R. G. Edgar,  J. Fosso-Tande,  
 L. Fusti-Molnar,  D. Ghosh,  A. Ghysels,  A. Golubeva-Zadorozhnaya,  
 J. Gonthier,  M. S. Gordon,  S. R. Gwaltney,  G. Hawkins,  J. E. Herr,  
 A. Heyden,  S. Hirata,  E. G. Hohenstein,  G. Kedziora,  F. J. Keil,  
 C. Kelley,  Jihan Kim,  R. A. King,  R. Z. Khaliullin,  P. P. Korambath,  
 W. Kurlancheek,  A. Laurent,  A. M. Lee,  M. S. Lee,  S. V. Levchenko,  
 Ching Yeh Lin,  D. Liotard,  E. Livshits,  R. C. Lochan,  I. Lotan,  
 L. A. Martinez-Martinez,  P. E. Maslen,  N. Nair,  D. P. O'Neill,  
 D. Neuhauser,  E. Neuscamman,  C. M. Oana,  R. Olivares-Amaya,  R. Olson,  
 T. M. Perrine,  B. Peters,  P. A. Pieniazek,  A. Prociuk,  Y. M. Rhee,  
 J. Ritchie,  M. A. Rohrdanz,  E. Rosta,  N. J. Russ,  H. F. Schaefer III,  
 M. W. Schmidt,  N. E. Schultz,  S. Sharma,  N. Shenvi,  C. D. Sherrill,  
 A. C. Simmonett,  A. Sodt,  T. Stein,  D. Stuck,  K. S. Thanthiriwatte,  
 V. Vanovschi,  L. Vogt,  Tao Wang,  A. Warshel,  M. A. Watson,  
 C. F. Williams,  Q. Wu,  X. Xu,  Jun Yang,  W. Zhang,  Yan Zhao

 Please cite Q-Chem as follows:
 Y. Shao et al., Mol. Phys. 113, 184-215 (2015)
 DOI: 10.1080/00268976.2014.952696

 Q-Chem 5.4.0 for Intel X86 EM64T Linux

 Parts of Q-Chem use Armadillo 9.800.1 (Horizon Scraper).
 http://arma.sourceforge.net/

 Q-Chem begins on Tue Sep 26 19:40:14 2023  

 Host: 
0

     Scratch files written to ./qchem1206598//
 May1621 |scratch|qcdevops|jenkins|workspace|build_RNUM    
 Parallel job on  1  processors
 Processing $rem in /cm/shared/apps/spack/cpu/opt/spack/linux-centos8-zen2/gcc-10.2.0/qchem-5.4-akfmr7b3t57bfs6qan3padb2wnb2i7cl/config/preferences:
 Processing $rem in /home/rramji/.qchemrc:
 Symmetry turned off for PCM/SM12/SMD calculation
 Core orbitals will be frozen

 Checking the input file for inconsistencies... 	...done.

 Q-Chem warning in module forms1/BasisType.C, line 2236:

 You are not using the predefined 5D/6D in this basis set.


--------------------------------------------------------------
User input:
--------------------------------------------------------------
$molecule
0 1
C	0.255459	-8.519741	0.093711
C	-0.799036	-7.635967	-0.083869
S	1.789425	-7.651740	0.345260
C	-0.418360	-6.261894	-0.018411
H	-1.834294	-7.954738	-0.259169
C	0.987769	-6.079985	0.229701
C	1.555260	-4.798382	0.302697
C	-1.294992	-5.153542	-0.196459
C	-0.726408	-3.869626	-0.127651
C	0.680716	-3.688927	0.123544
O	-2.601852	-5.481075	-0.396706
O	2.868193	-4.479871	0.502673
C	3.691495	-5.356026	1.262918
H	4.614080	-4.790496	1.494604
H	3.974195	-6.268513	0.693738
H	3.199559	-5.658187	2.212720
C	-3.490743	-4.546999	-0.997016
H	-4.416630	-5.107564	-1.226691
H	-3.073934	-4.131473	-1.939526
H	-3.746794	-3.712085	-0.309214
C	1.058247	-2.314326	0.186133
S	-1.527599	-2.295487	-0.256010
C	0.000000	-1.435180	0.000000
H	2.092285	-1.993211	0.363896
H	0.250435	-9.615985	0.090328
C	0.000000	0.000000	0.000000
S	0.080615	0.895811	1.510732
C	0.216842	2.465231	0.727629
C	0.079127	0.904769	-1.064665
C	0.198659	2.288406	-0.678287
C	0.074988	0.838492	-2.486150
C	0.185097	2.098524	-3.106916
S	0.290501	3.341568	-1.965735
C	0.211932	2.351623	-4.559972
O	0.133545	1.421416	-5.350277
O	0.326994	3.629649	-5.004375
F	-0.018214	-0.271734	-3.246290
C	0.368367	3.986101	-6.334976
H	0.465270	5.086806	-6.370268
H	-0.553140	3.675878	-6.875609
H	1.229874	3.519263	-6.861878
H	0.297091	3.381746	1.321510
$end

$rem
JOBTYPE		SP
EXCHANGE	HF
CORRELATION	pRIMP2
BASIS		cc-pvtz
METHOD		rimp2
AUX_BASIS	rimp2-cc-pvtz
SOLVENT_METHOD	PCM
PURECART	11111
SYMMETRY	false
MEM_TOTAL	110000
SCF_CONVERGENCE = 6
THRESH=10
GUI = 2
$end



$solvent
dielectric 4.90
$end
--------------------------------------------------------------
 ----------------------------------------------------------------
             Standard Nuclear Orientation (Angstroms)
    I     Atom           X                Y                Z
 ----------------------------------------------------------------
    1      C       0.2554590000    -8.5197410000     0.0937110000
    2      C      -0.7990360000    -7.6359670000    -0.0838690000
    3      S       1.7894250000    -7.6517400000     0.3452600000
    4      C      -0.4183600000    -6.2618940000    -0.0184110000
    5      H      -1.8342940000    -7.9547380000    -0.2591690000
    6      C       0.9877690000    -6.0799850000     0.2297010000
    7      C       1.5552600000    -4.7983820000     0.3026970000
    8      C      -1.2949920000    -5.1535420000    -0.1964590000
    9      C      -0.7264080000    -3.8696260000    -0.1276510000
   10      C       0.6807160000    -3.6889270000     0.1235440000
   11      O      -2.6018520000    -5.4810750000    -0.3967060000
   12      O       2.8681930000    -4.4798710000     0.5026730000
   13      C       3.6914950000    -5.3560260000     1.2629180000
   14      H       4.6140800000    -4.7904960000     1.4946040000
   15      H       3.9741950000    -6.2685130000     0.6937380000
   16      H       3.1995590000    -5.6581870000     2.2127200000
   17      C      -3.4907430000    -4.5469990000    -0.9970160000
   18      H      -4.4166300000    -5.1075640000    -1.2266910000
   19      H      -3.0739340000    -4.1314730000    -1.9395260000
   20      H      -3.7467940000    -3.7120850000    -0.3092140000
   21      C       1.0582470000    -2.3143260000     0.1861330000
   22      S      -1.5275990000    -2.2954870000    -0.2560100000
   23      C       0.0000000000    -1.4351800000     0.0000000000
   24      H       2.0922850000    -1.9932110000     0.3638960000
   25      H       0.2504350000    -9.6159850000     0.0903280000
   26      C       0.0000000000     0.0000000000     0.0000000000
   27      S       0.0806150000     0.8958110000     1.5107320000
   28      C       0.2168420000     2.4652310000     0.7276290000
   29      C       0.0791270000     0.9047690000    -1.0646650000
   30      C       0.1986590000     2.2884060000    -0.6782870000
   31      C       0.0749880000     0.8384920000    -2.4861500000
   32      C       0.1850970000     2.0985240000    -3.1069160000
   33      S       0.2905010000     3.3415680000    -1.9657350000
   34      C       0.2119320000     2.3516230000    -4.5599720000
   35      O       0.1335450000     1.4214160000    -5.3502770000
   36      O       0.3269940000     3.6296490000    -5.0043750000
   37      F      -0.0182140000    -0.2717340000    -3.2462900000
   38      C       0.3683670000     3.9861010000    -6.3349760000
   39      H       0.4652700000     5.0868060000    -6.3702680000
   40      H      -0.5531400000     3.6758780000    -6.8756090000
   41      H       1.2298740000     3.5192630000    -6.8618780000
   42      H       0.2970910000     3.3817460000     1.3215100000
 ----------------------------------------------------------------
 Nuclear Repulsion Energy =        3295.87661966 hartrees
 There are      119 alpha and      119 beta electrons
 Requested basis set is cc-pVTZ
 There are 376 shells and 1068 basis functions

 Total QAlloc Memory Limit 110000 MB
 Mega-Array Size       188 MB
 MEM_STATIC part       192 MB
 Discretize the solute cavity surface with Lebedev spheres
	Using 110 Lebedev grid points for each H atom
	Using 194 Lebedev grid points for other atoms
	Atomic van der Waals radii will be scaled by 1.20
 Remove points where switching function is < 1.0e-08
 Keep 2951 surface tesserae and discard 4105 interior tesserae
 Molecular Surface Area = 444.364 Angst**2
 Requested basis set is rimp2-cc-pVTZ
 There are 833 shells and 2903 basis functions
 A cutoff of  1.0D-10 yielded  31023 shell pairs
 There are    238351 function pairs (    309600 Cartesian)
 Smallest overlap matrix eigenvalue = 2.22E-05

 Scale SEOQF with 1.000000e-01/1.000000e-02/1.000000e-02

 Standard Electronic Orientation quadrupole field applied
 Nucleus-field energy     =     0.0000000362 hartrees
 Guess from superposition of atomic densities
 Warning:  Energy on first SCF cycle will be non-variational
 SAD guess density has 238.000000 electrons

 -----------------------------------------------------------------------
  General SCF calculation program by
  Eric Jon Sundstrom, Paul Horn, Yuezhi Mao, Dmitri Zuev, Alec White,
  David Stuck, Shaama M.S., Shane Yost, Joonho Lee, David Small,
  Daniel Levine, Susi Lehtola, Hugh Burton, Evgeny Epifanovsky,
  Bang C. Huynh
 -----------------------------------------------------------------------
 Hartree-Fock
 using 64 threads for integral computing
 -------------------------------------------------------
 OpenMP Integral computing Module                
 Release: version 1.0, May 2013, Q-Chem Inc. Pittsburgh 
 -------------------------------------------------------
 A restricted SCF calculation will be
 performed using DIIS
 SCF converges when DIIS error is below 1.0e-06
 ---------------------------------------
  Cycle       Energy         DIIS error
 ---------------------------------------
    1   -2765.5194633215      1.77e-02  
    2   -2753.8588445897      1.57e-03  
    3   -2754.1976515030      8.82e-04  
    4   -2754.2817150389      2.54e-04  
    5   -2754.2933281298      6.82e-05  
    6   -2754.2943962280      2.37e-05  
    7   -2754.2946317485      1.16e-05  
    8   -2754.2947095615      4.53e-06  
    9   -2754.2947257135      2.16e-06  
   10   -2754.2947282289      8.87e-07  Convergence criterion met
 ---------------------------------------
 SCF time:   CPU 6461.68s  wall 235.00s 

************** Final PCM Free Energy Summary **************
 G_electrostatic  =      -0.01999430 hartree =     -12.54661055 kcal/mol
 G_cavitation     =       0.00000000 hartree =       0.00000000 kcal/mol
 G_dispersion     =       0.00000000 hartree =       0.00000000 kcal/mol
 G_repulsion      =       0.00000000 hartree =       0.00000000 kcal/mol
 --------------------------------------------------
 Non-electrostatic Free Energy =       0.00000000 hartree =       0.00000000 kcal/mol
 Total                         =      -0.01999430 hartree =     -12.54661055 kcal/mol
 --------------------------------------------------
 SCF Energy (H0 + V/2)                       =   -2754.29472823 
 Solute Internal Energy (H0)                 =   -2754.27473393 
 Total Free Energy (H0 + V/2 + non-elec)     =   -2754.29472823 hartree
                                             = -1728346.02788899 kcal/mol
***********************************************************

 SCF   energy in the final basis set =    -2754.2947282289
 Total energy in the final basis set =    -2754.2947282289


 --------------------------------------------------------------
  Generalized many-body perturbation theory program
  by Joonho Lee, Fazle Rob, Xintian Feng, Evgeny Epifanovsky

 No regularization used 
 (reg. param. = 0.0000e+00)
  (P|Q)^-1/2 Time:  CPU 124.08 s  wall 2.13 s

 In RI-MP2 calculation: 
 # of frozen core orbitals: 45

 Components of the RIMP2 correlation energy:
        aaaa    correlation energy =        -0.6703531897 a.u.
        abab    correlation energy =        -3.7116731994 a.u.
        bbbb    correlation energy =        -0.6703531897 a.u.
        non-Brillouin singles      =        -0.0000000000 a.u.
        total same-spin energy     =        -1.3407063794 a.u.
        total opposite-spin energy =        -3.7116731994 a.u.

 Total  RIMP2   correlation energy =        -5.0523795787 a.u.
        RIMP2         total energy =     -2759.3471078076 a.u.

 RI-MP2 Energy Time:  CPU 2711.59 s  wall 44.22 s
 
 --------------------------------------------------------------
 
                    Orbital Energies (a.u.)
 --------------------------------------------------------------
 
 Alpha MOs
 -- Occupied --
-92.0164 -91.9943 -91.9896 -91.9867 -26.3338 -20.6119 -20.5923 -20.5921
-20.5499 -11.4101 -11.3770 -11.3193 -11.3190 -11.3094 -11.2970 -11.2959
-11.2935 -11.2932 -11.2883 -11.2868 -11.2867 -11.2865 -11.2842 -11.2826
-11.2804 -11.2612 -11.2599 -11.2598 -11.2502  -9.0145  -8.9983  -8.9900
 -8.9866  -6.6952  -6.6946  -6.6941  -6.6796  -6.6789  -6.6775  -6.6709
 -6.6702  -6.6692  -6.6676  -6.6669  -6.6661  -1.6466  -1.4716  -1.4165
 -1.4148  -1.3669  -1.2328  -1.1962  -1.1682  -1.1415  -1.0841  -1.0523
 -1.0471  -1.0274  -1.0025  -0.9933  -0.9710  -0.9615  -0.9505  -0.9384
 -0.8959  -0.8689  -0.8508  -0.8054  -0.7900  -0.7885  -0.7742  -0.7679
 -0.7585  -0.7329  -0.7179  -0.7149  -0.7014  -0.6885  -0.6834  -0.6783
 -0.6708  -0.6607  -0.6588  -0.6529  -0.6310  -0.6203  -0.6171  -0.6062
 -0.6016  -0.5942  -0.5829  -0.5774  -0.5710  -0.5667  -0.5551  -0.5515
 -0.5336  -0.5264  -0.5241  -0.5166  -0.5144  -0.5075  -0.5013  -0.4934
 -0.4913  -0.4838  -0.4772  -0.4678  -0.4616  -0.4609  -0.4606  -0.4055
 -0.4013  -0.3875  -0.3579  -0.3482  -0.3149  -0.2893  -0.2594
 -- Virtual --
  0.0296   0.0613   0.1162   0.1249   0.1346   0.1420   0.1496   0.1553
  0.1559   0.1598   0.1678   0.1700   0.1815   0.1843   0.1864   0.1915
  0.1954   0.2041   0.2105   0.2194   0.2209   0.2210   0.2244   0.2264
  0.2334   0.2361   0.2422   0.2529   0.2611   0.2666   0.2699   0.2775
  0.2853   0.3087   0.3186   0.3275   0.3338   0.3371   0.3394   0.3470
  0.3527   0.3604   0.3687   0.3721   0.3754   0.3804   0.3833   0.3849
  0.3871   0.3890   0.3993   0.4014   0.4072   0.4099   0.4194   0.4207
  0.4273   0.4319   0.4355   0.4419   0.4460   0.4482   0.4496   0.4532
  0.4580   0.4635   0.4648   0.4701   0.4775   0.4800   0.4827   0.4870
  0.4876   0.5004   0.5022   0.5089   0.5119   0.5170   0.5198   0.5256
  0.5280   0.5320   0.5367   0.5415   0.5459   0.5475   0.5516   0.5533
  0.5571   0.5614   0.5637   0.5659   0.5704   0.5720   0.5775   0.5814
  0.5831   0.5893   0.5905   0.5954   0.5988   0.6010   0.6072   0.6090
  0.6143   0.6162   0.6191   0.6242   0.6257   0.6284   0.6298   0.6331
  0.6387   0.6401   0.6448   0.6479   0.6530   0.6560   0.6613   0.6659
  0.6763   0.6785   0.6825   0.6834   0.6864   0.6957   0.6977   0.7037
  0.7076   0.7136   0.7177   0.7217   0.7238   0.7431   0.7473   0.7512
  0.7589   0.7622   0.7673   0.7723   0.7782   0.7854   0.7923   0.8011
  0.8067   0.8088   0.8098   0.8191   0.8218   0.8260   0.8293   0.8399
  0.8459   0.8526   0.8622   0.8631   0.8810   0.8823   0.8901   0.8908
  0.8987   0.9019   0.9031   0.9122   0.9149   0.9183   0.9216   0.9253
  0.9332   0.9354   0.9424   0.9471   0.9520   0.9532   0.9640   0.9659
  0.9732   0.9778   0.9828   0.9857   0.9910   0.9933   1.0004   1.0035
  1.0053   1.0102   1.0130   1.0155   1.0203   1.0268   1.0354   1.0391
  1.0409   1.0455   1.0500   1.0608   1.0659   1.0712   1.0724   1.0769
  1.0808   1.0839   1.0907   1.0951   1.0992   1.1018   1.1044   1.1071
  1.1160   1.1263   1.1320   1.1393   1.1407   1.1505   1.1524   1.1564
  1.1635   1.1704   1.1732   1.1783   1.1784   1.1861   1.1885   1.1954
  1.1986   1.2043   1.2093   1.2132   1.2153   1.2194   1.2253   1.2333
  1.2345   1.2425   1.2467   1.2552   1.2588   1.2690   1.2699   1.2745
  1.2761   1.2805   1.3008   1.3029   1.3050   1.3113   1.3140   1.3205
  1.3267   1.3298   1.3351   1.3412   1.3521   1.3554   1.3610   1.3677
  1.3751   1.3828   1.3874   1.3977   1.4074   1.4127   1.4149   1.4263
  1.4282   1.4347   1.4458   1.4568   1.4679   1.4747   1.4845   1.4886
  1.4910   1.5011   1.5027   1.5069   1.5122   1.5144   1.5215   1.5296
  1.5316   1.5379   1.5386   1.5407   1.5482   1.5529   1.5602   1.5647
  1.5691   1.5825   1.5875   1.5997   1.6041   1.6165   1.6244   1.6316
  1.6389   1.6544   1.6555   1.6575   1.6638   1.6716   1.6733   1.6805
  1.6891   1.6967   1.7023   1.7099   1.7192   1.7314   1.7412   1.7476
  1.7576   1.7730   1.7744   1.7834   1.7876   1.8095   1.8109   1.8173
  1.8310   1.8331   1.8370   1.8500   1.8520   1.8618   1.8660   1.8707
  1.8759   1.8858   1.8961   1.9051   1.9130   1.9178   1.9236   1.9335
  1.9408   1.9442   1.9459   1.9577   1.9637   1.9737   1.9780   1.9840
  1.9978   2.0084   2.0198   2.0288   2.0356   2.0426   2.0508   2.0589
  2.0828   2.0931   2.0954   2.0992   2.1133   2.1237   2.1371   2.1427
  2.1464   2.1563   2.1626   2.1646   2.1753   2.1798   2.1885   2.1947
  2.1955   2.1997   2.2057   2.2197   2.2237   2.2290   2.2331   2.2373
  2.2527   2.2543   2.2697   2.2725   2.2786   2.2849   2.2969   2.3030
  2.3078   2.3110   2.3222   2.3296   2.3345   2.3471   2.3530   2.3572
  2.3666   2.3842   2.3849   2.3882   2.4028   2.4116   2.4201   2.4284
  2.4345   2.4350   2.4508   2.4595   2.4740   2.4785   2.4848   2.4940
  2.5007   2.5203   2.5254   2.5294   2.5370   2.5529   2.5627   2.5693
  2.5755   2.5819   2.5880   2.5954   2.6033   2.6167   2.6196   2.6233
  2.6276   2.6357   2.6380   2.6423   2.6527   2.6611   2.6713   2.6730
  2.6801   2.6853   2.6925   2.6989   2.7005   2.7021   2.7060   2.7207
  2.7251   2.7300   2.7332   2.7397   2.7459   2.7485   2.7531   2.7583
  2.7745   2.7862   2.7920   2.7968   2.8056   2.8085   2.8147   2.8184
  2.8265   2.8350   2.8402   2.8439   2.8501   2.8586   2.8699   2.8732
  2.8785   2.8851   2.8877   2.8970   2.9026   2.9122   2.9342   2.9393
  2.9460   2.9580   2.9640   2.9760   2.9786   2.9832   2.9891   3.0057
  3.0132   3.0156   3.0231   3.0283   3.0317   3.0389   3.0437   3.0457
  3.0514   3.0623   3.0696   3.0837   3.0892   3.0928   3.1002   3.1053
  3.1109   3.1126   3.1210   3.1236   3.1286   3.1382   3.1441   3.1493
  3.1536   3.1586   3.1639   3.1699   3.1715   3.1765   3.1817   3.1837
  3.1868   3.1947   3.2016   3.2056   3.2102   3.2169   3.2256   3.2270
  3.2316   3.2391   3.2463   3.2508   3.2560   3.2596   3.2641   3.2697
  3.2722   3.2773   3.2811   3.2867   3.2905   3.2935   3.2989   3.3020
  3.3063   3.3188   3.3270   3.3296   3.3340   3.3399   3.3434   3.3444
  3.3515   3.3528   3.3540   3.3605   3.3636   3.3677   3.3703   3.3727
  3.3785   3.3852   3.3897   3.3940   3.4050   3.4085   3.4128   3.4205
  3.4284   3.4311   3.4333   3.4389   3.4405   3.4443   3.4495   3.4554
  3.4609   3.4707   3.4712   3.4722   3.4752   3.4856   3.4886   3.4955
  3.5031   3.5084   3.5142   3.5201   3.5256   3.5294   3.5372   3.5412
  3.5493   3.5532   3.5603   3.5610   3.5726   3.5768   3.5785   3.5810
  3.5824   3.5881   3.5945   3.5960   3.6015   3.6039   3.6123   3.6251
  3.6323   3.6369   3.6380   3.6492   3.6523   3.6552   3.6599   3.6621
  3.6676   3.6719   3.6725   3.6788   3.6891   3.6903   3.6929   3.6991
  3.7060   3.7110   3.7128   3.7213   3.7255   3.7265   3.7305   3.7377
  3.7438   3.7466   3.7521   3.7564   3.7638   3.7710   3.7776   3.7893
  3.7910   3.7975   3.8069   3.8113   3.8169   3.8214   3.8265   3.8309
  3.8365   3.8415   3.8512   3.8531   3.8563   3.8602   3.8680   3.8731
  3.8837   3.8857   3.8908   3.8963   3.9026   3.9172   3.9219   3.9290
  3.9295   3.9393   3.9423   3.9582   3.9686   3.9739   3.9780   3.9889
  3.9912   4.0018   4.0040   4.0154   4.0195   4.0271   4.0317   4.0392
  4.0452   4.0580   4.0612   4.0675   4.0815   4.0843   4.0858   4.0969
  4.1054   4.1061   4.1104   4.1210   4.1241   4.1445   4.1485   4.1517
  4.1625   4.1681   4.1719   4.1798   4.1868   4.1910   4.1957   4.1988
  4.2082   4.2108   4.2264   4.2344   4.2383   4.2577   4.2660   4.2779
  4.2806   4.2963   4.3099   4.3148   4.3245   4.3316   4.3340   4.3482
  4.3537   4.3679   4.3749   4.3773   4.3808   4.3907   4.3934   4.3960
  4.4045   4.4084   4.4109   4.4196   4.4264   4.4345   4.4411   4.4540
  4.4625   4.4677   4.4799   4.4935   4.4981   4.4994   4.5048   4.5083
  4.5289   4.5396   4.5447   4.5539   4.5583   4.5684   4.5826   4.5995
  4.6025   4.6113   4.6152   4.6291   4.6347   4.6391   4.6440   4.6489
  4.6608   4.6680   4.6689   4.6819   4.6883   4.6978   4.7133   4.7292
  4.7372   4.7443   4.7476   4.7736   4.7800   4.7914   4.8052   4.8147
  4.8200   4.8268   4.8436   4.8515   4.8679   4.8988   4.9124   4.9275
  4.9371   4.9469   4.9512   4.9634   4.9685   4.9782   4.9913   5.0014
  5.0120   5.0131   5.0191   5.0400   5.0506   5.0573   5.0695   5.0874
  5.0932   5.1275   5.1531   5.1613   5.1697   5.1779   5.1830   5.2036
  5.2099   5.2141   5.2261   5.2434   5.2570   5.2592   5.2657   5.2920
  5.2973   5.3045   5.3144   5.3364   5.3377   5.3426   5.3554   5.3640
  5.3740   5.3862   5.3986   5.4025   5.4247   5.4380   5.4565   5.4640
  5.4733   5.4816   5.4931   5.5069   5.5121   5.5242   5.5492   5.5608
  5.5729   5.5835   5.5973   5.6057   5.6179   5.6367   5.6393   5.6937
  5.7146   5.7384   5.7887   5.8010   5.8145   5.8280   5.8534   5.8596
  5.8734   5.8854   5.9172   5.9700   5.9734   5.9818   5.9987   6.0524
  6.0666   6.0842   6.1240   6.1338   6.1708   6.1730   6.1771   6.1860
  6.2309   6.2491   6.2681   6.2760   6.2886   6.3088   6.3189   6.3826
  6.4355   6.4465   6.4843   6.5162   6.5482   6.5551   6.5566   6.6509
  6.6731   6.6770   6.7026   6.7360   6.7425   6.7995   6.8392   6.8606
  6.8825   6.8920   6.9918   7.1195   7.1375   7.1786   7.2115   7.2156
  7.2329   7.3189   7.3267   7.3316   7.3737   7.3767   7.4282   7.4628
  7.4789   7.4870   7.4885   7.5202   7.5498   7.6092   7.7155   7.7710
  7.7965   7.8315   7.9054   7.9198   7.9481   8.0022   8.0992   8.1692
  8.6048   8.9286   9.0091   9.3636   9.5001   9.6916  10.2030  10.7310
 11.2348  11.5337  11.9093  11.9546  12.1268  12.2001  12.2997  12.5797
 12.6757  12.7717  12.9338  13.2175  13.2817  13.5727  13.8454  13.9013
 13.9335  14.0180  14.1959  14.4698  15.1931
 --------------------------------------------------------------
 
          Ground-State Mulliken Net Atomic Charges

     Atom                 Charge (a.u.)
  ----------------------------------------
      1 C                    -0.186976
      2 C                    -0.254171
      3 S                    -0.021498
      4 C                    -0.013025
      5 H                     0.196621
      6 C                    -0.028173
      7 C                     0.245658
      8 C                     0.240528
      9 C                    -0.049310
     10 C                    -0.032519
     11 O                    -0.333374
     12 O                    -0.339789
     13 C                    -0.085739
     14 H                     0.122722
     15 H                     0.091383
     16 H                     0.093957
     17 C                    -0.086634
     18 H                     0.124582
     19 H                     0.095926
     20 H                     0.089396
     21 C                    -0.209260
     22 S                     0.003662
     23 C                    -0.041475
     24 H                     0.197772
     25 H                     0.206685
     26 C                    -0.030829
     27 S                     0.120166
     28 C                    -0.240489
     29 C                    -0.091061
     30 C                    -0.006414
     31 C                     0.396592
     32 C                    -0.159346
     33 S                     0.037369
     34 C                     0.460703
     35 O                    -0.450238
     36 O                    -0.297768
     37 F                    -0.210959
     38 C                    -0.055070
     39 H                     0.116515
     40 H                     0.084545
     41 H                     0.084536
     42 H                     0.214799
  ----------------------------------------
  Sum of atomic charges =     0.000000

 -----------------------------------------------------------------
                    Cartesian Multipole Moments
 -----------------------------------------------------------------
    Charge (ESU x 10^10)
                -0.0000
    Dipole Moment (Debye)
         X       0.2286      Y       1.4633      Z       3.5145
       Tot       3.8139
    Quadrupole Moments (Debye-Ang)
        XX    -180.2567     XY       1.1620     YY    -158.2760
        XZ       8.2878     YZ     -12.1589     ZZ    -202.6987
    Octopole Moments (Debye-Ang^2)
       XXX     -86.8741    XXY     287.8315    XYY     -14.3574
       YYY     882.8992    XXZ     175.6567    XYZ     -50.9757
       YYZ     130.9150    XZZ     -16.7171    YZZ     490.5749
       ZZZ     534.5629
    Hexadecapole Moments (Debye-Ang^3)
      XXXX   -2262.0424   XXXY     332.7731   XXYY   -3742.9395
      XYYY     317.7969   YYYY  -18557.6440   XXXZ     -18.0119
      XXYZ     507.4358   XYYZ     162.4476   YYYZ    1324.3362
      XXZZ   -1362.5603   XYZZ     162.6504   YYZZ   -4213.0279
      XZZZ    -209.7528   YZZZ     886.6602   ZZZZ   -5685.3862
 -----------------------------------------------------------------
 Total job time:  282.79s(wall), 9276.21s(cpu) 
 Tue Sep 26 19:44:57 2023

        *************************************************************
        *                                                           *
        *  Thank you very much for using Q-Chem.  Have a nice day.  *
        *                                                           *
        *************************************************************


0 sent ACK to 0 
now end server 0 ... 
cleanup process ... done
remove work dirs ./qchem1206598.0 -- ./qchem1206598.0
rm -rf ./qchem1206598.0
rm -rf ./qchem1206598
