You are running Q-Chem version: 5.4.0

#
# job setting
#
local host:  exp-4-01
current dir: /expanse/lustre/projects/csd626/rramji/aromodel/PTB7_fin/Rotation_Test
input file:  fin_bdt_Phi_40_Theta_210_fin_ftt.qcin
output file: 
nprocs     : 1
nthreads   : 64
#
# qchem installation setting
#
QC:          /cm/shared/apps/spack/cpu/opt/spack/linux-centos8-zen2/gcc-10.2.0/qchem-5.4-akfmr7b3t57bfs6qan3padb2wnb2i7cl
QCAUX:       /cm/shared/apps/spack/cpu/opt/spack/linux-centos8-zen2/gcc-10.2.0/qchem-5.4-akfmr7b3t57bfs6qan3padb2wnb2i7cl/qcaux
QCPROG:      /cm/shared/apps/spack/cpu/opt/spack/linux-centos8-zen2/gcc-10.2.0/qchem-5.4-akfmr7b3t57bfs6qan3padb2wnb2i7cl/exe/qcprog.exe
QCPROG_S:    /cm/shared/apps/spack/cpu/opt/spack/linux-centos8-zen2/gcc-10.2.0/qchem-5.4-akfmr7b3t57bfs6qan3padb2wnb2i7cl/exe/qcprog.exe_s
PARALLEL:    -DPARALLEL
QCMPI:       mpich
#
# qchem directory setting
#
qcrun:       qchem2998688
QCSCRATCH:   .
QCLOCALSCR:  
QCTMPDIR:    .
QCFILEPREF:  ./qchem2998688
QCSAVEDIR:   
workdirs:    ./qchem2998688
workdir0:    ./qchem2998688
partmpdirs =  
#
# parallel setting
#
QCRSH:           ssh
QCMPI:           mpich
QCMPIRUN:        /cm/shared/apps/spack/cpu/opt/spack/linux-centos8-zen2/gcc-10.2.0/qchem-5.4-akfmr7b3t57bfs6qan3padb2wnb2i7cl/bin/mpi/mpirun_qchem
QCMACHINEFILE:   ./qchem2998688/hostfile
exp-4-01

#
# env setting
#
exported envs:   QC QCAUX QCSCRATCH QCRUNNAME QCFILEPREF QCPROG QCPROG_S GUIFILE

Running Job 1 of 1 fin_bdt_Phi_40_Theta_210_fin_ftt.qcin
qchem fin_bdt_Phi_40_Theta_210_fin_ftt.qcin_2998688.0 ./qchem2998688/ 1
/cm/shared/apps/spack/cpu/opt/spack/linux-centos8-zen2/gcc-10.2.0/qchem-5.4-akfmr7b3t57bfs6qan3padb2wnb2i7cl/bin/mpi/mpirun_qchem -machinefile ./qchem2998688/hostfile -np 1 /cm/shared/apps/spack/cpu/opt/spack/linux-centos8-zen2/gcc-10.2.0/qchem-5.4-akfmr7b3t57bfs6qan3padb2wnb2i7cl/exe/qcprog.exe fin_bdt_Phi_40_Theta_210_fin_ftt.qcin_2998688.0 ./qchem2998688/

Process 0 of 1 is on exp-4-01 - thread support 0
initial socket setup ...start
initial socket setup ...done 
now start server 0 ... 
                  Welcome to Q-Chem
     A Quantum Leap Into The Future Of Chemistry


 Q-Chem 5.4, Q-Chem, Inc., Pleasanton, CA (2021)

 License issued to: University of California, San Diego (site)

 E. Epifanovsky,  A. T. B. Gilbert,  Xintian Feng,  Joonho Lee,  Yuezhi Mao,  
 N. Mardirossian,  P. Pokhilko,  A. White,  M. Wormit,  M. P. Coons,  
 A. L. Dempwolff,  Zhengting Gan,  D. Hait,  P. R. Horn,  L. D. Jacobson,  
 I. Kaliman,  J. Kussmann,  A. W. Lange,  Ka Un Lao,  D. S. Levine,  Jie Liu,  
 S. C. McKenzie,  A. F. Morrison,  K. Nanda,  F. Plasser,  D. R. Rehn,  
 M. L. Vidal,  Zhi-Qiang You,  Ying Zhu,  B. Alam,  B. Albrecht,  
 A. Aldossary,  E. Alguire,  J. H. Andersen,  D. Barton,  K. Begam,  A. Behn,  
 Y. A. Bernard,  E. J. Berquist,  H. Burton,  A. Carreras,  K. Carter-Fenk,  
 R. Chakraborty,  A. D. Chien,  K. D. Closser,  V. Cofer-Shabica,  
 S. Dasgupta,  Jia Deng,  M. de Wergifosse,  M. Diedenhofen,  Hainam Do,  
 S. Ehlert,  Po-Tung Fang,  S. Fatehi,  Qingguo Feng,  J. Gayvert,  
 Qinghui Ge,  G. Gidofalvi,  M. Goldey,  J. Gomes,  C. Gonzalez-Espinoza,  
 S. Gulania,  A. Gunina,  M. W. D. Hanson-Heine,  P. H. P. Harbach,  
 A. W. Hauser,  M. F. Herbst,  M. Hernandez Vera,  M. Hodecker,  
 Z. C. Holden,  S. Houck,  Xunkun Huang,  Kerwin Hui,  B. C. Huynh,  
 M. Ivanov,  Hyunjun Ji,  Hanjie Jiang,  B. Kaduk,  S. Kaehler,  
 K. Khistyaev,  Jaehoon Kim,  P. Klunzinger,  Z. Koczor-Benda,  
 Joong Hoon Koh,  D. Kosenkov,  L. Koulias,  T. Kowalczyk,  C. M. Krauter,  
 K. Kue,  A. Kunitsa,  T. Kus,  A. Landau,  K. V. Lawler,  D. Lefrancois,  
 S. Lehtola,  Rain Li,  Yi-Pei Li,  Jiashu Liang,  M. Liebenthal,  
 Hung-Hsuan Lin,  You-Sheng Lin,  Fenglai Liu,  Kuan-Yu Liu,  
 M. Loipersberger,  A. Luenser,  A. Manjanath,  P. Manohar,  E. Mansoor,  
 S. F. Manzer,  Shan-Ping Mao,  A. V. Marenich,  T. Markovich,  S. Mason,  
 S. A. Maurer,  P. F. McLaughlin,  M. F. S. J. Menger,  J.-M. Mewes,  
 S. A. Mewes,  P. Morgante,  J. W. Mullinax,  T. S. Nguyen-Beck,  
 K. J. Oosterbaan,  G. Paran,  Alexander C. Paul,  Suranjan K. Paul,  
 F. Pavosevic,  Zheng Pei,  S. Prager,  E. I. Proynov,  E. Ramos,  B. Rana,  
 A. E. Rask,  A. Rettig,  R. M. Richard,  F. Rob,  E. Rossomme,  T. Scheele,  
 M. Scheurer,  M. Schneider,  N. Sergueev,  S. M. Sharada,  W. Skomorowski,  
 D. W. Small,  C. J. Stein,  Yu-Chuan Su,  E. J. Sundstrom,  Zhen Tao,  
 J. Thirman,  T. Tsuchimochi,  N. M. Tubman,  S. P. Veccham,  O. Vydrov,  
 J. Wenzel,  J. Witte,  A. Yamada,  Kun Yao,  S. Yeganeh,  S. R. Yost,  
 A. Zech,  Igor Ying Zhang,  Xing Zhang,  Yu Zhang,  D. Zuev,  
 A. Aspuru-Guzik,  A. T. Bell,  N. A. Besley,  K. B. Bravaya,  B. R. Brooks,  
 D. Casanova,  Jeng-Da Chai,  S. Coriani,  C. J. Cramer,  
 A. E. DePrince, III,  R. A. DiStasio Jr.,  A. Dreuw,  B. D. Dunietz,  
 T. R. Furlani,  W. A. Goddard III,  S. Grimme,  S. Hammes-Schiffer,  
 T. Head-Gordon,  W. J. Hehre,  Chao-Ping Hsu,  T.-C. Jagau,  Yousung Jung,  
 A. Klamt,  Jing Kong,  D. S. Lambrecht,  WanZhen Liang,  N. J. Mayhall,  
 C. W. McCurdy,  J. B. Neaton,  C. Ochsenfeld,  J. A. Parkhill,  R. Peverati,  
 V. A. Rassolov,  Yihan Shao,  L. V. Slipchenko,  T. Stauch,  R. P. Steele,  
 J. E. Subotnik,  A. J. W. Thom,  A. Tkatchenko,  D. G. Truhlar,  
 T. Van Voorhis,  T. A. Wesolowski,  K. B. Whaley,  H. L. Woodcock III,  
 P. M. Zimmerman,  S. Faraji,  P. M. W. Gill,  M. Head-Gordon,  
 J. M. Herbert,  A. I. Krylov

 Contributors to earlier versions of Q-Chem not listed above: 
 R. D. Adamson,  B. Austin,  R. Baer,  J. Baker,  G. J. O. Beran,  
 K. Brandhorst,  S. T. Brown,  E. F. C. Byrd,  A. K. Chakraborty,  
 G. K. L. Chan,  Chun-Min Chang,  Yunqing Chen,  C.-L. Cheng,  
 Siu Hung Chien,  D. M. Chipman,  D. L. Crittenden,  H. Dachsel,  
 R. J. Doerksen,  A. D. Dutoi,  R. G. Edgar,  J. Fosso-Tande,  
 L. Fusti-Molnar,  D. Ghosh,  A. Ghysels,  A. Golubeva-Zadorozhnaya,  
 J. Gonthier,  M. S. Gordon,  S. R. Gwaltney,  G. Hawkins,  J. E. Herr,  
 A. Heyden,  S. Hirata,  E. G. Hohenstein,  G. Kedziora,  F. J. Keil,  
 C. Kelley,  Jihan Kim,  R. A. King,  R. Z. Khaliullin,  P. P. Korambath,  
 W. Kurlancheek,  A. Laurent,  A. M. Lee,  M. S. Lee,  S. V. Levchenko,  
 Ching Yeh Lin,  D. Liotard,  E. Livshits,  R. C. Lochan,  I. Lotan,  
 L. A. Martinez-Martinez,  P. E. Maslen,  N. Nair,  D. P. O'Neill,  
 D. Neuhauser,  E. Neuscamman,  C. M. Oana,  R. Olivares-Amaya,  R. Olson,  
 T. M. Perrine,  B. Peters,  P. A. Pieniazek,  A. Prociuk,  Y. M. Rhee,  
 J. Ritchie,  M. A. Rohrdanz,  E. Rosta,  N. J. Russ,  H. F. Schaefer III,  
 M. W. Schmidt,  N. E. Schultz,  S. Sharma,  N. Shenvi,  C. D. Sherrill,  
 A. C. Simmonett,  A. Sodt,  T. Stein,  D. Stuck,  K. S. Thanthiriwatte,  
 V. Vanovschi,  L. Vogt,  Tao Wang,  A. Warshel,  M. A. Watson,  
 C. F. Williams,  Q. Wu,  X. Xu,  Jun Yang,  W. Zhang,  Yan Zhao

 Please cite Q-Chem as follows:
 Y. Shao et al., Mol. Phys. 113, 184-215 (2015)
 DOI: 10.1080/00268976.2014.952696

 Q-Chem 5.4.0 for Intel X86 EM64T Linux

 Parts of Q-Chem use Armadillo 9.800.1 (Horizon Scraper).
 http://arma.sourceforge.net/

 Q-Chem begins on Sun Sep 24 17:59:30 2023  

 Host: 
0

     Scratch files written to ./qchem2998688//
 May1621 |scratch|qcdevops|jenkins|workspace|build_RNUM    
 Parallel job on  1  processors
 Processing $rem in /cm/shared/apps/spack/cpu/opt/spack/linux-centos8-zen2/gcc-10.2.0/qchem-5.4-akfmr7b3t57bfs6qan3padb2wnb2i7cl/config/preferences:
 Processing $rem in /home/rramji/.qchemrc:
 Symmetry turned off for PCM/SM12/SMD calculation
 Core orbitals will be frozen

 Checking the input file for inconsistencies... 	...done.

 Q-Chem warning in module forms1/BasisType.C, line 2236:

 You are not using the predefined 5D/6D in this basis set.


--------------------------------------------------------------
User input:
--------------------------------------------------------------
$molecule
0 1
C	0.175432	-8.519741	-0.208002
C	-0.352097	-7.635967	0.722164
S	0.936458	-7.651740	-1.563424
C	-0.160388	-6.261894	0.386833
H	-0.870905	-7.954738	1.635031
C	0.553685	-6.079985	-0.849637
C	0.816372	-4.798382	-1.357938
C	-0.627524	-5.153542	1.149702
C	-0.368399	-3.869626	0.638941
C	0.348912	-3.688927	-0.597409
O	-1.262667	-5.481075	2.309260
O	1.453338	-4.479871	-2.523296
C	2.449320	-5.356026	-3.036927
H	2.982577	-4.790496	-3.824632
H	2.011155	-6.268513	-3.497250
H	3.173591	-5.658187	-2.249807
C	-2.130793	-4.546999	2.939226
H	-2.663289	-5.107564	3.730721
H	-2.873906	-4.131473	2.225196
H	-1.572045	-3.712085	3.415077
C	0.536849	-2.314326	-0.930765
S	-0.763041	-2.295487	1.347913
C	-0.000000	-1.435180	-0.000000
H	1.057554	-1.993211	-1.841645
H	0.170535	-9.615985	-0.204438
C	0.000000	0.000000	0.000000
S	0.579852	0.687566	1.510732
C	1.591625	1.895024	0.727629
C	0.583771	0.695758	-1.064665
C	1.475308	1.760606	-0.678287
C	0.542366	0.643841	-2.486150
C	1.355286	1.612843	-3.106916
S	2.154609	2.570627	-1.965735
C	1.522440	1.804778	-4.559972
O	0.924684	1.087757	-5.350277
O	2.349739	2.785679	-5.004375
F	-0.170780	-0.212144	-3.246290
C	2.588082	3.053936	-6.334976
H	3.298799	3.899999	-6.370268
H	1.655291	3.328371	-6.875609
H	3.026021	2.177385	-6.861878
H	2.183053	2.599759	1.321510
$end

$rem
JOBTYPE		SP
EXCHANGE	HF
CORRELATION	pRIMP2
BASIS		cc-pvtz
METHOD		rimp2
AUX_BASIS	rimp2-cc-pvtz
SOLVENT_METHOD	PCM
PURECART	11111
SYMMETRY	false
MEM_TOTAL	110000
SCF_CONVERGENCE = 6
THRESH=10
GUI = 2
$end



$solvent
dielectric 4.90
$end
--------------------------------------------------------------
 ----------------------------------------------------------------
             Standard Nuclear Orientation (Angstroms)
    I     Atom           X                Y                Z
 ----------------------------------------------------------------
    1      C       0.1754320000    -8.5197410000    -0.2080020000
    2      C      -0.3520970000    -7.6359670000     0.7221640000
    3      S       0.9364580000    -7.6517400000    -1.5634240000
    4      C      -0.1603880000    -6.2618940000     0.3868330000
    5      H      -0.8709050000    -7.9547380000     1.6350310000
    6      C       0.5536850000    -6.0799850000    -0.8496370000
    7      C       0.8163720000    -4.7983820000    -1.3579380000
    8      C      -0.6275240000    -5.1535420000     1.1497020000
    9      C      -0.3683990000    -3.8696260000     0.6389410000
   10      C       0.3489120000    -3.6889270000    -0.5974090000
   11      O      -1.2626670000    -5.4810750000     2.3092600000
   12      O       1.4533380000    -4.4798710000    -2.5232960000
   13      C       2.4493200000    -5.3560260000    -3.0369270000
   14      H       2.9825770000    -4.7904960000    -3.8246320000
   15      H       2.0111550000    -6.2685130000    -3.4972500000
   16      H       3.1735910000    -5.6581870000    -2.2498070000
   17      C      -2.1307930000    -4.5469990000     2.9392260000
   18      H      -2.6632890000    -5.1075640000     3.7307210000
   19      H      -2.8739060000    -4.1314730000     2.2251960000
   20      H      -1.5720450000    -3.7120850000     3.4150770000
   21      C       0.5368490000    -2.3143260000    -0.9307650000
   22      S      -0.7630410000    -2.2954870000     1.3479130000
   23      C       0.0000000000    -1.4351800000     0.0000000000
   24      H       1.0575540000    -1.9932110000    -1.8416450000
   25      H       0.1705350000    -9.6159850000    -0.2044380000
   26      C       0.0000000000     0.0000000000     0.0000000000
   27      S       0.5798520000     0.6875660000     1.5107320000
   28      C       1.5916250000     1.8950240000     0.7276290000
   29      C       0.5837710000     0.6957580000    -1.0646650000
   30      C       1.4753080000     1.7606060000    -0.6782870000
   31      C       0.5423660000     0.6438410000    -2.4861500000
   32      C       1.3552860000     1.6128430000    -3.1069160000
   33      S       2.1546090000     2.5706270000    -1.9657350000
   34      C       1.5224400000     1.8047780000    -4.5599720000
   35      O       0.9246840000     1.0877570000    -5.3502770000
   36      O       2.3497390000     2.7856790000    -5.0043750000
   37      F      -0.1707800000    -0.2121440000    -3.2462900000
   38      C       2.5880820000     3.0539360000    -6.3349760000
   39      H       3.2987990000     3.8999990000    -6.3702680000
   40      H       1.6552910000     3.3283710000    -6.8756090000
   41      H       3.0260210000     2.1773850000    -6.8618780000
   42      H       2.1830530000     2.5997590000     1.3215100000
 ----------------------------------------------------------------
 Nuclear Repulsion Energy =        3337.85322440 hartrees
 There are      119 alpha and      119 beta electrons
 Requested basis set is cc-pVTZ
 There are 376 shells and 1068 basis functions

 Total QAlloc Memory Limit 110000 MB
 Mega-Array Size       188 MB
 MEM_STATIC part       192 MB
 Discretize the solute cavity surface with Lebedev spheres
	Using 110 Lebedev grid points for each H atom
	Using 194 Lebedev grid points for other atoms
	Atomic van der Waals radii will be scaled by 1.20
 Remove points where switching function is < 1.0e-08
 Keep 2831 surface tesserae and discard 4225 interior tesserae
 Molecular Surface Area = 435.630 Angst**2
 Requested basis set is rimp2-cc-pVTZ
 There are 833 shells and 2903 basis functions
 A cutoff of  1.0D-10 yielded  32021 shell pairs
 There are    245027 function pairs (    317837 Cartesian)
 Smallest overlap matrix eigenvalue = 2.13E-05

 Scale SEOQF with 1.000000e-01/1.000000e-02/1.000000e-02

 Standard Electronic Orientation quadrupole field applied
 Nucleus-field energy     =     0.0000000276 hartrees
 Guess from superposition of atomic densities
 Warning:  Energy on first SCF cycle will be non-variational
 SAD guess density has 238.000000 electrons

 -----------------------------------------------------------------------
  General SCF calculation program by
  Eric Jon Sundstrom, Paul Horn, Yuezhi Mao, Dmitri Zuev, Alec White,
  David Stuck, Shaama M.S., Shane Yost, Joonho Lee, David Small,
  Daniel Levine, Susi Lehtola, Hugh Burton, Evgeny Epifanovsky,
  Bang C. Huynh
 -----------------------------------------------------------------------
 Hartree-Fock
 using 64 threads for integral computing
 -------------------------------------------------------
 OpenMP Integral computing Module                
 Release: version 1.0, May 2013, Q-Chem Inc. Pittsburgh 
 -------------------------------------------------------
 A restricted SCF calculation will be
 performed using DIIS
 SCF converges when DIIS error is below 1.0e-06
 ---------------------------------------
  Cycle       Energy         DIIS error
 ---------------------------------------
    1   -2765.5892382349      1.77e-02  
    2   -2753.8315877659      1.58e-03  
    3   -2754.1726230311      8.87e-04  
    4   -2754.2576745946      2.55e-04  
    5   -2754.2693199282      6.89e-05  
    6   -2754.2704148904      2.44e-05  
    7   -2754.2706570611      1.16e-05  
    8   -2754.2707392074      4.69e-06  
    9   -2754.2707566718      2.19e-06  
   10   -2754.2707596412      1.04e-06  
   11   -2754.2707604673      4.55e-07  Convergence criterion met
 ---------------------------------------
 SCF time:   CPU 6959.21s  wall 254.00s 

************** Final PCM Free Energy Summary **************
 G_electrostatic  =      -0.02075300 hartree =     -13.02270588 kcal/mol
 G_cavitation     =       0.00000000 hartree =       0.00000000 kcal/mol
 G_dispersion     =       0.00000000 hartree =       0.00000000 kcal/mol
 G_repulsion      =       0.00000000 hartree =       0.00000000 kcal/mol
 --------------------------------------------------
 Non-electrostatic Free Energy =       0.00000000 hartree =       0.00000000 kcal/mol
 Total                         =      -0.02075300 hartree =     -13.02270588 kcal/mol
 --------------------------------------------------
 SCF Energy (H0 + V/2)                       =   -2754.27076047 
 Solute Internal Energy (H0)                 =   -2754.25000746 
 Total Free Energy (H0 + V/2 + non-elec)     =   -2754.27076047 hartree
                                             = -1728330.98789158 kcal/mol
***********************************************************

 SCF   energy in the final basis set =    -2754.2707604673
 Total energy in the final basis set =    -2754.2707604673


 --------------------------------------------------------------
  Generalized many-body perturbation theory program
  by Joonho Lee, Fazle Rob, Xintian Feng, Evgeny Epifanovsky

 No regularization used 
 (reg. param. = 0.0000e+00)
  (P|Q)^-1/2 Time:  CPU 137.53 s  wall 2.33 s

 In RI-MP2 calculation: 
 # of frozen core orbitals: 45

 Components of the RIMP2 correlation energy:
        aaaa    correlation energy =        -0.6729610363 a.u.
        abab    correlation energy =        -3.7177413264 a.u.
        bbbb    correlation energy =        -0.6729610363 a.u.
        non-Brillouin singles      =        -0.0000000000 a.u.
        total same-spin energy     =        -1.3459220726 a.u.
        total opposite-spin energy =        -3.7177413264 a.u.

 Total  RIMP2   correlation energy =        -5.0636633990 a.u.
        RIMP2         total energy =     -2759.3344238663 a.u.

 RI-MP2 Energy Time:  CPU 2734.69 s  wall 44.28 s
 
 --------------------------------------------------------------
 
                    Orbital Energies (a.u.)
 --------------------------------------------------------------
 
 Alpha MOs
 -- Occupied --
-92.0170 -92.0006 -91.9860 -91.9851 -26.3352 -20.6140 -20.5918 -20.5894
-20.5533 -11.4132 -11.3777 -11.3182 -11.3150 -11.3087 -11.3041 -11.2999
-11.2977 -11.2960 -11.2895 -11.2876 -11.2867 -11.2847 -11.2838 -11.2828
-11.2778 -11.2599 -11.2566 -11.2505 -11.2490  -9.0157  -9.0044  -8.9869
 -8.9850  -6.6964  -6.6957  -6.6953  -6.6856  -6.6850  -6.6836  -6.6680
 -6.6673  -6.6663  -6.6660  -6.6653  -6.6645  -1.6485  -1.4739  -1.4157
 -1.4122  -1.3696  -1.2385  -1.1946  -1.1692  -1.1440  -1.0842  -1.0514
 -1.0494  -1.0307  -1.0007  -0.9930  -0.9741  -0.9597  -0.9495  -0.9389
 -0.8951  -0.8726  -0.8474  -0.8030  -0.7963  -0.7873  -0.7726  -0.7712
 -0.7558  -0.7316  -0.7205  -0.7168  -0.7004  -0.6912  -0.6813  -0.6797
 -0.6746  -0.6616  -0.6582  -0.6513  -0.6273  -0.6187  -0.6154  -0.6089
 -0.6052  -0.5990  -0.5829  -0.5749  -0.5691  -0.5615  -0.5558  -0.5474
 -0.5337  -0.5265  -0.5247  -0.5162  -0.5153  -0.5078  -0.5061  -0.4967
 -0.4873  -0.4856  -0.4743  -0.4670  -0.4630  -0.4627  -0.4586  -0.4191
 -0.3962  -0.3842  -0.3572  -0.3517  -0.3236  -0.2862  -0.2485
 -- Virtual --
  0.0047   0.0762   0.1113   0.1243   0.1295   0.1452   0.1507   0.1549
  0.1564   0.1612   0.1621   0.1765   0.1823   0.1849   0.1905   0.1968
  0.2030   0.2048   0.2097   0.2165   0.2210   0.2230   0.2245   0.2276
  0.2321   0.2429   0.2478   0.2558   0.2570   0.2677   0.2755   0.2791
  0.2964   0.3118   0.3137   0.3271   0.3379   0.3388   0.3460   0.3516
  0.3550   0.3595   0.3682   0.3716   0.3768   0.3791   0.3827   0.3840
  0.3878   0.3913   0.3951   0.4070   0.4102   0.4120   0.4173   0.4227
  0.4295   0.4315   0.4382   0.4399   0.4421   0.4485   0.4560   0.4571
  0.4596   0.4673   0.4700   0.4754   0.4760   0.4825   0.4907   0.4941
  0.4961   0.5013   0.5040   0.5075   0.5113   0.5171   0.5188   0.5216
  0.5270   0.5336   0.5386   0.5407   0.5480   0.5499   0.5532   0.5545
  0.5581   0.5598   0.5644   0.5672   0.5687   0.5728   0.5763   0.5812
  0.5875   0.5908   0.5953   0.5970   0.6003   0.6063   0.6107   0.6125
  0.6166   0.6182   0.6226   0.6244   0.6295   0.6307   0.6347   0.6374
  0.6405   0.6454   0.6477   0.6498   0.6578   0.6585   0.6619   0.6734
  0.6778   0.6812   0.6842   0.6860   0.6899   0.6981   0.7035   0.7061
  0.7081   0.7098   0.7166   0.7253   0.7329   0.7386   0.7456   0.7501
  0.7578   0.7611   0.7697   0.7801   0.7843   0.7914   0.7951   0.7994
  0.8034   0.8096   0.8123   0.8154   0.8247   0.8277   0.8385   0.8493
  0.8533   0.8560   0.8665   0.8722   0.8730   0.8793   0.8808   0.8933
  0.8959   0.9033   0.9056   0.9117   0.9151   0.9176   0.9226   0.9312
  0.9338   0.9365   0.9399   0.9479   0.9527   0.9567   0.9629   0.9680
  0.9702   0.9727   0.9800   0.9863   0.9893   0.9974   0.9975   1.0024
  1.0066   1.0097   1.0156   1.0205   1.0240   1.0322   1.0396   1.0440
  1.0501   1.0560   1.0571   1.0586   1.0655   1.0675   1.0739   1.0763
  1.0834   1.0906   1.0923   1.0978   1.1013   1.1056   1.1102   1.1212
  1.1284   1.1304   1.1371   1.1450   1.1468   1.1493   1.1564   1.1587
  1.1605   1.1697   1.1731   1.1791   1.1845   1.1901   1.1948   1.2027
  1.2074   1.2090   1.2137   1.2187   1.2197   1.2244   1.2301   1.2333
  1.2410   1.2438   1.2471   1.2570   1.2580   1.2668   1.2753   1.2773
  1.2806   1.2849   1.2924   1.3000   1.3099   1.3129   1.3156   1.3250
  1.3295   1.3372   1.3407   1.3465   1.3500   1.3562   1.3642   1.3672
  1.3736   1.3799   1.3844   1.3924   1.3989   1.4098   1.4163   1.4305
  1.4335   1.4437   1.4480   1.4600   1.4733   1.4757   1.4851   1.4883
  1.4924   1.4996   1.5049   1.5105   1.5114   1.5161   1.5218   1.5307
  1.5339   1.5397   1.5421   1.5437   1.5496   1.5514   1.5574   1.5617
  1.5721   1.5844   1.5885   1.5963   1.6065   1.6165   1.6227   1.6308
  1.6378   1.6468   1.6521   1.6556   1.6639   1.6700   1.6741   1.6901
  1.6910   1.6953   1.7104   1.7147   1.7194   1.7297   1.7391   1.7422
  1.7563   1.7613   1.7669   1.7843   1.7979   1.8058   1.8140   1.8188
  1.8266   1.8318   1.8411   1.8489   1.8501   1.8659   1.8674   1.8731
  1.8782   1.8873   1.9021   1.9075   1.9097   1.9172   1.9234   1.9296
  1.9350   1.9509   1.9586   1.9633   1.9700   1.9767   1.9834   1.9902
  2.0048   2.0151   2.0176   2.0228   2.0318   2.0440   2.0578   2.0802
  2.0850   2.0960   2.1002   2.1098   2.1143   2.1268   2.1383   2.1422
  2.1474   2.1578   2.1634   2.1657   2.1719   2.1797   2.1874   2.1913
  2.1971   2.2010   2.2148   2.2162   2.2286   2.2353   2.2390   2.2481
  2.2543   2.2602   2.2645   2.2704   2.2736   2.2790   2.2851   2.2885
  2.3022   2.3122   2.3131   2.3239   2.3354   2.3476   2.3531   2.3549
  2.3636   2.3787   2.3898   2.3929   2.4023   2.4130   2.4165   2.4259
  2.4336   2.4422   2.4478   2.4539   2.4591   2.4730   2.4830   2.4906
  2.5008   2.5049   2.5217   2.5272   2.5300   2.5342   2.5515   2.5567
  2.5656   2.5813   2.5854   2.6009   2.6049   2.6160   2.6180   2.6228
  2.6286   2.6353   2.6378   2.6477   2.6514   2.6582   2.6681   2.6742
  2.6777   2.6827   2.6933   2.6991   2.6993   2.7051   2.7141   2.7189
  2.7270   2.7322   2.7378   2.7413   2.7502   2.7559   2.7604   2.7752
  2.7826   2.7883   2.7890   2.7982   2.8081   2.8137   2.8218   2.8273
  2.8334   2.8386   2.8457   2.8506   2.8552   2.8692   2.8705   2.8740
  2.8782   2.8838   2.8870   2.8975   2.9020   2.9193   2.9291   2.9435
  2.9461   2.9577   2.9610   2.9725   2.9796   2.9831   3.0002   3.0072
  3.0113   3.0171   3.0189   3.0304   3.0351   3.0387   3.0437   3.0486
  3.0536   3.0662   3.0703   3.0735   3.0858   3.0902   3.0932   3.1045
  3.1069   3.1116   3.1168   3.1233   3.1251   3.1408   3.1461   3.1484
  3.1583   3.1605   3.1629   3.1701   3.1720   3.1761   3.1834   3.1861
  3.1970   3.2006   3.2020   3.2079   3.2143   3.2228   3.2247   3.2296
  3.2336   3.2388   3.2431   3.2447   3.2541   3.2601   3.2625   3.2691
  3.2768   3.2816   3.2820   3.2842   3.2912   3.2939   3.2962   3.3005
  3.3087   3.3186   3.3257   3.3331   3.3341   3.3428   3.3443   3.3505
  3.3533   3.3569   3.3625   3.3658   3.3670   3.3708   3.3760   3.3798
  3.3885   3.3908   3.3918   3.3970   3.4012   3.4096   3.4110   3.4216
  3.4282   3.4304   3.4373   3.4388   3.4431   3.4482   3.4527   3.4564
  3.4623   3.4673   3.4719   3.4754   3.4821   3.4873   3.4885   3.4960
  3.5025   3.5122   3.5163   3.5223   3.5285   3.5298   3.5370   3.5375
  3.5424   3.5478   3.5560   3.5593   3.5682   3.5766   3.5771   3.5848
  3.5914   3.5943   3.5981   3.6022   3.6067   3.6126   3.6138   3.6244
  3.6317   3.6342   3.6428   3.6485   3.6510   3.6569   3.6574   3.6669
  3.6734   3.6780   3.6810   3.6856   3.6902   3.6933   3.7022   3.7066
  3.7099   3.7157   3.7214   3.7248   3.7292   3.7329   3.7376   3.7396
  3.7469   3.7548   3.7601   3.7691   3.7748   3.7801   3.7829   3.7918
  3.7963   3.8014   3.8061   3.8138   3.8181   3.8259   3.8319   3.8333
  3.8390   3.8411   3.8496   3.8566   3.8594   3.8650   3.8702   3.8758
  3.8796   3.8928   3.8948   3.9036   3.9084   3.9190   3.9216   3.9262
  3.9336   3.9416   3.9459   3.9602   3.9619   3.9730   3.9840   3.9883
  3.9944   4.0090   4.0127   4.0192   4.0210   4.0331   4.0351   4.0449
  4.0540   4.0614   4.0630   4.0664   4.0775   4.0804   4.0831   4.0906
  4.0914   4.1023   4.1158   4.1236   4.1282   4.1409   4.1511   4.1592
  4.1666   4.1696   4.1717   4.1854   4.1864   4.1904   4.1934   4.2116
  4.2152   4.2323   4.2391   4.2446   4.2501   4.2553   4.2662   4.2777
  4.2880   4.2985   4.3086   4.3200   4.3261   4.3413   4.3430   4.3474
  4.3620   4.3683   4.3755   4.3801   4.3838   4.3921   4.3991   4.4044
  4.4083   4.4126   4.4185   4.4210   4.4287   4.4361   4.4409   4.4515
  4.4692   4.4731   4.4744   4.4921   4.5031   4.5062   4.5115   4.5139
  4.5350   4.5424   4.5507   4.5549   4.5585   4.5717   4.5886   4.5941
  4.6133   4.6161   4.6189   4.6360   4.6384   4.6425   4.6504   4.6564
  4.6626   4.6646   4.6780   4.6830   4.6837   4.7093   4.7132   4.7286
  4.7372   4.7519   4.7549   4.7752   4.7804   4.7860   4.8074   4.8169
  4.8308   4.8356   4.8403   4.8567   4.8686   4.8846   4.9048   4.9241
  4.9394   4.9459   4.9521   4.9624   4.9683   4.9834   4.9947   5.0035
  5.0042   5.0098   5.0114   5.0355   5.0463   5.0670   5.0710   5.0756
  5.0873   5.1026   5.1213   5.1470   5.1644   5.1730   5.1875   5.1944
  5.1994   5.2138   5.2184   5.2430   5.2537   5.2565   5.2587   5.2831
  5.3011   5.3129   5.3270   5.3325   5.3432   5.3542   5.3563   5.3719
  5.3790   5.3916   5.4003   5.4022   5.4145   5.4380   5.4649   5.4722
  5.4790   5.4814   5.4979   5.5064   5.5130   5.5169   5.5385   5.5674
  5.5762   5.5829   5.5913   5.6072   5.6154   5.6333   5.6436   5.6809
  5.7169   5.7349   5.7927   5.7991   5.8132   5.8332   5.8434   5.8563
  5.8754   5.8841   5.9254   5.9636   5.9676   5.9786   6.0015   6.0254
  6.0628   6.1026   6.1151   6.1324   6.1367   6.1715   6.1805   6.1844
  6.2397   6.2491   6.2715   6.2799   6.3070   6.3078   6.3192   6.3906
  6.4373   6.4486   6.4924   6.5151   6.5506   6.5543   6.5598   6.6564
  6.6738   6.6792   6.7051   6.7353   6.7462   6.8037   6.8425   6.8580
  6.8812   6.8945   6.9880   7.1223   7.1381   7.1766   7.2091   7.2165
  7.2365   7.3229   7.3244   7.3336   7.3738   7.3759   7.4250   7.4608
  7.4791   7.4864   7.4903   7.5181   7.5464   7.6051   7.7134   7.7704
  7.7987   7.8296   7.9016   7.9239   7.9491   8.0034   8.0896   8.1602
  8.5275   8.9462   9.0089   9.3680   9.4974   9.6946  10.2168  10.4952
 11.2290  11.3466  11.9354  12.0270  12.1328  12.2372  12.4362  12.5657
 12.6118  12.7287  12.9583  13.2555  13.3261  13.5511  13.8443  13.8602
 13.9026  14.0356  14.1256  14.6765  15.2062
 --------------------------------------------------------------
 
          Ground-State Mulliken Net Atomic Charges

     Atom                 Charge (a.u.)
  ----------------------------------------
      1 C                    -0.192214
      2 C                    -0.254196
      3 S                    -0.023638
      4 C                    -0.018248
      5 H                     0.195806
      6 C                    -0.026908
      7 C                     0.241278
      8 C                     0.244696
      9 C                    -0.040835
     10 C                    -0.027088
     11 O                    -0.333593
     12 O                    -0.340283
     13 C                    -0.085882
     14 H                     0.122602
     15 H                     0.091068
     16 H                     0.093056
     17 C                    -0.087324
     18 H                     0.125519
     19 H                     0.095177
     20 H                     0.088986
     21 C                    -0.225554
     22 S                    -0.041558
     23 C                     0.004209
     24 H                     0.191393
     25 H                     0.205781
     26 C                    -0.054906
     27 S                     0.127737
     28 C                    -0.204554
     29 C                    -0.079244
     30 C                    -0.018380
     31 C                     0.345620
     32 C                    -0.134788
     33 S                     0.059227
     34 C                     0.459741
     35 O                    -0.444818
     36 O                    -0.297602
     37 F                    -0.211820
     38 C                    -0.054599
     39 H                     0.117042
     40 H                     0.085241
     41 H                     0.084917
     42 H                     0.218934
  ----------------------------------------
  Sum of atomic charges =     0.000000

 -----------------------------------------------------------------
                    Cartesian Multipole Moments
 -----------------------------------------------------------------
    Charge (ESU x 10^10)
                 0.0000
    Dipole Moment (Debye)
         X       3.1285      Y       2.3313      Z       3.2537
       Tot       5.0802
    Quadrupole Moments (Debye-Ang)
        XX    -182.4497     XY       7.8434     YY    -168.0985
        XZ     -19.9662     YZ      -9.4627     ZZ    -191.7126
    Octopole Moments (Debye-Ang^2)
       XXX    -343.7468    XXY     402.1395    XYY     -83.0780
       YYY    1009.8185    XXZ     161.9635    XYZ      36.1805
       YYZ     154.5945    XZZ     -42.6824    YZZ     463.1858
       ZZZ     580.1659
    Hexadecapole Moments (Debye-Ang^3)
      XXXX   -2134.4870   XXXY    -349.0887   XXYY   -3678.8935
      XYYY    -376.2358   YYYY  -17844.4724   XXXZ    1358.2052
      XXYZ     179.9034   XYYZ      78.8797   YYYZ     634.7811
      XXZZ   -1255.4983   XYZZ     122.8729   YYZZ   -4222.5453
      XZZZ     883.3418   YZZZ     124.7527   ZZZZ   -7063.8923
 -----------------------------------------------------------------
 Total job time:  304.43s(wall), 9885.54s(cpu) 
 Sun Sep 24 18:04:35 2023

        *************************************************************
        *                                                           *
        *  Thank you very much for using Q-Chem.  Have a nice day.  *
        *                                                           *
        *************************************************************


0 sent ACK to 0 
now end server 0 ... 
cleanup process ... done
remove work dirs ./qchem2998688.0 -- ./qchem2998688.0
rm -rf ./qchem2998688.0
rm -rf ./qchem2998688
