You are running Q-Chem version: 5.4.0

#
# job setting
#
local host:  exp-5-42
current dir: /expanse/lustre/projects/csd626/rramji/aromodel/PTB7_fin/Rotation_Test
input file:  fin_bdt_Phi_50_Theta_210_fin_ftt.qcin
output file: 
nprocs     : 1
nthreads   : 64
#
# qchem installation setting
#
QC:          /cm/shared/apps/spack/cpu/opt/spack/linux-centos8-zen2/gcc-10.2.0/qchem-5.4-akfmr7b3t57bfs6qan3padb2wnb2i7cl
QCAUX:       /cm/shared/apps/spack/cpu/opt/spack/linux-centos8-zen2/gcc-10.2.0/qchem-5.4-akfmr7b3t57bfs6qan3padb2wnb2i7cl/qcaux
QCPROG:      /cm/shared/apps/spack/cpu/opt/spack/linux-centos8-zen2/gcc-10.2.0/qchem-5.4-akfmr7b3t57bfs6qan3padb2wnb2i7cl/exe/qcprog.exe
QCPROG_S:    /cm/shared/apps/spack/cpu/opt/spack/linux-centos8-zen2/gcc-10.2.0/qchem-5.4-akfmr7b3t57bfs6qan3padb2wnb2i7cl/exe/qcprog.exe_s
PARALLEL:    -DPARALLEL
QCMPI:       mpich
#
# qchem directory setting
#
qcrun:       qchem958761
QCSCRATCH:   .
QCLOCALSCR:  
QCTMPDIR:    .
QCFILEPREF:  ./qchem958761
QCSAVEDIR:   
workdirs:    ./qchem958761
workdir0:    ./qchem958761
partmpdirs =  
#
# parallel setting
#
QCRSH:           ssh
QCMPI:           mpich
QCMPIRUN:        /cm/shared/apps/spack/cpu/opt/spack/linux-centos8-zen2/gcc-10.2.0/qchem-5.4-akfmr7b3t57bfs6qan3padb2wnb2i7cl/bin/mpi/mpirun_qchem
QCMACHINEFILE:   ./qchem958761/hostfile
exp-5-42

#
# env setting
#
exported envs:   QC QCAUX QCSCRATCH QCRUNNAME QCFILEPREF QCPROG QCPROG_S GUIFILE

Running Job 1 of 1 fin_bdt_Phi_50_Theta_210_fin_ftt.qcin
qchem fin_bdt_Phi_50_Theta_210_fin_ftt.qcin_958761.0 ./qchem958761/ 1
/cm/shared/apps/spack/cpu/opt/spack/linux-centos8-zen2/gcc-10.2.0/qchem-5.4-akfmr7b3t57bfs6qan3padb2wnb2i7cl/bin/mpi/mpirun_qchem -machinefile ./qchem958761/hostfile -np 1 /cm/shared/apps/spack/cpu/opt/spack/linux-centos8-zen2/gcc-10.2.0/qchem-5.4-akfmr7b3t57bfs6qan3padb2wnb2i7cl/exe/qcprog.exe fin_bdt_Phi_50_Theta_210_fin_ftt.qcin_958761.0 ./qchem958761/

Process 0 of 1 is on exp-5-42 - thread support 0
initial socket setup ...start
initial socket setup ...done 
now start server 0 ... 
                  Welcome to Q-Chem
     A Quantum Leap Into The Future Of Chemistry


 Q-Chem 5.4, Q-Chem, Inc., Pleasanton, CA (2021)

 License issued to: University of California, San Diego (site)

 E. Epifanovsky,  A. T. B. Gilbert,  Xintian Feng,  Joonho Lee,  Yuezhi Mao,  
 N. Mardirossian,  P. Pokhilko,  A. White,  M. Wormit,  M. P. Coons,  
 A. L. Dempwolff,  Zhengting Gan,  D. Hait,  P. R. Horn,  L. D. Jacobson,  
 I. Kaliman,  J. Kussmann,  A. W. Lange,  Ka Un Lao,  D. S. Levine,  Jie Liu,  
 S. C. McKenzie,  A. F. Morrison,  K. Nanda,  F. Plasser,  D. R. Rehn,  
 M. L. Vidal,  Zhi-Qiang You,  Ying Zhu,  B. Alam,  B. Albrecht,  
 A. Aldossary,  E. Alguire,  J. H. Andersen,  D. Barton,  K. Begam,  A. Behn,  
 Y. A. Bernard,  E. J. Berquist,  H. Burton,  A. Carreras,  K. Carter-Fenk,  
 R. Chakraborty,  A. D. Chien,  K. D. Closser,  V. Cofer-Shabica,  
 S. Dasgupta,  Jia Deng,  M. de Wergifosse,  M. Diedenhofen,  Hainam Do,  
 S. Ehlert,  Po-Tung Fang,  S. Fatehi,  Qingguo Feng,  J. Gayvert,  
 Qinghui Ge,  G. Gidofalvi,  M. Goldey,  J. Gomes,  C. Gonzalez-Espinoza,  
 S. Gulania,  A. Gunina,  M. W. D. Hanson-Heine,  P. H. P. Harbach,  
 A. W. Hauser,  M. F. Herbst,  M. Hernandez Vera,  M. Hodecker,  
 Z. C. Holden,  S. Houck,  Xunkun Huang,  Kerwin Hui,  B. C. Huynh,  
 M. Ivanov,  Hyunjun Ji,  Hanjie Jiang,  B. Kaduk,  S. Kaehler,  
 K. Khistyaev,  Jaehoon Kim,  P. Klunzinger,  Z. Koczor-Benda,  
 Joong Hoon Koh,  D. Kosenkov,  L. Koulias,  T. Kowalczyk,  C. M. Krauter,  
 K. Kue,  A. Kunitsa,  T. Kus,  A. Landau,  K. V. Lawler,  D. Lefrancois,  
 S. Lehtola,  Rain Li,  Yi-Pei Li,  Jiashu Liang,  M. Liebenthal,  
 Hung-Hsuan Lin,  You-Sheng Lin,  Fenglai Liu,  Kuan-Yu Liu,  
 M. Loipersberger,  A. Luenser,  A. Manjanath,  P. Manohar,  E. Mansoor,  
 S. F. Manzer,  Shan-Ping Mao,  A. V. Marenich,  T. Markovich,  S. Mason,  
 S. A. Maurer,  P. F. McLaughlin,  M. F. S. J. Menger,  J.-M. Mewes,  
 S. A. Mewes,  P. Morgante,  J. W. Mullinax,  T. S. Nguyen-Beck,  
 K. J. Oosterbaan,  G. Paran,  Alexander C. Paul,  Suranjan K. Paul,  
 F. Pavosevic,  Zheng Pei,  S. Prager,  E. I. Proynov,  E. Ramos,  B. Rana,  
 A. E. Rask,  A. Rettig,  R. M. Richard,  F. Rob,  E. Rossomme,  T. Scheele,  
 M. Scheurer,  M. Schneider,  N. Sergueev,  S. M. Sharada,  W. Skomorowski,  
 D. W. Small,  C. J. Stein,  Yu-Chuan Su,  E. J. Sundstrom,  Zhen Tao,  
 J. Thirman,  T. Tsuchimochi,  N. M. Tubman,  S. P. Veccham,  O. Vydrov,  
 J. Wenzel,  J. Witte,  A. Yamada,  Kun Yao,  S. Yeganeh,  S. R. Yost,  
 A. Zech,  Igor Ying Zhang,  Xing Zhang,  Yu Zhang,  D. Zuev,  
 A. Aspuru-Guzik,  A. T. Bell,  N. A. Besley,  K. B. Bravaya,  B. R. Brooks,  
 D. Casanova,  Jeng-Da Chai,  S. Coriani,  C. J. Cramer,  
 A. E. DePrince, III,  R. A. DiStasio Jr.,  A. Dreuw,  B. D. Dunietz,  
 T. R. Furlani,  W. A. Goddard III,  S. Grimme,  S. Hammes-Schiffer,  
 T. Head-Gordon,  W. J. Hehre,  Chao-Ping Hsu,  T.-C. Jagau,  Yousung Jung,  
 A. Klamt,  Jing Kong,  D. S. Lambrecht,  WanZhen Liang,  N. J. Mayhall,  
 C. W. McCurdy,  J. B. Neaton,  C. Ochsenfeld,  J. A. Parkhill,  R. Peverati,  
 V. A. Rassolov,  Yihan Shao,  L. V. Slipchenko,  T. Stauch,  R. P. Steele,  
 J. E. Subotnik,  A. J. W. Thom,  A. Tkatchenko,  D. G. Truhlar,  
 T. Van Voorhis,  T. A. Wesolowski,  K. B. Whaley,  H. L. Woodcock III,  
 P. M. Zimmerman,  S. Faraji,  P. M. W. Gill,  M. Head-Gordon,  
 J. M. Herbert,  A. I. Krylov

 Contributors to earlier versions of Q-Chem not listed above: 
 R. D. Adamson,  B. Austin,  R. Baer,  J. Baker,  G. J. O. Beran,  
 K. Brandhorst,  S. T. Brown,  E. F. C. Byrd,  A. K. Chakraborty,  
 G. K. L. Chan,  Chun-Min Chang,  Yunqing Chen,  C.-L. Cheng,  
 Siu Hung Chien,  D. M. Chipman,  D. L. Crittenden,  H. Dachsel,  
 R. J. Doerksen,  A. D. Dutoi,  R. G. Edgar,  J. Fosso-Tande,  
 L. Fusti-Molnar,  D. Ghosh,  A. Ghysels,  A. Golubeva-Zadorozhnaya,  
 J. Gonthier,  M. S. Gordon,  S. R. Gwaltney,  G. Hawkins,  J. E. Herr,  
 A. Heyden,  S. Hirata,  E. G. Hohenstein,  G. Kedziora,  F. J. Keil,  
 C. Kelley,  Jihan Kim,  R. A. King,  R. Z. Khaliullin,  P. P. Korambath,  
 W. Kurlancheek,  A. Laurent,  A. M. Lee,  M. S. Lee,  S. V. Levchenko,  
 Ching Yeh Lin,  D. Liotard,  E. Livshits,  R. C. Lochan,  I. Lotan,  
 L. A. Martinez-Martinez,  P. E. Maslen,  N. Nair,  D. P. O'Neill,  
 D. Neuhauser,  E. Neuscamman,  C. M. Oana,  R. Olivares-Amaya,  R. Olson,  
 T. M. Perrine,  B. Peters,  P. A. Pieniazek,  A. Prociuk,  Y. M. Rhee,  
 J. Ritchie,  M. A. Rohrdanz,  E. Rosta,  N. J. Russ,  H. F. Schaefer III,  
 M. W. Schmidt,  N. E. Schultz,  S. Sharma,  N. Shenvi,  C. D. Sherrill,  
 A. C. Simmonett,  A. Sodt,  T. Stein,  D. Stuck,  K. S. Thanthiriwatte,  
 V. Vanovschi,  L. Vogt,  Tao Wang,  A. Warshel,  M. A. Watson,  
 C. F. Williams,  Q. Wu,  X. Xu,  Jun Yang,  W. Zhang,  Yan Zhao

 Please cite Q-Chem as follows:
 Y. Shao et al., Mol. Phys. 113, 184-215 (2015)
 DOI: 10.1080/00268976.2014.952696

 Q-Chem 5.4.0 for Intel X86 EM64T Linux

 Parts of Q-Chem use Armadillo 9.800.1 (Horizon Scraper).
 http://arma.sourceforge.net/

 Q-Chem begins on Sun Sep 24 18:05:20 2023  

 Host: 
0

     Scratch files written to ./qchem958761//
 May1621 |scratch|qcdevops|jenkins|workspace|build_RNUM    
 Parallel job on  1  processors
 Processing $rem in /cm/shared/apps/spack/cpu/opt/spack/linux-centos8-zen2/gcc-10.2.0/qchem-5.4-akfmr7b3t57bfs6qan3padb2wnb2i7cl/config/preferences:
 Processing $rem in /home/rramji/.qchemrc:
 Symmetry turned off for PCM/SM12/SMD calculation
 Core orbitals will be frozen

 Checking the input file for inconsistencies... 	...done.

 Q-Chem warning in module forms1/BasisType.C, line 2236:

 You are not using the predefined 5D/6D in this basis set.


--------------------------------------------------------------
User input:
--------------------------------------------------------------
$molecule
0 1
C	0.175432	-8.519741	-0.208002
C	-0.352097	-7.635967	0.722164
S	0.936458	-7.651740	-1.563424
C	-0.160388	-6.261894	0.386833
H	-0.870905	-7.954738	1.635031
C	0.553685	-6.079985	-0.849637
C	0.816372	-4.798382	-1.357938
C	-0.627524	-5.153542	1.149702
C	-0.368399	-3.869626	0.638941
C	0.348912	-3.688927	-0.597409
O	-1.262667	-5.481075	2.309260
O	1.453338	-4.479871	-2.523296
C	2.449320	-5.356026	-3.036927
H	2.982577	-4.790496	-3.824632
H	2.011155	-6.268513	-3.497250
H	3.173591	-5.658187	-2.249807
C	-2.130793	-4.546999	2.939226
H	-2.663289	-5.107564	3.730721
H	-2.873906	-4.131473	2.225196
H	-1.572045	-3.712085	3.415077
C	0.536849	-2.314326	-0.930765
S	-0.763041	-2.295487	1.347913
C	-0.000000	-1.435180	-0.000000
H	1.057554	-1.993211	-1.841645
H	0.170535	-9.615985	-0.204438
C	0.000000	0.000000	0.000000
S	0.690437	0.576430	1.510732
C	1.896512	1.589852	0.727629
C	0.695720	0.583817	-1.064665
C	1.758621	1.477674	-0.678287
C	0.645928	0.539878	-2.486150
C	1.614763	1.352997	-3.106916
S	2.568261	2.157430	-1.965735
C	1.812707	1.512991	-4.559972
O	1.099523	0.910662	-5.350277
O	2.797769	2.335330	-5.004375
F	-0.205024	-0.179266	-3.246290
C	3.079074	2.558124	-6.334976
H	3.925910	3.267919	-6.370268
H	2.208109	2.990367	-6.875609
H	3.358147	1.618843	-6.861878
H	2.601331	2.181180	1.321510
$end

$rem
JOBTYPE		SP
EXCHANGE	HF
CORRELATION	pRIMP2
BASIS		cc-pvtz
METHOD		rimp2
AUX_BASIS	rimp2-cc-pvtz
SOLVENT_METHOD	PCM
PURECART	11111
SYMMETRY	false
MEM_TOTAL	110000
SCF_CONVERGENCE = 6
THRESH=10
GUI = 2
$end



$solvent
dielectric 4.90
$end
--------------------------------------------------------------
 ----------------------------------------------------------------
             Standard Nuclear Orientation (Angstroms)
    I     Atom           X                Y                Z
 ----------------------------------------------------------------
    1      C       0.1754320000    -8.5197410000    -0.2080020000
    2      C      -0.3520970000    -7.6359670000     0.7221640000
    3      S       0.9364580000    -7.6517400000    -1.5634240000
    4      C      -0.1603880000    -6.2618940000     0.3868330000
    5      H      -0.8709050000    -7.9547380000     1.6350310000
    6      C       0.5536850000    -6.0799850000    -0.8496370000
    7      C       0.8163720000    -4.7983820000    -1.3579380000
    8      C      -0.6275240000    -5.1535420000     1.1497020000
    9      C      -0.3683990000    -3.8696260000     0.6389410000
   10      C       0.3489120000    -3.6889270000    -0.5974090000
   11      O      -1.2626670000    -5.4810750000     2.3092600000
   12      O       1.4533380000    -4.4798710000    -2.5232960000
   13      C       2.4493200000    -5.3560260000    -3.0369270000
   14      H       2.9825770000    -4.7904960000    -3.8246320000
   15      H       2.0111550000    -6.2685130000    -3.4972500000
   16      H       3.1735910000    -5.6581870000    -2.2498070000
   17      C      -2.1307930000    -4.5469990000     2.9392260000
   18      H      -2.6632890000    -5.1075640000     3.7307210000
   19      H      -2.8739060000    -4.1314730000     2.2251960000
   20      H      -1.5720450000    -3.7120850000     3.4150770000
   21      C       0.5368490000    -2.3143260000    -0.9307650000
   22      S      -0.7630410000    -2.2954870000     1.3479130000
   23      C       0.0000000000    -1.4351800000     0.0000000000
   24      H       1.0575540000    -1.9932110000    -1.8416450000
   25      H       0.1705350000    -9.6159850000    -0.2044380000
   26      C       0.0000000000     0.0000000000     0.0000000000
   27      S       0.6904370000     0.5764300000     1.5107320000
   28      C       1.8965120000     1.5898520000     0.7276290000
   29      C       0.6957200000     0.5838170000    -1.0646650000
   30      C       1.7586210000     1.4776740000    -0.6782870000
   31      C       0.6459280000     0.5398780000    -2.4861500000
   32      C       1.6147630000     1.3529970000    -3.1069160000
   33      S       2.5682610000     2.1574300000    -1.9657350000
   34      C       1.8127070000     1.5129910000    -4.5599720000
   35      O       1.0995230000     0.9106620000    -5.3502770000
   36      O       2.7977690000     2.3353300000    -5.0043750000
   37      F      -0.2050240000    -0.1792660000    -3.2462900000
   38      C       3.0790740000     2.5581240000    -6.3349760000
   39      H       3.9259100000     3.2679190000    -6.3702680000
   40      H       2.2081090000     2.9903670000    -6.8756090000
   41      H       3.3581470000     1.6188430000    -6.8618780000
   42      H       2.6013310000     2.1811800000     1.3215100000
 ----------------------------------------------------------------
 Nuclear Repulsion Energy =        3357.47584730 hartrees
 There are      119 alpha and      119 beta electrons
 Requested basis set is cc-pVTZ
 There are 376 shells and 1068 basis functions

 Total QAlloc Memory Limit 110000 MB
 Mega-Array Size       188 MB
 MEM_STATIC part       192 MB
 Discretize the solute cavity surface with Lebedev spheres
	Using 110 Lebedev grid points for each H atom
	Using 194 Lebedev grid points for other atoms
	Atomic van der Waals radii will be scaled by 1.20
 Remove points where switching function is < 1.0e-08
 Keep 2827 surface tesserae and discard 4229 interior tesserae
 Molecular Surface Area = 434.435 Angst**2
 Requested basis set is rimp2-cc-pVTZ
 There are 833 shells and 2903 basis functions
 A cutoff of  1.0D-10 yielded  32429 shell pairs
 There are    247613 function pairs (    321006 Cartesian)
 Smallest overlap matrix eigenvalue = 2.14E-05

 Scale SEOQF with 1.000000e-01/1.000000e-02/1.000000e-02

 Standard Electronic Orientation quadrupole field applied
 Nucleus-field energy     =     0.0000000307 hartrees
 Guess from superposition of atomic densities
 Warning:  Energy on first SCF cycle will be non-variational
 SAD guess density has 238.000000 electrons

 -----------------------------------------------------------------------
  General SCF calculation program by
  Eric Jon Sundstrom, Paul Horn, Yuezhi Mao, Dmitri Zuev, Alec White,
  David Stuck, Shaama M.S., Shane Yost, Joonho Lee, David Small,
  Daniel Levine, Susi Lehtola, Hugh Burton, Evgeny Epifanovsky,
  Bang C. Huynh
 -----------------------------------------------------------------------
 Hartree-Fock
 using 64 threads for integral computing
 -------------------------------------------------------
 OpenMP Integral computing Module                
 Release: version 1.0, May 2013, Q-Chem Inc. Pittsburgh 
 -------------------------------------------------------
 A restricted SCF calculation will be
 performed using DIIS
 SCF converges when DIIS error is below 1.0e-06
 ---------------------------------------
  Cycle       Energy         DIIS error
 ---------------------------------------
    1   -2765.6241671184      1.77e-02  
    2   -2753.8132859876      1.58e-03  
    3   -2754.1551326144      8.91e-04  
    4   -2754.2412089363      2.56e-04  
    5   -2754.2529118893      6.96e-05  
    6   -2754.2540251673      2.50e-05  
    7   -2754.2542733175      1.18e-05  
    8   -2754.2543606239      5.08e-06  
    9   -2754.2543806350      2.55e-06  
   10   -2754.2543848418      1.28e-06  
   11   -2754.2543861789      5.61e-07  Convergence criterion met
 ---------------------------------------
 SCF time:   CPU 6998.58s  wall 257.00s 

************** Final PCM Free Energy Summary **************
 G_electrostatic  =      -0.02173865 hartree =     -13.64120793 kcal/mol
 G_cavitation     =       0.00000000 hartree =       0.00000000 kcal/mol
 G_dispersion     =       0.00000000 hartree =       0.00000000 kcal/mol
 G_repulsion      =       0.00000000 hartree =       0.00000000 kcal/mol
 --------------------------------------------------
 Non-electrostatic Free Energy =       0.00000000 hartree =       0.00000000 kcal/mol
 Total                         =      -0.02173865 hartree =     -13.64120793 kcal/mol
 --------------------------------------------------
 SCF Energy (H0 + V/2)                       =   -2754.25438618 
 Solute Internal Energy (H0)                 =   -2754.23264753 
 Total Free Energy (H0 + V/2 + non-elec)     =   -2754.25438618 hartree
                                             = -1728320.71287057 kcal/mol
***********************************************************

 SCF   energy in the final basis set =    -2754.2543861789
 Total energy in the final basis set =    -2754.2543861789


 --------------------------------------------------------------
  Generalized many-body perturbation theory program
  by Joonho Lee, Fazle Rob, Xintian Feng, Evgeny Epifanovsky

 No regularization used 
 (reg. param. = 0.0000e+00)
  (P|Q)^-1/2 Time:  CPU 136.76 s  wall 2.55 s

 In RI-MP2 calculation: 
 # of frozen core orbitals: 45

 Components of the RIMP2 correlation energy:
        aaaa    correlation energy =        -0.6738749704 a.u.
        abab    correlation energy =        -3.7203786563 a.u.
        bbbb    correlation energy =        -0.6738749704 a.u.
        non-Brillouin singles      =        -0.0000000000 a.u.
        total same-spin energy     =        -1.3477499408 a.u.
        total opposite-spin energy =        -3.7203786563 a.u.

 Total  RIMP2   correlation energy =        -5.0681285971 a.u.
        RIMP2         total energy =     -2759.3225147760 a.u.

 RI-MP2 Energy Time:  CPU 2930.88 s  wall 47.63 s
 
 --------------------------------------------------------------
 
                    Orbital Energies (a.u.)
 --------------------------------------------------------------
 
 Alpha MOs
 -- Occupied --
-92.0179 -92.0042 -91.9840 -91.9834 -26.3352 -20.6152 -20.5910 -20.5881
-20.5555 -11.4151 -11.3776 -11.3185 -11.3172 -11.3125 -11.3086 -11.3016
-11.2963 -11.2917 -11.2902 -11.2880 -11.2861 -11.2841 -11.2816 -11.2813
-11.2762 -11.2584 -11.2544 -11.2481 -11.2451  -9.0167  -9.0078  -8.9845
 -8.9839  -6.6974  -6.6966  -6.6963  -6.6890  -6.6883  -6.6871  -6.6655
 -6.6649  -6.6648  -6.6643  -6.6639  -6.6634  -1.6485  -1.4753  -1.4150
 -1.4109  -1.3712  -1.2418  -1.1934  -1.1698  -1.1446  -1.0843  -1.0521
 -1.0484  -1.0325  -0.9992  -0.9927  -0.9754  -0.9588  -0.9488  -0.9388
 -0.8941  -0.8746  -0.8453  -0.8026  -0.7975  -0.7867  -0.7742  -0.7701
 -0.7545  -0.7309  -0.7209  -0.7166  -0.6996  -0.6925  -0.6815  -0.6792
 -0.6765  -0.6618  -0.6574  -0.6504  -0.6265  -0.6178  -0.6151  -0.6106
 -0.6069  -0.6012  -0.5815  -0.5743  -0.5681  -0.5607  -0.5568  -0.5461
 -0.5334  -0.5260  -0.5239  -0.5165  -0.5144  -0.5073  -0.5066  -0.4965
 -0.4883  -0.4845  -0.4720  -0.4672  -0.4638  -0.4628  -0.4575  -0.4179
 -0.3948  -0.3828  -0.3561  -0.3524  -0.3234  -0.2869  -0.2476
 -- Virtual --
  0.0002   0.0766   0.1082   0.1249   0.1293   0.1453   0.1507   0.1548
  0.1568   0.1608   0.1621   0.1751   0.1813   0.1844   0.1906   0.1961
  0.2011   0.2053   0.2092   0.2162   0.2212   0.2232   0.2251   0.2259
  0.2321   0.2419   0.2473   0.2539   0.2567   0.2670   0.2750   0.2801
  0.2913   0.3087   0.3124   0.3240   0.3357   0.3381   0.3454   0.3521
  0.3553   0.3597   0.3678   0.3697   0.3752   0.3775   0.3831   0.3841
  0.3881   0.3917   0.3945   0.4055   0.4071   0.4114   0.4161   0.4231
  0.4300   0.4322   0.4340   0.4412   0.4426   0.4488   0.4541   0.4596
  0.4607   0.4679   0.4712   0.4752   0.4769   0.4828   0.4903   0.4936
  0.4945   0.5020   0.5048   0.5056   0.5121   0.5167   0.5178   0.5221
  0.5264   0.5341   0.5390   0.5409   0.5463   0.5512   0.5552   0.5559
  0.5585   0.5607   0.5637   0.5680   0.5703   0.5716   0.5773   0.5806
  0.5872   0.5902   0.5936   0.5984   0.6017   0.6081   0.6122   0.6144
  0.6164   0.6195   0.6233   0.6252   0.6288   0.6320   0.6348   0.6370
  0.6412   0.6462   0.6481   0.6513   0.6587   0.6601   0.6610   0.6736
  0.6764   0.6835   0.6843   0.6878   0.6973   0.6989   0.7023   0.7048
  0.7066   0.7123   0.7194   0.7261   0.7357   0.7405   0.7471   0.7483
  0.7589   0.7624   0.7683   0.7804   0.7824   0.7898   0.7965   0.7994
  0.8020   0.8093   0.8113   0.8172   0.8242   0.8294   0.8400   0.8489
  0.8538   0.8559   0.8648   0.8685   0.8725   0.8809   0.8816   0.8923
  0.8943   0.9031   0.9042   0.9123   0.9132   0.9200   0.9224   0.9330
  0.9367   0.9376   0.9431   0.9455   0.9544   0.9559   0.9652   0.9692
  0.9704   0.9715   0.9794   0.9859   0.9887   0.9956   0.9977   1.0027
  1.0096   1.0100   1.0158   1.0227   1.0240   1.0327   1.0415   1.0457
  1.0527   1.0541   1.0578   1.0597   1.0658   1.0680   1.0730   1.0769
  1.0812   1.0929   1.0959   1.1001   1.1022   1.1071   1.1114   1.1221
  1.1292   1.1318   1.1393   1.1441   1.1470   1.1558   1.1580   1.1610
  1.1637   1.1698   1.1730   1.1810   1.1845   1.1901   1.1951   1.2032
  1.2067   1.2117   1.2154   1.2181   1.2208   1.2246   1.2311   1.2341
  1.2416   1.2469   1.2514   1.2565   1.2601   1.2680   1.2750   1.2787
  1.2815   1.2880   1.2911   1.3032   1.3124   1.3137   1.3159   1.3247
  1.3272   1.3351   1.3392   1.3437   1.3488   1.3599   1.3640   1.3671
  1.3747   1.3823   1.3861   1.3937   1.3979   1.4091   1.4177   1.4284
  1.4394   1.4444   1.4495   1.4630   1.4748   1.4822   1.4863   1.4893
  1.4946   1.4988   1.5056   1.5084   1.5110   1.5148   1.5205   1.5332
  1.5358   1.5382   1.5401   1.5423   1.5473   1.5513   1.5565   1.5627
  1.5742   1.5847   1.5913   1.5975   1.6056   1.6122   1.6230   1.6338
  1.6403   1.6455   1.6519   1.6570   1.6640   1.6719   1.6759   1.6892
  1.6910   1.6962   1.7115   1.7144   1.7201   1.7331   1.7403   1.7457
  1.7549   1.7637   1.7663   1.7873   1.7994   1.8065   1.8149   1.8170
  1.8271   1.8302   1.8429   1.8470   1.8504   1.8654   1.8683   1.8732
  1.8834   1.8882   1.8981   1.9070   1.9094   1.9182   1.9236   1.9311
  1.9362   1.9525   1.9587   1.9599   1.9725   1.9819   1.9860   1.9976
  2.0053   2.0115   2.0155   2.0273   2.0337   2.0451   2.0583   2.0862
  2.0915   2.0949   2.0999   2.1077   2.1110   2.1262   2.1321   2.1427
  2.1431   2.1574   2.1628   2.1687   2.1710   2.1825   2.1870   2.1901
  2.1992   2.2025   2.2126   2.2148   2.2253   2.2342   2.2394   2.2506
  2.2565   2.2592   2.2606   2.2664   2.2759   2.2811   2.2843   2.2925
  2.3052   2.3130   2.3168   2.3249   2.3352   2.3467   2.3547   2.3571
  2.3632   2.3755   2.3926   2.3931   2.4032   2.4082   2.4134   2.4243
  2.4345   2.4446   2.4468   2.4547   2.4599   2.4698   2.4850   2.4908
  2.4997   2.5081   2.5160   2.5255   2.5283   2.5303   2.5500   2.5582
  2.5628   2.5809   2.5856   2.6027   2.6093   2.6154   2.6204   2.6224
  2.6292   2.6371   2.6388   2.6484   2.6524   2.6575   2.6696   2.6773
  2.6804   2.6855   2.6918   2.7003   2.7008   2.7065   2.7163   2.7198
  2.7247   2.7297   2.7353   2.7418   2.7542   2.7568   2.7612   2.7732
  2.7782   2.7870   2.7904   2.8022   2.8079   2.8147   2.8206   2.8328
  2.8355   2.8371   2.8476   2.8499   2.8610   2.8679   2.8748   2.8775
  2.8803   2.8851   2.8903   2.8960   2.9049   2.9229   2.9284   2.9449
  2.9492   2.9577   2.9661   2.9699   2.9808   2.9859   2.9992   3.0073
  3.0159   3.0200   3.0265   3.0344   3.0371   3.0401   3.0435   3.0487
  3.0584   3.0628   3.0730   3.0753   3.0893   3.0905   3.0943   3.1025
  3.1060   3.1084   3.1163   3.1232   3.1289   3.1392   3.1483   3.1521
  3.1563   3.1625   3.1642   3.1706   3.1723   3.1817   3.1879   3.1890
  3.1956   3.1997   3.2010   3.2058   3.2142   3.2253   3.2263   3.2302
  3.2358   3.2373   3.2438   3.2461   3.2547   3.2605   3.2683   3.2742
  3.2758   3.2809   3.2833   3.2877   3.2913   3.2979   3.2993   3.3027
  3.3100   3.3212   3.3265   3.3332   3.3348   3.3432   3.3453   3.3544
  3.3548   3.3562   3.3629   3.3675   3.3685   3.3738   3.3762   3.3828
  3.3866   3.3923   3.3930   3.3991   3.4018   3.4090   3.4131   3.4211
  3.4271   3.4311   3.4384   3.4420   3.4430   3.4484   3.4516   3.4597
  3.4652   3.4688   3.4730   3.4768   3.4856   3.4920   3.4971   3.4983
  3.5064   3.5132   3.5180   3.5212   3.5276   3.5300   3.5387   3.5413
  3.5467   3.5486   3.5566   3.5632   3.5710   3.5779   3.5796   3.5845
  3.5913   3.5946   3.6003   3.6033   3.6079   3.6113   3.6187   3.6285
  3.6337   3.6345   3.6421   3.6522   3.6553   3.6583   3.6619   3.6677
  3.6749   3.6784   3.6827   3.6917   3.6934   3.6965   3.7064   3.7077
  3.7134   3.7156   3.7238   3.7257   3.7287   3.7345   3.7379   3.7479
  3.7507   3.7563   3.7608   3.7704   3.7742   3.7829   3.7854   3.7918
  3.8012   3.8016   3.8072   3.8157   3.8183   3.8283   3.8293   3.8371
  3.8396   3.8434   3.8533   3.8546   3.8610   3.8645   3.8760   3.8775
  3.8803   3.8931   3.9009   3.9046   3.9105   3.9161   3.9263   3.9291
  3.9362   3.9421   3.9523   3.9581   3.9666   3.9806   3.9855   3.9909
  3.9971   4.0116   4.0149   4.0212   4.0275   4.0324   4.0391   4.0455
  4.0536   4.0612   4.0668   4.0748   4.0796   4.0816   4.0909   4.0937
  4.0982   4.1076   4.1221   4.1259   4.1395   4.1440   4.1526   4.1619
  4.1686   4.1710   4.1743   4.1834   4.1888   4.1913   4.1965   4.2148
  4.2215   4.2332   4.2386   4.2414   4.2470   4.2593   4.2637   4.2845
  4.2857   4.3014   4.3097   4.3255   4.3373   4.3446   4.3473   4.3493
  4.3656   4.3740   4.3777   4.3799   4.3885   4.3924   4.3970   4.4045
  4.4087   4.4144   4.4191   4.4244   4.4328   4.4397   4.4410   4.4531
  4.4718   4.4749   4.4836   4.4968   4.5053   4.5083   4.5126   4.5133
  4.5343   4.5420   4.5553   4.5573   4.5622   4.5693   4.5865   4.5936
  4.6120   4.6177   4.6258   4.6347   4.6371   4.6440   4.6514   4.6550
  4.6580   4.6666   4.6811   4.6839   4.6876   4.7100   4.7172   4.7322
  4.7397   4.7525   4.7538   4.7788   4.7866   4.7899   4.8136   4.8229
  4.8347   4.8424   4.8564   4.8608   4.8718   4.8834   4.9016   4.9311
  4.9382   4.9482   4.9577   4.9648   4.9707   4.9880   4.9973   5.0025
  5.0072   5.0107   5.0128   5.0355   5.0503   5.0625   5.0677   5.0761
  5.0816   5.1029   5.1180   5.1391   5.1636   5.1746   5.1901   5.1910
  5.1982   5.2115   5.2182   5.2394   5.2534   5.2572   5.2586   5.2830
  5.3017   5.3133   5.3244   5.3289   5.3452   5.3501   5.3535   5.3718
  5.3821   5.3896   5.4023   5.4029   5.4154   5.4412   5.4659   5.4716
  5.4737   5.4816   5.4899   5.5067   5.5133   5.5186   5.5364   5.5674
  5.5754   5.5851   5.5933   5.6077   5.6137   5.6347   5.6445   5.6757
  5.7212   5.7354   5.7978   5.8033   5.8126   5.8292   5.8405   5.8562
  5.8760   5.8860   5.9270   5.9633   5.9661   5.9787   5.9997   6.0257
  6.0631   6.1001   6.1122   6.1231   6.1316   6.1722   6.1809   6.1837
  6.2398   6.2529   6.2719   6.2795   6.3059   6.3093   6.3200   6.3885
  6.4301   6.4491   6.4874   6.5067   6.5506   6.5529   6.5606   6.6575
  6.6720   6.6796   6.7076   6.7334   6.7491   6.8046   6.8432   6.8562
  6.8795   6.8961   6.9866   7.1244   7.1391   7.1754   7.2080   7.2173
  7.2379   7.3223   7.3250   7.3350   7.3736   7.3757   7.4231   7.4596
  7.4799   7.4865   7.4912   7.5179   7.5449   7.6035   7.7170   7.7705
  7.7998   7.8282   7.9014   7.9251   7.9501   8.0037   8.0935   8.1625
  8.5229   8.9471   9.0120   9.3691   9.4956   9.6937  10.2110  10.4657
 11.2268  11.3464  11.9358  12.0485  12.1375  12.2939  12.4957  12.5787
 12.6020  12.7325  12.9712  13.2746  13.3382  13.5909  13.8456  13.8754
 13.9039  14.0363  14.1316  14.6418  15.2064
 --------------------------------------------------------------
 
          Ground-State Mulliken Net Atomic Charges

     Atom                 Charge (a.u.)
  ----------------------------------------
      1 C                    -0.195352
      2 C                    -0.254073
      3 S                    -0.025868
      4 C                    -0.020409
      5 H                     0.195409
      6 C                    -0.025192
      7 C                     0.238181
      8 C                     0.245841
      9 C                    -0.043245
     10 C                    -0.024758
     11 O                    -0.333778
     12 O                    -0.341345
     13 C                    -0.085835
     14 H                     0.122018
     15 H                     0.090904
     16 H                     0.092547
     17 C                    -0.087101
     18 H                     0.125209
     19 H                     0.095043
     20 H                     0.088857
     21 C                    -0.243355
     22 S                    -0.048208
     23 C                     0.016624
     24 H                     0.186765
     25 H                     0.205165
     26 C                    -0.107039
     27 S                     0.135401
     28 C                    -0.175464
     29 C                    -0.048124
     30 C                    -0.024673
     31 C                     0.341288
     32 C                    -0.127702
     33 S                     0.069139
     34 C                     0.459489
     35 O                    -0.441219
     36 O                    -0.297191
     37 F                    -0.212739
     38 C                    -0.054544
     39 H                     0.117300
     40 H                     0.085565
     41 H                     0.085376
     42 H                     0.221092
  ----------------------------------------
  Sum of atomic charges =     0.000000

 -----------------------------------------------------------------
                    Cartesian Multipole Moments
 -----------------------------------------------------------------
    Charge (ESU x 10^10)
                 0.0000
    Dipole Moment (Debye)
         X       4.1832      Y       2.8077      Z       3.1854
       Tot       5.9606
    Quadrupole Moments (Debye-Ang)
        XX    -178.4795     XY       8.9130     YY    -174.2428
        XZ     -21.5782     YZ      -8.7591     ZZ    -190.6551
    Octopole Moments (Debye-Ang^2)
       XXX    -390.2729    XXY     431.4812    XYY    -108.9876
       YYY    1089.6662    XXZ     152.0924    XYZ      34.7580
       YYZ     164.9678    XZZ     -46.7555    YZZ     473.8728
       ZZZ     574.2264
    Hexadecapole Moments (Debye-Ang^3)
      XXXX   -2577.9740   XXXY    -309.8447   XXYY   -3682.5386
      XYYY    -392.1453   YYYY  -17592.9116   XXXZ    1489.2484
      XXYZ     102.5470   XYYZ     156.4696   YYYZ     485.1572
      XXZZ   -1237.6564   XYZZ     128.0819   YYZZ   -4239.8186
      XZZZ     958.6481   YZZZ      25.3660   ZZZZ   -7029.7145
 -----------------------------------------------------------------
 Total job time:  318.57s(wall), 10674.53s(cpu) 
 Sun Sep 24 18:10:39 2023

        *************************************************************
        *                                                           *
        *  Thank you very much for using Q-Chem.  Have a nice day.  *
        *                                                           *
        *************************************************************


0 sent ACK to 0 
now end server 0 ... 
cleanup process ... done
remove work dirs ./qchem958761.0 -- ./qchem958761.0
rm -rf ./qchem958761.0
rm -rf ./qchem958761
