You are running Q-Chem version: 5.4.0

#
# job setting
#
local host:  exp-1-48
current dir: /expanse/lustre/projects/csd626/rramji/aromodel/PTB7_fin/Rotation_Test
input file:  fin_bdt_Phi_25_Theta_40_fin_ftt.qcin
output file: 
nprocs     : 1
nthreads   : 64
#
# qchem installation setting
#
QC:          /cm/shared/apps/spack/cpu/opt/spack/linux-centos8-zen2/gcc-10.2.0/qchem-5.4-akfmr7b3t57bfs6qan3padb2wnb2i7cl
QCAUX:       /cm/shared/apps/spack/cpu/opt/spack/linux-centos8-zen2/gcc-10.2.0/qchem-5.4-akfmr7b3t57bfs6qan3padb2wnb2i7cl/qcaux
QCPROG:      /cm/shared/apps/spack/cpu/opt/spack/linux-centos8-zen2/gcc-10.2.0/qchem-5.4-akfmr7b3t57bfs6qan3padb2wnb2i7cl/exe/qcprog.exe
QCPROG_S:    /cm/shared/apps/spack/cpu/opt/spack/linux-centos8-zen2/gcc-10.2.0/qchem-5.4-akfmr7b3t57bfs6qan3padb2wnb2i7cl/exe/qcprog.exe_s
PARALLEL:    -DPARALLEL
QCMPI:       mpich
#
# qchem directory setting
#
qcrun:       qchem153111
QCSCRATCH:   .
QCLOCALSCR:  
QCTMPDIR:    .
QCFILEPREF:  ./qchem153111
QCSAVEDIR:   
workdirs:    ./qchem153111
workdir0:    ./qchem153111
partmpdirs =  
#
# parallel setting
#
QCRSH:           ssh
QCMPI:           mpich
QCMPIRUN:        /cm/shared/apps/spack/cpu/opt/spack/linux-centos8-zen2/gcc-10.2.0/qchem-5.4-akfmr7b3t57bfs6qan3padb2wnb2i7cl/bin/mpi/mpirun_qchem
QCMACHINEFILE:   ./qchem153111/hostfile
exp-1-48

#
# env setting
#
exported envs:   QC QCAUX QCSCRATCH QCRUNNAME QCFILEPREF QCPROG QCPROG_S GUIFILE

Running Job 1 of 1 fin_bdt_Phi_25_Theta_40_fin_ftt.qcin
qchem fin_bdt_Phi_25_Theta_40_fin_ftt.qcin_153111.0 ./qchem153111/ 1
/cm/shared/apps/spack/cpu/opt/spack/linux-centos8-zen2/gcc-10.2.0/qchem-5.4-akfmr7b3t57bfs6qan3padb2wnb2i7cl/bin/mpi/mpirun_qchem -machinefile ./qchem153111/hostfile -np 1 /cm/shared/apps/spack/cpu/opt/spack/linux-centos8-zen2/gcc-10.2.0/qchem-5.4-akfmr7b3t57bfs6qan3padb2wnb2i7cl/exe/qcprog.exe fin_bdt_Phi_25_Theta_40_fin_ftt.qcin_153111.0 ./qchem153111/

Process 0 of 1 is on exp-1-48 - thread support 0
initial socket setup ...start
initial socket setup ...done 
now start server 0 ... 
                  Welcome to Q-Chem
     A Quantum Leap Into The Future Of Chemistry


 Q-Chem 5.4, Q-Chem, Inc., Pleasanton, CA (2021)

 License issued to: University of California, San Diego (site)

 E. Epifanovsky,  A. T. B. Gilbert,  Xintian Feng,  Joonho Lee,  Yuezhi Mao,  
 N. Mardirossian,  P. Pokhilko,  A. White,  M. Wormit,  M. P. Coons,  
 A. L. Dempwolff,  Zhengting Gan,  D. Hait,  P. R. Horn,  L. D. Jacobson,  
 I. Kaliman,  J. Kussmann,  A. W. Lange,  Ka Un Lao,  D. S. Levine,  Jie Liu,  
 S. C. McKenzie,  A. F. Morrison,  K. Nanda,  F. Plasser,  D. R. Rehn,  
 M. L. Vidal,  Zhi-Qiang You,  Ying Zhu,  B. Alam,  B. Albrecht,  
 A. Aldossary,  E. Alguire,  J. H. Andersen,  D. Barton,  K. Begam,  A. Behn,  
 Y. A. Bernard,  E. J. Berquist,  H. Burton,  A. Carreras,  K. Carter-Fenk,  
 R. Chakraborty,  A. D. Chien,  K. D. Closser,  V. Cofer-Shabica,  
 S. Dasgupta,  Jia Deng,  M. de Wergifosse,  M. Diedenhofen,  Hainam Do,  
 S. Ehlert,  Po-Tung Fang,  S. Fatehi,  Qingguo Feng,  J. Gayvert,  
 Qinghui Ge,  G. Gidofalvi,  M. Goldey,  J. Gomes,  C. Gonzalez-Espinoza,  
 S. Gulania,  A. Gunina,  M. W. D. Hanson-Heine,  P. H. P. Harbach,  
 A. W. Hauser,  M. F. Herbst,  M. Hernandez Vera,  M. Hodecker,  
 Z. C. Holden,  S. Houck,  Xunkun Huang,  Kerwin Hui,  B. C. Huynh,  
 M. Ivanov,  Hyunjun Ji,  Hanjie Jiang,  B. Kaduk,  S. Kaehler,  
 K. Khistyaev,  Jaehoon Kim,  P. Klunzinger,  Z. Koczor-Benda,  
 Joong Hoon Koh,  D. Kosenkov,  L. Koulias,  T. Kowalczyk,  C. M. Krauter,  
 K. Kue,  A. Kunitsa,  T. Kus,  A. Landau,  K. V. Lawler,  D. Lefrancois,  
 S. Lehtola,  Rain Li,  Yi-Pei Li,  Jiashu Liang,  M. Liebenthal,  
 Hung-Hsuan Lin,  You-Sheng Lin,  Fenglai Liu,  Kuan-Yu Liu,  
 M. Loipersberger,  A. Luenser,  A. Manjanath,  P. Manohar,  E. Mansoor,  
 S. F. Manzer,  Shan-Ping Mao,  A. V. Marenich,  T. Markovich,  S. Mason,  
 S. A. Maurer,  P. F. McLaughlin,  M. F. S. J. Menger,  J.-M. Mewes,  
 S. A. Mewes,  P. Morgante,  J. W. Mullinax,  T. S. Nguyen-Beck,  
 K. J. Oosterbaan,  G. Paran,  Alexander C. Paul,  Suranjan K. Paul,  
 F. Pavosevic,  Zheng Pei,  S. Prager,  E. I. Proynov,  E. Ramos,  B. Rana,  
 A. E. Rask,  A. Rettig,  R. M. Richard,  F. Rob,  E. Rossomme,  T. Scheele,  
 M. Scheurer,  M. Schneider,  N. Sergueev,  S. M. Sharada,  W. Skomorowski,  
 D. W. Small,  C. J. Stein,  Yu-Chuan Su,  E. J. Sundstrom,  Zhen Tao,  
 J. Thirman,  T. Tsuchimochi,  N. M. Tubman,  S. P. Veccham,  O. Vydrov,  
 J. Wenzel,  J. Witte,  A. Yamada,  Kun Yao,  S. Yeganeh,  S. R. Yost,  
 A. Zech,  Igor Ying Zhang,  Xing Zhang,  Yu Zhang,  D. Zuev,  
 A. Aspuru-Guzik,  A. T. Bell,  N. A. Besley,  K. B. Bravaya,  B. R. Brooks,  
 D. Casanova,  Jeng-Da Chai,  S. Coriani,  C. J. Cramer,  
 A. E. DePrince, III,  R. A. DiStasio Jr.,  A. Dreuw,  B. D. Dunietz,  
 T. R. Furlani,  W. A. Goddard III,  S. Grimme,  S. Hammes-Schiffer,  
 T. Head-Gordon,  W. J. Hehre,  Chao-Ping Hsu,  T.-C. Jagau,  Yousung Jung,  
 A. Klamt,  Jing Kong,  D. S. Lambrecht,  WanZhen Liang,  N. J. Mayhall,  
 C. W. McCurdy,  J. B. Neaton,  C. Ochsenfeld,  J. A. Parkhill,  R. Peverati,  
 V. A. Rassolov,  Yihan Shao,  L. V. Slipchenko,  T. Stauch,  R. P. Steele,  
 J. E. Subotnik,  A. J. W. Thom,  A. Tkatchenko,  D. G. Truhlar,  
 T. Van Voorhis,  T. A. Wesolowski,  K. B. Whaley,  H. L. Woodcock III,  
 P. M. Zimmerman,  S. Faraji,  P. M. W. Gill,  M. Head-Gordon,  
 J. M. Herbert,  A. I. Krylov

 Contributors to earlier versions of Q-Chem not listed above: 
 R. D. Adamson,  B. Austin,  R. Baer,  J. Baker,  G. J. O. Beran,  
 K. Brandhorst,  S. T. Brown,  E. F. C. Byrd,  A. K. Chakraborty,  
 G. K. L. Chan,  Chun-Min Chang,  Yunqing Chen,  C.-L. Cheng,  
 Siu Hung Chien,  D. M. Chipman,  D. L. Crittenden,  H. Dachsel,  
 R. J. Doerksen,  A. D. Dutoi,  R. G. Edgar,  J. Fosso-Tande,  
 L. Fusti-Molnar,  D. Ghosh,  A. Ghysels,  A. Golubeva-Zadorozhnaya,  
 J. Gonthier,  M. S. Gordon,  S. R. Gwaltney,  G. Hawkins,  J. E. Herr,  
 A. Heyden,  S. Hirata,  E. G. Hohenstein,  G. Kedziora,  F. J. Keil,  
 C. Kelley,  Jihan Kim,  R. A. King,  R. Z. Khaliullin,  P. P. Korambath,  
 W. Kurlancheek,  A. Laurent,  A. M. Lee,  M. S. Lee,  S. V. Levchenko,  
 Ching Yeh Lin,  D. Liotard,  E. Livshits,  R. C. Lochan,  I. Lotan,  
 L. A. Martinez-Martinez,  P. E. Maslen,  N. Nair,  D. P. O'Neill,  
 D. Neuhauser,  E. Neuscamman,  C. M. Oana,  R. Olivares-Amaya,  R. Olson,  
 T. M. Perrine,  B. Peters,  P. A. Pieniazek,  A. Prociuk,  Y. M. Rhee,  
 J. Ritchie,  M. A. Rohrdanz,  E. Rosta,  N. J. Russ,  H. F. Schaefer III,  
 M. W. Schmidt,  N. E. Schultz,  S. Sharma,  N. Shenvi,  C. D. Sherrill,  
 A. C. Simmonett,  A. Sodt,  T. Stein,  D. Stuck,  K. S. Thanthiriwatte,  
 V. Vanovschi,  L. Vogt,  Tao Wang,  A. Warshel,  M. A. Watson,  
 C. F. Williams,  Q. Wu,  X. Xu,  Jun Yang,  W. Zhang,  Yan Zhao

 Please cite Q-Chem as follows:
 Y. Shao et al., Mol. Phys. 113, 184-215 (2015)
 DOI: 10.1080/00268976.2014.952696

 Q-Chem 5.4.0 for Intel X86 EM64T Linux

 Parts of Q-Chem use Armadillo 9.800.1 (Horizon Scraper).
 http://arma.sourceforge.net/

 Q-Chem begins on Tue Sep 26 17:47:18 2023  

 Host: 
0

     Scratch files written to ./qchem153111//
 May1621 |scratch|qcdevops|jenkins|workspace|build_RNUM    
 Parallel job on  1  processors
 Processing $rem in /cm/shared/apps/spack/cpu/opt/spack/linux-centos8-zen2/gcc-10.2.0/qchem-5.4-akfmr7b3t57bfs6qan3padb2wnb2i7cl/config/preferences:
 Processing $rem in /home/rramji/.qchemrc:
 Symmetry turned off for PCM/SM12/SMD calculation
 Core orbitals will be frozen

 Checking the input file for inconsistencies... 	...done.

 Q-Chem warning in module forms1/BasisType.C, line 2236:

 You are not using the predefined 5D/6D in this basis set.


--------------------------------------------------------------
User input:
--------------------------------------------------------------
$molecule
0 1
C	-0.208886	-8.519741	0.174379
C	0.472151	-7.635967	-0.650052
S	-1.193717	-7.651740	1.377058
C	0.225125	-6.261894	-0.353105
H	1.141594	-7.954738	-1.458961
C	-0.692811	-6.079985	0.740583
C	-1.039773	-4.798382	1.195546
C	0.817634	-5.153542	-1.023267
C	0.473754	-3.869626	-0.565262
C	-0.447350	-3.688927	0.527745
O	1.644483	-5.481075	-2.054917
O	-1.869424	-4.479871	2.232592
C	-2.939466	-5.356026	2.565470
H	-3.601405	-4.790496	3.248608
H	-2.587892	-6.268513	3.094885
H	-3.516052	-5.658187	1.664539
C	2.608813	-4.546999	-2.524564
H	3.270661	-5.107564	-3.211568
H	3.216646	-4.131473	-1.692342
H	2.141184	-3.712085	-3.090211
C	-0.690319	-2.314326	0.823402
S	0.985511	-2.295487	-1.194935
C	-0.000000	-1.435180	-0.000000
H	-1.361286	-1.993211	1.630024
H	-0.203444	-9.615985	0.171719
C	0.000000	0.000000	0.000000
S	0.382139	0.814215	1.510732
C	1.046923	2.242395	0.727629
C	0.383804	0.823142	-1.064665
C	0.969360	2.082453	-0.678287
C	0.357247	0.762277	-2.486150
C	0.891671	1.908660	-3.106916
S	1.415865	3.040689	-1.965735
C	1.003453	2.137318	-4.559972
O	0.611644	1.290019	-5.350277
O	1.548687	3.298916	-5.004375
F	-0.110054	-0.249117	-3.246290
C	1.709479	3.619721	-6.334976
H	2.177001	4.620902	-6.370268
H	0.737443	3.643380	-6.875609
H	2.359363	2.886384	-6.861878
H	1.435800	3.076190	1.321510
$end

$rem
JOBTYPE		SP
EXCHANGE	HF
CORRELATION	pRIMP2
BASIS		cc-pvtz
METHOD		rimp2
AUX_BASIS	rimp2-cc-pvtz
SOLVENT_METHOD	PCM
PURECART	11111
SYMMETRY	false
MEM_TOTAL	110000
SCF_CONVERGENCE = 6
THRESH=10
GUI = 2
$end



$solvent
dielectric 4.90
$end
--------------------------------------------------------------
 ----------------------------------------------------------------
             Standard Nuclear Orientation (Angstroms)
    I     Atom           X                Y                Z
 ----------------------------------------------------------------
    1      C      -0.2088860000    -8.5197410000     0.1743790000
    2      C       0.4721510000    -7.6359670000    -0.6500520000
    3      S      -1.1937170000    -7.6517400000     1.3770580000
    4      C       0.2251250000    -6.2618940000    -0.3531050000
    5      H       1.1415940000    -7.9547380000    -1.4589610000
    6      C      -0.6928110000    -6.0799850000     0.7405830000
    7      C      -1.0397730000    -4.7983820000     1.1955460000
    8      C       0.8176340000    -5.1535420000    -1.0232670000
    9      C       0.4737540000    -3.8696260000    -0.5652620000
   10      C      -0.4473500000    -3.6889270000     0.5277450000
   11      O       1.6444830000    -5.4810750000    -2.0549170000
   12      O      -1.8694240000    -4.4798710000     2.2325920000
   13      C      -2.9394660000    -5.3560260000     2.5654700000
   14      H      -3.6014050000    -4.7904960000     3.2486080000
   15      H      -2.5878920000    -6.2685130000     3.0948850000
   16      H      -3.5160520000    -5.6581870000     1.6645390000
   17      C       2.6088130000    -4.5469990000    -2.5245640000
   18      H       3.2706610000    -5.1075640000    -3.2115680000
   19      H       3.2166460000    -4.1314730000    -1.6923420000
   20      H       2.1411840000    -3.7120850000    -3.0902110000
   21      C      -0.6903190000    -2.3143260000     0.8234020000
   22      S       0.9855110000    -2.2954870000    -1.1949350000
   23      C       0.0000000000    -1.4351800000     0.0000000000
   24      H      -1.3612860000    -1.9932110000     1.6300240000
   25      H      -0.2034440000    -9.6159850000     0.1717190000
   26      C       0.0000000000     0.0000000000     0.0000000000
   27      S       0.3821390000     0.8142150000     1.5107320000
   28      C       1.0469230000     2.2423950000     0.7276290000
   29      C       0.3838040000     0.8231420000    -1.0646650000
   30      C       0.9693600000     2.0824530000    -0.6782870000
   31      C       0.3572470000     0.7622770000    -2.4861500000
   32      C       0.8916710000     1.9086600000    -3.1069160000
   33      S       1.4158650000     3.0406890000    -1.9657350000
   34      C       1.0034530000     2.1373180000    -4.5599720000
   35      O       0.6116440000     1.2900190000    -5.3502770000
   36      O       1.5486870000     3.2989160000    -5.0043750000
   37      F      -0.1100540000    -0.2491170000    -3.2462900000
   38      C       1.7094790000     3.6197210000    -6.3349760000
   39      H       2.1770010000     4.6209020000    -6.3702680000
   40      H       0.7374430000     3.6433800000    -6.8756090000
   41      H       2.3593630000     2.8863840000    -6.8618780000
   42      H       1.4358000000     3.0761900000     1.3215100000
 ----------------------------------------------------------------
 Nuclear Repulsion Energy =        3326.19175935 hartrees
 There are      119 alpha and      119 beta electrons
 Requested basis set is cc-pVTZ
 There are 376 shells and 1068 basis functions

 Total QAlloc Memory Limit 110000 MB
 Mega-Array Size       188 MB
 MEM_STATIC part       192 MB
 Discretize the solute cavity surface with Lebedev spheres
	Using 110 Lebedev grid points for each H atom
	Using 194 Lebedev grid points for other atoms
	Atomic van der Waals radii will be scaled by 1.20
 Remove points where switching function is < 1.0e-08
 Keep 2883 surface tesserae and discard 4173 interior tesserae
 Molecular Surface Area = 436.147 Angst**2
 Requested basis set is rimp2-cc-pVTZ
 There are 833 shells and 2903 basis functions
 A cutoff of  1.0D-10 yielded  31517 shell pairs
 There are    242033 function pairs (    314203 Cartesian)
 Smallest overlap matrix eigenvalue = 2.17E-05

 Scale SEOQF with 1.000000e-01/1.000000e-02/1.000000e-02

 Standard Electronic Orientation quadrupole field applied
 Nucleus-field energy     =     0.0000000277 hartrees
 Guess from superposition of atomic densities
 Warning:  Energy on first SCF cycle will be non-variational
 SAD guess density has 238.000000 electrons

 -----------------------------------------------------------------------
  General SCF calculation program by
  Eric Jon Sundstrom, Paul Horn, Yuezhi Mao, Dmitri Zuev, Alec White,
  David Stuck, Shaama M.S., Shane Yost, Joonho Lee, David Small,
  Daniel Levine, Susi Lehtola, Hugh Burton, Evgeny Epifanovsky,
  Bang C. Huynh
 -----------------------------------------------------------------------
 Hartree-Fock
 using 64 threads for integral computing
 -------------------------------------------------------
 OpenMP Integral computing Module                
 Release: version 1.0, May 2013, Q-Chem Inc. Pittsburgh 
 -------------------------------------------------------
 A restricted SCF calculation will be
 performed using DIIS
 SCF converges when DIIS error is below 1.0e-06
 ---------------------------------------
  Cycle       Energy         DIIS error
 ---------------------------------------
    1   -2765.5548631740      1.77e-02  
    2   -2753.8479052584      1.58e-03  
    3   -2754.1875743524      8.87e-04  
    4   -2754.2727943650      2.55e-04  
    5   -2754.2844817714      6.82e-05  
    6   -2754.2855711926      2.39e-05  
    7   -2754.2858172495      1.16e-05  
    8   -2754.2859002083      4.59e-06  
    9   -2754.2859177703      1.99e-06  
   10   -2754.2859204155      8.40e-07  Convergence criterion met
 ---------------------------------------
 SCF time:   CPU 6589.21s  wall 259.00s 

************** Final PCM Free Energy Summary **************
 G_electrostatic  =      -0.02007291 hartree =     -12.59594300 kcal/mol
 G_cavitation     =       0.00000000 hartree =       0.00000000 kcal/mol
 G_dispersion     =       0.00000000 hartree =       0.00000000 kcal/mol
 G_repulsion      =       0.00000000 hartree =       0.00000000 kcal/mol
 --------------------------------------------------
 Non-electrostatic Free Energy =       0.00000000 hartree =       0.00000000 kcal/mol
 Total                         =      -0.02007291 hartree =     -12.59594300 kcal/mol
 --------------------------------------------------
 SCF Energy (H0 + V/2)                       =   -2754.28592042 
 Solute Internal Energy (H0)                 =   -2754.26584750 
 Total Free Energy (H0 + V/2 + non-elec)     =   -2754.28592042 hartree
                                             = -1728340.50090268 kcal/mol
***********************************************************

 SCF   energy in the final basis set =    -2754.2859204155
 Total energy in the final basis set =    -2754.2859204155


 --------------------------------------------------------------
  Generalized many-body perturbation theory program
  by Joonho Lee, Fazle Rob, Xintian Feng, Evgeny Epifanovsky

 No regularization used 
 (reg. param. = 0.0000e+00)
  (P|Q)^-1/2 Time:  CPU 190.31 s  wall 3.34 s

 In RI-MP2 calculation: 
 # of frozen core orbitals: 45

 Components of the RIMP2 correlation energy:
        aaaa    correlation energy =        -0.6718947616 a.u.
        abab    correlation energy =        -3.7146060049 a.u.
        bbbb    correlation energy =        -0.6718947616 a.u.
        non-Brillouin singles      =        -0.0000000000 a.u.
        total same-spin energy     =        -1.3437895231 a.u.
        total opposite-spin energy =        -3.7146060049 a.u.

 Total  RIMP2   correlation energy =        -5.0583955280 a.u.
        RIMP2         total energy =     -2759.3443159435 a.u.

 RI-MP2 Energy Time:  CPU 2738.60 s  wall 47.85 s
 
 --------------------------------------------------------------
 
                    Orbital Energies (a.u.)
 --------------------------------------------------------------
 
 Alpha MOs
 -- Occupied --
-92.0162 -91.9967 -91.9886 -91.9859 -26.3339 -20.6126 -20.5917 -20.5912
-20.5509 -11.4111 -11.3778 -11.3188 -11.3171 -11.3070 -11.2993 -11.2986
-11.2974 -11.2952 -11.2888 -11.2863 -11.2860 -11.2854 -11.2839 -11.2836
-11.2792 -11.2608 -11.2582 -11.2548 -11.2496  -9.0145  -9.0006  -8.9891
 -8.9859  -6.6952  -6.6946  -6.6941  -6.6819  -6.6812  -6.6799  -6.6700
 -6.6693  -6.6684  -6.6668  -6.6662  -6.6654  -1.6475  -1.4724  -1.4159
 -1.4139  -1.3678  -1.2355  -1.1955  -1.1686  -1.1427  -1.0843  -1.0518
 -1.0482  -1.0291  -1.0019  -0.9929  -0.9725  -0.9605  -0.9500  -0.9387
 -0.8954  -0.8704  -0.8498  -0.8078  -0.7923  -0.7871  -0.7751  -0.7649
 -0.7575  -0.7321  -0.7189  -0.7158  -0.7001  -0.6891  -0.6826  -0.6790
 -0.6725  -0.6616  -0.6586  -0.6523  -0.6286  -0.6195  -0.6165  -0.6071
 -0.6036  -0.5961  -0.5840  -0.5750  -0.5679  -0.5643  -0.5574  -0.5517
 -0.5322  -0.5272  -0.5244  -0.5159  -0.5147  -0.5082  -0.5020  -0.4962
 -0.4880  -0.4848  -0.4769  -0.4675  -0.4622  -0.4618  -0.4593  -0.4171
 -0.3964  -0.3864  -0.3592  -0.3497  -0.3218  -0.2860  -0.2502
 -- Virtual --
  0.0121   0.0741   0.1133   0.1256   0.1344   0.1461   0.1494   0.1546
  0.1560   0.1597   0.1679   0.1687   0.1818   0.1833   0.1905   0.1933
  0.2044   0.2080   0.2103   0.2163   0.2202   0.2227   0.2239   0.2278
  0.2333   0.2380   0.2433   0.2547   0.2586   0.2705   0.2731   0.2844
  0.2914   0.3104   0.3166   0.3263   0.3351   0.3446   0.3459   0.3528
  0.3536   0.3619   0.3695   0.3731   0.3737   0.3796   0.3832   0.3855
  0.3888   0.3949   0.4012   0.4078   0.4104   0.4126   0.4185   0.4220
  0.4273   0.4364   0.4376   0.4424   0.4494   0.4518   0.4531   0.4579
  0.4607   0.4618   0.4694   0.4723   0.4799   0.4836   0.4853   0.4943
  0.4956   0.5022   0.5039   0.5092   0.5134   0.5187   0.5206   0.5234
  0.5281   0.5336   0.5401   0.5419   0.5440   0.5466   0.5494   0.5532
  0.5555   0.5631   0.5648   0.5674   0.5696   0.5749   0.5772   0.5833
  0.5847   0.5902   0.5928   0.5969   0.5986   0.6016   0.6095   0.6115
  0.6150   0.6177   0.6187   0.6240   0.6263   0.6290   0.6296   0.6360
  0.6387   0.6426   0.6454   0.6474   0.6516   0.6536   0.6636   0.6664
  0.6735   0.6792   0.6824   0.6851   0.6949   0.6968   0.6992   0.7039
  0.7094   0.7168   0.7183   0.7292   0.7329   0.7403   0.7446   0.7555
  0.7585   0.7647   0.7713   0.7759   0.7794   0.7904   0.7950   0.7997
  0.8045   0.8070   0.8161   0.8238   0.8321   0.8352   0.8387   0.8443
  0.8469   0.8553   0.8683   0.8723   0.8777   0.8800   0.8886   0.8970
  0.9033   0.9037   0.9061   0.9119   0.9145   0.9165   0.9215   0.9271
  0.9292   0.9336   0.9386   0.9448   0.9506   0.9523   0.9614   0.9685
  0.9701   0.9783   0.9808   0.9822   0.9915   0.9988   1.0021   1.0056
  1.0076   1.0103   1.0177   1.0234   1.0290   1.0314   1.0354   1.0380
  1.0425   1.0487   1.0568   1.0613   1.0662   1.0716   1.0729   1.0789
  1.0861   1.0899   1.0950   1.0970   1.1008   1.1031   1.1121   1.1153
  1.1171   1.1281   1.1338   1.1395   1.1472   1.1483   1.1535   1.1605
  1.1648   1.1716   1.1751   1.1757   1.1841   1.1868   1.1879   1.1957
  1.1984   1.2044   1.2056   1.2165   1.2180   1.2221   1.2233   1.2321
  1.2385   1.2425   1.2469   1.2522   1.2579   1.2604   1.2697   1.2739
  1.2749   1.2804   1.2910   1.3044   1.3085   1.3167   1.3242   1.3275
  1.3321   1.3390   1.3414   1.3452   1.3499   1.3588   1.3649   1.3700
  1.3736   1.3824   1.3895   1.3929   1.4046   1.4099   1.4120   1.4188
  1.4297   1.4440   1.4540   1.4615   1.4753   1.4808   1.4844   1.4893
  1.4919   1.4965   1.5020   1.5073   1.5096   1.5134   1.5139   1.5257
  1.5372   1.5399   1.5401   1.5447   1.5512   1.5561   1.5605   1.5616
  1.5707   1.5873   1.5906   1.5965   1.6052   1.6175   1.6236   1.6338
  1.6407   1.6464   1.6563   1.6607   1.6622   1.6677   1.6744   1.6828
  1.6881   1.7001   1.7070   1.7083   1.7171   1.7292   1.7349   1.7402
  1.7558   1.7659   1.7703   1.7863   1.7896   1.8008   1.8097   1.8161
  1.8225   1.8322   1.8408   1.8463   1.8621   1.8660   1.8699   1.8711
  1.8758   1.8844   1.8972   1.9053   1.9141   1.9199   1.9328   1.9360
  1.9393   1.9453   1.9518   1.9595   1.9693   1.9748   1.9841   1.9894
  2.0024   2.0097   2.0180   2.0253   2.0353   2.0438   2.0512   2.0638
  2.0718   2.0906   2.0987   2.1020   2.1161   2.1215   2.1308   2.1422
  2.1507   2.1551   2.1582   2.1663   2.1717   2.1780   2.1879   2.1915
  2.1991   2.2001   2.2123   2.2173   2.2297   2.2366   2.2395   2.2460
  2.2470   2.2558   2.2642   2.2694   2.2766   2.2808   2.2877   2.2990
  2.3049   2.3114   2.3157   2.3197   2.3372   2.3487   2.3548   2.3631
  2.3772   2.3814   2.3875   2.3959   2.4022   2.4050   2.4171   2.4292
  2.4336   2.4482   2.4523   2.4565   2.4650   2.4768   2.4851   2.4903
  2.5081   2.5171   2.5278   2.5289   2.5345   2.5497   2.5563   2.5608
  2.5796   2.5829   2.5943   2.5981   2.6051   2.6144   2.6182   2.6195
  2.6253   2.6351   2.6385   2.6470   2.6505   2.6615   2.6650   2.6732
  2.6747   2.6856   2.6934   2.6985   2.7006   2.7019   2.7130   2.7213
  2.7229   2.7288   2.7421   2.7423   2.7458   2.7507   2.7591   2.7674
  2.7764   2.7821   2.7897   2.7960   2.8008   2.8059   2.8141   2.8202
  2.8324   2.8401   2.8487   2.8501   2.8531   2.8610   2.8702   2.8757
  2.8763   2.8826   2.8853   2.8929   2.9019   2.9242   2.9332   2.9371
  2.9435   2.9537   2.9580   2.9661   2.9766   2.9827   2.9964   3.0065
  3.0098   3.0170   3.0204   3.0305   3.0368   3.0431   3.0439   3.0459
  3.0580   3.0608   3.0783   3.0817   3.0842   3.0902   3.0958   3.0994
  3.1053   3.1112   3.1179   3.1204   3.1323   3.1426   3.1463   3.1491
  3.1527   3.1576   3.1592   3.1675   3.1711   3.1769   3.1807   3.1830
  3.1894   3.1976   3.2089   3.2106   3.2159   3.2180   3.2259   3.2291
  3.2354   3.2418   3.2466   3.2497   3.2525   3.2534   3.2610   3.2703
  3.2744   3.2798   3.2827   3.2878   3.2903   3.2938   3.2975   3.3044
  3.3085   3.3146   3.3254   3.3283   3.3342   3.3421   3.3475   3.3489
  3.3521   3.3561   3.3582   3.3616   3.3657   3.3675   3.3733   3.3788
  3.3863   3.3884   3.3915   3.3957   3.3974   3.4034   3.4108   3.4202
  3.4256   3.4337   3.4355   3.4379   3.4397   3.4450   3.4488   3.4555
  3.4595   3.4620   3.4672   3.4764   3.4801   3.4815   3.4904   3.4962
  3.5005   3.5106   3.5179   3.5214   3.5248   3.5348   3.5362   3.5438
  3.5470   3.5493   3.5593   3.5620   3.5670   3.5779   3.5820   3.5872
  3.5895   3.5958   3.5965   3.6016   3.6071   3.6118   3.6171   3.6232
  3.6284   3.6343   3.6449   3.6521   3.6532   3.6598   3.6600   3.6669
  3.6713   3.6752   3.6825   3.6858   3.6888   3.6958   3.7036   3.7040
  3.7096   3.7132   3.7145   3.7240   3.7276   3.7302   3.7328   3.7407
  3.7467   3.7481   3.7548   3.7581   3.7703   3.7737   3.7807   3.7863
  3.7946   3.8028   3.8073   3.8110   3.8133   3.8238   3.8280   3.8317
  3.8354   3.8432   3.8489   3.8539   3.8569   3.8633   3.8645   3.8738
  3.8802   3.8917   3.8929   3.8971   3.9057   3.9121   3.9191   3.9215
  3.9341   3.9414   3.9488   3.9527   3.9581   3.9684   3.9701   3.9842
  3.9875   3.9898   4.0050   4.0127   4.0182   4.0224   4.0307   4.0373
  4.0431   4.0559   4.0571   4.0709   4.0731   4.0830   4.0875   4.0953
  4.1034   4.1076   4.1153   4.1233   4.1371   4.1418   4.1446   4.1608
  4.1638   4.1682   4.1752   4.1775   4.1850   4.1861   4.1906   4.2031
  4.2127   4.2182   4.2255   4.2393   4.2525   4.2636   4.2700   4.2801
  4.2953   4.3018   4.3063   4.3142   4.3215   4.3303   4.3363   4.3478
  4.3537   4.3638   4.3699   4.3765   4.3828   4.3926   4.3960   4.4014
  4.4100   4.4109   4.4170   4.4247   4.4284   4.4355   4.4478   4.4577
  4.4621   4.4722   4.4911   4.4951   4.4980   4.5050   4.5060   4.5187
  4.5319   4.5366   4.5449   4.5526   4.5572   4.5667   4.5777   4.5871
  4.6057   4.6075   4.6250   4.6273   4.6376   4.6431   4.6474   4.6496
  4.6536   4.6676   4.6722   4.6763   4.6874   4.7023   4.7182   4.7307
  4.7365   4.7467   4.7603   4.7705   4.7817   4.7878   4.7926   4.8100
  4.8213   4.8304   4.8511   4.8536   4.8727   4.8834   4.9138   4.9195
  4.9354   4.9475   4.9559   4.9625   4.9651   4.9841   4.9902   5.0011
  5.0066   5.0119   5.0195   5.0392   5.0462   5.0565   5.0632   5.0708
  5.0942   5.1127   5.1270   5.1481   5.1664   5.1726   5.1766   5.1917
  5.2033   5.2165   5.2215   5.2358   5.2541   5.2586   5.2595   5.2828
  5.3005   5.3116   5.3265   5.3278   5.3413   5.3549   5.3574   5.3650
  5.3786   5.3929   5.3943   5.3994   5.4120   5.4441   5.4579   5.4640
  5.4728   5.4806   5.4926   5.5087   5.5125   5.5252   5.5420   5.5602
  5.5728   5.5831   5.5916   5.6064   5.6171   5.6316   5.6395   5.6534
  5.7181   5.7329   5.7922   5.8003   5.8175   5.8397   5.8553   5.8617
  5.8743   5.8877   5.9065   5.9692   5.9713   5.9894   5.9974   6.0310
  6.0701   6.0888   6.1197   6.1333   6.1697   6.1738   6.1852   6.1893
  6.2380   6.2623   6.2736   6.2758   6.2964   6.3082   6.3232   6.4063
  6.4305   6.4510   6.4840   6.5176   6.5491   6.5558   6.5578   6.6536
  6.6668   6.6763   6.7031   6.7369   6.7418   6.8004   6.8431   6.8599
  6.8808   6.8936   6.9909   7.1213   7.1386   7.1779   7.2105   7.2164
  7.2340   7.3202   7.3260   7.3335   7.3746   7.3762   7.4273   7.4621
  7.4794   7.4873   7.4891   7.5196   7.5484   7.6070   7.7209   7.7704
  7.7969   7.8310   7.9031   7.9190   7.9474   8.0052   8.1091   8.1936
  8.5540   8.9400   9.0085   9.3680   9.5021   9.6996  10.2769  10.5760
 11.2393  11.3541  11.9349  11.9687  12.1295  12.1945  12.3723  12.5715
 12.6337  12.7275  12.9492  13.2615  13.2848  13.5785  13.8469  13.9068
 13.9271  14.0200  14.1913  14.4865  15.2007
 --------------------------------------------------------------
 
          Ground-State Mulliken Net Atomic Charges

     Atom                 Charge (a.u.)
  ----------------------------------------
      1 C                    -0.189317
      2 C                    -0.254302
      3 S                    -0.023837
      4 C                    -0.016165
      5 H                     0.196435
      6 C                    -0.025767
      7 C                     0.236178
      8 C                     0.241260
      9 C                    -0.043955
     10 C                    -0.005687
     11 O                    -0.333182
     12 O                    -0.340159
     13 C                    -0.085574
     14 H                     0.122214
     15 H                     0.090885
     16 H                     0.094252
     17 C                    -0.088885
     18 H                     0.125578
     19 H                     0.094112
     20 H                     0.091202
     21 C                    -0.267022
     22 S                    -0.010151
     23 C                     0.001563
     24 H                     0.194163
     25 H                     0.206306
     26 C                     0.016329
     27 S                     0.126200
     28 C                    -0.231538
     29 C                    -0.138913
     30 C                    -0.006171
     31 C                     0.368788
     32 C                    -0.143378
     33 S                     0.046275
     34 C                     0.460019
     35 O                    -0.448454
     36 O                    -0.297911
     37 F                    -0.208025
     38 C                    -0.054785
     39 H                     0.116770
     40 H                     0.084827
     41 H                     0.084515
     42 H                     0.215306
  ----------------------------------------
  Sum of atomic charges =     0.000000

 -----------------------------------------------------------------
                    Cartesian Multipole Moments
 -----------------------------------------------------------------
    Charge (ESU x 10^10)
                -0.0000
    Dipole Moment (Debye)
         X       1.5820      Y       1.8245      Z       2.8318
       Tot       3.7216
    Quadrupole Moments (Debye-Ang)
        XX    -182.6976     XY       7.4734     YY    -162.7024
        XZ     -16.8823     YZ      -8.7332     ZZ    -196.8249
    Octopole Moments (Debye-Ang^2)
       XXX    -184.3464    XXY     341.6468    XYY     -47.7010
       YYY     934.9437    XXZ     162.8499    XYZ      40.3817
       YYZ     126.4899    XZZ     -10.8763    YZZ     472.3586
       ZZZ     519.9034
    Hexadecapole Moments (Debye-Ang^3)
      XXXX   -1833.4553   XXXY    -908.9590   XXYY   -3665.0618
      XYYY    -772.4148   YYYY  -18294.1505   XXXZ    1088.7426
      XXYZ     488.2573   XYYZ       2.1691   YYYZ    1468.2163
      XXZZ   -1270.1405   XYZZ     -97.2079   YYZZ   -4255.5640
      XZZZ     825.6753   YZZZ    1006.0328   ZZZZ   -6762.0072
 -----------------------------------------------------------------
 Total job time:  313.85s(wall), 9477.36s(cpu) 
 Tue Sep 26 17:52:31 2023

        *************************************************************
        *                                                           *
        *  Thank you very much for using Q-Chem.  Have a nice day.  *
        *                                                           *
        *************************************************************


0 sent ACK to 0 
now end server 0 ... 
cleanup process ... done
remove work dirs ./qchem153111.0 -- ./qchem153111.0
rm -rf ./qchem153111.0
rm -rf ./qchem153111
