You are running Q-Chem version: 5.4.0

#
# job setting
#
local host:  exp-5-42
current dir: /expanse/lustre/projects/csd626/rramji/aromodel/PTB7_fin/Rotation_Test
input file:  fin_bdt_Phi_50_Theta_270_fin_ftt.qcin
output file: 
nprocs     : 1
nthreads   : 64
#
# qchem installation setting
#
QC:          /cm/shared/apps/spack/cpu/opt/spack/linux-centos8-zen2/gcc-10.2.0/qchem-5.4-akfmr7b3t57bfs6qan3padb2wnb2i7cl
QCAUX:       /cm/shared/apps/spack/cpu/opt/spack/linux-centos8-zen2/gcc-10.2.0/qchem-5.4-akfmr7b3t57bfs6qan3padb2wnb2i7cl/qcaux
QCPROG:      /cm/shared/apps/spack/cpu/opt/spack/linux-centos8-zen2/gcc-10.2.0/qchem-5.4-akfmr7b3t57bfs6qan3padb2wnb2i7cl/exe/qcprog.exe
QCPROG_S:    /cm/shared/apps/spack/cpu/opt/spack/linux-centos8-zen2/gcc-10.2.0/qchem-5.4-akfmr7b3t57bfs6qan3padb2wnb2i7cl/exe/qcprog.exe_s
PARALLEL:    -DPARALLEL
QCMPI:       mpich
#
# qchem directory setting
#
qcrun:       qchem964490
QCSCRATCH:   .
QCLOCALSCR:  
QCTMPDIR:    .
QCFILEPREF:  ./qchem964490
QCSAVEDIR:   
workdirs:    ./qchem964490
workdir0:    ./qchem964490
partmpdirs =  
#
# parallel setting
#
QCRSH:           ssh
QCMPI:           mpich
QCMPIRUN:        /cm/shared/apps/spack/cpu/opt/spack/linux-centos8-zen2/gcc-10.2.0/qchem-5.4-akfmr7b3t57bfs6qan3padb2wnb2i7cl/bin/mpi/mpirun_qchem
QCMACHINEFILE:   ./qchem964490/hostfile
exp-5-42

#
# env setting
#
exported envs:   QC QCAUX QCSCRATCH QCRUNNAME QCFILEPREF QCPROG QCPROG_S GUIFILE

Running Job 1 of 1 fin_bdt_Phi_50_Theta_270_fin_ftt.qcin
qchem fin_bdt_Phi_50_Theta_270_fin_ftt.qcin_964490.0 ./qchem964490/ 1
/cm/shared/apps/spack/cpu/opt/spack/linux-centos8-zen2/gcc-10.2.0/qchem-5.4-akfmr7b3t57bfs6qan3padb2wnb2i7cl/bin/mpi/mpirun_qchem -machinefile ./qchem964490/hostfile -np 1 /cm/shared/apps/spack/cpu/opt/spack/linux-centos8-zen2/gcc-10.2.0/qchem-5.4-akfmr7b3t57bfs6qan3padb2wnb2i7cl/exe/qcprog.exe fin_bdt_Phi_50_Theta_270_fin_ftt.qcin_964490.0 ./qchem964490/

Process 0 of 1 is on exp-5-42 - thread support 0
initial socket setup ...start
initial socket setup ...done 
now start server 0 ... 
                  Welcome to Q-Chem
     A Quantum Leap Into The Future Of Chemistry


 Q-Chem 5.4, Q-Chem, Inc., Pleasanton, CA (2021)

 License issued to: University of California, San Diego (site)

 E. Epifanovsky,  A. T. B. Gilbert,  Xintian Feng,  Joonho Lee,  Yuezhi Mao,  
 N. Mardirossian,  P. Pokhilko,  A. White,  M. Wormit,  M. P. Coons,  
 A. L. Dempwolff,  Zhengting Gan,  D. Hait,  P. R. Horn,  L. D. Jacobson,  
 I. Kaliman,  J. Kussmann,  A. W. Lange,  Ka Un Lao,  D. S. Levine,  Jie Liu,  
 S. C. McKenzie,  A. F. Morrison,  K. Nanda,  F. Plasser,  D. R. Rehn,  
 M. L. Vidal,  Zhi-Qiang You,  Ying Zhu,  B. Alam,  B. Albrecht,  
 A. Aldossary,  E. Alguire,  J. H. Andersen,  D. Barton,  K. Begam,  A. Behn,  
 Y. A. Bernard,  E. J. Berquist,  H. Burton,  A. Carreras,  K. Carter-Fenk,  
 R. Chakraborty,  A. D. Chien,  K. D. Closser,  V. Cofer-Shabica,  
 S. Dasgupta,  Jia Deng,  M. de Wergifosse,  M. Diedenhofen,  Hainam Do,  
 S. Ehlert,  Po-Tung Fang,  S. Fatehi,  Qingguo Feng,  J. Gayvert,  
 Qinghui Ge,  G. Gidofalvi,  M. Goldey,  J. Gomes,  C. Gonzalez-Espinoza,  
 S. Gulania,  A. Gunina,  M. W. D. Hanson-Heine,  P. H. P. Harbach,  
 A. W. Hauser,  M. F. Herbst,  M. Hernandez Vera,  M. Hodecker,  
 Z. C. Holden,  S. Houck,  Xunkun Huang,  Kerwin Hui,  B. C. Huynh,  
 M. Ivanov,  Hyunjun Ji,  Hanjie Jiang,  B. Kaduk,  S. Kaehler,  
 K. Khistyaev,  Jaehoon Kim,  P. Klunzinger,  Z. Koczor-Benda,  
 Joong Hoon Koh,  D. Kosenkov,  L. Koulias,  T. Kowalczyk,  C. M. Krauter,  
 K. Kue,  A. Kunitsa,  T. Kus,  A. Landau,  K. V. Lawler,  D. Lefrancois,  
 S. Lehtola,  Rain Li,  Yi-Pei Li,  Jiashu Liang,  M. Liebenthal,  
 Hung-Hsuan Lin,  You-Sheng Lin,  Fenglai Liu,  Kuan-Yu Liu,  
 M. Loipersberger,  A. Luenser,  A. Manjanath,  P. Manohar,  E. Mansoor,  
 S. F. Manzer,  Shan-Ping Mao,  A. V. Marenich,  T. Markovich,  S. Mason,  
 S. A. Maurer,  P. F. McLaughlin,  M. F. S. J. Menger,  J.-M. Mewes,  
 S. A. Mewes,  P. Morgante,  J. W. Mullinax,  T. S. Nguyen-Beck,  
 K. J. Oosterbaan,  G. Paran,  Alexander C. Paul,  Suranjan K. Paul,  
 F. Pavosevic,  Zheng Pei,  S. Prager,  E. I. Proynov,  E. Ramos,  B. Rana,  
 A. E. Rask,  A. Rettig,  R. M. Richard,  F. Rob,  E. Rossomme,  T. Scheele,  
 M. Scheurer,  M. Schneider,  N. Sergueev,  S. M. Sharada,  W. Skomorowski,  
 D. W. Small,  C. J. Stein,  Yu-Chuan Su,  E. J. Sundstrom,  Zhen Tao,  
 J. Thirman,  T. Tsuchimochi,  N. M. Tubman,  S. P. Veccham,  O. Vydrov,  
 J. Wenzel,  J. Witte,  A. Yamada,  Kun Yao,  S. Yeganeh,  S. R. Yost,  
 A. Zech,  Igor Ying Zhang,  Xing Zhang,  Yu Zhang,  D. Zuev,  
 A. Aspuru-Guzik,  A. T. Bell,  N. A. Besley,  K. B. Bravaya,  B. R. Brooks,  
 D. Casanova,  Jeng-Da Chai,  S. Coriani,  C. J. Cramer,  
 A. E. DePrince, III,  R. A. DiStasio Jr.,  A. Dreuw,  B. D. Dunietz,  
 T. R. Furlani,  W. A. Goddard III,  S. Grimme,  S. Hammes-Schiffer,  
 T. Head-Gordon,  W. J. Hehre,  Chao-Ping Hsu,  T.-C. Jagau,  Yousung Jung,  
 A. Klamt,  Jing Kong,  D. S. Lambrecht,  WanZhen Liang,  N. J. Mayhall,  
 C. W. McCurdy,  J. B. Neaton,  C. Ochsenfeld,  J. A. Parkhill,  R. Peverati,  
 V. A. Rassolov,  Yihan Shao,  L. V. Slipchenko,  T. Stauch,  R. P. Steele,  
 J. E. Subotnik,  A. J. W. Thom,  A. Tkatchenko,  D. G. Truhlar,  
 T. Van Voorhis,  T. A. Wesolowski,  K. B. Whaley,  H. L. Woodcock III,  
 P. M. Zimmerman,  S. Faraji,  P. M. W. Gill,  M. Head-Gordon,  
 J. M. Herbert,  A. I. Krylov

 Contributors to earlier versions of Q-Chem not listed above: 
 R. D. Adamson,  B. Austin,  R. Baer,  J. Baker,  G. J. O. Beran,  
 K. Brandhorst,  S. T. Brown,  E. F. C. Byrd,  A. K. Chakraborty,  
 G. K. L. Chan,  Chun-Min Chang,  Yunqing Chen,  C.-L. Cheng,  
 Siu Hung Chien,  D. M. Chipman,  D. L. Crittenden,  H. Dachsel,  
 R. J. Doerksen,  A. D. Dutoi,  R. G. Edgar,  J. Fosso-Tande,  
 L. Fusti-Molnar,  D. Ghosh,  A. Ghysels,  A. Golubeva-Zadorozhnaya,  
 J. Gonthier,  M. S. Gordon,  S. R. Gwaltney,  G. Hawkins,  J. E. Herr,  
 A. Heyden,  S. Hirata,  E. G. Hohenstein,  G. Kedziora,  F. J. Keil,  
 C. Kelley,  Jihan Kim,  R. A. King,  R. Z. Khaliullin,  P. P. Korambath,  
 W. Kurlancheek,  A. Laurent,  A. M. Lee,  M. S. Lee,  S. V. Levchenko,  
 Ching Yeh Lin,  D. Liotard,  E. Livshits,  R. C. Lochan,  I. Lotan,  
 L. A. Martinez-Martinez,  P. E. Maslen,  N. Nair,  D. P. O'Neill,  
 D. Neuhauser,  E. Neuscamman,  C. M. Oana,  R. Olivares-Amaya,  R. Olson,  
 T. M. Perrine,  B. Peters,  P. A. Pieniazek,  A. Prociuk,  Y. M. Rhee,  
 J. Ritchie,  M. A. Rohrdanz,  E. Rosta,  N. J. Russ,  H. F. Schaefer III,  
 M. W. Schmidt,  N. E. Schultz,  S. Sharma,  N. Shenvi,  C. D. Sherrill,  
 A. C. Simmonett,  A. Sodt,  T. Stein,  D. Stuck,  K. S. Thanthiriwatte,  
 V. Vanovschi,  L. Vogt,  Tao Wang,  A. Warshel,  M. A. Watson,  
 C. F. Williams,  Q. Wu,  X. Xu,  Jun Yang,  W. Zhang,  Yan Zhao

 Please cite Q-Chem as follows:
 Y. Shao et al., Mol. Phys. 113, 184-215 (2015)
 DOI: 10.1080/00268976.2014.952696

 Q-Chem 5.4.0 for Intel X86 EM64T Linux

 Parts of Q-Chem use Armadillo 9.800.1 (Horizon Scraper).
 http://arma.sourceforge.net/

 Q-Chem begins on Sun Sep 24 18:36:42 2023  

 Host: 
0

     Scratch files written to ./qchem964490//
 May1621 |scratch|qcdevops|jenkins|workspace|build_RNUM    
 Parallel job on  1  processors
 Processing $rem in /cm/shared/apps/spack/cpu/opt/spack/linux-centos8-zen2/gcc-10.2.0/qchem-5.4-akfmr7b3t57bfs6qan3padb2wnb2i7cl/config/preferences:
 Processing $rem in /home/rramji/.qchemrc:
 Symmetry turned off for PCM/SM12/SMD calculation
 Core orbitals will be frozen

 Checking the input file for inconsistencies... 	...done.

 Q-Chem warning in module forms1/BasisType.C, line 2236:

 You are not using the predefined 5D/6D in this basis set.


--------------------------------------------------------------
User input:
--------------------------------------------------------------
$molecule
0 1
C	0.267851	-8.519741	0.047927
C	-0.801461	-7.635967	0.056157
S	1.822194	-7.651740	0.029285
C	-0.415201	-6.261894	0.054516
H	-1.851431	-7.954738	0.063290
C	1.012650	-6.079985	0.054687
C	1.584194	-4.798382	0.028030
C	-1.309433	-5.153542	0.031399
C	-0.737539	-3.869626	0.000427
C	0.691828	-3.688927	0.003462
O	-2.631211	-5.481075	0.061128
O	2.911907	-4.479871	-0.003021
C	3.854716	-5.356026	0.602710
H	4.803517	-4.790496	0.670671
H	4.034285	-6.268513	-0.006913
H	3.535185	-5.658187	1.623507
C	-3.610841	-4.546999	-0.375708
H	-4.562544	-5.107564	-0.441115
H	-3.364029	-4.131473	-1.376277
H	-3.743566	-3.712085	0.346107
C	1.074491	-2.314326	-0.000458
S	-1.548848	-2.295487	0.013144
C	-0.000000	-1.435180	-0.000000
H	2.123688	-1.993211	-0.004953
H	0.262315	-9.615985	0.045468
C	0.000000	0.000000	0.000000
S	0.690437	0.576430	1.510732
C	1.896512	1.589852	0.727629
C	0.695720	0.583817	-1.064665
C	1.758621	1.477674	-0.678287
C	0.645928	0.539878	-2.486150
C	1.614763	1.352997	-3.106916
S	2.568261	2.157430	-1.965735
C	1.812707	1.512991	-4.559972
O	1.099523	0.910662	-5.350277
O	2.797769	2.335330	-5.004375
F	-0.205024	-0.179266	-3.246290
C	3.079074	2.558124	-6.334976
H	3.925910	3.267919	-6.370268
H	2.208109	2.990367	-6.875609
H	3.358147	1.618843	-6.861878
H	2.601331	2.181180	1.321510
$end

$rem
JOBTYPE		SP
EXCHANGE	HF
CORRELATION	pRIMP2
BASIS		cc-pvtz
METHOD		rimp2
AUX_BASIS	rimp2-cc-pvtz
SOLVENT_METHOD	PCM
PURECART	11111
SYMMETRY	false
MEM_TOTAL	110000
SCF_CONVERGENCE = 6
THRESH=10
GUI = 2
$end



$solvent
dielectric 4.90
$end
--------------------------------------------------------------
 ----------------------------------------------------------------
             Standard Nuclear Orientation (Angstroms)
    I     Atom           X                Y                Z
 ----------------------------------------------------------------
    1      C       0.2678510000    -8.5197410000     0.0479270000
    2      C      -0.8014610000    -7.6359670000     0.0561570000
    3      S       1.8221940000    -7.6517400000     0.0292850000
    4      C      -0.4152010000    -6.2618940000     0.0545160000
    5      H      -1.8514310000    -7.9547380000     0.0632900000
    6      C       1.0126500000    -6.0799850000     0.0546870000
    7      C       1.5841940000    -4.7983820000     0.0280300000
    8      C      -1.3094330000    -5.1535420000     0.0313990000
    9      C      -0.7375390000    -3.8696260000     0.0004270000
   10      C       0.6918280000    -3.6889270000     0.0034620000
   11      O      -2.6312110000    -5.4810750000     0.0611280000
   12      O       2.9119070000    -4.4798710000    -0.0030210000
   13      C       3.8547160000    -5.3560260000     0.6027100000
   14      H       4.8035170000    -4.7904960000     0.6706710000
   15      H       4.0342850000    -6.2685130000    -0.0069130000
   16      H       3.5351850000    -5.6581870000     1.6235070000
   17      C      -3.6108410000    -4.5469990000    -0.3757080000
   18      H      -4.5625440000    -5.1075640000    -0.4411150000
   19      H      -3.3640290000    -4.1314730000    -1.3762770000
   20      H      -3.7435660000    -3.7120850000     0.3461070000
   21      C       1.0744910000    -2.3143260000    -0.0004580000
   22      S      -1.5488480000    -2.2954870000     0.0131440000
   23      C       0.0000000000    -1.4351800000     0.0000000000
   24      H       2.1236880000    -1.9932110000    -0.0049530000
   25      H       0.2623150000    -9.6159850000     0.0454680000
   26      C       0.0000000000     0.0000000000     0.0000000000
   27      S       0.6904370000     0.5764300000     1.5107320000
   28      C       1.8965120000     1.5898520000     0.7276290000
   29      C       0.6957200000     0.5838170000    -1.0646650000
   30      C       1.7586210000     1.4776740000    -0.6782870000
   31      C       0.6459280000     0.5398780000    -2.4861500000
   32      C       1.6147630000     1.3529970000    -3.1069160000
   33      S       2.5682610000     2.1574300000    -1.9657350000
   34      C       1.8127070000     1.5129910000    -4.5599720000
   35      O       1.0995230000     0.9106620000    -5.3502770000
   36      O       2.7977690000     2.3353300000    -5.0043750000
   37      F      -0.2050240000    -0.1792660000    -3.2462900000
   38      C       3.0790740000     2.5581240000    -6.3349760000
   39      H       3.9259100000     3.2679190000    -6.3702680000
   40      H       2.2081090000     2.9903670000    -6.8756090000
   41      H       3.3581470000     1.6188430000    -6.8618780000
   42      H       2.6013310000     2.1811800000     1.3215100000
 ----------------------------------------------------------------
 Nuclear Repulsion Energy =        3342.82422202 hartrees
 There are      119 alpha and      119 beta electrons
 Requested basis set is cc-pVTZ
 There are 376 shells and 1068 basis functions

 Total QAlloc Memory Limit 110000 MB
 Mega-Array Size       188 MB
 MEM_STATIC part       192 MB
 Discretize the solute cavity surface with Lebedev spheres
	Using 110 Lebedev grid points for each H atom
	Using 194 Lebedev grid points for other atoms
	Atomic van der Waals radii will be scaled by 1.20
 Remove points where switching function is < 1.0e-08
 Keep 2897 surface tesserae and discard 4159 interior tesserae
 Molecular Surface Area = 440.819 Angst**2
 Requested basis set is rimp2-cc-pVTZ
 There are 833 shells and 2903 basis functions
 A cutoff of  1.0D-10 yielded  31949 shell pairs
 There are    244683 function pairs (    317457 Cartesian)
 Smallest overlap matrix eigenvalue = 2.19E-05

 Scale SEOQF with 1.000000e-01/1.000000e-02/1.000000e-02

 Standard Electronic Orientation quadrupole field applied
 Nucleus-field energy     =     0.0000000477 hartrees
 Guess from superposition of atomic densities
 Warning:  Energy on first SCF cycle will be non-variational
 SAD guess density has 238.000000 electrons

 -----------------------------------------------------------------------
  General SCF calculation program by
  Eric Jon Sundstrom, Paul Horn, Yuezhi Mao, Dmitri Zuev, Alec White,
  David Stuck, Shaama M.S., Shane Yost, Joonho Lee, David Small,
  Daniel Levine, Susi Lehtola, Hugh Burton, Evgeny Epifanovsky,
  Bang C. Huynh
 -----------------------------------------------------------------------
 Hartree-Fock
 using 64 threads for integral computing
 -------------------------------------------------------
 OpenMP Integral computing Module                
 Release: version 1.0, May 2013, Q-Chem Inc. Pittsburgh 
 -------------------------------------------------------
 A restricted SCF calculation will be
 performed using DIIS
 SCF converges when DIIS error is below 1.0e-06
 ---------------------------------------
  Cycle       Energy         DIIS error
 ---------------------------------------
    1   -2765.5880826921      1.77e-02  
    2   -2753.8125920613      1.57e-03  
    3   -2754.1519402663      8.88e-04  
    4   -2754.2371488669      2.56e-04  
    5   -2754.2489049540      6.93e-05  
    6   -2754.2500281591      2.53e-05  
    7   -2754.2502871708      1.21e-05  
    8   -2754.2503822999      5.60e-06  
    9   -2754.2504062844      2.83e-06  
   10   -2754.2504119021      1.47e-06  
   11   -2754.2504136308      6.11e-07  Convergence criterion met
 ---------------------------------------
 SCF time:   CPU 7034.43s  wall 258.00s 

************** Final PCM Free Energy Summary **************
 G_electrostatic  =      -0.02143051 hartree =     -13.44784580 kcal/mol
 G_cavitation     =       0.00000000 hartree =       0.00000000 kcal/mol
 G_dispersion     =       0.00000000 hartree =       0.00000000 kcal/mol
 G_repulsion      =       0.00000000 hartree =       0.00000000 kcal/mol
 --------------------------------------------------
 Non-electrostatic Free Energy =       0.00000000 hartree =       0.00000000 kcal/mol
 Total                         =      -0.02143051 hartree =     -13.44784580 kcal/mol
 --------------------------------------------------
 SCF Energy (H0 + V/2)                       =   -2754.25041363 
 Solute Internal Energy (H0)                 =   -2754.22898312 
 Total Free Energy (H0 + V/2 + non-elec)     =   -2754.25041363 hartree
                                             = -1728318.22005899 kcal/mol
***********************************************************

 SCF   energy in the final basis set =    -2754.2504136308
 Total energy in the final basis set =    -2754.2504136308


 --------------------------------------------------------------
  Generalized many-body perturbation theory program
  by Joonho Lee, Fazle Rob, Xintian Feng, Evgeny Epifanovsky

 No regularization used 
 (reg. param. = 0.0000e+00)
  (P|Q)^-1/2 Time:  CPU 175.37 s  wall 3.57 s

 In RI-MP2 calculation: 
 # of frozen core orbitals: 45

 Components of the RIMP2 correlation energy:
        aaaa    correlation energy =        -0.6731811284 a.u.
        abab    correlation energy =        -3.7203528234 a.u.
        bbbb    correlation energy =        -0.6731811284 a.u.
        non-Brillouin singles      =        -0.0000000000 a.u.
        total same-spin energy     =        -1.3463622568 a.u.
        total opposite-spin energy =        -3.7203528234 a.u.

 Total  RIMP2   correlation energy =        -5.0667150802 a.u.
        RIMP2         total energy =     -2759.3171287110 a.u.

 RI-MP2 Energy Time:  CPU 2769.00 s  wall 45.22 s
 
 --------------------------------------------------------------
 
                    Orbital Energies (a.u.)
 --------------------------------------------------------------
 
 Alpha MOs
 -- Occupied --
-92.0156 -92.0023 -91.9841 -91.9816 -26.3339 -20.6149 -20.5903 -20.5892
-20.5553 -11.4147 -11.3759 -11.3166 -11.3163 -11.3137 -11.3081 -11.2983
-11.2922 -11.2912 -11.2899 -11.2852 -11.2851 -11.2815 -11.2806 -11.2804
-11.2769 -11.2578 -11.2549 -11.2483 -11.2482  -9.0143  -9.0059  -8.9840
 -8.9822  -6.6948  -6.6940  -6.6938  -6.6871  -6.6865  -6.6852  -6.6650
 -6.6644  -6.6636  -6.6632  -6.6624  -6.6616  -1.6468  -1.4750  -1.4143
 -1.4120  -1.3709  -1.2396  -1.1924  -1.1682  -1.1433  -1.0826  -1.0501
 -1.0486  -1.0310  -0.9984  -0.9914  -0.9740  -0.9584  -0.9485  -0.9386
 -0.8926  -0.8735  -0.8438  -0.8045  -0.7928  -0.7854  -0.7763  -0.7681
 -0.7542  -0.7305  -0.7178  -0.7155  -0.6996  -0.6915  -0.6808  -0.6801
 -0.6751  -0.6602  -0.6569  -0.6509  -0.6281  -0.6182  -0.6147  -0.6101
 -0.6055  -0.5999  -0.5842  -0.5730  -0.5684  -0.5637  -0.5534  -0.5503
 -0.5308  -0.5248  -0.5222  -0.5143  -0.5125  -0.5081  -0.5005  -0.4920
 -0.4901  -0.4873  -0.4697  -0.4653  -0.4637  -0.4614  -0.4567  -0.4024
 -0.3977  -0.3847  -0.3611  -0.3413  -0.3084  -0.2987  -0.2540
 -- Virtual --
  0.0084   0.0663   0.1096   0.1274   0.1361   0.1410   0.1506   0.1548
  0.1566   0.1609   0.1634   0.1704   0.1796   0.1828   0.1863   0.1920
  0.1946   0.2055   0.2098   0.2198   0.2203   0.2221   0.2251   0.2258
  0.2301   0.2370   0.2428   0.2541   0.2552   0.2635   0.2691   0.2762
  0.2838   0.3000   0.3067   0.3241   0.3318   0.3385   0.3420   0.3480
  0.3537   0.3569   0.3660   0.3674   0.3733   0.3777   0.3816   0.3847
  0.3879   0.3882   0.3932   0.3992   0.4083   0.4110   0.4123   0.4189
  0.4238   0.4314   0.4343   0.4360   0.4478   0.4508   0.4531   0.4570
  0.4641   0.4654   0.4664   0.4725   0.4748   0.4770   0.4858   0.4906
  0.4934   0.4991   0.5007   0.5133   0.5140   0.5177   0.5223   0.5263
  0.5284   0.5340   0.5358   0.5405   0.5430   0.5452   0.5506   0.5521
  0.5564   0.5609   0.5622   0.5669   0.5719   0.5747   0.5774   0.5839
  0.5853   0.5875   0.5933   0.5966   0.6002   0.6028   0.6049   0.6120
  0.6162   0.6177   0.6183   0.6217   0.6247   0.6308   0.6336   0.6384
  0.6403   0.6417   0.6463   0.6471   0.6521   0.6535   0.6643   0.6679
  0.6758   0.6800   0.6819   0.6882   0.6918   0.6983   0.6997   0.7031
  0.7069   0.7128   0.7192   0.7297   0.7343   0.7412   0.7476   0.7528
  0.7581   0.7625   0.7674   0.7767   0.7792   0.7843   0.7940   0.7979
  0.8043   0.8069   0.8147   0.8185   0.8237   0.8308   0.8377   0.8442
  0.8481   0.8549   0.8633   0.8684   0.8768   0.8805   0.8835   0.8896
  0.8953   0.9004   0.9031   0.9083   0.9129   0.9163   0.9230   0.9247
  0.9279   0.9383   0.9411   0.9463   0.9524   0.9602   0.9624   0.9697
  0.9710   0.9753   0.9814   0.9855   0.9874   0.9943   0.9953   0.9997
  1.0053   1.0099   1.0144   1.0170   1.0266   1.0277   1.0311   1.0378
  1.0438   1.0508   1.0590   1.0618   1.0648   1.0705   1.0760   1.0816
  1.0848   1.0861   1.0892   1.0975   1.1013   1.1037   1.1106   1.1170
  1.1217   1.1254   1.1306   1.1365   1.1427   1.1494   1.1591   1.1649
  1.1688   1.1708   1.1723   1.1758   1.1799   1.1849   1.1904   1.1922
  1.1986   1.2043   1.2146   1.2147   1.2179   1.2219   1.2275   1.2294
  1.2331   1.2423   1.2479   1.2556   1.2562   1.2654   1.2736   1.2757
  1.2783   1.2818   1.2874   1.3009   1.3079   1.3095   1.3163   1.3216
  1.3284   1.3287   1.3425   1.3453   1.3554   1.3630   1.3652   1.3662
  1.3759   1.3794   1.3846   1.3905   1.4057   1.4175   1.4196   1.4235
  1.4344   1.4498   1.4553   1.4656   1.4683   1.4753   1.4842   1.4906
  1.4915   1.4996   1.5036   1.5073   1.5108   1.5148   1.5183   1.5331
  1.5352   1.5391   1.5403   1.5420   1.5468   1.5533   1.5588   1.5608
  1.5725   1.5768   1.5822   1.5936   1.6031   1.6106   1.6269   1.6327
  1.6388   1.6432   1.6507   1.6586   1.6630   1.6693   1.6766   1.6813
  1.6891   1.6908   1.7008   1.7084   1.7182   1.7233   1.7298   1.7504
  1.7598   1.7631   1.7741   1.7851   1.7888   1.7993   1.8107   1.8218
  1.8268   1.8294   1.8379   1.8421   1.8567   1.8596   1.8624   1.8688
  1.8824   1.8860   1.8939   1.9079   1.9141   1.9198   1.9234   1.9344
  1.9381   1.9453   1.9557   1.9617   1.9729   1.9741   1.9818   1.9925
  2.0024   2.0118   2.0135   2.0234   2.0302   2.0413   2.0444   2.0644
  2.0757   2.0932   2.0942   2.1005   2.1115   2.1238   2.1261   2.1421
  2.1471   2.1511   2.1556   2.1661   2.1730   2.1768   2.1842   2.1907
  2.1941   2.1989   2.2091   2.2109   2.2225   2.2283   2.2341   2.2414
  2.2498   2.2567   2.2594   2.2668   2.2758   2.2793   2.2852   2.2953
  2.3068   2.3129   2.3202   2.3225   2.3364   2.3532   2.3569   2.3671
  2.3759   2.3845   2.3894   2.3947   2.3976   2.4086   2.4205   2.4259
  2.4381   2.4498   2.4535   2.4552   2.4606   2.4789   2.4875   2.4973
  2.5043   2.5067   2.5240   2.5286   2.5327   2.5422   2.5541   2.5658
  2.5742   2.5807   2.5845   2.6026   2.6032   2.6153   2.6181   2.6219
  2.6247   2.6351   2.6386   2.6484   2.6504   2.6572   2.6621   2.6774
  2.6804   2.6895   2.6956   2.7009   2.7042   2.7077   2.7144   2.7205
  2.7250   2.7331   2.7390   2.7418   2.7480   2.7562   2.7586   2.7695
  2.7779   2.7884   2.7931   2.7990   2.8070   2.8098   2.8181   2.8233
  2.8346   2.8421   2.8437   2.8547   2.8586   2.8629   2.8669   2.8741
  2.8758   2.8822   2.8885   2.8907   2.8998   2.9237   2.9260   2.9405
  2.9435   2.9522   2.9605   2.9723   2.9765   2.9813   2.9901   3.0023
  3.0095   3.0140   3.0220   3.0319   3.0367   3.0381   3.0426   3.0469
  3.0488   3.0661   3.0697   3.0825   3.0859   3.0896   3.0904   3.1028
  3.1071   3.1134   3.1171   3.1210   3.1247   3.1371   3.1507   3.1517
  3.1559   3.1595   3.1676   3.1711   3.1733   3.1800   3.1839   3.1853
  3.1912   3.1994   3.2044   3.2053   3.2108   3.2172   3.2219   3.2240
  3.2329   3.2411   3.2452   3.2488   3.2529   3.2597   3.2686   3.2702
  3.2784   3.2811   3.2915   3.2920   3.2949   3.3008   3.3025   3.3081
  3.3127   3.3162   3.3257   3.3296   3.3339   3.3443   3.3477   3.3491
  3.3554   3.3603   3.3612   3.3635   3.3659   3.3720   3.3777   3.3820
  3.3919   3.3954   3.3973   3.4042   3.4093   3.4131   3.4136   3.4210
  3.4244   3.4294   3.4325   3.4412   3.4459   3.4504   3.4588   3.4611
  3.4636   3.4683   3.4730   3.4735   3.4807   3.4870   3.4957   3.5025
  3.5069   3.5115   3.5186   3.5224   3.5261   3.5325   3.5358   3.5419
  3.5459   3.5507   3.5583   3.5658   3.5692   3.5753   3.5838   3.5859
  3.5885   3.5937   3.6008   3.6047   3.6088   3.6160   3.6224   3.6286
  3.6343   3.6356   3.6421   3.6480   3.6565   3.6610   3.6643   3.6661
  3.6765   3.6818   3.6836   3.6865   3.6893   3.6949   3.7061   3.7078
  3.7096   3.7150   3.7185   3.7244   3.7288   3.7356   3.7391   3.7460
  3.7519   3.7571   3.7627   3.7711   3.7734   3.7783   3.7878   3.7926
  3.8033   3.8052   3.8097   3.8179   3.8219   3.8271   3.8307   3.8373
  3.8384   3.8429   3.8467   3.8540   3.8602   3.8660   3.8725   3.8743
  3.8755   3.8878   3.8950   3.8967   3.9067   3.9116   3.9236   3.9294
  3.9312   3.9386   3.9452   3.9580   3.9622   3.9739   3.9846   3.9910
  3.9995   4.0097   4.0136   4.0165   4.0206   4.0257   4.0302   4.0406
  4.0574   4.0599   4.0653   4.0726   4.0804   4.0838   4.0852   4.0963
  4.1058   4.1188   4.1234   4.1305   4.1365   4.1485   4.1498   4.1525
  4.1643   4.1724   4.1736   4.1801   4.1833   4.1910   4.2039   4.2062
  4.2145   4.2293   4.2343   4.2402   4.2442   4.2546   4.2721   4.2768
  4.2900   4.2939   4.3065   4.3226   4.3354   4.3389   4.3467   4.3604
  4.3621   4.3749   4.3759   4.3793   4.3841   4.3898   4.3945   4.4071
  4.4085   4.4157   4.4164   4.4222   4.4309   4.4362   4.4462   4.4537
  4.4685   4.4731   4.4872   4.4890   4.5021   4.5050   4.5142   4.5147
  4.5230   4.5433   4.5546   4.5604   4.5620   4.5679   4.5834   4.5948
  4.6032   4.6095   4.6137   4.6316   4.6354   4.6403   4.6433   4.6532
  4.6584   4.6729   4.6747   4.6812   4.6982   4.7021   4.7171   4.7338
  4.7402   4.7459   4.7655   4.7806   4.7898   4.7974   4.8135   4.8190
  4.8330   4.8383   4.8433   4.8573   4.8703   4.9003   4.9066   4.9268
  4.9451   4.9487   4.9555   4.9648   4.9656   4.9809   4.9939   4.9986
  5.0083   5.0105   5.0200   5.0326   5.0532   5.0566   5.0646   5.0774
  5.0863   5.0972   5.1164   5.1470   5.1619   5.1751   5.1858   5.1889
  5.2000   5.2060   5.2146   5.2223   5.2537   5.2542   5.2577   5.2777
  5.3005   5.3084   5.3170   5.3299   5.3446   5.3496   5.3538   5.3637
  5.3757   5.3902   5.3981   5.3996   5.4147   5.4327   5.4638   5.4668
  5.4718   5.4792   5.5013   5.5093   5.5140   5.5183   5.5335   5.5597
  5.5730   5.5823   5.5895   5.6074   5.6137   5.6338   5.6396   5.6674
  5.7142   5.7322   5.7981   5.8009   5.8130   5.8286   5.8389   5.8572
  5.8757   5.8856   5.9338   5.9581   5.9662   5.9736   6.0002   6.0095
  6.0609   6.0890   6.1064   6.1161   6.1318   6.1728   6.1792   6.1837
  6.2356   6.2443   6.2698   6.2789   6.2954   6.3062   6.3184   6.3698
  6.4168   6.4437   6.4813   6.5045   6.5500   6.5531   6.5577   6.6541
  6.6622   6.6731   6.7002   6.7288   6.7376   6.8019   6.8377   6.8561
  6.8778   6.8959   6.9861   7.1242   7.1382   7.1756   7.2077   7.2176
  7.2355   7.3216   7.3225   7.3327   7.3737   7.3756   7.4227   7.4599
  7.4805   7.4870   7.4907   7.5170   7.5449   7.5983   7.7101   7.7716
  7.7987   7.8284   7.9004   7.9234   7.9496   8.0020   8.0867   8.1532
  8.4899   8.9287   9.0109   9.3634   9.4952   9.6857  10.2003  10.5694
 11.2048  11.4649  11.9268  12.0821  12.1383  12.2266  12.3058  12.5862
 12.6140  12.7202  12.9552  13.2507  13.3116  13.6301  13.8472  13.8966
 13.9268  14.0274  14.1447  14.4707  15.1985
 --------------------------------------------------------------
 
          Ground-State Mulliken Net Atomic Charges

     Atom                 Charge (a.u.)
  ----------------------------------------
      1 C                    -0.193306
      2 C                    -0.254407
      3 S                    -0.027103
      4 C                    -0.018649
      5 H                     0.195855
      6 C                    -0.027219
      7 C                     0.234358
      8 C                     0.243243
      9 C                    -0.047779
     10 C                    -0.016271
     11 O                    -0.333706
     12 O                    -0.341563
     13 C                    -0.085608
     14 H                     0.121333
     15 H                     0.090844
     16 H                     0.093082
     17 C                    -0.086429
     18 H                     0.124167
     19 H                     0.094854
     20 H                     0.089359
     21 C                    -0.249098
     22 S                    -0.015250
     23 C                    -0.015276
     24 H                     0.196411
     25 H                     0.205364
     26 C                    -0.110376
     27 S                     0.135717
     28 C                    -0.175462
     29 C                    -0.076409
     30 C                    -0.012229
     31 C                     0.371344
     32 C                    -0.137318
     33 S                     0.062625
     34 C                     0.458448
     35 O                    -0.440798
     36 O                    -0.296882
     37 F                    -0.208618
     38 C                    -0.054626
     39 H                     0.117182
     40 H                     0.085409
     41 H                     0.085537
     42 H                     0.219251
  ----------------------------------------
  Sum of atomic charges =     0.000000

 -----------------------------------------------------------------
                    Cartesian Multipole Moments
 -----------------------------------------------------------------
    Charge (ESU x 10^10)
                 0.0000
    Dipole Moment (Debye)
         X       3.8824      Y       2.4841      Z       3.0393
       Tot       5.5210
    Quadrupole Moments (Debye-Ang)
        XX    -167.4435     XY       9.7693     YY    -173.9479
        XZ      -3.6941     YZ      -9.0795     ZZ    -201.9616
    Octopole Moments (Debye-Ang^2)
       XXX    -403.5151    XXY     373.4332    XYY    -117.4657
       YYY    1083.8871    XXZ     146.2108    XYZ     -54.4327
       YYZ     159.3675    XZZ     -52.5355    YZZ     530.6970
       ZZZ     525.1403
    Hexadecapole Moments (Debye-Ang^3)
      XXXX   -3925.8370   XXXY    -144.0331   XXYY   -3641.2842
      XYYY    -191.4967   YYYY  -17549.3112   XXXZ     994.7387
      XXYZ     218.8087   XYYZ     405.3129   YYYZ     902.5467
      XXZZ   -1349.4571   XYZZ     211.0764   YYZZ   -4288.3109
      XZZZ     445.2283   YZZZ     518.2203   ZZZZ   -5467.3795
 -----------------------------------------------------------------
 Total job time:  307.54s(wall), 9911.91s(cpu) 
 Sun Sep 24 18:41:49 2023

        *************************************************************
        *                                                           *
        *  Thank you very much for using Q-Chem.  Have a nice day.  *
        *                                                           *
        *************************************************************


0 sent ACK to 0 
now end server 0 ... 
cleanup process ... done
remove work dirs ./qchem964490.0 -- ./qchem964490.0
rm -rf ./qchem964490.0
rm -rf ./qchem964490
