You are running Q-Chem version: 5.4.0

#
# job setting
#
local host:  exp-3-12
current dir: /expanse/lustre/projects/csd626/rramji/aromodel/PTB7_fin/Rotation_Test
input file:  fin_bdt_Phi_20_Theta_170_fin_ftt.qcin
output file: 
nprocs     : 1
nthreads   : 64
#
# qchem installation setting
#
QC:          /cm/shared/apps/spack/cpu/opt/spack/linux-centos8-zen2/gcc-10.2.0/qchem-5.4-akfmr7b3t57bfs6qan3padb2wnb2i7cl
QCAUX:       /cm/shared/apps/spack/cpu/opt/spack/linux-centos8-zen2/gcc-10.2.0/qchem-5.4-akfmr7b3t57bfs6qan3padb2wnb2i7cl/qcaux
QCPROG:      /cm/shared/apps/spack/cpu/opt/spack/linux-centos8-zen2/gcc-10.2.0/qchem-5.4-akfmr7b3t57bfs6qan3padb2wnb2i7cl/exe/qcprog.exe
QCPROG_S:    /cm/shared/apps/spack/cpu/opt/spack/linux-centos8-zen2/gcc-10.2.0/qchem-5.4-akfmr7b3t57bfs6qan3padb2wnb2i7cl/exe/qcprog.exe_s
PARALLEL:    -DPARALLEL
QCMPI:       mpich
#
# qchem directory setting
#
qcrun:       qchem3975671
QCSCRATCH:   .
QCLOCALSCR:  
QCTMPDIR:    .
QCFILEPREF:  ./qchem3975671
QCSAVEDIR:   
workdirs:    ./qchem3975671
workdir0:    ./qchem3975671
partmpdirs =  
#
# parallel setting
#
QCRSH:           ssh
QCMPI:           mpich
QCMPIRUN:        /cm/shared/apps/spack/cpu/opt/spack/linux-centos8-zen2/gcc-10.2.0/qchem-5.4-akfmr7b3t57bfs6qan3padb2wnb2i7cl/bin/mpi/mpirun_qchem
QCMACHINEFILE:   ./qchem3975671/hostfile
exp-3-12

#
# env setting
#
exported envs:   QC QCAUX QCSCRATCH QCRUNNAME QCFILEPREF QCPROG QCPROG_S GUIFILE

Running Job 1 of 1 fin_bdt_Phi_20_Theta_170_fin_ftt.qcin
qchem fin_bdt_Phi_20_Theta_170_fin_ftt.qcin_3975671.0 ./qchem3975671/ 1
/cm/shared/apps/spack/cpu/opt/spack/linux-centos8-zen2/gcc-10.2.0/qchem-5.4-akfmr7b3t57bfs6qan3padb2wnb2i7cl/bin/mpi/mpirun_qchem -machinefile ./qchem3975671/hostfile -np 1 /cm/shared/apps/spack/cpu/opt/spack/linux-centos8-zen2/gcc-10.2.0/qchem-5.4-akfmr7b3t57bfs6qan3padb2wnb2i7cl/exe/qcprog.exe fin_bdt_Phi_20_Theta_170_fin_ftt.qcin_3975671.0 ./qchem3975671/

Process 0 of 1 is on exp-3-12 - thread support 0
initial socket setup ...start
initial socket setup ...done 
now start server 0 ... 
                  Welcome to Q-Chem
     A Quantum Leap Into The Future Of Chemistry


 Q-Chem 5.4, Q-Chem, Inc., Pleasanton, CA (2021)

 License issued to: University of California, San Diego (site)

 E. Epifanovsky,  A. T. B. Gilbert,  Xintian Feng,  Joonho Lee,  Yuezhi Mao,  
 N. Mardirossian,  P. Pokhilko,  A. White,  M. Wormit,  M. P. Coons,  
 A. L. Dempwolff,  Zhengting Gan,  D. Hait,  P. R. Horn,  L. D. Jacobson,  
 I. Kaliman,  J. Kussmann,  A. W. Lange,  Ka Un Lao,  D. S. Levine,  Jie Liu,  
 S. C. McKenzie,  A. F. Morrison,  K. Nanda,  F. Plasser,  D. R. Rehn,  
 M. L. Vidal,  Zhi-Qiang You,  Ying Zhu,  B. Alam,  B. Albrecht,  
 A. Aldossary,  E. Alguire,  J. H. Andersen,  D. Barton,  K. Begam,  A. Behn,  
 Y. A. Bernard,  E. J. Berquist,  H. Burton,  A. Carreras,  K. Carter-Fenk,  
 R. Chakraborty,  A. D. Chien,  K. D. Closser,  V. Cofer-Shabica,  
 S. Dasgupta,  Jia Deng,  M. de Wergifosse,  M. Diedenhofen,  Hainam Do,  
 S. Ehlert,  Po-Tung Fang,  S. Fatehi,  Qingguo Feng,  J. Gayvert,  
 Qinghui Ge,  G. Gidofalvi,  M. Goldey,  J. Gomes,  C. Gonzalez-Espinoza,  
 S. Gulania,  A. Gunina,  M. W. D. Hanson-Heine,  P. H. P. Harbach,  
 A. W. Hauser,  M. F. Herbst,  M. Hernandez Vera,  M. Hodecker,  
 Z. C. Holden,  S. Houck,  Xunkun Huang,  Kerwin Hui,  B. C. Huynh,  
 M. Ivanov,  Hyunjun Ji,  Hanjie Jiang,  B. Kaduk,  S. Kaehler,  
 K. Khistyaev,  Jaehoon Kim,  P. Klunzinger,  Z. Koczor-Benda,  
 Joong Hoon Koh,  D. Kosenkov,  L. Koulias,  T. Kowalczyk,  C. M. Krauter,  
 K. Kue,  A. Kunitsa,  T. Kus,  A. Landau,  K. V. Lawler,  D. Lefrancois,  
 S. Lehtola,  Rain Li,  Yi-Pei Li,  Jiashu Liang,  M. Liebenthal,  
 Hung-Hsuan Lin,  You-Sheng Lin,  Fenglai Liu,  Kuan-Yu Liu,  
 M. Loipersberger,  A. Luenser,  A. Manjanath,  P. Manohar,  E. Mansoor,  
 S. F. Manzer,  Shan-Ping Mao,  A. V. Marenich,  T. Markovich,  S. Mason,  
 S. A. Maurer,  P. F. McLaughlin,  M. F. S. J. Menger,  J.-M. Mewes,  
 S. A. Mewes,  P. Morgante,  J. W. Mullinax,  T. S. Nguyen-Beck,  
 K. J. Oosterbaan,  G. Paran,  Alexander C. Paul,  Suranjan K. Paul,  
 F. Pavosevic,  Zheng Pei,  S. Prager,  E. I. Proynov,  E. Ramos,  B. Rana,  
 A. E. Rask,  A. Rettig,  R. M. Richard,  F. Rob,  E. Rossomme,  T. Scheele,  
 M. Scheurer,  M. Schneider,  N. Sergueev,  S. M. Sharada,  W. Skomorowski,  
 D. W. Small,  C. J. Stein,  Yu-Chuan Su,  E. J. Sundstrom,  Zhen Tao,  
 J. Thirman,  T. Tsuchimochi,  N. M. Tubman,  S. P. Veccham,  O. Vydrov,  
 J. Wenzel,  J. Witte,  A. Yamada,  Kun Yao,  S. Yeganeh,  S. R. Yost,  
 A. Zech,  Igor Ying Zhang,  Xing Zhang,  Yu Zhang,  D. Zuev,  
 A. Aspuru-Guzik,  A. T. Bell,  N. A. Besley,  K. B. Bravaya,  B. R. Brooks,  
 D. Casanova,  Jeng-Da Chai,  S. Coriani,  C. J. Cramer,  
 A. E. DePrince, III,  R. A. DiStasio Jr.,  A. Dreuw,  B. D. Dunietz,  
 T. R. Furlani,  W. A. Goddard III,  S. Grimme,  S. Hammes-Schiffer,  
 T. Head-Gordon,  W. J. Hehre,  Chao-Ping Hsu,  T.-C. Jagau,  Yousung Jung,  
 A. Klamt,  Jing Kong,  D. S. Lambrecht,  WanZhen Liang,  N. J. Mayhall,  
 C. W. McCurdy,  J. B. Neaton,  C. Ochsenfeld,  J. A. Parkhill,  R. Peverati,  
 V. A. Rassolov,  Yihan Shao,  L. V. Slipchenko,  T. Stauch,  R. P. Steele,  
 J. E. Subotnik,  A. J. W. Thom,  A. Tkatchenko,  D. G. Truhlar,  
 T. Van Voorhis,  T. A. Wesolowski,  K. B. Whaley,  H. L. Woodcock III,  
 P. M. Zimmerman,  S. Faraji,  P. M. W. Gill,  M. Head-Gordon,  
 J. M. Herbert,  A. I. Krylov

 Contributors to earlier versions of Q-Chem not listed above: 
 R. D. Adamson,  B. Austin,  R. Baer,  J. Baker,  G. J. O. Beran,  
 K. Brandhorst,  S. T. Brown,  E. F. C. Byrd,  A. K. Chakraborty,  
 G. K. L. Chan,  Chun-Min Chang,  Yunqing Chen,  C.-L. Cheng,  
 Siu Hung Chien,  D. M. Chipman,  D. L. Crittenden,  H. Dachsel,  
 R. J. Doerksen,  A. D. Dutoi,  R. G. Edgar,  J. Fosso-Tande,  
 L. Fusti-Molnar,  D. Ghosh,  A. Ghysels,  A. Golubeva-Zadorozhnaya,  
 J. Gonthier,  M. S. Gordon,  S. R. Gwaltney,  G. Hawkins,  J. E. Herr,  
 A. Heyden,  S. Hirata,  E. G. Hohenstein,  G. Kedziora,  F. J. Keil,  
 C. Kelley,  Jihan Kim,  R. A. King,  R. Z. Khaliullin,  P. P. Korambath,  
 W. Kurlancheek,  A. Laurent,  A. M. Lee,  M. S. Lee,  S. V. Levchenko,  
 Ching Yeh Lin,  D. Liotard,  E. Livshits,  R. C. Lochan,  I. Lotan,  
 L. A. Martinez-Martinez,  P. E. Maslen,  N. Nair,  D. P. O'Neill,  
 D. Neuhauser,  E. Neuscamman,  C. M. Oana,  R. Olivares-Amaya,  R. Olson,  
 T. M. Perrine,  B. Peters,  P. A. Pieniazek,  A. Prociuk,  Y. M. Rhee,  
 J. Ritchie,  M. A. Rohrdanz,  E. Rosta,  N. J. Russ,  H. F. Schaefer III,  
 M. W. Schmidt,  N. E. Schultz,  S. Sharma,  N. Shenvi,  C. D. Sherrill,  
 A. C. Simmonett,  A. Sodt,  T. Stein,  D. Stuck,  K. S. Thanthiriwatte,  
 V. Vanovschi,  L. Vogt,  Tao Wang,  A. Warshel,  M. A. Watson,  
 C. F. Williams,  Q. Wu,  X. Xu,  Jun Yang,  W. Zhang,  Yan Zhao

 Please cite Q-Chem as follows:
 Y. Shao et al., Mol. Phys. 113, 184-215 (2015)
 DOI: 10.1080/00268976.2014.952696

 Q-Chem 5.4.0 for Intel X86 EM64T Linux

 Parts of Q-Chem use Armadillo 9.800.1 (Horizon Scraper).
 http://arma.sourceforge.net/

 Q-Chem begins on Sun Sep 24 17:48:58 2023  

 Host: 
0

     Scratch files written to ./qchem3975671//
 May1621 |scratch|qcdevops|jenkins|workspace|build_RNUM    
 Parallel job on  1  processors
 Processing $rem in /cm/shared/apps/spack/cpu/opt/spack/linux-centos8-zen2/gcc-10.2.0/qchem-5.4-akfmr7b3t57bfs6qan3padb2wnb2i7cl/config/preferences:
 Processing $rem in /home/rramji/.qchemrc:
 Symmetry turned off for PCM/SM12/SMD calculation
 Core orbitals will be frozen

 Checking the input file for inconsistencies... 	...done.

 Q-Chem warning in module forms1/BasisType.C, line 2236:

 You are not using the predefined 5D/6D in this basis set.


--------------------------------------------------------------
User input:
--------------------------------------------------------------
$molecule
0 1
C	0.000687	-8.519741	-0.272104
C	0.194476	-7.635967	0.779533
S	-0.287581	-7.651740	-1.799596
C	0.125787	-6.261894	0.399427
H	0.383826	-7.954738	1.812314
C	-0.121989	-6.079985	-1.006762
C	-0.247488	-4.798382	-1.564994
C	0.258303	-5.153542	1.284087
C	0.128493	-3.869626	0.726260
C	-0.116725	-3.688927	-0.681918
O	0.517104	-5.481075	2.580622
O	-0.508622	-4.479871	-2.867144
C	-0.075811	-5.356026	-3.900814
H	-0.173640	-4.790496	-4.847002
H	-0.707354	-6.268513	-3.971794
H	0.984963	-5.658187	-3.763397
C	0.257016	-4.546999	3.621225
H	0.357864	-5.107564	4.569828
H	-0.771211	-4.131473	3.551910
H	0.990913	-3.712085	3.626592
C	-0.187034	-2.314326	-1.058088
S	0.281899	-2.295487	1.523035
C	0.000000	-1.435180	0.000000
H	-0.373653	-1.993211	-2.090565
H	-0.000773	-9.615985	-0.266226
C	0.000000	0.000000	0.000000
S	0.309721	0.844422	1.510732
C	0.847502	2.325108	0.727629
C	0.310602	0.853460	-1.064665
C	0.784173	2.159014	-0.678287
C	0.289451	0.790512	-2.486150
C	0.721927	1.979112	-3.106916
S	1.145464	3.152519	-1.965735
C	0.813355	2.216642	-4.559972
O	0.496884	1.338418	-5.350277
O	1.255274	3.421340	-5.004375
F	-0.087923	-0.257761	-3.246290
C	1.387494	3.754937	-6.334976
H	1.765978	4.793056	-6.370268
H	0.417095	3.693789	-6.875609
H	2.098820	3.081033	-6.861878
H	1.162229	3.189623	1.321510
$end

$rem
JOBTYPE		SP
EXCHANGE	HF
CORRELATION	pRIMP2
BASIS		cc-pvtz
METHOD		rimp2
AUX_BASIS	rimp2-cc-pvtz
SOLVENT_METHOD	PCM
PURECART	11111
SYMMETRY	false
MEM_TOTAL	110000
SCF_CONVERGENCE = 6
THRESH=10
GUI = 2
$end



$solvent
dielectric 4.90
$end
--------------------------------------------------------------
 ----------------------------------------------------------------
             Standard Nuclear Orientation (Angstroms)
    I     Atom           X                Y                Z
 ----------------------------------------------------------------
    1      C       0.0006870000    -8.5197410000    -0.2721040000
    2      C       0.1944760000    -7.6359670000     0.7795330000
    3      S      -0.2875810000    -7.6517400000    -1.7995960000
    4      C       0.1257870000    -6.2618940000     0.3994270000
    5      H       0.3838260000    -7.9547380000     1.8123140000
    6      C      -0.1219890000    -6.0799850000    -1.0067620000
    7      C      -0.2474880000    -4.7983820000    -1.5649940000
    8      C       0.2583030000    -5.1535420000     1.2840870000
    9      C       0.1284930000    -3.8696260000     0.7262600000
   10      C      -0.1167250000    -3.6889270000    -0.6819180000
   11      O       0.5171040000    -5.4810750000     2.5806220000
   12      O      -0.5086220000    -4.4798710000    -2.8671440000
   13      C      -0.0758110000    -5.3560260000    -3.9008140000
   14      H      -0.1736400000    -4.7904960000    -4.8470020000
   15      H      -0.7073540000    -6.2685130000    -3.9717940000
   16      H       0.9849630000    -5.6581870000    -3.7633970000
   17      C       0.2570160000    -4.5469990000     3.6212250000
   18      H       0.3578640000    -5.1075640000     4.5698280000
   19      H      -0.7712110000    -4.1314730000     3.5519100000
   20      H       0.9909130000    -3.7120850000     3.6265920000
   21      C      -0.1870340000    -2.3143260000    -1.0580880000
   22      S       0.2818990000    -2.2954870000     1.5230350000
   23      C       0.0000000000    -1.4351800000     0.0000000000
   24      H      -0.3736530000    -1.9932110000    -2.0905650000
   25      H      -0.0007730000    -9.6159850000    -0.2662260000
   26      C       0.0000000000     0.0000000000     0.0000000000
   27      S       0.3097210000     0.8444220000     1.5107320000
   28      C       0.8475020000     2.3251080000     0.7276290000
   29      C       0.3106020000     0.8534600000    -1.0646650000
   30      C       0.7841730000     2.1590140000    -0.6782870000
   31      C       0.2894510000     0.7905120000    -2.4861500000
   32      C       0.7219270000     1.9791120000    -3.1069160000
   33      S       1.1454640000     3.1525190000    -1.9657350000
   34      C       0.8133550000     2.2166420000    -4.5599720000
   35      O       0.4968840000     1.3384180000    -5.3502770000
   36      O       1.2552740000     3.4213400000    -5.0043750000
   37      F      -0.0879230000    -0.2577610000    -3.2462900000
   38      C       1.3874940000     3.7549370000    -6.3349760000
   39      H       1.7659780000     4.7930560000    -6.3702680000
   40      H       0.4170950000     3.6937890000    -6.8756090000
   41      H       2.0988200000     3.0810330000    -6.8618780000
   42      H       1.1622290000     3.1896230000     1.3215100000
 ----------------------------------------------------------------
 Nuclear Repulsion Energy =        3318.05765661 hartrees
 There are      119 alpha and      119 beta electrons
 Requested basis set is cc-pVTZ
 There are 376 shells and 1068 basis functions

 Total QAlloc Memory Limit 110000 MB
 Mega-Array Size       188 MB
 MEM_STATIC part       192 MB
 Discretize the solute cavity surface with Lebedev spheres
	Using 110 Lebedev grid points for each H atom
	Using 194 Lebedev grid points for other atoms
	Atomic van der Waals radii will be scaled by 1.20
 Remove points where switching function is < 1.0e-08
 Keep 2858 surface tesserae and discard 4198 interior tesserae
 Molecular Surface Area = 434.179 Angst**2
 Requested basis set is rimp2-cc-pVTZ
 There are 833 shells and 2903 basis functions
 A cutoff of  1.0D-10 yielded  31553 shell pairs
 There are    241999 function pairs (    314108 Cartesian)
 Smallest overlap matrix eigenvalue = 2.16E-05

 Scale SEOQF with 1.000000e-01/1.000000e-02/1.000000e-02

 Standard Electronic Orientation quadrupole field applied
 Nucleus-field energy     =     0.0000000151 hartrees
 Guess from superposition of atomic densities
 Warning:  Energy on first SCF cycle will be non-variational
 SAD guess density has 238.000000 electrons

 -----------------------------------------------------------------------
  General SCF calculation program by
  Eric Jon Sundstrom, Paul Horn, Yuezhi Mao, Dmitri Zuev, Alec White,
  David Stuck, Shaama M.S., Shane Yost, Joonho Lee, David Small,
  Daniel Levine, Susi Lehtola, Hugh Burton, Evgeny Epifanovsky,
  Bang C. Huynh
 -----------------------------------------------------------------------
 Hartree-Fock
 using 64 threads for integral computing
 -------------------------------------------------------
 OpenMP Integral computing Module                
 Release: version 1.0, May 2013, Q-Chem Inc. Pittsburgh 
 -------------------------------------------------------
 A restricted SCF calculation will be
 performed using DIIS
 SCF converges when DIIS error is below 1.0e-06
 ---------------------------------------
  Cycle       Energy         DIIS error
 ---------------------------------------
    1   -2765.5787593127      1.77e-02  
    2   -2753.8506974839      1.57e-03  
    3   -2754.1915879867      8.81e-04  
    4   -2754.2760323034      2.55e-04  
    5   -2754.2877334026      6.85e-05  
    6   -2754.2888345122      2.41e-05  
    7   -2754.2890829454      1.16e-05  
    8   -2754.2891653111      4.50e-06  
    9   -2754.2891816208      1.92e-06  
   10   -2754.2891839487      8.14e-07  Convergence criterion met
 ---------------------------------------
 SCF time:   CPU 6537.18s  wall 247.00s 

************** Final PCM Free Energy Summary **************
 G_electrostatic  =      -0.01884923 hartree =     -11.82807290 kcal/mol
 G_cavitation     =       0.00000000 hartree =       0.00000000 kcal/mol
 G_dispersion     =       0.00000000 hartree =       0.00000000 kcal/mol
 G_repulsion      =       0.00000000 hartree =       0.00000000 kcal/mol
 --------------------------------------------------
 Non-electrostatic Free Energy =       0.00000000 hartree =       0.00000000 kcal/mol
 Total                         =      -0.01884923 hartree =     -11.82807290 kcal/mol
 --------------------------------------------------
 SCF Energy (H0 + V/2)                       =   -2754.28918395 
 Solute Internal Energy (H0)                 =   -2754.27033471 
 Total Free Energy (H0 + V/2 + non-elec)     =   -2754.28918395 hartree
                                             = -1728342.54880067 kcal/mol
***********************************************************

 SCF   energy in the final basis set =    -2754.2891839487
 Total energy in the final basis set =    -2754.2891839487


 --------------------------------------------------------------
  Generalized many-body perturbation theory program
  by Joonho Lee, Fazle Rob, Xintian Feng, Evgeny Epifanovsky

 No regularization used 
 (reg. param. = 0.0000e+00)
  (P|Q)^-1/2 Time:  CPU 231.42 s  wall 3.99 s

 In RI-MP2 calculation: 
 # of frozen core orbitals: 45

 Components of the RIMP2 correlation energy:
        aaaa    correlation energy =        -0.6720370175 a.u.
        abab    correlation energy =        -3.7139539868 a.u.
        bbbb    correlation energy =        -0.6720370175 a.u.
        non-Brillouin singles      =        -0.0000000000 a.u.
        total same-spin energy     =        -1.3440740350 a.u.
        total opposite-spin energy =        -3.7139539868 a.u.

 Total  RIMP2   correlation energy =        -5.0580280218 a.u.
        RIMP2         total energy =     -2759.3472119705 a.u.

 RI-MP2 Energy Time:  CPU 3872.27 s  wall 66.12 s
 
 --------------------------------------------------------------
 
                    Orbital Energies (a.u.)
 --------------------------------------------------------------
 
 Alpha MOs
 -- Occupied --
-92.0162 -91.9963 -91.9905 -91.9865 -26.3384 -20.6122 -20.5928 -20.5909
-20.5503 -11.4107 -11.3788 -11.3197 -11.3182 -11.3114 -11.2983 -11.2982
-11.2963 -11.2951 -11.2886 -11.2876 -11.2869 -11.2851 -11.2842 -11.2826
-11.2800 -11.2614 -11.2595 -11.2545 -11.2501  -9.0149  -9.0003  -8.9911
 -8.9864  -6.6956  -6.6950  -6.6945  -6.6815  -6.6809  -6.6795  -6.6721
 -6.6714  -6.6704  -6.6674  -6.6668  -6.6659  -1.6528  -1.4720  -1.4169
 -1.4137  -1.3674  -1.2349  -1.1967  -1.1697  -1.1429  -1.0846  -1.0525
 -1.0489  -1.0288  -1.0033  -0.9938  -0.9730  -0.9608  -0.9505  -0.9384
 -0.8968  -0.8704  -0.8514  -0.8070  -0.7968  -0.7887  -0.7721  -0.7700
 -0.7575  -0.7326  -0.7220  -0.7199  -0.7014  -0.6901  -0.6848  -0.6788
 -0.6729  -0.6623  -0.6593  -0.6522  -0.6290  -0.6198  -0.6155  -0.6068
 -0.6006  -0.5955  -0.5883  -0.5760  -0.5688  -0.5600  -0.5546  -0.5467
 -0.5370  -0.5279  -0.5228  -0.5202  -0.5174  -0.5096  -0.5056  -0.4962
 -0.4854  -0.4850  -0.4790  -0.4674  -0.4620  -0.4615  -0.4588  -0.4246
 -0.3983  -0.3854  -0.3595  -0.3507  -0.3255  -0.2850  -0.2466
 -- Virtual --
  0.0073   0.0801   0.1148   0.1235   0.1286   0.1492   0.1512   0.1552
  0.1560   0.1612   0.1618   0.1807   0.1868   0.1874   0.1932   0.1999
  0.2031   0.2077   0.2136   0.2182   0.2222   0.2234   0.2242   0.2290
  0.2357   0.2459   0.2511   0.2564   0.2624   0.2702   0.2765   0.2863
  0.3025   0.3084   0.3242   0.3323   0.3347   0.3428   0.3512   0.3520
  0.3615   0.3644   0.3708   0.3726   0.3779   0.3797   0.3852   0.3857
  0.3877   0.3942   0.3949   0.4073   0.4102   0.4161   0.4218   0.4226
  0.4285   0.4325   0.4352   0.4432   0.4462   0.4491   0.4519   0.4548
  0.4581   0.4662   0.4721   0.4776   0.4808   0.4850   0.4895   0.4927
  0.4978   0.4993   0.5021   0.5077   0.5157   0.5200   0.5220   0.5283
  0.5310   0.5331   0.5351   0.5394   0.5431   0.5485   0.5547   0.5570
  0.5589   0.5619   0.5637   0.5655   0.5682   0.5737   0.5787   0.5808
  0.5850   0.5886   0.5909   0.5986   0.6014   0.6025   0.6057   0.6135
  0.6161   0.6189   0.6192   0.6248   0.6273   0.6297   0.6309   0.6368
  0.6372   0.6398   0.6457   0.6534   0.6544   0.6580   0.6632   0.6687
  0.6710   0.6766   0.6827   0.6866   0.6949   0.6975   0.7043   0.7099
  0.7135   0.7214   0.7287   0.7337   0.7369   0.7433   0.7504   0.7577
  0.7585   0.7655   0.7752   0.7798   0.7845   0.7933   0.7954   0.8022
  0.8104   0.8131   0.8178   0.8239   0.8270   0.8339   0.8402   0.8509
  0.8559   0.8585   0.8669   0.8736   0.8772   0.8789   0.8879   0.8957
  0.9005   0.9023   0.9089   0.9101   0.9192   0.9211   0.9283   0.9321
  0.9330   0.9358   0.9437   0.9498   0.9561   0.9597   0.9663   0.9690
  0.9744   0.9827   0.9856   0.9903   0.9945   0.9965   1.0020   1.0033
  1.0066   1.0113   1.0123   1.0210   1.0300   1.0335   1.0374   1.0445
  1.0474   1.0495   1.0587   1.0603   1.0650   1.0719   1.0748   1.0789
  1.0810   1.0914   1.0934   1.0971   1.0988   1.1095   1.1126   1.1156
  1.1196   1.1262   1.1388   1.1454   1.1481   1.1542   1.1579   1.1628
  1.1666   1.1755   1.1762   1.1818   1.1834   1.1882   1.1894   1.1929
  1.1962   1.2101   1.2122   1.2132   1.2207   1.2218   1.2240   1.2324
  1.2334   1.2431   1.2555   1.2563   1.2576   1.2621   1.2693   1.2719
  1.2748   1.2852   1.2949   1.2998   1.3062   1.3084   1.3165   1.3254
  1.3312   1.3415   1.3435   1.3492   1.3546   1.3547   1.3583   1.3641
  1.3740   1.3748   1.3849   1.3869   1.3875   1.4051   1.4139   1.4178
  1.4346   1.4399   1.4443   1.4573   1.4686   1.4702   1.4727   1.4843
  1.4913   1.4977   1.5050   1.5095   1.5120   1.5131   1.5241   1.5293
  1.5302   1.5325   1.5471   1.5487   1.5496   1.5521   1.5536   1.5706
  1.5729   1.5861   1.5937   1.6005   1.6109   1.6200   1.6269   1.6367
  1.6386   1.6513   1.6549   1.6591   1.6608   1.6685   1.6772   1.6874
  1.6918   1.6994   1.7091   1.7150   1.7277   1.7340   1.7453   1.7499
  1.7581   1.7670   1.7709   1.7851   1.7885   1.8078   1.8134   1.8157
  1.8224   1.8329   1.8408   1.8481   1.8586   1.8679   1.8689   1.8717
  1.8846   1.8983   1.9055   1.9130   1.9183   1.9198   1.9283   1.9337
  1.9368   1.9476   1.9502   1.9573   1.9686   1.9763   1.9778   1.9926
  1.9988   2.0149   2.0236   2.0277   2.0325   2.0389   2.0528   2.0688
  2.0921   2.0980   2.1055   2.1171   2.1202   2.1269   2.1404   2.1453
  2.1571   2.1625   2.1676   2.1690   2.1710   2.1772   2.1907   2.1938
  2.1959   2.1969   2.2131   2.2152   2.2217   2.2291   2.2412   2.2460
  2.2559   2.2615   2.2635   2.2701   2.2750   2.2807   2.2836   2.2895
  2.3014   2.3091   2.3163   2.3175   2.3415   2.3466   2.3531   2.3626
  2.3786   2.3822   2.3855   2.3945   2.4030   2.4144   2.4235   2.4266
  2.4393   2.4425   2.4538   2.4642   2.4681   2.4788   2.4885   2.4970
  2.5040   2.5128   2.5262   2.5290   2.5380   2.5506   2.5552   2.5660
  2.5732   2.5837   2.5924   2.6017   2.6121   2.6151   2.6214   2.6234
  2.6285   2.6306   2.6380   2.6401   2.6509   2.6577   2.6641   2.6707
  2.6781   2.6883   2.6938   2.6994   2.7025   2.7084   2.7114   2.7211
  2.7293   2.7328   2.7375   2.7415   2.7459   2.7524   2.7586   2.7760
  2.7785   2.7857   2.7885   2.8001   2.8070   2.8104   2.8242   2.8268
  2.8335   2.8415   2.8453   2.8483   2.8534   2.8600   2.8707   2.8750
  2.8773   2.8857   2.8871   2.8997   2.9043   2.9078   2.9298   2.9350
  2.9483   2.9570   2.9627   2.9766   2.9785   2.9843   2.9902   3.0039
  3.0128   3.0158   3.0276   3.0328   3.0342   3.0367   3.0442   3.0474
  3.0504   3.0613   3.0748   3.0839   3.0864   3.0904   3.0954   3.1033
  3.1072   3.1126   3.1178   3.1212   3.1338   3.1374   3.1438   3.1500
  3.1569   3.1591   3.1618   3.1690   3.1750   3.1771   3.1839   3.1888
  3.1955   3.2003   3.2059   3.2094   3.2140   3.2189   3.2268   3.2282
  3.2381   3.2425   3.2512   3.2518   3.2582   3.2645   3.2665   3.2730
  3.2768   3.2823   3.2847   3.2890   3.2906   3.2945   3.2962   3.3057
  3.3126   3.3183   3.3264   3.3320   3.3354   3.3424   3.3445   3.3477
  3.3560   3.3599   3.3625   3.3632   3.3651   3.3700   3.3739   3.3797
  3.3855   3.3903   3.3939   3.4008   3.4026   3.4074   3.4173   3.4222
  3.4248   3.4312   3.4341   3.4371   3.4442   3.4473   3.4517   3.4543
  3.4614   3.4639   3.4691   3.4726   3.4782   3.4845   3.4875   3.5015
  3.5034   3.5137   3.5188   3.5205   3.5267   3.5285   3.5326   3.5398
  3.5434   3.5493   3.5559   3.5670   3.5713   3.5762   3.5801   3.5842
  3.5900   3.5937   3.5984   3.6013   3.6044   3.6099   3.6159   3.6264
  3.6319   3.6347   3.6413   3.6433   3.6494   3.6525   3.6545   3.6650
  3.6670   3.6735   3.6755   3.6818   3.6864   3.6875   3.6923   3.7075
  3.7091   3.7102   3.7174   3.7190   3.7246   3.7314   3.7324   3.7337
  3.7466   3.7520   3.7573   3.7624   3.7672   3.7713   3.7797   3.7863
  3.7943   3.8003   3.8033   3.8131   3.8180   3.8222   3.8244   3.8339
  3.8407   3.8439   3.8483   3.8592   3.8657   3.8671   3.8678   3.8722
  3.8776   3.8831   3.8938   3.9064   3.9104   3.9145   3.9192   3.9291
  3.9310   3.9369   3.9467   3.9577   3.9625   3.9753   3.9834   3.9848
  3.9958   3.9996   4.0095   4.0157   4.0174   4.0304   4.0338   4.0472
  4.0516   4.0592   4.0634   4.0684   4.0728   4.0860   4.0907   4.0948
  4.0988   4.1022   4.1143   4.1211   4.1358   4.1464   4.1495   4.1508
  4.1579   4.1711   4.1718   4.1790   4.1888   4.1899   4.1963   4.2075
  4.2109   4.2149   4.2373   4.2397   4.2514   4.2635   4.2677   4.2758
  4.2840   4.3030   4.3146   4.3204   4.3313   4.3378   4.3438   4.3481
  4.3587   4.3661   4.3687   4.3763   4.3797   4.3897   4.3990   4.4030
  4.4095   4.4121   4.4179   4.4264   4.4316   4.4340   4.4464   4.4480
  4.4568   4.4758   4.4872   4.4938   4.4984   4.5100   4.5151   4.5179
  4.5232   4.5337   4.5445   4.5582   4.5592   4.5677   4.5854   4.5974
  4.6098   4.6191   4.6246   4.6313   4.6375   4.6407   4.6418   4.6601
  4.6636   4.6681   4.6800   4.6826   4.7004   4.7059   4.7201   4.7301
  4.7366   4.7464   4.7524   4.7714   4.7794   4.7898   4.8069   4.8145
  4.8228   4.8313   4.8380   4.8551   4.8656   4.8822   4.9136   4.9260
  4.9407   4.9517   4.9549   4.9650   4.9715   4.9965   5.0003   5.0052
  5.0062   5.0121   5.0222   5.0403   5.0514   5.0667   5.0724   5.0782
  5.1013   5.1147   5.1282   5.1568   5.1756   5.1816   5.1940   5.2030
  5.2053   5.2174   5.2278   5.2515   5.2560   5.2590   5.2782   5.2915
  5.2985   5.3138   5.3205   5.3274   5.3448   5.3551   5.3558   5.3717
  5.3852   5.3921   5.3998   5.4014   5.4176   5.4335   5.4633   5.4730
  5.4767   5.4817   5.5036   5.5070   5.5152   5.5219   5.5553   5.5697
  5.5809   5.5897   5.5942   5.6072   5.6174   5.6315   5.6447   5.7004
  5.7273   5.7438   5.7646   5.8006   5.8125   5.8331   5.8538   5.8641
  5.8732   5.8841   5.9509   5.9694   5.9704   5.9772   6.0072   6.0336
  6.0652   6.1213   6.1321   6.1335   6.1618   6.1706   6.1849   6.1862
  6.2410   6.2570   6.2757   6.2771   6.3085   6.3126   6.3216   6.4077
  6.4430   6.4599   6.4954   6.5336   6.5543   6.5562   6.5608   6.6515
  6.6765   6.6871   6.7242   6.7398   6.7643   6.8033   6.8536   6.8602
  6.8842   6.8941   6.9912   7.1216   7.1392   7.1783   7.2116   7.2158
  7.2353   7.3220   7.3262   7.3327   7.3691   7.3805   7.4322   7.4624
  7.4784   7.4831   7.4891   7.5361   7.5502   7.6117   7.7239   7.7658
  7.7973   7.8315   7.9015   7.9213   7.9486   8.0112   8.0943   8.1848
  8.5855   8.9340   9.0618   9.3614   9.5109   9.7355  10.2173  10.6125
 11.2706  11.3197  11.9561  12.0101  12.1369  12.2678  12.3654  12.5939
 12.6694  12.7888  12.9815  13.2105  13.3098  13.5680  13.8481  13.8904
 13.9065  14.0368  14.1479  14.7886  15.2196
 --------------------------------------------------------------
 
          Ground-State Mulliken Net Atomic Charges

     Atom                 Charge (a.u.)
  ----------------------------------------
      1 C                    -0.187830
      2 C                    -0.255089
      3 S                    -0.020902
      4 C                    -0.013799
      5 H                     0.196303
      6 C                    -0.028804
      7 C                     0.250038
      8 C                     0.241866
      9 C                    -0.041070
     10 C                    -0.027277
     11 O                    -0.333194
     12 O                    -0.339731
     13 C                    -0.086288
     14 H                     0.124285
     15 H                     0.091265
     16 H                     0.093810
     17 C                    -0.088636
     18 H                     0.125979
     19 H                     0.094988
     20 H                     0.089617
     21 C                    -0.232230
     22 S                    -0.038572
     23 C                    -0.043071
     24 H                     0.211950
     25 H                     0.206624
     26 C                     0.016963
     27 S                     0.089727
     28 C                    -0.229980
     29 C                    -0.069387
     30 C                    -0.022008
     31 C                     0.371427
     32 C                    -0.134273
     33 S                     0.044539
     34 C                     0.457177
     35 O                    -0.450457
     36 O                    -0.297947
     37 F                    -0.214788
     38 C                    -0.054812
     39 H                     0.116746
     40 H                     0.084583
     41 H                     0.084411
     42 H                     0.217849
  ----------------------------------------
  Sum of atomic charges =     0.000000

 -----------------------------------------------------------------
                    Cartesian Multipole Moments
 -----------------------------------------------------------------
    Charge (ESU x 10^10)
                 0.0000
    Dipole Moment (Debye)
         X       1.5200      Y       1.4752      Z       3.1279
       Tot       3.7776
    Quadrupole Moments (Debye-Ang)
        XX    -199.9019     XY       3.8833     YY    -159.7712
        XZ      -5.2523     YZ      -9.2577     ZZ    -180.9978
    Octopole Moments (Debye-Ang^2)
       XXX    -181.4798    XXY     411.9678    XYY     -32.7605
       YYY     906.1315    XXZ     187.9021    XYZ      -9.4020
       YYZ     135.4965    XZZ     -16.9980    YZZ     387.2551
       ZZZ     592.5225
    Hexadecapole Moments (Debye-Ang^3)
      XXXX    -641.4993   XXXY    -481.4728   XXYY   -3904.9886
      XYYY    -427.9327   YYYY  -18318.5048   XXXZ     351.8510
      XXYZ     245.8630   XYYZ      24.5348   YYYZ     744.7314
      XXZZ   -1402.1954   XYZZ       1.3012   YYZZ   -4017.5168
      XZZZ     122.6201   YZZZ     212.3514   ZZZZ   -7530.8723
 -----------------------------------------------------------------
 Total job time:  319.11s(wall), 10537.03s(cpu) 
 Sun Sep 24 17:54:17 2023

        *************************************************************
        *                                                           *
        *  Thank you very much for using Q-Chem.  Have a nice day.  *
        *                                                           *
        *************************************************************


0 sent ACK to 0 
now end server 0 ... 
cleanup process ... done
remove work dirs ./qchem3975671.0 -- ./qchem3975671.0
rm -rf ./qchem3975671.0
rm -rf ./qchem3975671
