You are running Q-Chem version: 5.4.0

#
# job setting
#
local host:  exp-4-29
current dir: /expanse/lustre/projects/csd626/rramji/aromodel/PTB7_fin/Rotation_Test
input file:  fin_bdt_Phi_30_Theta_330_fin_ftt.qcin
output file: 
nprocs     : 1
nthreads   : 64
#
# qchem installation setting
#
QC:          /cm/shared/apps/spack/cpu/opt/spack/linux-centos8-zen2/gcc-10.2.0/qchem-5.4-akfmr7b3t57bfs6qan3padb2wnb2i7cl
QCAUX:       /cm/shared/apps/spack/cpu/opt/spack/linux-centos8-zen2/gcc-10.2.0/qchem-5.4-akfmr7b3t57bfs6qan3padb2wnb2i7cl/qcaux
QCPROG:      /cm/shared/apps/spack/cpu/opt/spack/linux-centos8-zen2/gcc-10.2.0/qchem-5.4-akfmr7b3t57bfs6qan3padb2wnb2i7cl/exe/qcprog.exe
QCPROG_S:    /cm/shared/apps/spack/cpu/opt/spack/linux-centos8-zen2/gcc-10.2.0/qchem-5.4-akfmr7b3t57bfs6qan3padb2wnb2i7cl/exe/qcprog.exe_s
PARALLEL:    -DPARALLEL
QCMPI:       mpich
#
# qchem directory setting
#
qcrun:       qchem780220
QCSCRATCH:   .
QCLOCALSCR:  
QCTMPDIR:    .
QCFILEPREF:  ./qchem780220
QCSAVEDIR:   
workdirs:    ./qchem780220
workdir0:    ./qchem780220
partmpdirs =  
#
# parallel setting
#
QCRSH:           ssh
QCMPI:           mpich
QCMPIRUN:        /cm/shared/apps/spack/cpu/opt/spack/linux-centos8-zen2/gcc-10.2.0/qchem-5.4-akfmr7b3t57bfs6qan3padb2wnb2i7cl/bin/mpi/mpirun_qchem
QCMACHINEFILE:   ./qchem780220/hostfile
exp-4-29

#
# env setting
#
exported envs:   QC QCAUX QCSCRATCH QCRUNNAME QCFILEPREF QCPROG QCPROG_S GUIFILE

Running Job 1 of 1 fin_bdt_Phi_30_Theta_330_fin_ftt.qcin
qchem fin_bdt_Phi_30_Theta_330_fin_ftt.qcin_780220.0 ./qchem780220/ 1
/cm/shared/apps/spack/cpu/opt/spack/linux-centos8-zen2/gcc-10.2.0/qchem-5.4-akfmr7b3t57bfs6qan3padb2wnb2i7cl/bin/mpi/mpirun_qchem -machinefile ./qchem780220/hostfile -np 1 /cm/shared/apps/spack/cpu/opt/spack/linux-centos8-zen2/gcc-10.2.0/qchem-5.4-akfmr7b3t57bfs6qan3padb2wnb2i7cl/exe/qcprog.exe fin_bdt_Phi_30_Theta_330_fin_ftt.qcin_780220.0 ./qchem780220/

Process 0 of 1 is on exp-4-29 - thread support 0
initial socket setup ...start
initial socket setup ...done 
now start server 0 ... 
                  Welcome to Q-Chem
     A Quantum Leap Into The Future Of Chemistry


 Q-Chem 5.4, Q-Chem, Inc., Pleasanton, CA (2021)

 License issued to: University of California, San Diego (site)

 E. Epifanovsky,  A. T. B. Gilbert,  Xintian Feng,  Joonho Lee,  Yuezhi Mao,  
 N. Mardirossian,  P. Pokhilko,  A. White,  M. Wormit,  M. P. Coons,  
 A. L. Dempwolff,  Zhengting Gan,  D. Hait,  P. R. Horn,  L. D. Jacobson,  
 I. Kaliman,  J. Kussmann,  A. W. Lange,  Ka Un Lao,  D. S. Levine,  Jie Liu,  
 S. C. McKenzie,  A. F. Morrison,  K. Nanda,  F. Plasser,  D. R. Rehn,  
 M. L. Vidal,  Zhi-Qiang You,  Ying Zhu,  B. Alam,  B. Albrecht,  
 A. Aldossary,  E. Alguire,  J. H. Andersen,  D. Barton,  K. Begam,  A. Behn,  
 Y. A. Bernard,  E. J. Berquist,  H. Burton,  A. Carreras,  K. Carter-Fenk,  
 R. Chakraborty,  A. D. Chien,  K. D. Closser,  V. Cofer-Shabica,  
 S. Dasgupta,  Jia Deng,  M. de Wergifosse,  M. Diedenhofen,  Hainam Do,  
 S. Ehlert,  Po-Tung Fang,  S. Fatehi,  Qingguo Feng,  J. Gayvert,  
 Qinghui Ge,  G. Gidofalvi,  M. Goldey,  J. Gomes,  C. Gonzalez-Espinoza,  
 S. Gulania,  A. Gunina,  M. W. D. Hanson-Heine,  P. H. P. Harbach,  
 A. W. Hauser,  M. F. Herbst,  M. Hernandez Vera,  M. Hodecker,  
 Z. C. Holden,  S. Houck,  Xunkun Huang,  Kerwin Hui,  B. C. Huynh,  
 M. Ivanov,  Hyunjun Ji,  Hanjie Jiang,  B. Kaduk,  S. Kaehler,  
 K. Khistyaev,  Jaehoon Kim,  P. Klunzinger,  Z. Koczor-Benda,  
 Joong Hoon Koh,  D. Kosenkov,  L. Koulias,  T. Kowalczyk,  C. M. Krauter,  
 K. Kue,  A. Kunitsa,  T. Kus,  A. Landau,  K. V. Lawler,  D. Lefrancois,  
 S. Lehtola,  Rain Li,  Yi-Pei Li,  Jiashu Liang,  M. Liebenthal,  
 Hung-Hsuan Lin,  You-Sheng Lin,  Fenglai Liu,  Kuan-Yu Liu,  
 M. Loipersberger,  A. Luenser,  A. Manjanath,  P. Manohar,  E. Mansoor,  
 S. F. Manzer,  Shan-Ping Mao,  A. V. Marenich,  T. Markovich,  S. Mason,  
 S. A. Maurer,  P. F. McLaughlin,  M. F. S. J. Menger,  J.-M. Mewes,  
 S. A. Mewes,  P. Morgante,  J. W. Mullinax,  T. S. Nguyen-Beck,  
 K. J. Oosterbaan,  G. Paran,  Alexander C. Paul,  Suranjan K. Paul,  
 F. Pavosevic,  Zheng Pei,  S. Prager,  E. I. Proynov,  E. Ramos,  B. Rana,  
 A. E. Rask,  A. Rettig,  R. M. Richard,  F. Rob,  E. Rossomme,  T. Scheele,  
 M. Scheurer,  M. Schneider,  N. Sergueev,  S. M. Sharada,  W. Skomorowski,  
 D. W. Small,  C. J. Stein,  Yu-Chuan Su,  E. J. Sundstrom,  Zhen Tao,  
 J. Thirman,  T. Tsuchimochi,  N. M. Tubman,  S. P. Veccham,  O. Vydrov,  
 J. Wenzel,  J. Witte,  A. Yamada,  Kun Yao,  S. Yeganeh,  S. R. Yost,  
 A. Zech,  Igor Ying Zhang,  Xing Zhang,  Yu Zhang,  D. Zuev,  
 A. Aspuru-Guzik,  A. T. Bell,  N. A. Besley,  K. B. Bravaya,  B. R. Brooks,  
 D. Casanova,  Jeng-Da Chai,  S. Coriani,  C. J. Cramer,  
 A. E. DePrince, III,  R. A. DiStasio Jr.,  A. Dreuw,  B. D. Dunietz,  
 T. R. Furlani,  W. A. Goddard III,  S. Grimme,  S. Hammes-Schiffer,  
 T. Head-Gordon,  W. J. Hehre,  Chao-Ping Hsu,  T.-C. Jagau,  Yousung Jung,  
 A. Klamt,  Jing Kong,  D. S. Lambrecht,  WanZhen Liang,  N. J. Mayhall,  
 C. W. McCurdy,  J. B. Neaton,  C. Ochsenfeld,  J. A. Parkhill,  R. Peverati,  
 V. A. Rassolov,  Yihan Shao,  L. V. Slipchenko,  T. Stauch,  R. P. Steele,  
 J. E. Subotnik,  A. J. W. Thom,  A. Tkatchenko,  D. G. Truhlar,  
 T. Van Voorhis,  T. A. Wesolowski,  K. B. Whaley,  H. L. Woodcock III,  
 P. M. Zimmerman,  S. Faraji,  P. M. W. Gill,  M. Head-Gordon,  
 J. M. Herbert,  A. I. Krylov

 Contributors to earlier versions of Q-Chem not listed above: 
 R. D. Adamson,  B. Austin,  R. Baer,  J. Baker,  G. J. O. Beran,  
 K. Brandhorst,  S. T. Brown,  E. F. C. Byrd,  A. K. Chakraborty,  
 G. K. L. Chan,  Chun-Min Chang,  Yunqing Chen,  C.-L. Cheng,  
 Siu Hung Chien,  D. M. Chipman,  D. L. Crittenden,  H. Dachsel,  
 R. J. Doerksen,  A. D. Dutoi,  R. G. Edgar,  J. Fosso-Tande,  
 L. Fusti-Molnar,  D. Ghosh,  A. Ghysels,  A. Golubeva-Zadorozhnaya,  
 J. Gonthier,  M. S. Gordon,  S. R. Gwaltney,  G. Hawkins,  J. E. Herr,  
 A. Heyden,  S. Hirata,  E. G. Hohenstein,  G. Kedziora,  F. J. Keil,  
 C. Kelley,  Jihan Kim,  R. A. King,  R. Z. Khaliullin,  P. P. Korambath,  
 W. Kurlancheek,  A. Laurent,  A. M. Lee,  M. S. Lee,  S. V. Levchenko,  
 Ching Yeh Lin,  D. Liotard,  E. Livshits,  R. C. Lochan,  I. Lotan,  
 L. A. Martinez-Martinez,  P. E. Maslen,  N. Nair,  D. P. O'Neill,  
 D. Neuhauser,  E. Neuscamman,  C. M. Oana,  R. Olivares-Amaya,  R. Olson,  
 T. M. Perrine,  B. Peters,  P. A. Pieniazek,  A. Prociuk,  Y. M. Rhee,  
 J. Ritchie,  M. A. Rohrdanz,  E. Rosta,  N. J. Russ,  H. F. Schaefer III,  
 M. W. Schmidt,  N. E. Schultz,  S. Sharma,  N. Shenvi,  C. D. Sherrill,  
 A. C. Simmonett,  A. Sodt,  T. Stein,  D. Stuck,  K. S. Thanthiriwatte,  
 V. Vanovschi,  L. Vogt,  Tao Wang,  A. Warshel,  M. A. Watson,  
 C. F. Williams,  Q. Wu,  X. Xu,  Jun Yang,  W. Zhang,  Yan Zhao

 Please cite Q-Chem as follows:
 Y. Shao et al., Mol. Phys. 113, 184-215 (2015)
 DOI: 10.1080/00268976.2014.952696

 Q-Chem 5.4.0 for Intel X86 EM64T Linux

 Parts of Q-Chem use Armadillo 9.800.1 (Horizon Scraper).
 http://arma.sourceforge.net/

 Q-Chem begins on Sun Sep 24 19:54:04 2023  

 Host: 
0

     Scratch files written to ./qchem780220//
 May1621 |scratch|qcdevops|jenkins|workspace|build_RNUM    
 Parallel job on  1  processors
 Processing $rem in /cm/shared/apps/spack/cpu/opt/spack/linux-centos8-zen2/gcc-10.2.0/qchem-5.4-akfmr7b3t57bfs6qan3padb2wnb2i7cl/config/preferences:
 Processing $rem in /home/rramji/.qchemrc:
 Symmetry turned off for PCM/SM12/SMD calculation
 Core orbitals will be frozen

 Checking the input file for inconsistencies... 	...done.

 Q-Chem warning in module forms1/BasisType.C, line 2236:

 You are not using the predefined 5D/6D in this basis set.


--------------------------------------------------------------
User input:
--------------------------------------------------------------
$molecule
0 1
C	0.092419	-8.519741	0.255929
C	-0.449364	-7.635967	-0.666007
S	0.885736	-7.651740	1.592708
C	-0.254813	-6.261894	-0.332317
H	-0.980526	-7.954738	-1.571741
C	0.458965	-6.079985	0.904324
C	0.767823	-4.798382	1.385968
C	-0.681909	-5.153542	-1.118303
C	-0.369139	-3.869626	-0.638514
C	0.342916	-3.688927	0.600871
O	-1.368544	-5.481075	-2.248132
O	1.458570	-4.479871	2.520275
C	1.405396	-5.356026	3.639637
H	1.820940	-4.790496	4.495304
H	2.023129	-6.268513	3.490336
H	0.361595	-5.658187	3.873314
C	-1.480048	-4.546999	-3.314934
H	-1.899255	-5.107564	-4.171837
H	-0.490123	-4.131473	-3.601473
H	-2.171521	-3.712085	-3.068969
C	0.537642	-2.314326	0.930308
S	-0.785807	-2.295487	-1.334769
C	-0.000000	-1.435180	-0.000000
H	1.066134	-1.993211	1.836691
H	0.091781	-9.615985	0.249906
C	0.000000	0.000000	0.000000
S	0.451648	0.777811	1.510732
C	1.238377	2.142617	0.727629
C	0.454085	0.786559	-1.064665
C	1.147169	1.990043	-0.678287
C	0.422325	0.728240	-2.486150
C	1.054629	1.823683	-3.106916
S	1.675491	2.905718	-1.965735
C	1.185914	2.041729	-4.559972
O	0.721749	1.231802	-5.350277
O	1.830313	3.151386	-5.004375
F	-0.131347	-0.238577	-3.246290
C	2.018453	3.456956	-6.334976
H	2.571455	4.413580	-6.370268
H	1.052178	3.565244	-6.875609
H	2.601950	2.669768	-6.861878
H	1.698444	2.939346	1.321510
$end

$rem
JOBTYPE		SP
EXCHANGE	HF
CORRELATION	pRIMP2
BASIS		cc-pvtz
METHOD		rimp2
AUX_BASIS	rimp2-cc-pvtz
SOLVENT_METHOD	PCM
PURECART	11111
SYMMETRY	false
MEM_TOTAL	110000
SCF_CONVERGENCE = 6
THRESH=10
GUI = 2
$end



$solvent
dielectric 4.90
$end
--------------------------------------------------------------
 ----------------------------------------------------------------
             Standard Nuclear Orientation (Angstroms)
    I     Atom           X                Y                Z
 ----------------------------------------------------------------
    1      C       0.0924190000    -8.5197410000     0.2559290000
    2      C      -0.4493640000    -7.6359670000    -0.6660070000
    3      S       0.8857360000    -7.6517400000     1.5927080000
    4      C      -0.2548130000    -6.2618940000    -0.3323170000
    5      H      -0.9805260000    -7.9547380000    -1.5717410000
    6      C       0.4589650000    -6.0799850000     0.9043240000
    7      C       0.7678230000    -4.7983820000     1.3859680000
    8      C      -0.6819090000    -5.1535420000    -1.1183030000
    9      C      -0.3691390000    -3.8696260000    -0.6385140000
   10      C       0.3429160000    -3.6889270000     0.6008710000
   11      O      -1.3685440000    -5.4810750000    -2.2481320000
   12      O       1.4585700000    -4.4798710000     2.5202750000
   13      C       1.4053960000    -5.3560260000     3.6396370000
   14      H       1.8209400000    -4.7904960000     4.4953040000
   15      H       2.0231290000    -6.2685130000     3.4903360000
   16      H       0.3615950000    -5.6581870000     3.8733140000
   17      C      -1.4800480000    -4.5469990000    -3.3149340000
   18      H      -1.8992550000    -5.1075640000    -4.1718370000
   19      H      -0.4901230000    -4.1314730000    -3.6014730000
   20      H      -2.1715210000    -3.7120850000    -3.0689690000
   21      C       0.5376420000    -2.3143260000     0.9303080000
   22      S      -0.7858070000    -2.2954870000    -1.3347690000
   23      C       0.0000000000    -1.4351800000     0.0000000000
   24      H       1.0661340000    -1.9932110000     1.8366910000
   25      H       0.0917810000    -9.6159850000     0.2499060000
   26      C       0.0000000000     0.0000000000     0.0000000000
   27      S       0.4516480000     0.7778110000     1.5107320000
   28      C       1.2383770000     2.1426170000     0.7276290000
   29      C       0.4540850000     0.7865590000    -1.0646650000
   30      C       1.1471690000     1.9900430000    -0.6782870000
   31      C       0.4223250000     0.7282400000    -2.4861500000
   32      C       1.0546290000     1.8236830000    -3.1069160000
   33      S       1.6754910000     2.9057180000    -1.9657350000
   34      C       1.1859140000     2.0417290000    -4.5599720000
   35      O       0.7217490000     1.2318020000    -5.3502770000
   36      O       1.8303130000     3.1513860000    -5.0043750000
   37      F      -0.1313470000    -0.2385770000    -3.2462900000
   38      C       2.0184530000     3.4569560000    -6.3349760000
   39      H       2.5714550000     4.4135800000    -6.3702680000
   40      H       1.0521780000     3.5652440000    -6.8756090000
   41      H       2.6019500000     2.6697680000    -6.8618780000
   42      H       1.6984440000     2.9393460000     1.3215100000
 ----------------------------------------------------------------
 Nuclear Repulsion Energy =        3329.45525738 hartrees
 There are      119 alpha and      119 beta electrons
 Requested basis set is cc-pVTZ
 There are 376 shells and 1068 basis functions

 Total QAlloc Memory Limit 110000 MB
 Mega-Array Size       188 MB
 MEM_STATIC part       192 MB
 Discretize the solute cavity surface with Lebedev spheres
	Using 110 Lebedev grid points for each H atom
	Using 194 Lebedev grid points for other atoms
	Atomic van der Waals radii will be scaled by 1.20
 Remove points where switching function is < 1.0e-08
 Keep 2866 surface tesserae and discard 4190 interior tesserae
 Molecular Surface Area = 433.185 Angst**2
 Requested basis set is rimp2-cc-pVTZ
 There are 833 shells and 2903 basis functions
 A cutoff of  1.0D-10 yielded  31588 shell pairs
 There are    242344 function pairs (    314506 Cartesian)
 Smallest overlap matrix eigenvalue = 2.16E-05

 Scale SEOQF with 1.000000e-01/1.000000e-02/1.000000e-02

 Standard Electronic Orientation quadrupole field applied
 Nucleus-field energy     =     0.0000000219 hartrees
 Guess from superposition of atomic densities
 Warning:  Energy on first SCF cycle will be non-variational
 SAD guess density has 238.000000 electrons

 -----------------------------------------------------------------------
  General SCF calculation program by
  Eric Jon Sundstrom, Paul Horn, Yuezhi Mao, Dmitri Zuev, Alec White,
  David Stuck, Shaama M.S., Shane Yost, Joonho Lee, David Small,
  Daniel Levine, Susi Lehtola, Hugh Burton, Evgeny Epifanovsky,
  Bang C. Huynh
 -----------------------------------------------------------------------
 Hartree-Fock
 using 64 threads for integral computing
 -------------------------------------------------------
 OpenMP Integral computing Module                
 Release: version 1.0, May 2013, Q-Chem Inc. Pittsburgh 
 -------------------------------------------------------
 A restricted SCF calculation will be
 performed using DIIS
 SCF converges when DIIS error is below 1.0e-06
 ---------------------------------------
  Cycle       Energy         DIIS error
 ---------------------------------------
    1   -2765.5730993641      1.77e-02  
    2   -2753.8416521026      1.57e-03  
    3   -2754.1812259052      8.86e-04  
    4   -2754.2664862706      2.55e-04  
    5   -2754.2782234909      6.81e-05  
    6   -2754.2793142026      2.38e-05  
    7   -2754.2795597116      1.16e-05  
    8   -2754.2796415874      4.53e-06  
    9   -2754.2796588719      2.02e-06  
   10   -2754.2796614884      8.49e-07  Convergence criterion met
 ---------------------------------------
 SCF time:   CPU 6426.60s  wall 245.00s 

************** Final PCM Free Energy Summary **************
 G_electrostatic  =      -0.01957635 hartree =     -12.28434502 kcal/mol
 G_cavitation     =       0.00000000 hartree =       0.00000000 kcal/mol
 G_dispersion     =       0.00000000 hartree =       0.00000000 kcal/mol
 G_repulsion      =       0.00000000 hartree =       0.00000000 kcal/mol
 --------------------------------------------------
 Non-electrostatic Free Energy =       0.00000000 hartree =       0.00000000 kcal/mol
 Total                         =      -0.01957635 hartree =     -12.28434502 kcal/mol
 --------------------------------------------------
 SCF Energy (H0 + V/2)                       =   -2754.27966149 
 Solute Internal Energy (H0)                 =   -2754.26008514 
 Total Free Energy (H0 + V/2 + non-elec)     =   -2754.27966149 hartree
                                             = -1728336.57336667 kcal/mol
***********************************************************

 SCF   energy in the final basis set =    -2754.2796614884
 Total energy in the final basis set =    -2754.2796614884


 --------------------------------------------------------------
  Generalized many-body perturbation theory program
  by Joonho Lee, Fazle Rob, Xintian Feng, Evgeny Epifanovsky

 No regularization used 
 (reg. param. = 0.0000e+00)
  (P|Q)^-1/2 Time:  CPU 156.87 s  wall 2.47 s

 In RI-MP2 calculation: 
 # of frozen core orbitals: 45

 Components of the RIMP2 correlation energy:
        aaaa    correlation energy =        -0.6724465570 a.u.
        abab    correlation energy =        -3.7158765563 a.u.
        bbbb    correlation energy =        -0.6724465570 a.u.
        non-Brillouin singles      =        -0.0000000000 a.u.
        total same-spin energy     =        -1.3448931140 a.u.
        total opposite-spin energy =        -3.7158765563 a.u.

 Total  RIMP2   correlation energy =        -5.0607696703 a.u.
        RIMP2         total energy =     -2759.3404311587 a.u.

 RI-MP2 Energy Time:  CPU 3577.59 s  wall 59.67 s
 
 --------------------------------------------------------------
 
                    Orbital Energies (a.u.)
 --------------------------------------------------------------
 
 Alpha MOs
 -- Occupied --
-92.0159 -91.9976 -91.9853 -91.9845 -26.3346 -20.6130 -20.5908 -20.5905
-20.5517 -11.4118 -11.3778 -11.3176 -11.3158 -11.3053 -11.3015 -11.3007
-11.2984 -11.2972 -11.2890 -11.2866 -11.2857 -11.2852 -11.2833 -11.2827
-11.2783 -11.2597 -11.2570 -11.2531 -11.2490  -9.0143  -9.0015  -8.9854
 -8.9852  -6.6950  -6.6944  -6.6940  -6.6828  -6.6821  -6.6808  -6.6663
 -6.6662  -6.6656  -6.6656  -6.6647  -6.6646  -1.6490  -1.4729  -1.4149
 -1.4132  -1.3684  -1.2364  -1.1947  -1.1686  -1.1428  -1.0839  -1.0508
 -1.0488  -1.0298  -1.0007  -0.9929  -0.9732  -0.9595  -0.9491  -0.9385
 -0.8944  -0.8713  -0.8492  -0.8089  -0.7936  -0.7868  -0.7751  -0.7641
 -0.7566  -0.7311  -0.7197  -0.7169  -0.6997  -0.6894  -0.6824  -0.6794
 -0.6740  -0.6614  -0.6577  -0.6516  -0.6281  -0.6188  -0.6154  -0.6077
 -0.6025  -0.5983  -0.5886  -0.5708  -0.5682  -0.5667  -0.5556  -0.5525
 -0.5297  -0.5267  -0.5210  -0.5176  -0.5138  -0.5087  -0.5021  -0.4941
 -0.4864  -0.4849  -0.4770  -0.4643  -0.4623  -0.4622  -0.4572  -0.4220
 -0.3946  -0.3849  -0.3572  -0.3508  -0.3227  -0.2850  -0.2488
 -- Virtual --
  0.0093   0.0776   0.1115   0.1281   0.1362   0.1494   0.1531   0.1555
  0.1563   0.1611   0.1678   0.1769   0.1805   0.1846   0.1891   0.1924
  0.2037   0.2053   0.2081   0.2157   0.2214   0.2224   0.2248   0.2277
  0.2296   0.2406   0.2470   0.2570   0.2600   0.2677   0.2737   0.2797
  0.2914   0.3078   0.3282   0.3291   0.3390   0.3427   0.3482   0.3539
  0.3564   0.3599   0.3675   0.3722   0.3784   0.3800   0.3855   0.3880
  0.3903   0.3926   0.3972   0.4026   0.4096   0.4138   0.4151   0.4191
  0.4250   0.4359   0.4381   0.4428   0.4445   0.4486   0.4533   0.4571
  0.4583   0.4659   0.4724   0.4748   0.4809   0.4839   0.4858   0.4915
  0.4966   0.5004   0.5022   0.5061   0.5075   0.5191   0.5213   0.5263
  0.5270   0.5335   0.5345   0.5374   0.5391   0.5444   0.5514   0.5538
  0.5585   0.5626   0.5657   0.5695   0.5716   0.5768   0.5786   0.5830
  0.5876   0.5912   0.5947   0.5992   0.6027   0.6034   0.6120   0.6150
  0.6166   0.6171   0.6222   0.6239   0.6275   0.6296   0.6340   0.6371
  0.6385   0.6437   0.6451   0.6504   0.6563   0.6577   0.6632   0.6717
  0.6759   0.6767   0.6811   0.6852   0.6888   0.6938   0.7016   0.7021
  0.7137   0.7188   0.7201   0.7250   0.7314   0.7350   0.7454   0.7604
  0.7621   0.7648   0.7707   0.7776   0.7856   0.7872   0.7930   0.7958
  0.8026   0.8109   0.8170   0.8212   0.8248   0.8289   0.8386   0.8401
  0.8547   0.8573   0.8683   0.8706   0.8716   0.8820   0.8921   0.8984
  0.9007   0.9040   0.9062   0.9094   0.9137   0.9204   0.9212   0.9300
  0.9338   0.9363   0.9382   0.9424   0.9489   0.9566   0.9622   0.9644
  0.9736   0.9804   0.9863   0.9899   0.9916   0.9953   1.0004   1.0028
  1.0065   1.0100   1.0150   1.0188   1.0248   1.0332   1.0356   1.0393
  1.0433   1.0484   1.0579   1.0645   1.0650   1.0711   1.0734   1.0774
  1.0851   1.0922   1.0961   1.0997   1.1050   1.1068   1.1110   1.1126
  1.1176   1.1277   1.1328   1.1382   1.1429   1.1457   1.1562   1.1588
  1.1611   1.1692   1.1757   1.1795   1.1819   1.1878   1.1891   1.1939
  1.1992   1.2043   1.2117   1.2151   1.2195   1.2224   1.2270   1.2323
  1.2375   1.2428   1.2467   1.2503   1.2530   1.2597   1.2704   1.2758
  1.2802   1.2846   1.2878   1.2975   1.3091   1.3119   1.3208   1.3267
  1.3268   1.3374   1.3398   1.3448   1.3488   1.3536   1.3587   1.3691
  1.3751   1.3817   1.3835   1.3889   1.4020   1.4138   1.4177   1.4205
  1.4266   1.4345   1.4463   1.4605   1.4671   1.4724   1.4854   1.4895
  1.4971   1.5008   1.5024   1.5053   1.5106   1.5132   1.5159   1.5279
  1.5301   1.5363   1.5373   1.5474   1.5500   1.5557   1.5618   1.5654
  1.5700   1.5819   1.5870   1.5907   1.6061   1.6074   1.6259   1.6351
  1.6421   1.6442   1.6545   1.6588   1.6613   1.6665   1.6800   1.6872
  1.6878   1.6959   1.7038   1.7073   1.7182   1.7298   1.7422   1.7476
  1.7585   1.7644   1.7769   1.7876   1.7955   1.7995   1.8096   1.8184
  1.8259   1.8315   1.8352   1.8436   1.8574   1.8639   1.8678   1.8718
  1.8787   1.8918   1.9004   1.9065   1.9159   1.9240   1.9314   1.9344
  1.9418   1.9467   1.9555   1.9695   1.9707   1.9737   1.9807   1.9976
  2.0016   2.0082   2.0182   2.0275   2.0313   2.0373   2.0401   2.0680
  2.0802   2.0833   2.0983   2.1028   2.1128   2.1264   2.1355   2.1415
  2.1498   2.1581   2.1636   2.1685   2.1772   2.1782   2.1857   2.1921
  2.1929   2.2052   2.2114   2.2184   2.2271   2.2360   2.2383   2.2474
  2.2539   2.2584   2.2671   2.2703   2.2765   2.2823   2.2831   2.3007
  2.3071   2.3122   2.3214   2.3277   2.3327   2.3481   2.3574   2.3621
  2.3663   2.3801   2.3866   2.3874   2.3995   2.4068   2.4207   2.4279
  2.4306   2.4403   2.4516   2.4615   2.4649   2.4676   2.4870   2.4907
  2.4953   2.5083   2.5265   2.5285   2.5367   2.5521   2.5554   2.5575
  2.5764   2.5835   2.5842   2.5967   2.6035   2.6120   2.6178   2.6243
  2.6311   2.6317   2.6365   2.6412   2.6462   2.6539   2.6586   2.6687
  2.6793   2.6835   2.6893   2.6992   2.7034   2.7092   2.7153   2.7232
  2.7295   2.7326   2.7357   2.7403   2.7463   2.7499   2.7626   2.7681
  2.7739   2.7887   2.7909   2.7991   2.8008   2.8102   2.8207   2.8265
  2.8340   2.8368   2.8441   2.8495   2.8594   2.8624   2.8679   2.8768
  2.8794   2.8860   2.8877   2.8925   2.9083   2.9225   2.9320   2.9450
  2.9480   2.9548   2.9595   2.9728   2.9762   2.9829   2.9878   3.0041
  3.0074   3.0154   3.0214   3.0318   3.0367   3.0428   3.0438   3.0465
  3.0521   3.0638   3.0676   3.0712   3.0865   3.0920   3.0947   3.1021
  3.1051   3.1142   3.1180   3.1233   3.1272   3.1373   3.1440   3.1528
  3.1573   3.1610   3.1667   3.1724   3.1765   3.1798   3.1830   3.1868
  3.1903   3.1987   3.2022   3.2079   3.2133   3.2157   3.2197   3.2299
  3.2360   3.2420   3.2452   3.2479   3.2533   3.2567   3.2659   3.2717
  3.2754   3.2812   3.2845   3.2892   3.2932   3.2964   3.2979   3.3071
  3.3101   3.3185   3.3228   3.3280   3.3372   3.3391   3.3455   3.3511
  3.3540   3.3558   3.3576   3.3626   3.3637   3.3677   3.3715   3.3824
  3.3873   3.3898   3.3936   3.3967   3.3984   3.4058   3.4196   3.4244
  3.4265   3.4300   3.4324   3.4398   3.4455   3.4522   3.4525   3.4598
  3.4631   3.4672   3.4689   3.4736   3.4790   3.4810   3.4869   3.4902
  3.5095   3.5109   3.5160   3.5225   3.5253   3.5299   3.5317   3.5387
  3.5499   3.5547   3.5636   3.5705   3.5731   3.5817   3.5824   3.5858
  3.5889   3.5962   3.5972   3.6018   3.6048   3.6100   3.6150   3.6269
  3.6295   3.6345   3.6414   3.6460   3.6512   3.6569   3.6633   3.6649
  3.6710   3.6721   3.6808   3.6833   3.6895   3.6932   3.6964   3.7039
  3.7059   3.7113   3.7141   3.7155   3.7288   3.7299   3.7342   3.7382
  3.7413   3.7479   3.7537   3.7604   3.7687   3.7777   3.7793   3.7907
  3.7993   3.8043   3.8058   3.8126   3.8209   3.8249   3.8274   3.8321
  3.8377   3.8395   3.8503   3.8546   3.8579   3.8642   3.8684   3.8772
  3.8801   3.8902   3.8966   3.8983   3.9074   3.9152   3.9204   3.9294
  3.9336   3.9387   3.9432   3.9520   3.9650   3.9742   3.9825   3.9872
  3.9935   4.0065   4.0091   4.0168   4.0211   4.0232   4.0305   4.0448
  4.0473   4.0584   4.0596   4.0708   4.0760   4.0809   4.0903   4.0944
  4.0979   4.1099   4.1137   4.1179   4.1325   4.1382   4.1488   4.1569
  4.1648   4.1669   4.1725   4.1793   4.1856   4.1903   4.2023   4.2070
  4.2145   4.2211   4.2285   4.2408   4.2511   4.2553   4.2683   4.2736
  4.2827   4.2972   4.3064   4.3135   4.3215   4.3326   4.3404   4.3472
  4.3503   4.3619   4.3716   4.3761   4.3777   4.3918   4.3947   4.4022
  4.4059   4.4108   4.4145   4.4229   4.4277   4.4329   4.4421   4.4501
  4.4636   4.4698   4.4854   4.4899   4.4975   4.5043   4.5073   4.5147
  4.5277   4.5403   4.5489   4.5549   4.5599   4.5753   4.5853   4.5972
  4.6004   4.6070   4.6120   4.6248   4.6277   4.6398   4.6426   4.6487
  4.6593   4.6675   4.6736   4.6821   4.6878   4.7001   4.7029   4.7297
  4.7400   4.7427   4.7653   4.7682   4.7815   4.7902   4.7998   4.8100
  4.8259   4.8341   4.8499   4.8574   4.8700   4.9010   4.9111   4.9237
  4.9455   4.9489   4.9572   4.9608   4.9713   4.9772   4.9960   5.0039
  5.0076   5.0114   5.0198   5.0319   5.0460   5.0633   5.0718   5.0899
  5.0972   5.1210   5.1401   5.1481   5.1660   5.1707   5.1852   5.1972
  5.2012   5.2150   5.2269   5.2330   5.2529   5.2581   5.2586   5.2843
  5.3001   5.3092   5.3141   5.3286   5.3402   5.3524   5.3547   5.3693
  5.3716   5.3909   5.3990   5.4013   5.4034   5.4296   5.4490   5.4650
  5.4726   5.4780   5.4959   5.5096   5.5128   5.5213   5.5426   5.5632
  5.5741   5.5844   5.5908   5.6072   5.6164   5.6337   5.6454   5.6709
  5.7194   5.7322   5.7868   5.7999   5.8174   5.8292   5.8564   5.8627
  5.8756   5.8852   5.9275   5.9683   5.9732   5.9771   5.9957   6.0324
  6.0704   6.0910   6.1216   6.1329   6.1342   6.1726   6.1779   6.1853
  6.2391   6.2483   6.2722   6.2760   6.2994   6.3078   6.3221   6.3899
  6.4282   6.4481   6.4774   6.5059   6.5502   6.5553   6.5578   6.6543
  6.6660   6.6755   6.7013   6.7342   6.7427   6.8012   6.8418   6.8591
  6.8810   6.8944   6.9888   7.1211   7.1389   7.1775   7.2100   7.2174
  7.2348   7.3213   7.3252   7.3338   7.3721   7.3768   7.4294   7.4617
  7.4817   7.4858   7.4905   7.5206   7.5480   7.6115   7.7164   7.7700
  7.7981   7.8303   7.9030   7.9220   7.9496   8.0036   8.0966   8.1857
  8.4922   8.9324   9.0219   9.3649   9.5019   9.7061  10.1992  10.6017
 11.2450  11.3788  11.9459  11.9791  12.1261  12.2294  12.3259  12.5888
 12.6394  12.7608  12.9465  13.2096  13.2810  13.5992  13.8468  13.9035
 13.9343  14.0226  14.1682  14.4862  15.2053
 --------------------------------------------------------------
 
          Ground-State Mulliken Net Atomic Charges

     Atom                 Charge (a.u.)
  ----------------------------------------
      1 C                    -0.191093
      2 C                    -0.253770
      3 S                    -0.025006
      4 C                    -0.016166
      5 H                     0.196228
      6 C                    -0.028566
      7 C                     0.238880
      8 C                     0.242951
      9 C                    -0.044983
     10 C                    -0.022450
     11 O                    -0.333937
     12 O                    -0.340985
     13 C                    -0.085472
     14 H                     0.121896
     15 H                     0.090910
     16 H                     0.093686
     17 C                    -0.087420
     18 H                     0.124567
     19 H                     0.095515
     20 H                     0.089664
     21 C                    -0.254581
     22 S                    -0.011074
     23 C                    -0.017430
     24 H                     0.194042
     25 H                     0.205949
     26 C                    -0.021031
     27 S                     0.098535
     28 C                    -0.204799
     29 C                    -0.061568
     30 C                    -0.027078
     31 C                     0.364765
     32 C                    -0.131272
     33 S                     0.048357
     34 C                     0.456432
     35 O                    -0.447885
     36 O                    -0.297700
     37 F                    -0.207056
     38 C                    -0.054862
     39 H                     0.116897
     40 H                     0.084691
     41 H                     0.084793
     42 H                     0.217425
  ----------------------------------------
  Sum of atomic charges =     0.000000

 -----------------------------------------------------------------
                    Cartesian Multipole Moments
 -----------------------------------------------------------------
    Charge (ESU x 10^10)
                -0.0000
    Dipole Moment (Debye)
         X       1.7316      Y       2.2189      Z       2.8523
       Tot       4.0072
    Quadrupole Moments (Debye-Ang)
        XX    -195.6209     XY       8.7530     YY    -166.0337
        XZ       1.2024     YZ      -9.8295     ZZ    -182.3548
    Octopole Moments (Debye-Ang^2)
       XXX    -266.8558    XXY     424.7230    XYY     -67.5394
       YYY     967.7808    XXZ     146.5013    XYZ     -56.4883
       YYZ     133.7725    XZZ     -31.9367    YZZ     405.6669
       ZZZ     510.9196
    Hexadecapole Moments (Debye-Ang^3)
      XXXX   -1481.7975   XXXY    -406.9540   XXYY   -3893.9745
      XYYY    -332.4010   YYYY  -18245.6041   XXXZ     217.2423
      XXYZ     535.9651   XYYZ     182.5327   YYYZ    1514.7975
      XXZZ   -1332.6580   XYZZ      81.9376   YYZZ   -4025.9490
      XZZZ       4.6946   YZZZ    1053.7124   ZZZZ   -7172.8849
 -----------------------------------------------------------------
 Total job time:  318.84s(wall), 10466.70s(cpu) 
 Sun Sep 24 19:59:22 2023

        *************************************************************
        *                                                           *
        *  Thank you very much for using Q-Chem.  Have a nice day.  *
        *                                                           *
        *************************************************************


0 sent ACK to 0 
now end server 0 ... 
cleanup process ... done
remove work dirs ./qchem780220.0 -- ./qchem780220.0
rm -rf ./qchem780220.0
rm -rf ./qchem780220
