You are running Q-Chem version: 5.4.0

#
# job setting
#
local host:  exp-4-17
current dir: /expanse/lustre/projects/csd626/rramji/aromodel/PTB7_fin/Rotation_Test
input file:  fin_bdt_Phi_15_Theta_320_fin_ftt.qcin
output file: 
nprocs     : 1
nthreads   : 64
#
# qchem installation setting
#
QC:          /cm/shared/apps/spack/cpu/opt/spack/linux-centos8-zen2/gcc-10.2.0/qchem-5.4-akfmr7b3t57bfs6qan3padb2wnb2i7cl
QCAUX:       /cm/shared/apps/spack/cpu/opt/spack/linux-centos8-zen2/gcc-10.2.0/qchem-5.4-akfmr7b3t57bfs6qan3padb2wnb2i7cl/qcaux
QCPROG:      /cm/shared/apps/spack/cpu/opt/spack/linux-centos8-zen2/gcc-10.2.0/qchem-5.4-akfmr7b3t57bfs6qan3padb2wnb2i7cl/exe/qcprog.exe
QCPROG_S:    /cm/shared/apps/spack/cpu/opt/spack/linux-centos8-zen2/gcc-10.2.0/qchem-5.4-akfmr7b3t57bfs6qan3padb2wnb2i7cl/exe/qcprog.exe_s
PARALLEL:    -DPARALLEL
QCMPI:       mpich
#
# qchem directory setting
#
qcrun:       qchem1317372
QCSCRATCH:   .
QCLOCALSCR:  
QCTMPDIR:    .
QCFILEPREF:  ./qchem1317372
QCSAVEDIR:   
workdirs:    ./qchem1317372
workdir0:    ./qchem1317372
partmpdirs =  
#
# parallel setting
#
QCRSH:           ssh
QCMPI:           mpich
QCMPIRUN:        /cm/shared/apps/spack/cpu/opt/spack/linux-centos8-zen2/gcc-10.2.0/qchem-5.4-akfmr7b3t57bfs6qan3padb2wnb2i7cl/bin/mpi/mpirun_qchem
QCMACHINEFILE:   ./qchem1317372/hostfile
exp-4-17

#
# env setting
#
exported envs:   QC QCAUX QCSCRATCH QCRUNNAME QCFILEPREF QCPROG QCPROG_S GUIFILE

Running Job 1 of 1 fin_bdt_Phi_15_Theta_320_fin_ftt.qcin
qchem fin_bdt_Phi_15_Theta_320_fin_ftt.qcin_1317372.0 ./qchem1317372/ 1
/cm/shared/apps/spack/cpu/opt/spack/linux-centos8-zen2/gcc-10.2.0/qchem-5.4-akfmr7b3t57bfs6qan3padb2wnb2i7cl/bin/mpi/mpirun_qchem -machinefile ./qchem1317372/hostfile -np 1 /cm/shared/apps/spack/cpu/opt/spack/linux-centos8-zen2/gcc-10.2.0/qchem-5.4-akfmr7b3t57bfs6qan3padb2wnb2i7cl/exe/qcprog.exe fin_bdt_Phi_15_Theta_320_fin_ftt.qcin_1317372.0 ./qchem1317372/

Process 0 of 1 is on exp-4-17 - thread support 0
initial socket setup ...start
initial socket setup ...done 
now start server 0 ... 
                  Welcome to Q-Chem
     A Quantum Leap Into The Future Of Chemistry


 Q-Chem 5.4, Q-Chem, Inc., Pleasanton, CA (2021)

 License issued to: University of California, San Diego (site)

 E. Epifanovsky,  A. T. B. Gilbert,  Xintian Feng,  Joonho Lee,  Yuezhi Mao,  
 N. Mardirossian,  P. Pokhilko,  A. White,  M. Wormit,  M. P. Coons,  
 A. L. Dempwolff,  Zhengting Gan,  D. Hait,  P. R. Horn,  L. D. Jacobson,  
 I. Kaliman,  J. Kussmann,  A. W. Lange,  Ka Un Lao,  D. S. Levine,  Jie Liu,  
 S. C. McKenzie,  A. F. Morrison,  K. Nanda,  F. Plasser,  D. R. Rehn,  
 M. L. Vidal,  Zhi-Qiang You,  Ying Zhu,  B. Alam,  B. Albrecht,  
 A. Aldossary,  E. Alguire,  J. H. Andersen,  D. Barton,  K. Begam,  A. Behn,  
 Y. A. Bernard,  E. J. Berquist,  H. Burton,  A. Carreras,  K. Carter-Fenk,  
 R. Chakraborty,  A. D. Chien,  K. D. Closser,  V. Cofer-Shabica,  
 S. Dasgupta,  Jia Deng,  M. de Wergifosse,  M. Diedenhofen,  Hainam Do,  
 S. Ehlert,  Po-Tung Fang,  S. Fatehi,  Qingguo Feng,  J. Gayvert,  
 Qinghui Ge,  G. Gidofalvi,  M. Goldey,  J. Gomes,  C. Gonzalez-Espinoza,  
 S. Gulania,  A. Gunina,  M. W. D. Hanson-Heine,  P. H. P. Harbach,  
 A. W. Hauser,  M. F. Herbst,  M. Hernandez Vera,  M. Hodecker,  
 Z. C. Holden,  S. Houck,  Xunkun Huang,  Kerwin Hui,  B. C. Huynh,  
 M. Ivanov,  Hyunjun Ji,  Hanjie Jiang,  B. Kaduk,  S. Kaehler,  
 K. Khistyaev,  Jaehoon Kim,  P. Klunzinger,  Z. Koczor-Benda,  
 Joong Hoon Koh,  D. Kosenkov,  L. Koulias,  T. Kowalczyk,  C. M. Krauter,  
 K. Kue,  A. Kunitsa,  T. Kus,  A. Landau,  K. V. Lawler,  D. Lefrancois,  
 S. Lehtola,  Rain Li,  Yi-Pei Li,  Jiashu Liang,  M. Liebenthal,  
 Hung-Hsuan Lin,  You-Sheng Lin,  Fenglai Liu,  Kuan-Yu Liu,  
 M. Loipersberger,  A. Luenser,  A. Manjanath,  P. Manohar,  E. Mansoor,  
 S. F. Manzer,  Shan-Ping Mao,  A. V. Marenich,  T. Markovich,  S. Mason,  
 S. A. Maurer,  P. F. McLaughlin,  M. F. S. J. Menger,  J.-M. Mewes,  
 S. A. Mewes,  P. Morgante,  J. W. Mullinax,  T. S. Nguyen-Beck,  
 K. J. Oosterbaan,  G. Paran,  Alexander C. Paul,  Suranjan K. Paul,  
 F. Pavosevic,  Zheng Pei,  S. Prager,  E. I. Proynov,  E. Ramos,  B. Rana,  
 A. E. Rask,  A. Rettig,  R. M. Richard,  F. Rob,  E. Rossomme,  T. Scheele,  
 M. Scheurer,  M. Schneider,  N. Sergueev,  S. M. Sharada,  W. Skomorowski,  
 D. W. Small,  C. J. Stein,  Yu-Chuan Su,  E. J. Sundstrom,  Zhen Tao,  
 J. Thirman,  T. Tsuchimochi,  N. M. Tubman,  S. P. Veccham,  O. Vydrov,  
 J. Wenzel,  J. Witte,  A. Yamada,  Kun Yao,  S. Yeganeh,  S. R. Yost,  
 A. Zech,  Igor Ying Zhang,  Xing Zhang,  Yu Zhang,  D. Zuev,  
 A. Aspuru-Guzik,  A. T. Bell,  N. A. Besley,  K. B. Bravaya,  B. R. Brooks,  
 D. Casanova,  Jeng-Da Chai,  S. Coriani,  C. J. Cramer,  
 A. E. DePrince, III,  R. A. DiStasio Jr.,  A. Dreuw,  B. D. Dunietz,  
 T. R. Furlani,  W. A. Goddard III,  S. Grimme,  S. Hammes-Schiffer,  
 T. Head-Gordon,  W. J. Hehre,  Chao-Ping Hsu,  T.-C. Jagau,  Yousung Jung,  
 A. Klamt,  Jing Kong,  D. S. Lambrecht,  WanZhen Liang,  N. J. Mayhall,  
 C. W. McCurdy,  J. B. Neaton,  C. Ochsenfeld,  J. A. Parkhill,  R. Peverati,  
 V. A. Rassolov,  Yihan Shao,  L. V. Slipchenko,  T. Stauch,  R. P. Steele,  
 J. E. Subotnik,  A. J. W. Thom,  A. Tkatchenko,  D. G. Truhlar,  
 T. Van Voorhis,  T. A. Wesolowski,  K. B. Whaley,  H. L. Woodcock III,  
 P. M. Zimmerman,  S. Faraji,  P. M. W. Gill,  M. Head-Gordon,  
 J. M. Herbert,  A. I. Krylov

 Contributors to earlier versions of Q-Chem not listed above: 
 R. D. Adamson,  B. Austin,  R. Baer,  J. Baker,  G. J. O. Beran,  
 K. Brandhorst,  S. T. Brown,  E. F. C. Byrd,  A. K. Chakraborty,  
 G. K. L. Chan,  Chun-Min Chang,  Yunqing Chen,  C.-L. Cheng,  
 Siu Hung Chien,  D. M. Chipman,  D. L. Crittenden,  H. Dachsel,  
 R. J. Doerksen,  A. D. Dutoi,  R. G. Edgar,  J. Fosso-Tande,  
 L. Fusti-Molnar,  D. Ghosh,  A. Ghysels,  A. Golubeva-Zadorozhnaya,  
 J. Gonthier,  M. S. Gordon,  S. R. Gwaltney,  G. Hawkins,  J. E. Herr,  
 A. Heyden,  S. Hirata,  E. G. Hohenstein,  G. Kedziora,  F. J. Keil,  
 C. Kelley,  Jihan Kim,  R. A. King,  R. Z. Khaliullin,  P. P. Korambath,  
 W. Kurlancheek,  A. Laurent,  A. M. Lee,  M. S. Lee,  S. V. Levchenko,  
 Ching Yeh Lin,  D. Liotard,  E. Livshits,  R. C. Lochan,  I. Lotan,  
 L. A. Martinez-Martinez,  P. E. Maslen,  N. Nair,  D. P. O'Neill,  
 D. Neuhauser,  E. Neuscamman,  C. M. Oana,  R. Olivares-Amaya,  R. Olson,  
 T. M. Perrine,  B. Peters,  P. A. Pieniazek,  A. Prociuk,  Y. M. Rhee,  
 J. Ritchie,  M. A. Rohrdanz,  E. Rosta,  N. J. Russ,  H. F. Schaefer III,  
 M. W. Schmidt,  N. E. Schultz,  S. Sharma,  N. Shenvi,  C. D. Sherrill,  
 A. C. Simmonett,  A. Sodt,  T. Stein,  D. Stuck,  K. S. Thanthiriwatte,  
 V. Vanovschi,  L. Vogt,  Tao Wang,  A. Warshel,  M. A. Watson,  
 C. F. Williams,  Q. Wu,  X. Xu,  Jun Yang,  W. Zhang,  Yan Zhao

 Please cite Q-Chem as follows:
 Y. Shao et al., Mol. Phys. 113, 184-215 (2015)
 DOI: 10.1080/00268976.2014.952696

 Q-Chem 5.4.0 for Intel X86 EM64T Linux

 Parts of Q-Chem use Armadillo 9.800.1 (Horizon Scraper).
 http://arma.sourceforge.net/

 Q-Chem begins on Tue Sep 26 20:14:38 2023  

 Host: 
0

     Scratch files written to ./qchem1317372//
 May1621 |scratch|qcdevops|jenkins|workspace|build_RNUM    
 Parallel job on  1  processors
 Processing $rem in /cm/shared/apps/spack/cpu/opt/spack/linux-centos8-zen2/gcc-10.2.0/qchem-5.4-akfmr7b3t57bfs6qan3padb2wnb2i7cl/config/preferences:
 Processing $rem in /home/rramji/.qchemrc:
 Symmetry turned off for PCM/SM12/SMD calculation
 Core orbitals will be frozen

 Checking the input file for inconsistencies... 	...done.

 Q-Chem warning in module forms1/BasisType.C, line 2236:

 You are not using the predefined 5D/6D in this basis set.


--------------------------------------------------------------
User input:
--------------------------------------------------------------
$molecule
0 1
C	0.135457	-8.519741	0.235993
C	-0.558188	-7.635967	-0.577858
S	1.148850	-7.651740	1.414705
C	-0.308648	-6.261894	-0.283020
H	-1.238560	-7.954738	-1.377597
C	0.609026	-6.079985	0.810887
C	0.996828	-4.798382	1.231581
C	-0.865740	-5.153542	-0.982901
C	-0.474408	-3.869626	-0.564713
C	0.442046	-3.688927	0.532196
O	-1.738137	-5.481075	-1.976332
O	1.874052	-4.479871	2.228709
C	2.016062	-5.356026	3.340298
H	2.573877	-4.790496	4.110807
H	2.598484	-6.268513	3.085998
H	1.028695	-5.658187	3.751679
C	-2.033195	-4.546999	-3.007565
H	-2.594833	-5.107564	-3.778655
H	-1.108067	-4.131473	-3.461650
H	-2.671451	-3.712085	-2.645264
C	0.691020	-2.314326	0.822814
S	-1.005649	-2.295487	-1.178037
C	0.000000	-1.435180	0.000000
H	1.368875	-1.993211	1.623656
H	0.133782	-9.615985	0.230172
C	0.000000	0.000000	0.000000
S	0.234946	0.868203	1.510732
C	0.641630	2.390125	0.727629
C	0.235036	0.877284	-1.064665
C	0.593019	2.219143	-0.678287
C	0.219452	0.812732	-2.486150
C	0.546689	2.034501	-3.106916
S	0.866345	3.240357	-1.965735
C	0.617067	2.279095	-4.559972
O	0.378342	1.376631	-5.350277
O	0.952308	3.517725	-5.004375
F	-0.065123	-0.264443	-3.246290
C	1.054950	3.861577	-6.334976
H	1.341516	4.928732	-6.370268
H	0.093573	3.716085	-6.875609
H	1.822303	3.252232	-6.861878
H	0.879812	3.278780	1.321510
$end

$rem
JOBTYPE		SP
EXCHANGE	HF
CORRELATION	pRIMP2
BASIS		cc-pvtz
METHOD		rimp2
AUX_BASIS	rimp2-cc-pvtz
SOLVENT_METHOD	PCM
PURECART	11111
SYMMETRY	false
MEM_TOTAL	110000
SCF_CONVERGENCE = 6
THRESH=10
GUI = 2
$end



$solvent
dielectric 4.90
$end
--------------------------------------------------------------
 ----------------------------------------------------------------
             Standard Nuclear Orientation (Angstroms)
    I     Atom           X                Y                Z
 ----------------------------------------------------------------
    1      C       0.1354570000    -8.5197410000     0.2359930000
    2      C      -0.5581880000    -7.6359670000    -0.5778580000
    3      S       1.1488500000    -7.6517400000     1.4147050000
    4      C      -0.3086480000    -6.2618940000    -0.2830200000
    5      H      -1.2385600000    -7.9547380000    -1.3775970000
    6      C       0.6090260000    -6.0799850000     0.8108870000
    7      C       0.9968280000    -4.7983820000     1.2315810000
    8      C      -0.8657400000    -5.1535420000    -0.9829010000
    9      C      -0.4744080000    -3.8696260000    -0.5647130000
   10      C       0.4420460000    -3.6889270000     0.5321960000
   11      O      -1.7381370000    -5.4810750000    -1.9763320000
   12      O       1.8740520000    -4.4798710000     2.2287090000
   13      C       2.0160620000    -5.3560260000     3.3402980000
   14      H       2.5738770000    -4.7904960000     4.1108070000
   15      H       2.5984840000    -6.2685130000     3.0859980000
   16      H       1.0286950000    -5.6581870000     3.7516790000
   17      C      -2.0331950000    -4.5469990000    -3.0075650000
   18      H      -2.5948330000    -5.1075640000    -3.7786550000
   19      H      -1.1080670000    -4.1314730000    -3.4616500000
   20      H      -2.6714510000    -3.7120850000    -2.6452640000
   21      C       0.6910200000    -2.3143260000     0.8228140000
   22      S      -1.0056490000    -2.2954870000    -1.1780370000
   23      C       0.0000000000    -1.4351800000     0.0000000000
   24      H       1.3688750000    -1.9932110000     1.6236560000
   25      H       0.1337820000    -9.6159850000     0.2301720000
   26      C       0.0000000000     0.0000000000     0.0000000000
   27      S       0.2349460000     0.8682030000     1.5107320000
   28      C       0.6416300000     2.3901250000     0.7276290000
   29      C       0.2350360000     0.8772840000    -1.0646650000
   30      C       0.5930190000     2.2191430000    -0.6782870000
   31      C       0.2194520000     0.8127320000    -2.4861500000
   32      C       0.5466890000     2.0345010000    -3.1069160000
   33      S       0.8663450000     3.2403570000    -1.9657350000
   34      C       0.6170670000     2.2790950000    -4.5599720000
   35      O       0.3783420000     1.3766310000    -5.3502770000
   36      O       0.9523080000     3.5177250000    -5.0043750000
   37      F      -0.0651230000    -0.2644430000    -3.2462900000
   38      C       1.0549500000     3.8615770000    -6.3349760000
   39      H       1.3415160000     4.9287320000    -6.3702680000
   40      H       0.0935730000     3.7160850000    -6.8756090000
   41      H       1.8223030000     3.2522320000    -6.8618780000
   42      H       0.8798120000     3.2787800000     1.3215100000
 ----------------------------------------------------------------
 Nuclear Repulsion Energy =        3312.85816365 hartrees
 There are      119 alpha and      119 beta electrons
 Requested basis set is cc-pVTZ
 There are 376 shells and 1068 basis functions

 Total QAlloc Memory Limit 110000 MB
 Mega-Array Size       188 MB
 MEM_STATIC part       192 MB
 Discretize the solute cavity surface with Lebedev spheres
	Using 110 Lebedev grid points for each H atom
	Using 194 Lebedev grid points for other atoms
	Atomic van der Waals radii will be scaled by 1.20
 Remove points where switching function is < 1.0e-08
 Keep 2879 surface tesserae and discard 4177 interior tesserae
 Molecular Surface Area = 436.495 Angst**2
 Requested basis set is rimp2-cc-pVTZ
 There are 833 shells and 2903 basis functions
 A cutoff of  1.0D-10 yielded  31315 shell pairs
 There are    240603 function pairs (    312436 Cartesian)
 Smallest overlap matrix eigenvalue = 2.17E-05

 Scale SEOQF with 1.000000e-01/1.000000e-02/1.000000e-02

 Standard Electronic Orientation quadrupole field applied
 Nucleus-field energy     =     0.0000000225 hartrees
 Guess from superposition of atomic densities
 Warning:  Energy on first SCF cycle will be non-variational
 SAD guess density has 238.000000 electrons

 -----------------------------------------------------------------------
  General SCF calculation program by
  Eric Jon Sundstrom, Paul Horn, Yuezhi Mao, Dmitri Zuev, Alec White,
  David Stuck, Shaama M.S., Shane Yost, Joonho Lee, David Small,
  Daniel Levine, Susi Lehtola, Hugh Burton, Evgeny Epifanovsky,
  Bang C. Huynh
 -----------------------------------------------------------------------
 Hartree-Fock
 using 64 threads for integral computing
 -------------------------------------------------------
 OpenMP Integral computing Module                
 Release: version 1.0, May 2013, Q-Chem Inc. Pittsburgh 
 -------------------------------------------------------
 A restricted SCF calculation will be
 performed using DIIS
 SCF converges when DIIS error is below 1.0e-06
 ---------------------------------------
  Cycle       Energy         DIIS error
 ---------------------------------------
    1   -2765.5428617773      1.77e-02  
    2   -2753.8559155968      1.57e-03  
    3   -2754.1952086833      8.84e-04  
    4   -2754.2798682461      2.55e-04  
    5   -2754.2915576017      6.81e-05  
    6   -2754.2926436145      2.37e-05  
    7   -2754.2928876341      1.16e-05  
    8   -2754.2929682077      4.49e-06  
    9   -2754.2929845474      1.96e-06  
   10   -2754.2929868856      8.07e-07  Convergence criterion met
 ---------------------------------------
 SCF time:   CPU 6522.91s  wall 248.00s 

************** Final PCM Free Energy Summary **************
 G_electrostatic  =      -0.01950705 hartree =     -12.24085604 kcal/mol
 G_cavitation     =       0.00000000 hartree =       0.00000000 kcal/mol
 G_dispersion     =       0.00000000 hartree =       0.00000000 kcal/mol
 G_repulsion      =       0.00000000 hartree =       0.00000000 kcal/mol
 --------------------------------------------------
 Non-electrostatic Free Energy =       0.00000000 hartree =       0.00000000 kcal/mol
 Total                         =      -0.01950705 hartree =     -12.24085604 kcal/mol
 --------------------------------------------------
 SCF Energy (H0 + V/2)                       =   -2754.29298689 
 Solute Internal Energy (H0)                 =   -2754.27347984 
 Total Free Energy (H0 + V/2 + non-elec)     =   -2754.29298689 hartree
                                             = -1728344.93517957 kcal/mol
***********************************************************

 SCF   energy in the final basis set =    -2754.2929868856
 Total energy in the final basis set =    -2754.2929868856


 --------------------------------------------------------------
  Generalized many-body perturbation theory program
  by Joonho Lee, Fazle Rob, Xintian Feng, Evgeny Epifanovsky

 No regularization used 
 (reg. param. = 0.0000e+00)
  (P|Q)^-1/2 Time:  CPU 188.95 s  wall 3.73 s

 In RI-MP2 calculation: 
 # of frozen core orbitals: 45

 Components of the RIMP2 correlation energy:
        aaaa    correlation energy =        -0.6713669328 a.u.
        abab    correlation energy =        -3.7128792269 a.u.
        bbbb    correlation energy =        -0.6713669328 a.u.
        non-Brillouin singles      =        -0.0000000000 a.u.
        total same-spin energy     =        -1.3427338657 a.u.
        total opposite-spin energy =        -3.7128792269 a.u.

 Total  RIMP2   correlation energy =        -5.0556130926 a.u.
        RIMP2         total energy =     -2759.3485999781 a.u.

 RI-MP2 Energy Time:  CPU 2718.33 s  wall 45.17 s
 
 --------------------------------------------------------------
 
                    Orbital Energies (a.u.)
 --------------------------------------------------------------
 
 Alpha MOs
 -- Occupied --
-92.0163 -91.9951 -91.9874 -91.9863 -26.3339 -20.6120 -20.5918 -20.5916
-20.5499 -11.4102 -11.3776 -11.3186 -11.3182 -11.3110 -11.2972 -11.2972
-11.2967 -11.2943 -11.2885 -11.2864 -11.2859 -11.2859 -11.2838 -11.2830
-11.2798 -11.2612 -11.2590 -11.2582 -11.2498  -9.0145  -8.9991  -8.9880
 -8.9862  -6.6952  -6.6946  -6.6942  -6.6803  -6.6797  -6.6783  -6.6689
 -6.6682  -6.6673  -6.6672  -6.6666  -6.6657  -1.6477  -1.4717  -1.4158
 -1.4144  -1.3670  -1.2340  -1.1960  -1.1687  -1.1421  -1.0844  -1.0520
 -1.0478  -1.0283  -1.0021  -0.9934  -0.9719  -0.9607  -0.9500  -0.9384
 -0.8955  -0.8695  -0.8508  -0.8081  -0.7920  -0.7873  -0.7749  -0.7649
 -0.7580  -0.7324  -0.7187  -0.7156  -0.7006  -0.6885  -0.6834  -0.6784
 -0.6720  -0.6612  -0.6585  -0.6525  -0.6295  -0.6198  -0.6164  -0.6064
 -0.6014  -0.5953  -0.5876  -0.5731  -0.5695  -0.5675  -0.5563  -0.5524
 -0.5300  -0.5271  -0.5223  -0.5175  -0.5146  -0.5086  -0.5018  -0.4943
 -0.4879  -0.4840  -0.4786  -0.4664  -0.4616  -0.4609  -0.4598  -0.4184
 -0.3963  -0.3863  -0.3581  -0.3502  -0.3218  -0.2854  -0.2515
 -- Virtual --
  0.0159   0.0749   0.1141   0.1265   0.1355   0.1479   0.1501   0.1555
  0.1560   0.1603   0.1689   0.1741   0.1812   0.1857   0.1895   0.1906
  0.2044   0.2054   0.2086   0.2165   0.2210   0.2216   0.2241   0.2277
  0.2321   0.2389   0.2463   0.2559   0.2636   0.2663   0.2723   0.2813
  0.2891   0.3100   0.3258   0.3291   0.3364   0.3426   0.3470   0.3529
  0.3557   0.3611   0.3685   0.3737   0.3785   0.3805   0.3846   0.3872
  0.3910   0.3924   0.3996   0.4079   0.4104   0.4126   0.4178   0.4220
  0.4242   0.4364   0.4418   0.4436   0.4470   0.4508   0.4525   0.4553
  0.4567   0.4642   0.4700   0.4731   0.4801   0.4829   0.4843   0.4935
  0.4940   0.5009   0.5015   0.5043   0.5104   0.5180   0.5196   0.5255
  0.5294   0.5333   0.5336   0.5381   0.5409   0.5457   0.5523   0.5543
  0.5556   0.5611   0.5649   0.5683   0.5710   0.5738   0.5799   0.5815
  0.5862   0.5884   0.5945   0.5966   0.6004   0.6041   0.6084   0.6104
  0.6153   0.6181   0.6194   0.6237   0.6256   0.6285   0.6313   0.6334
  0.6355   0.6408   0.6454   0.6492   0.6558   0.6568   0.6665   0.6687
  0.6728   0.6762   0.6829   0.6863   0.6908   0.6950   0.6998   0.7013
  0.7120   0.7184   0.7194   0.7255   0.7300   0.7395   0.7459   0.7571
  0.7607   0.7688   0.7720   0.7808   0.7833   0.7874   0.7934   0.7981
  0.8021   0.8125   0.8156   0.8202   0.8245   0.8303   0.8381   0.8423
  0.8530   0.8559   0.8660   0.8698   0.8742   0.8835   0.8895   0.8954
  0.9017   0.9054   0.9055   0.9110   0.9126   0.9197   0.9223   0.9294
  0.9318   0.9328   0.9421   0.9454   0.9509   0.9573   0.9659   0.9682
  0.9738   0.9778   0.9853   0.9872   0.9876   0.9950   1.0005   1.0020
  1.0058   1.0138   1.0176   1.0190   1.0204   1.0322   1.0351   1.0412
  1.0467   1.0514   1.0563   1.0637   1.0682   1.0691   1.0747   1.0794
  1.0849   1.0859   1.0887   1.0962   1.0977   1.1078   1.1107   1.1147
  1.1220   1.1252   1.1333   1.1377   1.1408   1.1459   1.1575   1.1601
  1.1643   1.1707   1.1757   1.1775   1.1809   1.1847   1.1892   1.1927
  1.1982   1.2081   1.2127   1.2159   1.2190   1.2205   1.2252   1.2267
  1.2372   1.2387   1.2415   1.2490   1.2537   1.2635   1.2698   1.2737
  1.2808   1.2835   1.2859   1.2941   1.3067   1.3113   1.3185   1.3250
  1.3341   1.3360   1.3416   1.3435   1.3505   1.3551   1.3607   1.3633
  1.3731   1.3850   1.3868   1.3902   1.3998   1.4075   1.4177   1.4222
  1.4365   1.4442   1.4482   1.4615   1.4675   1.4740   1.4832   1.4891
  1.4945   1.5006   1.5047   1.5069   1.5114   1.5128   1.5235   1.5289
  1.5314   1.5344   1.5370   1.5457   1.5477   1.5543   1.5605   1.5654
  1.5713   1.5867   1.5871   1.5905   1.6075   1.6092   1.6259   1.6328
  1.6434   1.6481   1.6541   1.6582   1.6594   1.6684   1.6801   1.6862
  1.6887   1.6982   1.6987   1.7080   1.7180   1.7287   1.7416   1.7511
  1.7624   1.7717   1.7778   1.7840   1.7886   1.8029   1.8102   1.8243
  1.8296   1.8324   1.8358   1.8440   1.8593   1.8659   1.8677   1.8710
  1.8779   1.8865   1.9005   1.9033   1.9076   1.9196   1.9305   1.9343
  1.9376   1.9465   1.9510   1.9587   1.9700   1.9770   1.9874   1.9932
  1.9983   2.0018   2.0183   2.0294   2.0369   2.0410   2.0464   2.0566
  2.0734   2.0791   2.0959   2.1034   2.1119   2.1183   2.1367   2.1432
  2.1551   2.1581   2.1627   2.1716   2.1760   2.1804   2.1904   2.1920
  2.1976   2.2040   2.2115   2.2207   2.2276   2.2348   2.2361   2.2428
  2.2533   2.2567   2.2622   2.2738   2.2788   2.2804   2.2942   2.3056
  2.3096   2.3153   2.3256   2.3311   2.3397   2.3506   2.3533   2.3635
  2.3694   2.3802   2.3847   2.3950   2.3983   2.4048   2.4228   2.4296
  2.4339   2.4426   2.4512   2.4598   2.4724   2.4732   2.4855   2.4876
  2.4980   2.5078   2.5260   2.5292   2.5366   2.5551   2.5574   2.5714
  2.5791   2.5827   2.5859   2.5958   2.6095   2.6132   2.6223   2.6252
  2.6317   2.6322   2.6370   2.6449   2.6492   2.6630   2.6672   2.6681
  2.6833   2.6874   2.6905   2.6975   2.7016   2.7089   2.7160   2.7196
  2.7252   2.7333   2.7362   2.7410   2.7462   2.7589   2.7631   2.7661
  2.7686   2.7874   2.7876   2.7942   2.7989   2.8061   2.8192   2.8246
  2.8317   2.8364   2.8424   2.8492   2.8573   2.8610   2.8684   2.8720
  2.8749   2.8832   2.8891   2.8939   2.9044   2.9101   2.9144   2.9425
  2.9457   2.9526   2.9574   2.9679   2.9740   2.9814   2.9934   3.0055
  3.0109   3.0150   3.0230   3.0313   3.0378   3.0405   3.0432   3.0453
  3.0526   3.0574   3.0702   3.0787   3.0864   3.0899   3.0927   3.1042
  3.1064   3.1102   3.1165   3.1172   3.1283   3.1343   3.1446   3.1490
  3.1557   3.1574   3.1636   3.1714   3.1727   3.1759   3.1803   3.1864
  3.1866   3.1984   3.2037   3.2085   3.2171   3.2195   3.2223   3.2307
  3.2357   3.2389   3.2435   3.2485   3.2511   3.2599   3.2662   3.2727
  3.2745   3.2798   3.2828   3.2898   3.2914   3.2948   3.2969   3.3060
  3.3075   3.3106   3.3226   3.3302   3.3338   3.3399   3.3447   3.3501
  3.3506   3.3545   3.3572   3.3608   3.3627   3.3677   3.3691   3.3757
  3.3850   3.3874   3.3928   3.3965   3.3981   3.4084   3.4102   3.4191
  3.4212   3.4275   3.4303   3.4409   3.4432   3.4458   3.4513   3.4532
  3.4612   3.4660   3.4701   3.4728   3.4763   3.4852   3.4907   3.4956
  3.5064   3.5116   3.5142   3.5208   3.5259   3.5279   3.5311   3.5350
  3.5458   3.5483   3.5581   3.5648   3.5713   3.5757   3.5807   3.5834
  3.5868   3.5927   3.5987   3.6012   3.6022   3.6132   3.6153   3.6223
  3.6293   3.6325   3.6341   3.6437   3.6479   3.6543   3.6586   3.6622
  3.6665   3.6683   3.6757   3.6803   3.6859   3.6896   3.6930   3.6962
  3.7008   3.7101   3.7125   3.7201   3.7293   3.7298   3.7335   3.7377
  3.7428   3.7486   3.7520   3.7561   3.7642   3.7737   3.7785   3.7910
  3.7928   3.7968   3.8024   3.8059   3.8159   3.8235   3.8268   3.8303
  3.8360   3.8476   3.8508   3.8565   3.8593   3.8650   3.8695   3.8752
  3.8794   3.8895   3.8939   3.9051   3.9084   3.9125   3.9203   3.9231
  3.9332   3.9405   3.9485   3.9557   3.9647   3.9698   3.9783   3.9877
  3.9988   4.0034   4.0051   4.0138   4.0200   4.0245   4.0355   4.0452
  4.0523   4.0549   4.0586   4.0695   4.0742   4.0829   4.0891   4.0933
  4.0991   4.1015   4.1163   4.1199   4.1273   4.1402   4.1505   4.1512
  4.1649   4.1670   4.1726   4.1792   4.1859   4.1898   4.2003   4.2040
  4.2091   4.2127   4.2259   4.2353   4.2464   4.2619   4.2693   4.2760
  4.2806   4.2898   4.3091   4.3130   4.3262   4.3354   4.3392   4.3478
  4.3498   4.3538   4.3722   4.3767   4.3791   4.3936   4.3945   4.3954
  4.4066   4.4098   4.4125   4.4231   4.4241   4.4352   4.4437   4.4538
  4.4584   4.4737   4.4852   4.4894   4.4915   4.5024   4.5067   4.5138
  4.5276   4.5358   4.5446   4.5556   4.5588   4.5766   4.5829   4.5978
  4.6022   4.6082   4.6128   4.6253   4.6282   4.6408   4.6443   4.6497
  4.6516   4.6693   4.6718   4.6758   4.6835   4.7005   4.7081   4.7288
  4.7394   4.7427   4.7626   4.7744   4.7781   4.7925   4.8052   4.8074
  4.8215   4.8304   4.8390   4.8553   4.8682   4.9007   4.9117   4.9229
  4.9479   4.9491   4.9531   4.9620   4.9629   4.9798   4.9963   5.0023
  5.0109   5.0119   5.0203   5.0364   5.0466   5.0634   5.0706   5.0880
  5.1035   5.1139   5.1401   5.1515   5.1657   5.1769   5.1833   5.2018
  5.2108   5.2151   5.2306   5.2338   5.2532   5.2592   5.2690   5.2878
  5.2999   5.3052   5.3137   5.3311   5.3371   5.3486   5.3553   5.3676
  5.3718   5.3883   5.3985   5.4021   5.4067   5.4280   5.4515   5.4640
  5.4731   5.4775   5.4957   5.5086   5.5120   5.5254   5.5438   5.5626
  5.5737   5.5847   5.5973   5.6063   5.6178   5.6353   5.6472   5.6770
  5.7212   5.7345   5.7924   5.8009   5.8167   5.8290   5.8553   5.8679
  5.8766   5.8876   5.9329   5.9698   5.9760   5.9835   5.9968   6.0563
  6.0696   6.0898   6.1247   6.1337   6.1592   6.1720   6.1798   6.1859
  6.2396   6.2587   6.2722   6.2749   6.2963   6.3087   6.3204   6.3960
  6.4377   6.4479   6.4811   6.5125   6.5492   6.5564   6.5565   6.6529
  6.6705   6.6769   6.6991   6.7369   6.7439   6.8003   6.8417   6.8606
  6.8823   6.8927   6.9909   7.1191   7.1389   7.1786   7.2111   7.2165
  7.2333   7.3196   7.3267   7.3326   7.3732   7.3770   7.4305   7.4627
  7.4805   7.4865   7.4890   7.5214   7.5495   7.6138   7.7172   7.7705
  7.7968   7.8315   7.9034   7.9199   7.9488   8.0039   8.0991   8.1864
  8.5470   8.9308   9.0161   9.3644   9.5029   9.7041  10.1868  10.6868
 11.2455  11.4207  11.9244  11.9528  12.1290  12.2143  12.3288  12.5849
 12.6678  12.7750  12.9343  13.2352  13.2800  13.6031  13.8459  13.9039
 13.9612  14.0237  14.2288  14.5007  15.2038
 --------------------------------------------------------------
 
          Ground-State Mulliken Net Atomic Charges

     Atom                 Charge (a.u.)
  ----------------------------------------
      1 C                    -0.188084
      2 C                    -0.254028
      3 S                    -0.022785
      4 C                    -0.014058
      5 H                     0.196617
      6 C                    -0.029964
      7 C                     0.242742
      8 C                     0.242417
      9 C                    -0.046502
     10 C                    -0.030040
     11 O                    -0.333775
     12 O                    -0.340218
     13 C                    -0.085657
     14 H                     0.122396
     15 H                     0.091318
     16 H                     0.093988
     17 C                    -0.087475
     18 H                     0.124678
     19 H                     0.096185
     20 H                     0.089471
     21 C                    -0.235762
     22 S                    -0.001341
     23 C                    -0.013754
     24 H                     0.197868
     25 H                     0.206486
     26 C                    -0.016611
     27 S                     0.102306
     28 C                    -0.228820
     29 C                    -0.079978
     30 C                    -0.016976
     31 C                     0.375627
     32 C                    -0.143426
     33 S                     0.039773
     34 C                     0.458153
     35 O                    -0.450530
     36 O                    -0.297936
     37 F                    -0.208515
     38 C                    -0.054921
     39 H                     0.116576
     40 H                     0.084421
     41 H                     0.084466
     42 H                     0.215668
  ----------------------------------------
  Sum of atomic charges =     0.000000

 -----------------------------------------------------------------
                    Cartesian Multipole Moments
 -----------------------------------------------------------------
    Charge (ESU x 10^10)
                -0.0000
    Dipole Moment (Debye)
         X       0.6607      Y       1.6057      Z       3.1971
       Tot       3.6382
    Quadrupole Moments (Debye-Ang)
        XX    -195.7670     XY       4.9903     YY    -160.4510
        XZ       7.3905     YZ     -11.1505     ZZ    -186.1882
    Octopole Moments (Debye-Ang^2)
       XXX    -158.0077    XXY     379.2477    XYY     -35.3264
       YYY     904.2377    XXZ     158.3593    XYZ     -63.6227
       YYZ     128.4391    XZZ     -19.4954    YZZ     410.8834
       ZZZ     518.9348
    Hexadecapole Moments (Debye-Ang^3)
      XXXX   -1317.7557   XXXY     -86.4915   XXYY   -3914.6220
      XYYY     -35.5528   YYYY  -18499.5069   XXXZ    -166.4846
      XXYZ     600.2946   XYYZ     150.1035   YYYZ    1551.9242
      XXZZ   -1303.0147   XYZZ      85.5140   YYZZ   -4031.1040
      XZZZ    -247.6773   YZZZ    1102.2218   ZZZZ   -6921.0714
 -----------------------------------------------------------------
 Total job time:  297.49s(wall), 9341.83s(cpu) 
 Tue Sep 26 20:19:35 2023

        *************************************************************
        *                                                           *
        *  Thank you very much for using Q-Chem.  Have a nice day.  *
        *                                                           *
        *************************************************************


0 sent ACK to 0 
now end server 0 ... 
cleanup process ... done
remove work dirs ./qchem1317372.0 -- ./qchem1317372.0
rm -rf ./qchem1317372.0
rm -rf ./qchem1317372
