You are running Q-Chem version: 5.4.0

#
# job setting
#
local host:  exp-3-12
current dir: /expanse/lustre/projects/csd626/rramji/aromodel/PTB7_fin/Rotation_Test
input file:  fin_bdt_Phi_20_Theta_150_fin_ftt.qcin
output file: 
nprocs     : 1
nthreads   : 64
#
# qchem installation setting
#
QC:          /cm/shared/apps/spack/cpu/opt/spack/linux-centos8-zen2/gcc-10.2.0/qchem-5.4-akfmr7b3t57bfs6qan3padb2wnb2i7cl
QCAUX:       /cm/shared/apps/spack/cpu/opt/spack/linux-centos8-zen2/gcc-10.2.0/qchem-5.4-akfmr7b3t57bfs6qan3padb2wnb2i7cl/qcaux
QCPROG:      /cm/shared/apps/spack/cpu/opt/spack/linux-centos8-zen2/gcc-10.2.0/qchem-5.4-akfmr7b3t57bfs6qan3padb2wnb2i7cl/exe/qcprog.exe
QCPROG_S:    /cm/shared/apps/spack/cpu/opt/spack/linux-centos8-zen2/gcc-10.2.0/qchem-5.4-akfmr7b3t57bfs6qan3padb2wnb2i7cl/exe/qcprog.exe_s
PARALLEL:    -DPARALLEL
QCMPI:       mpich
#
# qchem directory setting
#
qcrun:       qchem3974014
QCSCRATCH:   .
QCLOCALSCR:  
QCTMPDIR:    .
QCFILEPREF:  ./qchem3974014
QCSAVEDIR:   
workdirs:    ./qchem3974014
workdir0:    ./qchem3974014
partmpdirs =  
#
# parallel setting
#
QCRSH:           ssh
QCMPI:           mpich
QCMPIRUN:        /cm/shared/apps/spack/cpu/opt/spack/linux-centos8-zen2/gcc-10.2.0/qchem-5.4-akfmr7b3t57bfs6qan3padb2wnb2i7cl/bin/mpi/mpirun_qchem
QCMACHINEFILE:   ./qchem3974014/hostfile
exp-3-12

#
# env setting
#
exported envs:   QC QCAUX QCSCRATCH QCRUNNAME QCFILEPREF QCPROG QCPROG_S GUIFILE

Running Job 1 of 1 fin_bdt_Phi_20_Theta_150_fin_ftt.qcin
qchem fin_bdt_Phi_20_Theta_150_fin_ftt.qcin_3974014.0 ./qchem3974014/ 1
/cm/shared/apps/spack/cpu/opt/spack/linux-centos8-zen2/gcc-10.2.0/qchem-5.4-akfmr7b3t57bfs6qan3padb2wnb2i7cl/bin/mpi/mpirun_qchem -machinefile ./qchem3974014/hostfile -np 1 /cm/shared/apps/spack/cpu/opt/spack/linux-centos8-zen2/gcc-10.2.0/qchem-5.4-akfmr7b3t57bfs6qan3padb2wnb2i7cl/exe/qcprog.exe fin_bdt_Phi_20_Theta_150_fin_ftt.qcin_3974014.0 ./qchem3974014/

Process 0 of 1 is on exp-3-12 - thread support 0
initial socket setup ...start
initial socket setup ...done 
now start server 0 ... 
                  Welcome to Q-Chem
     A Quantum Leap Into The Future Of Chemistry


 Q-Chem 5.4, Q-Chem, Inc., Pleasanton, CA (2021)

 License issued to: University of California, San Diego (site)

 E. Epifanovsky,  A. T. B. Gilbert,  Xintian Feng,  Joonho Lee,  Yuezhi Mao,  
 N. Mardirossian,  P. Pokhilko,  A. White,  M. Wormit,  M. P. Coons,  
 A. L. Dempwolff,  Zhengting Gan,  D. Hait,  P. R. Horn,  L. D. Jacobson,  
 I. Kaliman,  J. Kussmann,  A. W. Lange,  Ka Un Lao,  D. S. Levine,  Jie Liu,  
 S. C. McKenzie,  A. F. Morrison,  K. Nanda,  F. Plasser,  D. R. Rehn,  
 M. L. Vidal,  Zhi-Qiang You,  Ying Zhu,  B. Alam,  B. Albrecht,  
 A. Aldossary,  E. Alguire,  J. H. Andersen,  D. Barton,  K. Begam,  A. Behn,  
 Y. A. Bernard,  E. J. Berquist,  H. Burton,  A. Carreras,  K. Carter-Fenk,  
 R. Chakraborty,  A. D. Chien,  K. D. Closser,  V. Cofer-Shabica,  
 S. Dasgupta,  Jia Deng,  M. de Wergifosse,  M. Diedenhofen,  Hainam Do,  
 S. Ehlert,  Po-Tung Fang,  S. Fatehi,  Qingguo Feng,  J. Gayvert,  
 Qinghui Ge,  G. Gidofalvi,  M. Goldey,  J. Gomes,  C. Gonzalez-Espinoza,  
 S. Gulania,  A. Gunina,  M. W. D. Hanson-Heine,  P. H. P. Harbach,  
 A. W. Hauser,  M. F. Herbst,  M. Hernandez Vera,  M. Hodecker,  
 Z. C. Holden,  S. Houck,  Xunkun Huang,  Kerwin Hui,  B. C. Huynh,  
 M. Ivanov,  Hyunjun Ji,  Hanjie Jiang,  B. Kaduk,  S. Kaehler,  
 K. Khistyaev,  Jaehoon Kim,  P. Klunzinger,  Z. Koczor-Benda,  
 Joong Hoon Koh,  D. Kosenkov,  L. Koulias,  T. Kowalczyk,  C. M. Krauter,  
 K. Kue,  A. Kunitsa,  T. Kus,  A. Landau,  K. V. Lawler,  D. Lefrancois,  
 S. Lehtola,  Rain Li,  Yi-Pei Li,  Jiashu Liang,  M. Liebenthal,  
 Hung-Hsuan Lin,  You-Sheng Lin,  Fenglai Liu,  Kuan-Yu Liu,  
 M. Loipersberger,  A. Luenser,  A. Manjanath,  P. Manohar,  E. Mansoor,  
 S. F. Manzer,  Shan-Ping Mao,  A. V. Marenich,  T. Markovich,  S. Mason,  
 S. A. Maurer,  P. F. McLaughlin,  M. F. S. J. Menger,  J.-M. Mewes,  
 S. A. Mewes,  P. Morgante,  J. W. Mullinax,  T. S. Nguyen-Beck,  
 K. J. Oosterbaan,  G. Paran,  Alexander C. Paul,  Suranjan K. Paul,  
 F. Pavosevic,  Zheng Pei,  S. Prager,  E. I. Proynov,  E. Ramos,  B. Rana,  
 A. E. Rask,  A. Rettig,  R. M. Richard,  F. Rob,  E. Rossomme,  T. Scheele,  
 M. Scheurer,  M. Schneider,  N. Sergueev,  S. M. Sharada,  W. Skomorowski,  
 D. W. Small,  C. J. Stein,  Yu-Chuan Su,  E. J. Sundstrom,  Zhen Tao,  
 J. Thirman,  T. Tsuchimochi,  N. M. Tubman,  S. P. Veccham,  O. Vydrov,  
 J. Wenzel,  J. Witte,  A. Yamada,  Kun Yao,  S. Yeganeh,  S. R. Yost,  
 A. Zech,  Igor Ying Zhang,  Xing Zhang,  Yu Zhang,  D. Zuev,  
 A. Aspuru-Guzik,  A. T. Bell,  N. A. Besley,  K. B. Bravaya,  B. R. Brooks,  
 D. Casanova,  Jeng-Da Chai,  S. Coriani,  C. J. Cramer,  
 A. E. DePrince, III,  R. A. DiStasio Jr.,  A. Dreuw,  B. D. Dunietz,  
 T. R. Furlani,  W. A. Goddard III,  S. Grimme,  S. Hammes-Schiffer,  
 T. Head-Gordon,  W. J. Hehre,  Chao-Ping Hsu,  T.-C. Jagau,  Yousung Jung,  
 A. Klamt,  Jing Kong,  D. S. Lambrecht,  WanZhen Liang,  N. J. Mayhall,  
 C. W. McCurdy,  J. B. Neaton,  C. Ochsenfeld,  J. A. Parkhill,  R. Peverati,  
 V. A. Rassolov,  Yihan Shao,  L. V. Slipchenko,  T. Stauch,  R. P. Steele,  
 J. E. Subotnik,  A. J. W. Thom,  A. Tkatchenko,  D. G. Truhlar,  
 T. Van Voorhis,  T. A. Wesolowski,  K. B. Whaley,  H. L. Woodcock III,  
 P. M. Zimmerman,  S. Faraji,  P. M. W. Gill,  M. Head-Gordon,  
 J. M. Herbert,  A. I. Krylov

 Contributors to earlier versions of Q-Chem not listed above: 
 R. D. Adamson,  B. Austin,  R. Baer,  J. Baker,  G. J. O. Beran,  
 K. Brandhorst,  S. T. Brown,  E. F. C. Byrd,  A. K. Chakraborty,  
 G. K. L. Chan,  Chun-Min Chang,  Yunqing Chen,  C.-L. Cheng,  
 Siu Hung Chien,  D. M. Chipman,  D. L. Crittenden,  H. Dachsel,  
 R. J. Doerksen,  A. D. Dutoi,  R. G. Edgar,  J. Fosso-Tande,  
 L. Fusti-Molnar,  D. Ghosh,  A. Ghysels,  A. Golubeva-Zadorozhnaya,  
 J. Gonthier,  M. S. Gordon,  S. R. Gwaltney,  G. Hawkins,  J. E. Herr,  
 A. Heyden,  S. Hirata,  E. G. Hohenstein,  G. Kedziora,  F. J. Keil,  
 C. Kelley,  Jihan Kim,  R. A. King,  R. Z. Khaliullin,  P. P. Korambath,  
 W. Kurlancheek,  A. Laurent,  A. M. Lee,  M. S. Lee,  S. V. Levchenko,  
 Ching Yeh Lin,  D. Liotard,  E. Livshits,  R. C. Lochan,  I. Lotan,  
 L. A. Martinez-Martinez,  P. E. Maslen,  N. Nair,  D. P. O'Neill,  
 D. Neuhauser,  E. Neuscamman,  C. M. Oana,  R. Olivares-Amaya,  R. Olson,  
 T. M. Perrine,  B. Peters,  P. A. Pieniazek,  A. Prociuk,  Y. M. Rhee,  
 J. Ritchie,  M. A. Rohrdanz,  E. Rosta,  N. J. Russ,  H. F. Schaefer III,  
 M. W. Schmidt,  N. E. Schultz,  S. Sharma,  N. Shenvi,  C. D. Sherrill,  
 A. C. Simmonett,  A. Sodt,  T. Stein,  D. Stuck,  K. S. Thanthiriwatte,  
 V. Vanovschi,  L. Vogt,  Tao Wang,  A. Warshel,  M. A. Watson,  
 C. F. Williams,  Q. Wu,  X. Xu,  Jun Yang,  W. Zhang,  Yan Zhao

 Please cite Q-Chem as follows:
 Y. Shao et al., Mol. Phys. 113, 184-215 (2015)
 DOI: 10.1080/00268976.2014.952696

 Q-Chem 5.4.0 for Intel X86 EM64T Linux

 Parts of Q-Chem use Armadillo 9.800.1 (Horizon Scraper).
 http://arma.sourceforge.net/

 Q-Chem begins on Sun Sep 24 17:37:47 2023  

 Host: 
0

     Scratch files written to ./qchem3974014//
 May1621 |scratch|qcdevops|jenkins|workspace|build_RNUM    
 Parallel job on  1  processors
 Processing $rem in /cm/shared/apps/spack/cpu/opt/spack/linux-centos8-zen2/gcc-10.2.0/qchem-5.4-akfmr7b3t57bfs6qan3padb2wnb2i7cl/config/preferences:
 Processing $rem in /home/rramji/.qchemrc:
 Symmetry turned off for PCM/SM12/SMD calculation
 Core orbitals will be frozen

 Checking the input file for inconsistencies... 	...done.

 Q-Chem warning in module forms1/BasisType.C, line 2236:

 You are not using the predefined 5D/6D in this basis set.


--------------------------------------------------------------
User input:
--------------------------------------------------------------
$molecule
0 1
C	-0.092419	-8.519741	-0.255929
C	0.449364	-7.635967	0.666007
S	-0.885736	-7.651740	-1.592708
C	0.254813	-6.261894	0.332317
H	0.980526	-7.954738	1.571741
C	-0.458965	-6.079985	-0.904324
C	-0.767823	-4.798382	-1.385968
C	0.681909	-5.153542	1.118303
C	0.369139	-3.869626	0.638514
C	-0.342916	-3.688927	-0.600871
O	1.368544	-5.481075	2.248132
O	-1.458570	-4.479871	-2.520275
C	-1.405396	-5.356026	-3.639637
H	-1.820940	-4.790496	-4.495304
H	-2.023129	-6.268513	-3.490336
H	-0.361595	-5.658187	-3.873314
C	1.480048	-4.546999	3.314934
H	1.899255	-5.107564	4.171837
H	0.490123	-4.131473	3.601473
H	2.171521	-3.712085	3.068969
C	-0.537642	-2.314326	-0.930308
S	0.785807	-2.295487	1.334769
C	0.000000	-1.435180	0.000000
H	-1.066134	-1.993211	-1.836691
H	-0.091781	-9.615985	-0.249906
C	0.000000	0.000000	0.000000
S	0.309721	0.844422	1.510732
C	0.847502	2.325108	0.727629
C	0.310602	0.853460	-1.064665
C	0.784173	2.159014	-0.678287
C	0.289451	0.790512	-2.486150
C	0.721927	1.979112	-3.106916
S	1.145464	3.152519	-1.965735
C	0.813355	2.216642	-4.559972
O	0.496884	1.338418	-5.350277
O	1.255274	3.421340	-5.004375
F	-0.087923	-0.257761	-3.246290
C	1.387494	3.754937	-6.334976
H	1.765978	4.793056	-6.370268
H	0.417095	3.693789	-6.875609
H	2.098820	3.081033	-6.861878
H	1.162229	3.189623	1.321510
$end

$rem
JOBTYPE		SP
EXCHANGE	HF
CORRELATION	pRIMP2
BASIS		cc-pvtz
METHOD		rimp2
AUX_BASIS	rimp2-cc-pvtz
SOLVENT_METHOD	PCM
PURECART	11111
SYMMETRY	false
MEM_TOTAL	110000
SCF_CONVERGENCE = 6
THRESH=10
GUI = 2
$end



$solvent
dielectric 4.90
$end
--------------------------------------------------------------
 ----------------------------------------------------------------
             Standard Nuclear Orientation (Angstroms)
    I     Atom           X                Y                Z
 ----------------------------------------------------------------
    1      C      -0.0924190000    -8.5197410000    -0.2559290000
    2      C       0.4493640000    -7.6359670000     0.6660070000
    3      S      -0.8857360000    -7.6517400000    -1.5927080000
    4      C       0.2548130000    -6.2618940000     0.3323170000
    5      H       0.9805260000    -7.9547380000     1.5717410000
    6      C      -0.4589650000    -6.0799850000    -0.9043240000
    7      C      -0.7678230000    -4.7983820000    -1.3859680000
    8      C       0.6819090000    -5.1535420000     1.1183030000
    9      C       0.3691390000    -3.8696260000     0.6385140000
   10      C      -0.3429160000    -3.6889270000    -0.6008710000
   11      O       1.3685440000    -5.4810750000     2.2481320000
   12      O      -1.4585700000    -4.4798710000    -2.5202750000
   13      C      -1.4053960000    -5.3560260000    -3.6396370000
   14      H      -1.8209400000    -4.7904960000    -4.4953040000
   15      H      -2.0231290000    -6.2685130000    -3.4903360000
   16      H      -0.3615950000    -5.6581870000    -3.8733140000
   17      C       1.4800480000    -4.5469990000     3.3149340000
   18      H       1.8992550000    -5.1075640000     4.1718370000
   19      H       0.4901230000    -4.1314730000     3.6014730000
   20      H       2.1715210000    -3.7120850000     3.0689690000
   21      C      -0.5376420000    -2.3143260000    -0.9303080000
   22      S       0.7858070000    -2.2954870000     1.3347690000
   23      C       0.0000000000    -1.4351800000     0.0000000000
   24      H      -1.0661340000    -1.9932110000    -1.8366910000
   25      H      -0.0917810000    -9.6159850000    -0.2499060000
   26      C       0.0000000000     0.0000000000     0.0000000000
   27      S       0.3097210000     0.8444220000     1.5107320000
   28      C       0.8475020000     2.3251080000     0.7276290000
   29      C       0.3106020000     0.8534600000    -1.0646650000
   30      C       0.7841730000     2.1590140000    -0.6782870000
   31      C       0.2894510000     0.7905120000    -2.4861500000
   32      C       0.7219270000     1.9791120000    -3.1069160000
   33      S       1.1454640000     3.1525190000    -1.9657350000
   34      C       0.8133550000     2.2166420000    -4.5599720000
   35      O       0.4968840000     1.3384180000    -5.3502770000
   36      O       1.2552740000     3.4213400000    -5.0043750000
   37      F      -0.0879230000    -0.2577610000    -3.2462900000
   38      C       1.3874940000     3.7549370000    -6.3349760000
   39      H       1.7659780000     4.7930560000    -6.3702680000
   40      H       0.4170950000     3.6937890000    -6.8756090000
   41      H       2.0988200000     3.0810330000    -6.8618780000
   42      H       1.1622290000     3.1896230000     1.3215100000
 ----------------------------------------------------------------
 Nuclear Repulsion Energy =        3314.81324891 hartrees
 There are      119 alpha and      119 beta electrons
 Requested basis set is cc-pVTZ
 There are 376 shells and 1068 basis functions

 Total QAlloc Memory Limit 110000 MB
 Mega-Array Size       188 MB
 MEM_STATIC part       192 MB
 Discretize the solute cavity surface with Lebedev spheres
	Using 110 Lebedev grid points for each H atom
	Using 194 Lebedev grid points for other atoms
	Atomic van der Waals radii will be scaled by 1.20
 Remove points where switching function is < 1.0e-08
 Keep 2877 surface tesserae and discard 4179 interior tesserae
 Molecular Surface Area = 435.476 Angst**2
 Requested basis set is rimp2-cc-pVTZ
 There are 833 shells and 2903 basis functions
 A cutoff of  1.0D-10 yielded  31451 shell pairs
 There are    241473 function pairs (    313490 Cartesian)
 Smallest overlap matrix eigenvalue = 2.20E-05

 Scale SEOQF with 1.000000e-01/1.000000e-02/1.000000e-02

 Standard Electronic Orientation quadrupole field applied
 Nucleus-field energy     =     0.0000000196 hartrees
 Guess from superposition of atomic densities
 Warning:  Energy on first SCF cycle will be non-variational
 SAD guess density has 238.000000 electrons

 -----------------------------------------------------------------------
  General SCF calculation program by
  Eric Jon Sundstrom, Paul Horn, Yuezhi Mao, Dmitri Zuev, Alec White,
  David Stuck, Shaama M.S., Shane Yost, Joonho Lee, David Small,
  Daniel Levine, Susi Lehtola, Hugh Burton, Evgeny Epifanovsky,
  Bang C. Huynh
 -----------------------------------------------------------------------
 Hartree-Fock
 using 64 threads for integral computing
 -------------------------------------------------------
 OpenMP Integral computing Module                
 Release: version 1.0, May 2013, Q-Chem Inc. Pittsburgh 
 -------------------------------------------------------
 A restricted SCF calculation will be
 performed using DIIS
 SCF converges when DIIS error is below 1.0e-06
 ---------------------------------------
  Cycle       Energy         DIIS error
 ---------------------------------------
    1   -2765.5589369977      1.77e-02  
    2   -2753.8524734447      1.57e-03  
    3   -2754.1929237852      8.83e-04  
    4   -2754.2774916540      2.55e-04  
    5   -2754.2891729714      6.83e-05  
    6   -2754.2902662659      2.40e-05  
    7   -2754.2905116911      1.15e-05  
    8   -2754.2905928558      4.46e-06  
    9   -2754.2906089319      1.89e-06  
   10   -2754.2906111529      7.82e-07  Convergence criterion met
 ---------------------------------------
 SCF time:   CPU 6604.01s  wall 260.00s 

************** Final PCM Free Energy Summary **************
 G_electrostatic  =      -0.01915393 hartree =     -12.01927392 kcal/mol
 G_cavitation     =       0.00000000 hartree =       0.00000000 kcal/mol
 G_dispersion     =       0.00000000 hartree =       0.00000000 kcal/mol
 G_repulsion      =       0.00000000 hartree =       0.00000000 kcal/mol
 --------------------------------------------------
 Non-electrostatic Free Energy =       0.00000000 hartree =       0.00000000 kcal/mol
 Total                         =      -0.01915393 hartree =     -12.01927392 kcal/mol
 --------------------------------------------------
 SCF Energy (H0 + V/2)                       =   -2754.29061115 
 Solute Internal Energy (H0)                 =   -2754.27145722 
 Total Free Energy (H0 + V/2 + non-elec)     =   -2754.29061115 hartree
                                             = -1728343.44438480 kcal/mol
***********************************************************

 SCF   energy in the final basis set =    -2754.2906111529
 Total energy in the final basis set =    -2754.2906111529


 --------------------------------------------------------------
  Generalized many-body perturbation theory program
  by Joonho Lee, Fazle Rob, Xintian Feng, Evgeny Epifanovsky

 No regularization used 
 (reg. param. = 0.0000e+00)
  (P|Q)^-1/2 Time:  CPU 201.90 s  wall 3.37 s

 In RI-MP2 calculation: 
 # of frozen core orbitals: 45

 Components of the RIMP2 correlation energy:
        aaaa    correlation energy =        -0.6716854649 a.u.
        abab    correlation energy =        -3.7135531748 a.u.
        bbbb    correlation energy =        -0.6716854649 a.u.
        non-Brillouin singles      =        -0.0000000000 a.u.
        total same-spin energy     =        -1.3433709299 a.u.
        total opposite-spin energy =        -3.7135531748 a.u.

 Total  RIMP2   correlation energy =        -5.0569241047 a.u.
        RIMP2         total energy =     -2759.3475352575 a.u.

 RI-MP2 Energy Time:  CPU 3732.09 s  wall 63.25 s
 
 --------------------------------------------------------------
 
                    Orbital Energies (a.u.)
 --------------------------------------------------------------
 
 Alpha MOs
 -- Occupied --
-92.0163 -91.9958 -91.9915 -91.9864 -26.3360 -20.6122 -20.5928 -20.5908
-20.5502 -11.4105 -11.3780 -11.3197 -11.3178 -11.3106 -11.2979 -11.2979
-11.2959 -11.2953 -11.2886 -11.2877 -11.2863 -11.2851 -11.2841 -11.2832
-11.2798 -11.2614 -11.2591 -11.2552 -11.2500  -9.0148  -8.9998  -8.9920
 -8.9863  -6.6955  -6.6949  -6.6945  -6.6811  -6.6804  -6.6791  -6.6729
 -6.6722  -6.6712  -6.6672  -6.6666  -6.6658  -1.6494  -1.4719  -1.4169
 -1.4136  -1.3673  -1.2346  -1.1964  -1.1694  -1.1427  -1.0844  -1.0523
 -1.0484  -1.0285  -1.0029  -0.9935  -0.9725  -0.9609  -0.9505  -0.9382
 -0.8966  -0.8701  -0.8508  -0.8047  -0.7951  -0.7882  -0.7718  -0.7701
 -0.7575  -0.7322  -0.7200  -0.7172  -0.7013  -0.6895  -0.6835  -0.6787
 -0.6724  -0.6617  -0.6593  -0.6522  -0.6294  -0.6198  -0.6162  -0.6067
 -0.6012  -0.5954  -0.5881  -0.5766  -0.5684  -0.5604  -0.5553  -0.5469
 -0.5376  -0.5273  -0.5221  -0.5186  -0.5171  -0.5091  -0.5048  -0.4955
 -0.4863  -0.4850  -0.4776  -0.4689  -0.4620  -0.4614  -0.4600  -0.4210
 -0.3976  -0.3857  -0.3584  -0.3507  -0.3238  -0.2860  -0.2488
 -- Virtual --
  0.0114   0.0770   0.1129   0.1236   0.1342   0.1469   0.1515   0.1555
  0.1560   0.1617   0.1631   0.1811   0.1858   0.1871   0.1907   0.1947
  0.2024   0.2068   0.2116   0.2183   0.2214   0.2229   0.2236   0.2274
  0.2342   0.2403   0.2452   0.2536   0.2615   0.2696   0.2752   0.2812
  0.3005   0.3052   0.3199   0.3257   0.3390   0.3438   0.3492   0.3506
  0.3540   0.3577   0.3665   0.3729   0.3772   0.3795   0.3851   0.3854
  0.3875   0.3938   0.3987   0.4061   0.4091   0.4145   0.4195   0.4232
  0.4310   0.4318   0.4363   0.4415   0.4435   0.4488   0.4511   0.4559
  0.4571   0.4631   0.4726   0.4764   0.4808   0.4847   0.4894   0.4915
  0.4958   0.4974   0.5048   0.5079   0.5118   0.5174   0.5208   0.5251
  0.5259   0.5321   0.5360   0.5410   0.5460   0.5464   0.5531   0.5561
  0.5583   0.5632   0.5636   0.5680   0.5701   0.5715   0.5773   0.5809
  0.5863   0.5909   0.5916   0.5997   0.6001   0.6044   0.6052   0.6108
  0.6152   0.6181   0.6219   0.6252   0.6266   0.6290   0.6315   0.6378
  0.6380   0.6408   0.6447   0.6504   0.6542   0.6561   0.6594   0.6691
  0.6726   0.6758   0.6814   0.6855   0.6900   0.6933   0.6997   0.7069
  0.7092   0.7204   0.7223   0.7280   0.7328   0.7432   0.7499   0.7562
  0.7582   0.7648   0.7720   0.7802   0.7837   0.7884   0.7917   0.7988
  0.8017   0.8103   0.8128   0.8177   0.8259   0.8305   0.8362   0.8488
  0.8524   0.8559   0.8594   0.8683   0.8752   0.8797   0.8870   0.8960
  0.8984   0.9042   0.9075   0.9140   0.9162   0.9210   0.9266   0.9299
  0.9314   0.9355   0.9371   0.9491   0.9546   0.9616   0.9625   0.9689
  0.9720   0.9805   0.9851   0.9877   0.9931   0.9946   1.0005   1.0015
  1.0040   1.0067   1.0158   1.0181   1.0261   1.0308   1.0379   1.0384
  1.0455   1.0485   1.0550   1.0562   1.0644   1.0691   1.0764   1.0785
  1.0867   1.0894   1.0926   1.0964   1.1001   1.1048   1.1110   1.1147
  1.1206   1.1268   1.1364   1.1416   1.1428   1.1455   1.1522   1.1586
  1.1643   1.1689   1.1721   1.1801   1.1812   1.1848   1.1902   1.1907
  1.1965   1.2022   1.2058   1.2125   1.2180   1.2207   1.2229   1.2339
  1.2348   1.2398   1.2490   1.2506   1.2584   1.2622   1.2691   1.2715
  1.2761   1.2871   1.2914   1.2972   1.3037   1.3070   1.3136   1.3198
  1.3288   1.3338   1.3386   1.3455   1.3502   1.3568   1.3591   1.3671
  1.3732   1.3748   1.3835   1.3873   1.3933   1.4046   1.4099   1.4156
  1.4290   1.4392   1.4503   1.4585   1.4661   1.4737   1.4792   1.4859
  1.4913   1.5007   1.5072   1.5119   1.5128   1.5148   1.5260   1.5287
  1.5298   1.5362   1.5412   1.5457   1.5509   1.5571   1.5597   1.5684
  1.5751   1.5872   1.5922   1.5989   1.6050   1.6102   1.6236   1.6316
  1.6383   1.6475   1.6568   1.6591   1.6623   1.6663   1.6756   1.6809
  1.6889   1.7001   1.7041   1.7115   1.7249   1.7340   1.7389   1.7489
  1.7591   1.7652   1.7721   1.7800   1.7895   1.7944   1.8112   1.8161
  1.8230   1.8330   1.8419   1.8465   1.8597   1.8628   1.8685   1.8703
  1.8764   1.8871   1.9059   1.9105   1.9178   1.9204   1.9292   1.9327
  1.9428   1.9439   1.9543   1.9611   1.9672   1.9739   1.9835   1.9928
  1.9935   2.0131   2.0244   2.0264   2.0299   2.0351   2.0529   2.0555
  2.0721   2.0894   2.1012   2.1132   2.1201   2.1244   2.1416   2.1515
  2.1570   2.1610   2.1634   2.1681   2.1719   2.1788   2.1905   2.1927
  2.1947   2.1963   2.2082   2.2141   2.2210   2.2243   2.2385   2.2422
  2.2519   2.2574   2.2628   2.2728   2.2775   2.2815   2.2879   2.2915
  2.3062   2.3148   2.3170   2.3197   2.3317   2.3441   2.3501   2.3641
  2.3727   2.3819   2.3830   2.3889   2.3997   2.4169   2.4186   2.4275
  2.4317   2.4435   2.4551   2.4605   2.4685   2.4821   2.4869   2.4911
  2.4994   2.5140   2.5246   2.5291   2.5375   2.5517   2.5564   2.5628
  2.5714   2.5798   2.5843   2.5980   2.6075   2.6148   2.6161   2.6201
  2.6253   2.6303   2.6370   2.6405   2.6472   2.6586   2.6641   2.6697
  2.6799   2.6885   2.6954   2.6977   2.7036   2.7095   2.7137   2.7235
  2.7250   2.7335   2.7367   2.7407   2.7498   2.7556   2.7569   2.7701
  2.7752   2.7864   2.7928   2.7976   2.8043   2.8113   2.8185   2.8282
  2.8316   2.8375   2.8450   2.8469   2.8488   2.8548   2.8718   2.8768
  2.8783   2.8847   2.8858   2.8966   2.9021   2.9156   2.9222   2.9361
  2.9464   2.9584   2.9660   2.9683   2.9803   2.9848   2.9913   3.0061
  3.0132   3.0144   3.0188   3.0288   3.0340   3.0356   3.0440   3.0467
  3.0502   3.0597   3.0761   3.0832   3.0895   3.0919   3.0963   3.1024
  3.1061   3.1127   3.1158   3.1197   3.1261   3.1399   3.1450   3.1505
  3.1553   3.1600   3.1664   3.1694   3.1707   3.1784   3.1838   3.1860
  3.1928   3.2025   3.2033   3.2084   3.2109   3.2196   3.2259   3.2311
  3.2369   3.2410   3.2479   3.2537   3.2583   3.2598   3.2659   3.2732
  3.2744   3.2793   3.2843   3.2876   3.2919   3.2963   3.3011   3.3021
  3.3107   3.3156   3.3207   3.3282   3.3341   3.3418   3.3449   3.3458
  3.3501   3.3575   3.3591   3.3621   3.3646   3.3692   3.3726   3.3755
  3.3821   3.3874   3.3922   3.3963   3.3993   3.4070   3.4196   3.4228
  3.4246   3.4284   3.4368   3.4414   3.4451   3.4470   3.4508   3.4549
  3.4588   3.4596   3.4680   3.4712   3.4743   3.4833   3.4859   3.5074
  3.5089   3.5092   3.5200   3.5257   3.5280   3.5290   3.5315   3.5457
  3.5465   3.5485   3.5564   3.5629   3.5728   3.5755   3.5771   3.5820
  3.5871   3.5924   3.5980   3.6017   3.6052   3.6085   3.6135   3.6208
  3.6308   3.6339   3.6400   3.6454   3.6506   3.6540   3.6552   3.6633
  3.6644   3.6683   3.6780   3.6807   3.6822   3.6877   3.6966   3.7008
  3.7063   3.7096   3.7169   3.7196   3.7254   3.7292   3.7320   3.7337
  3.7468   3.7506   3.7535   3.7587   3.7649   3.7685   3.7746   3.7870
  3.7931   3.7934   3.8026   3.8158   3.8198   3.8234   3.8248   3.8300
  3.8384   3.8405   3.8491   3.8554   3.8610   3.8654   3.8668   3.8761
  3.8774   3.8835   3.8889   3.9012   3.9091   3.9124   3.9212   3.9280
  3.9295   3.9408   3.9481   3.9522   3.9651   3.9741   3.9791   3.9808
  3.9888   3.9932   4.0082   4.0161   4.0210   4.0286   4.0349   4.0407
  4.0508   4.0561   4.0615   4.0650   4.0711   4.0845   4.0905   4.0950
  4.0954   4.1026   4.1073   4.1256   4.1338   4.1444   4.1480   4.1500
  4.1582   4.1692   4.1723   4.1792   4.1880   4.1906   4.1997   4.2007
  4.2091   4.2135   4.2380   4.2385   4.2461   4.2613   4.2671   4.2797
  4.2809   4.2987   4.3120   4.3231   4.3319   4.3415   4.3439   4.3481
  4.3579   4.3639   4.3722   4.3764   4.3798   4.3894   4.3991   4.4061
  4.4091   4.4108   4.4133   4.4242   4.4316   4.4332   4.4430   4.4460
  4.4555   4.4739   4.4866   4.4927   4.4971   4.5022   4.5098   4.5150
  4.5297   4.5337   4.5413   4.5559   4.5584   4.5711   4.5826   4.6007
  4.6037   4.6187   4.6259   4.6285   4.6316   4.6401   4.6461   4.6571
  4.6625   4.6660   4.6811   4.6815   4.6889   4.7019   4.7164   4.7240
  4.7356   4.7434   4.7486   4.7573   4.7770   4.7886   4.8000   4.8093
  4.8247   4.8302   4.8335   4.8567   4.8634   4.8890   4.9119   4.9225
  4.9410   4.9487   4.9579   4.9661   4.9675   4.9849   4.9965   5.0058
  5.0085   5.0091   5.0138   5.0381   5.0518   5.0603   5.0727   5.0782
  5.0873   5.1182   5.1355   5.1526   5.1695   5.1737   5.1886   5.1942
  5.2051   5.2163   5.2286   5.2496   5.2545   5.2590   5.2771   5.2823
  5.2973   5.3130   5.3140   5.3273   5.3401   5.3552   5.3573   5.3673
  5.3803   5.3918   5.3984   5.4002   5.4254   5.4255   5.4636   5.4729
  5.4731   5.4756   5.5020   5.5071   5.5144   5.5195   5.5513   5.5667
  5.5780   5.5859   5.5907   5.6063   5.6176   5.6359   5.6404   5.6877
  5.7158   5.7379   5.7728   5.8007   5.8146   5.8306   5.8544   5.8562
  5.8727   5.8833   5.9468   5.9688   5.9696   5.9782   6.0033   6.0433
  6.0621   6.1094   6.1283   6.1336   6.1594   6.1704   6.1812   6.1858
  6.2407   6.2534   6.2717   6.2741   6.3085   6.3091   6.3125   6.3867
  6.4422   6.4516   6.4941   6.5282   6.5496   6.5563   6.5576   6.6533
  6.6766   6.6773   6.7071   6.7371   6.7443   6.8012   6.8437   6.8603
  6.8837   6.8930   6.9906   7.1202   7.1382   7.1784   7.2111   7.2155
  7.2342   7.3207   7.3264   7.3320   7.3717   7.3753   7.4306   7.4625
  7.4786   7.4849   7.4889   7.5216   7.5492   7.6093   7.7174   7.7690
  7.7968   7.8315   7.9027   7.9212   7.9476   8.0044   8.0872   8.1780
  8.5685   8.9314   9.0233   9.3645   9.5019   9.7018  10.1784  10.6440
 11.2494  11.3901  11.9427  12.0018  12.1322  12.2198  12.3475  12.5807
 12.6919  12.7095  12.9377  13.2118  13.2770  13.5720  13.8467  13.8906
 13.9110  14.0313  14.1517  14.6508  15.2011
 --------------------------------------------------------------
 
          Ground-State Mulliken Net Atomic Charges

     Atom                 Charge (a.u.)
  ----------------------------------------
      1 C                    -0.188165
      2 C                    -0.254924
      3 S                    -0.021243
      4 C                    -0.013770
      5 H                     0.196236
      6 C                    -0.028221
      7 C                     0.244063
      8 C                     0.240445
      9 C                    -0.045489
     10 C                    -0.026833
     11 O                    -0.333022
     12 O                    -0.339312
     13 C                    -0.085669
     14 H                     0.123729
     15 H                     0.090687
     16 H                     0.094052
     17 C                    -0.088011
     18 H                     0.125597
     19 H                     0.094733
     20 H                     0.089592
     21 C                    -0.228669
     22 S                    -0.021482
     23 C                    -0.039443
     24 H                     0.195675
     25 H                     0.206517
     26 C                     0.005535
     27 S                     0.090578
     28 C                    -0.223673
     29 C                    -0.055943
     30 C                    -0.020356
     31 C                     0.367782
     32 C                    -0.138030
     33 S                     0.042436
     34 C                     0.457068
     35 O                    -0.450113
     36 O                    -0.297972
     37 F                    -0.212043
     38 C                    -0.054809
     39 H                     0.116656
     40 H                     0.084518
     41 H                     0.084471
     42 H                     0.216825
  ----------------------------------------
  Sum of atomic charges =     0.000000

 -----------------------------------------------------------------
                    Cartesian Multipole Moments
 -----------------------------------------------------------------
    Charge (ESU x 10^10)
                -0.0000
    Dipole Moment (Debye)
         X       1.5244      Y       1.5303      Z       3.1191
       Tot       3.7940
    Quadrupole Moments (Debye-Ang)
        XX    -197.9045     XY       4.0776     YY    -160.3690
        XZ       3.2209     YZ      -8.9722     ZZ    -183.0850
    Octopole Moments (Debye-Ang^2)
       XXX    -163.1641    XXY     402.0258    XYY     -31.5272
       YYY     909.9137    XXZ     188.6952    XYZ     -51.5744
       YYZ     134.3754    XZZ     -15.9499    YZZ     397.4966
       ZZZ     589.4895
    Hexadecapole Moments (Debye-Ang^3)
      XXXX   -1101.6336   XXXY    -669.6365   XXYY   -3918.4801
      XYYY    -574.9005   YYYY  -18352.6966   XXXZ      10.4404
      XXYZ     258.1543   XYYZ     128.8754   YYYZ     783.9371
      XXZZ   -1342.0872   XYZZ     -31.6619   YYZZ   -4007.5579
      XZZZ    -101.9123   YZZZ     248.2004   ZZZZ   -7192.3765
 -----------------------------------------------------------------
 Total job time:  330.86s(wall), 10555.45s(cpu) 
 Sun Sep 24 17:43:18 2023

        *************************************************************
        *                                                           *
        *  Thank you very much for using Q-Chem.  Have a nice day.  *
        *                                                           *
        *************************************************************


0 sent ACK to 0 
now end server 0 ... 
cleanup process ... done
remove work dirs ./qchem3974014.0 -- ./qchem3974014.0
rm -rf ./qchem3974014.0
rm -rf ./qchem3974014
