You are running Q-Chem version: 5.4.0

#
# job setting
#
local host:  exp-4-17
current dir: /expanse/lustre/projects/csd626/rramji/aromodel/PTB7_fin/Rotation_Test
input file:  fin_bdt_Phi_15_Theta_80_fin_ftt.qcin
output file: 
nprocs     : 1
nthreads   : 64
#
# qchem installation setting
#
QC:          /cm/shared/apps/spack/cpu/opt/spack/linux-centos8-zen2/gcc-10.2.0/qchem-5.4-akfmr7b3t57bfs6qan3padb2wnb2i7cl
QCAUX:       /cm/shared/apps/spack/cpu/opt/spack/linux-centos8-zen2/gcc-10.2.0/qchem-5.4-akfmr7b3t57bfs6qan3padb2wnb2i7cl/qcaux
QCPROG:      /cm/shared/apps/spack/cpu/opt/spack/linux-centos8-zen2/gcc-10.2.0/qchem-5.4-akfmr7b3t57bfs6qan3padb2wnb2i7cl/exe/qcprog.exe
QCPROG_S:    /cm/shared/apps/spack/cpu/opt/spack/linux-centos8-zen2/gcc-10.2.0/qchem-5.4-akfmr7b3t57bfs6qan3padb2wnb2i7cl/exe/qcprog.exe_s
PARALLEL:    -DPARALLEL
QCMPI:       mpich
#
# qchem directory setting
#
qcrun:       qchem1294252
QCSCRATCH:   .
QCLOCALSCR:  
QCTMPDIR:    .
QCFILEPREF:  ./qchem1294252
QCSAVEDIR:   
workdirs:    ./qchem1294252
workdir0:    ./qchem1294252
partmpdirs =  
#
# parallel setting
#
QCRSH:           ssh
QCMPI:           mpich
QCMPIRUN:        /cm/shared/apps/spack/cpu/opt/spack/linux-centos8-zen2/gcc-10.2.0/qchem-5.4-akfmr7b3t57bfs6qan3padb2wnb2i7cl/bin/mpi/mpirun_qchem
QCMACHINEFILE:   ./qchem1294252/hostfile
exp-4-17

#
# env setting
#
exported envs:   QC QCAUX QCSCRATCH QCRUNNAME QCFILEPREF QCPROG QCPROG_S GUIFILE

Running Job 1 of 1 fin_bdt_Phi_15_Theta_80_fin_ftt.qcin
qchem fin_bdt_Phi_15_Theta_80_fin_ftt.qcin_1294252.0 ./qchem1294252/ 1
/cm/shared/apps/spack/cpu/opt/spack/linux-centos8-zen2/gcc-10.2.0/qchem-5.4-akfmr7b3t57bfs6qan3padb2wnb2i7cl/bin/mpi/mpirun_qchem -machinefile ./qchem1294252/hostfile -np 1 /cm/shared/apps/spack/cpu/opt/spack/linux-centos8-zen2/gcc-10.2.0/qchem-5.4-akfmr7b3t57bfs6qan3padb2wnb2i7cl/exe/qcprog.exe fin_bdt_Phi_15_Theta_80_fin_ftt.qcin_1294252.0 ./qchem1294252/

Process 0 of 1 is on exp-4-17 - thread support 0
initial socket setup ...start
initial socket setup ...done 
now start server 0 ... 
                  Welcome to Q-Chem
     A Quantum Leap Into The Future Of Chemistry


 Q-Chem 5.4, Q-Chem, Inc., Pleasanton, CA (2021)

 License issued to: University of California, San Diego (site)

 E. Epifanovsky,  A. T. B. Gilbert,  Xintian Feng,  Joonho Lee,  Yuezhi Mao,  
 N. Mardirossian,  P. Pokhilko,  A. White,  M. Wormit,  M. P. Coons,  
 A. L. Dempwolff,  Zhengting Gan,  D. Hait,  P. R. Horn,  L. D. Jacobson,  
 I. Kaliman,  J. Kussmann,  A. W. Lange,  Ka Un Lao,  D. S. Levine,  Jie Liu,  
 S. C. McKenzie,  A. F. Morrison,  K. Nanda,  F. Plasser,  D. R. Rehn,  
 M. L. Vidal,  Zhi-Qiang You,  Ying Zhu,  B. Alam,  B. Albrecht,  
 A. Aldossary,  E. Alguire,  J. H. Andersen,  D. Barton,  K. Begam,  A. Behn,  
 Y. A. Bernard,  E. J. Berquist,  H. Burton,  A. Carreras,  K. Carter-Fenk,  
 R. Chakraborty,  A. D. Chien,  K. D. Closser,  V. Cofer-Shabica,  
 S. Dasgupta,  Jia Deng,  M. de Wergifosse,  M. Diedenhofen,  Hainam Do,  
 S. Ehlert,  Po-Tung Fang,  S. Fatehi,  Qingguo Feng,  J. Gayvert,  
 Qinghui Ge,  G. Gidofalvi,  M. Goldey,  J. Gomes,  C. Gonzalez-Espinoza,  
 S. Gulania,  A. Gunina,  M. W. D. Hanson-Heine,  P. H. P. Harbach,  
 A. W. Hauser,  M. F. Herbst,  M. Hernandez Vera,  M. Hodecker,  
 Z. C. Holden,  S. Houck,  Xunkun Huang,  Kerwin Hui,  B. C. Huynh,  
 M. Ivanov,  Hyunjun Ji,  Hanjie Jiang,  B. Kaduk,  S. Kaehler,  
 K. Khistyaev,  Jaehoon Kim,  P. Klunzinger,  Z. Koczor-Benda,  
 Joong Hoon Koh,  D. Kosenkov,  L. Koulias,  T. Kowalczyk,  C. M. Krauter,  
 K. Kue,  A. Kunitsa,  T. Kus,  A. Landau,  K. V. Lawler,  D. Lefrancois,  
 S. Lehtola,  Rain Li,  Yi-Pei Li,  Jiashu Liang,  M. Liebenthal,  
 Hung-Hsuan Lin,  You-Sheng Lin,  Fenglai Liu,  Kuan-Yu Liu,  
 M. Loipersberger,  A. Luenser,  A. Manjanath,  P. Manohar,  E. Mansoor,  
 S. F. Manzer,  Shan-Ping Mao,  A. V. Marenich,  T. Markovich,  S. Mason,  
 S. A. Maurer,  P. F. McLaughlin,  M. F. S. J. Menger,  J.-M. Mewes,  
 S. A. Mewes,  P. Morgante,  J. W. Mullinax,  T. S. Nguyen-Beck,  
 K. J. Oosterbaan,  G. Paran,  Alexander C. Paul,  Suranjan K. Paul,  
 F. Pavosevic,  Zheng Pei,  S. Prager,  E. I. Proynov,  E. Ramos,  B. Rana,  
 A. E. Rask,  A. Rettig,  R. M. Richard,  F. Rob,  E. Rossomme,  T. Scheele,  
 M. Scheurer,  M. Schneider,  N. Sergueev,  S. M. Sharada,  W. Skomorowski,  
 D. W. Small,  C. J. Stein,  Yu-Chuan Su,  E. J. Sundstrom,  Zhen Tao,  
 J. Thirman,  T. Tsuchimochi,  N. M. Tubman,  S. P. Veccham,  O. Vydrov,  
 J. Wenzel,  J. Witte,  A. Yamada,  Kun Yao,  S. Yeganeh,  S. R. Yost,  
 A. Zech,  Igor Ying Zhang,  Xing Zhang,  Yu Zhang,  D. Zuev,  
 A. Aspuru-Guzik,  A. T. Bell,  N. A. Besley,  K. B. Bravaya,  B. R. Brooks,  
 D. Casanova,  Jeng-Da Chai,  S. Coriani,  C. J. Cramer,  
 A. E. DePrince, III,  R. A. DiStasio Jr.,  A. Dreuw,  B. D. Dunietz,  
 T. R. Furlani,  W. A. Goddard III,  S. Grimme,  S. Hammes-Schiffer,  
 T. Head-Gordon,  W. J. Hehre,  Chao-Ping Hsu,  T.-C. Jagau,  Yousung Jung,  
 A. Klamt,  Jing Kong,  D. S. Lambrecht,  WanZhen Liang,  N. J. Mayhall,  
 C. W. McCurdy,  J. B. Neaton,  C. Ochsenfeld,  J. A. Parkhill,  R. Peverati,  
 V. A. Rassolov,  Yihan Shao,  L. V. Slipchenko,  T. Stauch,  R. P. Steele,  
 J. E. Subotnik,  A. J. W. Thom,  A. Tkatchenko,  D. G. Truhlar,  
 T. Van Voorhis,  T. A. Wesolowski,  K. B. Whaley,  H. L. Woodcock III,  
 P. M. Zimmerman,  S. Faraji,  P. M. W. Gill,  M. Head-Gordon,  
 J. M. Herbert,  A. I. Krylov

 Contributors to earlier versions of Q-Chem not listed above: 
 R. D. Adamson,  B. Austin,  R. Baer,  J. Baker,  G. J. O. Beran,  
 K. Brandhorst,  S. T. Brown,  E. F. C. Byrd,  A. K. Chakraborty,  
 G. K. L. Chan,  Chun-Min Chang,  Yunqing Chen,  C.-L. Cheng,  
 Siu Hung Chien,  D. M. Chipman,  D. L. Crittenden,  H. Dachsel,  
 R. J. Doerksen,  A. D. Dutoi,  R. G. Edgar,  J. Fosso-Tande,  
 L. Fusti-Molnar,  D. Ghosh,  A. Ghysels,  A. Golubeva-Zadorozhnaya,  
 J. Gonthier,  M. S. Gordon,  S. R. Gwaltney,  G. Hawkins,  J. E. Herr,  
 A. Heyden,  S. Hirata,  E. G. Hohenstein,  G. Kedziora,  F. J. Keil,  
 C. Kelley,  Jihan Kim,  R. A. King,  R. Z. Khaliullin,  P. P. Korambath,  
 W. Kurlancheek,  A. Laurent,  A. M. Lee,  M. S. Lee,  S. V. Levchenko,  
 Ching Yeh Lin,  D. Liotard,  E. Livshits,  R. C. Lochan,  I. Lotan,  
 L. A. Martinez-Martinez,  P. E. Maslen,  N. Nair,  D. P. O'Neill,  
 D. Neuhauser,  E. Neuscamman,  C. M. Oana,  R. Olivares-Amaya,  R. Olson,  
 T. M. Perrine,  B. Peters,  P. A. Pieniazek,  A. Prociuk,  Y. M. Rhee,  
 J. Ritchie,  M. A. Rohrdanz,  E. Rosta,  N. J. Russ,  H. F. Schaefer III,  
 M. W. Schmidt,  N. E. Schultz,  S. Sharma,  N. Shenvi,  C. D. Sherrill,  
 A. C. Simmonett,  A. Sodt,  T. Stein,  D. Stuck,  K. S. Thanthiriwatte,  
 V. Vanovschi,  L. Vogt,  Tao Wang,  A. Warshel,  M. A. Watson,  
 C. F. Williams,  Q. Wu,  X. Xu,  Jun Yang,  W. Zhang,  Yan Zhao

 Please cite Q-Chem as follows:
 Y. Shao et al., Mol. Phys. 113, 184-215 (2015)
 DOI: 10.1080/00268976.2014.952696

 Q-Chem 5.4.0 for Intel X86 EM64T Linux

 Parts of Q-Chem use Armadillo 9.800.1 (Horizon Scraper).
 http://arma.sourceforge.net/

 Q-Chem begins on Tue Sep 26 18:08:20 2023  

 Host: 
0

     Scratch files written to ./qchem1294252//
 May1621 |scratch|qcdevops|jenkins|workspace|build_RNUM    
 Parallel job on  1  processors
 Processing $rem in /cm/shared/apps/spack/cpu/opt/spack/linux-centos8-zen2/gcc-10.2.0/qchem-5.4-akfmr7b3t57bfs6qan3padb2wnb2i7cl/config/preferences:
 Processing $rem in /home/rramji/.qchemrc:
 Symmetry turned off for PCM/SM12/SMD calculation
 Core orbitals will be frozen

 Checking the input file for inconsistencies... 	...done.

 Q-Chem warning in module forms1/BasisType.C, line 2236:

 You are not using the predefined 5D/6D in this basis set.


--------------------------------------------------------------
User input:
--------------------------------------------------------------
$molecule
0 1
C	-0.272104	-8.519741	-0.000687
C	0.779533	-7.635967	-0.194476
S	-1.799596	-7.651740	0.287581
C	0.399427	-6.261894	-0.125787
H	1.812314	-7.954738	-0.383826
C	-1.006762	-6.079985	0.121989
C	-1.564994	-4.798382	0.247488
C	1.284087	-5.153542	-0.258303
C	0.726260	-3.869626	-0.128493
C	-0.681918	-3.688927	0.116725
O	2.580622	-5.481075	-0.517104
O	-2.867144	-4.479871	0.508622
C	-3.900814	-5.356026	0.075811
H	-4.847002	-4.790496	0.173640
H	-3.971794	-6.268513	0.707354
H	-3.763397	-5.658187	-0.984963
C	3.621225	-4.546999	-0.257016
H	4.569828	-5.107564	-0.357864
H	3.551910	-4.131473	0.771211
H	3.626592	-3.712085	-0.990913
C	-1.058088	-2.314326	0.187034
S	1.523035	-2.295487	-0.281899
C	0.000000	-1.435180	0.000000
H	-2.090565	-1.993211	0.373653
H	-0.266226	-9.615985	0.000773
C	0.000000	0.000000	0.000000
S	0.234946	0.868203	1.510732
C	0.641630	2.390125	0.727629
C	0.235036	0.877284	-1.064665
C	0.593019	2.219143	-0.678287
C	0.219452	0.812732	-2.486150
C	0.546689	2.034501	-3.106916
S	0.866345	3.240357	-1.965735
C	0.617067	2.279095	-4.559972
O	0.378342	1.376631	-5.350277
O	0.952308	3.517725	-5.004375
F	-0.065123	-0.264443	-3.246290
C	1.054950	3.861577	-6.334976
H	1.341516	4.928732	-6.370268
H	0.093573	3.716085	-6.875609
H	1.822303	3.252232	-6.861878
H	0.879812	3.278780	1.321510
$end

$rem
JOBTYPE		SP
EXCHANGE	HF
CORRELATION	pRIMP2
BASIS		cc-pvtz
METHOD		rimp2
AUX_BASIS	rimp2-cc-pvtz
SOLVENT_METHOD	PCM
PURECART	11111
SYMMETRY	false
MEM_TOTAL	110000
SCF_CONVERGENCE = 6
THRESH=10
GUI = 2
$end



$solvent
dielectric 4.90
$end
--------------------------------------------------------------
 ----------------------------------------------------------------
             Standard Nuclear Orientation (Angstroms)
    I     Atom           X                Y                Z
 ----------------------------------------------------------------
    1      C      -0.2721040000    -8.5197410000    -0.0006870000
    2      C       0.7795330000    -7.6359670000    -0.1944760000
    3      S      -1.7995960000    -7.6517400000     0.2875810000
    4      C       0.3994270000    -6.2618940000    -0.1257870000
    5      H       1.8123140000    -7.9547380000    -0.3838260000
    6      C      -1.0067620000    -6.0799850000     0.1219890000
    7      C      -1.5649940000    -4.7983820000     0.2474880000
    8      C       1.2840870000    -5.1535420000    -0.2583030000
    9      C       0.7262600000    -3.8696260000    -0.1284930000
   10      C      -0.6819180000    -3.6889270000     0.1167250000
   11      O       2.5806220000    -5.4810750000    -0.5171040000
   12      O      -2.8671440000    -4.4798710000     0.5086220000
   13      C      -3.9008140000    -5.3560260000     0.0758110000
   14      H      -4.8470020000    -4.7904960000     0.1736400000
   15      H      -3.9717940000    -6.2685130000     0.7073540000
   16      H      -3.7633970000    -5.6581870000    -0.9849630000
   17      C       3.6212250000    -4.5469990000    -0.2570160000
   18      H       4.5698280000    -5.1075640000    -0.3578640000
   19      H       3.5519100000    -4.1314730000     0.7712110000
   20      H       3.6265920000    -3.7120850000    -0.9909130000
   21      C      -1.0580880000    -2.3143260000     0.1870340000
   22      S       1.5230350000    -2.2954870000    -0.2818990000
   23      C       0.0000000000    -1.4351800000     0.0000000000
   24      H      -2.0905650000    -1.9932110000     0.3736530000
   25      H      -0.2662260000    -9.6159850000     0.0007730000
   26      C       0.0000000000     0.0000000000     0.0000000000
   27      S       0.2349460000     0.8682030000     1.5107320000
   28      C       0.6416300000     2.3901250000     0.7276290000
   29      C       0.2350360000     0.8772840000    -1.0646650000
   30      C       0.5930190000     2.2191430000    -0.6782870000
   31      C       0.2194520000     0.8127320000    -2.4861500000
   32      C       0.5466890000     2.0345010000    -3.1069160000
   33      S       0.8663450000     3.2403570000    -1.9657350000
   34      C       0.6170670000     2.2790950000    -4.5599720000
   35      O       0.3783420000     1.3766310000    -5.3502770000
   36      O       0.9523080000     3.5177250000    -5.0043750000
   37      F      -0.0651230000    -0.2644430000    -3.2462900000
   38      C       1.0549500000     3.8615770000    -6.3349760000
   39      H       1.3415160000     4.9287320000    -6.3702680000
   40      H       0.0935730000     3.7160850000    -6.8756090000
   41      H       1.8223030000     3.2522320000    -6.8618780000
   42      H       0.8798120000     3.2787800000     1.3215100000
 ----------------------------------------------------------------
 Nuclear Repulsion Energy =        3303.46066918 hartrees
 There are      119 alpha and      119 beta electrons
 Requested basis set is cc-pVTZ
 There are 376 shells and 1068 basis functions

 Total QAlloc Memory Limit 110000 MB
 Mega-Array Size       188 MB
 MEM_STATIC part       192 MB
 Discretize the solute cavity surface with Lebedev spheres
	Using 110 Lebedev grid points for each H atom
	Using 194 Lebedev grid points for other atoms
	Atomic van der Waals radii will be scaled by 1.20
 Remove points where switching function is < 1.0e-08
 Keep 2913 surface tesserae and discard 4143 interior tesserae
 Molecular Surface Area = 444.525 Angst**2
 Requested basis set is rimp2-cc-pVTZ
 There are 833 shells and 2903 basis functions
 A cutoff of  1.0D-10 yielded  31110 shell pairs
 There are    238790 function pairs (    310121 Cartesian)
 Smallest overlap matrix eigenvalue = 2.21E-05

 Scale SEOQF with 1.000000e-01/1.000000e-02/1.000000e-02

 Standard Electronic Orientation quadrupole field applied
 Nucleus-field energy     =     0.0000000384 hartrees
 Guess from superposition of atomic densities
 Warning:  Energy on first SCF cycle will be non-variational
 SAD guess density has 238.000000 electrons

 -----------------------------------------------------------------------
  General SCF calculation program by
  Eric Jon Sundstrom, Paul Horn, Yuezhi Mao, Dmitri Zuev, Alec White,
  David Stuck, Shaama M.S., Shane Yost, Joonho Lee, David Small,
  Daniel Levine, Susi Lehtola, Hugh Burton, Evgeny Epifanovsky,
  Bang C. Huynh
 -----------------------------------------------------------------------
 Hartree-Fock
 using 64 threads for integral computing
 -------------------------------------------------------
 OpenMP Integral computing Module                
 Release: version 1.0, May 2013, Q-Chem Inc. Pittsburgh 
 -------------------------------------------------------
 A restricted SCF calculation will be
 performed using DIIS
 SCF converges when DIIS error is below 1.0e-06
 ---------------------------------------
  Cycle       Energy         DIIS error
 ---------------------------------------
    1   -2765.5248740681      1.77e-02  
    2   -2753.8558132551      1.57e-03  
    3   -2754.1947106487      8.83e-04  
    4   -2754.2789092382      2.54e-04  
    5   -2754.2905190846      6.82e-05  
    6   -2754.2915874812      2.37e-05  
    7   -2754.2918236223      1.16e-05  
    8   -2754.2919019603      4.53e-06  
    9   -2754.2919183878      2.11e-06  
   10   -2754.2919209042      8.76e-07  Convergence criterion met
 ---------------------------------------
 SCF time:   CPU 6554.86s  wall 257.00s 

************** Final PCM Free Energy Summary **************
 G_electrostatic  =      -0.02008500 hartree =     -12.60352799 kcal/mol
 G_cavitation     =       0.00000000 hartree =       0.00000000 kcal/mol
 G_dispersion     =       0.00000000 hartree =       0.00000000 kcal/mol
 G_repulsion      =       0.00000000 hartree =       0.00000000 kcal/mol
 --------------------------------------------------
 Non-electrostatic Free Energy =       0.00000000 hartree =       0.00000000 kcal/mol
 Total                         =      -0.02008500 hartree =     -12.60352799 kcal/mol
 --------------------------------------------------
 SCF Energy (H0 + V/2)                       =   -2754.29192090 
 Solute Internal Energy (H0)                 =   -2754.27183590 
 Total Free Energy (H0 + V/2 + non-elec)     =   -2754.29192090 hartree
                                             = -1728344.26626619 kcal/mol
***********************************************************

 SCF   energy in the final basis set =    -2754.2919209042
 Total energy in the final basis set =    -2754.2919209042


 --------------------------------------------------------------
  Generalized many-body perturbation theory program
  by Joonho Lee, Fazle Rob, Xintian Feng, Evgeny Epifanovsky

 No regularization used 
 (reg. param. = 0.0000e+00)
  (P|Q)^-1/2 Time:  CPU 216.91 s  wall 3.89 s

 In RI-MP2 calculation: 
 # of frozen core orbitals: 45

 Components of the RIMP2 correlation energy:
        aaaa    correlation energy =        -0.6705538472 a.u.
        abab    correlation energy =        -3.7122803497 a.u.
        bbbb    correlation energy =        -0.6705538472 a.u.
        non-Brillouin singles      =        -0.0000000000 a.u.
        total same-spin energy     =        -1.3411076944 a.u.
        total opposite-spin energy =        -3.7122803497 a.u.

 Total  RIMP2   correlation energy =        -5.0533880441 a.u.
        RIMP2         total energy =     -2759.3453089483 a.u.

 RI-MP2 Energy Time:  CPU 3092.85 s  wall 50.74 s
 
 --------------------------------------------------------------
 
                    Orbital Energies (a.u.)
 --------------------------------------------------------------
 
 Alpha MOs
 -- Occupied --
-92.0161 -91.9948 -91.9898 -91.9866 -26.3337 -20.6121 -20.5923 -20.5918
-20.5502 -11.4104 -11.3770 -11.3192 -11.3187 -11.3073 -11.2978 -11.2962
-11.2947 -11.2926 -11.2884 -11.2870 -11.2866 -11.2862 -11.2841 -11.2829
-11.2803 -11.2606 -11.2597 -11.2587 -11.2501  -9.0142  -8.9988  -8.9901
 -8.9865  -6.6949  -6.6943  -6.6939  -6.6801  -6.6794  -6.6781  -6.6710
 -6.6703  -6.6693  -6.6675  -6.6668  -6.6660  -1.6466  -1.4718  -1.4165
 -1.4146  -1.3672  -1.2333  -1.1959  -1.1682  -1.1417  -1.0839  -1.0522
 -1.0473  -1.0276  -1.0024  -0.9930  -0.9712  -0.9614  -0.9505  -0.9382
 -0.8959  -0.8692  -0.8504  -0.8052  -0.7902  -0.7884  -0.7739  -0.7678
 -0.7582  -0.7328  -0.7178  -0.7149  -0.7011  -0.6887  -0.6831  -0.6785
 -0.6711  -0.6604  -0.6592  -0.6527  -0.6307  -0.6202  -0.6172  -0.6064
 -0.6023  -0.5947  -0.5822  -0.5792  -0.5670  -0.5656  -0.5563  -0.5506
 -0.5353  -0.5263  -0.5244  -0.5160  -0.5140  -0.5081  -0.5011  -0.4946
 -0.4906  -0.4840  -0.4752  -0.4685  -0.4617  -0.4612  -0.4605  -0.4052
 -0.4017  -0.3871  -0.3570  -0.3493  -0.3145  -0.2892  -0.2594
 -- Virtual --
  0.0271   0.0615   0.1148   0.1257   0.1347   0.1423   0.1498   0.1553
  0.1559   0.1598   0.1655   0.1696   0.1814   0.1828   0.1880   0.1923
  0.1977   0.2041   0.2107   0.2196   0.2201   0.2212   0.2239   0.2272
  0.2336   0.2353   0.2415   0.2527   0.2599   0.2667   0.2712   0.2794
  0.2846   0.3082   0.3177   0.3289   0.3320   0.3374   0.3403   0.3462
  0.3523   0.3572   0.3668   0.3708   0.3741   0.3798   0.3833   0.3848
  0.3889   0.3934   0.3984   0.4019   0.4081   0.4102   0.4163   0.4209
  0.4226   0.4308   0.4346   0.4376   0.4463   0.4489   0.4528   0.4540
  0.4562   0.4646   0.4668   0.4710   0.4729   0.4806   0.4818   0.4890
  0.4933   0.4955   0.5029   0.5107   0.5112   0.5167   0.5208   0.5235
  0.5280   0.5336   0.5375   0.5421   0.5461   0.5497   0.5513   0.5532
  0.5570   0.5596   0.5666   0.5680   0.5699   0.5750   0.5772   0.5817
  0.5854   0.5913   0.5926   0.5973   0.5998   0.6010   0.6033   0.6077
  0.6156   0.6174   0.6191   0.6206   0.6235   0.6271   0.6302   0.6369
  0.6386   0.6415   0.6457   0.6490   0.6518   0.6577   0.6632   0.6690
  0.6735   0.6794   0.6808   0.6853   0.6895   0.6905   0.6977   0.7011
  0.7085   0.7111   0.7145   0.7187   0.7288   0.7441   0.7473   0.7517
  0.7600   0.7621   0.7682   0.7689   0.7751   0.7922   0.7971   0.7999
  0.8057   0.8064   0.8160   0.8181   0.8210   0.8244   0.8275   0.8357
  0.8452   0.8540   0.8581   0.8645   0.8704   0.8832   0.8849   0.8916
  0.8970   0.9015   0.9070   0.9100   0.9168   0.9200   0.9227   0.9269
  0.9332   0.9359   0.9433   0.9471   0.9483   0.9537   0.9548   0.9704
  0.9751   0.9769   0.9812   0.9833   0.9919   0.9952   0.9982   1.0016
  1.0052   1.0108   1.0143   1.0158   1.0252   1.0309   1.0348   1.0376
  1.0448   1.0497   1.0512   1.0621   1.0667   1.0685   1.0734   1.0769
  1.0803   1.0846   1.0905   1.0959   1.0973   1.1037   1.1070   1.1128
  1.1160   1.1294   1.1336   1.1354   1.1447   1.1511   1.1545   1.1561
  1.1605   1.1703   1.1747   1.1763   1.1789   1.1832   1.1863   1.1911
  1.2005   1.2048   1.2100   1.2114   1.2163   1.2211   1.2227   1.2284
  1.2341   1.2418   1.2503   1.2540   1.2606   1.2659   1.2696   1.2739
  1.2752   1.2816   1.2912   1.3050   1.3062   1.3136   1.3155   1.3178
  1.3267   1.3338   1.3366   1.3462   1.3480   1.3547   1.3568   1.3671
  1.3714   1.3831   1.3893   1.3942   1.3951   1.4096   1.4159   1.4272
  1.4303   1.4341   1.4484   1.4563   1.4670   1.4760   1.4835   1.4875
  1.4941   1.4963   1.4999   1.5065   1.5074   1.5127   1.5264   1.5292
  1.5321   1.5361   1.5399   1.5471   1.5481   1.5579   1.5619   1.5659
  1.5726   1.5841   1.5879   1.5953   1.6038   1.6154   1.6235   1.6284
  1.6413   1.6510   1.6556   1.6583   1.6614   1.6640   1.6745   1.6776
  1.6856   1.6916   1.7027   1.7090   1.7219   1.7307   1.7348   1.7504
  1.7562   1.7641   1.7732   1.7810   1.7924   1.8040   1.8148   1.8205
  1.8242   1.8324   1.8378   1.8499   1.8550   1.8590   1.8654   1.8743
  1.8784   1.8827   1.8940   1.9094   1.9110   1.9216   1.9298   1.9323
  1.9356   1.9441   1.9454   1.9603   1.9641   1.9701   1.9800   1.9865
  1.9950   2.0188   2.0208   2.0229   2.0344   2.0381   2.0522   2.0571
  2.0692   2.0932   2.0955   2.0986   2.1138   2.1215   2.1351   2.1425
  2.1501   2.1566   2.1595   2.1689   2.1729   2.1779   2.1848   2.1931
  2.1967   2.2031   2.2139   2.2194   2.2199   2.2333   2.2352   2.2440
  2.2493   2.2514   2.2694   2.2729   2.2753   2.2809   2.2840   2.3032
  2.3058   2.3128   2.3182   2.3227   2.3314   2.3395   2.3525   2.3597
  2.3729   2.3825   2.3836   2.3939   2.4010   2.4170   2.4274   2.4277
  2.4354   2.4389   2.4508   2.4603   2.4720   2.4836   2.4840   2.4956
  2.4994   2.5145   2.5259   2.5294   2.5325   2.5496   2.5592   2.5672
  2.5774   2.5816   2.5863   2.5957   2.6053   2.6161   2.6195   2.6249
  2.6263   2.6340   2.6381   2.6472   2.6502   2.6552   2.6614   2.6717
  2.6783   2.6892   2.6916   2.6942   2.6983   2.7043   2.7072   2.7226
  2.7239   2.7337   2.7367   2.7410   2.7437   2.7469   2.7587   2.7639
  2.7762   2.7908   2.7929   2.7953   2.8039   2.8110   2.8165   2.8200
  2.8292   2.8376   2.8489   2.8494   2.8516   2.8601   2.8718   2.8738
  2.8779   2.8839   2.8883   2.8998   2.9113   2.9163   2.9259   2.9351
  2.9458   2.9520   2.9567   2.9697   2.9758   2.9837   2.9970   3.0048
  3.0127   3.0162   3.0205   3.0311   3.0339   3.0399   3.0420   3.0437
  3.0463   3.0572   3.0705   3.0728   3.0862   3.0907   3.0977   3.1003
  3.1082   3.1120   3.1150   3.1197   3.1287   3.1381   3.1467   3.1525
  3.1555   3.1577   3.1598   3.1688   3.1697   3.1766   3.1784   3.1862
  3.1908   3.1965   3.2008   3.2077   3.2144   3.2216   3.2260   3.2303
  3.2345   3.2417   3.2443   3.2480   3.2534   3.2601   3.2663   3.2694
  3.2745   3.2794   3.2833   3.2881   3.2913   3.2941   3.2981   3.3004
  3.3090   3.3177   3.3249   3.3269   3.3344   3.3415   3.3428   3.3469
  3.3510   3.3554   3.3581   3.3600   3.3627   3.3662   3.3696   3.3751
  3.3832   3.3878   3.3907   3.3961   3.3999   3.4056   3.4142   3.4196
  3.4229   3.4321   3.4349   3.4423   3.4452   3.4475   3.4494   3.4546
  3.4584   3.4648   3.4706   3.4749   3.4804   3.4830   3.4855   3.4937
  3.5015   3.5057   3.5152   3.5214   3.5279   3.5317   3.5343   3.5429
  3.5539   3.5553   3.5593   3.5666   3.5708   3.5753   3.5781   3.5867
  3.5882   3.5899   3.5925   3.6029   3.6052   3.6087   3.6126   3.6243
  3.6293   3.6337   3.6377   3.6469   3.6521   3.6567   3.6578   3.6617
  3.6672   3.6713   3.6761   3.6795   3.6880   3.6916   3.6956   3.6988
  3.7092   3.7099   3.7131   3.7210   3.7259   3.7292   3.7336   3.7361
  3.7411   3.7473   3.7509   3.7626   3.7647   3.7742   3.7764   3.7880
  3.7928   3.7944   3.8083   3.8129   3.8159   3.8205   3.8250   3.8323
  3.8389   3.8417   3.8446   3.8520   3.8550   3.8606   3.8644   3.8746
  3.8822   3.8911   3.8972   3.9004   3.9033   3.9114   3.9201   3.9283
  3.9321   3.9329   3.9433   3.9526   3.9625   3.9741   3.9794   3.9828
  3.9949   3.9995   4.0053   4.0103   4.0219   4.0241   4.0308   4.0352
  4.0450   4.0533   4.0611   4.0700   4.0783   4.0818   4.0866   4.0897
  4.0972   4.1018   4.1201   4.1266   4.1388   4.1446   4.1467   4.1600
  4.1644   4.1700   4.1742   4.1852   4.1881   4.1912   4.1926   4.2027
  4.2090   4.2165   4.2209   4.2366   4.2470   4.2592   4.2673   4.2729
  4.2821   4.2972   4.3085   4.3146   4.3182   4.3260   4.3303   4.3448
  4.3485   4.3563   4.3744   4.3760   4.3775   4.3908   4.3920   4.3989
  4.4077   4.4098   4.4119   4.4186   4.4239   4.4374   4.4397   4.4510
  4.4676   4.4695   4.4761   4.4956   4.4979   4.5015   4.5036   4.5111
  4.5285   4.5379   4.5455   4.5520   4.5595   4.5749   4.5811   4.5909
  4.6005   4.6053   4.6185   4.6325   4.6344   4.6397   4.6460   4.6546
  4.6581   4.6708   4.6727   4.6792   4.6878   4.7022   4.7149   4.7255
  4.7363   4.7389   4.7550   4.7674   4.7811   4.7847   4.8068   4.8096
  4.8191   4.8306   4.8432   4.8556   4.8683   4.8982   4.9105   4.9263
  4.9340   4.9470   4.9568   4.9614   4.9645   4.9809   4.9902   5.0034
  5.0093   5.0118   5.0203   5.0429   5.0452   5.0607   5.0656   5.0765
  5.0889   5.1184   5.1436   5.1604   5.1656   5.1769   5.1872   5.1979
  5.2063   5.2114   5.2149   5.2427   5.2550   5.2591   5.2746   5.2799
  5.2991   5.3107   5.3216   5.3337   5.3416   5.3477   5.3552   5.3591
  5.3669   5.3952   5.3970   5.3996   5.4246   5.4436   5.4593   5.4638
  5.4732   5.4843   5.4925   5.5068   5.5125   5.5216   5.5461   5.5639
  5.5742   5.5803   5.5926   5.6057   5.6176   5.6313   5.6377   5.6701
  5.7142   5.7338   5.7892   5.8009   5.8158   5.8362   5.8533   5.8550
  5.8723   5.8831   5.9025   5.9697   5.9714   5.9837   5.9991   6.0366
  6.0667   6.0901   6.1220   6.1337   6.1662   6.1732   6.1841   6.1858
  6.2308   6.2510   6.2676   6.2738   6.2925   6.3086   6.3204   6.3841
  6.4350   6.4467   6.4819   6.5149   6.5481   6.5557   6.5564   6.6511
  6.6727   6.6768   6.7011   6.7354   6.7424   6.7995   6.8395   6.8604
  6.8816   6.8919   6.9914   7.1192   7.1372   7.1785   7.2110   7.2156
  7.2331   7.3192   7.3265   7.3320   7.3738   7.3763   7.4275   7.4626
  7.4787   7.4870   7.4883   7.5204   7.5494   7.6064   7.7157   7.7708
  7.7965   7.8313   7.9040   7.9198   7.9472   8.0030   8.1054   8.1728
  8.5531   8.9285   9.0087   9.3636   9.5004   9.6921  10.2454  10.7042
 11.2383  11.4888  11.9171  11.9504  12.1256  12.1865  12.3104  12.5653
 12.6539  12.7644  12.9355  13.2089  13.2744  13.5618  13.8455  13.9006
 13.9228  14.0151  14.1934  14.4508  15.1909
 --------------------------------------------------------------
 
          Ground-State Mulliken Net Atomic Charges

     Atom                 Charge (a.u.)
  ----------------------------------------
      1 C                    -0.186948
      2 C                    -0.254679
      3 S                    -0.021835
      4 C                    -0.012093
      5 H                     0.196545
      6 C                    -0.027972
      7 C                     0.246840
      8 C                     0.239529
      9 C                    -0.041421
     10 C                    -0.027233
     11 O                    -0.333122
     12 O                    -0.339765
     13 C                    -0.085620
     14 H                     0.122652
     15 H                     0.090914
     16 H                     0.094721
     17 C                    -0.086602
     18 H                     0.124914
     19 H                     0.094298
     20 H                     0.090382
     21 C                    -0.219838
     22 S                     0.000543
     23 C                    -0.061052
     24 H                     0.196533
     25 H                     0.206662
     26 C                     0.005518
     27 S                     0.121294
     28 C                    -0.237413
     29 C                    -0.118138
     30 C                     0.000914
     31 C                     0.389528
     32 C                    -0.156984
     33 S                     0.040193
     34 C                     0.460497
     35 O                    -0.449343
     36 O                    -0.297801
     37 F                    -0.210278
     38 C                    -0.054922
     39 H                     0.116537
     40 H                     0.084661
     41 H                     0.084529
     42 H                     0.214858
  ----------------------------------------
  Sum of atomic charges =     0.000000

 -----------------------------------------------------------------
                    Cartesian Multipole Moments
 -----------------------------------------------------------------
    Charge (ESU x 10^10)
                 0.0000
    Dipole Moment (Debye)
         X       0.9698      Y       1.4926      Z       2.9939
       Tot       3.4831
    Quadrupole Moments (Debye-Ang)
        XX    -175.3939     XY       4.7778     YY    -159.1525
        XZ      -1.4463     YZ      -8.9987     ZZ    -206.3548
    Octopole Moments (Debye-Ang^2)
       XXX     -95.9330    XXY     278.0495    XYY     -24.5605
       YYY     895.0706    XXZ     171.1762    XYZ     -20.4655
       YYZ     124.5170    XZZ       1.7809    YZZ     512.4237
       ZZZ     557.1290
    Hexadecapole Moments (Debye-Ang^3)
      XXXX   -2450.1440   XXXY    -837.7113   XXYY   -3646.7298
      XYYY    -724.5548   YYYY  -18428.7137   XXXZ     503.3103
      XXYZ     471.5849   XYYZ     137.9678   YYYZ    1243.9062
      XXZZ   -1405.5493   XYZZ    -165.9883   YYZZ   -4292.2505
      XZZZ     328.2694   YZZZ     707.0844   ZZZZ   -5573.9920
 -----------------------------------------------------------------
 Total job time:  374.29s(wall), 9816.86s(cpu) 
 Tue Sep 26 18:14:34 2023

        *************************************************************
        *                                                           *
        *  Thank you very much for using Q-Chem.  Have a nice day.  *
        *                                                           *
        *************************************************************


0 sent ACK to 0 
now end server 0 ... 
cleanup process ... done
remove work dirs ./qchem1294252.0 -- ./qchem1294252.0
rm -rf ./qchem1294252.0
rm -rf ./qchem1294252
