You are running Q-Chem version: 5.4.0

#
# job setting
#
local host:  exp-4-29
current dir: /expanse/lustre/projects/csd626/rramji/aromodel/PTB7_fin/Rotation_Test
input file:  fin_bdt_Phi_30_Theta_50_fin_ftt.qcin
output file: 
nprocs     : 1
nthreads   : 64
#
# qchem installation setting
#
QC:          /cm/shared/apps/spack/cpu/opt/spack/linux-centos8-zen2/gcc-10.2.0/qchem-5.4-akfmr7b3t57bfs6qan3padb2wnb2i7cl
QCAUX:       /cm/shared/apps/spack/cpu/opt/spack/linux-centos8-zen2/gcc-10.2.0/qchem-5.4-akfmr7b3t57bfs6qan3padb2wnb2i7cl/qcaux
QCPROG:      /cm/shared/apps/spack/cpu/opt/spack/linux-centos8-zen2/gcc-10.2.0/qchem-5.4-akfmr7b3t57bfs6qan3padb2wnb2i7cl/exe/qcprog.exe
QCPROG_S:    /cm/shared/apps/spack/cpu/opt/spack/linux-centos8-zen2/gcc-10.2.0/qchem-5.4-akfmr7b3t57bfs6qan3padb2wnb2i7cl/exe/qcprog.exe_s
PARALLEL:    -DPARALLEL
QCMPI:       mpich
#
# qchem directory setting
#
qcrun:       qchem752875
QCSCRATCH:   .
QCLOCALSCR:  
QCTMPDIR:    .
QCFILEPREF:  ./qchem752875
QCSAVEDIR:   
workdirs:    ./qchem752875
workdir0:    ./qchem752875
partmpdirs =  
#
# parallel setting
#
QCRSH:           ssh
QCMPI:           mpich
QCMPIRUN:        /cm/shared/apps/spack/cpu/opt/spack/linux-centos8-zen2/gcc-10.2.0/qchem-5.4-akfmr7b3t57bfs6qan3padb2wnb2i7cl/bin/mpi/mpirun_qchem
QCMACHINEFILE:   ./qchem752875/hostfile
exp-4-29

#
# env setting
#
exported envs:   QC QCAUX QCSCRATCH QCRUNNAME QCFILEPREF QCPROG QCPROG_S GUIFILE

Running Job 1 of 1 fin_bdt_Phi_30_Theta_50_fin_ftt.qcin
qchem fin_bdt_Phi_30_Theta_50_fin_ftt.qcin_752875.0 ./qchem752875/ 1
/cm/shared/apps/spack/cpu/opt/spack/linux-centos8-zen2/gcc-10.2.0/qchem-5.4-akfmr7b3t57bfs6qan3padb2wnb2i7cl/bin/mpi/mpirun_qchem -machinefile ./qchem752875/hostfile -np 1 /cm/shared/apps/spack/cpu/opt/spack/linux-centos8-zen2/gcc-10.2.0/qchem-5.4-akfmr7b3t57bfs6qan3padb2wnb2i7cl/exe/qcprog.exe fin_bdt_Phi_30_Theta_50_fin_ftt.qcin_752875.0 ./qchem752875/

Process 0 of 1 is on exp-4-29 - thread support 0
initial socket setup ...start
initial socket setup ...done 
now start server 0 ... 
                  Welcome to Q-Chem
     A Quantum Leap Into The Future Of Chemistry


 Q-Chem 5.4, Q-Chem, Inc., Pleasanton, CA (2021)

 License issued to: University of California, San Diego (site)

 E. Epifanovsky,  A. T. B. Gilbert,  Xintian Feng,  Joonho Lee,  Yuezhi Mao,  
 N. Mardirossian,  P. Pokhilko,  A. White,  M. Wormit,  M. P. Coons,  
 A. L. Dempwolff,  Zhengting Gan,  D. Hait,  P. R. Horn,  L. D. Jacobson,  
 I. Kaliman,  J. Kussmann,  A. W. Lange,  Ka Un Lao,  D. S. Levine,  Jie Liu,  
 S. C. McKenzie,  A. F. Morrison,  K. Nanda,  F. Plasser,  D. R. Rehn,  
 M. L. Vidal,  Zhi-Qiang You,  Ying Zhu,  B. Alam,  B. Albrecht,  
 A. Aldossary,  E. Alguire,  J. H. Andersen,  D. Barton,  K. Begam,  A. Behn,  
 Y. A. Bernard,  E. J. Berquist,  H. Burton,  A. Carreras,  K. Carter-Fenk,  
 R. Chakraborty,  A. D. Chien,  K. D. Closser,  V. Cofer-Shabica,  
 S. Dasgupta,  Jia Deng,  M. de Wergifosse,  M. Diedenhofen,  Hainam Do,  
 S. Ehlert,  Po-Tung Fang,  S. Fatehi,  Qingguo Feng,  J. Gayvert,  
 Qinghui Ge,  G. Gidofalvi,  M. Goldey,  J. Gomes,  C. Gonzalez-Espinoza,  
 S. Gulania,  A. Gunina,  M. W. D. Hanson-Heine,  P. H. P. Harbach,  
 A. W. Hauser,  M. F. Herbst,  M. Hernandez Vera,  M. Hodecker,  
 Z. C. Holden,  S. Houck,  Xunkun Huang,  Kerwin Hui,  B. C. Huynh,  
 M. Ivanov,  Hyunjun Ji,  Hanjie Jiang,  B. Kaduk,  S. Kaehler,  
 K. Khistyaev,  Jaehoon Kim,  P. Klunzinger,  Z. Koczor-Benda,  
 Joong Hoon Koh,  D. Kosenkov,  L. Koulias,  T. Kowalczyk,  C. M. Krauter,  
 K. Kue,  A. Kunitsa,  T. Kus,  A. Landau,  K. V. Lawler,  D. Lefrancois,  
 S. Lehtola,  Rain Li,  Yi-Pei Li,  Jiashu Liang,  M. Liebenthal,  
 Hung-Hsuan Lin,  You-Sheng Lin,  Fenglai Liu,  Kuan-Yu Liu,  
 M. Loipersberger,  A. Luenser,  A. Manjanath,  P. Manohar,  E. Mansoor,  
 S. F. Manzer,  Shan-Ping Mao,  A. V. Marenich,  T. Markovich,  S. Mason,  
 S. A. Maurer,  P. F. McLaughlin,  M. F. S. J. Menger,  J.-M. Mewes,  
 S. A. Mewes,  P. Morgante,  J. W. Mullinax,  T. S. Nguyen-Beck,  
 K. J. Oosterbaan,  G. Paran,  Alexander C. Paul,  Suranjan K. Paul,  
 F. Pavosevic,  Zheng Pei,  S. Prager,  E. I. Proynov,  E. Ramos,  B. Rana,  
 A. E. Rask,  A. Rettig,  R. M. Richard,  F. Rob,  E. Rossomme,  T. Scheele,  
 M. Scheurer,  M. Schneider,  N. Sergueev,  S. M. Sharada,  W. Skomorowski,  
 D. W. Small,  C. J. Stein,  Yu-Chuan Su,  E. J. Sundstrom,  Zhen Tao,  
 J. Thirman,  T. Tsuchimochi,  N. M. Tubman,  S. P. Veccham,  O. Vydrov,  
 J. Wenzel,  J. Witte,  A. Yamada,  Kun Yao,  S. Yeganeh,  S. R. Yost,  
 A. Zech,  Igor Ying Zhang,  Xing Zhang,  Yu Zhang,  D. Zuev,  
 A. Aspuru-Guzik,  A. T. Bell,  N. A. Besley,  K. B. Bravaya,  B. R. Brooks,  
 D. Casanova,  Jeng-Da Chai,  S. Coriani,  C. J. Cramer,  
 A. E. DePrince, III,  R. A. DiStasio Jr.,  A. Dreuw,  B. D. Dunietz,  
 T. R. Furlani,  W. A. Goddard III,  S. Grimme,  S. Hammes-Schiffer,  
 T. Head-Gordon,  W. J. Hehre,  Chao-Ping Hsu,  T.-C. Jagau,  Yousung Jung,  
 A. Klamt,  Jing Kong,  D. S. Lambrecht,  WanZhen Liang,  N. J. Mayhall,  
 C. W. McCurdy,  J. B. Neaton,  C. Ochsenfeld,  J. A. Parkhill,  R. Peverati,  
 V. A. Rassolov,  Yihan Shao,  L. V. Slipchenko,  T. Stauch,  R. P. Steele,  
 J. E. Subotnik,  A. J. W. Thom,  A. Tkatchenko,  D. G. Truhlar,  
 T. Van Voorhis,  T. A. Wesolowski,  K. B. Whaley,  H. L. Woodcock III,  
 P. M. Zimmerman,  S. Faraji,  P. M. W. Gill,  M. Head-Gordon,  
 J. M. Herbert,  A. I. Krylov

 Contributors to earlier versions of Q-Chem not listed above: 
 R. D. Adamson,  B. Austin,  R. Baer,  J. Baker,  G. J. O. Beran,  
 K. Brandhorst,  S. T. Brown,  E. F. C. Byrd,  A. K. Chakraborty,  
 G. K. L. Chan,  Chun-Min Chang,  Yunqing Chen,  C.-L. Cheng,  
 Siu Hung Chien,  D. M. Chipman,  D. L. Crittenden,  H. Dachsel,  
 R. J. Doerksen,  A. D. Dutoi,  R. G. Edgar,  J. Fosso-Tande,  
 L. Fusti-Molnar,  D. Ghosh,  A. Ghysels,  A. Golubeva-Zadorozhnaya,  
 J. Gonthier,  M. S. Gordon,  S. R. Gwaltney,  G. Hawkins,  J. E. Herr,  
 A. Heyden,  S. Hirata,  E. G. Hohenstein,  G. Kedziora,  F. J. Keil,  
 C. Kelley,  Jihan Kim,  R. A. King,  R. Z. Khaliullin,  P. P. Korambath,  
 W. Kurlancheek,  A. Laurent,  A. M. Lee,  M. S. Lee,  S. V. Levchenko,  
 Ching Yeh Lin,  D. Liotard,  E. Livshits,  R. C. Lochan,  I. Lotan,  
 L. A. Martinez-Martinez,  P. E. Maslen,  N. Nair,  D. P. O'Neill,  
 D. Neuhauser,  E. Neuscamman,  C. M. Oana,  R. Olivares-Amaya,  R. Olson,  
 T. M. Perrine,  B. Peters,  P. A. Pieniazek,  A. Prociuk,  Y. M. Rhee,  
 J. Ritchie,  M. A. Rohrdanz,  E. Rosta,  N. J. Russ,  H. F. Schaefer III,  
 M. W. Schmidt,  N. E. Schultz,  S. Sharma,  N. Shenvi,  C. D. Sherrill,  
 A. C. Simmonett,  A. Sodt,  T. Stein,  D. Stuck,  K. S. Thanthiriwatte,  
 V. Vanovschi,  L. Vogt,  Tao Wang,  A. Warshel,  M. A. Watson,  
 C. F. Williams,  Q. Wu,  X. Xu,  Jun Yang,  W. Zhang,  Yan Zhao

 Please cite Q-Chem as follows:
 Y. Shao et al., Mol. Phys. 113, 184-215 (2015)
 DOI: 10.1080/00268976.2014.952696

 Q-Chem 5.4.0 for Intel X86 EM64T Linux

 Parts of Q-Chem use Armadillo 9.800.1 (Horizon Scraper).
 http://arma.sourceforge.net/

 Q-Chem begins on Sun Sep 24 16:44:08 2023  

 Host: 
0

     Scratch files written to ./qchem752875//
 May1621 |scratch|qcdevops|jenkins|workspace|build_RNUM    
 Parallel job on  1  processors
 Processing $rem in /cm/shared/apps/spack/cpu/opt/spack/linux-centos8-zen2/gcc-10.2.0/qchem-5.4-akfmr7b3t57bfs6qan3padb2wnb2i7cl/config/preferences:
 Processing $rem in /home/rramji/.qchemrc:
 Symmetry turned off for PCM/SM12/SMD calculation
 Core orbitals will be frozen

 Checking the input file for inconsistencies... 	...done.

 Q-Chem warning in module forms1/BasisType.C, line 2236:

 You are not using the predefined 5D/6D in this basis set.


--------------------------------------------------------------
User input:
--------------------------------------------------------------
$molecule
0 1
C	-0.235993	-8.519741	0.135457
C	0.577858	-7.635967	-0.558188
S	-1.414705	-7.651740	1.148850
C	0.283020	-6.261894	-0.308648
H	1.377597	-7.954738	-1.238560
C	-0.810887	-6.079985	0.609026
C	-1.231581	-4.798382	0.996828
C	0.982901	-5.153542	-0.865740
C	0.564713	-3.869626	-0.474408
C	-0.532196	-3.688927	0.442046
O	1.976332	-5.481075	-1.738137
O	-2.228709	-4.479871	1.874052
C	-3.340298	-5.356026	2.016062
H	-4.110807	-4.790496	2.573877
H	-3.085998	-6.268513	2.598484
H	-3.751679	-5.658187	1.028695
C	3.007565	-4.546999	-2.033195
H	3.778655	-5.107564	-2.594833
H	3.461650	-4.131473	-1.108067
H	2.645264	-3.712085	-2.671451
C	-0.822814	-2.314326	0.691020
S	1.178037	-2.295487	-1.005649
C	-0.000000	-1.435180	-0.000000
H	-1.623656	-1.993211	1.368875
H	-0.230172	-9.615985	0.133782
C	0.000000	0.000000	0.000000
S	0.451648	0.777811	1.510732
C	1.238377	2.142617	0.727629
C	0.454085	0.786559	-1.064665
C	1.147169	1.990043	-0.678287
C	0.422325	0.728240	-2.486150
C	1.054629	1.823683	-3.106916
S	1.675491	2.905718	-1.965735
C	1.185914	2.041729	-4.559972
O	0.721749	1.231802	-5.350277
O	1.830313	3.151386	-5.004375
F	-0.131347	-0.238577	-3.246290
C	2.018453	3.456956	-6.334976
H	2.571455	4.413580	-6.370268
H	1.052178	3.565244	-6.875609
H	2.601950	2.669768	-6.861878
H	1.698444	2.939346	1.321510
$end

$rem
JOBTYPE		SP
EXCHANGE	HF
CORRELATION	pRIMP2
BASIS		cc-pvtz
METHOD		rimp2
AUX_BASIS	rimp2-cc-pvtz
SOLVENT_METHOD	PCM
PURECART	11111
SYMMETRY	false
MEM_TOTAL	110000
SCF_CONVERGENCE = 6
THRESH=10
GUI = 2
$end



$solvent
dielectric 4.90
$end
--------------------------------------------------------------
 ----------------------------------------------------------------
             Standard Nuclear Orientation (Angstroms)
    I     Atom           X                Y                Z
 ----------------------------------------------------------------
    1      C      -0.2359930000    -8.5197410000     0.1354570000
    2      C       0.5778580000    -7.6359670000    -0.5581880000
    3      S      -1.4147050000    -7.6517400000     1.1488500000
    4      C       0.2830200000    -6.2618940000    -0.3086480000
    5      H       1.3775970000    -7.9547380000    -1.2385600000
    6      C      -0.8108870000    -6.0799850000     0.6090260000
    7      C      -1.2315810000    -4.7983820000     0.9968280000
    8      C       0.9829010000    -5.1535420000    -0.8657400000
    9      C       0.5647130000    -3.8696260000    -0.4744080000
   10      C      -0.5321960000    -3.6889270000     0.4420460000
   11      O       1.9763320000    -5.4810750000    -1.7381370000
   12      O      -2.2287090000    -4.4798710000     1.8740520000
   13      C      -3.3402980000    -5.3560260000     2.0160620000
   14      H      -4.1108070000    -4.7904960000     2.5738770000
   15      H      -3.0859980000    -6.2685130000     2.5984840000
   16      H      -3.7516790000    -5.6581870000     1.0286950000
   17      C       3.0075650000    -4.5469990000    -2.0331950000
   18      H       3.7786550000    -5.1075640000    -2.5948330000
   19      H       3.4616500000    -4.1314730000    -1.1080670000
   20      H       2.6452640000    -3.7120850000    -2.6714510000
   21      C      -0.8228140000    -2.3143260000     0.6910200000
   22      S       1.1780370000    -2.2954870000    -1.0056490000
   23      C       0.0000000000    -1.4351800000     0.0000000000
   24      H      -1.6236560000    -1.9932110000     1.3688750000
   25      H      -0.2301720000    -9.6159850000     0.1337820000
   26      C       0.0000000000     0.0000000000     0.0000000000
   27      S       0.4516480000     0.7778110000     1.5107320000
   28      C       1.2383770000     2.1426170000     0.7276290000
   29      C       0.4540850000     0.7865590000    -1.0646650000
   30      C       1.1471690000     1.9900430000    -0.6782870000
   31      C       0.4223250000     0.7282400000    -2.4861500000
   32      C       1.0546290000     1.8236830000    -3.1069160000
   33      S       1.6754910000     2.9057180000    -1.9657350000
   34      C       1.1859140000     2.0417290000    -4.5599720000
   35      O       0.7217490000     1.2318020000    -5.3502770000
   36      O       1.8303130000     3.1513860000    -5.0043750000
   37      F      -0.1313470000    -0.2385770000    -3.2462900000
   38      C       2.0184530000     3.4569560000    -6.3349760000
   39      H       2.5714550000     4.4135800000    -6.3702680000
   40      H       1.0521780000     3.5652440000    -6.8756090000
   41      H       2.6019500000     2.6697680000    -6.8618780000
   42      H       1.6984440000     2.9393460000     1.3215100000
 ----------------------------------------------------------------
 Nuclear Repulsion Energy =        3329.06156249 hartrees
 There are      119 alpha and      119 beta electrons
 Requested basis set is cc-pVTZ
 There are 376 shells and 1068 basis functions

 Total QAlloc Memory Limit 110000 MB
 Mega-Array Size       188 MB
 MEM_STATIC part       192 MB
 Discretize the solute cavity surface with Lebedev spheres
	Using 110 Lebedev grid points for each H atom
	Using 194 Lebedev grid points for other atoms
	Atomic van der Waals radii will be scaled by 1.20
 Remove points where switching function is < 1.0e-08
 Keep 2894 surface tesserae and discard 4162 interior tesserae
 Molecular Surface Area = 437.907 Angst**2
 Requested basis set is rimp2-cc-pVTZ
 There are 833 shells and 2903 basis functions
 A cutoff of  1.0D-10 yielded  31553 shell pairs
 There are    242065 function pairs (    314252 Cartesian)
 Smallest overlap matrix eigenvalue = 2.18E-05

 Scale SEOQF with 1.000000e-01/1.000000e-02/1.000000e-02

 Standard Electronic Orientation quadrupole field applied
 Nucleus-field energy     =     0.0000000333 hartrees
 Guess from superposition of atomic densities
 Warning:  Energy on first SCF cycle will be non-variational
 SAD guess density has 238.000000 electrons

 -----------------------------------------------------------------------
  General SCF calculation program by
  Eric Jon Sundstrom, Paul Horn, Yuezhi Mao, Dmitri Zuev, Alec White,
  David Stuck, Shaama M.S., Shane Yost, Joonho Lee, David Small,
  Daniel Levine, Susi Lehtola, Hugh Burton, Evgeny Epifanovsky,
  Bang C. Huynh
 -----------------------------------------------------------------------
 Hartree-Fock
 using 64 threads for integral computing
 -------------------------------------------------------
 OpenMP Integral computing Module                
 Release: version 1.0, May 2013, Q-Chem Inc. Pittsburgh 
 -------------------------------------------------------
 A restricted SCF calculation will be
 performed using DIIS
 SCF converges when DIIS error is below 1.0e-06
 ---------------------------------------
  Cycle       Energy         DIIS error
 ---------------------------------------
    1   -2765.5551703707      1.77e-02  
    2   -2753.8438085457      1.57e-03  
    3   -2754.1833892543      8.87e-04  
    4   -2754.2685716943      2.55e-04  
    5   -2754.2802391750      6.82e-05  
    6   -2754.2813226062      2.39e-05  
    7   -2754.2815659388      1.16e-05  
    8   -2754.2816481783      4.61e-06  
    9   -2754.2816659615      2.03e-06  
   10   -2754.2816687021      8.57e-07  Convergence criterion met
 ---------------------------------------
 SCF time:   CPU 6730.82s  wall 244.00s 

************** Final PCM Free Energy Summary **************
 G_electrostatic  =      -0.02035848 hartree =     -12.77513994 kcal/mol
 G_cavitation     =       0.00000000 hartree =       0.00000000 kcal/mol
 G_dispersion     =       0.00000000 hartree =       0.00000000 kcal/mol
 G_repulsion      =       0.00000000 hartree =       0.00000000 kcal/mol
 --------------------------------------------------
 Non-electrostatic Free Energy =       0.00000000 hartree =       0.00000000 kcal/mol
 Total                         =      -0.02035848 hartree =     -12.77513994 kcal/mol
 --------------------------------------------------
 SCF Energy (H0 + V/2)                       =   -2754.28166870 
 Solute Internal Energy (H0)                 =   -2754.26131022 
 Total Free Energy (H0 + V/2 + non-elec)     =   -2754.28166870 hartree
                                             = -1728337.83291225 kcal/mol
***********************************************************

 SCF   energy in the final basis set =    -2754.2816687021
 Total energy in the final basis set =    -2754.2816687021


 --------------------------------------------------------------
  Generalized many-body perturbation theory program
  by Joonho Lee, Fazle Rob, Xintian Feng, Evgeny Epifanovsky

 No regularization used 
 (reg. param. = 0.0000e+00)
  (P|Q)^-1/2 Time:  CPU 198.13 s  wall 3.16 s

 In RI-MP2 calculation: 
 # of frozen core orbitals: 45

 Components of the RIMP2 correlation energy:
        aaaa    correlation energy =        -0.6719655175 a.u.
        abab    correlation energy =        -3.7153411255 a.u.
        bbbb    correlation energy =        -0.6719655175 a.u.
        non-Brillouin singles      =        -0.0000000000 a.u.
        total same-spin energy     =        -1.3439310351 a.u.
        total opposite-spin energy =        -3.7153411255 a.u.

 Total  RIMP2   correlation energy =        -5.0592721605 a.u.
        RIMP2         total energy =     -2759.3409408626 a.u.

 RI-MP2 Energy Time:  CPU 3917.73 s  wall 66.23 s
 
 --------------------------------------------------------------
 
                    Orbital Energies (a.u.)
 --------------------------------------------------------------
 
 Alpha MOs
 -- Occupied --
-92.0165 -91.9975 -91.9889 -91.9857 -26.3339 -20.6129 -20.5918 -20.5909
-20.5515 -11.4116 -11.3776 -11.3187 -11.3166 -11.3032 -11.3009 -11.3005
-11.2978 -11.2940 -11.2889 -11.2865 -11.2857 -11.2850 -11.2847 -11.2834
-11.2789 -11.2602 -11.2579 -11.2534 -11.2494  -9.0149  -9.0014  -8.9894
 -8.9857  -6.6955  -6.6949  -6.6944  -6.6826  -6.6819  -6.6806  -6.6703
 -6.6696  -6.6686  -6.6666  -6.6660  -6.6652  -1.6471  -1.4728  -1.4159
 -1.4136  -1.3682  -1.2361  -1.1951  -1.1684  -1.1429  -1.0841  -1.0516
 -1.0483  -1.0293  -1.0016  -0.9926  -0.9726  -0.9604  -0.9499  -0.9387
 -0.8952  -0.8708  -0.8489  -0.8070  -0.7917  -0.7873  -0.7752  -0.7655
 -0.7571  -0.7319  -0.7184  -0.7155  -0.7001  -0.6894  -0.6822  -0.6792
 -0.6726  -0.6614  -0.6585  -0.6521  -0.6288  -0.6194  -0.6166  -0.6075
 -0.6040  -0.5967  -0.5824  -0.5764  -0.5669  -0.5645  -0.5566  -0.5508
 -0.5329  -0.5276  -0.5240  -0.5157  -0.5143  -0.5083  -0.5019  -0.4961
 -0.4885  -0.4852  -0.4752  -0.4678  -0.4625  -0.4620  -0.4595  -0.4129
 -0.3983  -0.3859  -0.3581  -0.3498  -0.3200  -0.2871  -0.2523
 -- Virtual --
  0.0134   0.0704   0.1130   0.1249   0.1336   0.1451   0.1494   0.1544
  0.1559   0.1594   0.1658   0.1681   0.1815   0.1835   0.1898   0.1924
  0.2044   0.2065   0.2102   0.2167   0.2202   0.2222   0.2239   0.2276
  0.2330   0.2380   0.2416   0.2537   0.2590   0.2695   0.2722   0.2805
  0.2874   0.3092   0.3119   0.3274   0.3328   0.3423   0.3441   0.3500
  0.3531   0.3602   0.3651   0.3727   0.3742   0.3792   0.3832   0.3852
  0.3889   0.3943   0.3999   0.4066   0.4106   0.4127   0.4176   0.4217
  0.4233   0.4352   0.4361   0.4418   0.4469   0.4512   0.4522   0.4563
  0.4584   0.4618   0.4694   0.4715   0.4801   0.4836   0.4851   0.4936
  0.4960   0.4982   0.5038   0.5058   0.5133   0.5192   0.5205   0.5244
  0.5277   0.5334   0.5386   0.5426   0.5434   0.5475   0.5506   0.5540
  0.5558   0.5616   0.5652   0.5670   0.5693   0.5759   0.5768   0.5833
  0.5860   0.5901   0.5951   0.5957   0.5993   0.6040   0.6091   0.6105
  0.6150   0.6170   0.6184   0.6225   0.6260   0.6293   0.6302   0.6371
  0.6388   0.6426   0.6450   0.6488   0.6520   0.6531   0.6639   0.6653
  0.6743   0.6802   0.6828   0.6838   0.6945   0.6962   0.7007   0.7032
  0.7072   0.7167   0.7189   0.7259   0.7326   0.7422   0.7435   0.7516
  0.7585   0.7665   0.7702   0.7740   0.7811   0.7903   0.7921   0.7996
  0.8048   0.8058   0.8136   0.8232   0.8268   0.8301   0.8356   0.8424
  0.8430   0.8553   0.8605   0.8681   0.8754   0.8794   0.8886   0.8954
  0.8987   0.9013   0.9053   0.9124   0.9161   0.9179   0.9229   0.9277
  0.9283   0.9366   0.9384   0.9439   0.9501   0.9520   0.9600   0.9683
  0.9729   0.9738   0.9799   0.9821   0.9917   0.9988   1.0023   1.0059
  1.0075   1.0117   1.0146   1.0225   1.0278   1.0308   1.0379   1.0397
  1.0413   1.0482   1.0570   1.0620   1.0654   1.0694   1.0743   1.0793
  1.0812   1.0886   1.0935   1.0960   1.1030   1.1042   1.1111   1.1126
  1.1175   1.1288   1.1344   1.1399   1.1447   1.1492   1.1564   1.1619
  1.1663   1.1731   1.1743   1.1784   1.1815   1.1846   1.1894   1.1957
  1.1978   1.2045   1.2061   1.2133   1.2166   1.2220   1.2246   1.2308
  1.2379   1.2393   1.2443   1.2529   1.2580   1.2612   1.2705   1.2732
  1.2764   1.2797   1.2910   1.3042   1.3077   1.3112   1.3224   1.3241
  1.3292   1.3391   1.3438   1.3455   1.3502   1.3599   1.3659   1.3702
  1.3745   1.3806   1.3912   1.3945   1.4015   1.4121   1.4159   1.4226
  1.4300   1.4396   1.4576   1.4591   1.4737   1.4776   1.4824   1.4881
  1.4928   1.4992   1.5026   1.5054   1.5104   1.5137   1.5160   1.5288
  1.5367   1.5383   1.5417   1.5421   1.5491   1.5581   1.5619   1.5626
  1.5711   1.5864   1.5886   1.5984   1.6044   1.6187   1.6200   1.6297
  1.6383   1.6452   1.6554   1.6605   1.6651   1.6679   1.6759   1.6835
  1.6879   1.7002   1.7037   1.7082   1.7157   1.7269   1.7359   1.7399
  1.7526   1.7626   1.7708   1.7861   1.7902   1.7994   1.8081   1.8178
  1.8219   1.8314   1.8388   1.8416   1.8618   1.8664   1.8677   1.8734
  1.8771   1.8815   1.8969   1.9060   1.9100   1.9143   1.9295   1.9344
  1.9351   1.9462   1.9510   1.9585   1.9702   1.9770   1.9776   1.9882
  2.0007   2.0146   2.0249   2.0302   2.0337   2.0402   2.0536   2.0651
  2.0740   2.0954   2.0984   2.1064   2.1231   2.1260   2.1337   2.1418
  2.1498   2.1516   2.1576   2.1666   2.1703   2.1779   2.1874   2.1906
  2.1975   2.2039   2.2097   2.2181   2.2333   2.2367   2.2396   2.2428
  2.2473   2.2572   2.2627   2.2704   2.2742   2.2828   2.2871   2.2975
  2.3058   2.3134   2.3159   2.3194   2.3357   2.3406   2.3558   2.3617
  2.3768   2.3790   2.3876   2.3935   2.4032   2.4058   2.4132   2.4280
  2.4333   2.4474   2.4506   2.4566   2.4652   2.4805   2.4856   2.4931
  2.5078   2.5120   2.5272   2.5281   2.5322   2.5468   2.5548   2.5559
  2.5789   2.5840   2.5921   2.5981   2.6083   2.6144   2.6187   2.6206
  2.6245   2.6354   2.6379   2.6484   2.6507   2.6606   2.6629   2.6702
  2.6756   2.6859   2.6941   2.6967   2.7000   2.7007   2.7123   2.7227
  2.7237   2.7292   2.7406   2.7433   2.7454   2.7516   2.7568   2.7650
  2.7778   2.7836   2.7907   2.7966   2.7997   2.8079   2.8153   2.8218
  2.8326   2.8409   2.8484   2.8506   2.8528   2.8603   2.8733   2.8750
  2.8755   2.8852   2.8856   2.8933   2.9045   2.9239   2.9282   2.9348
  2.9446   2.9547   2.9601   2.9668   2.9718   2.9837   3.0016   3.0055
  3.0093   3.0174   3.0204   3.0330   3.0362   3.0429   3.0439   3.0492
  3.0556   3.0608   3.0721   3.0803   3.0881   3.0908   3.0928   3.1010
  3.1048   3.1114   3.1192   3.1226   3.1324   3.1394   3.1438   3.1514
  3.1544   3.1585   3.1607   3.1680   3.1730   3.1764   3.1808   3.1839
  3.1863   3.1989   3.2071   3.2093   3.2148   3.2185   3.2270   3.2279
  3.2373   3.2420   3.2438   3.2466   3.2515   3.2549   3.2628   3.2708
  3.2740   3.2804   3.2828   3.2871   3.2904   3.2935   3.2987   3.3043
  3.3100   3.3147   3.3260   3.3285   3.3349   3.3442   3.3466   3.3499
  3.3525   3.3555   3.3585   3.3627   3.3644   3.3669   3.3717   3.3790
  3.3845   3.3880   3.3917   3.3944   3.3991   3.4085   3.4113   3.4204
  3.4263   3.4332   3.4393   3.4403   3.4450   3.4451   3.4509   3.4550
  3.4585   3.4629   3.4673   3.4752   3.4807   3.4860   3.4928   3.4976
  3.5010   3.5093   3.5141   3.5224   3.5261   3.5348   3.5371   3.5430
  3.5458   3.5514   3.5580   3.5652   3.5659   3.5792   3.5815   3.5892
  3.5917   3.5968   3.5976   3.6005   3.6067   3.6123   3.6191   3.6264
  3.6307   3.6347   3.6414   3.6521   3.6546   3.6596   3.6614   3.6677
  3.6722   3.6759   3.6808   3.6852   3.6920   3.6992   3.7066   3.7089
  3.7117   3.7147   3.7186   3.7248   3.7278   3.7309   3.7368   3.7424
  3.7468   3.7475   3.7543   3.7621   3.7707   3.7718   3.7797   3.7896
  3.7952   3.8037   3.8064   3.8098   3.8141   3.8206   3.8256   3.8330
  3.8340   3.8436   3.8484   3.8498   3.8555   3.8640   3.8664   3.8729
  3.8786   3.8857   3.8924   3.8997   3.9053   3.9098   3.9204   3.9212
  3.9337   3.9416   3.9466   3.9492   3.9565   3.9675   3.9738   3.9850
  3.9876   3.9960   4.0066   4.0145   4.0178   4.0219   4.0322   4.0388
  4.0417   4.0561   4.0571   4.0716   4.0738   4.0826   4.0881   4.0959
  4.1034   4.1061   4.1139   4.1245   4.1344   4.1446   4.1466   4.1589
  4.1668   4.1686   4.1738   4.1826   4.1848   4.1891   4.1908   4.2062
  4.2145   4.2160   4.2297   4.2401   4.2512   4.2607   4.2686   4.2801
  4.2928   4.2952   4.3033   4.3097   4.3181   4.3250   4.3328   4.3476
  4.3547   4.3625   4.3715   4.3764   4.3843   4.3930   4.3950   4.4012
  4.4106   4.4108   4.4171   4.4256   4.4280   4.4367   4.4464   4.4585
  4.4593   4.4730   4.4895   4.4916   4.4969   4.5049   4.5070   4.5179
  4.5293   4.5374   4.5454   4.5569   4.5603   4.5707   4.5771   4.5884
  4.6056   4.6078   4.6231   4.6284   4.6352   4.6430   4.6445   4.6483
  4.6543   4.6689   4.6750   4.6756   4.6876   4.7067   4.7223   4.7328
  4.7368   4.7458   4.7542   4.7715   4.7806   4.7895   4.7997   4.8117
  4.8209   4.8308   4.8532   4.8575   4.8722   4.8860   4.9142   4.9204
  4.9319   4.9477   4.9567   4.9651   4.9669   4.9842   4.9875   5.0027
  5.0075   5.0117   5.0168   5.0398   5.0414   5.0588   5.0615   5.0719
  5.0950   5.1119   5.1230   5.1522   5.1656   5.1734   5.1793   5.1911
  5.1995   5.2160   5.2189   5.2315   5.2544   5.2566   5.2588   5.2824
  5.3005   5.3113   5.3269   5.3285   5.3424   5.3547   5.3550   5.3649
  5.3766   5.3910   5.3954   5.3991   5.4129   5.4441   5.4600   5.4641
  5.4727   5.4794   5.4980   5.5083   5.5129   5.5228   5.5401   5.5587
  5.5730   5.5821   5.5890   5.6063   5.6166   5.6311   5.6378   5.6525
  5.7161   5.7334   5.7910   5.8000   5.8178   5.8413   5.8532   5.8568
  5.8742   5.8874   5.9059   5.9687   5.9694   5.9871   5.9966   6.0243
  6.0691   6.0881   6.1183   6.1331   6.1674   6.1732   6.1828   6.1850
  6.2377   6.2579   6.2733   6.2745   6.2950   6.3079   6.3221   6.3973
  6.4275   6.4474   6.4821   6.5126   6.5492   6.5555   6.5576   6.6531
  6.6687   6.6760   6.7037   6.7348   6.7413   6.8003   6.8423   6.8593
  6.8803   6.8935   6.9903   7.1222   7.1384   7.1776   7.2101   7.2164
  7.2342   7.3205   7.3255   7.3331   7.3740   7.3765   7.4266   7.4618
  7.4793   7.4871   7.4894   7.5199   7.5480   7.6052   7.7201   7.7706
  7.7970   7.8306   7.9025   7.9194   7.9474   8.0042   8.1105   8.1884
  8.5390   8.9342   9.0084   9.3660   9.4998   9.6976  10.2818  10.5626
 11.2371  11.3710  11.9342  11.9808  12.1289  12.1984  12.3803  12.5648
 12.6256  12.7360  12.9538  13.2546  13.2928  13.5715  13.8467  13.9031
 13.9100  14.0201  14.1691  14.4717  15.2000
 --------------------------------------------------------------
 
          Ground-State Mulliken Net Atomic Charges

     Atom                 Charge (a.u.)
  ----------------------------------------
      1 C                    -0.189786
      2 C                    -0.254321
      3 S                    -0.023700
      4 C                    -0.016150
      5 H                     0.196310
      6 C                    -0.024594
      7 C                     0.234815
      8 C                     0.241760
      9 C                    -0.043929
     10 C                    -0.005626
     11 O                    -0.333079
     12 O                    -0.340209
     13 C                    -0.085624
     14 H                     0.122129
     15 H                     0.090914
     16 H                     0.094169
     17 C                    -0.088262
     18 H                     0.125462
     19 H                     0.094102
     20 H                     0.090763
     21 C                    -0.263687
     22 S                    -0.010892
     23 C                    -0.009573
     24 H                     0.195313
     25 H                     0.206182
     26 C                     0.000812
     27 S                     0.130402
     28 C                    -0.222928
     29 C                    -0.143734
     30 C                    -0.003778
     31 C                     0.379751
     32 C                    -0.145204
     33 S                     0.048843
     34 C                     0.459971
     35 O                    -0.447309
     36 O                    -0.297803
     37 F                    -0.208773
     38 C                    -0.054865
     39 H                     0.116813
     40 H                     0.084932
     41 H                     0.084713
     42 H                     0.215670
  ----------------------------------------
  Sum of atomic charges =     0.000000

 -----------------------------------------------------------------
                    Cartesian Multipole Moments
 -----------------------------------------------------------------
    Charge (ESU x 10^10)
                -0.0000
    Dipole Moment (Debye)
         X       2.0442      Y       1.9049      Z       2.8312
       Tot       3.9778
    Quadrupole Moments (Debye-Ang)
        XX    -177.5117     XY       8.2504     YY    -163.9872
        XZ     -15.8199     YZ      -8.3252     ZZ    -200.5014
    Octopole Moments (Debye-Ang^2)
       XXX    -218.1922    XXY     333.7857    XYY     -57.3130
       YYY     953.3420    XXZ     159.7905    XYZ      27.7864
       YYZ     130.4214    XZZ     -11.7276    YZZ     495.3534
       ZZZ     526.0243
    Hexadecapole Moments (Debye-Ang^3)
      XXXX   -2362.0459   XXXY   -1009.9902   XXYY   -3615.5006
      XYYY    -894.3752   YYYY  -18141.8898   XXXZ    1137.4330
      XXYZ     436.0093   XYYZ      72.0607   YYYZ    1372.2370
      XXZZ   -1289.8817   XYZZ    -121.8606   YYZZ   -4294.4095
      XZZZ     900.9013   YZZZ     900.9642   ZZZZ   -6376.3351
 -----------------------------------------------------------------
 Total job time:  316.79s(wall), 10789.31s(cpu) 
 Sun Sep 24 16:49:25 2023

        *************************************************************
        *                                                           *
        *  Thank you very much for using Q-Chem.  Have a nice day.  *
        *                                                           *
        *************************************************************


0 sent ACK to 0 
now end server 0 ... 
cleanup process ... done
remove work dirs ./qchem752875.0 -- ./qchem752875.0
rm -rf ./qchem752875.0
rm -rf ./qchem752875
