You are running Q-Chem version: 5.4.0

#
# job setting
#
local host:  exp-2-27
current dir: /expanse/lustre/projects/csd626/rramji/aromodel/PTB7_fin/Rotation_Test
input file:  fin_bdt_Phi_0_Theta_240_fin_ftt.qcin
output file: 
nprocs     : 1
nthreads   : 64
#
# qchem installation setting
#
QC:          /cm/shared/apps/spack/cpu/opt/spack/linux-centos8-zen2/gcc-10.2.0/qchem-5.4-akfmr7b3t57bfs6qan3padb2wnb2i7cl
QCAUX:       /cm/shared/apps/spack/cpu/opt/spack/linux-centos8-zen2/gcc-10.2.0/qchem-5.4-akfmr7b3t57bfs6qan3padb2wnb2i7cl/qcaux
QCPROG:      /cm/shared/apps/spack/cpu/opt/spack/linux-centos8-zen2/gcc-10.2.0/qchem-5.4-akfmr7b3t57bfs6qan3padb2wnb2i7cl/exe/qcprog.exe
QCPROG_S:    /cm/shared/apps/spack/cpu/opt/spack/linux-centos8-zen2/gcc-10.2.0/qchem-5.4-akfmr7b3t57bfs6qan3padb2wnb2i7cl/exe/qcprog.exe_s
PARALLEL:    -DPARALLEL
QCMPI:       mpich
#
# qchem directory setting
#
qcrun:       qchem51321
QCSCRATCH:   .
QCLOCALSCR:  
QCTMPDIR:    .
QCFILEPREF:  ./qchem51321
QCSAVEDIR:   
workdirs:    ./qchem51321
workdir0:    ./qchem51321
partmpdirs =  
#
# parallel setting
#
QCRSH:           ssh
QCMPI:           mpich
QCMPIRUN:        /cm/shared/apps/spack/cpu/opt/spack/linux-centos8-zen2/gcc-10.2.0/qchem-5.4-akfmr7b3t57bfs6qan3padb2wnb2i7cl/bin/mpi/mpirun_qchem
QCMACHINEFILE:   ./qchem51321/hostfile
exp-2-27

#
# env setting
#
exported envs:   QC QCAUX QCSCRATCH QCRUNNAME QCFILEPREF QCPROG QCPROG_S GUIFILE

Running Job 1 of 1 fin_bdt_Phi_0_Theta_240_fin_ftt.qcin
qchem fin_bdt_Phi_0_Theta_240_fin_ftt.qcin_51321.0 ./qchem51321/ 1
/cm/shared/apps/spack/cpu/opt/spack/linux-centos8-zen2/gcc-10.2.0/qchem-5.4-akfmr7b3t57bfs6qan3padb2wnb2i7cl/bin/mpi/mpirun_qchem -machinefile ./qchem51321/hostfile -np 1 /cm/shared/apps/spack/cpu/opt/spack/linux-centos8-zen2/gcc-10.2.0/qchem-5.4-akfmr7b3t57bfs6qan3padb2wnb2i7cl/exe/qcprog.exe fin_bdt_Phi_0_Theta_240_fin_ftt.qcin_51321.0 ./qchem51321/

Process 0 of 1 is on exp-2-27 - thread support 0
initial socket setup ...start
initial socket setup ...done 
now start server 0 ... 
                  Welcome to Q-Chem
     A Quantum Leap Into The Future Of Chemistry


 Q-Chem 5.4, Q-Chem, Inc., Pleasanton, CA (2021)

 License issued to: University of California, San Diego (site)

 E. Epifanovsky,  A. T. B. Gilbert,  Xintian Feng,  Joonho Lee,  Yuezhi Mao,  
 N. Mardirossian,  P. Pokhilko,  A. White,  M. Wormit,  M. P. Coons,  
 A. L. Dempwolff,  Zhengting Gan,  D. Hait,  P. R. Horn,  L. D. Jacobson,  
 I. Kaliman,  J. Kussmann,  A. W. Lange,  Ka Un Lao,  D. S. Levine,  Jie Liu,  
 S. C. McKenzie,  A. F. Morrison,  K. Nanda,  F. Plasser,  D. R. Rehn,  
 M. L. Vidal,  Zhi-Qiang You,  Ying Zhu,  B. Alam,  B. Albrecht,  
 A. Aldossary,  E. Alguire,  J. H. Andersen,  D. Barton,  K. Begam,  A. Behn,  
 Y. A. Bernard,  E. J. Berquist,  H. Burton,  A. Carreras,  K. Carter-Fenk,  
 R. Chakraborty,  A. D. Chien,  K. D. Closser,  V. Cofer-Shabica,  
 S. Dasgupta,  Jia Deng,  M. de Wergifosse,  M. Diedenhofen,  Hainam Do,  
 S. Ehlert,  Po-Tung Fang,  S. Fatehi,  Qingguo Feng,  J. Gayvert,  
 Qinghui Ge,  G. Gidofalvi,  M. Goldey,  J. Gomes,  C. Gonzalez-Espinoza,  
 S. Gulania,  A. Gunina,  M. W. D. Hanson-Heine,  P. H. P. Harbach,  
 A. W. Hauser,  M. F. Herbst,  M. Hernandez Vera,  M. Hodecker,  
 Z. C. Holden,  S. Houck,  Xunkun Huang,  Kerwin Hui,  B. C. Huynh,  
 M. Ivanov,  Hyunjun Ji,  Hanjie Jiang,  B. Kaduk,  S. Kaehler,  
 K. Khistyaev,  Jaehoon Kim,  P. Klunzinger,  Z. Koczor-Benda,  
 Joong Hoon Koh,  D. Kosenkov,  L. Koulias,  T. Kowalczyk,  C. M. Krauter,  
 K. Kue,  A. Kunitsa,  T. Kus,  A. Landau,  K. V. Lawler,  D. Lefrancois,  
 S. Lehtola,  Rain Li,  Yi-Pei Li,  Jiashu Liang,  M. Liebenthal,  
 Hung-Hsuan Lin,  You-Sheng Lin,  Fenglai Liu,  Kuan-Yu Liu,  
 M. Loipersberger,  A. Luenser,  A. Manjanath,  P. Manohar,  E. Mansoor,  
 S. F. Manzer,  Shan-Ping Mao,  A. V. Marenich,  T. Markovich,  S. Mason,  
 S. A. Maurer,  P. F. McLaughlin,  M. F. S. J. Menger,  J.-M. Mewes,  
 S. A. Mewes,  P. Morgante,  J. W. Mullinax,  T. S. Nguyen-Beck,  
 K. J. Oosterbaan,  G. Paran,  Alexander C. Paul,  Suranjan K. Paul,  
 F. Pavosevic,  Zheng Pei,  S. Prager,  E. I. Proynov,  E. Ramos,  B. Rana,  
 A. E. Rask,  A. Rettig,  R. M. Richard,  F. Rob,  E. Rossomme,  T. Scheele,  
 M. Scheurer,  M. Schneider,  N. Sergueev,  S. M. Sharada,  W. Skomorowski,  
 D. W. Small,  C. J. Stein,  Yu-Chuan Su,  E. J. Sundstrom,  Zhen Tao,  
 J. Thirman,  T. Tsuchimochi,  N. M. Tubman,  S. P. Veccham,  O. Vydrov,  
 J. Wenzel,  J. Witte,  A. Yamada,  Kun Yao,  S. Yeganeh,  S. R. Yost,  
 A. Zech,  Igor Ying Zhang,  Xing Zhang,  Yu Zhang,  D. Zuev,  
 A. Aspuru-Guzik,  A. T. Bell,  N. A. Besley,  K. B. Bravaya,  B. R. Brooks,  
 D. Casanova,  Jeng-Da Chai,  S. Coriani,  C. J. Cramer,  
 A. E. DePrince, III,  R. A. DiStasio Jr.,  A. Dreuw,  B. D. Dunietz,  
 T. R. Furlani,  W. A. Goddard III,  S. Grimme,  S. Hammes-Schiffer,  
 T. Head-Gordon,  W. J. Hehre,  Chao-Ping Hsu,  T.-C. Jagau,  Yousung Jung,  
 A. Klamt,  Jing Kong,  D. S. Lambrecht,  WanZhen Liang,  N. J. Mayhall,  
 C. W. McCurdy,  J. B. Neaton,  C. Ochsenfeld,  J. A. Parkhill,  R. Peverati,  
 V. A. Rassolov,  Yihan Shao,  L. V. Slipchenko,  T. Stauch,  R. P. Steele,  
 J. E. Subotnik,  A. J. W. Thom,  A. Tkatchenko,  D. G. Truhlar,  
 T. Van Voorhis,  T. A. Wesolowski,  K. B. Whaley,  H. L. Woodcock III,  
 P. M. Zimmerman,  S. Faraji,  P. M. W. Gill,  M. Head-Gordon,  
 J. M. Herbert,  A. I. Krylov

 Contributors to earlier versions of Q-Chem not listed above: 
 R. D. Adamson,  B. Austin,  R. Baer,  J. Baker,  G. J. O. Beran,  
 K. Brandhorst,  S. T. Brown,  E. F. C. Byrd,  A. K. Chakraborty,  
 G. K. L. Chan,  Chun-Min Chang,  Yunqing Chen,  C.-L. Cheng,  
 Siu Hung Chien,  D. M. Chipman,  D. L. Crittenden,  H. Dachsel,  
 R. J. Doerksen,  A. D. Dutoi,  R. G. Edgar,  J. Fosso-Tande,  
 L. Fusti-Molnar,  D. Ghosh,  A. Ghysels,  A. Golubeva-Zadorozhnaya,  
 J. Gonthier,  M. S. Gordon,  S. R. Gwaltney,  G. Hawkins,  J. E. Herr,  
 A. Heyden,  S. Hirata,  E. G. Hohenstein,  G. Kedziora,  F. J. Keil,  
 C. Kelley,  Jihan Kim,  R. A. King,  R. Z. Khaliullin,  P. P. Korambath,  
 W. Kurlancheek,  A. Laurent,  A. M. Lee,  M. S. Lee,  S. V. Levchenko,  
 Ching Yeh Lin,  D. Liotard,  E. Livshits,  R. C. Lochan,  I. Lotan,  
 L. A. Martinez-Martinez,  P. E. Maslen,  N. Nair,  D. P. O'Neill,  
 D. Neuhauser,  E. Neuscamman,  C. M. Oana,  R. Olivares-Amaya,  R. Olson,  
 T. M. Perrine,  B. Peters,  P. A. Pieniazek,  A. Prociuk,  Y. M. Rhee,  
 J. Ritchie,  M. A. Rohrdanz,  E. Rosta,  N. J. Russ,  H. F. Schaefer III,  
 M. W. Schmidt,  N. E. Schultz,  S. Sharma,  N. Shenvi,  C. D. Sherrill,  
 A. C. Simmonett,  A. Sodt,  T. Stein,  D. Stuck,  K. S. Thanthiriwatte,  
 V. Vanovschi,  L. Vogt,  Tao Wang,  A. Warshel,  M. A. Watson,  
 C. F. Williams,  Q. Wu,  X. Xu,  Jun Yang,  W. Zhang,  Yan Zhao

 Please cite Q-Chem as follows:
 Y. Shao et al., Mol. Phys. 113, 184-215 (2015)
 DOI: 10.1080/00268976.2014.952696

 Q-Chem 5.4.0 for Intel X86 EM64T Linux

 Parts of Q-Chem use Armadillo 9.800.1 (Horizon Scraper).
 http://arma.sourceforge.net/

 Q-Chem begins on Sun Sep 24 18:14:19 2023  

 Host: 
0

     Scratch files written to ./qchem51321//
 May1621 |scratch|qcdevops|jenkins|workspace|build_RNUM    
 Parallel job on  1  processors
 Processing $rem in /cm/shared/apps/spack/cpu/opt/spack/linux-centos8-zen2/gcc-10.2.0/qchem-5.4-akfmr7b3t57bfs6qan3padb2wnb2i7cl/config/preferences:
 Processing $rem in /home/rramji/.qchemrc:
 Symmetry turned off for PCM/SM12/SMD calculation
 Core orbitals will be frozen

 Checking the input file for inconsistencies... 	...done.

 Q-Chem warning in module forms1/BasisType.C, line 2236:

 You are not using the predefined 5D/6D in this basis set.


--------------------------------------------------------------
User input:
--------------------------------------------------------------
$molecule
0 1
C	0.255929	-8.519741	-0.092419
C	-0.666007	-7.635967	0.449364
S	1.592708	-7.651740	-0.885736
C	-0.332317	-6.261894	0.254813
H	-1.571741	-7.954738	0.980526
C	0.904324	-6.079985	-0.458965
C	1.385968	-4.798382	-0.767823
C	-1.118303	-5.153542	0.681909
C	-0.638514	-3.869626	0.369139
C	0.600871	-3.688927	-0.342916
O	-2.248132	-5.481075	1.368544
O	2.520275	-4.479871	-1.458570
C	3.639637	-5.356026	-1.405396
H	4.495304	-4.790496	-1.820940
H	3.490336	-6.268513	-2.023129
H	3.873314	-5.658187	-0.361595
C	-3.314934	-4.546999	1.480048
H	-4.171837	-5.107564	1.899255
H	-3.601473	-4.131473	0.490123
H	-3.068969	-3.712085	2.171521
C	0.930308	-2.314326	-0.537642
S	-1.334769	-2.295487	0.785807
C	0.000000	-1.435180	0.000000
H	1.836691	-1.993211	-1.066134
H	0.249906	-9.615985	-0.091781
C	0.000000	0.000000	0.000000
S	0.002233	0.899428	1.510732
C	0.001157	2.474749	0.727629
C	-0.000030	0.908223	-1.064665
C	-0.001545	2.297013	-0.678287
C	0.001624	0.841837	-2.486150
C	0.001494	2.106670	-3.106916
S	-0.001841	3.354171	-1.965735
C	0.006168	2.361146	-4.559972
O	0.009152	1.427646	-5.350277
O	0.009405	3.644337	-5.004375
F	0.005539	-0.272288	-3.246290
C	0.019554	4.003038	-6.334976
H	0.020155	5.108000	-6.370268
H	-0.871409	3.613681	-6.875609
H	0.918470	3.613062	-6.861878
H	0.001222	3.394771	1.321510
$end

$rem
JOBTYPE		SP
EXCHANGE	HF
CORRELATION	pRIMP2
BASIS		cc-pvtz
METHOD		rimp2
AUX_BASIS	rimp2-cc-pvtz
SOLVENT_METHOD	PCM
PURECART	11111
SYMMETRY	false
MEM_TOTAL	110000
SCF_CONVERGENCE = 6
THRESH=10
GUI = 2
$end



$solvent
dielectric 4.90
$end
--------------------------------------------------------------
 ----------------------------------------------------------------
             Standard Nuclear Orientation (Angstroms)
    I     Atom           X                Y                Z
 ----------------------------------------------------------------
    1      C       0.2559290000    -8.5197410000    -0.0924190000
    2      C      -0.6660070000    -7.6359670000     0.4493640000
    3      S       1.5927080000    -7.6517400000    -0.8857360000
    4      C      -0.3323170000    -6.2618940000     0.2548130000
    5      H      -1.5717410000    -7.9547380000     0.9805260000
    6      C       0.9043240000    -6.0799850000    -0.4589650000
    7      C       1.3859680000    -4.7983820000    -0.7678230000
    8      C      -1.1183030000    -5.1535420000     0.6819090000
    9      C      -0.6385140000    -3.8696260000     0.3691390000
   10      C       0.6008710000    -3.6889270000    -0.3429160000
   11      O      -2.2481320000    -5.4810750000     1.3685440000
   12      O       2.5202750000    -4.4798710000    -1.4585700000
   13      C       3.6396370000    -5.3560260000    -1.4053960000
   14      H       4.4953040000    -4.7904960000    -1.8209400000
   15      H       3.4903360000    -6.2685130000    -2.0231290000
   16      H       3.8733140000    -5.6581870000    -0.3615950000
   17      C      -3.3149340000    -4.5469990000     1.4800480000
   18      H      -4.1718370000    -5.1075640000     1.8992550000
   19      H      -3.6014730000    -4.1314730000     0.4901230000
   20      H      -3.0689690000    -3.7120850000     2.1715210000
   21      C       0.9303080000    -2.3143260000    -0.5376420000
   22      S      -1.3347690000    -2.2954870000     0.7858070000
   23      C       0.0000000000    -1.4351800000     0.0000000000
   24      H       1.8366910000    -1.9932110000    -1.0661340000
   25      H       0.2499060000    -9.6159850000    -0.0917810000
   26      C       0.0000000000     0.0000000000     0.0000000000
   27      S       0.0022330000     0.8994280000     1.5107320000
   28      C       0.0011570000     2.4747490000     0.7276290000
   29      C      -0.0000300000     0.9082230000    -1.0646650000
   30      C      -0.0015450000     2.2970130000    -0.6782870000
   31      C       0.0016240000     0.8418370000    -2.4861500000
   32      C       0.0014940000     2.1066700000    -3.1069160000
   33      S      -0.0018410000     3.3541710000    -1.9657350000
   34      C       0.0061680000     2.3611460000    -4.5599720000
   35      O       0.0091520000     1.4276460000    -5.3502770000
   36      O       0.0094050000     3.6443370000    -5.0043750000
   37      F       0.0055390000    -0.2722880000    -3.2462900000
   38      C       0.0195540000     4.0030380000    -6.3349760000
   39      H       0.0201550000     5.1080000000    -6.3702680000
   40      H      -0.8714090000     3.6136810000    -6.8756090000
   41      H       0.9184700000     3.6130620000    -6.8618780000
   42      H       0.0012220000     3.3947710000     1.3215100000
 ----------------------------------------------------------------
 Nuclear Repulsion Energy =        3296.42980651 hartrees
 There are      119 alpha and      119 beta electrons
 Requested basis set is cc-pVTZ
 There are 376 shells and 1068 basis functions

 Total QAlloc Memory Limit 110000 MB
 Mega-Array Size       188 MB
 MEM_STATIC part       192 MB
 Discretize the solute cavity surface with Lebedev spheres
	Using 110 Lebedev grid points for each H atom
	Using 194 Lebedev grid points for other atoms
	Atomic van der Waals radii will be scaled by 1.20
 Remove points where switching function is < 1.0e-08
 Keep 2914 surface tesserae and discard 4142 interior tesserae
 Molecular Surface Area = 441.847 Angst**2
 Requested basis set is rimp2-cc-pVTZ
 There are 833 shells and 2903 basis functions
 A cutoff of  1.0D-10 yielded  31038 shell pairs
 There are    238752 function pairs (    310104 Cartesian)
 Smallest overlap matrix eigenvalue = 2.21E-05

 Scale SEOQF with 1.000000e-01/1.000000e-02/1.000000e-02

 Standard Electronic Orientation quadrupole field applied
 Nucleus-field energy     =     0.0000000327 hartrees
 Guess from superposition of atomic densities
 Warning:  Energy on first SCF cycle will be non-variational
 SAD guess density has 238.000000 electrons

 -----------------------------------------------------------------------
  General SCF calculation program by
  Eric Jon Sundstrom, Paul Horn, Yuezhi Mao, Dmitri Zuev, Alec White,
  David Stuck, Shaama M.S., Shane Yost, Joonho Lee, David Small,
  Daniel Levine, Susi Lehtola, Hugh Burton, Evgeny Epifanovsky,
  Bang C. Huynh
 -----------------------------------------------------------------------
 Hartree-Fock
 using 64 threads for integral computing
 -------------------------------------------------------
 OpenMP Integral computing Module                
 Release: version 1.0, May 2013, Q-Chem Inc. Pittsburgh 
 -------------------------------------------------------
 A restricted SCF calculation will be
 performed using DIIS
 SCF converges when DIIS error is below 1.0e-06
 ---------------------------------------
  Cycle       Energy         DIIS error
 ---------------------------------------
    1   -2765.5244154668      1.77e-02  
    2   -2753.8600858398      1.57e-03  
    3   -2754.1996175545      8.82e-04  
    4   -2754.2838440820      2.54e-04  
    5   -2754.2954500870      6.83e-05  
    6   -2754.2965231271      2.38e-05  
    7   -2754.2967597343      1.15e-05  
    8   -2754.2968374506      4.45e-06  
    9   -2754.2968530113      1.99e-06  
   10   -2754.2968552472      8.24e-07  Convergence criterion met
 ---------------------------------------
 SCF time:   CPU 6467.85s  wall 246.00s 

************** Final PCM Free Energy Summary **************
 G_electrostatic  =      -0.02000352 hartree =     -12.55240094 kcal/mol
 G_cavitation     =       0.00000000 hartree =       0.00000000 kcal/mol
 G_dispersion     =       0.00000000 hartree =       0.00000000 kcal/mol
 G_repulsion      =       0.00000000 hartree =       0.00000000 kcal/mol
 --------------------------------------------------
 Non-electrostatic Free Energy =       0.00000000 hartree =       0.00000000 kcal/mol
 Total                         =      -0.02000352 hartree =     -12.55240094 kcal/mol
 --------------------------------------------------
 SCF Energy (H0 + V/2)                       =   -2754.29685525 
 Solute Internal Energy (H0)                 =   -2754.27685172 
 Total Free Energy (H0 + V/2 + non-elec)     =   -2754.29685525 hartree
                                             = -1728347.36261311 kcal/mol
***********************************************************

 SCF   energy in the final basis set =    -2754.2968552472
 Total energy in the final basis set =    -2754.2968552472


 --------------------------------------------------------------
  Generalized many-body perturbation theory program
  by Joonho Lee, Fazle Rob, Xintian Feng, Evgeny Epifanovsky

 No regularization used 
 (reg. param. = 0.0000e+00)
  (P|Q)^-1/2 Time:  CPU 222.38 s  wall 3.91 s

 In RI-MP2 calculation: 
 # of frozen core orbitals: 45

 Components of the RIMP2 correlation energy:
        aaaa    correlation energy =        -0.6704708806 a.u.
        abab    correlation energy =        -3.7113723623 a.u.
        bbbb    correlation energy =        -0.6704708806 a.u.
        non-Brillouin singles      =        -0.0000000000 a.u.
        total same-spin energy     =        -1.3409417613 a.u.
        total opposite-spin energy =        -3.7113723623 a.u.

 Total  RIMP2   correlation energy =        -5.0523141236 a.u.
        RIMP2         total energy =     -2759.3491693707 a.u.

 RI-MP2 Energy Time:  CPU 3693.74 s  wall 61.56 s
 
 --------------------------------------------------------------
 
                    Orbital Energies (a.u.)
 --------------------------------------------------------------
 
 Alpha MOs
 -- Occupied --
-92.0159 -91.9941 -91.9911 -91.9868 -26.3337 -20.6117 -20.5928 -20.5918
-20.5495 -11.4099 -11.3772 -11.3198 -11.3191 -11.3112 -11.2964 -11.2961
-11.2943 -11.2929 -11.2882 -11.2875 -11.2873 -11.2862 -11.2845 -11.2822
-11.2805 -11.2616 -11.2600 -11.2596 -11.2503  -9.0142  -8.9981  -8.9914
 -8.9867  -6.6949  -6.6943  -6.6938  -6.6794  -6.6787  -6.6774  -6.6724
 -6.6717  -6.6707  -6.6677  -6.6671  -6.6662  -1.6465  -1.4715  -1.4169
 -1.4146  -1.3667  -1.2329  -1.1966  -1.1687  -1.1418  -1.0844  -1.0527
 -1.0473  -1.0273  -1.0030  -0.9935  -0.9712  -0.9617  -0.9508  -0.9384
 -0.8965  -0.8689  -0.8511  -0.8038  -0.7922  -0.7882  -0.7729  -0.7698
 -0.7584  -0.7330  -0.7181  -0.7148  -0.7018  -0.6886  -0.6835  -0.6782
 -0.6707  -0.6609  -0.6593  -0.6529  -0.6306  -0.6204  -0.6172  -0.6060
 -0.6017  -0.5939  -0.5848  -0.5767  -0.5709  -0.5648  -0.5536  -0.5500
 -0.5366  -0.5262  -0.5251  -0.5166  -0.5146  -0.5077  -0.5022  -0.4962
 -0.4900  -0.4837  -0.4763  -0.4695  -0.4616  -0.4610  -0.4602  -0.4128
 -0.3979  -0.3875  -0.3585  -0.3491  -0.3190  -0.2870  -0.2564
 -- Virtual --
  0.0241   0.0673   0.1142   0.1247   0.1379   0.1417   0.1496   0.1553
  0.1559   0.1601   0.1656   0.1773   0.1807   0.1839   0.1879   0.1915
  0.1990   0.2037   0.2095   0.2186   0.2199   0.2212   0.2236   0.2289
  0.2335   0.2359   0.2427   0.2522   0.2607   0.2670   0.2721   0.2815
  0.2914   0.3089   0.3220   0.3297   0.3345   0.3383   0.3442   0.3492
  0.3527   0.3567   0.3686   0.3720   0.3762   0.3807   0.3811   0.3852
  0.3859   0.3917   0.3982   0.4051   0.4081   0.4128   0.4198   0.4227
  0.4294   0.4342   0.4361   0.4417   0.4483   0.4515   0.4552   0.4574
  0.4603   0.4624   0.4653   0.4663   0.4776   0.4822   0.4851   0.4863
  0.4937   0.5008   0.5032   0.5080   0.5094   0.5123   0.5180   0.5225
  0.5268   0.5344   0.5378   0.5405   0.5459   0.5484   0.5508   0.5545
  0.5568   0.5572   0.5616   0.5677   0.5703   0.5734   0.5768   0.5845
  0.5853   0.5879   0.5936   0.5950   0.6015   0.6033   0.6051   0.6125
  0.6138   0.6163   0.6207   0.6230   0.6253   0.6294   0.6303   0.6367
  0.6387   0.6402   0.6453   0.6482   0.6506   0.6529   0.6585   0.6648
  0.6711   0.6782   0.6821   0.6832   0.6880   0.6947   0.6980   0.7021
  0.7093   0.7141   0.7179   0.7239   0.7271   0.7409   0.7482   0.7514
  0.7575   0.7631   0.7761   0.7783   0.7825   0.7891   0.7924   0.7977
  0.8037   0.8080   0.8136   0.8196   0.8245   0.8266   0.8322   0.8369
  0.8480   0.8545   0.8611   0.8670   0.8755   0.8844   0.8913   0.8941
  0.8975   0.9026   0.9048   0.9116   0.9129   0.9179   0.9243   0.9270
  0.9296   0.9370   0.9409   0.9445   0.9515   0.9595   0.9655   0.9668
  0.9723   0.9796   0.9828   0.9863   0.9892   0.9936   0.9992   1.0039
  1.0049   1.0068   1.0100   1.0153   1.0241   1.0272   1.0317   1.0409
  1.0426   1.0444   1.0586   1.0605   1.0639   1.0720   1.0746   1.0757
  1.0828   1.0850   1.0911   1.0953   1.1005   1.1043   1.1053   1.1109
  1.1145   1.1291   1.1317   1.1378   1.1463   1.1500   1.1543   1.1594
  1.1681   1.1707   1.1733   1.1817   1.1841   1.1851   1.1905   1.1943
  1.1957   1.2036   1.2076   1.2135   1.2161   1.2173   1.2244   1.2303
  1.2348   1.2425   1.2489   1.2494   1.2572   1.2685   1.2725   1.2736
  1.2755   1.2803   1.2880   1.2992   1.3053   1.3124   1.3200   1.3270
  1.3276   1.3306   1.3408   1.3444   1.3525   1.3538   1.3623   1.3691
  1.3774   1.3852   1.3925   1.3969   1.4071   1.4124   1.4163   1.4303
  1.4330   1.4413   1.4500   1.4593   1.4693   1.4728   1.4848   1.4904
  1.4950   1.4981   1.5047   1.5099   1.5125   1.5163   1.5240   1.5276
  1.5339   1.5344   1.5425   1.5450   1.5483   1.5596   1.5647   1.5679
  1.5693   1.5769   1.5842   1.5925   1.5964   1.6116   1.6244   1.6379
  1.6423   1.6514   1.6536   1.6598   1.6631   1.6665   1.6805   1.6837
  1.6869   1.6902   1.6984   1.7096   1.7225   1.7315   1.7363   1.7571
  1.7590   1.7731   1.7793   1.7817   1.7885   1.7953   1.8102   1.8220
  1.8283   1.8329   1.8357   1.8424   1.8616   1.8624   1.8641   1.8706
  1.8767   1.8891   1.8969   1.9036   1.9177   1.9213   1.9279   1.9396
  1.9439   1.9503   1.9527   1.9587   1.9627   1.9725   1.9743   1.9803
  1.9989   2.0078   2.0132   2.0355   2.0362   2.0450   2.0507   2.0561
  2.0720   2.0827   2.0874   2.1011   2.1140   2.1229   2.1324   2.1401
  2.1503   2.1567   2.1580   2.1654   2.1731   2.1780   2.1860   2.1943
  2.1974   2.1999   2.2118   2.2165   2.2268   2.2312   2.2360   2.2461
  2.2537   2.2562   2.2663   2.2726   2.2758   2.2799   2.2832   2.2985
  2.3098   2.3141   2.3209   2.3230   2.3352   2.3482   2.3516   2.3635
  2.3711   2.3832   2.3841   2.3888   2.4067   2.4181   2.4268   2.4274
  2.4319   2.4414   2.4485   2.4637   2.4712   2.4780   2.4873   2.4992
  2.5016   2.5226   2.5261   2.5299   2.5339   2.5505   2.5531   2.5678
  2.5731   2.5820   2.5846   2.5943   2.6092   2.6133   2.6192   2.6230
  2.6309   2.6360   2.6397   2.6441   2.6520   2.6607   2.6713   2.6744
  2.6824   2.6913   2.6960   2.6990   2.7021   2.7032   2.7123   2.7212
  2.7243   2.7323   2.7359   2.7439   2.7479   2.7497   2.7546   2.7688
  2.7714   2.7844   2.7913   2.8037   2.8041   2.8107   2.8154   2.8181
  2.8262   2.8344   2.8399   2.8468   2.8504   2.8646   2.8685   2.8715
  2.8789   2.8818   2.8851   2.8971   2.9073   2.9145   2.9247   2.9286
  2.9462   2.9539   2.9615   2.9712   2.9813   2.9831   2.9917   2.9997
  3.0032   3.0143   3.0220   3.0302   3.0342   3.0421   3.0442   3.0455
  3.0530   3.0625   3.0690   3.0902   3.0920   3.0935   3.0952   3.1014
  3.1053   3.1119   3.1184   3.1215   3.1247   3.1393   3.1467   3.1500
  3.1516   3.1567   3.1636   3.1676   3.1718   3.1758   3.1808   3.1827
  3.1928   3.1970   3.2009   3.2069   3.2155   3.2194   3.2241   3.2294
  3.2387   3.2413   3.2463   3.2509   3.2557   3.2621   3.2657   3.2702
  3.2748   3.2760   3.2833   3.2882   3.2896   3.2922   3.2964   3.3048
  3.3069   3.3118   3.3219   3.3245   3.3310   3.3347   3.3410   3.3429
  3.3490   3.3551   3.3568   3.3591   3.3628   3.3652   3.3693   3.3746
  3.3818   3.3846   3.3883   3.3943   3.3974   3.4023   3.4074   3.4118
  3.4200   3.4273   3.4340   3.4382   3.4395   3.4456   3.4503   3.4531
  3.4539   3.4663   3.4681   3.4727   3.4767   3.4843   3.4919   3.4961
  3.5057   3.5089   3.5153   3.5215   3.5222   3.5291   3.5349   3.5457
  3.5488   3.5568   3.5578   3.5673   3.5749   3.5770   3.5804   3.5856
  3.5873   3.5899   3.5962   3.6016   3.6046   3.6151   3.6177   3.6265
  3.6279   3.6305   3.6336   3.6445   3.6492   3.6530   3.6588   3.6604
  3.6643   3.6734   3.6756   3.6805   3.6836   3.6903   3.6922   3.6958
  3.7013   3.7061   3.7103   3.7174   3.7221   3.7281   3.7314   3.7365
  3.7409   3.7502   3.7548   3.7626   3.7634   3.7720   3.7791   3.7843
  3.7866   3.7940   3.7984   3.8152   3.8196   3.8219   3.8291   3.8310
  3.8382   3.8440   3.8471   3.8572   3.8580   3.8660   3.8723   3.8734
  3.8785   3.8858   3.8915   3.9028   3.9067   3.9132   3.9255   3.9296
  3.9369   3.9421   3.9435   3.9600   3.9654   3.9709   3.9792   3.9844
  3.9904   4.0012   4.0080   4.0104   4.0189   4.0336   4.0374   4.0414
  4.0489   4.0575   4.0620   4.0666   4.0772   4.0829   4.0894   4.0935
  4.0975   4.1044   4.1185   4.1205   4.1326   4.1413   4.1495   4.1523
  4.1612   4.1687   4.1727   4.1779   4.1876   4.1877   4.1947   4.1961
  4.2035   4.2124   4.2347   4.2383   4.2453   4.2582   4.2722   4.2775
  4.2851   4.2974   4.3016   4.3130   4.3233   4.3373   4.3439   4.3482
  4.3539   4.3664   4.3723   4.3771   4.3809   4.3874   4.3967   4.3997
  4.4056   4.4105   4.4196   4.4219   4.4272   4.4385   4.4428   4.4443
  4.4593   4.4679   4.4804   4.4909   4.4914   4.4960   4.5037   4.5177
  4.5293   4.5397   4.5461   4.5528   4.5587   4.5685   4.5861   4.5979
  4.6050   4.6100   4.6196   4.6290   4.6351   4.6362   4.6440   4.6520
  4.6601   4.6663   4.6751   4.6807   4.6930   4.7068   4.7131   4.7318
  4.7407   4.7464   4.7520   4.7597   4.7764   4.7879   4.8017   4.8092
  4.8207   4.8268   4.8355   4.8541   4.8738   4.8904   4.9119   4.9163
  4.9429   4.9442   4.9614   4.9654   4.9705   4.9793   4.9964   5.0008
  5.0098   5.0124   5.0173   5.0441   5.0487   5.0518   5.0700   5.0774
  5.0879   5.1151   5.1547   5.1569   5.1713   5.1773   5.1949   5.2010
  5.2120   5.2143   5.2147   5.2474   5.2553   5.2593   5.2761   5.2983
  5.3028   5.3084   5.3162   5.3345   5.3401   5.3491   5.3555   5.3659
  5.3768   5.3858   5.3977   5.4022   5.4262   5.4453   5.4621   5.4642
  5.4733   5.4773   5.4981   5.5059   5.5127   5.5210   5.5524   5.5622
  5.5733   5.5838   5.5925   5.6056   5.6182   5.6351   5.6391   5.7043
  5.7139   5.7371   5.7753   5.8012   5.8144   5.8295   5.8524   5.8552
  5.8735   5.8818   5.9325   5.9702   5.9723   5.9816   6.0004   6.0621
  6.0693   6.0880   6.1263   6.1340   6.1696   6.1727   6.1816   6.1861
  6.2369   6.2428   6.2682   6.2800   6.2948   6.3089   6.3167   6.3790
  6.4398   6.4489   6.4980   6.5343   6.5497   6.5561   6.5568   6.6540
  6.6629   6.6772   6.7108   6.7382   6.7432   6.8007   6.8449   6.8609
  6.8839   6.8917   6.9922   7.1193   7.1384   7.1788   7.2117   7.2150
  7.2334   7.3190   7.3270   7.3319   7.3742   7.3772   7.4288   7.4629
  7.4782   7.4869   7.4887   7.5198   7.5499   7.6145   7.7180   7.7706
  7.7962   7.8319   7.9056   7.9208   7.9474   8.0038   8.0998   8.1906
  8.6267   8.9312   9.0098   9.3643   9.5005   9.6958  10.1920  10.7128
 11.2416  11.4952  11.9182  11.9719  12.1279  12.2046  12.3329  12.5784
 12.7155  12.7471  12.9380  13.2363  13.2786  13.5769  13.8456  13.8991
 13.9166  14.0256  14.1756  14.5751  15.1975
 --------------------------------------------------------------
 
          Ground-State Mulliken Net Atomic Charges

     Atom                 Charge (a.u.)
  ----------------------------------------
      1 C                    -0.186737
      2 C                    -0.254315
      3 S                    -0.020696
      4 C                    -0.012899
      5 H                     0.196508
      6 C                    -0.027655
      7 C                     0.246238
      8 C                     0.238408
      9 C                    -0.045909
     10 C                    -0.031729
     11 O                    -0.333172
     12 O                    -0.339122
     13 C                    -0.085718
     14 H                     0.123047
     15 H                     0.091290
     16 H                     0.093853
     17 C                    -0.086897
     18 H                     0.125084
     19 H                     0.095472
     20 H                     0.089419
     21 C                    -0.213528
     22 S                    -0.004803
     23 C                    -0.036631
     24 H                     0.197459
     25 H                     0.206740
     26 C                    -0.025388
     27 S                     0.112913
     28 C                    -0.240721
     29 C                    -0.085118
     30 C                    -0.008000
     31 C                     0.394793
     32 C                    -0.154492
     33 S                     0.035773
     34 C                     0.460512
     35 O                    -0.450761
     36 O                    -0.297944
     37 F                    -0.211051
     38 C                    -0.055014
     39 H                     0.116488
     40 H                     0.084586
     41 H                     0.084378
     42 H                     0.215340
  ----------------------------------------
  Sum of atomic charges =     0.000000

 -----------------------------------------------------------------
                    Cartesian Multipole Moments
 -----------------------------------------------------------------
    Charge (ESU x 10^10)
                -0.0000
    Dipole Moment (Debye)
         X       0.1204      Y       1.3365      Z       3.5016
       Tot       3.7500
    Quadrupole Moments (Debye-Ang)
        XX    -178.4362     XY      -1.1477     YY    -157.6842
        XZ      -7.0751     YZ     -11.5631     ZZ    -204.7773
    Octopole Moments (Debye-Ang^2)
       XXX     -36.7807    XXY     276.4419    XYY      -1.2080
       YYY     877.8740    XXZ     181.2149    XYZ      34.6399
       YYZ     132.9850    XZZ     -17.0459    YZZ     499.2070
       ZZZ     568.5860
    Hexadecapole Moments (Debye-Ang^3)
      XXXX   -1906.8822   XXXY     427.6413   XXYY   -3653.8531
      XYYY     383.9015   YYYY  -18552.1253   XXXZ     355.3330
      XXYZ     434.3156   XYYZ     -36.2160   YYYZ    1035.3625
      XXZZ   -1350.5504   XYZZ     170.5819   YYZZ   -4301.5425
      XZZZ     483.9192   YZZZ     525.4907   ZZZZ   -6046.2800
 -----------------------------------------------------------------
 Total job time:  311.56s(wall), 10275.16s(cpu) 
 Sun Sep 24 18:19:31 2023

        *************************************************************
        *                                                           *
        *  Thank you very much for using Q-Chem.  Have a nice day.  *
        *                                                           *
        *************************************************************


0 sent ACK to 0 
now end server 0 ... 
cleanup process ... done
remove work dirs ./qchem51321.0 -- ./qchem51321.0
rm -rf ./qchem51321.0
rm -rf ./qchem51321
