You are running Q-Chem version: 5.4.0

#
# job setting
#
local host:  exp-8-26
current dir: /expanse/lustre/projects/csd626/rramji/aromodel/PTB7_fin/Rotation_Test
input file:  fin_bdt_Phi_5_Theta_150_fin_ftt.qcin
output file: 
nprocs     : 1
nthreads   : 64
#
# qchem installation setting
#
QC:          /cm/shared/apps/spack/cpu/opt/spack/linux-centos8-zen2/gcc-10.2.0/qchem-5.4-akfmr7b3t57bfs6qan3padb2wnb2i7cl
QCAUX:       /cm/shared/apps/spack/cpu/opt/spack/linux-centos8-zen2/gcc-10.2.0/qchem-5.4-akfmr7b3t57bfs6qan3padb2wnb2i7cl/qcaux
QCPROG:      /cm/shared/apps/spack/cpu/opt/spack/linux-centos8-zen2/gcc-10.2.0/qchem-5.4-akfmr7b3t57bfs6qan3padb2wnb2i7cl/exe/qcprog.exe
QCPROG_S:    /cm/shared/apps/spack/cpu/opt/spack/linux-centos8-zen2/gcc-10.2.0/qchem-5.4-akfmr7b3t57bfs6qan3padb2wnb2i7cl/exe/qcprog.exe_s
PARALLEL:    -DPARALLEL
QCMPI:       mpich
#
# qchem directory setting
#
qcrun:       qchem1195010
QCSCRATCH:   .
QCLOCALSCR:  
QCTMPDIR:    .
QCFILEPREF:  ./qchem1195010
QCSAVEDIR:   
workdirs:    ./qchem1195010
workdir0:    ./qchem1195010
partmpdirs =  
#
# parallel setting
#
QCRSH:           ssh
QCMPI:           mpich
QCMPIRUN:        /cm/shared/apps/spack/cpu/opt/spack/linux-centos8-zen2/gcc-10.2.0/qchem-5.4-akfmr7b3t57bfs6qan3padb2wnb2i7cl/bin/mpi/mpirun_qchem
QCMACHINEFILE:   ./qchem1195010/hostfile
exp-8-26

#
# env setting
#
exported envs:   QC QCAUX QCSCRATCH QCRUNNAME QCFILEPREF QCPROG QCPROG_S GUIFILE

Running Job 1 of 1 fin_bdt_Phi_5_Theta_150_fin_ftt.qcin
qchem fin_bdt_Phi_5_Theta_150_fin_ftt.qcin_1195010.0 ./qchem1195010/ 1
/cm/shared/apps/spack/cpu/opt/spack/linux-centos8-zen2/gcc-10.2.0/qchem-5.4-akfmr7b3t57bfs6qan3padb2wnb2i7cl/bin/mpi/mpirun_qchem -machinefile ./qchem1195010/hostfile -np 1 /cm/shared/apps/spack/cpu/opt/spack/linux-centos8-zen2/gcc-10.2.0/qchem-5.4-akfmr7b3t57bfs6qan3padb2wnb2i7cl/exe/qcprog.exe fin_bdt_Phi_5_Theta_150_fin_ftt.qcin_1195010.0 ./qchem1195010/

Process 0 of 1 is on exp-8-26 - thread support 0
initial socket setup ...start
initial socket setup ...done 
now start server 0 ... 
                  Welcome to Q-Chem
     A Quantum Leap Into The Future Of Chemistry


 Q-Chem 5.4, Q-Chem, Inc., Pleasanton, CA (2021)

 License issued to: University of California, San Diego (site)

 E. Epifanovsky,  A. T. B. Gilbert,  Xintian Feng,  Joonho Lee,  Yuezhi Mao,  
 N. Mardirossian,  P. Pokhilko,  A. White,  M. Wormit,  M. P. Coons,  
 A. L. Dempwolff,  Zhengting Gan,  D. Hait,  P. R. Horn,  L. D. Jacobson,  
 I. Kaliman,  J. Kussmann,  A. W. Lange,  Ka Un Lao,  D. S. Levine,  Jie Liu,  
 S. C. McKenzie,  A. F. Morrison,  K. Nanda,  F. Plasser,  D. R. Rehn,  
 M. L. Vidal,  Zhi-Qiang You,  Ying Zhu,  B. Alam,  B. Albrecht,  
 A. Aldossary,  E. Alguire,  J. H. Andersen,  D. Barton,  K. Begam,  A. Behn,  
 Y. A. Bernard,  E. J. Berquist,  H. Burton,  A. Carreras,  K. Carter-Fenk,  
 R. Chakraborty,  A. D. Chien,  K. D. Closser,  V. Cofer-Shabica,  
 S. Dasgupta,  Jia Deng,  M. de Wergifosse,  M. Diedenhofen,  Hainam Do,  
 S. Ehlert,  Po-Tung Fang,  S. Fatehi,  Qingguo Feng,  J. Gayvert,  
 Qinghui Ge,  G. Gidofalvi,  M. Goldey,  J. Gomes,  C. Gonzalez-Espinoza,  
 S. Gulania,  A. Gunina,  M. W. D. Hanson-Heine,  P. H. P. Harbach,  
 A. W. Hauser,  M. F. Herbst,  M. Hernandez Vera,  M. Hodecker,  
 Z. C. Holden,  S. Houck,  Xunkun Huang,  Kerwin Hui,  B. C. Huynh,  
 M. Ivanov,  Hyunjun Ji,  Hanjie Jiang,  B. Kaduk,  S. Kaehler,  
 K. Khistyaev,  Jaehoon Kim,  P. Klunzinger,  Z. Koczor-Benda,  
 Joong Hoon Koh,  D. Kosenkov,  L. Koulias,  T. Kowalczyk,  C. M. Krauter,  
 K. Kue,  A. Kunitsa,  T. Kus,  A. Landau,  K. V. Lawler,  D. Lefrancois,  
 S. Lehtola,  Rain Li,  Yi-Pei Li,  Jiashu Liang,  M. Liebenthal,  
 Hung-Hsuan Lin,  You-Sheng Lin,  Fenglai Liu,  Kuan-Yu Liu,  
 M. Loipersberger,  A. Luenser,  A. Manjanath,  P. Manohar,  E. Mansoor,  
 S. F. Manzer,  Shan-Ping Mao,  A. V. Marenich,  T. Markovich,  S. Mason,  
 S. A. Maurer,  P. F. McLaughlin,  M. F. S. J. Menger,  J.-M. Mewes,  
 S. A. Mewes,  P. Morgante,  J. W. Mullinax,  T. S. Nguyen-Beck,  
 K. J. Oosterbaan,  G. Paran,  Alexander C. Paul,  Suranjan K. Paul,  
 F. Pavosevic,  Zheng Pei,  S. Prager,  E. I. Proynov,  E. Ramos,  B. Rana,  
 A. E. Rask,  A. Rettig,  R. M. Richard,  F. Rob,  E. Rossomme,  T. Scheele,  
 M. Scheurer,  M. Schneider,  N. Sergueev,  S. M. Sharada,  W. Skomorowski,  
 D. W. Small,  C. J. Stein,  Yu-Chuan Su,  E. J. Sundstrom,  Zhen Tao,  
 J. Thirman,  T. Tsuchimochi,  N. M. Tubman,  S. P. Veccham,  O. Vydrov,  
 J. Wenzel,  J. Witte,  A. Yamada,  Kun Yao,  S. Yeganeh,  S. R. Yost,  
 A. Zech,  Igor Ying Zhang,  Xing Zhang,  Yu Zhang,  D. Zuev,  
 A. Aspuru-Guzik,  A. T. Bell,  N. A. Besley,  K. B. Bravaya,  B. R. Brooks,  
 D. Casanova,  Jeng-Da Chai,  S. Coriani,  C. J. Cramer,  
 A. E. DePrince, III,  R. A. DiStasio Jr.,  A. Dreuw,  B. D. Dunietz,  
 T. R. Furlani,  W. A. Goddard III,  S. Grimme,  S. Hammes-Schiffer,  
 T. Head-Gordon,  W. J. Hehre,  Chao-Ping Hsu,  T.-C. Jagau,  Yousung Jung,  
 A. Klamt,  Jing Kong,  D. S. Lambrecht,  WanZhen Liang,  N. J. Mayhall,  
 C. W. McCurdy,  J. B. Neaton,  C. Ochsenfeld,  J. A. Parkhill,  R. Peverati,  
 V. A. Rassolov,  Yihan Shao,  L. V. Slipchenko,  T. Stauch,  R. P. Steele,  
 J. E. Subotnik,  A. J. W. Thom,  A. Tkatchenko,  D. G. Truhlar,  
 T. Van Voorhis,  T. A. Wesolowski,  K. B. Whaley,  H. L. Woodcock III,  
 P. M. Zimmerman,  S. Faraji,  P. M. W. Gill,  M. Head-Gordon,  
 J. M. Herbert,  A. I. Krylov

 Contributors to earlier versions of Q-Chem not listed above: 
 R. D. Adamson,  B. Austin,  R. Baer,  J. Baker,  G. J. O. Beran,  
 K. Brandhorst,  S. T. Brown,  E. F. C. Byrd,  A. K. Chakraborty,  
 G. K. L. Chan,  Chun-Min Chang,  Yunqing Chen,  C.-L. Cheng,  
 Siu Hung Chien,  D. M. Chipman,  D. L. Crittenden,  H. Dachsel,  
 R. J. Doerksen,  A. D. Dutoi,  R. G. Edgar,  J. Fosso-Tande,  
 L. Fusti-Molnar,  D. Ghosh,  A. Ghysels,  A. Golubeva-Zadorozhnaya,  
 J. Gonthier,  M. S. Gordon,  S. R. Gwaltney,  G. Hawkins,  J. E. Herr,  
 A. Heyden,  S. Hirata,  E. G. Hohenstein,  G. Kedziora,  F. J. Keil,  
 C. Kelley,  Jihan Kim,  R. A. King,  R. Z. Khaliullin,  P. P. Korambath,  
 W. Kurlancheek,  A. Laurent,  A. M. Lee,  M. S. Lee,  S. V. Levchenko,  
 Ching Yeh Lin,  D. Liotard,  E. Livshits,  R. C. Lochan,  I. Lotan,  
 L. A. Martinez-Martinez,  P. E. Maslen,  N. Nair,  D. P. O'Neill,  
 D. Neuhauser,  E. Neuscamman,  C. M. Oana,  R. Olivares-Amaya,  R. Olson,  
 T. M. Perrine,  B. Peters,  P. A. Pieniazek,  A. Prociuk,  Y. M. Rhee,  
 J. Ritchie,  M. A. Rohrdanz,  E. Rosta,  N. J. Russ,  H. F. Schaefer III,  
 M. W. Schmidt,  N. E. Schultz,  S. Sharma,  N. Shenvi,  C. D. Sherrill,  
 A. C. Simmonett,  A. Sodt,  T. Stein,  D. Stuck,  K. S. Thanthiriwatte,  
 V. Vanovschi,  L. Vogt,  Tao Wang,  A. Warshel,  M. A. Watson,  
 C. F. Williams,  Q. Wu,  X. Xu,  Jun Yang,  W. Zhang,  Yan Zhao

 Please cite Q-Chem as follows:
 Y. Shao et al., Mol. Phys. 113, 184-215 (2015)
 DOI: 10.1080/00268976.2014.952696

 Q-Chem 5.4.0 for Intel X86 EM64T Linux

 Parts of Q-Chem use Armadillo 9.800.1 (Horizon Scraper).
 http://arma.sourceforge.net/

 Q-Chem begins on Tue Sep 26 18:36:23 2023  

 Host: 
0

     Scratch files written to ./qchem1195010//
 May1621 |scratch|qcdevops|jenkins|workspace|build_RNUM    
 Parallel job on  1  processors
 Processing $rem in /cm/shared/apps/spack/cpu/opt/spack/linux-centos8-zen2/gcc-10.2.0/qchem-5.4-akfmr7b3t57bfs6qan3padb2wnb2i7cl/config/preferences:
 Processing $rem in /home/rramji/.qchemrc:
 Symmetry turned off for PCM/SM12/SMD calculation
 Core orbitals will be frozen

 Checking the input file for inconsistencies... 	...done.

 Q-Chem warning in module forms1/BasisType.C, line 2236:

 You are not using the predefined 5D/6D in this basis set.


--------------------------------------------------------------
User input:
--------------------------------------------------------------
$molecule
0 1
C	-0.092419	-8.519741	-0.255929
C	0.449364	-7.635967	0.666007
S	-0.885736	-7.651740	-1.592708
C	0.254813	-6.261894	0.332317
H	0.980526	-7.954738	1.571741
C	-0.458965	-6.079985	-0.904324
C	-0.767823	-4.798382	-1.385968
C	0.681909	-5.153542	1.118303
C	0.369139	-3.869626	0.638514
C	-0.342916	-3.688927	-0.600871
O	1.368544	-5.481075	2.248132
O	-1.458570	-4.479871	-2.520275
C	-1.405396	-5.356026	-3.639637
H	-1.820940	-4.790496	-4.495304
H	-2.023129	-6.268513	-3.490336
H	-0.361595	-5.658187	-3.873314
C	1.480048	-4.546999	3.314934
H	1.899255	-5.107564	4.171837
H	0.490123	-4.131473	3.601473
H	2.171521	-3.712085	3.068969
C	-0.537642	-2.314326	-0.930308
S	0.785807	-2.295487	1.334769
C	0.000000	-1.435180	0.000000
H	-1.066134	-1.993211	-1.836691
H	-0.091781	-9.615985	-0.249906
C	0.000000	0.000000	0.000000
S	0.080615	0.895811	1.510732
C	0.216842	2.465231	0.727629
C	0.079127	0.904769	-1.064665
C	0.198659	2.288406	-0.678287
C	0.074988	0.838492	-2.486150
C	0.185097	2.098524	-3.106916
S	0.290501	3.341568	-1.965735
C	0.211932	2.351623	-4.559972
O	0.133545	1.421416	-5.350277
O	0.326994	3.629649	-5.004375
F	-0.018214	-0.271734	-3.246290
C	0.368367	3.986101	-6.334976
H	0.465270	5.086806	-6.370268
H	-0.553140	3.675878	-6.875609
H	1.229874	3.519263	-6.861878
H	0.297091	3.381746	1.321510
$end

$rem
JOBTYPE		SP
EXCHANGE	HF
CORRELATION	pRIMP2
BASIS		cc-pvtz
METHOD		rimp2
AUX_BASIS	rimp2-cc-pvtz
SOLVENT_METHOD	PCM
PURECART	11111
SYMMETRY	false
MEM_TOTAL	110000
SCF_CONVERGENCE = 6
THRESH=10
GUI = 2
$end



$solvent
dielectric 4.90
$end
--------------------------------------------------------------
 ----------------------------------------------------------------
             Standard Nuclear Orientation (Angstroms)
    I     Atom           X                Y                Z
 ----------------------------------------------------------------
    1      C      -0.0924190000    -8.5197410000    -0.2559290000
    2      C       0.4493640000    -7.6359670000     0.6660070000
    3      S      -0.8857360000    -7.6517400000    -1.5927080000
    4      C       0.2548130000    -6.2618940000     0.3323170000
    5      H       0.9805260000    -7.9547380000     1.5717410000
    6      C      -0.4589650000    -6.0799850000    -0.9043240000
    7      C      -0.7678230000    -4.7983820000    -1.3859680000
    8      C       0.6819090000    -5.1535420000     1.1183030000
    9      C       0.3691390000    -3.8696260000     0.6385140000
   10      C      -0.3429160000    -3.6889270000    -0.6008710000
   11      O       1.3685440000    -5.4810750000     2.2481320000
   12      O      -1.4585700000    -4.4798710000    -2.5202750000
   13      C      -1.4053960000    -5.3560260000    -3.6396370000
   14      H      -1.8209400000    -4.7904960000    -4.4953040000
   15      H      -2.0231290000    -6.2685130000    -3.4903360000
   16      H      -0.3615950000    -5.6581870000    -3.8733140000
   17      C       1.4800480000    -4.5469990000     3.3149340000
   18      H       1.8992550000    -5.1075640000     4.1718370000
   19      H       0.4901230000    -4.1314730000     3.6014730000
   20      H       2.1715210000    -3.7120850000     3.0689690000
   21      C      -0.5376420000    -2.3143260000    -0.9303080000
   22      S       0.7858070000    -2.2954870000     1.3347690000
   23      C       0.0000000000    -1.4351800000     0.0000000000
   24      H      -1.0661340000    -1.9932110000    -1.8366910000
   25      H      -0.0917810000    -9.6159850000    -0.2499060000
   26      C       0.0000000000     0.0000000000     0.0000000000
   27      S       0.0806150000     0.8958110000     1.5107320000
   28      C       0.2168420000     2.4652310000     0.7276290000
   29      C       0.0791270000     0.9047690000    -1.0646650000
   30      C       0.1986590000     2.2884060000    -0.6782870000
   31      C       0.0749880000     0.8384920000    -2.4861500000
   32      C       0.1850970000     2.0985240000    -3.1069160000
   33      S       0.2905010000     3.3415680000    -1.9657350000
   34      C       0.2119320000     2.3516230000    -4.5599720000
   35      O       0.1335450000     1.4214160000    -5.3502770000
   36      O       0.3269940000     3.6296490000    -5.0043750000
   37      F      -0.0182140000    -0.2717340000    -3.2462900000
   38      C       0.3683670000     3.9861010000    -6.3349760000
   39      H       0.4652700000     5.0868060000    -6.3702680000
   40      H      -0.5531400000     3.6758780000    -6.8756090000
   41      H       1.2298740000     3.5192630000    -6.8618780000
   42      H       0.2970910000     3.3817460000     1.3215100000
 ----------------------------------------------------------------
 Nuclear Repulsion Energy =        3306.76229386 hartrees
 There are      119 alpha and      119 beta electrons
 Requested basis set is cc-pVTZ
 There are 376 shells and 1068 basis functions

 Total QAlloc Memory Limit 110000 MB
 Mega-Array Size       188 MB
 MEM_STATIC part       192 MB
 Discretize the solute cavity surface with Lebedev spheres
	Using 110 Lebedev grid points for each H atom
	Using 194 Lebedev grid points for other atoms
	Atomic van der Waals radii will be scaled by 1.20
 Remove points where switching function is < 1.0e-08
 Keep 2889 surface tesserae and discard 4167 interior tesserae
 Molecular Surface Area = 436.279 Angst**2
 Requested basis set is rimp2-cc-pVTZ
 There are 833 shells and 2903 basis functions
 A cutoff of  1.0D-10 yielded  31354 shell pairs
 There are    240804 function pairs (    312654 Cartesian)
 Smallest overlap matrix eigenvalue = 2.20E-05

 Scale SEOQF with 1.000000e-01/1.000000e-02/1.000000e-02

 Standard Electronic Orientation quadrupole field applied
 Nucleus-field energy     =     0.0000000177 hartrees
 Guess from superposition of atomic densities
 Warning:  Energy on first SCF cycle will be non-variational
 SAD guess density has 238.000000 electrons

 -----------------------------------------------------------------------
  General SCF calculation program by
  Eric Jon Sundstrom, Paul Horn, Yuezhi Mao, Dmitri Zuev, Alec White,
  David Stuck, Shaama M.S., Shane Yost, Joonho Lee, David Small,
  Daniel Levine, Susi Lehtola, Hugh Burton, Evgeny Epifanovsky,
  Bang C. Huynh
 -----------------------------------------------------------------------
 Hartree-Fock
 using 64 threads for integral computing
 -------------------------------------------------------
 OpenMP Integral computing Module                
 Release: version 1.0, May 2013, Q-Chem Inc. Pittsburgh 
 -------------------------------------------------------
 A restricted SCF calculation will be
 performed using DIIS
 SCF converges when DIIS error is below 1.0e-06
 ---------------------------------------
  Cycle       Energy         DIIS error
 ---------------------------------------
    1   -2765.5457556636      1.77e-02  
    2   -2753.8603638264      1.57e-03  
    3   -2754.2007772842      8.82e-04  
    4   -2754.2851416650      2.54e-04  
    5   -2754.2968028501      6.83e-05  
    6   -2754.2978948362      2.40e-05  
    7   -2754.2981397662      1.16e-05  
    8   -2754.2982204645      4.46e-06  
    9   -2754.2982362507      1.87e-06  
   10   -2754.2982384346      7.86e-07  Convergence criterion met
 ---------------------------------------
 SCF time:   CPU 6415.12s  wall 233.00s 

************** Final PCM Free Energy Summary **************
 G_electrostatic  =      -0.01907440 hartree =     -11.96936508 kcal/mol
 G_cavitation     =       0.00000000 hartree =       0.00000000 kcal/mol
 G_dispersion     =       0.00000000 hartree =       0.00000000 kcal/mol
 G_repulsion      =       0.00000000 hartree =       0.00000000 kcal/mol
 --------------------------------------------------
 Non-electrostatic Free Energy =       0.00000000 hartree =       0.00000000 kcal/mol
 Total                         =      -0.01907440 hartree =     -11.96936508 kcal/mol
 --------------------------------------------------
 SCF Energy (H0 + V/2)                       =   -2754.29823843 
 Solute Internal Energy (H0)                 =   -2754.27916404 
 Total Free Energy (H0 + V/2 + non-elec)     =   -2754.29823843 hartree
                                             = -1728348.23057633 kcal/mol
***********************************************************

 SCF   energy in the final basis set =    -2754.2982384346
 Total energy in the final basis set =    -2754.2982384346


 --------------------------------------------------------------
  Generalized many-body perturbation theory program
  by Joonho Lee, Fazle Rob, Xintian Feng, Evgeny Epifanovsky

 No regularization used 
 (reg. param. = 0.0000e+00)
  (P|Q)^-1/2 Time:  CPU 188.79 s  wall 3.33 s

 In RI-MP2 calculation: 
 # of frozen core orbitals: 45

 Components of the RIMP2 correlation energy:
        aaaa    correlation energy =        -0.6711161121 a.u.
        abab    correlation energy =        -3.7117721111 a.u.
        bbbb    correlation energy =        -0.6711161121 a.u.
        non-Brillouin singles      =        -0.0000000000 a.u.
        total same-spin energy     =        -1.3422322243 a.u.
        total opposite-spin energy =        -3.7117721111 a.u.

 Total  RIMP2   correlation energy =        -5.0540043353 a.u.
        RIMP2         total energy =     -2759.3522427699 a.u.

 RI-MP2 Energy Time:  CPU 2778.04 s  wall 45.06 s
 
 --------------------------------------------------------------
 
                    Orbital Energies (a.u.)
 --------------------------------------------------------------
 
 Alpha MOs
 -- Occupied --
-92.0161 -91.9946 -91.9919 -91.9870 -26.3358 -20.6117 -20.5932 -20.5917
-20.5493 -11.4098 -11.3780 -11.3203 -11.3194 -11.3138 -11.2972 -11.2962
-11.2960 -11.2919 -11.2883 -11.2880 -11.2879 -11.2856 -11.2848 -11.2812
-11.2808 -11.2624 -11.2605 -11.2589 -11.2505  -9.0145  -8.9986  -8.9924
 -8.9869  -6.6953  -6.6947  -6.6942  -6.6799  -6.6792  -6.6779  -6.6734
 -6.6727  -6.6717  -6.6679  -6.6673  -6.6664  -1.6492  -1.4714  -1.4173
 -1.4144  -1.3667  -1.2334  -1.1974  -1.1697  -1.1423  -1.0849  -1.0531
 -1.0478  -1.0278  -1.0038  -0.9940  -0.9720  -0.9615  -0.9509  -0.9384
 -0.8971  -0.8693  -0.8518  -0.8050  -0.7949  -0.7886  -0.7725  -0.7697
 -0.7583  -0.7332  -0.7197  -0.7170  -0.7020  -0.6891  -0.6841  -0.6783
 -0.6718  -0.6619  -0.6597  -0.6528  -0.6300  -0.6204  -0.6167  -0.6061
 -0.6009  -0.5939  -0.5878  -0.5773  -0.5691  -0.5604  -0.5550  -0.5497
 -0.5375  -0.5267  -0.5227  -0.5192  -0.5173  -0.5093  -0.5046  -0.4959
 -0.4868  -0.4842  -0.4795  -0.4694  -0.4621  -0.4611  -0.4598  -0.4206
 -0.3982  -0.3867  -0.3592  -0.3506  -0.3244  -0.2855  -0.2498
 -- Virtual --
  0.0137   0.0770   0.1147   0.1233   0.1327   0.1456   0.1511   0.1554
  0.1557   0.1614   0.1632   0.1809   0.1850   0.1884   0.1912   0.1935
  0.2029   0.2078   0.2112   0.2188   0.2207   0.2226   0.2233   0.2282
  0.2373   0.2425   0.2443   0.2536   0.2648   0.2696   0.2743   0.2802
  0.3016   0.3075   0.3206   0.3322   0.3373   0.3452   0.3485   0.3520
  0.3532   0.3557   0.3687   0.3737   0.3765   0.3805   0.3841   0.3853
  0.3875   0.3925   0.3981   0.4064   0.4096   0.4157   0.4210   0.4229
  0.4315   0.4365   0.4413   0.4425   0.4464   0.4488   0.4518   0.4556
  0.4595   0.4637   0.4735   0.4778   0.4806   0.4837   0.4889   0.4922
  0.4937   0.4981   0.5070   0.5073   0.5114   0.5175   0.5238   0.5242
  0.5261   0.5318   0.5370   0.5409   0.5435   0.5475   0.5527   0.5550
  0.5562   0.5610   0.5630   0.5688   0.5701   0.5724   0.5790   0.5808
  0.5845   0.5876   0.5904   0.5965   0.6001   0.6036   0.6074   0.6128
  0.6154   0.6184   0.6189   0.6250   0.6277   0.6298   0.6317   0.6352
  0.6383   0.6409   0.6450   0.6511   0.6534   0.6581   0.6623   0.6693
  0.6732   0.6764   0.6790   0.6844   0.6912   0.6959   0.6998   0.7080
  0.7094   0.7182   0.7241   0.7297   0.7362   0.7438   0.7512   0.7569
  0.7570   0.7657   0.7739   0.7778   0.7852   0.7879   0.7945   0.7992
  0.8019   0.8079   0.8137   0.8202   0.8254   0.8336   0.8358   0.8497
  0.8538   0.8577   0.8624   0.8719   0.8743   0.8815   0.8871   0.8983
  0.9022   0.9044   0.9061   0.9134   0.9190   0.9211   0.9260   0.9280
  0.9332   0.9386   0.9481   0.9486   0.9530   0.9560   0.9638   0.9664
  0.9730   0.9805   0.9820   0.9867   0.9957   0.9966   0.9978   0.9998
  1.0044   1.0087   1.0178   1.0227   1.0239   1.0269   1.0359   1.0373
  1.0457   1.0519   1.0554   1.0628   1.0668   1.0736   1.0758   1.0807
  1.0875   1.0915   1.0946   1.0953   1.1017   1.1063   1.1132   1.1173
  1.1222   1.1281   1.1348   1.1394   1.1420   1.1488   1.1524   1.1562
  1.1646   1.1711   1.1791   1.1806   1.1824   1.1850   1.1896   1.1911
  1.1951   1.2046   1.2119   1.2182   1.2185   1.2199   1.2239   1.2316
  1.2329   1.2412   1.2466   1.2523   1.2619   1.2673   1.2703   1.2708
  1.2788   1.2902   1.2917   1.2980   1.3030   1.3092   1.3163   1.3224
  1.3272   1.3388   1.3412   1.3484   1.3538   1.3565   1.3623   1.3713
  1.3751   1.3803   1.3844   1.3927   1.3955   1.4018   1.4130   1.4157
  1.4344   1.4395   1.4542   1.4591   1.4693   1.4756   1.4784   1.4886
  1.4920   1.5017   1.5063   1.5096   1.5124   1.5137   1.5279   1.5291
  1.5308   1.5350   1.5393   1.5458   1.5519   1.5591   1.5624   1.5684
  1.5771   1.5862   1.5884   1.5981   1.6033   1.6115   1.6263   1.6303
  1.6439   1.6477   1.6538   1.6581   1.6611   1.6641   1.6786   1.6804
  1.6903   1.6977   1.7019   1.7138   1.7239   1.7310   1.7366   1.7510
  1.7599   1.7712   1.7757   1.7862   1.7928   1.7946   1.8098   1.8218
  1.8242   1.8329   1.8409   1.8491   1.8544   1.8596   1.8696   1.8717
  1.8777   1.8866   1.8965   1.9034   1.9139   1.9160   1.9274   1.9355
  1.9417   1.9452   1.9523   1.9593   1.9671   1.9734   1.9824   1.9877
  1.9988   2.0136   2.0230   2.0264   2.0293   2.0374   2.0548   2.0565
  2.0710   2.0860   2.1008   2.1127   2.1164   2.1269   2.1389   2.1440
  2.1543   2.1594   2.1606   2.1667   2.1707   2.1786   2.1893   2.1939
  2.1948   2.2026   2.2132   2.2157   2.2233   2.2265   2.2366   2.2451
  2.2529   2.2561   2.2610   2.2719   2.2774   2.2841   2.2878   2.2967
  2.3086   2.3109   2.3171   2.3310   2.3385   2.3447   2.3493   2.3651
  2.3746   2.3811   2.3873   2.3887   2.3993   2.4181   2.4229   2.4284
  2.4356   2.4437   2.4570   2.4620   2.4698   2.4768   2.4882   2.4897
  2.4997   2.5166   2.5242   2.5295   2.5372   2.5502   2.5562   2.5631
  2.5737   2.5806   2.5848   2.5966   2.6138   2.6177   2.6188   2.6235
  2.6305   2.6345   2.6389   2.6441   2.6513   2.6624   2.6669   2.6693
  2.6778   2.6895   2.6939   2.6988   2.7028   2.7075   2.7106   2.7230
  2.7319   2.7324   2.7352   2.7425   2.7469   2.7509   2.7606   2.7680
  2.7766   2.7846   2.7923   2.8011   2.8071   2.8134   2.8176   2.8263
  2.8274   2.8333   2.8432   2.8472   2.8477   2.8569   2.8709   2.8776
  2.8785   2.8852   2.8886   2.8970   2.9032   2.9162   2.9261   2.9297
  2.9440   2.9540   2.9631   2.9660   2.9756   2.9789   2.9939   3.0017
  3.0111   3.0149   3.0230   3.0279   3.0358   3.0388   3.0445   3.0456
  3.0512   3.0567   3.0697   3.0825   3.0886   3.0911   3.0980   3.1011
  3.1052   3.1119   3.1143   3.1196   3.1290   3.1373   3.1423   3.1505
  3.1522   3.1568   3.1646   3.1676   3.1694   3.1765   3.1791   3.1864
  3.1922   3.1964   3.2021   3.2053   3.2114   3.2198   3.2224   3.2294
  3.2384   3.2420   3.2469   3.2536   3.2560   3.2604   3.2656   3.2707
  3.2762   3.2793   3.2798   3.2865   3.2885   3.2896   3.2980   3.3023
  3.3097   3.3126   3.3219   3.3267   3.3333   3.3379   3.3418   3.3439
  3.3493   3.3543   3.3576   3.3594   3.3610   3.3680   3.3709   3.3752
  3.3784   3.3875   3.3902   3.3935   3.3971   3.4023   3.4079   3.4143
  3.4226   3.4247   3.4350   3.4385   3.4432   3.4453   3.4506   3.4539
  3.4575   3.4605   3.4699   3.4757   3.4780   3.4802   3.4848   3.5031
  3.5107   3.5121   3.5148   3.5218   3.5262   3.5295   3.5334   3.5388
  3.5455   3.5508   3.5589   3.5660   3.5725   3.5741   3.5773   3.5817
  3.5890   3.5895   3.5959   3.6015   3.6058   3.6090   3.6154   3.6222
  3.6299   3.6335   3.6350   3.6420   3.6496   3.6530   3.6568   3.6596
  3.6639   3.6677   3.6750   3.6799   3.6825   3.6891   3.6917   3.6978
  3.7030   3.7071   3.7108   3.7183   3.7245   3.7260   3.7308   3.7336
  3.7404   3.7471   3.7524   3.7589   3.7632   3.7674   3.7762   3.7810
  3.7915   3.7922   3.7999   3.8101   3.8193   3.8215   3.8258   3.8262
  3.8373   3.8424   3.8491   3.8580   3.8642   3.8651   3.8700   3.8735
  3.8773   3.8800   3.8902   3.9025   3.9098   3.9164   3.9194   3.9278
  3.9335   3.9493   3.9505   3.9548   3.9622   3.9747   3.9801   3.9846
  3.9851   3.9988   4.0085   4.0118   4.0149   4.0343   4.0368   4.0416
  4.0510   4.0565   4.0620   4.0664   4.0699   4.0820   4.0889   4.0946
  4.0993   4.1008   4.1058   4.1296   4.1336   4.1412   4.1473   4.1540
  4.1598   4.1681   4.1724   4.1787   4.1885   4.1893   4.1939   4.2007
  4.2050   4.2158   4.2368   4.2376   4.2445   4.2607   4.2760   4.2788
  4.2880   4.2979   4.3129   4.3225   4.3309   4.3397   4.3433   4.3482
  4.3553   4.3650   4.3738   4.3743   4.3775   4.3930   4.3988   4.4038
  4.4094   4.4104   4.4155   4.4246   4.4312   4.4336   4.4430   4.4525
  4.4605   4.4716   4.4807   4.4857   4.4957   4.4967   4.5055   4.5163
  4.5277   4.5335   4.5418   4.5552   4.5571   4.5665   4.5827   4.5990
  4.6029   4.6186   4.6224   4.6297   4.6372   4.6395   4.6514   4.6544
  4.6590   4.6680   4.6771   4.6812   4.6902   4.6999   4.7154   4.7263
  4.7393   4.7444   4.7528   4.7548   4.7811   4.7948   4.8003   4.8090
  4.8205   4.8302   4.8355   4.8540   4.8560   4.8899   4.9116   4.9172
  4.9427   4.9489   4.9544   4.9641   4.9666   4.9857   4.9957   5.0040
  5.0082   5.0113   5.0207   5.0406   5.0464   5.0644   5.0732   5.0767
  5.0865   5.1142   5.1332   5.1564   5.1730   5.1763   5.1926   5.1982
  5.2100   5.2183   5.2308   5.2476   5.2543   5.2594   5.2813   5.2980
  5.3094   5.3154   5.3202   5.3310   5.3454   5.3554   5.3593   5.3618
  5.3783   5.3946   5.3976   5.4028   5.4263   5.4394   5.4630   5.4723
  5.4733   5.4762   5.5021   5.5066   5.5141   5.5222   5.5523   5.5677
  5.5775   5.5868   5.5896   5.6057   5.6183   5.6346   5.6423   5.7008
  5.7180   5.7404   5.7697   5.8012   5.8147   5.8325   5.8543   5.8592
  5.8723   5.8830   5.9630   5.9692   5.9703   5.9814   6.0069   6.0560
  6.0658   6.1133   6.1339   6.1357   6.1702   6.1714   6.1858   6.1873
  6.2410   6.2531   6.2727   6.2793   6.3089   6.3107   6.3169   6.3977
  6.4426   6.4557   6.5002   6.5425   6.5548   6.5568   6.5669   6.6532
  6.6773   6.6796   6.7171   6.7431   6.7456   6.8024   6.8490   6.8610
  6.8858   6.8921   6.9921   7.1188   7.1384   7.1788   7.2120   7.2151
  7.2337   7.3198   7.3272   7.3323   7.3730   7.3752   7.4307   7.4630
  7.4783   7.4854   7.4886   7.5214   7.5499   7.6143   7.7185   7.7687
  7.7962   7.8321   7.9064   7.9213   7.9476   8.0062   8.0909   8.1826
  8.6537   8.9349   9.0187   9.3655   9.5034   9.7002  10.1887  10.6990
 11.2569  11.3793  11.9348  11.9989  12.1307  12.2416  12.3905  12.5819
 12.6760  12.7744  12.9337  13.2212  13.2724  13.5643  13.8466  13.8923
 13.9078  14.0355  14.1654  14.7974  15.2055
 --------------------------------------------------------------
 
          Ground-State Mulliken Net Atomic Charges

     Atom                 Charge (a.u.)
  ----------------------------------------
      1 C                    -0.186304
      2 C                    -0.254856
      3 S                    -0.019932
      4 C                    -0.012256
      5 H                     0.196509
      6 C                    -0.028944
      7 C                     0.248507
      8 C                     0.239241
      9 C                    -0.041936
     10 C                    -0.033790
     11 O                    -0.333002
     12 O                    -0.338941
     13 C                    -0.085806
     14 H                     0.123999
     15 H                     0.090881
     16 H                     0.094418
     17 C                    -0.087763
     18 H                     0.125598
     19 H                     0.094825
     20 H                     0.089805
     21 C                    -0.208557
     22 S                    -0.024952
     23 C                    -0.029082
     24 H                     0.195514
     25 H                     0.206876
     26 C                    -0.012333
     27 S                     0.092321
     28 C                    -0.240792
     29 C                    -0.063003
     30 C                    -0.015859
     31 C                     0.383612
     32 C                    -0.143176
     33 S                     0.036377
     34 C                     0.460119
     35 O                    -0.452077
     36 O                    -0.298038
     37 F                    -0.213783
     38 C                    -0.055092
     39 H                     0.116584
     40 H                     0.084367
     41 H                     0.084393
     42 H                     0.216328
  ----------------------------------------
  Sum of atomic charges =     0.000000

 -----------------------------------------------------------------
                    Cartesian Multipole Moments
 -----------------------------------------------------------------
    Charge (ESU x 10^10)
                 0.0000
    Dipole Moment (Debye)
         X       0.5112      Y       1.1483      Z       3.1409
       Tot       3.3830
    Quadrupole Moments (Debye-Ang)
        XX    -199.6763     XY       0.4036     YY    -156.9583
        XZ       6.1267     YZ      -9.0942     ZZ    -183.5269
    Octopole Moments (Debye-Ang^2)
       XXX     -32.8231    XXY     383.7331    XYY      -3.1119
       YYY     873.4997    XXZ     194.4482    XYZ     -40.0821
       YYZ     127.7661    XZZ      -1.5908    YZZ     391.7142
       ZZZ     591.7165
    Hexadecapole Moments (Debye-Ang^3)
      XXXX    -776.7165   XXXY    -332.2689   XXYY   -3950.1411
      XYYY    -289.8978   YYYY  -18491.3561   XXXZ    -349.5426
      XXYZ     312.0442   XYYZ      58.2051   YYYZ     839.2535
      XXZZ   -1349.5014   XYZZ     -44.1812   YYZZ   -3997.8098
      XZZZ    -284.3859   YZZZ     298.4499   ZZZZ   -7206.0890
 -----------------------------------------------------------------
 Total job time:  309.96s(wall), 9317.51s(cpu) 
 Tue Sep 26 18:41:33 2023

        *************************************************************
        *                                                           *
        *  Thank you very much for using Q-Chem.  Have a nice day.  *
        *                                                           *
        *************************************************************


0 sent ACK to 0 
now end server 0 ... 
cleanup process ... done
remove work dirs ./qchem1195010.0 -- ./qchem1195010.0
rm -rf ./qchem1195010.0
rm -rf ./qchem1195010
