You are running Q-Chem version: 5.4.0

#
# job setting
#
local host:  exp-3-12
current dir: /expanse/lustre/projects/csd626/rramji/aromodel/PTB7_fin/Rotation_Test
input file:  fin_bdt_Phi_20_Theta_90_fin_ftt.qcin
output file: 
nprocs     : 1
nthreads   : 64
#
# qchem installation setting
#
QC:          /cm/shared/apps/spack/cpu/opt/spack/linux-centos8-zen2/gcc-10.2.0/qchem-5.4-akfmr7b3t57bfs6qan3padb2wnb2i7cl
QCAUX:       /cm/shared/apps/spack/cpu/opt/spack/linux-centos8-zen2/gcc-10.2.0/qchem-5.4-akfmr7b3t57bfs6qan3padb2wnb2i7cl/qcaux
QCPROG:      /cm/shared/apps/spack/cpu/opt/spack/linux-centos8-zen2/gcc-10.2.0/qchem-5.4-akfmr7b3t57bfs6qan3padb2wnb2i7cl/exe/qcprog.exe
QCPROG_S:    /cm/shared/apps/spack/cpu/opt/spack/linux-centos8-zen2/gcc-10.2.0/qchem-5.4-akfmr7b3t57bfs6qan3padb2wnb2i7cl/exe/qcprog.exe_s
PARALLEL:    -DPARALLEL
QCMPI:       mpich
#
# qchem directory setting
#
qcrun:       qchem3969216
QCSCRATCH:   .
QCLOCALSCR:  
QCTMPDIR:    .
QCFILEPREF:  ./qchem3969216
QCSAVEDIR:   
workdirs:    ./qchem3969216
workdir0:    ./qchem3969216
partmpdirs =  
#
# parallel setting
#
QCRSH:           ssh
QCMPI:           mpich
QCMPIRUN:        /cm/shared/apps/spack/cpu/opt/spack/linux-centos8-zen2/gcc-10.2.0/qchem-5.4-akfmr7b3t57bfs6qan3padb2wnb2i7cl/bin/mpi/mpirun_qchem
QCMACHINEFILE:   ./qchem3969216/hostfile
exp-3-12

#
# env setting
#
exported envs:   QC QCAUX QCSCRATCH QCRUNNAME QCFILEPREF QCPROG QCPROG_S GUIFILE

Running Job 1 of 1 fin_bdt_Phi_20_Theta_90_fin_ftt.qcin
qchem fin_bdt_Phi_20_Theta_90_fin_ftt.qcin_3969216.0 ./qchem3969216/ 1
/cm/shared/apps/spack/cpu/opt/spack/linux-centos8-zen2/gcc-10.2.0/qchem-5.4-akfmr7b3t57bfs6qan3padb2wnb2i7cl/bin/mpi/mpirun_qchem -machinefile ./qchem3969216/hostfile -np 1 /cm/shared/apps/spack/cpu/opt/spack/linux-centos8-zen2/gcc-10.2.0/qchem-5.4-akfmr7b3t57bfs6qan3padb2wnb2i7cl/exe/qcprog.exe fin_bdt_Phi_20_Theta_90_fin_ftt.qcin_3969216.0 ./qchem3969216/

Process 0 of 1 is on exp-3-12 - thread support 0
initial socket setup ...start
initial socket setup ...done 
now start server 0 ... 
                  Welcome to Q-Chem
     A Quantum Leap Into The Future Of Chemistry


 Q-Chem 5.4, Q-Chem, Inc., Pleasanton, CA (2021)

 License issued to: University of California, San Diego (site)

 E. Epifanovsky,  A. T. B. Gilbert,  Xintian Feng,  Joonho Lee,  Yuezhi Mao,  
 N. Mardirossian,  P. Pokhilko,  A. White,  M. Wormit,  M. P. Coons,  
 A. L. Dempwolff,  Zhengting Gan,  D. Hait,  P. R. Horn,  L. D. Jacobson,  
 I. Kaliman,  J. Kussmann,  A. W. Lange,  Ka Un Lao,  D. S. Levine,  Jie Liu,  
 S. C. McKenzie,  A. F. Morrison,  K. Nanda,  F. Plasser,  D. R. Rehn,  
 M. L. Vidal,  Zhi-Qiang You,  Ying Zhu,  B. Alam,  B. Albrecht,  
 A. Aldossary,  E. Alguire,  J. H. Andersen,  D. Barton,  K. Begam,  A. Behn,  
 Y. A. Bernard,  E. J. Berquist,  H. Burton,  A. Carreras,  K. Carter-Fenk,  
 R. Chakraborty,  A. D. Chien,  K. D. Closser,  V. Cofer-Shabica,  
 S. Dasgupta,  Jia Deng,  M. de Wergifosse,  M. Diedenhofen,  Hainam Do,  
 S. Ehlert,  Po-Tung Fang,  S. Fatehi,  Qingguo Feng,  J. Gayvert,  
 Qinghui Ge,  G. Gidofalvi,  M. Goldey,  J. Gomes,  C. Gonzalez-Espinoza,  
 S. Gulania,  A. Gunina,  M. W. D. Hanson-Heine,  P. H. P. Harbach,  
 A. W. Hauser,  M. F. Herbst,  M. Hernandez Vera,  M. Hodecker,  
 Z. C. Holden,  S. Houck,  Xunkun Huang,  Kerwin Hui,  B. C. Huynh,  
 M. Ivanov,  Hyunjun Ji,  Hanjie Jiang,  B. Kaduk,  S. Kaehler,  
 K. Khistyaev,  Jaehoon Kim,  P. Klunzinger,  Z. Koczor-Benda,  
 Joong Hoon Koh,  D. Kosenkov,  L. Koulias,  T. Kowalczyk,  C. M. Krauter,  
 K. Kue,  A. Kunitsa,  T. Kus,  A. Landau,  K. V. Lawler,  D. Lefrancois,  
 S. Lehtola,  Rain Li,  Yi-Pei Li,  Jiashu Liang,  M. Liebenthal,  
 Hung-Hsuan Lin,  You-Sheng Lin,  Fenglai Liu,  Kuan-Yu Liu,  
 M. Loipersberger,  A. Luenser,  A. Manjanath,  P. Manohar,  E. Mansoor,  
 S. F. Manzer,  Shan-Ping Mao,  A. V. Marenich,  T. Markovich,  S. Mason,  
 S. A. Maurer,  P. F. McLaughlin,  M. F. S. J. Menger,  J.-M. Mewes,  
 S. A. Mewes,  P. Morgante,  J. W. Mullinax,  T. S. Nguyen-Beck,  
 K. J. Oosterbaan,  G. Paran,  Alexander C. Paul,  Suranjan K. Paul,  
 F. Pavosevic,  Zheng Pei,  S. Prager,  E. I. Proynov,  E. Ramos,  B. Rana,  
 A. E. Rask,  A. Rettig,  R. M. Richard,  F. Rob,  E. Rossomme,  T. Scheele,  
 M. Scheurer,  M. Schneider,  N. Sergueev,  S. M. Sharada,  W. Skomorowski,  
 D. W. Small,  C. J. Stein,  Yu-Chuan Su,  E. J. Sundstrom,  Zhen Tao,  
 J. Thirman,  T. Tsuchimochi,  N. M. Tubman,  S. P. Veccham,  O. Vydrov,  
 J. Wenzel,  J. Witte,  A. Yamada,  Kun Yao,  S. Yeganeh,  S. R. Yost,  
 A. Zech,  Igor Ying Zhang,  Xing Zhang,  Yu Zhang,  D. Zuev,  
 A. Aspuru-Guzik,  A. T. Bell,  N. A. Besley,  K. B. Bravaya,  B. R. Brooks,  
 D. Casanova,  Jeng-Da Chai,  S. Coriani,  C. J. Cramer,  
 A. E. DePrince, III,  R. A. DiStasio Jr.,  A. Dreuw,  B. D. Dunietz,  
 T. R. Furlani,  W. A. Goddard III,  S. Grimme,  S. Hammes-Schiffer,  
 T. Head-Gordon,  W. J. Hehre,  Chao-Ping Hsu,  T.-C. Jagau,  Yousung Jung,  
 A. Klamt,  Jing Kong,  D. S. Lambrecht,  WanZhen Liang,  N. J. Mayhall,  
 C. W. McCurdy,  J. B. Neaton,  C. Ochsenfeld,  J. A. Parkhill,  R. Peverati,  
 V. A. Rassolov,  Yihan Shao,  L. V. Slipchenko,  T. Stauch,  R. P. Steele,  
 J. E. Subotnik,  A. J. W. Thom,  A. Tkatchenko,  D. G. Truhlar,  
 T. Van Voorhis,  T. A. Wesolowski,  K. B. Whaley,  H. L. Woodcock III,  
 P. M. Zimmerman,  S. Faraji,  P. M. W. Gill,  M. Head-Gordon,  
 J. M. Herbert,  A. I. Krylov

 Contributors to earlier versions of Q-Chem not listed above: 
 R. D. Adamson,  B. Austin,  R. Baer,  J. Baker,  G. J. O. Beran,  
 K. Brandhorst,  S. T. Brown,  E. F. C. Byrd,  A. K. Chakraborty,  
 G. K. L. Chan,  Chun-Min Chang,  Yunqing Chen,  C.-L. Cheng,  
 Siu Hung Chien,  D. M. Chipman,  D. L. Crittenden,  H. Dachsel,  
 R. J. Doerksen,  A. D. Dutoi,  R. G. Edgar,  J. Fosso-Tande,  
 L. Fusti-Molnar,  D. Ghosh,  A. Ghysels,  A. Golubeva-Zadorozhnaya,  
 J. Gonthier,  M. S. Gordon,  S. R. Gwaltney,  G. Hawkins,  J. E. Herr,  
 A. Heyden,  S. Hirata,  E. G. Hohenstein,  G. Kedziora,  F. J. Keil,  
 C. Kelley,  Jihan Kim,  R. A. King,  R. Z. Khaliullin,  P. P. Korambath,  
 W. Kurlancheek,  A. Laurent,  A. M. Lee,  M. S. Lee,  S. V. Levchenko,  
 Ching Yeh Lin,  D. Liotard,  E. Livshits,  R. C. Lochan,  I. Lotan,  
 L. A. Martinez-Martinez,  P. E. Maslen,  N. Nair,  D. P. O'Neill,  
 D. Neuhauser,  E. Neuscamman,  C. M. Oana,  R. Olivares-Amaya,  R. Olson,  
 T. M. Perrine,  B. Peters,  P. A. Pieniazek,  A. Prociuk,  Y. M. Rhee,  
 J. Ritchie,  M. A. Rohrdanz,  E. Rosta,  N. J. Russ,  H. F. Schaefer III,  
 M. W. Schmidt,  N. E. Schultz,  S. Sharma,  N. Shenvi,  C. D. Sherrill,  
 A. C. Simmonett,  A. Sodt,  T. Stein,  D. Stuck,  K. S. Thanthiriwatte,  
 V. Vanovschi,  L. Vogt,  Tao Wang,  A. Warshel,  M. A. Watson,  
 C. F. Williams,  Q. Wu,  X. Xu,  Jun Yang,  W. Zhang,  Yan Zhao

 Please cite Q-Chem as follows:
 Y. Shao et al., Mol. Phys. 113, 184-215 (2015)
 DOI: 10.1080/00268976.2014.952696

 Q-Chem 5.4.0 for Intel X86 EM64T Linux

 Parts of Q-Chem use Armadillo 9.800.1 (Horizon Scraper).
 http://arma.sourceforge.net/

 Q-Chem begins on Sun Sep 24 17:03:58 2023  

 Host: 
0

     Scratch files written to ./qchem3969216//
 May1621 |scratch|qcdevops|jenkins|workspace|build_RNUM    
 Parallel job on  1  processors
 Processing $rem in /cm/shared/apps/spack/cpu/opt/spack/linux-centos8-zen2/gcc-10.2.0/qchem-5.4-akfmr7b3t57bfs6qan3padb2wnb2i7cl/config/preferences:
 Processing $rem in /home/rramji/.qchemrc:
 Symmetry turned off for PCM/SM12/SMD calculation
 Core orbitals will be frozen

 Checking the input file for inconsistencies... 	...done.

 Q-Chem warning in module forms1/BasisType.C, line 2236:

 You are not using the predefined 5D/6D in this basis set.


--------------------------------------------------------------
User input:
--------------------------------------------------------------
$molecule
0 1
C	-0.267851	-8.519741	-0.047927
C	0.801461	-7.635967	-0.056157
S	-1.822194	-7.651740	-0.029285
C	0.415201	-6.261894	-0.054516
H	1.851431	-7.954738	-0.063290
C	-1.012650	-6.079985	-0.054687
C	-1.584194	-4.798382	-0.028030
C	1.309433	-5.153542	-0.031399
C	0.737539	-3.869626	-0.000427
C	-0.691828	-3.688927	-0.003462
O	2.631211	-5.481075	-0.061128
O	-2.911907	-4.479871	0.003021
C	-3.854716	-5.356026	-0.602710
H	-4.803517	-4.790496	-0.670671
H	-4.034285	-6.268513	0.006913
H	-3.535185	-5.658187	-1.623507
C	3.610841	-4.546999	0.375708
H	4.562544	-5.107564	0.441115
H	3.364029	-4.131473	1.376277
H	3.743566	-3.712085	-0.346107
C	-1.074491	-2.314326	0.000458
S	1.548848	-2.295487	-0.013144
C	0.000000	-1.435180	0.000000
H	-2.123688	-1.993211	0.004953
H	-0.262315	-9.615985	-0.045468
C	0.000000	0.000000	0.000000
S	0.309721	0.844422	1.510732
C	0.847502	2.325108	0.727629
C	0.310602	0.853460	-1.064665
C	0.784173	2.159014	-0.678287
C	0.289451	0.790512	-2.486150
C	0.721927	1.979112	-3.106916
S	1.145464	3.152519	-1.965735
C	0.813355	2.216642	-4.559972
O	0.496884	1.338418	-5.350277
O	1.255274	3.421340	-5.004375
F	-0.087923	-0.257761	-3.246290
C	1.387494	3.754937	-6.334976
H	1.765978	4.793056	-6.370268
H	0.417095	3.693789	-6.875609
H	2.098820	3.081033	-6.861878
H	1.162229	3.189623	1.321510
$end

$rem
JOBTYPE		SP
EXCHANGE	HF
CORRELATION	pRIMP2
BASIS		cc-pvtz
METHOD		rimp2
AUX_BASIS	rimp2-cc-pvtz
SOLVENT_METHOD	PCM
PURECART	11111
SYMMETRY	false
MEM_TOTAL	110000
SCF_CONVERGENCE = 6
THRESH=10
GUI = 2
$end



$solvent
dielectric 4.90
$end
--------------------------------------------------------------
 ----------------------------------------------------------------
             Standard Nuclear Orientation (Angstroms)
    I     Atom           X                Y                Z
 ----------------------------------------------------------------
    1      C      -0.2678510000    -8.5197410000    -0.0479270000
    2      C       0.8014610000    -7.6359670000    -0.0561570000
    3      S      -1.8221940000    -7.6517400000    -0.0292850000
    4      C       0.4152010000    -6.2618940000    -0.0545160000
    5      H       1.8514310000    -7.9547380000    -0.0632900000
    6      C      -1.0126500000    -6.0799850000    -0.0546870000
    7      C      -1.5841940000    -4.7983820000    -0.0280300000
    8      C       1.3094330000    -5.1535420000    -0.0313990000
    9      C       0.7375390000    -3.8696260000    -0.0004270000
   10      C      -0.6918280000    -3.6889270000    -0.0034620000
   11      O       2.6312110000    -5.4810750000    -0.0611280000
   12      O      -2.9119070000    -4.4798710000     0.0030210000
   13      C      -3.8547160000    -5.3560260000    -0.6027100000
   14      H      -4.8035170000    -4.7904960000    -0.6706710000
   15      H      -4.0342850000    -6.2685130000     0.0069130000
   16      H      -3.5351850000    -5.6581870000    -1.6235070000
   17      C       3.6108410000    -4.5469990000     0.3757080000
   18      H       4.5625440000    -5.1075640000     0.4411150000
   19      H       3.3640290000    -4.1314730000     1.3762770000
   20      H       3.7435660000    -3.7120850000    -0.3461070000
   21      C      -1.0744910000    -2.3143260000     0.0004580000
   22      S       1.5488480000    -2.2954870000    -0.0131440000
   23      C       0.0000000000    -1.4351800000     0.0000000000
   24      H      -2.1236880000    -1.9932110000     0.0049530000
   25      H      -0.2623150000    -9.6159850000    -0.0454680000
   26      C       0.0000000000     0.0000000000     0.0000000000
   27      S       0.3097210000     0.8444220000     1.5107320000
   28      C       0.8475020000     2.3251080000     0.7276290000
   29      C       0.3106020000     0.8534600000    -1.0646650000
   30      C       0.7841730000     2.1590140000    -0.6782870000
   31      C       0.2894510000     0.7905120000    -2.4861500000
   32      C       0.7219270000     1.9791120000    -3.1069160000
   33      S       1.1454640000     3.1525190000    -1.9657350000
   34      C       0.8133550000     2.2166420000    -4.5599720000
   35      O       0.4968840000     1.3384180000    -5.3502770000
   36      O       1.2552740000     3.4213400000    -5.0043750000
   37      F      -0.0879230000    -0.2577610000    -3.2462900000
   38      C       1.3874940000     3.7549370000    -6.3349760000
   39      H       1.7659780000     4.7930560000    -6.3702680000
   40      H       0.4170950000     3.6937890000    -6.8756090000
   41      H       2.0988200000     3.0810330000    -6.8618780000
   42      H       1.1622290000     3.1896230000     1.3215100000
 ----------------------------------------------------------------
 Nuclear Repulsion Energy =        3306.39925299 hartrees
 There are      119 alpha and      119 beta electrons
 Requested basis set is cc-pVTZ
 There are 376 shells and 1068 basis functions

 Total QAlloc Memory Limit 110000 MB
 Mega-Array Size       188 MB
 MEM_STATIC part       192 MB
 Discretize the solute cavity surface with Lebedev spheres
	Using 110 Lebedev grid points for each H atom
	Using 194 Lebedev grid points for other atoms
	Atomic van der Waals radii will be scaled by 1.20
 Remove points where switching function is < 1.0e-08
 Keep 2928 surface tesserae and discard 4128 interior tesserae
 Molecular Surface Area = 443.839 Angst**2
 Requested basis set is rimp2-cc-pVTZ
 There are 833 shells and 2903 basis functions
 A cutoff of  1.0D-10 yielded  31162 shell pairs
 There are    238994 function pairs (    310280 Cartesian)
 Smallest overlap matrix eigenvalue = 2.21E-05

 Scale SEOQF with 1.000000e-01/1.000000e-02/1.000000e-02

 Standard Electronic Orientation quadrupole field applied
 Nucleus-field energy     =     0.0000000395 hartrees
 Guess from superposition of atomic densities
 Warning:  Energy on first SCF cycle will be non-variational
 SAD guess density has 238.000000 electrons

 -----------------------------------------------------------------------
  General SCF calculation program by
  Eric Jon Sundstrom, Paul Horn, Yuezhi Mao, Dmitri Zuev, Alec White,
  David Stuck, Shaama M.S., Shane Yost, Joonho Lee, David Small,
  Daniel Levine, Susi Lehtola, Hugh Burton, Evgeny Epifanovsky,
  Bang C. Huynh
 -----------------------------------------------------------------------
 Hartree-Fock
 using 64 threads for integral computing
 -------------------------------------------------------
 OpenMP Integral computing Module                
 Release: version 1.0, May 2013, Q-Chem Inc. Pittsburgh 
 -------------------------------------------------------
 A restricted SCF calculation will be
 performed using DIIS
 SCF converges when DIIS error is below 1.0e-06
 ---------------------------------------
  Cycle       Energy         DIIS error
 ---------------------------------------
    1   -2765.5289320621      1.77e-02  
    2   -2753.8524476370      1.57e-03  
    3   -2754.1913414859      8.83e-04  
    4   -2754.2755245460      2.54e-04  
    5   -2754.2871311237      6.82e-05  
    6   -2754.2881991072      2.37e-05  
    7   -2754.2884352019      1.16e-05  
    8   -2754.2885136838      4.52e-06  
    9   -2754.2885303449      2.07e-06  
   10   -2754.2885328798      8.66e-07  Convergence criterion met
 ---------------------------------------
 SCF time:   CPU 6642.92s  wall 263.00s 

************** Final PCM Free Energy Summary **************
 G_electrostatic  =      -0.02006828 hartree =     -12.59303859 kcal/mol
 G_cavitation     =       0.00000000 hartree =       0.00000000 kcal/mol
 G_dispersion     =       0.00000000 hartree =       0.00000000 kcal/mol
 G_repulsion      =       0.00000000 hartree =       0.00000000 kcal/mol
 --------------------------------------------------
 Non-electrostatic Free Energy =       0.00000000 hartree =       0.00000000 kcal/mol
 Total                         =      -0.02006828 hartree =     -12.59303859 kcal/mol
 --------------------------------------------------
 SCF Energy (H0 + V/2)                       =   -2754.28853288 
 Solute Internal Energy (H0)                 =   -2754.26846460 
 Total Free Energy (H0 + V/2 + non-elec)     =   -2754.28853288 hartree
                                             = -1728342.14024877 kcal/mol
***********************************************************

 SCF   energy in the final basis set =    -2754.2885328798
 Total energy in the final basis set =    -2754.2885328798


 --------------------------------------------------------------
  Generalized many-body perturbation theory program
  by Joonho Lee, Fazle Rob, Xintian Feng, Evgeny Epifanovsky

 No regularization used 
 (reg. param. = 0.0000e+00)
  (P|Q)^-1/2 Time:  CPU 224.09 s  wall 4.03 s

 In RI-MP2 calculation: 
 # of frozen core orbitals: 45

 Components of the RIMP2 correlation energy:
        aaaa    correlation energy =        -0.6707254523 a.u.
        abab    correlation energy =        -3.7129724826 a.u.
        bbbb    correlation energy =        -0.6707254523 a.u.
        non-Brillouin singles      =        -0.0000000000 a.u.
        total same-spin energy     =        -1.3414509046 a.u.
        total opposite-spin energy =        -3.7129724826 a.u.

 Total  RIMP2   correlation energy =        -5.0544233872 a.u.
        RIMP2         total energy =     -2759.3429562670 a.u.

 RI-MP2 Energy Time:  CPU 3976.85 s  wall 66.84 s
 
 --------------------------------------------------------------
 
                    Orbital Energies (a.u.)
 --------------------------------------------------------------
 
 Alpha MOs
 -- Occupied --
-92.0158 -91.9953 -91.9893 -91.9864 -26.3337 -20.6123 -20.5923 -20.5915
-20.5506 -11.4108 -11.3768 -11.3190 -11.3184 -11.3052 -11.2986 -11.2969
-11.2957 -11.2918 -11.2885 -11.2871 -11.2862 -11.2859 -11.2838 -11.2836
-11.2801 -11.2600 -11.2594 -11.2577 -11.2499  -9.0140  -8.9993  -8.9896
 -8.9863  -6.6947  -6.6941  -6.6936  -6.6805  -6.6799  -6.6785  -6.6706
 -6.6699  -6.6689  -6.6673  -6.6667  -6.6658  -1.6465  -1.4721  -1.4164
 -1.4143  -1.3675  -1.2337  -1.1956  -1.1681  -1.1419  -1.0836  -1.0519
 -1.0475  -1.0278  -1.0021  -0.9928  -0.9714  -0.9612  -0.9504  -0.9381
 -0.8957  -0.8695  -0.8499  -0.8046  -0.7906  -0.7880  -0.7735  -0.7685
 -0.7579  -0.7325  -0.7178  -0.7149  -0.7011  -0.6889  -0.6828  -0.6786
 -0.6713  -0.6603  -0.6591  -0.6526  -0.6306  -0.6200  -0.6171  -0.6067
 -0.6024  -0.5952  -0.5826  -0.5791  -0.5668  -0.5645  -0.5560  -0.5493
 -0.5360  -0.5263  -0.5239  -0.5159  -0.5140  -0.5080  -0.5013  -0.4937
 -0.4909  -0.4843  -0.4742  -0.4688  -0.4619  -0.4614  -0.4609  -0.4054
 -0.4003  -0.3871  -0.3568  -0.3493  -0.3131  -0.2904  -0.2596
 -- Virtual --
  0.0259   0.0613   0.1135   0.1264   0.1358   0.1419   0.1502   0.1556
  0.1558   0.1602   0.1653   0.1702   0.1811   0.1818   0.1872   0.1933
  0.1954   0.2042   0.2104   0.2197   0.2202   0.2210   0.2242   0.2265
  0.2333   0.2353   0.2409   0.2525   0.2598   0.2668   0.2715   0.2798
  0.2820   0.3077   0.3184   0.3283   0.3316   0.3364   0.3400   0.3465
  0.3525   0.3562   0.3664   0.3707   0.3742   0.3793   0.3836   0.3849
  0.3889   0.3915   0.3973   0.4018   0.4080   0.4087   0.4162   0.4216
  0.4231   0.4296   0.4336   0.4376   0.4447   0.4467   0.4510   0.4545
  0.4589   0.4622   0.4670   0.4713   0.4729   0.4788   0.4820   0.4904
  0.4949   0.4957   0.5022   0.5114   0.5121   0.5154   0.5192   0.5237
  0.5283   0.5344   0.5376   0.5421   0.5471   0.5488   0.5502   0.5541
  0.5566   0.5600   0.5663   0.5688   0.5712   0.5772   0.5786   0.5804
  0.5856   0.5893   0.5937   0.5970   0.5997   0.6007   0.6043   0.6095
  0.6158   0.6184   0.6192   0.6215   0.6240   0.6280   0.6308   0.6350
  0.6388   0.6440   0.6471   0.6491   0.6520   0.6564   0.6600   0.6645
  0.6756   0.6800   0.6820   0.6863   0.6890   0.6907   0.6959   0.6989
  0.7063   0.7112   0.7143   0.7188   0.7276   0.7444   0.7483   0.7506
  0.7568   0.7639   0.7684   0.7716   0.7752   0.7913   0.7975   0.8012
  0.8034   0.8083   0.8131   0.8179   0.8210   0.8231   0.8257   0.8404
  0.8450   0.8527   0.8601   0.8634   0.8721   0.8823   0.8848   0.8913
  0.8946   0.9001   0.9075   0.9099   0.9162   0.9197   0.9229   0.9270
  0.9308   0.9351   0.9423   0.9458   0.9486   0.9524   0.9559   0.9705
  0.9742   0.9771   0.9820   0.9846   0.9923   0.9949   0.9977   1.0001
  1.0048   1.0109   1.0162   1.0187   1.0208   1.0265   1.0353   1.0381
  1.0445   1.0504   1.0540   1.0587   1.0653   1.0665   1.0729   1.0771
  1.0795   1.0821   1.0910   1.0936   1.1007   1.1017   1.1065   1.1162
  1.1190   1.1286   1.1338   1.1376   1.1440   1.1481   1.1574   1.1588
  1.1609   1.1700   1.1767   1.1777   1.1801   1.1823   1.1868   1.1916
  1.1988   1.2032   1.2107   1.2132   1.2168   1.2208   1.2211   1.2265
  1.2320   1.2425   1.2458   1.2498   1.2588   1.2644   1.2684   1.2723
  1.2751   1.2817   1.2883   1.2964   1.3049   1.3132   1.3162   1.3211
  1.3264   1.3333   1.3357   1.3439   1.3507   1.3543   1.3579   1.3708
  1.3724   1.3818   1.3881   1.3892   1.3974   1.4059   1.4188   1.4278
  1.4325   1.4347   1.4479   1.4582   1.4669   1.4754   1.4833   1.4898
  1.4938   1.4948   1.4983   1.5030   1.5078   1.5126   1.5250   1.5281
  1.5309   1.5362   1.5410   1.5472   1.5479   1.5563   1.5619   1.5666
  1.5750   1.5853   1.5866   1.5950   1.6036   1.6146   1.6208   1.6298
  1.6409   1.6489   1.6547   1.6570   1.6591   1.6624   1.6747   1.6770
  1.6850   1.6915   1.7021   1.7087   1.7221   1.7294   1.7334   1.7495
  1.7548   1.7644   1.7737   1.7796   1.7960   1.8053   1.8130   1.8210
  1.8253   1.8323   1.8392   1.8501   1.8517   1.8611   1.8681   1.8729
  1.8768   1.8828   1.8995   1.9069   1.9153   1.9227   1.9267   1.9355
  1.9414   1.9431   1.9503   1.9560   1.9650   1.9663   1.9776   1.9880
  1.9927   2.0125   2.0180   2.0229   2.0324   2.0408   2.0494   2.0587
  2.0734   2.0874   2.0947   2.0984   2.1076   2.1183   2.1364   2.1392
  2.1479   2.1572   2.1595   2.1669   2.1747   2.1778   2.1833   2.1930
  2.1952   2.2014   2.2119   2.2184   2.2225   2.2320   2.2377   2.2427
  2.2469   2.2543   2.2641   2.2704   2.2783   2.2805   2.2851   2.2956
  2.3069   2.3104   2.3188   2.3208   2.3288   2.3430   2.3524   2.3593
  2.3739   2.3828   2.3843   2.3991   2.4043   2.4170   2.4287   2.4299
  2.4368   2.4439   2.4556   2.4627   2.4704   2.4837   2.4910   2.4959
  2.5003   2.5130   2.5261   2.5291   2.5330   2.5493   2.5575   2.5632
  2.5751   2.5788   2.5867   2.5968   2.6027   2.6154   2.6180   2.6218
  2.6260   2.6347   2.6379   2.6465   2.6485   2.6534   2.6613   2.6708
  2.6783   2.6899   2.6943   2.6954   2.6983   2.7039   2.7077   2.7232
  2.7250   2.7352   2.7370   2.7417   2.7462   2.7472   2.7606   2.7681
  2.7749   2.7898   2.7949   2.7985   2.8022   2.8100   2.8168   2.8267
  2.8310   2.8385   2.8489   2.8500   2.8511   2.8631   2.8718   2.8738
  2.8754   2.8832   2.8884   2.8982   2.9081   2.9153   2.9280   2.9349
  2.9432   2.9507   2.9562   2.9703   2.9774   2.9832   2.9943   3.0020
  3.0142   3.0165   3.0218   3.0321   3.0326   3.0399   3.0425   3.0437
  3.0450   3.0550   3.0683   3.0761   3.0860   3.0910   3.0964   3.0990
  3.1076   3.1116   3.1151   3.1212   3.1272   3.1381   3.1486   3.1526
  3.1564   3.1582   3.1610   3.1680   3.1684   3.1763   3.1791   3.1883
  3.1909   3.1984   3.2021   3.2077   3.2136   3.2224   3.2240   3.2289
  3.2342   3.2420   3.2455   3.2484   3.2530   3.2598   3.2688   3.2726
  3.2751   3.2800   3.2841   3.2891   3.2920   3.2935   3.2984   3.3002
  3.3103   3.3156   3.3251   3.3293   3.3335   3.3403   3.3418   3.3463
  3.3488   3.3538   3.3589   3.3601   3.3634   3.3647   3.3684   3.3792
  3.3847   3.3885   3.3911   3.3999   3.4039   3.4050   3.4170   3.4199
  3.4227   3.4278   3.4352   3.4420   3.4444   3.4504   3.4513   3.4567
  3.4581   3.4684   3.4695   3.4722   3.4785   3.4808   3.4902   3.4969
  3.5043   3.5047   3.5161   3.5221   3.5269   3.5315   3.5326   3.5406
  3.5512   3.5574   3.5616   3.5677   3.5739   3.5755   3.5809   3.5864
  3.5896   3.5932   3.5936   3.6028   3.6078   3.6133   3.6159   3.6259
  3.6266   3.6348   3.6391   3.6490   3.6513   3.6533   3.6587   3.6622
  3.6690   3.6705   3.6749   3.6810   3.6896   3.6916   3.6969   3.7009
  3.7093   3.7117   3.7157   3.7213   3.7252   3.7307   3.7337   3.7370
  3.7400   3.7468   3.7521   3.7611   3.7655   3.7735   3.7769   3.7896
  3.7908   3.7946   3.8062   3.8135   3.8184   3.8199   3.8250   3.8331
  3.8372   3.8435   3.8459   3.8511   3.8518   3.8622   3.8654   3.8748
  3.8809   3.8911   3.8965   3.8977   3.9051   3.9121   3.9183   3.9222
  3.9247   3.9314   3.9441   3.9468   3.9633   3.9738   3.9802   3.9841
  3.9939   3.9996   4.0052   4.0103   4.0220   4.0282   4.0312   4.0378
  4.0458   4.0547   4.0609   4.0707   4.0793   4.0822   4.0860   4.0918
  4.0959   4.1046   4.1222   4.1296   4.1368   4.1451   4.1463   4.1572
  4.1650   4.1698   4.1757   4.1860   4.1883   4.1911   4.1955   4.2047
  4.2120   4.2156   4.2232   4.2373   4.2451   4.2569   4.2653   4.2730
  4.2814   4.2983   4.3087   4.3099   4.3149   4.3227   4.3303   4.3433
  4.3483   4.3570   4.3740   4.3763   4.3785   4.3908   4.3921   4.3963
  4.4076   4.4092   4.4106   4.4189   4.4249   4.4354   4.4369   4.4521
  4.4672   4.4691   4.4716   4.4942   4.4987   4.5012   4.5065   4.5116
  4.5283   4.5388   4.5456   4.5491   4.5592   4.5743   4.5845   4.5918
  4.5991   4.6048   4.6178   4.6332   4.6377   4.6414   4.6459   4.6542
  4.6615   4.6692   4.6723   4.6792   4.6861   4.7043   4.7134   4.7277
  4.7380   4.7382   4.7528   4.7701   4.7783   4.7831   4.8077   4.8135
  4.8198   4.8306   4.8433   4.8544   4.8712   4.8974   4.9093   4.9274
  4.9341   4.9480   4.9529   4.9616   4.9659   4.9814   4.9902   5.0037
  5.0074   5.0118   5.0190   5.0415   5.0444   5.0587   5.0639   5.0778
  5.0867   5.1174   5.1425   5.1610   5.1680   5.1787   5.1868   5.1990
  5.2037   5.2114   5.2143   5.2434   5.2552   5.2590   5.2688   5.2793
  5.2992   5.3106   5.3211   5.3325   5.3414   5.3500   5.3551   5.3577
  5.3682   5.3957   5.3966   5.3994   5.4243   5.4438   5.4602   5.4637
  5.4731   5.4837   5.4923   5.5067   5.5127   5.5179   5.5439   5.5634
  5.5745   5.5792   5.5900   5.6057   5.6173   5.6288   5.6379   5.6680
  5.7137   5.7327   5.7895   5.8007   5.8154   5.8356   5.8505   5.8543
  5.8721   5.8827   5.9032   5.9693   5.9709   5.9808   5.9988   6.0313
  6.0663   6.0883   6.1212   6.1336   6.1632   6.1723   6.1781   6.1855
  6.2305   6.2463   6.2677   6.2733   6.2920   6.3084   6.3197   6.3774
  6.4331   6.4446   6.4816   6.5116   6.5480   6.5556   6.5562   6.6515
  6.6695   6.6764   6.6990   6.7340   6.7414   6.7993   6.8388   6.8600
  6.8814   6.8920   6.9906   7.1192   7.1370   7.1782   7.2106   7.2157
  7.2332   7.3194   7.3261   7.3317   7.3738   7.3764   7.4271   7.4624
  7.4788   7.4871   7.4885   7.5199   7.5490   7.6052   7.7144   7.7710
  7.7966   7.8311   7.9025   7.9202   7.9472   8.0018   8.1022   8.1720
  8.5159   8.9286   9.0089   9.3635   9.5002   9.6904  10.2441  10.6899
 11.2356  11.4958  11.9289  11.9514  12.1271  12.1822  12.2889  12.5658
 12.6625  12.7281  12.9289  13.2158  13.2738  13.5626  13.8454  13.9005
 13.9123  14.0160  14.1735  14.4559  15.1914
 --------------------------------------------------------------
 
          Ground-State Mulliken Net Atomic Charges

     Atom                 Charge (a.u.)
  ----------------------------------------
      1 C                    -0.187131
      2 C                    -0.255024
      3 S                    -0.022047
      4 C                    -0.012268
      5 H                     0.196533
      6 C                    -0.028561
      7 C                     0.246245
      8 C                     0.239912
      9 C                    -0.041608
     10 C                    -0.027705
     11 O                    -0.333118
     12 O                    -0.339653
     13 C                    -0.085566
     14 H                     0.122677
     15 H                     0.090710
     16 H                     0.094649
     17 C                    -0.086550
     18 H                     0.124945
     19 H                     0.094163
     20 H                     0.090189
     21 C                    -0.212627
     22 S                     0.000790
     23 C                    -0.072755
     24 H                     0.196681
     25 H                     0.206579
     26 C                     0.005842
     27 S                     0.121737
     28 C                    -0.232468
     29 C                    -0.112729
     30 C                     0.002597
     31 C                     0.378661
     32 C                    -0.155083
     33 S                     0.042307
     34 C                     0.459625
     35 O                    -0.448554
     36 O                    -0.297739
     37 F                    -0.209796
     38 C                    -0.054854
     39 H                     0.116596
     40 H                     0.084709
     41 H                     0.084599
     42 H                     0.215090
  ----------------------------------------
  Sum of atomic charges =     0.000000

 -----------------------------------------------------------------
                    Cartesian Multipole Moments
 -----------------------------------------------------------------
    Charge (ESU x 10^10)
                 0.0000
    Dipole Moment (Debye)
         X       1.3587      Y       1.5754      Z       2.9532
       Tot       3.6124
    Quadrupole Moments (Debye-Ang)
        XX    -175.8783     XY       5.7207     YY    -160.2168
        XZ       1.8483     YZ      -8.6933     ZZ    -204.8484
    Octopole Moments (Debye-Ang^2)
       XXX    -136.6830    XXY     292.7869    XYY     -33.5240
       YYY     908.1429    XXZ     170.0563    XYZ     -45.1881
       YYZ     127.6707    XZZ      -5.0386    YZZ     508.2389
       ZZZ     564.0405
    Hexadecapole Moments (Debye-Ang^3)
      XXXX   -2641.0422   XXXY    -941.6370   XXYY   -3666.0940
      XYYY    -817.3632   YYYY  -18334.8053   XXXZ     486.3838
      XXYZ     427.4895   XYYZ     206.4876   YYYZ    1146.2551
      XXZZ   -1390.9963   XYZZ    -152.0415   YYZZ   -4262.1254
      XZZZ     168.4602   YZZZ     591.9631   ZZZZ   -5545.8675
 -----------------------------------------------------------------
 Total job time:  402.73s(wall), 10757.66s(cpu) 
 Sun Sep 24 17:10:41 2023

        *************************************************************
        *                                                           *
        *  Thank you very much for using Q-Chem.  Have a nice day.  *
        *                                                           *
        *************************************************************


0 sent ACK to 0 
now end server 0 ... 
cleanup process ... done
remove work dirs ./qchem3969216.0 -- ./qchem3969216.0
rm -rf ./qchem3969216.0
rm -rf ./qchem3969216
