You are running Q-Chem version: 5.4.0

#
# job setting
#
local host:  exp-2-38
current dir: /expanse/lustre/projects/csd626/rramji/aromodel/PTB7_fin/Rotation_Test
input file:  fin_bdt_Phi_10_Theta_220_fin_ftt.qcin
output file: 
nprocs     : 1
nthreads   : 64
#
# qchem installation setting
#
QC:          /cm/shared/apps/spack/cpu/opt/spack/linux-centos8-zen2/gcc-10.2.0/qchem-5.4-akfmr7b3t57bfs6qan3padb2wnb2i7cl
QCAUX:       /cm/shared/apps/spack/cpu/opt/spack/linux-centos8-zen2/gcc-10.2.0/qchem-5.4-akfmr7b3t57bfs6qan3padb2wnb2i7cl/qcaux
QCPROG:      /cm/shared/apps/spack/cpu/opt/spack/linux-centos8-zen2/gcc-10.2.0/qchem-5.4-akfmr7b3t57bfs6qan3padb2wnb2i7cl/exe/qcprog.exe
QCPROG_S:    /cm/shared/apps/spack/cpu/opt/spack/linux-centos8-zen2/gcc-10.2.0/qchem-5.4-akfmr7b3t57bfs6qan3padb2wnb2i7cl/exe/qcprog.exe_s
PARALLEL:    -DPARALLEL
QCMPI:       mpich
#
# qchem directory setting
#
qcrun:       qchem3766677
QCSCRATCH:   .
QCLOCALSCR:  
QCTMPDIR:    .
QCFILEPREF:  ./qchem3766677
QCSAVEDIR:   
workdirs:    ./qchem3766677
workdir0:    ./qchem3766677
partmpdirs =  
#
# parallel setting
#
QCRSH:           ssh
QCMPI:           mpich
QCMPIRUN:        /cm/shared/apps/spack/cpu/opt/spack/linux-centos8-zen2/gcc-10.2.0/qchem-5.4-akfmr7b3t57bfs6qan3padb2wnb2i7cl/bin/mpi/mpirun_qchem
QCMACHINEFILE:   ./qchem3766677/hostfile
exp-2-38

#
# env setting
#
exported envs:   QC QCAUX QCSCRATCH QCRUNNAME QCFILEPREF QCPROG QCPROG_S GUIFILE

Running Job 1 of 1 fin_bdt_Phi_10_Theta_220_fin_ftt.qcin
qchem fin_bdt_Phi_10_Theta_220_fin_ftt.qcin_3766677.0 ./qchem3766677/ 1
/cm/shared/apps/spack/cpu/opt/spack/linux-centos8-zen2/gcc-10.2.0/qchem-5.4-akfmr7b3t57bfs6qan3padb2wnb2i7cl/bin/mpi/mpirun_qchem -machinefile ./qchem3766677/hostfile -np 1 /cm/shared/apps/spack/cpu/opt/spack/linux-centos8-zen2/gcc-10.2.0/qchem-5.4-akfmr7b3t57bfs6qan3padb2wnb2i7cl/exe/qcprog.exe fin_bdt_Phi_10_Theta_220_fin_ftt.qcin_3766677.0 ./qchem3766677/

Process 0 of 1 is on exp-2-38 - thread support 0
initial socket setup ...start
initial socket setup ...done 
now start server 0 ... 
                  Welcome to Q-Chem
     A Quantum Leap Into The Future Of Chemistry


 Q-Chem 5.4, Q-Chem, Inc., Pleasanton, CA (2021)

 License issued to: University of California, San Diego (site)

 E. Epifanovsky,  A. T. B. Gilbert,  Xintian Feng,  Joonho Lee,  Yuezhi Mao,  
 N. Mardirossian,  P. Pokhilko,  A. White,  M. Wormit,  M. P. Coons,  
 A. L. Dempwolff,  Zhengting Gan,  D. Hait,  P. R. Horn,  L. D. Jacobson,  
 I. Kaliman,  J. Kussmann,  A. W. Lange,  Ka Un Lao,  D. S. Levine,  Jie Liu,  
 S. C. McKenzie,  A. F. Morrison,  K. Nanda,  F. Plasser,  D. R. Rehn,  
 M. L. Vidal,  Zhi-Qiang You,  Ying Zhu,  B. Alam,  B. Albrecht,  
 A. Aldossary,  E. Alguire,  J. H. Andersen,  D. Barton,  K. Begam,  A. Behn,  
 Y. A. Bernard,  E. J. Berquist,  H. Burton,  A. Carreras,  K. Carter-Fenk,  
 R. Chakraborty,  A. D. Chien,  K. D. Closser,  V. Cofer-Shabica,  
 S. Dasgupta,  Jia Deng,  M. de Wergifosse,  M. Diedenhofen,  Hainam Do,  
 S. Ehlert,  Po-Tung Fang,  S. Fatehi,  Qingguo Feng,  J. Gayvert,  
 Qinghui Ge,  G. Gidofalvi,  M. Goldey,  J. Gomes,  C. Gonzalez-Espinoza,  
 S. Gulania,  A. Gunina,  M. W. D. Hanson-Heine,  P. H. P. Harbach,  
 A. W. Hauser,  M. F. Herbst,  M. Hernandez Vera,  M. Hodecker,  
 Z. C. Holden,  S. Houck,  Xunkun Huang,  Kerwin Hui,  B. C. Huynh,  
 M. Ivanov,  Hyunjun Ji,  Hanjie Jiang,  B. Kaduk,  S. Kaehler,  
 K. Khistyaev,  Jaehoon Kim,  P. Klunzinger,  Z. Koczor-Benda,  
 Joong Hoon Koh,  D. Kosenkov,  L. Koulias,  T. Kowalczyk,  C. M. Krauter,  
 K. Kue,  A. Kunitsa,  T. Kus,  A. Landau,  K. V. Lawler,  D. Lefrancois,  
 S. Lehtola,  Rain Li,  Yi-Pei Li,  Jiashu Liang,  M. Liebenthal,  
 Hung-Hsuan Lin,  You-Sheng Lin,  Fenglai Liu,  Kuan-Yu Liu,  
 M. Loipersberger,  A. Luenser,  A. Manjanath,  P. Manohar,  E. Mansoor,  
 S. F. Manzer,  Shan-Ping Mao,  A. V. Marenich,  T. Markovich,  S. Mason,  
 S. A. Maurer,  P. F. McLaughlin,  M. F. S. J. Menger,  J.-M. Mewes,  
 S. A. Mewes,  P. Morgante,  J. W. Mullinax,  T. S. Nguyen-Beck,  
 K. J. Oosterbaan,  G. Paran,  Alexander C. Paul,  Suranjan K. Paul,  
 F. Pavosevic,  Zheng Pei,  S. Prager,  E. I. Proynov,  E. Ramos,  B. Rana,  
 A. E. Rask,  A. Rettig,  R. M. Richard,  F. Rob,  E. Rossomme,  T. Scheele,  
 M. Scheurer,  M. Schneider,  N. Sergueev,  S. M. Sharada,  W. Skomorowski,  
 D. W. Small,  C. J. Stein,  Yu-Chuan Su,  E. J. Sundstrom,  Zhen Tao,  
 J. Thirman,  T. Tsuchimochi,  N. M. Tubman,  S. P. Veccham,  O. Vydrov,  
 J. Wenzel,  J. Witte,  A. Yamada,  Kun Yao,  S. Yeganeh,  S. R. Yost,  
 A. Zech,  Igor Ying Zhang,  Xing Zhang,  Yu Zhang,  D. Zuev,  
 A. Aspuru-Guzik,  A. T. Bell,  N. A. Besley,  K. B. Bravaya,  B. R. Brooks,  
 D. Casanova,  Jeng-Da Chai,  S. Coriani,  C. J. Cramer,  
 A. E. DePrince, III,  R. A. DiStasio Jr.,  A. Dreuw,  B. D. Dunietz,  
 T. R. Furlani,  W. A. Goddard III,  S. Grimme,  S. Hammes-Schiffer,  
 T. Head-Gordon,  W. J. Hehre,  Chao-Ping Hsu,  T.-C. Jagau,  Yousung Jung,  
 A. Klamt,  Jing Kong,  D. S. Lambrecht,  WanZhen Liang,  N. J. Mayhall,  
 C. W. McCurdy,  J. B. Neaton,  C. Ochsenfeld,  J. A. Parkhill,  R. Peverati,  
 V. A. Rassolov,  Yihan Shao,  L. V. Slipchenko,  T. Stauch,  R. P. Steele,  
 J. E. Subotnik,  A. J. W. Thom,  A. Tkatchenko,  D. G. Truhlar,  
 T. Van Voorhis,  T. A. Wesolowski,  K. B. Whaley,  H. L. Woodcock III,  
 P. M. Zimmerman,  S. Faraji,  P. M. W. Gill,  M. Head-Gordon,  
 J. M. Herbert,  A. I. Krylov

 Contributors to earlier versions of Q-Chem not listed above: 
 R. D. Adamson,  B. Austin,  R. Baer,  J. Baker,  G. J. O. Beran,  
 K. Brandhorst,  S. T. Brown,  E. F. C. Byrd,  A. K. Chakraborty,  
 G. K. L. Chan,  Chun-Min Chang,  Yunqing Chen,  C.-L. Cheng,  
 Siu Hung Chien,  D. M. Chipman,  D. L. Crittenden,  H. Dachsel,  
 R. J. Doerksen,  A. D. Dutoi,  R. G. Edgar,  J. Fosso-Tande,  
 L. Fusti-Molnar,  D. Ghosh,  A. Ghysels,  A. Golubeva-Zadorozhnaya,  
 J. Gonthier,  M. S. Gordon,  S. R. Gwaltney,  G. Hawkins,  J. E. Herr,  
 A. Heyden,  S. Hirata,  E. G. Hohenstein,  G. Kedziora,  F. J. Keil,  
 C. Kelley,  Jihan Kim,  R. A. King,  R. Z. Khaliullin,  P. P. Korambath,  
 W. Kurlancheek,  A. Laurent,  A. M. Lee,  M. S. Lee,  S. V. Levchenko,  
 Ching Yeh Lin,  D. Liotard,  E. Livshits,  R. C. Lochan,  I. Lotan,  
 L. A. Martinez-Martinez,  P. E. Maslen,  N. Nair,  D. P. O'Neill,  
 D. Neuhauser,  E. Neuscamman,  C. M. Oana,  R. Olivares-Amaya,  R. Olson,  
 T. M. Perrine,  B. Peters,  P. A. Pieniazek,  A. Prociuk,  Y. M. Rhee,  
 J. Ritchie,  M. A. Rohrdanz,  E. Rosta,  N. J. Russ,  H. F. Schaefer III,  
 M. W. Schmidt,  N. E. Schultz,  S. Sharma,  N. Shenvi,  C. D. Sherrill,  
 A. C. Simmonett,  A. Sodt,  T. Stein,  D. Stuck,  K. S. Thanthiriwatte,  
 V. Vanovschi,  L. Vogt,  Tao Wang,  A. Warshel,  M. A. Watson,  
 C. F. Williams,  Q. Wu,  X. Xu,  Jun Yang,  W. Zhang,  Yan Zhao

 Please cite Q-Chem as follows:
 Y. Shao et al., Mol. Phys. 113, 184-215 (2015)
 DOI: 10.1080/00268976.2014.952696

 Q-Chem 5.4.0 for Intel X86 EM64T Linux

 Parts of Q-Chem use Armadillo 9.800.1 (Horizon Scraper).
 http://arma.sourceforge.net/

 Q-Chem begins on Sun Sep 24 18:01:24 2023  

 Host: 
0

     Scratch files written to ./qchem3766677//
 May1621 |scratch|qcdevops|jenkins|workspace|build_RNUM    
 Parallel job on  1  processors
 Processing $rem in /cm/shared/apps/spack/cpu/opt/spack/linux-centos8-zen2/gcc-10.2.0/qchem-5.4-akfmr7b3t57bfs6qan3padb2wnb2i7cl/config/preferences:
 Processing $rem in /home/rramji/.qchemrc:
 Symmetry turned off for PCM/SM12/SMD calculation
 Core orbitals will be frozen

 Checking the input file for inconsistencies... 	...done.

 Q-Chem warning in module forms1/BasisType.C, line 2236:

 You are not using the predefined 5D/6D in this basis set.


--------------------------------------------------------------
User input:
--------------------------------------------------------------
$molecule
0 1
C	0.208886	-8.519741	-0.174379
C	-0.472151	-7.635967	0.650052
S	1.193717	-7.651740	-1.377058
C	-0.225125	-6.261894	0.353105
H	-1.141594	-7.954738	1.458961
C	0.692811	-6.079985	-0.740583
C	1.039773	-4.798382	-1.195546
C	-0.817634	-5.153542	1.023267
C	-0.473754	-3.869626	0.565262
C	0.447350	-3.688927	-0.527745
O	-1.644483	-5.481075	2.054917
O	1.869424	-4.479871	-2.232592
C	2.939466	-5.356026	-2.565470
H	3.601405	-4.790496	-3.248608
H	2.587892	-6.268513	-3.094885
H	3.516052	-5.658187	-1.664539
C	-2.608813	-4.546999	2.524564
H	-3.270661	-5.107564	3.211568
H	-3.216646	-4.131473	1.692342
H	-2.141184	-3.712085	3.090211
C	0.690319	-2.314326	-0.823402
S	-0.985511	-2.295487	1.194935
C	-0.000000	-1.435180	-0.000000
H	1.361286	-1.993211	-1.630024
H	0.203444	-9.615985	-0.171719
C	0.000000	0.000000	0.000000
S	0.158383	0.885376	1.510732
C	0.430876	2.436951	0.727629
C	0.157682	0.894430	-1.064665
C	0.397351	2.262384	-0.678287
C	0.147783	0.828765	-2.486150
C	0.367291	2.074406	-3.106916
S	0.580633	3.303533	-1.965735
C	0.416083	2.324204	-4.559972
O	0.256921	1.404367	-5.350277
O	0.642094	3.587338	-5.004375
F	-0.041828	-0.269113	-3.246290
C	0.714377	3.938827	-6.334976
H	0.906844	5.026898	-6.370268
H	-0.230661	3.710099	-6.875609
H	1.531918	3.398681	-6.861878
H	0.590699	3.342984	1.321510
$end

$rem
JOBTYPE		SP
EXCHANGE	HF
CORRELATION	pRIMP2
BASIS		cc-pvtz
METHOD		rimp2
AUX_BASIS	rimp2-cc-pvtz
SOLVENT_METHOD	PCM
PURECART	11111
SYMMETRY	false
MEM_TOTAL	110000
SCF_CONVERGENCE = 6
THRESH=10
GUI = 2
$end



$solvent
dielectric 4.90
$end
--------------------------------------------------------------
 ----------------------------------------------------------------
             Standard Nuclear Orientation (Angstroms)
    I     Atom           X                Y                Z
 ----------------------------------------------------------------
    1      C       0.2088860000    -8.5197410000    -0.1743790000
    2      C      -0.4721510000    -7.6359670000     0.6500520000
    3      S       1.1937170000    -7.6517400000    -1.3770580000
    4      C      -0.2251250000    -6.2618940000     0.3531050000
    5      H      -1.1415940000    -7.9547380000     1.4589610000
    6      C       0.6928110000    -6.0799850000    -0.7405830000
    7      C       1.0397730000    -4.7983820000    -1.1955460000
    8      C      -0.8176340000    -5.1535420000     1.0232670000
    9      C      -0.4737540000    -3.8696260000     0.5652620000
   10      C       0.4473500000    -3.6889270000    -0.5277450000
   11      O      -1.6444830000    -5.4810750000     2.0549170000
   12      O       1.8694240000    -4.4798710000    -2.2325920000
   13      C       2.9394660000    -5.3560260000    -2.5654700000
   14      H       3.6014050000    -4.7904960000    -3.2486080000
   15      H       2.5878920000    -6.2685130000    -3.0948850000
   16      H       3.5160520000    -5.6581870000    -1.6645390000
   17      C      -2.6088130000    -4.5469990000     2.5245640000
   18      H      -3.2706610000    -5.1075640000     3.2115680000
   19      H      -3.2166460000    -4.1314730000     1.6923420000
   20      H      -2.1411840000    -3.7120850000     3.0902110000
   21      C       0.6903190000    -2.3143260000    -0.8234020000
   22      S      -0.9855110000    -2.2954870000     1.1949350000
   23      C       0.0000000000    -1.4351800000     0.0000000000
   24      H       1.3612860000    -1.9932110000    -1.6300240000
   25      H       0.2034440000    -9.6159850000    -0.1717190000
   26      C       0.0000000000     0.0000000000     0.0000000000
   27      S       0.1583830000     0.8853760000     1.5107320000
   28      C       0.4308760000     2.4369510000     0.7276290000
   29      C       0.1576820000     0.8944300000    -1.0646650000
   30      C       0.3973510000     2.2623840000    -0.6782870000
   31      C       0.1477830000     0.8287650000    -2.4861500000
   32      C       0.3672910000     2.0744060000    -3.1069160000
   33      S       0.5806330000     3.3035330000    -1.9657350000
   34      C       0.4160830000     2.3242040000    -4.5599720000
   35      O       0.2569210000     1.4043670000    -5.3502770000
   36      O       0.6420940000     3.5873380000    -5.0043750000
   37      F      -0.0418280000    -0.2691130000    -3.2462900000
   38      C       0.7143770000     3.9388270000    -6.3349760000
   39      H       0.9068440000     5.0268980000    -6.3702680000
   40      H      -0.2306610000     3.7100990000    -6.8756090000
   41      H       1.5319180000     3.3986810000    -6.8618780000
   42      H       0.5906990000     3.3429840000     1.3215100000
 ----------------------------------------------------------------
 Nuclear Repulsion Energy =        3303.45760224 hartrees
 There are      119 alpha and      119 beta electrons
 Requested basis set is cc-pVTZ
 There are 376 shells and 1068 basis functions

 Total QAlloc Memory Limit 110000 MB
 Mega-Array Size       188 MB
 MEM_STATIC part       192 MB
 Discretize the solute cavity surface with Lebedev spheres
	Using 110 Lebedev grid points for each H atom
	Using 194 Lebedev grid points for other atoms
	Atomic van der Waals radii will be scaled by 1.20
 Remove points where switching function is < 1.0e-08
 Keep 2905 surface tesserae and discard 4151 interior tesserae
 Molecular Surface Area = 438.190 Angst**2
 Requested basis set is rimp2-cc-pVTZ
 There are 833 shells and 2903 basis functions
 A cutoff of  1.0D-10 yielded  31246 shell pairs
 There are    240222 function pairs (    311998 Cartesian)
 Smallest overlap matrix eigenvalue = 2.16E-05

 Scale SEOQF with 1.000000e-01/1.000000e-02/1.000000e-02

 Standard Electronic Orientation quadrupole field applied
 Nucleus-field energy     =     0.0000000251 hartrees
 Guess from superposition of atomic densities
 Warning:  Energy on first SCF cycle will be non-variational
 SAD guess density has 238.000000 electrons

 -----------------------------------------------------------------------
  General SCF calculation program by
  Eric Jon Sundstrom, Paul Horn, Yuezhi Mao, Dmitri Zuev, Alec White,
  David Stuck, Shaama M.S., Shane Yost, Joonho Lee, David Small,
  Daniel Levine, Susi Lehtola, Hugh Burton, Evgeny Epifanovsky,
  Bang C. Huynh
 -----------------------------------------------------------------------
 Hartree-Fock
 using 64 threads for integral computing
 -------------------------------------------------------
 OpenMP Integral computing Module                
 Release: version 1.0, May 2013, Q-Chem Inc. Pittsburgh 
 -------------------------------------------------------
 A restricted SCF calculation will be
 performed using DIIS
 SCF converges when DIIS error is below 1.0e-06
 ---------------------------------------
  Cycle       Energy         DIIS error
 ---------------------------------------
    1   -2765.5370755512      1.77e-02  
    2   -2753.8596721489      1.57e-03  
    3   -2754.1998543778      8.82e-04  
    4   -2754.2841581927      2.54e-04  
    5   -2754.2957805551      6.83e-05  
    6   -2754.2968639070      2.39e-05  
    7   -2754.2971044980      1.15e-05  
    8   -2754.2971836402      4.44e-06  
    9   -2754.2971992448      1.89e-06  
   10   -2754.2972014174      7.84e-07  Convergence criterion met
 ---------------------------------------
 SCF time:   CPU 6339.17s  wall 230.00s 

************** Final PCM Free Energy Summary **************
 G_electrostatic  =      -0.01978927 hartree =     -12.41795291 kcal/mol
 G_cavitation     =       0.00000000 hartree =       0.00000000 kcal/mol
 G_dispersion     =       0.00000000 hartree =       0.00000000 kcal/mol
 G_repulsion      =       0.00000000 hartree =       0.00000000 kcal/mol
 --------------------------------------------------
 Non-electrostatic Free Energy =       0.00000000 hartree =       0.00000000 kcal/mol
 Total                         =      -0.01978927 hartree =     -12.41795291 kcal/mol
 --------------------------------------------------
 SCF Energy (H0 + V/2)                       =   -2754.29720142 
 Solute Internal Energy (H0)                 =   -2754.27741215 
 Total Free Energy (H0 + V/2 + non-elec)     =   -2754.29720142 hartree
                                             = -1728347.57983823 kcal/mol
***********************************************************

 SCF   energy in the final basis set =    -2754.2972014174
 Total energy in the final basis set =    -2754.2972014174


 --------------------------------------------------------------
  Generalized many-body perturbation theory program
  by Joonho Lee, Fazle Rob, Xintian Feng, Evgeny Epifanovsky

 No regularization used 
 (reg. param. = 0.0000e+00)
  (P|Q)^-1/2 Time:  CPU 138.72 s  wall 2.71 s

 In RI-MP2 calculation: 
 # of frozen core orbitals: 45

 Components of the RIMP2 correlation energy:
        aaaa    correlation energy =        -0.6709507868 a.u.
        abab    correlation energy =        -3.7118235133 a.u.
        bbbb    correlation energy =        -0.6709507868 a.u.
        non-Brillouin singles      =        -0.0000000000 a.u.
        total same-spin energy     =        -1.3419015736 a.u.
        total opposite-spin energy =        -3.7118235133 a.u.

 Total  RIMP2   correlation energy =        -5.0537250869 a.u.
        RIMP2         total energy =     -2759.3509265043 a.u.

 RI-MP2 Energy Time:  CPU 2690.61 s  wall 44.15 s
 
 --------------------------------------------------------------
 
                    Orbital Energies (a.u.)
 --------------------------------------------------------------
 
 Alpha MOs
 -- Occupied --
-92.0161 -91.9947 -91.9911 -91.9870 -26.3345 -20.6117 -20.5930 -20.5918
-20.5494 -11.4098 -11.3776 -11.3201 -11.3192 -11.3120 -11.2970 -11.2964
-11.2958 -11.2933 -11.2883 -11.2878 -11.2876 -11.2860 -11.2847 -11.2817
-11.2806 -11.2622 -11.2602 -11.2595 -11.2504  -9.0144  -8.9987  -8.9916
 -8.9869  -6.6951  -6.6946  -6.6941  -6.6800  -6.6793  -6.6780  -6.6725
 -6.6719  -6.6709  -6.6678  -6.6672  -6.6663  -1.6475  -1.4714  -1.4171
 -1.4145  -1.3667  -1.2334  -1.1971  -1.1693  -1.1423  -1.0848  -1.0530
 -1.0477  -1.0277  -1.0033  -0.9938  -0.9717  -0.9616  -0.9509  -0.9386
 -0.8968  -0.8692  -0.8512  -0.8041  -0.7940  -0.7883  -0.7728  -0.7699
 -0.7582  -0.7332  -0.7189  -0.7157  -0.7020  -0.6888  -0.6836  -0.6782
 -0.6713  -0.6615  -0.6596  -0.6529  -0.6299  -0.6204  -0.6169  -0.6061
 -0.6018  -0.5940  -0.5858  -0.5762  -0.5708  -0.5636  -0.5528  -0.5505
 -0.5365  -0.5262  -0.5258  -0.5170  -0.5156  -0.5085  -0.5040  -0.4971
 -0.4888  -0.4840  -0.4773  -0.4692  -0.4617  -0.4611  -0.4598  -0.4184
 -0.3979  -0.3869  -0.3590  -0.3502  -0.3231  -0.2856  -0.2520
 -- Virtual --
  0.0164   0.0741   0.1149   0.1234   0.1338   0.1437   0.1501   0.1551
  0.1558   0.1604   0.1639   0.1790   0.1831   0.1859   0.1887   0.1953
  0.2034   0.2067   0.2088   0.2172   0.2204   0.2217   0.2234   0.2311
  0.2326   0.2400   0.2474   0.2537   0.2610   0.2679   0.2738   0.2811
  0.2980   0.3098   0.3204   0.3328   0.3371   0.3404   0.3475   0.3502
  0.3538   0.3580   0.3698   0.3726   0.3765   0.3794   0.3810   0.3854
  0.3878   0.3927   0.3977   0.4073   0.4089   0.4168   0.4204   0.4223
  0.4319   0.4366   0.4403   0.4436   0.4456   0.4530   0.4553   0.4579
  0.4617   0.4659   0.4675   0.4723   0.4792   0.4831   0.4863   0.4893
  0.4976   0.5007   0.5045   0.5068   0.5088   0.5172   0.5213   0.5236
  0.5271   0.5356   0.5362   0.5404   0.5425   0.5486   0.5504   0.5527
  0.5557   0.5574   0.5635   0.5678   0.5698   0.5719   0.5761   0.5794
  0.5869   0.5886   0.5943   0.5960   0.5973   0.6057   0.6086   0.6132
  0.6152   0.6178   0.6197   0.6234   0.6267   0.6285   0.6319   0.6373
  0.6385   0.6423   0.6439   0.6495   0.6529   0.6574   0.6586   0.6673
  0.6702   0.6751   0.6808   0.6839   0.6899   0.6976   0.7003   0.7075
  0.7095   0.7185   0.7188   0.7221   0.7383   0.7398   0.7526   0.7537
  0.7579   0.7640   0.7688   0.7770   0.7871   0.7899   0.7949   0.7955
  0.8023   0.8061   0.8146   0.8194   0.8228   0.8316   0.8344   0.8445
  0.8506   0.8548   0.8600   0.8705   0.8732   0.8850   0.8894   0.8963
  0.9009   0.9029   0.9081   0.9124   0.9188   0.9205   0.9226   0.9293
  0.9345   0.9361   0.9403   0.9429   0.9521   0.9561   0.9634   0.9668
  0.9714   0.9807   0.9824   0.9893   0.9936   0.9957   0.9998   1.0025
  1.0045   1.0113   1.0137   1.0172   1.0281   1.0289   1.0327   1.0419
  1.0438   1.0499   1.0589   1.0639   1.0679   1.0732   1.0750   1.0815
  1.0897   1.0899   1.0915   1.0959   1.1006   1.1043   1.1077   1.1104
  1.1218   1.1298   1.1374   1.1396   1.1454   1.1469   1.1521   1.1578
  1.1646   1.1693   1.1773   1.1811   1.1843   1.1867   1.1881   1.1940
  1.1983   1.2035   1.2083   1.2163   1.2187   1.2235   1.2247   1.2300
  1.2340   1.2393   1.2433   1.2539   1.2592   1.2690   1.2728   1.2758
  1.2791   1.2811   1.2916   1.2998   1.3086   1.3118   1.3205   1.3250
  1.3358   1.3373   1.3442   1.3483   1.3533   1.3585   1.3603   1.3702
  1.3806   1.3879   1.3927   1.3974   1.4021   1.4106   1.4196   1.4248
  1.4283   1.4436   1.4462   1.4594   1.4656   1.4760   1.4833   1.4904
  1.4940   1.4999   1.5044   1.5111   1.5125   1.5206   1.5228   1.5271
  1.5318   1.5373   1.5390   1.5433   1.5495   1.5616   1.5636   1.5696
  1.5747   1.5816   1.5954   1.5968   1.6048   1.6089   1.6220   1.6291
  1.6454   1.6470   1.6553   1.6622   1.6624   1.6646   1.6756   1.6860
  1.6868   1.6900   1.6974   1.7123   1.7244   1.7305   1.7342   1.7548
  1.7589   1.7667   1.7771   1.7808   1.7941   1.7996   1.8149   1.8175
  1.8241   1.8327   1.8361   1.8453   1.8610   1.8638   1.8643   1.8750
  1.8776   1.8859   1.8944   1.9037   1.9098   1.9189   1.9224   1.9382
  1.9454   1.9476   1.9533   1.9589   1.9626   1.9653   1.9761   1.9799
  1.9987   2.0123   2.0162   2.0277   2.0371   2.0455   2.0475   2.0671
  2.0700   2.0861   2.0938   2.1045   2.1130   2.1304   2.1350   2.1462
  2.1542   2.1569   2.1600   2.1649   2.1752   2.1777   2.1887   2.1938
  2.1959   2.1991   2.2152   2.2193   2.2304   2.2328   2.2404   2.2492
  2.2509   2.2525   2.2630   2.2710   2.2753   2.2819   2.2891   2.3039
  2.3069   2.3113   2.3156   2.3186   2.3364   2.3464   2.3516   2.3617
  2.3687   2.3817   2.3841   2.3905   2.4065   2.4159   2.4259   2.4291
  2.4305   2.4451   2.4481   2.4625   2.4633   2.4767   2.4866   2.4980
  2.5018   2.5094   2.5238   2.5295   2.5368   2.5453   2.5540   2.5695
  2.5716   2.5826   2.5887   2.5963   2.6132   2.6169   2.6203   2.6212
  2.6355   2.6366   2.6403   2.6450   2.6534   2.6578   2.6698   2.6732
  2.6746   2.6900   2.6951   2.6987   2.7014   2.7061   2.7136   2.7224
  2.7273   2.7341   2.7365   2.7400   2.7457   2.7553   2.7621   2.7692
  2.7729   2.7910   2.7931   2.7985   2.8058   2.8083   2.8168   2.8253
  2.8283   2.8355   2.8427   2.8477   2.8538   2.8597   2.8721   2.8747
  2.8782   2.8802   2.8878   2.8966   2.9063   2.9202   2.9233   2.9289
  2.9448   2.9544   2.9604   2.9694   2.9771   2.9801   2.9858   3.0032
  3.0105   3.0185   3.0265   3.0324   3.0344   3.0408   3.0423   3.0452
  3.0513   3.0585   3.0674   3.0796   3.0878   3.0913   3.0956   3.1025
  3.1053   3.1086   3.1127   3.1155   3.1202   3.1353   3.1416   3.1496
  3.1541   3.1559   3.1611   3.1637   3.1670   3.1771   3.1821   3.1849
  3.1876   3.1975   3.2047   3.2080   3.2139   3.2167   3.2241   3.2296
  3.2404   3.2436   3.2440   3.2478   3.2558   3.2628   3.2679   3.2710
  3.2722   3.2779   3.2852   3.2857   3.2898   3.2907   3.2972   3.3054
  3.3096   3.3155   3.3217   3.3282   3.3324   3.3346   3.3403   3.3421
  3.3498   3.3530   3.3570   3.3593   3.3621   3.3648   3.3669   3.3801
  3.3824   3.3862   3.3891   3.3910   3.3958   3.3977   3.4090   3.4187
  3.4208   3.4258   3.4355   3.4383   3.4423   3.4466   3.4528   3.4578
  3.4605   3.4658   3.4661   3.4718   3.4773   3.4852   3.4931   3.4956
  3.5025   3.5064   3.5163   3.5228   3.5247   3.5287   3.5322   3.5390
  3.5473   3.5547   3.5648   3.5661   3.5688   3.5767   3.5781   3.5843
  3.5848   3.5892   3.5965   3.6005   3.6035   3.6079   3.6122   3.6261
  3.6312   3.6358   3.6377   3.6429   3.6461   3.6538   3.6572   3.6616
  3.6670   3.6715   3.6753   3.6786   3.6850   3.6882   3.6920   3.6943
  3.7030   3.7070   3.7102   3.7174   3.7230   3.7284   3.7313   3.7381
  3.7437   3.7466   3.7502   3.7620   3.7651   3.7693   3.7800   3.7827
  3.7893   3.7945   3.7958   3.8105   3.8175   3.8216   3.8266   3.8308
  3.8366   3.8410   3.8471   3.8574   3.8615   3.8644   3.8686   3.8738
  3.8751   3.8841   3.8960   3.9068   3.9120   3.9156   3.9189   3.9296
  3.9359   3.9411   3.9506   3.9562   3.9643   3.9719   3.9804   3.9851
  3.9890   3.9976   4.0051   4.0109   4.0225   4.0344   4.0358   4.0434
  4.0482   4.0549   4.0621   4.0639   4.0733   4.0816   4.0862   4.0919
  4.0955   4.1020   4.1138   4.1175   4.1332   4.1406   4.1453   4.1493
  4.1620   4.1654   4.1731   4.1761   4.1859   4.1881   4.1949   4.2016
  4.2061   4.2140   4.2369   4.2405   4.2453   4.2619   4.2726   4.2737
  4.2870   4.3013   4.3034   4.3137   4.3262   4.3388   4.3442   4.3479
  4.3537   4.3646   4.3704   4.3767   4.3785   4.3900   4.3946   4.4017
  4.4072   4.4112   4.4182   4.4264   4.4283   4.4351   4.4461   4.4501
  4.4535   4.4710   4.4846   4.4892   4.4961   4.5013   4.5034   4.5160
  4.5361   4.5395   4.5431   4.5531   4.5568   4.5674   4.5830   4.5997
  4.6023   4.6145   4.6203   4.6297   4.6320   4.6398   4.6465   4.6547
  4.6586   4.6703   4.6748   4.6809   4.6838   4.6980   4.7211   4.7261
  4.7355   4.7492   4.7556   4.7583   4.7784   4.7883   4.7919   4.8090
  4.8232   4.8314   4.8368   4.8449   4.8722   4.8811   4.9129   4.9177
  4.9443   4.9450   4.9552   4.9632   4.9668   4.9817   4.9965   5.0017
  5.0092   5.0117   5.0209   5.0348   5.0440   5.0580   5.0718   5.0763
  5.0840   5.1022   5.1372   5.1582   5.1707   5.1733   5.1909   5.2007
  5.2110   5.2170   5.2248   5.2462   5.2546   5.2594   5.2801   5.2986
  5.3003   5.3117   5.3246   5.3300   5.3397   5.3526   5.3555   5.3692
  5.3758   5.3842   5.3973   5.4003   5.4252   5.4305   5.4630   5.4690
  5.4733   5.4783   5.5009   5.5065   5.5136   5.5220   5.5523   5.5606
  5.5742   5.5821   5.5900   5.6056   5.6182   5.6306   5.6422   5.7031
  5.7186   5.7355   5.7680   5.8012   5.8137   5.8355   5.8542   5.8566
  5.8737   5.8824   5.9494   5.9700   5.9706   5.9819   6.0028   6.0550
  6.0711   6.0988   6.1252   6.1339   6.1664   6.1706   6.1806   6.1862
  6.2415   6.2447   6.2703   6.2823   6.3026   6.3089   6.3201   6.3857
  6.4418   6.4516   6.5020   6.5431   6.5537   6.5568   6.5731   6.6544
  6.6752   6.6773   6.7134   6.7418   6.7439   6.8030   6.8470   6.8610
  6.8847   6.8916   6.9930   7.1185   7.1382   7.1788   7.2119   7.2150
  7.2338   7.3197   7.3272   7.3319   7.3743   7.3764   7.4292   7.4630
  7.4780   7.4863   7.4891   7.5205   7.5498   7.6143   7.7144   7.7696
  7.7962   7.8321   7.9065   7.9216   7.9479   8.0072   8.0954   8.1821
  8.6463   8.9362   9.0113   9.3661   9.5014   9.6954  10.1968  10.6695
 11.2500  11.3967  11.9270  11.9790  12.1306  12.2251  12.3866  12.5805
 12.6654  12.7792  12.9322  13.2110  13.2696  13.5579  13.8460  13.8862
 13.9029  14.0347  14.1564  14.7596  15.2033
 --------------------------------------------------------------
 
          Ground-State Mulliken Net Atomic Charges

     Atom                 Charge (a.u.)
  ----------------------------------------
      1 C                    -0.186816
      2 C                    -0.254164
      3 S                    -0.020168
      4 C                    -0.014100
      5 H                     0.196540
      6 C                    -0.029778
      7 C                     0.246304
      8 C                     0.241375
      9 C                    -0.043850
     10 C                    -0.033384
     11 O                    -0.333283
     12 O                    -0.338420
     13 C                    -0.085964
     14 H                     0.123379
     15 H                     0.091326
     16 H                     0.093844
     17 C                    -0.087170
     18 H                     0.125531
     19 H                     0.095451
     20 H                     0.089269
     21 C                    -0.196816
     22 S                    -0.019724
     23 C                    -0.006825
     24 H                     0.196685
     25 H                     0.206803
     26 C                    -0.041278
     27 S                     0.110257
     28 C                    -0.245868
     29 C                    -0.100029
     30 C                    -0.007663
     31 C                     0.393624
     32 C                    -0.149130
     33 S                     0.037676
     34 C                     0.462031
     35 O                    -0.451127
     36 O                    -0.298097
     37 F                    -0.212576
     38 C                    -0.054992
     39 H                     0.116522
     40 H                     0.084595
     41 H                     0.084330
     42 H                     0.215681
  ----------------------------------------
  Sum of atomic charges =     0.000000

 -----------------------------------------------------------------
                    Cartesian Multipole Moments
 -----------------------------------------------------------------
    Charge (ESU x 10^10)
                 0.0000
    Dipole Moment (Debye)
         X       0.8136      Y       1.2504      Z       3.4283
       Tot       3.7388
    Quadrupole Moments (Debye-Ang)
        XX    -184.9714     XY       1.2377     YY    -157.5972
        XZ     -14.1980     YZ     -10.8410     ZZ    -197.7924
    Octopole Moments (Debye-Ang^2)
       XXX    -123.1803    XXY     316.1557    XYY     -17.4676
       YYY     880.2344    XXZ     180.7941    XYZ      52.2027
       YYZ     134.2955    XZZ     -22.2977    YZZ     464.7442
       ZZZ     584.7767
    Hexadecapole Moments (Debye-Ang^3)
      XXXX   -1396.8293   XXXY     101.4058   XXYY   -3700.1132
      XYYY      96.9072   YYYY  -18457.5641   XXXZ     743.3614
      XXYZ     382.4490   XYYZ     -80.7263   YYYZ     904.5595
      XXZZ   -1279.6759   XYZZ     129.3282   YYZZ   -4243.9376
      XZZZ     648.6250   YZZZ     362.9356   ZZZZ   -6786.6164
 -----------------------------------------------------------------
 Total job time:  278.53s(wall), 9122.91s(cpu) 
 Sun Sep 24 18:06:02 2023

        *************************************************************
        *                                                           *
        *  Thank you very much for using Q-Chem.  Have a nice day.  *
        *                                                           *
        *************************************************************


0 sent ACK to 0 
now end server 0 ... 
cleanup process ... done
remove work dirs ./qchem3766677.0 -- ./qchem3766677.0
rm -rf ./qchem3766677.0
rm -rf ./qchem3766677
