You are running Q-Chem version: 5.4.0

#
# job setting
#
local host:  exp-8-26
current dir: /expanse/lustre/projects/csd626/rramji/aromodel/PTB7_fin/Rotation_Test
input file:  fin_bdt_Phi_5_Theta_160_fin_ftt.qcin
output file: 
nprocs     : 1
nthreads   : 64
#
# qchem installation setting
#
QC:          /cm/shared/apps/spack/cpu/opt/spack/linux-centos8-zen2/gcc-10.2.0/qchem-5.4-akfmr7b3t57bfs6qan3padb2wnb2i7cl
QCAUX:       /cm/shared/apps/spack/cpu/opt/spack/linux-centos8-zen2/gcc-10.2.0/qchem-5.4-akfmr7b3t57bfs6qan3padb2wnb2i7cl/qcaux
QCPROG:      /cm/shared/apps/spack/cpu/opt/spack/linux-centos8-zen2/gcc-10.2.0/qchem-5.4-akfmr7b3t57bfs6qan3padb2wnb2i7cl/exe/qcprog.exe
QCPROG_S:    /cm/shared/apps/spack/cpu/opt/spack/linux-centos8-zen2/gcc-10.2.0/qchem-5.4-akfmr7b3t57bfs6qan3padb2wnb2i7cl/exe/qcprog.exe_s
PARALLEL:    -DPARALLEL
QCMPI:       mpich
#
# qchem directory setting
#
qcrun:       qchem1195728
QCSCRATCH:   .
QCLOCALSCR:  
QCTMPDIR:    .
QCFILEPREF:  ./qchem1195728
QCSAVEDIR:   
workdirs:    ./qchem1195728
workdir0:    ./qchem1195728
partmpdirs =  
#
# parallel setting
#
QCRSH:           ssh
QCMPI:           mpich
QCMPIRUN:        /cm/shared/apps/spack/cpu/opt/spack/linux-centos8-zen2/gcc-10.2.0/qchem-5.4-akfmr7b3t57bfs6qan3padb2wnb2i7cl/bin/mpi/mpirun_qchem
QCMACHINEFILE:   ./qchem1195728/hostfile
exp-8-26

#
# env setting
#
exported envs:   QC QCAUX QCSCRATCH QCRUNNAME QCFILEPREF QCPROG QCPROG_S GUIFILE

Running Job 1 of 1 fin_bdt_Phi_5_Theta_160_fin_ftt.qcin
qchem fin_bdt_Phi_5_Theta_160_fin_ftt.qcin_1195728.0 ./qchem1195728/ 1
/cm/shared/apps/spack/cpu/opt/spack/linux-centos8-zen2/gcc-10.2.0/qchem-5.4-akfmr7b3t57bfs6qan3padb2wnb2i7cl/bin/mpi/mpirun_qchem -machinefile ./qchem1195728/hostfile -np 1 /cm/shared/apps/spack/cpu/opt/spack/linux-centos8-zen2/gcc-10.2.0/qchem-5.4-akfmr7b3t57bfs6qan3padb2wnb2i7cl/exe/qcprog.exe fin_bdt_Phi_5_Theta_160_fin_ftt.qcin_1195728.0 ./qchem1195728/

Process 0 of 1 is on exp-8-26 - thread support 0
initial socket setup ...start
initial socket setup ...done 
now start server 0 ... 
                  Welcome to Q-Chem
     A Quantum Leap Into The Future Of Chemistry


 Q-Chem 5.4, Q-Chem, Inc., Pleasanton, CA (2021)

 License issued to: University of California, San Diego (site)

 E. Epifanovsky,  A. T. B. Gilbert,  Xintian Feng,  Joonho Lee,  Yuezhi Mao,  
 N. Mardirossian,  P. Pokhilko,  A. White,  M. Wormit,  M. P. Coons,  
 A. L. Dempwolff,  Zhengting Gan,  D. Hait,  P. R. Horn,  L. D. Jacobson,  
 I. Kaliman,  J. Kussmann,  A. W. Lange,  Ka Un Lao,  D. S. Levine,  Jie Liu,  
 S. C. McKenzie,  A. F. Morrison,  K. Nanda,  F. Plasser,  D. R. Rehn,  
 M. L. Vidal,  Zhi-Qiang You,  Ying Zhu,  B. Alam,  B. Albrecht,  
 A. Aldossary,  E. Alguire,  J. H. Andersen,  D. Barton,  K. Begam,  A. Behn,  
 Y. A. Bernard,  E. J. Berquist,  H. Burton,  A. Carreras,  K. Carter-Fenk,  
 R. Chakraborty,  A. D. Chien,  K. D. Closser,  V. Cofer-Shabica,  
 S. Dasgupta,  Jia Deng,  M. de Wergifosse,  M. Diedenhofen,  Hainam Do,  
 S. Ehlert,  Po-Tung Fang,  S. Fatehi,  Qingguo Feng,  J. Gayvert,  
 Qinghui Ge,  G. Gidofalvi,  M. Goldey,  J. Gomes,  C. Gonzalez-Espinoza,  
 S. Gulania,  A. Gunina,  M. W. D. Hanson-Heine,  P. H. P. Harbach,  
 A. W. Hauser,  M. F. Herbst,  M. Hernandez Vera,  M. Hodecker,  
 Z. C. Holden,  S. Houck,  Xunkun Huang,  Kerwin Hui,  B. C. Huynh,  
 M. Ivanov,  Hyunjun Ji,  Hanjie Jiang,  B. Kaduk,  S. Kaehler,  
 K. Khistyaev,  Jaehoon Kim,  P. Klunzinger,  Z. Koczor-Benda,  
 Joong Hoon Koh,  D. Kosenkov,  L. Koulias,  T. Kowalczyk,  C. M. Krauter,  
 K. Kue,  A. Kunitsa,  T. Kus,  A. Landau,  K. V. Lawler,  D. Lefrancois,  
 S. Lehtola,  Rain Li,  Yi-Pei Li,  Jiashu Liang,  M. Liebenthal,  
 Hung-Hsuan Lin,  You-Sheng Lin,  Fenglai Liu,  Kuan-Yu Liu,  
 M. Loipersberger,  A. Luenser,  A. Manjanath,  P. Manohar,  E. Mansoor,  
 S. F. Manzer,  Shan-Ping Mao,  A. V. Marenich,  T. Markovich,  S. Mason,  
 S. A. Maurer,  P. F. McLaughlin,  M. F. S. J. Menger,  J.-M. Mewes,  
 S. A. Mewes,  P. Morgante,  J. W. Mullinax,  T. S. Nguyen-Beck,  
 K. J. Oosterbaan,  G. Paran,  Alexander C. Paul,  Suranjan K. Paul,  
 F. Pavosevic,  Zheng Pei,  S. Prager,  E. I. Proynov,  E. Ramos,  B. Rana,  
 A. E. Rask,  A. Rettig,  R. M. Richard,  F. Rob,  E. Rossomme,  T. Scheele,  
 M. Scheurer,  M. Schneider,  N. Sergueev,  S. M. Sharada,  W. Skomorowski,  
 D. W. Small,  C. J. Stein,  Yu-Chuan Su,  E. J. Sundstrom,  Zhen Tao,  
 J. Thirman,  T. Tsuchimochi,  N. M. Tubman,  S. P. Veccham,  O. Vydrov,  
 J. Wenzel,  J. Witte,  A. Yamada,  Kun Yao,  S. Yeganeh,  S. R. Yost,  
 A. Zech,  Igor Ying Zhang,  Xing Zhang,  Yu Zhang,  D. Zuev,  
 A. Aspuru-Guzik,  A. T. Bell,  N. A. Besley,  K. B. Bravaya,  B. R. Brooks,  
 D. Casanova,  Jeng-Da Chai,  S. Coriani,  C. J. Cramer,  
 A. E. DePrince, III,  R. A. DiStasio Jr.,  A. Dreuw,  B. D. Dunietz,  
 T. R. Furlani,  W. A. Goddard III,  S. Grimme,  S. Hammes-Schiffer,  
 T. Head-Gordon,  W. J. Hehre,  Chao-Ping Hsu,  T.-C. Jagau,  Yousung Jung,  
 A. Klamt,  Jing Kong,  D. S. Lambrecht,  WanZhen Liang,  N. J. Mayhall,  
 C. W. McCurdy,  J. B. Neaton,  C. Ochsenfeld,  J. A. Parkhill,  R. Peverati,  
 V. A. Rassolov,  Yihan Shao,  L. V. Slipchenko,  T. Stauch,  R. P. Steele,  
 J. E. Subotnik,  A. J. W. Thom,  A. Tkatchenko,  D. G. Truhlar,  
 T. Van Voorhis,  T. A. Wesolowski,  K. B. Whaley,  H. L. Woodcock III,  
 P. M. Zimmerman,  S. Faraji,  P. M. W. Gill,  M. Head-Gordon,  
 J. M. Herbert,  A. I. Krylov

 Contributors to earlier versions of Q-Chem not listed above: 
 R. D. Adamson,  B. Austin,  R. Baer,  J. Baker,  G. J. O. Beran,  
 K. Brandhorst,  S. T. Brown,  E. F. C. Byrd,  A. K. Chakraborty,  
 G. K. L. Chan,  Chun-Min Chang,  Yunqing Chen,  C.-L. Cheng,  
 Siu Hung Chien,  D. M. Chipman,  D. L. Crittenden,  H. Dachsel,  
 R. J. Doerksen,  A. D. Dutoi,  R. G. Edgar,  J. Fosso-Tande,  
 L. Fusti-Molnar,  D. Ghosh,  A. Ghysels,  A. Golubeva-Zadorozhnaya,  
 J. Gonthier,  M. S. Gordon,  S. R. Gwaltney,  G. Hawkins,  J. E. Herr,  
 A. Heyden,  S. Hirata,  E. G. Hohenstein,  G. Kedziora,  F. J. Keil,  
 C. Kelley,  Jihan Kim,  R. A. King,  R. Z. Khaliullin,  P. P. Korambath,  
 W. Kurlancheek,  A. Laurent,  A. M. Lee,  M. S. Lee,  S. V. Levchenko,  
 Ching Yeh Lin,  D. Liotard,  E. Livshits,  R. C. Lochan,  I. Lotan,  
 L. A. Martinez-Martinez,  P. E. Maslen,  N. Nair,  D. P. O'Neill,  
 D. Neuhauser,  E. Neuscamman,  C. M. Oana,  R. Olivares-Amaya,  R. Olson,  
 T. M. Perrine,  B. Peters,  P. A. Pieniazek,  A. Prociuk,  Y. M. Rhee,  
 J. Ritchie,  M. A. Rohrdanz,  E. Rosta,  N. J. Russ,  H. F. Schaefer III,  
 M. W. Schmidt,  N. E. Schultz,  S. Sharma,  N. Shenvi,  C. D. Sherrill,  
 A. C. Simmonett,  A. Sodt,  T. Stein,  D. Stuck,  K. S. Thanthiriwatte,  
 V. Vanovschi,  L. Vogt,  Tao Wang,  A. Warshel,  M. A. Watson,  
 C. F. Williams,  Q. Wu,  X. Xu,  Jun Yang,  W. Zhang,  Yan Zhao

 Please cite Q-Chem as follows:
 Y. Shao et al., Mol. Phys. 113, 184-215 (2015)
 DOI: 10.1080/00268976.2014.952696

 Q-Chem 5.4.0 for Intel X86 EM64T Linux

 Parts of Q-Chem use Armadillo 9.800.1 (Horizon Scraper).
 http://arma.sourceforge.net/

 Q-Chem begins on Tue Sep 26 18:41:35 2023  

 Host: 
0

     Scratch files written to ./qchem1195728//
 May1621 |scratch|qcdevops|jenkins|workspace|build_RNUM    
 Parallel job on  1  processors
 Processing $rem in /cm/shared/apps/spack/cpu/opt/spack/linux-centos8-zen2/gcc-10.2.0/qchem-5.4-akfmr7b3t57bfs6qan3padb2wnb2i7cl/config/preferences:
 Processing $rem in /home/rramji/.qchemrc:
 Symmetry turned off for PCM/SM12/SMD calculation
 Core orbitals will be frozen

 Checking the input file for inconsistencies... 	...done.

 Q-Chem warning in module forms1/BasisType.C, line 2236:

 You are not using the predefined 5D/6D in this basis set.


--------------------------------------------------------------
User input:
--------------------------------------------------------------
$molecule
0 1
C	-0.046574	-8.519741	-0.268090
C	0.326886	-7.635967	0.733920
S	-0.595708	-7.651740	-1.722318
C	0.193236	-6.261894	0.371516
H	0.692700	-7.954738	1.718130
C	-0.294958	-6.079985	-0.970283
C	-0.515487	-4.798382	-1.498243
C	0.477358	-5.153542	1.219725
C	0.252655	-3.869626	0.692914
C	-0.233366	-3.688927	-0.651289
O	0.957369	-5.481075	2.451623
O	-0.998769	-4.479871	-2.735264
C	-0.752029	-5.356026	-3.828387
H	-1.012675	-4.790496	-4.743213
H	-1.386303	-6.268513	-3.788623
H	0.316492	-5.658187	-3.877260
C	0.881930	-4.546999	3.521580
H	1.145969	-5.107564	4.438260
H	-0.142712	-4.131473	3.631868
H	1.605610	-3.712085	3.399425
C	-0.367928	-2.314326	-1.009535
S	0.542088	-2.295487	1.450945
C	0.000000	-1.435180	0.000000
H	-0.730999	-1.993211	-1.993920
H	-0.046991	-9.615985	-0.262047
C	0.000000	0.000000	0.000000
S	0.080615	0.895811	1.510732
C	0.216842	2.465231	0.727629
C	0.079127	0.904769	-1.064665
C	0.198659	2.288406	-0.678287
C	0.074988	0.838492	-2.486150
C	0.185097	2.098524	-3.106916
S	0.290501	3.341568	-1.965735
C	0.211932	2.351623	-4.559972
O	0.133545	1.421416	-5.350277
O	0.326994	3.629649	-5.004375
F	-0.018214	-0.271734	-3.246290
C	0.368367	3.986101	-6.334976
H	0.465270	5.086806	-6.370268
H	-0.553140	3.675878	-6.875609
H	1.229874	3.519263	-6.861878
H	0.297091	3.381746	1.321510
$end

$rem
JOBTYPE		SP
EXCHANGE	HF
CORRELATION	pRIMP2
BASIS		cc-pvtz
METHOD		rimp2
AUX_BASIS	rimp2-cc-pvtz
SOLVENT_METHOD	PCM
PURECART	11111
SYMMETRY	false
MEM_TOTAL	110000
SCF_CONVERGENCE = 6
THRESH=10
GUI = 2
$end



$solvent
dielectric 4.90
$end
--------------------------------------------------------------
 ----------------------------------------------------------------
             Standard Nuclear Orientation (Angstroms)
    I     Atom           X                Y                Z
 ----------------------------------------------------------------
    1      C      -0.0465740000    -8.5197410000    -0.2680900000
    2      C       0.3268860000    -7.6359670000     0.7339200000
    3      S      -0.5957080000    -7.6517400000    -1.7223180000
    4      C       0.1932360000    -6.2618940000     0.3715160000
    5      H       0.6927000000    -7.9547380000     1.7181300000
    6      C      -0.2949580000    -6.0799850000    -0.9702830000
    7      C      -0.5154870000    -4.7983820000    -1.4982430000
    8      C       0.4773580000    -5.1535420000     1.2197250000
    9      C       0.2526550000    -3.8696260000     0.6929140000
   10      C      -0.2333660000    -3.6889270000    -0.6512890000
   11      O       0.9573690000    -5.4810750000     2.4516230000
   12      O      -0.9987690000    -4.4798710000    -2.7352640000
   13      C      -0.7520290000    -5.3560260000    -3.8283870000
   14      H      -1.0126750000    -4.7904960000    -4.7432130000
   15      H      -1.3863030000    -6.2685130000    -3.7886230000
   16      H       0.3164920000    -5.6581870000    -3.8772600000
   17      C       0.8819300000    -4.5469990000     3.5215800000
   18      H       1.1459690000    -5.1075640000     4.4382600000
   19      H      -0.1427120000    -4.1314730000     3.6318680000
   20      H       1.6056100000    -3.7120850000     3.3994250000
   21      C      -0.3679280000    -2.3143260000    -1.0095350000
   22      S       0.5420880000    -2.2954870000     1.4509450000
   23      C       0.0000000000    -1.4351800000     0.0000000000
   24      H      -0.7309990000    -1.9932110000    -1.9939200000
   25      H      -0.0469910000    -9.6159850000    -0.2620470000
   26      C       0.0000000000     0.0000000000     0.0000000000
   27      S       0.0806150000     0.8958110000     1.5107320000
   28      C       0.2168420000     2.4652310000     0.7276290000
   29      C       0.0791270000     0.9047690000    -1.0646650000
   30      C       0.1986590000     2.2884060000    -0.6782870000
   31      C       0.0749880000     0.8384920000    -2.4861500000
   32      C       0.1850970000     2.0985240000    -3.1069160000
   33      S       0.2905010000     3.3415680000    -1.9657350000
   34      C       0.2119320000     2.3516230000    -4.5599720000
   35      O       0.1335450000     1.4214160000    -5.3502770000
   36      O       0.3269940000     3.6296490000    -5.0043750000
   37      F      -0.0182140000    -0.2717340000    -3.2462900000
   38      C       0.3683670000     3.9861010000    -6.3349760000
   39      H       0.4652700000     5.0868060000    -6.3702680000
   40      H      -0.5531400000     3.6758780000    -6.8756090000
   41      H       1.2298740000     3.5192630000    -6.8618780000
   42      H       0.2970910000     3.3817460000     1.3215100000
 ----------------------------------------------------------------
 Nuclear Repulsion Energy =        3308.88377090 hartrees
 There are      119 alpha and      119 beta electrons
 Requested basis set is cc-pVTZ
 There are 376 shells and 1068 basis functions

 Total QAlloc Memory Limit 110000 MB
 Mega-Array Size       188 MB
 MEM_STATIC part       192 MB
 Discretize the solute cavity surface with Lebedev spheres
	Using 110 Lebedev grid points for each H atom
	Using 194 Lebedev grid points for other atoms
	Atomic van der Waals radii will be scaled by 1.20
 Remove points where switching function is < 1.0e-08
 Keep 2870 surface tesserae and discard 4186 interior tesserae
 Molecular Surface Area = 434.500 Angst**2
 Requested basis set is rimp2-cc-pVTZ
 There are 833 shells and 2903 basis functions
 A cutoff of  1.0D-10 yielded  31411 shell pairs
 There are    241273 function pairs (    313252 Cartesian)
 Smallest overlap matrix eigenvalue = 2.18E-05

 Scale SEOQF with 1.000000e-01/1.000000e-02/1.000000e-02

 Standard Electronic Orientation quadrupole field applied
 Nucleus-field energy     =     0.0000000148 hartrees
 Guess from superposition of atomic densities
 Warning:  Energy on first SCF cycle will be non-variational
 SAD guess density has 238.000000 electrons

 -----------------------------------------------------------------------
  General SCF calculation program by
  Eric Jon Sundstrom, Paul Horn, Yuezhi Mao, Dmitri Zuev, Alec White,
  David Stuck, Shaama M.S., Shane Yost, Joonho Lee, David Small,
  Daniel Levine, Susi Lehtola, Hugh Burton, Evgeny Epifanovsky,
  Bang C. Huynh
 -----------------------------------------------------------------------
 Hartree-Fock
 using 64 threads for integral computing
 -------------------------------------------------------
 OpenMP Integral computing Module                
 Release: version 1.0, May 2013, Q-Chem Inc. Pittsburgh 
 -------------------------------------------------------
 A restricted SCF calculation will be
 performed using DIIS
 SCF converges when DIIS error is below 1.0e-06
 ---------------------------------------
  Cycle       Energy         DIIS error
 ---------------------------------------
    1   -2765.5566313974      1.77e-02  
    2   -2753.8595398578      1.57e-03  
    3   -2754.2001954867      8.81e-04  
    4   -2754.2845232142      2.54e-04  
    5   -2754.2962019048      6.84e-05  
    6   -2754.2972996926      2.41e-05  
    7   -2754.2975473320      1.16e-05  
    8   -2754.2976292058      4.49e-06  
    9   -2754.2976452869      1.89e-06  
   10   -2754.2976475625      8.09e-07  Convergence criterion met
 ---------------------------------------
 SCF time:   CPU 6483.52s  wall 233.00s 

************** Final PCM Free Energy Summary **************
 G_electrostatic  =      -0.01883147 hartree =     -11.81692873 kcal/mol
 G_cavitation     =       0.00000000 hartree =       0.00000000 kcal/mol
 G_dispersion     =       0.00000000 hartree =       0.00000000 kcal/mol
 G_repulsion      =       0.00000000 hartree =       0.00000000 kcal/mol
 --------------------------------------------------
 Non-electrostatic Free Energy =       0.00000000 hartree =       0.00000000 kcal/mol
 Total                         =      -0.01883147 hartree =     -11.81692873 kcal/mol
 --------------------------------------------------
 SCF Energy (H0 + V/2)                       =   -2754.29764756 
 Solute Internal Energy (H0)                 =   -2754.27881609 
 Total Free Energy (H0 + V/2 + non-elec)     =   -2754.29764756 hartree
                                             = -1728347.85979850 kcal/mol
***********************************************************

 SCF   energy in the final basis set =    -2754.2976475625
 Total energy in the final basis set =    -2754.2976475625


 --------------------------------------------------------------
  Generalized many-body perturbation theory program
  by Joonho Lee, Fazle Rob, Xintian Feng, Evgeny Epifanovsky

 No regularization used 
 (reg. param. = 0.0000e+00)
  (P|Q)^-1/2 Time:  CPU 124.72 s  wall 2.51 s

 In RI-MP2 calculation: 
 # of frozen core orbitals: 45

 Components of the RIMP2 correlation energy:
        aaaa    correlation energy =        -0.6713228144 a.u.
        abab    correlation energy =        -3.7119824929 a.u.
        bbbb    correlation energy =        -0.6713228144 a.u.
        non-Brillouin singles      =        -0.0000000000 a.u.
        total same-spin energy     =        -1.3426456288 a.u.
        total opposite-spin energy =        -3.7119824929 a.u.

 Total  RIMP2   correlation energy =        -5.0546281218 a.u.
        RIMP2         total energy =     -2759.3522756843 a.u.

 RI-MP2 Energy Time:  CPU 2717.56 s  wall 44.74 s
 
 --------------------------------------------------------------
 
                    Orbital Energies (a.u.)
 --------------------------------------------------------------
 
 Alpha MOs
 -- Occupied --
-92.0161 -91.9948 -91.9917 -91.9872 -26.3372 -20.6117 -20.5932 -20.5918
-20.5493 -11.4098 -11.3785 -11.3204 -11.3196 -11.3144 -11.2974 -11.2965
-11.2961 -11.2917 -11.2884 -11.2883 -11.2879 -11.2855 -11.2849 -11.2809
-11.2809 -11.2624 -11.2607 -11.2585 -11.2506  -9.0146  -8.9988  -8.9922
 -8.9871  -6.6953  -6.6948  -6.6943  -6.6801  -6.6794  -6.6781  -6.6732
 -6.6725  -6.6715  -6.6680  -6.6674  -6.6666  -1.6510  -1.4714  -1.4174
 -1.4145  -1.3667  -1.2336  -1.1976  -1.1699  -1.1425  -1.0851  -1.0533
 -1.0481  -1.0280  -1.0040  -0.9942  -0.9723  -0.9614  -0.9510  -0.9385
 -0.8973  -0.8695  -0.8522  -0.8063  -0.7958  -0.7889  -0.7726  -0.7696
 -0.7583  -0.7333  -0.7207  -0.7185  -0.7020  -0.6894  -0.6846  -0.6783
 -0.6722  -0.6623  -0.6598  -0.6528  -0.6299  -0.6204  -0.6164  -0.6061
 -0.6003  -0.5939  -0.5885  -0.5769  -0.5694  -0.5602  -0.5544  -0.5494
 -0.5375  -0.5271  -0.5227  -0.5205  -0.5176  -0.5097  -0.5051  -0.4962
 -0.4862  -0.4843  -0.4802  -0.4686  -0.4621  -0.4611  -0.4594  -0.4229
 -0.3985  -0.3865  -0.3597  -0.3507  -0.3254  -0.2851  -0.2483
 -- Virtual --
  0.0112   0.0790   0.1156   0.1231   0.1298   0.1471   0.1512   0.1553
  0.1557   0.1614   0.1623   0.1809   0.1859   0.1884   0.1924   0.1969
  0.2031   0.2091   0.2126   0.2186   0.2212   0.2231   0.2233   0.2290
  0.2380   0.2449   0.2477   0.2555   0.2662   0.2699   0.2752   0.2819
  0.3046   0.3065   0.3216   0.3340   0.3372   0.3449   0.3497   0.3535
  0.3559   0.3602   0.3690   0.3735   0.3768   0.3806   0.3844   0.3852
  0.3874   0.3933   0.3967   0.4066   0.4099   0.4164   0.4212   0.4230
  0.4319   0.4351   0.4406   0.4425   0.4464   0.4489   0.4511   0.4560
  0.4593   0.4655   0.4732   0.4795   0.4818   0.4856   0.4871   0.4931
  0.4956   0.4993   0.5054   0.5073   0.5148   0.5183   0.5243   0.5271
  0.5288   0.5324   0.5367   0.5405   0.5421   0.5487   0.5536   0.5564
  0.5572   0.5618   0.5630   0.5675   0.5702   0.5722   0.5784   0.5798
  0.5840   0.5879   0.5899   0.5961   0.6011   0.6048   0.6056   0.6136
  0.6162   0.6180   0.6183   0.6246   0.6274   0.6309   0.6316   0.6343
  0.6370   0.6408   0.6448   0.6523   0.6532   0.6611   0.6635   0.6684
  0.6748   0.6783   0.6801   0.6838   0.6918   0.6980   0.7025   0.7090
  0.7117   0.7187   0.7272   0.7332   0.7408   0.7454   0.7529   0.7577
  0.7593   0.7656   0.7755   0.7807   0.7843   0.7873   0.7980   0.8024
  0.8042   0.8115   0.8150   0.8235   0.8269   0.8359   0.8370   0.8497
  0.8546   0.8581   0.8647   0.8735   0.8746   0.8852   0.8901   0.8985
  0.9026   0.9043   0.9051   0.9129   0.9170   0.9203   0.9275   0.9299
  0.9344   0.9408   0.9474   0.9539   0.9545   0.9606   0.9625   0.9674
  0.9751   0.9799   0.9838   0.9867   0.9949   0.9958   0.9970   1.0014
  1.0029   1.0093   1.0144   1.0237   1.0257   1.0298   1.0375   1.0418
  1.0474   1.0532   1.0561   1.0633   1.0672   1.0754   1.0782   1.0795
  1.0883   1.0910   1.0938   1.0969   1.1054   1.1095   1.1152   1.1188
  1.1287   1.1333   1.1366   1.1429   1.1500   1.1502   1.1544   1.1623
  1.1664   1.1723   1.1740   1.1805   1.1836   1.1856   1.1894   1.1923
  1.1971   1.2047   1.2124   1.2171   1.2194   1.2205   1.2244   1.2320
  1.2357   1.2412   1.2464   1.2547   1.2608   1.2646   1.2682   1.2725
  1.2755   1.2892   1.2942   1.3001   1.3083   1.3112   1.3166   1.3220
  1.3309   1.3343   1.3419   1.3505   1.3521   1.3591   1.3624   1.3718
  1.3749   1.3813   1.3850   1.3893   1.3903   1.4005   1.4124   1.4251
  1.4301   1.4403   1.4490   1.4560   1.4685   1.4728   1.4770   1.4869
  1.4923   1.5007   1.5051   1.5096   1.5122   1.5131   1.5269   1.5286
  1.5314   1.5338   1.5429   1.5470   1.5523   1.5568   1.5574   1.5656
  1.5796   1.5844   1.5904   1.5987   1.6131   1.6174   1.6262   1.6324
  1.6421   1.6483   1.6534   1.6590   1.6630   1.6638   1.6782   1.6851
  1.6903   1.6981   1.7053   1.7162   1.7267   1.7320   1.7396   1.7494
  1.7635   1.7658   1.7751   1.7903   1.7943   1.8018   1.8110   1.8206
  1.8255   1.8335   1.8423   1.8490   1.8557   1.8622   1.8693   1.8719
  1.8840   1.8908   1.8967   1.9053   1.9142   1.9239   1.9257   1.9335
  1.9371   1.9440   1.9469   1.9611   1.9706   1.9763   1.9807   1.9911
  2.0044   2.0101   2.0228   2.0268   2.0287   2.0385   2.0518   2.0668
  2.0747   2.0894   2.1018   2.1145   2.1168   2.1307   2.1399   2.1493
  2.1501   2.1591   2.1607   2.1670   2.1719   2.1772   2.1896   2.1931
  2.1952   2.2034   2.2137   2.2144   2.2245   2.2258   2.2377   2.2466
  2.2524   2.2562   2.2602   2.2716   2.2776   2.2829   2.2866   2.2930
  2.3060   2.3107   2.3174   2.3313   2.3409   2.3447   2.3493   2.3675
  2.3766   2.3819   2.3869   2.3974   2.4014   2.4170   2.4226   2.4288
  2.4358   2.4450   2.4527   2.4652   2.4703   2.4785   2.4861   2.4896
  2.5012   2.5210   2.5242   2.5296   2.5371   2.5509   2.5581   2.5664
  2.5733   2.5858   2.5936   2.5973   2.6128   2.6188   2.6204   2.6271
  2.6298   2.6330   2.6379   2.6453   2.6544   2.6619   2.6666   2.6707
  2.6777   2.6881   2.6910   2.6982   2.7031   2.7071   2.7106   2.7230
  2.7302   2.7352   2.7365   2.7416   2.7460   2.7490   2.7614   2.7711
  2.7793   2.7824   2.7879   2.8036   2.8073   2.8124   2.8199   2.8268
  2.8294   2.8330   2.8426   2.8473   2.8486   2.8603   2.8716   2.8762
  2.8797   2.8852   2.8891   2.9028   2.9043   2.9159   2.9248   2.9327
  2.9467   2.9580   2.9651   2.9692   2.9741   2.9805   2.9946   3.0034
  3.0075   3.0145   3.0264   3.0315   3.0362   3.0375   3.0452   3.0468
  3.0513   3.0592   3.0688   3.0843   3.0872   3.0911   3.0982   3.1009
  3.1043   3.1140   3.1156   3.1215   3.1330   3.1359   3.1432   3.1490
  3.1539   3.1584   3.1618   3.1672   3.1736   3.1766   3.1814   3.1892
  3.1916   3.1948   3.2013   3.2067   3.2140   3.2204   3.2268   3.2290
  3.2382   3.2401   3.2488   3.2521   3.2570   3.2614   3.2642   3.2685
  3.2761   3.2780   3.2818   3.2852   3.2889   3.2899   3.2961   3.3015
  3.3053   3.3172   3.3247   3.3266   3.3341   3.3415   3.3429   3.3471
  3.3489   3.3549   3.3581   3.3591   3.3610   3.3678   3.3726   3.3751
  3.3803   3.3883   3.3911   3.3955   3.3970   3.4023   3.4064   3.4143
  3.4215   3.4283   3.4338   3.4380   3.4408   3.4485   3.4500   3.4532
  3.4574   3.4613   3.4665   3.4743   3.4761   3.4810   3.4865   3.5030
  3.5085   3.5105   3.5127   3.5210   3.5257   3.5295   3.5323   3.5361
  3.5440   3.5510   3.5597   3.5665   3.5703   3.5753   3.5797   3.5834
  3.5883   3.5897   3.5965   3.5995   3.6015   3.6103   3.6172   3.6212
  3.6274   3.6333   3.6342   3.6460   3.6500   3.6533   3.6547   3.6607
  3.6645   3.6710   3.6730   3.6779   3.6841   3.6870   3.6912   3.6987
  3.7042   3.7071   3.7108   3.7189   3.7247   3.7268   3.7318   3.7334
  3.7391   3.7464   3.7541   3.7571   3.7661   3.7690   3.7780   3.7832
  3.7928   3.7935   3.8000   3.8072   3.8204   3.8224   3.8252   3.8310
  3.8395   3.8429   3.8512   3.8600   3.8639   3.8653   3.8704   3.8746
  3.8792   3.8827   3.8913   3.9042   3.9107   3.9188   3.9210   3.9247
  3.9315   3.9474   3.9538   3.9575   3.9628   3.9773   3.9820   3.9848
  3.9884   4.0007   4.0068   4.0107   4.0153   4.0350   4.0366   4.0441
  4.0514   4.0576   4.0621   4.0683   4.0710   4.0826   4.0902   4.0935
  4.1000   4.1010   4.1097   4.1260   4.1333   4.1427   4.1482   4.1560
  4.1605   4.1685   4.1723   4.1782   4.1884   4.1903   4.1946   4.2016
  4.2070   4.2169   4.2372   4.2379   4.2469   4.2615   4.2757   4.2778
  4.2875   4.3006   4.3145   4.3218   4.3318   4.3405   4.3443   4.3483
  4.3610   4.3630   4.3734   4.3754   4.3785   4.3933   4.4000   4.4033
  4.4098   4.4104   4.4193   4.4256   4.4325   4.4329   4.4462   4.4519
  4.4660   4.4727   4.4855   4.4901   4.4949   4.4986   4.5055   4.5171
  4.5230   4.5334   4.5428   4.5565   4.5571   4.5654   4.5852   4.5997
  4.6044   4.6191   4.6247   4.6304   4.6377   4.6405   4.6508   4.6540
  4.6594   4.6688   4.6806   4.6822   4.6961   4.6983   4.7171   4.7294
  4.7415   4.7452   4.7557   4.7615   4.7823   4.7964   4.8056   4.8076
  4.8176   4.8292   4.8382   4.8482   4.8577   4.8846   4.9124   4.9199
  4.9412   4.9487   4.9531   4.9648   4.9687   4.9934   4.9956   5.0035
  5.0064   5.0121   5.0292   5.0408   5.0493   5.0666   5.0742   5.0788
  5.0929   5.1124   5.1296   5.1574   5.1732   5.1805   5.1939   5.2002
  5.2097   5.2198   5.2287   5.2480   5.2544   5.2594   5.2819   5.2979
  5.3105   5.3157   5.3230   5.3307   5.3521   5.3554   5.3596   5.3625
  5.3803   5.3965   5.3984   5.4112   5.4291   5.4397   5.4627   5.4728
  5.4733   5.4811   5.5026   5.5068   5.5145   5.5238   5.5532   5.5705
  5.5792   5.5881   5.5959   5.6059   5.6183   5.6335   5.6436   5.7024
  5.7271   5.7441   5.7680   5.8012   5.8139   5.8339   5.8541   5.8636
  5.8724   5.8834   5.9664   5.9702   5.9736   5.9819   6.0107   6.0525
  6.0662   6.1194   6.1339   6.1423   6.1701   6.1720   6.1862   6.1910
  6.2413   6.2572   6.2759   6.2808   6.3089   6.3172   6.3212   6.4137
  6.4449   6.4614   6.5012   6.5423   6.5566   6.5569   6.5734   6.6523
  6.6773   6.6832   6.7258   6.7457   6.7552   6.8040   6.8550   6.8610
  6.8862   6.8927   6.9922   7.1190   7.1388   7.1788   7.2121   7.2152
  7.2341   7.3205   7.3271   7.3325   7.3719   7.3771   7.4318   7.4630
  7.4782   7.4848   7.4888   7.5272   7.5503   7.6135   7.7194   7.7673
  7.7964   7.8321   7.9065   7.9213   7.9480   8.0087   8.0882   8.1840
  8.6639   8.9394   9.0366   9.3639   9.5045   9.7128  10.2079  10.6971
 11.2705  11.3414  11.9459  12.0090  12.1342  12.2755  12.4075  12.5908
 12.6702  12.7916  12.9528  13.2195  13.2777  13.5631  13.8473  13.8941
 13.9066  14.0383  14.1659  14.8938  15.2168
 --------------------------------------------------------------
 
          Ground-State Mulliken Net Atomic Charges

     Atom                 Charge (a.u.)
  ----------------------------------------
      1 C                    -0.185994
      2 C                    -0.255199
      3 S                    -0.019644
      4 C                    -0.012020
      5 H                     0.196515
      6 C                    -0.029419
      7 C                     0.250577
      8 C                     0.240083
      9 C                    -0.038989
     10 C                    -0.037254
     11 O                    -0.333092
     12 O                    -0.338810
     13 C                    -0.086183
     14 H                     0.124325
     15 H                     0.091227
     16 H                     0.094240
     17 C                    -0.087999
     18 H                     0.125844
     19 H                     0.094951
     20 H                     0.089707
     21 C                    -0.202325
     22 S                    -0.033902
     23 C                    -0.031612
     24 H                     0.200753
     25 H                     0.206936
     26 C                    -0.018138
     27 S                     0.086482
     28 C                    -0.241289
     29 C                    -0.055507
     30 C                    -0.019366
     31 C                     0.388572
     32 C                    -0.141788
     33 S                     0.036323
     34 C                     0.460660
     35 O                    -0.452375
     36 O                    -0.298039
     37 F                    -0.215438
     38 C                    -0.055114
     39 H                     0.116624
     40 H                     0.084388
     41 H                     0.084359
     42 H                     0.216930
  ----------------------------------------
  Sum of atomic charges =     0.000000

 -----------------------------------------------------------------
                    Cartesian Multipole Moments
 -----------------------------------------------------------------
    Charge (ESU x 10^10)
                -0.0000
    Dipole Moment (Debye)
         X       0.5212      Y       1.0969      Z       3.1434
       Tot       3.3698
    Quadrupole Moments (Debye-Ang)
        XX    -201.4661     XY       0.2437     YY    -156.6131
        XZ       2.0417     YZ      -9.1933     ZZ    -181.7107
    Octopole Moments (Debye-Ang^2)
       XXX     -42.0571    XXY     392.4834    XYY      -3.5405
       YYY     871.0357    XXZ     194.7928    XYZ     -19.7336
       YYZ     128.3405    XZZ      -1.8518    YZZ     382.5753
       ZZZ     593.5507
    Hexadecapole Moments (Debye-Ang^3)
      XXXX    -486.3800   XXXY    -239.9926   XXYY   -3953.1159
      XYYY    -219.3898   YYYY  -18470.3487   XXXZ    -207.5622
      XXYZ     300.4583   XYYZ       4.5174   YYYZ     813.6943
      XXZZ   -1390.4082   XYZZ     -28.5578   YYZZ   -3992.9317
      XZZZ    -178.9927   YZZZ     276.8848   ZZZZ   -7414.5795
 -----------------------------------------------------------------
 Total job time:  287.60s(wall), 9687.48s(cpu) 
 Tue Sep 26 18:46:23 2023

        *************************************************************
        *                                                           *
        *  Thank you very much for using Q-Chem.  Have a nice day.  *
        *                                                           *
        *************************************************************


0 sent ACK to 0 
now end server 0 ... 
cleanup process ... done
remove work dirs ./qchem1195728.0 -- ./qchem1195728.0
rm -rf ./qchem1195728.0
rm -rf ./qchem1195728
