LAMMPS data file Created by LigParGen - (Written by Leela S. Dodda)

      39 atoms
      43 bonds
      73 angles
     108 dihedrals
      24 impropers
 
      39 atom types
      43 bond types
      73 angle types
     108 dihedral types
      24 improper types
 
   -5.372230    44.627770 xlo xhi
    0.107380    50.107380 ylo yhi
   -9.912930    40.087070 zlo zhi

Masses

       1     12.011  
       2     12.011  
       3     12.011  
       4     12.011  
       5      1.008  
       6     12.011  
       7     12.011  
       8     12.011  
       9     12.011  
      10     12.011  
      11     12.011  
      12      1.008  
      13     12.011  
      14     12.011  
      15     14.007  
      16     12.011  
      17     12.011  
      18     14.007  
      19     15.999  
      20     15.999  
      21     15.999  
      22     15.999  
      23     12.011  
      24      1.008  
      25      1.008  
      26      1.008  
      27     12.011  
      28      1.008  
      29      1.008  
      30      1.008  
      31      1.008  
      32     12.011  
      33     32.060  
      34     12.011  
      35     12.011  
      36     12.011  
      37      1.008  
      38      1.008  
      39      1.008  

Pair Coeffs 

       1      0.076  3.5500000 
       2      0.076  3.5500000 
       3      0.080  3.5000000 
       4      0.080  3.5000000 
       5      0.030  2.4200000 
       6      0.080  3.5000000 
       7      0.080  3.5000000 
       8      0.080  3.5000000 
       9      0.080  3.5000000 
      10      0.076  3.5500000 
      11      0.070  3.5500000 
      12      0.030  2.4200000 
      13      0.070  3.5500000 
      14      0.070  3.5500000 
      15      0.170  3.2500000 
      16      0.070  3.5500000 
      17      0.070  3.5500000 
      18      0.170  3.2500000 
      19      0.210  2.9600000 
      20      0.210  2.9600000 
      21      0.210  2.9600000 
      22      0.210  2.9600000 
      23      0.066  3.5000000 
      24      0.030  2.5000000 
      25      0.030  2.5000000 
      26      0.030  2.5000000 
      27      0.066  3.5000000 
      28      0.030  2.5000000 
      29      0.030  2.5000000 
      30      0.030  2.5000000 
      31      0.030  2.4200000 
      32      0.070  3.5500000 
      33      0.355  3.6000000 
      34      0.070  3.5500000 
      35      0.070  3.5500000 
      36      0.070  3.5500000 
      37      0.030  2.4200000 
      38      0.030  2.4200000 
      39      0.030  2.4200000 

Bond Coeffs 

       1   549.0000     1.3450 
       2   427.0000     1.4330 
       3   427.0000     1.4330 
       4   412.5200     1.0500 
       5   520.0000     1.3700 
       6   520.0000     1.3700 
       7   520.0000     1.3700 
       8   520.0000     1.3700 
       9   427.0000     1.4330 
      10   469.0000     1.4000 
      11   412.5200     1.0500 
      12   447.0000     1.4190 
      13   447.0000     1.4190 
      14   418.0000     1.3880 
      15   447.0000     1.4190 
      16   447.0000     1.4190 
      17   418.0000     1.3880 
      18   570.0000     1.2290 
      19   570.0000     1.2290 
      20   570.0000     1.2290 
      21   570.0000     1.2290 
      22   337.0000     1.4750 
      23   340.0000     1.0900 
      24   340.0000     1.0900 
      25   340.0000     1.0900 
      26   337.0000     1.4750 
      27   340.0000     1.0900 
      28   340.0000     1.0900 
      29   340.0000     1.0900 
      30   412.5200     1.0500 
      31   385.0000     1.4600 
      32   250.0000     1.7400 
      33   250.0000     1.7400 
      34   546.0000     1.3670 
      35   546.0000     1.3670 
      36   367.0000     1.0800 
      37   367.0000     1.0800 
      38   367.0000     1.0800 
      39   520.0000     1.3700 
      40   427.0000     1.4330 
      41   418.0000     1.3880 
      42   418.0000     1.3880 
      43   469.0000     1.4240 

Angle Coeffs 

       1     85.000    117.000
       2     85.000    117.000
       3     60.000    122.260
       4     70.000    124.000
       5     70.000    124.000
       6     85.000    117.300
       7     85.000    117.300
       8     70.000    124.000
       9     85.000    117.300
      10     60.000    122.260
      11     77.270    119.730
      12     85.000    119.200
      13     70.000    111.300
      14     77.270    119.730
      15     85.000    119.200
      16     70.000    111.300
      17     80.000    128.800
      18     80.000    128.800
      19     80.000    128.800
      20     80.000    128.800
      21     63.000    112.400
      22     35.000    109.500
      23     35.000    109.500
      24     35.000    109.500
      25     63.000    112.400
      26     35.000    109.500
      27     35.000    109.500
      28     35.000    109.500
      29     60.000    122.260
      30     63.000    120.000
      31     70.000    111.170
      32     74.000     97.000
      33     70.000    132.100
      34     70.000    111.170
      35     35.000    125.700
      36     35.000    125.700
      37     35.000    125.000
      38     33.000    107.800
      39     85.000    117.300
      40     70.000    124.000
      41     70.000    111.170
      42     60.000    122.260
      43     85.000    119.200
      44     33.000    107.800
      45     85.000    119.200
      46     60.000    122.260
      47     70.000    111.300
      48     80.000    120.600
      49     85.000    120.000
      50     70.000    126.400
      51     35.000    127.500
      52     70.000    107.300
      53     70.000    126.400
      54     63.000    112.400
      55     70.000    111.300
      56     60.000    122.260
      57     33.000    107.800
      58     80.000    120.600
      59     80.000    120.600
      60     85.000    117.300
      61     60.000    122.260
      62     35.000    127.500
      63     33.000    107.800
      64     35.000    132.100
      65     63.000    112.400
      66     85.000    117.300
      67     33.000    107.800
      68     64.270    120.730
      69     77.270    119.730
      70     33.000    107.800
      71     80.000    120.600
      72     85.000    117.300
      73     70.000    107.300

Dihedral Coeffs  

       1      1.423      4.055      0.858      0.000 
       2      0.000      0.000     -0.372      0.000 
       3      0.000      0.000     -0.372      0.000 
       4      0.000      7.250      0.000      0.000 
       5      0.000      7.250      0.000      0.000 
       6      0.000      7.000      0.000      0.000 
       7      0.000      7.000      0.000      0.000 
       8      0.000      0.000      0.000      0.000 
       9      0.000      0.000      0.000      0.000 
      10      0.000      2.170      0.000      0.000 
      11      0.000      0.000      0.000      0.000 
      12      0.000      0.000      0.000      0.000 
      13      0.000      4.900      0.000      0.000 
      14      0.000      7.000      0.000      0.000 
      15      0.000      7.000      0.000      0.000 
      16      0.000      2.100      0.000      0.000 
      17      0.000      7.250      0.000      0.000 
      18      0.000      7.250      0.000      0.000 
      19      0.000      2.170      0.000      0.000 
      20      0.000      7.250      0.000      0.000 
      21      0.000      4.900      0.000      0.000 
      22      0.000      2.170      0.000      0.000 
      23      0.000      2.170      0.000      0.000 
      24      0.000      4.900      0.000      0.000 
      25      0.000      7.000      0.000      0.000 
      26      0.000      7.250      0.000      0.000 
      27      0.000      0.000      0.000      0.000 
      28      0.000      4.900      0.000      0.000 
      29      0.000      0.000      0.000      0.000 
      30      0.000      0.000     -0.372      0.000 
      31      0.000      7.250      0.000      0.000 
      32      0.000      2.170      0.000      0.000 
      33      0.000      7.250      0.000      0.000 
      34      0.000      0.000     -0.372      0.000 
      35      0.000      7.000      0.000      0.000 
      36      0.000      2.170      0.000      0.000 
      37      0.000      4.900      0.000      0.000 
      38      0.000      2.170      0.000      0.000 
      39      0.000      0.000      0.000      0.000 
      40      0.000      0.000      0.000      0.000 
      41      0.000      7.250      0.000      0.000 
      42      0.000      7.250      0.000      0.000 
      43      0.000      7.250      0.000      0.000 
      44      0.000      7.250      0.000      0.000 
      45      0.000      7.250      0.000      0.000 
      46      0.000      7.000      0.000      0.000 
      47      0.000     14.000      0.000      0.000 
      48      0.000      4.900      0.000      0.000 
      49      0.000      7.000      0.000      0.000 
      50      0.000      4.900      0.000      0.000 
      51      0.000      7.250      0.000      0.000 
      52      0.000      7.250      0.000      0.000 
      53      0.000      7.250      0.000      0.000 
      54      0.000      7.250      0.000      0.000 
      55      0.000      7.000      0.000      0.000 
      56      0.000      4.900      0.000      0.000 
      57      0.000      7.000      0.000      0.000 
      58      0.000     14.000      0.000      0.000 
      59      0.000      7.250      0.000      0.000 
      60      0.000      7.250      0.000      0.000 
      61      0.000      7.000      0.000      0.000 
      62      0.000      7.000      0.000      0.000 
      63      0.000      0.000      0.000      0.000 
      64      0.000      7.250      0.000      0.000 
      65      0.000      7.250      0.000      0.000 
      66      0.000      0.000      0.000      0.000 
      67      0.000      7.250      0.000      0.000 
      68      0.000      0.000      0.000      0.000 
      69      0.000      4.900      0.000      0.000 
      70      0.000      7.250      0.000      0.000 
      71      0.000      7.250      0.000      0.000 
      72      0.000      7.250      0.000      0.000 
      73      0.000      7.250      0.000      0.000 
      74      0.000      0.000      0.000      0.000 
      75      0.000      0.000      0.000      0.000 
      76      0.000      7.250      0.000      0.000 
      77      0.000      7.250      0.000      0.000 
      78      0.000      7.250      0.000      0.000 
      79      0.000      2.170      0.000      0.000 
      80      0.000      7.000      0.000      0.000 
      81      0.000      7.250      0.000      0.000 
      82      0.000      7.250      0.000      0.000 
      83      0.000      4.900      0.000      0.000 
      84      0.000      0.000     -0.372      0.000 
      85      0.000      7.250      0.000      0.000 
      86      0.000      4.900      0.000      0.000 
      87      0.000      2.100      0.000      0.000 
      88      0.000      7.250      0.000      0.000 
      89      0.000      7.250      0.000      0.000 
      90      0.000      7.250      0.000      0.000 
      91      0.000     14.000      0.000      0.000 
      92      0.000      0.000     -0.372      0.000 
      93      0.000      4.900      0.000      0.000 
      94      0.000      4.900      0.000      0.000 
      95      0.000      4.900      0.000      0.000 
      96      0.000      7.250      0.000      0.000 
      97      0.000      0.000     -0.372      0.000 
      98      0.000      0.000     -0.372      0.000 
      99      0.000      4.900      0.000      0.000 
     100      0.000      0.000     -0.372      0.000 
     101      0.000      7.000      0.000      0.000 
     102      0.000      7.000      0.000      0.000 
     103      0.000      7.000      0.000      0.000 
     104      0.000      7.250      0.000      0.000 
     105      0.000      4.900      0.000      0.000 
     106      0.000      0.000     -0.372      0.000 
     107      0.000      0.000      0.000      0.000 
     108      0.000      0.000      0.000      0.000 

Improper Coeffs 

       1      2.500      -1       2 
       2      2.500      -1       2 
       3      2.500      -1       2 
       4      2.500      -1       2 
       5      2.500      -1       2 
       6      2.500      -1       2 
       7      2.500      -1       2 
       8      2.500      -1       2 
       9     10.500      -1       2 
      10     10.500      -1       2 
      11     10.500      -1       2 
      12     10.500      -1       2 
      13      0.000      -1       2 
      14      0.000      -1       2 
      15      0.000      -1       2 
      16      0.000      -1       2 
      17      0.000      -1       2 
      18      0.000      -1       2 
      19      2.500      -1       2 
      20      2.500      -1       2 
      21      2.500      -1       2 
      22      2.500      -1       2 
      23      2.500      -1       2 
      24      2.500      -1       2 

Atoms 

1	1	1	-0.05230000	0.197767	-6.741404	0.164018
2	1	2	-0.08700000	1.198109	-6.155638	1.003240
3	1	3	-0.09740000	-0.632428	-5.791452	-0.533192
4	1	4	-0.12030000	1.411364	-4.803786	1.182482
5	1	5	0.19150000	1.870845	-6.821518	1.567483
6	1	6	-0.01460000	-0.409419	-4.378638	-0.345145
7	1	7	0.01770000	0.609565	-3.838032	0.510347
8	1	8	-0.10020000	-1.210332	-3.413062	-1.016449
9	1	9	-0.10600000	0.830799	-2.426473	0.696879
10	1	10	-0.10500000	-0.999856	-2.059348	-0.839039
11	1	11	0.13040000	0.000000	-1.478216	0.000000
12	1	12	0.19910000	-1.673483	-1.394783	-1.403737
13	1	13	0.64020000	-1.736282	-6.187987	-1.461835
14	1	14	0.63820000	-2.306183	-3.798164	-1.936119
15	1	15	-0.92900000	-2.491597	-5.170003	-2.093916
16	1	16	0.64590000	2.510310	-4.424987	2.104529
17	1	17	0.64690000	1.936153	-2.036627	1.625377
18	1	18	-0.92670000	2.691451	-3.049156	2.257873
19	1	19	-0.40190000	-2.034222	-7.353131	-1.715561
20	1	20	-0.40330000	-3.014044	-2.986854	-2.528858
21	1	21	-0.40830000	3.209622	-5.248946	2.690385
22	1	22	-0.41940000	2.251529	-0.878829	1.891876
23	1	23	0.05410000	-3.573032	-5.563799	-3.002711
24	1	24	0.11830000	-3.606932	-6.664085	-3.032655
25	1	25	0.11830000	-3.382888	-5.147101	-4.010326
26	1	26	0.11830000	-4.533125	-5.148785	-2.640711
27	1	27	0.05580000	3.756832	-2.587487	3.152408
28	1	28	0.11700000	4.249778	-3.483329	3.564653
29	1	29	0.11700000	3.328759	-1.964972	3.960905
30	1	30	0.11700000	4.477709	-1.962932	2.591422
31	1	31	0.20610000	0.055524	-7.822318	0.044245
32	1	32	-0.16390000	0.000000	0.000000	0.000000
33	1	33	0.01600000	0.205093	0.766196	1.580530
34	1	34	-0.16980000	0.628939	2.348114	0.904911
35	1	35	-0.08640000	0.258137	0.964028	-0.985400
36	1	36	-0.18460000	0.599745	2.239309	-0.493528
37	1	37	0.23590000	0.197169	0.736404	-2.059934
38	1	38	0.18280000	0.827678	3.090243	-1.152593
39	1	39	0.20950000	0.856796	3.198808	1.556025

Bonds 

     1      1      2      1
     2      2      3      1
     3      3      4      2
     4      4      5      2
     5      5      6      3
     6      6      7      4
     7      7      8      6
     8      8      9      7
     9      9     10      8
    10     10     11      9
    11     11     12     10
    12     12     13      3
    13     13     14      8
    14     14     15     13
    15     15     16      4
    16     16     17      9
    17     17     18     16
    18     18     19     13
    19     19     20     14
    20     20     21     16
    21     21     22     17
    22     22     23     15
    23     23     24     23
    24     24     25     23
    25     25     26     23
    26     26     27     18
    27     27     28     27
    28     28     29     27
    29     29     30     27
    30     30     31      1
    31     31     32     11
    32     32     33     32
    33     33     34     33
    34     34     35     32
    35     35     36     34
    36     36     37     35
    37     37     38     36
    38     38     39     34
    39     39      7      6
    40     40     11     10
    41     41     15     14
    42     42     18     17
    43     43     36     35

Angles 

     1      1      2      1      3
     2      2      1      2      4
     3      3      1      2      5
     4      4      1      3      6
     5      5      2      4      7
     6      6      3      6      8
     7      7      4      7      9
     8      8      6      8     10
     9      9      7      9     11
    10     10      8     10     12
    11     11      1      3     13
    12     12      6      8     14
    13     13      3     13     15
    14     14      2      4     16
    15     15      7      9     17
    16     16      4     16     18
    17     17      3     13     19
    18     18      8     14     20
    19     19      4     16     21
    20     20      9     17     22
    21     21     13     15     23
    22     22     15     23     24
    23     23     15     23     25
    24     24     15     23     26
    25     25     16     18     27
    26     26     18     27     28
    27     27     18     27     29
    28     28     18     27     30
    29     29      2      1     31
    30     30      9     11     32
    31     31     11     32     33
    32     32     32     33     34
    33     33     11     32     35
    34     34     33     34     36
    35     35     32     35     37
    36     36     34     36     38
    37     37     33     34     39
    38     38     28     27     30
    39     39      3      6      7
    40     40      9     11     10
    41     41     33     32     35
    42     42     11     10     12
    43     43      7      4     16
    44     44     28     27     29
    45     45      6      3     13
    46     46      4      2      5
    47     47      9     17     18
    48     48     15     13     19
    49     49     11      9     17
    50     50     13     15     14
    51     51     35     36     38
    52     52     34     36     35
    53     53     16     18     17
    54     54     17     18     27
    55     55      8     14     15
    56     56      8     10     11
    57     57     24     23     25
    58     58     15     14     20
    59     59     18     16     21
    60     60      7      6      8
    61     61      3      1     31
    62     62     36     35     37
    63     63     24     23     26
    64     64     36     34     39
    65     65     14     15     23
    66     66      6      7      9
    67     67     29     27     30
    68     68     10     11     32
    69     69     10      8     14
    70     70     25     23     26
    71     71     18     17     22
    72     72      4      7      6
    73     73     32     35     36

Dihedrals

     1      1      4      2      1      3 
     2      2      6      3      1      2 
     3      3      7      4      2      1 
     4      4     10      8      6      3 
     5      5     11      9      7      4 
     6      6     15     13      3      1 
     7      7     18     16      4      2 
     8      8     24     23     15     13 
     9      9     28     27     18     16 
    10     10     33     32     11      9 
    11     11     34     33     32     11 
    12     12     36     34     33     32 
    13     13     21     16     18     17 
    14     14     22     17      9     11 
    15     15     15     14      8     10 
    16     16     35     36     34     33 
    17     17     39     34     36     38 
    18     18     13      3      6      8 
    19     19     36     35     32     11 
    20     20     11     10      8      6 
    21     21     17     18     16      4 
    22     22     34     36     35     32 
    23     23      9     11     10      8 
    24     24     19     13     15     14 
    25     25     15     13      3      6 
    26     26     37     35     32     11 
    27     27     25     23     15     14 
    28     28     23     15     13      3 
    29     29     26     23     15     13 
    30     30     31      1      3      6 
    31     31     17      9      7      4 
    32     32     35     32     11     10 
    33     33     14      8      6      7 
    34     34     14      8     10     12 
    35     35     18     17      9      7 
    36     36     33     32     11     10 
    37     37     27     18     17      9 
    38     38     35     32     11      9 
    39     39     29     27     18     16 
    40     40     25     23     15     13 
    41     41     17      9      7      6 
    42     42      9      7      6      8 
    43     43     32     11     10     12 
    44     44     11      9      7      6 
    45     45      6      7      4      2 
    46     46     21     16      4      7 
    47     47     31      1      2      4 
    48     48     23     15     13     19 
    49     49     20     14      8      6 
    50     50     14     15     13      3 
    51     51      9      7      6      3 
    52     52      8      6      7      4 
    53     53     38     36     34     33 
    54     54     37     35     36     34 
    55     55     15     14      8      6 
    56     56     16     18     17      9 
    57     57     19     13      3      6 
    58     58     31      1      2      5 
    59     59     16      4      7      9 
    60     60      9      7      4      2 
    61     61     19     13      3      1 
    62     62     20     14      8     10 
    63     63     30     27     18     17 
    64     64      8      6      3      1 
    65     65     16      4      7      6 
    66     66     35     32     33     34 
    67     67     12     10     11      9 
    68     68     24     23     15     14 
    69     69     27     18     16      4 
    70     70     38     36     35     32 
    71     71     14      8      6      3 
    72     72     10      8      6      7 
    73     73     38     36     35     37 
    74     74     26     23     15     14 
    75     75     28     27     18     17 
    76     76     37     35     32     33 
    77     77      7      6      3      1 
    78     78     10     11      9      7 
    79     79     32     11     10      8 
    80     80     18     16      4      7 
    81     81     39     34     33     32 
    82     82      4      7      6      3 
    83     83     23     15     14     20 
    84     84     13      3      1      2 
    85     85     32     11      9      7 
    86     86     27     18     16     21 
    87     87     36     35     32     33 
    88     88     17      9     11     10 
    89     89     13      3      6      7 
    90     90     14      8     10     11 
    91     91      5      2      1      3 
    92     92     12     10      8      6 
    93     93     27     18     17     22 
    94     94     22     17     18     16 
    95     95     13     15     14      8 
    96     96     32     11      9     17 
    97     97     16      4      2      5 
    98     98      7      4      2      5 
    99     99     23     15     14      8 
   100    100     16      4      2      1 
   101    101     21     16      4      2 
   102    102     22     17      9      7 
   103    103     18     17      9     11 
   104    104     39     34     36     35 
   105    105     20     14     15     13 
   106    106     31      1      3     13 
   107    107     29     27     18     17 
   108    108     30     27     18     16 

Impropers

     1      1      2      1      4      5 
     2      2      6      3      7      8 
     3      3      7      9      4      6 
     4      4     10     11     12      8 
     5      5      3      1     13      6 
     6      6      8     10      6     14 
     7      7      4      2      7     16 
     8      8      9     17     11      7 
     9      9     13     19      3     15 
    10     10     14     20     15      8 
    11     11     16     18      4     21 
    12     12     17      9     22     18 
    13     13     15     13     23     14 
    14     14     23     25     15     24 
    15     15     23     26     15     24 
    16     16     18     17     27     16 
    17     17     27     18     28     29 
    18     18     27     18     28     30 
    19     19      1      2      3     31 
    20     20     11      9     10     32 
    21     21     32     33     35     11 
    22     22     35     36     37     32 
    23     23     36     34     35     38 
    24     24     34     33     36     39 
