You are running Q-Chem version: 5.4.0

#
# job setting
#
local host:  exp-4-42
current dir: /home/rramji/project-csd799/aromodel/pndit-qchem/methylated-rotation-run
input file:  Dimethyl_Naphthalene_Dicarboximide_Phi_20_Theta_160_Thiophene_Hydrogenated_Improper.qcin
output file: 
nprocs     : 1
nthreads   : 64
#
# qchem installation setting
#
QC:          /cm/shared/apps/spack/cpu/opt/spack/linux-centos8-zen2/gcc-10.2.0/qchem-5.4-akfmr7b3t57bfs6qan3padb2wnb2i7cl
QCAUX:       /cm/shared/apps/spack/cpu/opt/spack/linux-centos8-zen2/gcc-10.2.0/qchem-5.4-akfmr7b3t57bfs6qan3padb2wnb2i7cl/qcaux
QCPROG:      /cm/shared/apps/spack/cpu/opt/spack/linux-centos8-zen2/gcc-10.2.0/qchem-5.4-akfmr7b3t57bfs6qan3padb2wnb2i7cl/exe/qcprog.exe
QCPROG_S:    /cm/shared/apps/spack/cpu/opt/spack/linux-centos8-zen2/gcc-10.2.0/qchem-5.4-akfmr7b3t57bfs6qan3padb2wnb2i7cl/exe/qcprog.exe_s
PARALLEL:    -DPARALLEL
QCMPI:       mpich
#
# qchem directory setting
#
qcrun:       qchem2791908
QCSCRATCH:   .
QCLOCALSCR:  
QCTMPDIR:    .
QCFILEPREF:  ./qchem2791908
QCSAVEDIR:   
workdirs:    ./qchem2791908
workdir0:    ./qchem2791908
partmpdirs =  
#
# parallel setting
#
QCRSH:           ssh
QCMPI:           mpich
QCMPIRUN:        /cm/shared/apps/spack/cpu/opt/spack/linux-centos8-zen2/gcc-10.2.0/qchem-5.4-akfmr7b3t57bfs6qan3padb2wnb2i7cl/bin/mpi/mpirun_qchem
QCMACHINEFILE:   ./qchem2791908/hostfile
exp-4-42

#
# env setting
#
exported envs:   QC QCAUX QCSCRATCH QCRUNNAME QCFILEPREF QCPROG QCPROG_S GUIFILE

Running Job 1 of 1 Dimethyl_Naphthalene_Dicarboximide_Phi_20_Theta_160_Thiophene_Hydrogenated_Improper.qcin
qchem Dimethyl_Naphthalene_Dicarboximide_Phi_20_Theta_160_Thiophene_Hydrogenated_Improper.qcin_2791908.0 ./qchem2791908/ 1
/cm/shared/apps/spack/cpu/opt/spack/linux-centos8-zen2/gcc-10.2.0/qchem-5.4-akfmr7b3t57bfs6qan3padb2wnb2i7cl/bin/mpi/mpirun_qchem -machinefile ./qchem2791908/hostfile -np 1 /cm/shared/apps/spack/cpu/opt/spack/linux-centos8-zen2/gcc-10.2.0/qchem-5.4-akfmr7b3t57bfs6qan3padb2wnb2i7cl/exe/qcprog.exe Dimethyl_Naphthalene_Dicarboximide_Phi_20_Theta_160_Thiophene_Hydrogenated_Improper.qcin_2791908.0 ./qchem2791908/

Process 0 of 1 is on exp-4-42 - thread support 0
initial socket setup ...start
initial socket setup ...done 
now start server 0 ... 
                  Welcome to Q-Chem
     A Quantum Leap Into The Future Of Chemistry


 Q-Chem 5.4, Q-Chem, Inc., Pleasanton, CA (2021)

 License issued to: University of California, San Diego (site)

 E. Epifanovsky,  A. T. B. Gilbert,  Xintian Feng,  Joonho Lee,  Yuezhi Mao,  
 N. Mardirossian,  P. Pokhilko,  A. White,  M. Wormit,  M. P. Coons,  
 A. L. Dempwolff,  Zhengting Gan,  D. Hait,  P. R. Horn,  L. D. Jacobson,  
 I. Kaliman,  J. Kussmann,  A. W. Lange,  Ka Un Lao,  D. S. Levine,  Jie Liu,  
 S. C. McKenzie,  A. F. Morrison,  K. Nanda,  F. Plasser,  D. R. Rehn,  
 M. L. Vidal,  Zhi-Qiang You,  Ying Zhu,  B. Alam,  B. Albrecht,  
 A. Aldossary,  E. Alguire,  J. H. Andersen,  D. Barton,  K. Begam,  A. Behn,  
 Y. A. Bernard,  E. J. Berquist,  H. Burton,  A. Carreras,  K. Carter-Fenk,  
 R. Chakraborty,  A. D. Chien,  K. D. Closser,  V. Cofer-Shabica,  
 S. Dasgupta,  Jia Deng,  M. de Wergifosse,  M. Diedenhofen,  Hainam Do,  
 S. Ehlert,  Po-Tung Fang,  S. Fatehi,  Qingguo Feng,  J. Gayvert,  
 Qinghui Ge,  G. Gidofalvi,  M. Goldey,  J. Gomes,  C. Gonzalez-Espinoza,  
 S. Gulania,  A. Gunina,  M. W. D. Hanson-Heine,  P. H. P. Harbach,  
 A. W. Hauser,  M. F. Herbst,  M. Hernandez Vera,  M. Hodecker,  
 Z. C. Holden,  S. Houck,  Xunkun Huang,  Kerwin Hui,  B. C. Huynh,  
 M. Ivanov,  Hyunjun Ji,  Hanjie Jiang,  B. Kaduk,  S. Kaehler,  
 K. Khistyaev,  Jaehoon Kim,  P. Klunzinger,  Z. Koczor-Benda,  
 Joong Hoon Koh,  D. Kosenkov,  L. Koulias,  T. Kowalczyk,  C. M. Krauter,  
 K. Kue,  A. Kunitsa,  T. Kus,  A. Landau,  K. V. Lawler,  D. Lefrancois,  
 S. Lehtola,  Rain Li,  Yi-Pei Li,  Jiashu Liang,  M. Liebenthal,  
 Hung-Hsuan Lin,  You-Sheng Lin,  Fenglai Liu,  Kuan-Yu Liu,  
 M. Loipersberger,  A. Luenser,  A. Manjanath,  P. Manohar,  E. Mansoor,  
 S. F. Manzer,  Shan-Ping Mao,  A. V. Marenich,  T. Markovich,  S. Mason,  
 S. A. Maurer,  P. F. McLaughlin,  M. F. S. J. Menger,  J.-M. Mewes,  
 S. A. Mewes,  P. Morgante,  J. W. Mullinax,  T. S. Nguyen-Beck,  
 K. J. Oosterbaan,  G. Paran,  Alexander C. Paul,  Suranjan K. Paul,  
 F. Pavosevic,  Zheng Pei,  S. Prager,  E. I. Proynov,  E. Ramos,  B. Rana,  
 A. E. Rask,  A. Rettig,  R. M. Richard,  F. Rob,  E. Rossomme,  T. Scheele,  
 M. Scheurer,  M. Schneider,  N. Sergueev,  S. M. Sharada,  W. Skomorowski,  
 D. W. Small,  C. J. Stein,  Yu-Chuan Su,  E. J. Sundstrom,  Zhen Tao,  
 J. Thirman,  T. Tsuchimochi,  N. M. Tubman,  S. P. Veccham,  O. Vydrov,  
 J. Wenzel,  J. Witte,  A. Yamada,  Kun Yao,  S. Yeganeh,  S. R. Yost,  
 A. Zech,  Igor Ying Zhang,  Xing Zhang,  Yu Zhang,  D. Zuev,  
 A. Aspuru-Guzik,  A. T. Bell,  N. A. Besley,  K. B. Bravaya,  B. R. Brooks,  
 D. Casanova,  Jeng-Da Chai,  S. Coriani,  C. J. Cramer,  
 A. E. DePrince, III,  R. A. DiStasio Jr.,  A. Dreuw,  B. D. Dunietz,  
 T. R. Furlani,  W. A. Goddard III,  S. Grimme,  S. Hammes-Schiffer,  
 T. Head-Gordon,  W. J. Hehre,  Chao-Ping Hsu,  T.-C. Jagau,  Yousung Jung,  
 A. Klamt,  Jing Kong,  D. S. Lambrecht,  WanZhen Liang,  N. J. Mayhall,  
 C. W. McCurdy,  J. B. Neaton,  C. Ochsenfeld,  J. A. Parkhill,  R. Peverati,  
 V. A. Rassolov,  Yihan Shao,  L. V. Slipchenko,  T. Stauch,  R. P. Steele,  
 J. E. Subotnik,  A. J. W. Thom,  A. Tkatchenko,  D. G. Truhlar,  
 T. Van Voorhis,  T. A. Wesolowski,  K. B. Whaley,  H. L. Woodcock III,  
 P. M. Zimmerman,  S. Faraji,  P. M. W. Gill,  M. Head-Gordon,  
 J. M. Herbert,  A. I. Krylov

 Contributors to earlier versions of Q-Chem not listed above: 
 R. D. Adamson,  B. Austin,  R. Baer,  J. Baker,  G. J. O. Beran,  
 K. Brandhorst,  S. T. Brown,  E. F. C. Byrd,  A. K. Chakraborty,  
 G. K. L. Chan,  Chun-Min Chang,  Yunqing Chen,  C.-L. Cheng,  
 Siu Hung Chien,  D. M. Chipman,  D. L. Crittenden,  H. Dachsel,  
 R. J. Doerksen,  A. D. Dutoi,  R. G. Edgar,  J. Fosso-Tande,  
 L. Fusti-Molnar,  D. Ghosh,  A. Ghysels,  A. Golubeva-Zadorozhnaya,  
 J. Gonthier,  M. S. Gordon,  S. R. Gwaltney,  G. Hawkins,  J. E. Herr,  
 A. Heyden,  S. Hirata,  E. G. Hohenstein,  G. Kedziora,  F. J. Keil,  
 C. Kelley,  Jihan Kim,  R. A. King,  R. Z. Khaliullin,  P. P. Korambath,  
 W. Kurlancheek,  A. Laurent,  A. M. Lee,  M. S. Lee,  S. V. Levchenko,  
 Ching Yeh Lin,  D. Liotard,  E. Livshits,  R. C. Lochan,  I. Lotan,  
 L. A. Martinez-Martinez,  P. E. Maslen,  N. Nair,  D. P. O'Neill,  
 D. Neuhauser,  E. Neuscamman,  C. M. Oana,  R. Olivares-Amaya,  R. Olson,  
 T. M. Perrine,  B. Peters,  P. A. Pieniazek,  A. Prociuk,  Y. M. Rhee,  
 J. Ritchie,  M. A. Rohrdanz,  E. Rosta,  N. J. Russ,  H. F. Schaefer III,  
 M. W. Schmidt,  N. E. Schultz,  S. Sharma,  N. Shenvi,  C. D. Sherrill,  
 A. C. Simmonett,  A. Sodt,  T. Stein,  D. Stuck,  K. S. Thanthiriwatte,  
 V. Vanovschi,  L. Vogt,  Tao Wang,  A. Warshel,  M. A. Watson,  
 C. F. Williams,  Q. Wu,  X. Xu,  Jun Yang,  W. Zhang,  Yan Zhao

 Please cite Q-Chem as follows:
 Y. Shao et al., Mol. Phys. 113, 184-215 (2015)
 DOI: 10.1080/00268976.2014.952696

 Q-Chem 5.4.0 for Intel X86 EM64T Linux

 Parts of Q-Chem use Armadillo 9.800.1 (Horizon Scraper).
 http://arma.sourceforge.net/

 Q-Chem begins on Wed Dec 27 10:03:45 2023  

 Host: 
0

     Scratch files written to ./qchem2791908//
 May1621 |scratch|qcdevops|jenkins|workspace|build_RNUM    
 Parallel job on  1  processors
 Processing $rem in /cm/shared/apps/spack/cpu/opt/spack/linux-centos8-zen2/gcc-10.2.0/qchem-5.4-akfmr7b3t57bfs6qan3padb2wnb2i7cl/config/preferences:
 Processing $rem in /home/rramji/.qchemrc:
 Symmetry turned off for PCM/SM12/SMD calculation
 Core orbitals will be frozen

 Checking the input file for inconsistencies... 	...done.

 Q-Chem warning in module forms1/BasisType.C, line 2236:

 You are not using the predefined 5D/6D in this basis set.


--------------------------------------------------------------
User input:
--------------------------------------------------------------
$molecule
0 1
C	-0.171740	-0.368118	-0.215530
S	0.099360	0.377282	1.364970
C	0.659460	1.916282	0.689370
C	0.169460	0.569782	-1.200930
C	0.620860	1.810382	-0.709030
H	0.088860	0.348282	-2.275430
H	0.922160	2.638182	-1.368130
C	-0.171740	-1.846318	-0.215530
H	-1.186740	-1.846918	0.153370
H	-0.509140	-2.285618	-1.142630
H	0.106460	-2.557318	0.548370
H	0.960560	2.743882	1.340470
$end

$rem
JOBTYPE		SP
EXCHANGE	HF
CORRELATION	pRIMP2
BASIS		cc-pvtz
METHOD		rimp2
AUX_BASIS	rimp2-cc-pvtz
SOLVENT_METHOD	PCM
PURECART	11111
SYMMETRY	false
MEM_TOTAL	110000
SCF_CONVERGENCE = 6
THRESH=10
GUI = 2
$end



$solvent
dielectric 4.90
$end
--------------------------------------------------------------
 ----------------------------------------------------------------
             Standard Nuclear Orientation (Angstroms)
    I     Atom           X                Y                Z
 ----------------------------------------------------------------
    1      C      -0.1717400000    -0.3681180000    -0.2155300000
    2      S       0.0993600000     0.3772820000     1.3649700000
    3      C       0.6594600000     1.9162820000     0.6893700000
    4      C       0.1694600000     0.5697820000    -1.2009300000
    5      C       0.6208600000     1.8103820000    -0.7090300000
    6      H       0.0888600000     0.3482820000    -2.2754300000
    7      H       0.9221600000     2.6381820000    -1.3681300000
    8      C      -0.1717400000    -1.8463180000    -0.2155300000
    9      H      -1.1867400000    -1.8469180000     0.1533700000
   10      H      -0.5091400000    -2.2856180000    -1.1426300000
   11      H       0.1064600000    -2.5573180000     0.5483700000
   12      H       0.9605600000     2.7438820000     1.3404700000
 ----------------------------------------------------------------
 Nuclear Repulsion Energy =         270.65331639 hartrees
 There are       26 alpha and       26 beta electrons
 Requested basis set is cc-pVTZ
 There are 98 shells and 268 basis functions

 Total QAlloc Memory Limit 110000 MB
 Mega-Array Size       188 MB
 MEM_STATIC part       192 MB
 Discretize the solute cavity surface with Lebedev spheres
	Using 110 Lebedev grid points for each H atom
	Using 194 Lebedev grid points for other atoms
	Atomic van der Waals radii will be scaled by 1.20
 Remove points where switching function is < 1.0e-08
 Keep 895 surface tesserae and discard 929 interior tesserae
 Molecular Surface Area = 137.980 Angst**2

                       Distance Matrix (Angstroms)
             C (  1)   S (  2)   C (  3)   C (  4)   C (  5)   H (  6)
   S (  2)  1.768360
   C (  3)  2.593881  1.771629
   C (  4)  1.402529  2.574065  2.372003
   C (  5)  2.370152  2.574338  1.402935  1.408835
   H (  6)  2.196436  3.640531  3.402095  1.100049  2.207797
   H (  7)  3.400433  3.641223  2.196237  2.207440  1.100203  2.600235
   C (  8)  1.478200  2.741509  3.958143  2.631534  3.774018  3.021154
   H (  9)  1.831164  2.840615  4.225805  3.084452  4.169772  3.513563
   H ( 10)  2.156423  3.708014  4.730519  2.935508  4.271080  2.928868
   H ( 11)  2.335281  3.046106  4.509854  3.583682  4.574108  4.051749
   H ( 12)  3.658932  2.518543  1.095223  3.436752  2.277558  4.424194
             H (  7)   C (  8)   H (  9)   H ( 10)   H ( 11)
   C (  8)  4.757714
   H (  9)  5.184452  1.079960
   H ( 10)  5.132570  1.079971  1.526832
   H ( 11)  5.597460  1.080028  1.527436  1.819963
   H ( 12)  2.710934  4.977266  5.205338  5.798420  5.427673
 
 Requested basis set is rimp2-cc-pVTZ
 There are 207 shells and 707 basis functions
 A cutoff of  1.0D-10 yielded   4363 shell pairs
 There are     32767 function pairs (     42381 Cartesian)
 Smallest overlap matrix eigenvalue = 1.30E-04

 Scale SEOQF with 1.000000e+00/1.000000e-01/1.000000e-01

 Standard Electronic Orientation quadrupole field applied
 Nucleus-field energy     =     0.0000000042 hartrees
 Guess from superposition of atomic densities
 Warning:  Energy on first SCF cycle will be non-variational
 SAD guess density has 52.000000 electrons

 -----------------------------------------------------------------------
  General SCF calculation program by
  Eric Jon Sundstrom, Paul Horn, Yuezhi Mao, Dmitri Zuev, Alec White,
  David Stuck, Shaama M.S., Shane Yost, Joonho Lee, David Small,
  Daniel Levine, Susi Lehtola, Hugh Burton, Evgeny Epifanovsky,
  Bang C. Huynh
 -----------------------------------------------------------------------
 Hartree-Fock
 using 64 threads for integral computing
 -------------------------------------------------------
 OpenMP Integral computing Module                
 Release: version 1.0, May 2013, Q-Chem Inc. Pittsburgh 
 -------------------------------------------------------
 A restricted SCF calculation will be
 performed using DIIS
 SCF converges when DIIS error is below 1.0e-06
 ---------------------------------------
  Cycle       Energy         DIIS error
 ---------------------------------------
    1    -592.5757926428      3.22e-02  
    2    -590.2926222478      2.18e-03  
    3    -590.3533780043      8.27e-04  
    4    -590.3605571101      3.94e-04  
    5    -590.3625500244      7.24e-05  
    6    -590.3626797755      3.17e-05  
    7    -590.3627118197      1.49e-05  
    8    -590.3627216645      5.81e-06  
    9    -590.3627232519      2.01e-06  
   10    -590.3627234013      6.17e-07  Convergence criterion met
 ---------------------------------------
 SCF time:   CPU 482.49s  wall 9.00s 

************** Final PCM Free Energy Summary **************
 G_electrostatic  =      -0.00583763 hartree =      -3.66316932 kcal/mol
 G_cavitation     =       0.00000000 hartree =       0.00000000 kcal/mol
 G_dispersion     =       0.00000000 hartree =       0.00000000 kcal/mol
 G_repulsion      =       0.00000000 hartree =       0.00000000 kcal/mol
 --------------------------------------------------
 Non-electrostatic Free Energy =       0.00000000 hartree =       0.00000000 kcal/mol
 Total                         =      -0.00583763 hartree =      -3.66316932 kcal/mol
 --------------------------------------------------
 SCF Energy (H0 + V/2)                       =    -590.36272340 
 Solute Internal Energy (H0)                 =    -590.35688577 
 Total Free Energy (H0 + V/2 + non-elec)     =    -590.36272340 hartree
                                             = -370458.20025966 kcal/mol
***********************************************************

 SCF   energy in the final basis set =     -590.3627234013
 Total energy in the final basis set =     -590.3627234013


 --------------------------------------------------------------
  Generalized many-body perturbation theory program
  by Joonho Lee, Fazle Rob, Xintian Feng, Evgeny Epifanovsky

 No regularization used 
 (reg. param. = 0.0000e+00)
  (P|Q)^-1/2 Time:  CPU 5.94 s  wall 0.10 s

 In RI-MP2 calculation: 
 # of frozen core orbitals: 10

 Components of the RIMP2 correlation energy:
        aaaa    correlation energy =        -0.1254462778 a.u.
        abab    correlation energy =        -0.7519726843 a.u.
        bbbb    correlation energy =        -0.1254462778 a.u.
        non-Brillouin singles      =        -0.0000000000 a.u.
        total same-spin energy     =        -0.2508925556 a.u.
        total opposite-spin energy =        -0.7519726843 a.u.

 Total  RIMP2   correlation energy =        -1.0028652399 a.u.
        RIMP2         total energy =      -591.3655886412 a.u.

 RI-MP2 Energy Time:  CPU 25.30 s  wall 0.46 s
 
 --------------------------------------------------------------
 
                    Orbital Energies (a.u.)
 --------------------------------------------------------------
 
 Alpha MOs
 -- Occupied --
-91.9773 -11.2856 -11.2671 -11.2430 -11.2355 -11.2244  -8.9774  -6.6583
 -6.6578  -6.6572  -1.1575  -1.0391  -0.9720  -0.9193  -0.7562  -0.7214
 -0.6703  -0.5973  -0.5645  -0.5578  -0.5472  -0.4898  -0.4707  -0.4545
 -0.3462  -0.2994
 -- Virtual --
  0.1016   0.1465   0.1600   0.1828   0.1880   0.2012   0.2154   0.2213
  0.2302   0.2363   0.3056   0.3412   0.3458   0.3688   0.3877   0.4066
  0.4335   0.4490   0.4597   0.4871   0.4976   0.5078   0.5195   0.5302
  0.5525   0.5557   0.5722   0.5828   0.5949   0.6150   0.6170   0.6212
  0.6277   0.6359   0.6497   0.6609   0.6928   0.7021   0.7445   0.7596
  0.7792   0.7993   0.8444   0.8510   0.8612   0.8820   0.8945   0.9233
  0.9564   0.9735   1.0288   1.0439   1.0651   1.0856   1.1003   1.1042
  1.1329   1.1448   1.1742   1.1795   1.2170   1.2325   1.2443   1.2561
  1.2973   1.3206   1.3432   1.3514   1.3799   1.4114   1.4239   1.4572
  1.4718   1.4972   1.5047   1.5135   1.5380   1.5426   1.5604   1.5945
  1.6076   1.6217   1.6408   1.6894   1.7094   1.7459   1.7906   1.8001
  1.8290   1.8961   1.9043   1.9186   1.9449   2.0150   2.0402   2.0954
  2.1454   2.1699   2.2013   2.2172   2.2539   2.2755   2.3270   2.4101
  2.4356   2.4666   2.4846   2.5314   2.5593   2.6002   2.6283   2.6576
  2.6931   2.7122   2.7266   2.7500   2.7613   2.7767   2.7997   2.8291
  2.8707   2.8935   2.9131   2.9766   3.0025   3.0199   3.0344   3.0500
  3.0746   3.0776   3.1217   3.1370   3.1612   3.2060   3.2167   3.2433
  3.2633   3.2686   3.2895   3.3041   3.3266   3.3452   3.3596   3.3914
  3.4145   3.4212   3.4453   3.4531   3.4636   3.4771   3.4860   3.4938
  3.5154   3.5248   3.5484   3.5584   3.5915   3.5980   3.6137   3.6593
  3.6649   3.7000   3.7306   3.7448   3.7591   3.7877   3.7986   3.8574
  3.8835   3.9004   3.9124   3.9202   3.9498   3.9568   3.9779   3.9924
  3.9971   4.0121   4.0807   4.0935   4.1377   4.1679   4.1778   4.2057
  4.2166   4.2567   4.2851   4.2998   4.3147   4.3505   4.3715   4.3876
  4.4383   4.4445   4.4698   4.5153   4.5401   4.5532   4.5833   4.6333
  4.6676   4.7041   4.7095   4.7491   4.7933   4.8039   4.8184   4.8945
  4.9826   5.0082   5.0222   5.0426   5.0899   5.1392   5.1803   5.1893
  5.2021   5.2987   5.3605   5.4048   5.4229   5.5018   5.5169   5.5953
  5.6039   5.7296   5.7728   5.8462   5.9079   5.9812   6.0280   6.0535
  6.1056   6.3285   6.4367   6.4576   6.6532   9.3776  11.2846  12.8215
 13.9898  14.1188
 --------------------------------------------------------------
 
          Ground-State Mulliken Net Atomic Charges

     Atom                 Charge (a.u.)
  ----------------------------------------
      1 C                    -0.007742
      2 S                    -0.009804
      3 C                    -0.229149
      4 C                    -0.208388
      5 C                    -0.195260
      6 H                     0.184405
      7 H                     0.185033
      8 C                    -0.357929
      9 H                     0.133593
     10 H                     0.130796
     11 H                     0.169398
     12 H                     0.205048
  ----------------------------------------
  Sum of atomic charges =     0.000000

 -----------------------------------------------------------------
                    Cartesian Multipole Moments
 -----------------------------------------------------------------
    Charge (ESU x 10^10)
                -0.0000
    Dipole Moment (Debye)
         X      -0.2360      Y      -0.5593      Z      -0.8595
       Tot       1.0522
    Quadrupole Moments (Debye-Ang)
        XX     -47.0048     XY       4.1798     YY     -37.0551
        XZ       0.5780     YZ       0.1296     ZZ     -41.8004
    Octopole Moments (Debye-Ang^2)
       XXX     -25.6874    XXY     -16.5913    XYY      -2.1146
       YYY     -41.7566    XXZ      -6.8849    XYZ       0.3336
       YYZ      -2.1034    XZZ      -5.4603    YZZ     -10.1809
       ZZZ     -28.8268
    Hexadecapole Moments (Debye-Ang^3)
      XXXX    -107.4774   XXXY     -66.4439   XXYY    -104.7420
      XYYY     -34.4857   YYYY    -476.8683   XXXZ      -4.0575
      XXYZ      -4.9209   XYYZ       3.8759   YYYZ     -15.7513
      XXZZ     -72.9194   XYZZ     -11.1900   YYZZ    -119.8456
      XZZZ      -1.4613   YZZZ     -13.8798   ZZZZ    -306.6308
 -----------------------------------------------------------------
 Total job time:  10.29s(wall), 555.07s(cpu) 
 Wed Dec 27 10:03:56 2023

        *************************************************************
        *                                                           *
        *  Thank you very much for using Q-Chem.  Have a nice day.  *
        *                                                           *
        *************************************************************


0 sent ACK to 0 
now end server 0 ... 
cleanup process ... done
remove work dirs ./qchem2791908.0 -- ./qchem2791908.0
rm -rf ./qchem2791908.0
rm -rf ./qchem2791908
