You are running Q-Chem version: 5.4.0

#
# job setting
#
local host:  exp-6-47
current dir: /home/rramji/project-csd799/aromodel/pndit-qchem/methylated-rotation-run
input file:  Dimethyl_Naphthalene_Dicarboximide_Phi_30_Theta_10_Thiophene_Hydrogenated_Improper.qcin
output file: 
nprocs     : 1
nthreads   : 64
#
# qchem installation setting
#
QC:          /cm/shared/apps/spack/cpu/opt/spack/linux-centos8-zen2/gcc-10.2.0/qchem-5.4-akfmr7b3t57bfs6qan3padb2wnb2i7cl
QCAUX:       /cm/shared/apps/spack/cpu/opt/spack/linux-centos8-zen2/gcc-10.2.0/qchem-5.4-akfmr7b3t57bfs6qan3padb2wnb2i7cl/qcaux
QCPROG:      /cm/shared/apps/spack/cpu/opt/spack/linux-centos8-zen2/gcc-10.2.0/qchem-5.4-akfmr7b3t57bfs6qan3padb2wnb2i7cl/exe/qcprog.exe
QCPROG_S:    /cm/shared/apps/spack/cpu/opt/spack/linux-centos8-zen2/gcc-10.2.0/qchem-5.4-akfmr7b3t57bfs6qan3padb2wnb2i7cl/exe/qcprog.exe_s
PARALLEL:    -DPARALLEL
QCMPI:       mpich
#
# qchem directory setting
#
qcrun:       qchem2749461
QCSCRATCH:   .
QCLOCALSCR:  
QCTMPDIR:    .
QCFILEPREF:  ./qchem2749461
QCSAVEDIR:   
workdirs:    ./qchem2749461
workdir0:    ./qchem2749461
partmpdirs =  
#
# parallel setting
#
QCRSH:           ssh
QCMPI:           mpich
QCMPIRUN:        /cm/shared/apps/spack/cpu/opt/spack/linux-centos8-zen2/gcc-10.2.0/qchem-5.4-akfmr7b3t57bfs6qan3padb2wnb2i7cl/bin/mpi/mpirun_qchem
QCMACHINEFILE:   ./qchem2749461/hostfile
exp-6-47

#
# env setting
#
exported envs:   QC QCAUX QCSCRATCH QCRUNNAME QCFILEPREF QCPROG QCPROG_S GUIFILE

Running Job 1 of 1 Dimethyl_Naphthalene_Dicarboximide_Phi_30_Theta_10_Thiophene_Hydrogenated_Improper.qcin
qchem Dimethyl_Naphthalene_Dicarboximide_Phi_30_Theta_10_Thiophene_Hydrogenated_Improper.qcin_2749461.0 ./qchem2749461/ 1
/cm/shared/apps/spack/cpu/opt/spack/linux-centos8-zen2/gcc-10.2.0/qchem-5.4-akfmr7b3t57bfs6qan3padb2wnb2i7cl/bin/mpi/mpirun_qchem -machinefile ./qchem2749461/hostfile -np 1 /cm/shared/apps/spack/cpu/opt/spack/linux-centos8-zen2/gcc-10.2.0/qchem-5.4-akfmr7b3t57bfs6qan3padb2wnb2i7cl/exe/qcprog.exe Dimethyl_Naphthalene_Dicarboximide_Phi_30_Theta_10_Thiophene_Hydrogenated_Improper.qcin_2749461.0 ./qchem2749461/

Process 0 of 1 is on exp-6-47 - thread support 0
initial socket setup ...start
initial socket setup ...done 
now start server 0 ... 
                  Welcome to Q-Chem
     A Quantum Leap Into The Future Of Chemistry


 Q-Chem 5.4, Q-Chem, Inc., Pleasanton, CA (2021)

 License issued to: University of California, San Diego (site)

 E. Epifanovsky,  A. T. B. Gilbert,  Xintian Feng,  Joonho Lee,  Yuezhi Mao,  
 N. Mardirossian,  P. Pokhilko,  A. White,  M. Wormit,  M. P. Coons,  
 A. L. Dempwolff,  Zhengting Gan,  D. Hait,  P. R. Horn,  L. D. Jacobson,  
 I. Kaliman,  J. Kussmann,  A. W. Lange,  Ka Un Lao,  D. S. Levine,  Jie Liu,  
 S. C. McKenzie,  A. F. Morrison,  K. Nanda,  F. Plasser,  D. R. Rehn,  
 M. L. Vidal,  Zhi-Qiang You,  Ying Zhu,  B. Alam,  B. Albrecht,  
 A. Aldossary,  E. Alguire,  J. H. Andersen,  D. Barton,  K. Begam,  A. Behn,  
 Y. A. Bernard,  E. J. Berquist,  H. Burton,  A. Carreras,  K. Carter-Fenk,  
 R. Chakraborty,  A. D. Chien,  K. D. Closser,  V. Cofer-Shabica,  
 S. Dasgupta,  Jia Deng,  M. de Wergifosse,  M. Diedenhofen,  Hainam Do,  
 S. Ehlert,  Po-Tung Fang,  S. Fatehi,  Qingguo Feng,  J. Gayvert,  
 Qinghui Ge,  G. Gidofalvi,  M. Goldey,  J. Gomes,  C. Gonzalez-Espinoza,  
 S. Gulania,  A. Gunina,  M. W. D. Hanson-Heine,  P. H. P. Harbach,  
 A. W. Hauser,  M. F. Herbst,  M. Hernandez Vera,  M. Hodecker,  
 Z. C. Holden,  S. Houck,  Xunkun Huang,  Kerwin Hui,  B. C. Huynh,  
 M. Ivanov,  Hyunjun Ji,  Hanjie Jiang,  B. Kaduk,  S. Kaehler,  
 K. Khistyaev,  Jaehoon Kim,  P. Klunzinger,  Z. Koczor-Benda,  
 Joong Hoon Koh,  D. Kosenkov,  L. Koulias,  T. Kowalczyk,  C. M. Krauter,  
 K. Kue,  A. Kunitsa,  T. Kus,  A. Landau,  K. V. Lawler,  D. Lefrancois,  
 S. Lehtola,  Rain Li,  Yi-Pei Li,  Jiashu Liang,  M. Liebenthal,  
 Hung-Hsuan Lin,  You-Sheng Lin,  Fenglai Liu,  Kuan-Yu Liu,  
 M. Loipersberger,  A. Luenser,  A. Manjanath,  P. Manohar,  E. Mansoor,  
 S. F. Manzer,  Shan-Ping Mao,  A. V. Marenich,  T. Markovich,  S. Mason,  
 S. A. Maurer,  P. F. McLaughlin,  M. F. S. J. Menger,  J.-M. Mewes,  
 S. A. Mewes,  P. Morgante,  J. W. Mullinax,  T. S. Nguyen-Beck,  
 K. J. Oosterbaan,  G. Paran,  Alexander C. Paul,  Suranjan K. Paul,  
 F. Pavosevic,  Zheng Pei,  S. Prager,  E. I. Proynov,  E. Ramos,  B. Rana,  
 A. E. Rask,  A. Rettig,  R. M. Richard,  F. Rob,  E. Rossomme,  T. Scheele,  
 M. Scheurer,  M. Schneider,  N. Sergueev,  S. M. Sharada,  W. Skomorowski,  
 D. W. Small,  C. J. Stein,  Yu-Chuan Su,  E. J. Sundstrom,  Zhen Tao,  
 J. Thirman,  T. Tsuchimochi,  N. M. Tubman,  S. P. Veccham,  O. Vydrov,  
 J. Wenzel,  J. Witte,  A. Yamada,  Kun Yao,  S. Yeganeh,  S. R. Yost,  
 A. Zech,  Igor Ying Zhang,  Xing Zhang,  Yu Zhang,  D. Zuev,  
 A. Aspuru-Guzik,  A. T. Bell,  N. A. Besley,  K. B. Bravaya,  B. R. Brooks,  
 D. Casanova,  Jeng-Da Chai,  S. Coriani,  C. J. Cramer,  
 A. E. DePrince, III,  R. A. DiStasio Jr.,  A. Dreuw,  B. D. Dunietz,  
 T. R. Furlani,  W. A. Goddard III,  S. Grimme,  S. Hammes-Schiffer,  
 T. Head-Gordon,  W. J. Hehre,  Chao-Ping Hsu,  T.-C. Jagau,  Yousung Jung,  
 A. Klamt,  Jing Kong,  D. S. Lambrecht,  WanZhen Liang,  N. J. Mayhall,  
 C. W. McCurdy,  J. B. Neaton,  C. Ochsenfeld,  J. A. Parkhill,  R. Peverati,  
 V. A. Rassolov,  Yihan Shao,  L. V. Slipchenko,  T. Stauch,  R. P. Steele,  
 J. E. Subotnik,  A. J. W. Thom,  A. Tkatchenko,  D. G. Truhlar,  
 T. Van Voorhis,  T. A. Wesolowski,  K. B. Whaley,  H. L. Woodcock III,  
 P. M. Zimmerman,  S. Faraji,  P. M. W. Gill,  M. Head-Gordon,  
 J. M. Herbert,  A. I. Krylov

 Contributors to earlier versions of Q-Chem not listed above: 
 R. D. Adamson,  B. Austin,  R. Baer,  J. Baker,  G. J. O. Beran,  
 K. Brandhorst,  S. T. Brown,  E. F. C. Byrd,  A. K. Chakraborty,  
 G. K. L. Chan,  Chun-Min Chang,  Yunqing Chen,  C.-L. Cheng,  
 Siu Hung Chien,  D. M. Chipman,  D. L. Crittenden,  H. Dachsel,  
 R. J. Doerksen,  A. D. Dutoi,  R. G. Edgar,  J. Fosso-Tande,  
 L. Fusti-Molnar,  D. Ghosh,  A. Ghysels,  A. Golubeva-Zadorozhnaya,  
 J. Gonthier,  M. S. Gordon,  S. R. Gwaltney,  G. Hawkins,  J. E. Herr,  
 A. Heyden,  S. Hirata,  E. G. Hohenstein,  G. Kedziora,  F. J. Keil,  
 C. Kelley,  Jihan Kim,  R. A. King,  R. Z. Khaliullin,  P. P. Korambath,  
 W. Kurlancheek,  A. Laurent,  A. M. Lee,  M. S. Lee,  S. V. Levchenko,  
 Ching Yeh Lin,  D. Liotard,  E. Livshits,  R. C. Lochan,  I. Lotan,  
 L. A. Martinez-Martinez,  P. E. Maslen,  N. Nair,  D. P. O'Neill,  
 D. Neuhauser,  E. Neuscamman,  C. M. Oana,  R. Olivares-Amaya,  R. Olson,  
 T. M. Perrine,  B. Peters,  P. A. Pieniazek,  A. Prociuk,  Y. M. Rhee,  
 J. Ritchie,  M. A. Rohrdanz,  E. Rosta,  N. J. Russ,  H. F. Schaefer III,  
 M. W. Schmidt,  N. E. Schultz,  S. Sharma,  N. Shenvi,  C. D. Sherrill,  
 A. C. Simmonett,  A. Sodt,  T. Stein,  D. Stuck,  K. S. Thanthiriwatte,  
 V. Vanovschi,  L. Vogt,  Tao Wang,  A. Warshel,  M. A. Watson,  
 C. F. Williams,  Q. Wu,  X. Xu,  Jun Yang,  W. Zhang,  Yan Zhao

 Please cite Q-Chem as follows:
 Y. Shao et al., Mol. Phys. 113, 184-215 (2015)
 DOI: 10.1080/00268976.2014.952696

 Q-Chem 5.4.0 for Intel X86 EM64T Linux

 Parts of Q-Chem use Armadillo 9.800.1 (Horizon Scraper).
 http://arma.sourceforge.net/

 Q-Chem begins on Wed Dec 27 10:00:05 2023  

 Host: 
0

     Scratch files written to ./qchem2749461//
 May1621 |scratch|qcdevops|jenkins|workspace|build_RNUM    
 Parallel job on  1  processors
 Processing $rem in /cm/shared/apps/spack/cpu/opt/spack/linux-centos8-zen2/gcc-10.2.0/qchem-5.4-akfmr7b3t57bfs6qan3padb2wnb2i7cl/config/preferences:
 Processing $rem in /home/rramji/.qchemrc:
 Symmetry turned off for PCM/SM12/SMD calculation
 Core orbitals will be frozen

 Checking the input file for inconsistencies... 	...done.

 Q-Chem warning in module forms1/BasisType.C, line 2236:

 You are not using the predefined 5D/6D in this basis set.


--------------------------------------------------------------
User input:
--------------------------------------------------------------
$molecule
0 1
C	-0.264464	-0.329934	-0.216317
S	0.131936	0.357066	1.364183
C	0.950736	1.775366	0.688583
C	0.234336	0.534466	-1.201717
C	0.894436	1.677866	-0.709817
H	0.116536	0.330366	-2.276217
H	1.334836	2.440766	-1.368917
C	-0.264464	-1.808134	-0.216317
H	0.799036	-1.808734	-0.028217
H	-0.435864	-2.247434	0.755283
H	-0.123464	-2.519134	-1.017017
H	1.391036	2.538166	1.339683
$end

$rem
JOBTYPE		SP
EXCHANGE	HF
CORRELATION	pRIMP2
BASIS		cc-pvtz
METHOD		rimp2
AUX_BASIS	rimp2-cc-pvtz
SOLVENT_METHOD	PCM
PURECART	11111
SYMMETRY	false
MEM_TOTAL	110000
SCF_CONVERGENCE = 6
THRESH=10
GUI = 2
$end



$solvent
dielectric 4.90
$end
--------------------------------------------------------------
 ----------------------------------------------------------------
             Standard Nuclear Orientation (Angstroms)
    I     Atom           X                Y                Z
 ----------------------------------------------------------------
    1      C      -0.2644640000    -0.3299340000    -0.2163170000
    2      S       0.1319360000     0.3570660000     1.3641830000
    3      C       0.9507360000     1.7753660000     0.6885830000
    4      C       0.2343360000     0.5344660000    -1.2017170000
    5      C       0.8944360000     1.6778660000    -0.7098170000
    6      H       0.1165360000     0.3303660000    -2.2762170000
    7      H       1.3348360000     2.4407660000    -1.3689170000
    8      C      -0.2644640000    -1.8081340000    -0.2163170000
    9      H       0.7990360000    -1.8087340000    -0.0282170000
   10      H      -0.4358640000    -2.2474340000     0.7552830000
   11      H      -0.1234640000    -2.5191340000    -1.0170170000
   12      H       1.3910360000     2.5381660000     1.3396830000
 ----------------------------------------------------------------
 Nuclear Repulsion Energy =         272.17284471 hartrees
 There are       26 alpha and       26 beta electrons
 Requested basis set is cc-pVTZ
 There are 98 shells and 268 basis functions

 Total QAlloc Memory Limit 110000 MB
 Mega-Array Size       188 MB
 MEM_STATIC part       192 MB
 Discretize the solute cavity surface with Lebedev spheres
	Using 110 Lebedev grid points for each H atom
	Using 194 Lebedev grid points for other atoms
	Atomic van der Waals radii will be scaled by 1.20
 Remove points where switching function is < 1.0e-08
 Keep 874 surface tesserae and discard 950 interior tesserae
 Molecular Surface Area = 137.119 Angst**2

                       Distance Matrix (Angstroms)
             C (  1)   S (  2)   C (  3)   C (  4)   C (  5)   H (  6)
   S (  2)  1.768356
   C (  3)  2.593809  1.771565
   C (  4)  1.402498  2.574063  2.371981
   C (  5)  2.370201  2.574373  1.402925  1.408922
   H (  6)  2.196439  3.640530  3.402051  1.100038  2.207826
   H (  7)  3.400445  3.641237  2.196269  2.207495  1.100173  2.600238
   C (  8)  1.478200  2.709835  3.890633  2.589901  3.706587  2.993582
   H (  9)  1.831192  2.659791  3.658222  2.680779  3.553879  3.177272
   H ( 10)  2.156430  2.734333  4.255588  3.466697  4.395930  4.017486
   H ( 11)  2.335294  3.742709  4.744018  3.080034  4.329584  3.124554
   H ( 12)  3.658936  2.518557  1.095290  3.436784  2.277538  4.424191
             H (  7)   C (  8)   H (  9)   H ( 10)   H ( 11)
   C (  8)  4.683951
   H (  9)  4.488074  1.080007
   H ( 10)  5.443053  1.079986  1.526862
   H ( 11)  5.181803  1.080057  1.527547  1.820017
   H ( 12)  2.710933  4.904298  4.595340  5.155682  5.781352
 
 Requested basis set is rimp2-cc-pVTZ
 There are 207 shells and 707 basis functions
 A cutoff of  1.0D-10 yielded   4422 shell pairs
 There are     33258 function pairs (     43016 Cartesian)
 Smallest overlap matrix eigenvalue = 1.54E-04

 Scale SEOQF with 1.000000e+00/1.000000e-01/1.000000e-01

 Standard Electronic Orientation quadrupole field applied
 Nucleus-field energy     =     0.0000000061 hartrees
 Guess from superposition of atomic densities
 Warning:  Energy on first SCF cycle will be non-variational
 SAD guess density has 52.000000 electrons

 -----------------------------------------------------------------------
  General SCF calculation program by
  Eric Jon Sundstrom, Paul Horn, Yuezhi Mao, Dmitri Zuev, Alec White,
  David Stuck, Shaama M.S., Shane Yost, Joonho Lee, David Small,
  Daniel Levine, Susi Lehtola, Hugh Burton, Evgeny Epifanovsky,
  Bang C. Huynh
 -----------------------------------------------------------------------
 Hartree-Fock
 using 64 threads for integral computing
 -------------------------------------------------------
 OpenMP Integral computing Module                
 Release: version 1.0, May 2013, Q-Chem Inc. Pittsburgh 
 -------------------------------------------------------
 A restricted SCF calculation will be
 performed using DIIS
 SCF converges when DIIS error is below 1.0e-06
 ---------------------------------------
  Cycle       Energy         DIIS error
 ---------------------------------------
    1    -592.6020346237      3.23e-02  
    2    -590.2884065336      2.20e-03  
    3    -590.3496840773      8.47e-04  
    4    -590.3570650790      3.99e-04  
    5    -590.3591052235      7.11e-05  
    6    -590.3592316514      3.22e-05  
    7    -590.3592631931      1.46e-05  
    8    -590.3592731634      5.88e-06  
    9    -590.3592747712      2.01e-06  
   10    -590.3592749355      6.43e-07  Convergence criterion met
 ---------------------------------------
 SCF time:   CPU 488.11s  wall 8.00s 

************** Final PCM Free Energy Summary **************
 G_electrostatic  =      -0.00563314 hartree =      -3.53484810 kcal/mol
 G_cavitation     =       0.00000000 hartree =       0.00000000 kcal/mol
 G_dispersion     =       0.00000000 hartree =       0.00000000 kcal/mol
 G_repulsion      =       0.00000000 hartree =       0.00000000 kcal/mol
 --------------------------------------------------
 Non-electrostatic Free Energy =       0.00000000 hartree =       0.00000000 kcal/mol
 Total                         =      -0.00563314 hartree =      -3.53484810 kcal/mol
 --------------------------------------------------
 SCF Energy (H0 + V/2)                       =    -590.35927494 
 Solute Internal Energy (H0)                 =    -590.35364180 
 Total Free Energy (H0 + V/2 + non-elec)     =    -590.35927494 hartree
                                             = -370456.03631475 kcal/mol
***********************************************************

 SCF   energy in the final basis set =     -590.3592749355
 Total energy in the final basis set =     -590.3592749355


 --------------------------------------------------------------
  Generalized many-body perturbation theory program
  by Joonho Lee, Fazle Rob, Xintian Feng, Evgeny Epifanovsky

 No regularization used 
 (reg. param. = 0.0000e+00)
  (P|Q)^-1/2 Time:  CPU 5.10 s  wall 0.08 s

 In RI-MP2 calculation: 
 # of frozen core orbitals: 10

 Components of the RIMP2 correlation energy:
        aaaa    correlation energy =        -0.1254558016 a.u.
        abab    correlation energy =        -0.7521817870 a.u.
        bbbb    correlation energy =        -0.1254558016 a.u.
        non-Brillouin singles      =        -0.0000000000 a.u.
        total same-spin energy     =        -0.2509116032 a.u.
        total opposite-spin energy =        -0.7521817870 a.u.

 Total  RIMP2   correlation energy =        -1.0030933902 a.u.
        RIMP2         total energy =      -591.3623683257 a.u.

 RI-MP2 Energy Time:  CPU 23.58 s  wall 0.42 s
 
 --------------------------------------------------------------
 
                    Orbital Energies (a.u.)
 --------------------------------------------------------------
 
 Alpha MOs
 -- Occupied --
-91.9778 -11.2867 -11.2677 -11.2436 -11.2334 -11.2271  -8.9780  -6.6589
 -6.6583  -6.6577  -1.1608  -1.0404  -0.9727  -0.9155  -0.7570  -0.7225
 -0.6717  -0.5960  -0.5672  -0.5601  -0.5360  -0.4985  -0.4732  -0.4563
 -0.3472  -0.2971
 -- Virtual --
  0.0958   0.1521   0.1600   0.1808   0.1876   0.2011   0.2101   0.2153
  0.2287   0.2593   0.3146   0.3378   0.3457   0.3639   0.3885   0.4117
  0.4360   0.4421   0.4528   0.4648   0.4853   0.5117   0.5199   0.5368
  0.5417   0.5592   0.5732   0.5755   0.5859   0.6044   0.6128   0.6233
  0.6337   0.6360   0.6492   0.6581   0.6740   0.7089   0.7389   0.7636
  0.7797   0.7936   0.8128   0.8469   0.8661   0.8772   0.9021   0.9135
  0.9504   0.9849   1.0156   1.0561   1.0749   1.0836   1.1168   1.1268
  1.1280   1.1488   1.1724   1.1759   1.2151   1.2371   1.2550   1.2759
  1.2829   1.3014   1.3308   1.3426   1.3926   1.4163   1.4256   1.4512
  1.4604   1.4675   1.4918   1.5102   1.5378   1.5421   1.5476   1.5818
  1.6005   1.6183   1.6450   1.6762   1.7330   1.7504   1.7629   1.7911
  1.8410   1.8925   1.9088   1.9124   1.9573   2.0062   2.0292   2.1230
  2.1338   2.1731   2.1946   2.2266   2.2541   2.2813   2.3122   2.3828
  2.4300   2.4496   2.4817   2.5212   2.5365   2.5930   2.6068   2.6715
  2.6908   2.7155   2.7236   2.7444   2.7659   2.7802   2.8291   2.8525
  2.8639   2.9165   2.9265   2.9711   3.0080   3.0256   3.0392   3.0668
  3.0839   3.1037   3.1136   3.1353   3.1618   3.1877   3.2004   3.2227
  3.2544   3.2645   3.2837   3.2971   3.3220   3.3473   3.3629   3.3967
  3.4103   3.4178   3.4272   3.4447   3.4647   3.4784   3.4874   3.4946
  3.5110   3.5253   3.5464   3.5857   3.5891   3.6191   3.6345   3.6406
  3.6721   3.6854   3.7408   3.7556   3.7634   3.7694   3.8332   3.8442
  3.8615   3.8820   3.9007   3.9243   3.9420   3.9672   3.9870   4.0009
  4.0087   4.0456   4.0695   4.0917   4.1316   4.1453   4.1709   4.2120
  4.2534   4.2579   4.2759   4.2916   4.3291   4.3672   4.3884   4.3995
  4.4391   4.4662   4.4823   4.5161   4.5492   4.5800   4.5949   4.6404
  4.6442   4.7007   4.7291   4.7456   4.7962   4.8005   4.8132   4.8408
  4.9207   5.0166   5.0239   5.0445   5.0736   5.1039   5.1704   5.1885
  5.2499   5.3003   5.3512   5.4208   5.4814   5.4967   5.5411   5.5760
  5.6112   5.6891   5.7757   5.8179   5.8722   5.9622   5.9839   6.0689
  6.1082   6.3343   6.4106   6.4518   6.6574   9.4272  11.3581  12.6909
 13.9055  14.1877
 --------------------------------------------------------------
 
          Ground-State Mulliken Net Atomic Charges

     Atom                 Charge (a.u.)
  ----------------------------------------
      1 C                     0.016772
      2 S                    -0.002567
      3 C                    -0.241434
      4 C                    -0.244877
      5 C                    -0.179265
      6 H                     0.179784
      7 H                     0.187261
      8 C                    -0.357218
      9 H                     0.146324
     10 H                     0.128856
     11 H                     0.161599
     12 H                     0.204766
  ----------------------------------------
  Sum of atomic charges =     0.000000

 -----------------------------------------------------------------
                    Cartesian Multipole Moments
 -----------------------------------------------------------------
    Charge (ESU x 10^10)
                 0.0000
    Dipole Moment (Debye)
         X       1.3334      Y      -0.6949      Z      -0.9682
       Tot       1.7884
    Quadrupole Moments (Debye-Ang)
        XX     -46.4865     XY       2.6459     YY     -38.3350
        XZ      -0.0046     YZ       0.8319     ZZ     -41.7254
    Octopole Moments (Debye-Ang^2)
       XXX     -37.2065    XXY     -10.6544    XYY      -0.0891
       YYY     -40.3942    XXZ      -6.1731    XYZ       2.5104
       YYZ      -5.4158    XZZ      -8.2521    YZZ      -9.4009
       ZZZ     -28.5769
    Hexadecapole Moments (Debye-Ang^3)
      XXXX    -146.1767   XXXY     -78.1964   XXYY     -96.0449
      XYYY     -57.5987   YYYY    -447.4938   XXXZ      -3.2889
      XXYZ      -4.3879   XYYZ       0.3314   YYYZ      -6.8230
      XXZZ     -76.1008   XYZZ     -14.1531   YYZZ    -113.7953
      XZZZ      -1.7611   YZZZ     -13.6567   ZZZZ    -306.2299
 -----------------------------------------------------------------
 Total job time:  10.70s(wall), 552.89s(cpu) 
 Wed Dec 27 10:00:15 2023

        *************************************************************
        *                                                           *
        *  Thank you very much for using Q-Chem.  Have a nice day.  *
        *                                                           *
        *************************************************************


0 sent ACK to 0 
now end server 0 ... 
cleanup process ... done
remove work dirs ./qchem2749461.0 -- ./qchem2749461.0
rm -rf ./qchem2749461.0
rm -rf ./qchem2749461
