You are running Q-Chem version: 5.4.0

#
# job setting
#
local host:  exp-12-09
current dir: /home/rramji/project-csd799/aromodel/pndit-qchem/methylated-rotation-run
input file:  Dimethyl_Naphthalene_Dicarboximide_Phi_50_Theta_110_Thiophene_Hydrogenated_Improper.qcin
output file: 
nprocs     : 1
nthreads   : 64
#
# qchem installation setting
#
QC:          /cm/shared/apps/spack/cpu/opt/spack/linux-centos8-zen2/gcc-10.2.0/qchem-5.4-akfmr7b3t57bfs6qan3padb2wnb2i7cl
QCAUX:       /cm/shared/apps/spack/cpu/opt/spack/linux-centos8-zen2/gcc-10.2.0/qchem-5.4-akfmr7b3t57bfs6qan3padb2wnb2i7cl/qcaux
QCPROG:      /cm/shared/apps/spack/cpu/opt/spack/linux-centos8-zen2/gcc-10.2.0/qchem-5.4-akfmr7b3t57bfs6qan3padb2wnb2i7cl/exe/qcprog.exe
QCPROG_S:    /cm/shared/apps/spack/cpu/opt/spack/linux-centos8-zen2/gcc-10.2.0/qchem-5.4-akfmr7b3t57bfs6qan3padb2wnb2i7cl/exe/qcprog.exe_s
PARALLEL:    -DPARALLEL
QCMPI:       mpich
#
# qchem directory setting
#
qcrun:       qchem2295134
QCSCRATCH:   .
QCLOCALSCR:  
QCTMPDIR:    .
QCFILEPREF:  ./qchem2295134
QCSAVEDIR:   
workdirs:    ./qchem2295134
workdir0:    ./qchem2295134
partmpdirs =  
#
# parallel setting
#
QCRSH:           ssh
QCMPI:           mpich
QCMPIRUN:        /cm/shared/apps/spack/cpu/opt/spack/linux-centos8-zen2/gcc-10.2.0/qchem-5.4-akfmr7b3t57bfs6qan3padb2wnb2i7cl/bin/mpi/mpirun_qchem
QCMACHINEFILE:   ./qchem2295134/hostfile
exp-12-09

#
# env setting
#
exported envs:   QC QCAUX QCSCRATCH QCRUNNAME QCFILEPREF QCPROG QCPROG_S GUIFILE

Running Job 1 of 1 Dimethyl_Naphthalene_Dicarboximide_Phi_50_Theta_110_Thiophene_Hydrogenated_Improper.qcin
qchem Dimethyl_Naphthalene_Dicarboximide_Phi_50_Theta_110_Thiophene_Hydrogenated_Improper.qcin_2295134.0 ./qchem2295134/ 1
/cm/shared/apps/spack/cpu/opt/spack/linux-centos8-zen2/gcc-10.2.0/qchem-5.4-akfmr7b3t57bfs6qan3padb2wnb2i7cl/bin/mpi/mpirun_qchem -machinefile ./qchem2295134/hostfile -np 1 /cm/shared/apps/spack/cpu/opt/spack/linux-centos8-zen2/gcc-10.2.0/qchem-5.4-akfmr7b3t57bfs6qan3padb2wnb2i7cl/exe/qcprog.exe Dimethyl_Naphthalene_Dicarboximide_Phi_50_Theta_110_Thiophene_Hydrogenated_Improper.qcin_2295134.0 ./qchem2295134/

Process 0 of 1 is on exp-12-09 - thread support 0
initial socket setup ...start
initial socket setup ...done 
now start server 0 ... 
                  Welcome to Q-Chem
     A Quantum Leap Into The Future Of Chemistry


 Q-Chem 5.4, Q-Chem, Inc., Pleasanton, CA (2021)

 License issued to: University of California, San Diego (site)

 E. Epifanovsky,  A. T. B. Gilbert,  Xintian Feng,  Joonho Lee,  Yuezhi Mao,  
 N. Mardirossian,  P. Pokhilko,  A. White,  M. Wormit,  M. P. Coons,  
 A. L. Dempwolff,  Zhengting Gan,  D. Hait,  P. R. Horn,  L. D. Jacobson,  
 I. Kaliman,  J. Kussmann,  A. W. Lange,  Ka Un Lao,  D. S. Levine,  Jie Liu,  
 S. C. McKenzie,  A. F. Morrison,  K. Nanda,  F. Plasser,  D. R. Rehn,  
 M. L. Vidal,  Zhi-Qiang You,  Ying Zhu,  B. Alam,  B. Albrecht,  
 A. Aldossary,  E. Alguire,  J. H. Andersen,  D. Barton,  K. Begam,  A. Behn,  
 Y. A. Bernard,  E. J. Berquist,  H. Burton,  A. Carreras,  K. Carter-Fenk,  
 R. Chakraborty,  A. D. Chien,  K. D. Closser,  V. Cofer-Shabica,  
 S. Dasgupta,  Jia Deng,  M. de Wergifosse,  M. Diedenhofen,  Hainam Do,  
 S. Ehlert,  Po-Tung Fang,  S. Fatehi,  Qingguo Feng,  J. Gayvert,  
 Qinghui Ge,  G. Gidofalvi,  M. Goldey,  J. Gomes,  C. Gonzalez-Espinoza,  
 S. Gulania,  A. Gunina,  M. W. D. Hanson-Heine,  P. H. P. Harbach,  
 A. W. Hauser,  M. F. Herbst,  M. Hernandez Vera,  M. Hodecker,  
 Z. C. Holden,  S. Houck,  Xunkun Huang,  Kerwin Hui,  B. C. Huynh,  
 M. Ivanov,  Hyunjun Ji,  Hanjie Jiang,  B. Kaduk,  S. Kaehler,  
 K. Khistyaev,  Jaehoon Kim,  P. Klunzinger,  Z. Koczor-Benda,  
 Joong Hoon Koh,  D. Kosenkov,  L. Koulias,  T. Kowalczyk,  C. M. Krauter,  
 K. Kue,  A. Kunitsa,  T. Kus,  A. Landau,  K. V. Lawler,  D. Lefrancois,  
 S. Lehtola,  Rain Li,  Yi-Pei Li,  Jiashu Liang,  M. Liebenthal,  
 Hung-Hsuan Lin,  You-Sheng Lin,  Fenglai Liu,  Kuan-Yu Liu,  
 M. Loipersberger,  A. Luenser,  A. Manjanath,  P. Manohar,  E. Mansoor,  
 S. F. Manzer,  Shan-Ping Mao,  A. V. Marenich,  T. Markovich,  S. Mason,  
 S. A. Maurer,  P. F. McLaughlin,  M. F. S. J. Menger,  J.-M. Mewes,  
 S. A. Mewes,  P. Morgante,  J. W. Mullinax,  T. S. Nguyen-Beck,  
 K. J. Oosterbaan,  G. Paran,  Alexander C. Paul,  Suranjan K. Paul,  
 F. Pavosevic,  Zheng Pei,  S. Prager,  E. I. Proynov,  E. Ramos,  B. Rana,  
 A. E. Rask,  A. Rettig,  R. M. Richard,  F. Rob,  E. Rossomme,  T. Scheele,  
 M. Scheurer,  M. Schneider,  N. Sergueev,  S. M. Sharada,  W. Skomorowski,  
 D. W. Small,  C. J. Stein,  Yu-Chuan Su,  E. J. Sundstrom,  Zhen Tao,  
 J. Thirman,  T. Tsuchimochi,  N. M. Tubman,  S. P. Veccham,  O. Vydrov,  
 J. Wenzel,  J. Witte,  A. Yamada,  Kun Yao,  S. Yeganeh,  S. R. Yost,  
 A. Zech,  Igor Ying Zhang,  Xing Zhang,  Yu Zhang,  D. Zuev,  
 A. Aspuru-Guzik,  A. T. Bell,  N. A. Besley,  K. B. Bravaya,  B. R. Brooks,  
 D. Casanova,  Jeng-Da Chai,  S. Coriani,  C. J. Cramer,  
 A. E. DePrince, III,  R. A. DiStasio Jr.,  A. Dreuw,  B. D. Dunietz,  
 T. R. Furlani,  W. A. Goddard III,  S. Grimme,  S. Hammes-Schiffer,  
 T. Head-Gordon,  W. J. Hehre,  Chao-Ping Hsu,  T.-C. Jagau,  Yousung Jung,  
 A. Klamt,  Jing Kong,  D. S. Lambrecht,  WanZhen Liang,  N. J. Mayhall,  
 C. W. McCurdy,  J. B. Neaton,  C. Ochsenfeld,  J. A. Parkhill,  R. Peverati,  
 V. A. Rassolov,  Yihan Shao,  L. V. Slipchenko,  T. Stauch,  R. P. Steele,  
 J. E. Subotnik,  A. J. W. Thom,  A. Tkatchenko,  D. G. Truhlar,  
 T. Van Voorhis,  T. A. Wesolowski,  K. B. Whaley,  H. L. Woodcock III,  
 P. M. Zimmerman,  S. Faraji,  P. M. W. Gill,  M. Head-Gordon,  
 J. M. Herbert,  A. I. Krylov

 Contributors to earlier versions of Q-Chem not listed above: 
 R. D. Adamson,  B. Austin,  R. Baer,  J. Baker,  G. J. O. Beran,  
 K. Brandhorst,  S. T. Brown,  E. F. C. Byrd,  A. K. Chakraborty,  
 G. K. L. Chan,  Chun-Min Chang,  Yunqing Chen,  C.-L. Cheng,  
 Siu Hung Chien,  D. M. Chipman,  D. L. Crittenden,  H. Dachsel,  
 R. J. Doerksen,  A. D. Dutoi,  R. G. Edgar,  J. Fosso-Tande,  
 L. Fusti-Molnar,  D. Ghosh,  A. Ghysels,  A. Golubeva-Zadorozhnaya,  
 J. Gonthier,  M. S. Gordon,  S. R. Gwaltney,  G. Hawkins,  J. E. Herr,  
 A. Heyden,  S. Hirata,  E. G. Hohenstein,  G. Kedziora,  F. J. Keil,  
 C. Kelley,  Jihan Kim,  R. A. King,  R. Z. Khaliullin,  P. P. Korambath,  
 W. Kurlancheek,  A. Laurent,  A. M. Lee,  M. S. Lee,  S. V. Levchenko,  
 Ching Yeh Lin,  D. Liotard,  E. Livshits,  R. C. Lochan,  I. Lotan,  
 L. A. Martinez-Martinez,  P. E. Maslen,  N. Nair,  D. P. O'Neill,  
 D. Neuhauser,  E. Neuscamman,  C. M. Oana,  R. Olivares-Amaya,  R. Olson,  
 T. M. Perrine,  B. Peters,  P. A. Pieniazek,  A. Prociuk,  Y. M. Rhee,  
 J. Ritchie,  M. A. Rohrdanz,  E. Rosta,  N. J. Russ,  H. F. Schaefer III,  
 M. W. Schmidt,  N. E. Schultz,  S. Sharma,  N. Shenvi,  C. D. Sherrill,  
 A. C. Simmonett,  A. Sodt,  T. Stein,  D. Stuck,  K. S. Thanthiriwatte,  
 V. Vanovschi,  L. Vogt,  Tao Wang,  A. Warshel,  M. A. Watson,  
 C. F. Williams,  Q. Wu,  X. Xu,  Jun Yang,  W. Zhang,  Yan Zhao

 Please cite Q-Chem as follows:
 Y. Shao et al., Mol. Phys. 113, 184-215 (2015)
 DOI: 10.1080/00268976.2014.952696

 Q-Chem 5.4.0 for Intel X86 EM64T Linux

 Parts of Q-Chem use Armadillo 9.800.1 (Horizon Scraper).
 http://arma.sourceforge.net/

 Q-Chem begins on Wed Dec 27 10:03:55 2023  

 Host: 
0

     Scratch files written to ./qchem2295134//
 May1621 |scratch|qcdevops|jenkins|workspace|build_RNUM    
 Parallel job on  1  processors
 Processing $rem in /cm/shared/apps/spack/cpu/opt/spack/linux-centos8-zen2/gcc-10.2.0/qchem-5.4-akfmr7b3t57bfs6qan3padb2wnb2i7cl/config/preferences:
 Processing $rem in /home/rramji/.qchemrc:
 Symmetry turned off for PCM/SM12/SMD calculation
 Core orbitals will be frozen

 Checking the input file for inconsistencies... 	...done.

 Q-Chem warning in module forms1/BasisType.C, line 2236:

 You are not using the predefined 5D/6D in this basis set.


--------------------------------------------------------------
User input:
--------------------------------------------------------------
$molecule
0 1
C	-0.394387	-0.214208	-0.219377
S	0.213113	0.295792	1.361123
C	1.467613	1.348492	0.685523
C	0.370013	0.427392	-1.204777
C	1.381313	1.276092	-0.712877
H	0.189513	0.275892	-2.279277
H	2.056113	1.842392	-1.371977
C	-0.394387	-1.692408	-0.219377
H	-0.764287	-1.693008	0.795323
H	-1.321487	-2.131708	-0.556877
H	0.369613	-2.403408	0.058523
H	2.142213	1.914692	1.336623
$end

$rem
JOBTYPE		SP
EXCHANGE	HF
CORRELATION	pRIMP2
BASIS		cc-pvtz
METHOD		rimp2
AUX_BASIS	rimp2-cc-pvtz
SOLVENT_METHOD	PCM
PURECART	11111
SYMMETRY	false
MEM_TOTAL	110000
SCF_CONVERGENCE = 6
THRESH=10
GUI = 2
$end



$solvent
dielectric 4.90
$end
--------------------------------------------------------------
 ----------------------------------------------------------------
             Standard Nuclear Orientation (Angstroms)
    I     Atom           X                Y                Z
 ----------------------------------------------------------------
    1      C      -0.3943870000    -0.2142080000    -0.2193770000
    2      S       0.2131130000     0.2957920000     1.3611230000
    3      C       1.4676130000     1.3484920000     0.6855230000
    4      C       0.3700130000     0.4273920000    -1.2047770000
    5      C       1.3813130000     1.2760920000    -0.7128770000
    6      H       0.1895130000     0.2758920000    -2.2792770000
    7      H       2.0561130000     1.8423920000    -1.3719770000
    8      C      -0.3943870000    -1.6924080000    -0.2193770000
    9      H      -0.7642870000    -1.6930080000     0.7953230000
   10      H      -1.3214870000    -2.1317080000    -0.5568770000
   11      H       0.3696130000    -2.4034080000     0.0585230000
   12      H       2.1422130000     1.9146920000     1.3366230000
 ----------------------------------------------------------------
 Nuclear Repulsion Energy =         274.34584169 hartrees
 There are       26 alpha and       26 beta electrons
 Requested basis set is cc-pVTZ
 There are 98 shells and 268 basis functions

 Total QAlloc Memory Limit 110000 MB
 Mega-Array Size       188 MB
 MEM_STATIC part       192 MB
 Discretize the solute cavity surface with Lebedev spheres
	Using 110 Lebedev grid points for each H atom
	Using 194 Lebedev grid points for other atoms
	Atomic van der Waals radii will be scaled by 1.20
 Remove points where switching function is < 1.0e-08
 Keep 862 surface tesserae and discard 962 interior tesserae
 Molecular Surface Area = 136.032 Angst**2

                       Distance Matrix (Angstroms)
             C (  1)   S (  2)   C (  3)   C (  4)   C (  5)   H (  6)
   S (  2)  1.768371
   C (  3)  2.593823  1.771548
   C (  4)  1.402487  2.574059  2.372000
   C (  5)  2.370158  2.574326  1.402930  1.408895
   H (  6)  2.196435  3.640531  3.402065  1.100038  2.207803
   H (  7)  3.400447  3.641216  2.196264  2.207513  1.100211  2.600252
   C (  8)  1.478200  2.611508  3.678717  2.459446  3.494087  2.908321
   H (  9)  1.831199  2.287087  3.774143  3.127800  3.961543  3.773522
   H ( 10)  2.156438  3.453473  4.629733  3.135273  4.352306  3.323601
   H ( 11)  2.335278  3.001156  3.959228  3.099896  3.893240  3.560392
   H ( 12)  3.658919  2.518504  1.095262  3.436782  2.277549  4.424188
             H (  7)   C (  8)   H (  9)   H ( 10)   H ( 11)
   C (  8)  4.452892
   H (  9)  5.015067  1.080020
   H ( 10)  5.278829  1.080002  1.526884
   H ( 11)  4.787215  1.080021  1.527505  1.819988
   H ( 12)  2.710932  4.676179  4.664359  5.652956  4.839591
 
 Requested basis set is rimp2-cc-pVTZ
 There are 207 shells and 707 basis functions
 A cutoff of  1.0D-10 yielded   4446 shell pairs
 There are     33424 function pairs (     43235 Cartesian)
 Smallest overlap matrix eigenvalue = 1.78E-04

 Scale SEOQF with 1.000000e-01/1.000000e-01/1.000000e-01

 Standard Electronic Orientation quadrupole field applied
 Guess from superposition of atomic densities
 Warning:  Energy on first SCF cycle will be non-variational
 SAD guess density has 52.000000 electrons

 -----------------------------------------------------------------------
  General SCF calculation program by
  Eric Jon Sundstrom, Paul Horn, Yuezhi Mao, Dmitri Zuev, Alec White,
  David Stuck, Shaama M.S., Shane Yost, Joonho Lee, David Small,
  Daniel Levine, Susi Lehtola, Hugh Burton, Evgeny Epifanovsky,
  Bang C. Huynh
 -----------------------------------------------------------------------
 Hartree-Fock
 using 64 threads for integral computing
 -------------------------------------------------------
 OpenMP Integral computing Module                
 Release: version 1.0, May 2013, Q-Chem Inc. Pittsburgh 
 -------------------------------------------------------
 A restricted SCF calculation will be
 performed using DIIS
 SCF converges when DIIS error is below 1.0e-06
 ---------------------------------------
  Cycle       Energy         DIIS error
 ---------------------------------------
    1    -592.6507609276      3.26e-02  
    2    -590.2496296332      2.16e-03  
    3    -590.3106755719      7.85e-04  
    4    -590.3177536553      3.79e-04  
    5    -590.3196718892      7.56e-05  
    6    -590.3198389658      3.97e-05  
    7    -590.3198933601      1.77e-05  
    8    -590.3199132066      9.22e-06  
    9    -590.3199169981      3.08e-06  
   10    -590.3199174578      1.30e-06  
   11    -590.3199175305      5.00e-07  Convergence criterion met
 ---------------------------------------
 SCF time:   CPU 548.52s  wall 24.00s 

************** Final PCM Free Energy Summary **************
 G_electrostatic  =      -0.00528846 hartree =      -3.31855983 kcal/mol
 G_cavitation     =       0.00000000 hartree =       0.00000000 kcal/mol
 G_dispersion     =       0.00000000 hartree =       0.00000000 kcal/mol
 G_repulsion      =       0.00000000 hartree =       0.00000000 kcal/mol
 --------------------------------------------------
 Non-electrostatic Free Energy =       0.00000000 hartree =       0.00000000 kcal/mol
 Total                         =      -0.00528846 hartree =      -3.31855983 kcal/mol
 --------------------------------------------------
 SCF Energy (H0 + V/2)                       =    -590.31991753 
 Solute Internal Energy (H0)                 =    -590.31462907 
 Total Free Energy (H0 + V/2 + non-elec)     =    -590.31991753 hartree
                                             = -370431.33917034 kcal/mol
***********************************************************

 SCF   energy in the final basis set =     -590.3199175305
 Total energy in the final basis set =     -590.3199175305


 --------------------------------------------------------------
  Generalized many-body perturbation theory program
  by Joonho Lee, Fazle Rob, Xintian Feng, Evgeny Epifanovsky

 No regularization used 
 (reg. param. = 0.0000e+00)
  (P|Q)^-1/2 Time:  CPU 5.55 s  wall 0.09 s

 In RI-MP2 calculation: 
 # of frozen core orbitals: 10

 Components of the RIMP2 correlation energy:
        aaaa    correlation energy =        -0.1269626983 a.u.
        abab    correlation energy =        -0.7572970984 a.u.
        bbbb    correlation energy =        -0.1269626983 a.u.
        non-Brillouin singles      =        -0.0000000000 a.u.
        total same-spin energy     =        -0.2539253965 a.u.
        total opposite-spin energy =        -0.7572970984 a.u.

 Total  RIMP2   correlation energy =        -1.0112224949 a.u.
        RIMP2         total energy =      -591.3311400254 a.u.

 RI-MP2 Energy Time:  CPU 27.21 s  wall 0.45 s
 
 --------------------------------------------------------------
 
                    Orbital Energies (a.u.)
 --------------------------------------------------------------
 
 Alpha MOs
 -- Occupied --
-91.9777 -11.2881 -11.2556 -11.2519 -11.2439 -11.2147  -8.9783  -6.6591
 -6.6583  -6.6579  -1.1653  -1.0368  -0.9783  -0.9101  -0.7650  -0.7246
 -0.6714  -0.5919  -0.5712  -0.5613  -0.5459  -0.4722  -0.4576  -0.4451
 -0.3431  -0.3132
 -- Virtual --
  0.0679   0.1511   0.1589   0.1797   0.1882   0.1958   0.2077   0.2228
  0.2308   0.2726   0.2915   0.3151   0.3591   0.3654   0.3828   0.4052
  0.4254   0.4466   0.4501   0.4646   0.4826   0.5112   0.5188   0.5325
  0.5385   0.5476   0.5616   0.5762   0.5946   0.6034   0.6156   0.6188
  0.6254   0.6510   0.6517   0.6811   0.6910   0.7102   0.7281   0.7511
  0.7847   0.7887   0.8180   0.8215   0.8619   0.8849   0.9017   0.9297
  0.9656   0.9829   0.9922   1.0513   1.0734   1.0958   1.1227   1.1335
  1.1574   1.1679   1.1760   1.2169   1.2203   1.2232   1.2549   1.2688
  1.2809   1.3140   1.3263   1.3564   1.3716   1.4007   1.4230   1.4365
  1.4614   1.4825   1.4878   1.5237   1.5345   1.5415   1.5726   1.5914
  1.6074   1.6342   1.6434   1.6738   1.6740   1.7175   1.7750   1.8165
  1.8530   1.8692   1.8995   1.9348   1.9521   1.9782   2.0421   2.0996
  2.1274   2.1599   2.1762   2.2110   2.2440   2.2566   2.3249   2.4009
  2.4299   2.4558   2.4768   2.5145   2.5786   2.6139   2.6405   2.6670
  2.6978   2.7123   2.7146   2.7600   2.7749   2.7772   2.8135   2.8437
  2.8680   2.8923   2.9453   2.9698   3.0018   3.0092   3.0345   3.0426
  3.0678   3.1115   3.1362   3.1479   3.1594   3.2062   3.2163   3.2285
  3.2400   3.2680   3.2803   3.2992   3.3209   3.3322   3.3534   3.3702
  3.3892   3.4072   3.4260   3.4399   3.4554   3.4807   3.4971   3.5016
  3.5087   3.5468   3.5893   3.5914   3.5942   3.6338   3.6533   3.6646
  3.6917   3.7062   3.7354   3.7618   3.7919   3.7940   3.8319   3.8580
  3.8802   3.8910   3.9287   3.9499   3.9578   3.9781   4.0033   4.0134
  4.0137   4.0465   4.0613   4.1055   4.1296   4.1451   4.1815   4.1900
  4.2264   4.2589   4.2627   4.2964   4.3279   4.3725   4.3963   4.4190
  4.4412   4.4721   4.4849   4.5056   4.5604   4.5863   4.6126   4.6451
  4.6871   4.6957   4.7247   4.7368   4.7836   4.8077   4.8395   4.8593
  4.8847   5.0127   5.0193   5.0481   5.1050   5.1431   5.1716   5.1992
  5.2129   5.2826   5.3548   5.4190   5.4554   5.4788   5.5257   5.6118
  5.6311   5.6715   5.7671   5.8135   5.8817   5.9495   5.9774   6.0316
  6.0613   6.3253   6.3916   6.4649   6.5808   9.5679  11.5930  12.6613
 13.8991  13.9725
 --------------------------------------------------------------
 
          Ground-State Mulliken Net Atomic Charges

     Atom                 Charge (a.u.)
  ----------------------------------------
      1 C                    -0.095578
      2 S                     0.006896
      3 C                    -0.175628
      4 C                    -0.120812
      5 C                    -0.219888
      6 H                     0.186078
      7 H                     0.186028
      8 C                    -0.347139
      9 H                     0.107870
     10 H                     0.114132
     11 H                     0.149778
     12 H                     0.208262
  ----------------------------------------
  Sum of atomic charges =     0.000000

 -----------------------------------------------------------------
                    Cartesian Multipole Moments
 -----------------------------------------------------------------
    Charge (ESU x 10^10)
                -0.0000
    Dipole Moment (Debye)
         X       1.6999      Y       0.2457      Z      -0.5891
       Tot       1.8158
    Quadrupole Moments (Debye-Ang)
        XX     -42.3774     XY       4.9733     YY     -42.0892
        XZ       0.7319     YZ      -0.3956     ZZ     -41.6411
    Octopole Moments (Debye-Ang^2)
       XXX     -46.0042    XXY      -0.4935    XYY      -9.4084
       YYY     -26.8772    XXZ      -4.2106    XYZ       2.6276
       YYZ      -2.8951    XZZ     -11.5687    YZZ      -2.4113
       ZZZ     -30.2765
    Hexadecapole Moments (Debye-Ang^3)
      XXXX    -239.0474   XXXY     -76.6853   XXYY     -80.4315
      XYYY     -89.0303   YYYY    -354.3006   XXXZ      -0.8066
      XXYZ       1.0747   XYYZ       3.1948   YYYZ     -14.2541
      XXZZ     -84.3395   XYZZ     -19.7882   YYZZ    -108.2746
      XZZZ      -3.7451   YZZZ     -12.7812   ZZZZ    -300.4651
 -----------------------------------------------------------------
 Total job time:  26.47s(wall), 623.94s(cpu) 
 Wed Dec 27 10:04:22 2023

        *************************************************************
        *                                                           *
        *  Thank you very much for using Q-Chem.  Have a nice day.  *
        *                                                           *
        *************************************************************


0 sent ACK to 0 
now end server 0 ... 
cleanup process ... done
remove work dirs ./qchem2295134.0 -- ./qchem2295134.0
rm -rf ./qchem2295134.0
rm -rf ./qchem2295134
