You are running Q-Chem version: 5.4.0

#
# job setting
#
local host:  exp-12-09
current dir: /home/rramji/project-csd799/aromodel/pndit-qchem/methylated-rotation-run
input file:  Dimethyl_Naphthalene_Dicarboximide_Phi_50_Theta_330_Thiophene_Hydrogenated_Improper.qcin
output file: 
nprocs     : 1
nthreads   : 64
#
# qchem installation setting
#
QC:          /cm/shared/apps/spack/cpu/opt/spack/linux-centos8-zen2/gcc-10.2.0/qchem-5.4-akfmr7b3t57bfs6qan3padb2wnb2i7cl
QCAUX:       /cm/shared/apps/spack/cpu/opt/spack/linux-centos8-zen2/gcc-10.2.0/qchem-5.4-akfmr7b3t57bfs6qan3padb2wnb2i7cl/qcaux
QCPROG:      /cm/shared/apps/spack/cpu/opt/spack/linux-centos8-zen2/gcc-10.2.0/qchem-5.4-akfmr7b3t57bfs6qan3padb2wnb2i7cl/exe/qcprog.exe
QCPROG_S:    /cm/shared/apps/spack/cpu/opt/spack/linux-centos8-zen2/gcc-10.2.0/qchem-5.4-akfmr7b3t57bfs6qan3padb2wnb2i7cl/exe/qcprog.exe_s
PARALLEL:    -DPARALLEL
QCMPI:       mpich
#
# qchem directory setting
#
qcrun:       qchem2299183
QCSCRATCH:   .
QCLOCALSCR:  
QCTMPDIR:    .
QCFILEPREF:  ./qchem2299183
QCSAVEDIR:   
workdirs:    ./qchem2299183
workdir0:    ./qchem2299183
partmpdirs =  
#
# parallel setting
#
QCRSH:           ssh
QCMPI:           mpich
QCMPIRUN:        /cm/shared/apps/spack/cpu/opt/spack/linux-centos8-zen2/gcc-10.2.0/qchem-5.4-akfmr7b3t57bfs6qan3padb2wnb2i7cl/bin/mpi/mpirun_qchem
QCMACHINEFILE:   ./qchem2299183/hostfile
exp-12-09

#
# env setting
#
exported envs:   QC QCAUX QCSCRATCH QCRUNNAME QCFILEPREF QCPROG QCPROG_S GUIFILE

Running Job 1 of 1 Dimethyl_Naphthalene_Dicarboximide_Phi_50_Theta_330_Thiophene_Hydrogenated_Improper.qcin
qchem Dimethyl_Naphthalene_Dicarboximide_Phi_50_Theta_330_Thiophene_Hydrogenated_Improper.qcin_2299183.0 ./qchem2299183/ 1
/cm/shared/apps/spack/cpu/opt/spack/linux-centos8-zen2/gcc-10.2.0/qchem-5.4-akfmr7b3t57bfs6qan3padb2wnb2i7cl/bin/mpi/mpirun_qchem -machinefile ./qchem2299183/hostfile -np 1 /cm/shared/apps/spack/cpu/opt/spack/linux-centos8-zen2/gcc-10.2.0/qchem-5.4-akfmr7b3t57bfs6qan3padb2wnb2i7cl/exe/qcprog.exe Dimethyl_Naphthalene_Dicarboximide_Phi_50_Theta_330_Thiophene_Hydrogenated_Improper.qcin_2299183.0 ./qchem2299183/

Process 0 of 1 is on exp-12-09 - thread support 0
initial socket setup ...start
initial socket setup ...done 
now start server 0 ... 
                  Welcome to Q-Chem
     A Quantum Leap Into The Future Of Chemistry


 Q-Chem 5.4, Q-Chem, Inc., Pleasanton, CA (2021)

 License issued to: University of California, San Diego (site)

 E. Epifanovsky,  A. T. B. Gilbert,  Xintian Feng,  Joonho Lee,  Yuezhi Mao,  
 N. Mardirossian,  P. Pokhilko,  A. White,  M. Wormit,  M. P. Coons,  
 A. L. Dempwolff,  Zhengting Gan,  D. Hait,  P. R. Horn,  L. D. Jacobson,  
 I. Kaliman,  J. Kussmann,  A. W. Lange,  Ka Un Lao,  D. S. Levine,  Jie Liu,  
 S. C. McKenzie,  A. F. Morrison,  K. Nanda,  F. Plasser,  D. R. Rehn,  
 M. L. Vidal,  Zhi-Qiang You,  Ying Zhu,  B. Alam,  B. Albrecht,  
 A. Aldossary,  E. Alguire,  J. H. Andersen,  D. Barton,  K. Begam,  A. Behn,  
 Y. A. Bernard,  E. J. Berquist,  H. Burton,  A. Carreras,  K. Carter-Fenk,  
 R. Chakraborty,  A. D. Chien,  K. D. Closser,  V. Cofer-Shabica,  
 S. Dasgupta,  Jia Deng,  M. de Wergifosse,  M. Diedenhofen,  Hainam Do,  
 S. Ehlert,  Po-Tung Fang,  S. Fatehi,  Qingguo Feng,  J. Gayvert,  
 Qinghui Ge,  G. Gidofalvi,  M. Goldey,  J. Gomes,  C. Gonzalez-Espinoza,  
 S. Gulania,  A. Gunina,  M. W. D. Hanson-Heine,  P. H. P. Harbach,  
 A. W. Hauser,  M. F. Herbst,  M. Hernandez Vera,  M. Hodecker,  
 Z. C. Holden,  S. Houck,  Xunkun Huang,  Kerwin Hui,  B. C. Huynh,  
 M. Ivanov,  Hyunjun Ji,  Hanjie Jiang,  B. Kaduk,  S. Kaehler,  
 K. Khistyaev,  Jaehoon Kim,  P. Klunzinger,  Z. Koczor-Benda,  
 Joong Hoon Koh,  D. Kosenkov,  L. Koulias,  T. Kowalczyk,  C. M. Krauter,  
 K. Kue,  A. Kunitsa,  T. Kus,  A. Landau,  K. V. Lawler,  D. Lefrancois,  
 S. Lehtola,  Rain Li,  Yi-Pei Li,  Jiashu Liang,  M. Liebenthal,  
 Hung-Hsuan Lin,  You-Sheng Lin,  Fenglai Liu,  Kuan-Yu Liu,  
 M. Loipersberger,  A. Luenser,  A. Manjanath,  P. Manohar,  E. Mansoor,  
 S. F. Manzer,  Shan-Ping Mao,  A. V. Marenich,  T. Markovich,  S. Mason,  
 S. A. Maurer,  P. F. McLaughlin,  M. F. S. J. Menger,  J.-M. Mewes,  
 S. A. Mewes,  P. Morgante,  J. W. Mullinax,  T. S. Nguyen-Beck,  
 K. J. Oosterbaan,  G. Paran,  Alexander C. Paul,  Suranjan K. Paul,  
 F. Pavosevic,  Zheng Pei,  S. Prager,  E. I. Proynov,  E. Ramos,  B. Rana,  
 A. E. Rask,  A. Rettig,  R. M. Richard,  F. Rob,  E. Rossomme,  T. Scheele,  
 M. Scheurer,  M. Schneider,  N. Sergueev,  S. M. Sharada,  W. Skomorowski,  
 D. W. Small,  C. J. Stein,  Yu-Chuan Su,  E. J. Sundstrom,  Zhen Tao,  
 J. Thirman,  T. Tsuchimochi,  N. M. Tubman,  S. P. Veccham,  O. Vydrov,  
 J. Wenzel,  J. Witte,  A. Yamada,  Kun Yao,  S. Yeganeh,  S. R. Yost,  
 A. Zech,  Igor Ying Zhang,  Xing Zhang,  Yu Zhang,  D. Zuev,  
 A. Aspuru-Guzik,  A. T. Bell,  N. A. Besley,  K. B. Bravaya,  B. R. Brooks,  
 D. Casanova,  Jeng-Da Chai,  S. Coriani,  C. J. Cramer,  
 A. E. DePrince, III,  R. A. DiStasio Jr.,  A. Dreuw,  B. D. Dunietz,  
 T. R. Furlani,  W. A. Goddard III,  S. Grimme,  S. Hammes-Schiffer,  
 T. Head-Gordon,  W. J. Hehre,  Chao-Ping Hsu,  T.-C. Jagau,  Yousung Jung,  
 A. Klamt,  Jing Kong,  D. S. Lambrecht,  WanZhen Liang,  N. J. Mayhall,  
 C. W. McCurdy,  J. B. Neaton,  C. Ochsenfeld,  J. A. Parkhill,  R. Peverati,  
 V. A. Rassolov,  Yihan Shao,  L. V. Slipchenko,  T. Stauch,  R. P. Steele,  
 J. E. Subotnik,  A. J. W. Thom,  A. Tkatchenko,  D. G. Truhlar,  
 T. Van Voorhis,  T. A. Wesolowski,  K. B. Whaley,  H. L. Woodcock III,  
 P. M. Zimmerman,  S. Faraji,  P. M. W. Gill,  M. Head-Gordon,  
 J. M. Herbert,  A. I. Krylov

 Contributors to earlier versions of Q-Chem not listed above: 
 R. D. Adamson,  B. Austin,  R. Baer,  J. Baker,  G. J. O. Beran,  
 K. Brandhorst,  S. T. Brown,  E. F. C. Byrd,  A. K. Chakraborty,  
 G. K. L. Chan,  Chun-Min Chang,  Yunqing Chen,  C.-L. Cheng,  
 Siu Hung Chien,  D. M. Chipman,  D. L. Crittenden,  H. Dachsel,  
 R. J. Doerksen,  A. D. Dutoi,  R. G. Edgar,  J. Fosso-Tande,  
 L. Fusti-Molnar,  D. Ghosh,  A. Ghysels,  A. Golubeva-Zadorozhnaya,  
 J. Gonthier,  M. S. Gordon,  S. R. Gwaltney,  G. Hawkins,  J. E. Herr,  
 A. Heyden,  S. Hirata,  E. G. Hohenstein,  G. Kedziora,  F. J. Keil,  
 C. Kelley,  Jihan Kim,  R. A. King,  R. Z. Khaliullin,  P. P. Korambath,  
 W. Kurlancheek,  A. Laurent,  A. M. Lee,  M. S. Lee,  S. V. Levchenko,  
 Ching Yeh Lin,  D. Liotard,  E. Livshits,  R. C. Lochan,  I. Lotan,  
 L. A. Martinez-Martinez,  P. E. Maslen,  N. Nair,  D. P. O'Neill,  
 D. Neuhauser,  E. Neuscamman,  C. M. Oana,  R. Olivares-Amaya,  R. Olson,  
 T. M. Perrine,  B. Peters,  P. A. Pieniazek,  A. Prociuk,  Y. M. Rhee,  
 J. Ritchie,  M. A. Rohrdanz,  E. Rosta,  N. J. Russ,  H. F. Schaefer III,  
 M. W. Schmidt,  N. E. Schultz,  S. Sharma,  N. Shenvi,  C. D. Sherrill,  
 A. C. Simmonett,  A. Sodt,  T. Stein,  D. Stuck,  K. S. Thanthiriwatte,  
 V. Vanovschi,  L. Vogt,  Tao Wang,  A. Warshel,  M. A. Watson,  
 C. F. Williams,  Q. Wu,  X. Xu,  Jun Yang,  W. Zhang,  Yan Zhao

 Please cite Q-Chem as follows:
 Y. Shao et al., Mol. Phys. 113, 184-215 (2015)
 DOI: 10.1080/00268976.2014.952696

 Q-Chem 5.4.0 for Intel X86 EM64T Linux

 Parts of Q-Chem use Armadillo 9.800.1 (Horizon Scraper).
 http://arma.sourceforge.net/

 Q-Chem begins on Wed Dec 27 10:10:50 2023  

 Host: 
0

     Scratch files written to ./qchem2299183//
 May1621 |scratch|qcdevops|jenkins|workspace|build_RNUM    
 Parallel job on  1  processors
 Processing $rem in /cm/shared/apps/spack/cpu/opt/spack/linux-centos8-zen2/gcc-10.2.0/qchem-5.4-akfmr7b3t57bfs6qan3padb2wnb2i7cl/config/preferences:
 Processing $rem in /home/rramji/.qchemrc:
 Symmetry turned off for PCM/SM12/SMD calculation
 Core orbitals will be frozen

 Checking the input file for inconsistencies... 	...done.

 Q-Chem warning in module forms1/BasisType.C, line 2236:

 You are not using the predefined 5D/6D in this basis set.


--------------------------------------------------------------
User input:
--------------------------------------------------------------
$molecule
0 1
C	-0.402372	-0.214208	-0.212476
S	0.205128	0.295792	1.368024
C	1.459628	1.348492	0.692424
C	0.362028	0.427392	-1.197876
C	1.373328	1.276092	-0.705976
H	0.181528	0.275892	-2.272376
H	2.048128	1.842392	-1.365076
C	-0.402372	-1.692408	-0.212476
H	0.533228	-1.693008	-0.751976
H	0.090928	-2.131708	0.642024
H	-0.808972	-2.403408	-0.916476
H	2.134228	1.914692	1.343524
$end

$rem
JOBTYPE		SP
EXCHANGE	HF
CORRELATION	pRIMP2
BASIS		cc-pvtz
METHOD		rimp2
AUX_BASIS	rimp2-cc-pvtz
SOLVENT_METHOD	PCM
PURECART	11111
SYMMETRY	false
MEM_TOTAL	110000
SCF_CONVERGENCE = 6
THRESH=10
GUI = 2
$end



$solvent
dielectric 4.90
$end
--------------------------------------------------------------
 ----------------------------------------------------------------
             Standard Nuclear Orientation (Angstroms)
    I     Atom           X                Y                Z
 ----------------------------------------------------------------
    1      C      -0.4023720000    -0.2142080000    -0.2124760000
    2      S       0.2051280000     0.2957920000     1.3680240000
    3      C       1.4596280000     1.3484920000     0.6924240000
    4      C       0.3620280000     0.4273920000    -1.1978760000
    5      C       1.3733280000     1.2760920000    -0.7059760000
    6      H       0.1815280000     0.2758920000    -2.2723760000
    7      H       2.0481280000     1.8423920000    -1.3650760000
    8      C      -0.4023720000    -1.6924080000    -0.2124760000
    9      H       0.5332280000    -1.6930080000    -0.7519760000
   10      H       0.0909280000    -2.1317080000     0.6420240000
   11      H      -0.8089720000    -2.4034080000    -0.9164760000
   12      H       2.1342280000     1.9146920000     1.3435240000
 ----------------------------------------------------------------
 Nuclear Repulsion Energy =         274.81140818 hartrees
 There are       26 alpha and       26 beta electrons
 Requested basis set is cc-pVTZ
 There are 98 shells and 268 basis functions

 Total QAlloc Memory Limit 110000 MB
 Mega-Array Size       188 MB
 MEM_STATIC part       192 MB
 Discretize the solute cavity surface with Lebedev spheres
	Using 110 Lebedev grid points for each H atom
	Using 194 Lebedev grid points for other atoms
	Atomic van der Waals radii will be scaled by 1.20
 Remove points where switching function is < 1.0e-08
 Keep 853 surface tesserae and discard 971 interior tesserae
 Molecular Surface Area = 135.767 Angst**2

                       Distance Matrix (Angstroms)
             C (  1)   S (  2)   C (  3)   C (  4)   C (  5)   H (  6)
   S (  2)  1.768371
   C (  3)  2.593823  1.771548
   C (  4)  1.402487  2.574059  2.372000
   C (  5)  2.370158  2.574326  1.402930  1.408895
   H (  6)  2.196435  3.640531  3.402065  1.100038  2.207803
   H (  7)  3.400447  3.641216  2.196264  2.207513  1.100211  2.600252
   C (  8)  1.478200  2.611508  3.678717  2.459446  3.494087  2.908321
   H (  9)  1.831190  2.925299  3.492167  2.173530  3.086007  2.512345
   H ( 10)  2.156460  2.536311  3.740010  3.163498  3.882622  3.781332
   H ( 11)  2.335281  3.678725  4.670317  3.076338  4.283160  3.161994
   H ( 12)  3.658919  2.518504  1.095262  3.436782  2.277549  4.424188
             H (  7)   C (  8)   H (  9)   H ( 10)   H ( 11)
   C (  8)  4.452892
   H (  9)  3.894851  1.080004
   H ( 10)  4.863389  1.080046  1.526867
   H ( 11)  5.137225  1.080028  1.527491  1.820045
   H ( 12)  2.710932  4.676179  4.468761  4.586996  5.693506
 
 Requested basis set is rimp2-cc-pVTZ
 There are 207 shells and 707 basis functions
 A cutoff of  1.0D-10 yielded   4486 shell pairs
 There are     33820 function pairs (     43753 Cartesian)
 Smallest overlap matrix eigenvalue = 1.70E-04

 Scale SEOQF with 1.000000e-01/1.000000e-01/1.000000e-01

 Standard Electronic Orientation quadrupole field applied
 Nucleus-field energy     =    -0.0000000003 hartrees
 Guess from superposition of atomic densities
 Warning:  Energy on first SCF cycle will be non-variational
 SAD guess density has 52.000000 electrons

 -----------------------------------------------------------------------
  General SCF calculation program by
  Eric Jon Sundstrom, Paul Horn, Yuezhi Mao, Dmitri Zuev, Alec White,
  David Stuck, Shaama M.S., Shane Yost, Joonho Lee, David Small,
  Daniel Levine, Susi Lehtola, Hugh Burton, Evgeny Epifanovsky,
  Bang C. Huynh
 -----------------------------------------------------------------------
 Hartree-Fock
 using 64 threads for integral computing
 -------------------------------------------------------
 OpenMP Integral computing Module                
 Release: version 1.0, May 2013, Q-Chem Inc. Pittsburgh 
 -------------------------------------------------------
 A restricted SCF calculation will be
 performed using DIIS
 SCF converges when DIIS error is below 1.0e-06
 ---------------------------------------
  Cycle       Energy         DIIS error
 ---------------------------------------
    1    -592.6636801255      3.26e-02  
    2    -590.2496055665      2.17e-03  
    3    -590.3109703823      7.75e-04  
    4    -590.3178414413      3.61e-04  
    5    -590.3195785343      7.21e-05  
    6    -590.3197177702      3.04e-05  
    7    -590.3197587375      1.61e-05  
    8    -590.3197724247      6.04e-06  
    9    -590.3197749806      3.26e-06  
   10    -590.3197752953      1.14e-06  
   11    -590.3197753727      6.28e-07  Convergence criterion met
 ---------------------------------------
 SCF time:   CPU 546.81s  wall 10.00s 

************** Final PCM Free Energy Summary **************
 G_electrostatic  =      -0.00560991 hartree =      -3.52027465 kcal/mol
 G_cavitation     =       0.00000000 hartree =       0.00000000 kcal/mol
 G_dispersion     =       0.00000000 hartree =       0.00000000 kcal/mol
 G_repulsion      =       0.00000000 hartree =       0.00000000 kcal/mol
 --------------------------------------------------
 Non-electrostatic Free Energy =       0.00000000 hartree =       0.00000000 kcal/mol
 Total                         =      -0.00560991 hartree =      -3.52027465 kcal/mol
 --------------------------------------------------
 SCF Energy (H0 + V/2)                       =    -590.31977537 
 Solute Internal Energy (H0)                 =    -590.31416546 
 Total Free Energy (H0 + V/2 + non-elec)     =    -590.31977537 hartree
                                             = -370431.24996496 kcal/mol
***********************************************************

 SCF   energy in the final basis set =     -590.3197753727
 Total energy in the final basis set =     -590.3197753727


 --------------------------------------------------------------
  Generalized many-body perturbation theory program
  by Joonho Lee, Fazle Rob, Xintian Feng, Evgeny Epifanovsky

 No regularization used 
 (reg. param. = 0.0000e+00)
  (P|Q)^-1/2 Time:  CPU 7.26 s  wall 0.13 s

 In RI-MP2 calculation: 
 # of frozen core orbitals: 10

 Components of the RIMP2 correlation energy:
        aaaa    correlation energy =        -0.1272812741 a.u.
        abab    correlation energy =        -0.7582213875 a.u.
        bbbb    correlation energy =        -0.1272812741 a.u.
        non-Brillouin singles      =        -0.0000000000 a.u.
        total same-spin energy     =        -0.2545625482 a.u.
        total opposite-spin energy =        -0.7582213875 a.u.

 Total  RIMP2   correlation energy =        -1.0127839357 a.u.
        RIMP2         total energy =      -591.3325593084 a.u.

 RI-MP2 Energy Time:  CPU 30.32 s  wall 0.54 s
 
 --------------------------------------------------------------
 
                    Orbital Energies (a.u.)
 --------------------------------------------------------------
 
 Alpha MOs
 -- Occupied --
-91.9795 -11.2791 -11.2705 -11.2447 -11.2427 -11.2174  -8.9796  -6.6604
 -6.6597  -6.6594  -1.1671  -1.0383  -0.9772  -0.9078  -0.7607  -0.7265
 -0.6718  -0.5961  -0.5682  -0.5568  -0.5441  -0.4813  -0.4669  -0.4552
 -0.3433  -0.2972
 -- Virtual --
  0.0713   0.1563   0.1617   0.1815   0.1841   0.1962   0.2156   0.2263
  0.2316   0.2386   0.3060   0.3307   0.3372   0.3668   0.3830   0.3991
  0.4404   0.4448   0.4553   0.4557   0.4904   0.4966   0.5144   0.5332
  0.5387   0.5513   0.5620   0.5787   0.5990   0.6041   0.6126   0.6163
  0.6231   0.6379   0.6461   0.6893   0.6953   0.7036   0.7432   0.7530
  0.7786   0.7905   0.8007   0.8411   0.8624   0.8752   0.8908   0.9089
  0.9356   0.9818   1.0438   1.0586   1.0904   1.1029   1.1220   1.1387
  1.1569   1.1661   1.1863   1.1972   1.2222   1.2504   1.2680   1.2817
  1.2995   1.3125   1.3264   1.3475   1.3560   1.3804   1.4303   1.4430
  1.4677   1.4788   1.4957   1.5232   1.5344   1.5369   1.5612   1.5825
  1.6041   1.6180   1.6546   1.6651   1.6794   1.7511   1.7709   1.7909
  1.8409   1.8702   1.8910   1.9014   1.9677   1.9941   2.0185   2.1073
  2.1289   2.1668   2.1856   2.1965   2.2385   2.2732   2.3388   2.3832
  2.4174   2.4457   2.4730   2.5121   2.5772   2.5840   2.6380   2.6614
  2.6814   2.7023   2.7269   2.7586   2.7796   2.8003   2.8205   2.8551
  2.8926   2.9140   2.9324   2.9376   3.0006   3.0207   3.0339   3.0631
  3.0882   3.0904   3.1111   3.1562   3.1765   3.1893   3.2163   3.2188
  3.2431   3.2540   3.2982   3.3072   3.3288   3.3444   3.3496   3.3629
  3.4134   3.4275   3.4358   3.4508   3.4527   3.4635   3.4928   3.5031
  3.5261   3.5398   3.5565   3.5673   3.5871   3.6222   3.6397   3.6603
  3.6877   3.7014   3.7238   3.7548   3.7671   3.8089   3.8320   3.8488
  3.8777   3.9000   3.9395   3.9437   3.9540   3.9703   3.9877   4.0222
  4.0364   4.0511   4.0954   4.1196   4.1313   4.1648   4.1836   4.2007
  4.2547   4.2719   4.2932   4.3059   4.3152   4.3755   4.4001   4.4138
  4.4450   4.4714   4.4899   4.5239   4.5781   4.6079   4.6365   4.6566
  4.6576   4.6920   4.7409   4.7722   4.7972   4.8013   4.8519   4.8902
  4.9231   4.9916   5.0244   5.0388   5.0913   5.1390   5.1804   5.2056
  5.2349   5.2892   5.3584   5.4069   5.4360   5.4883   5.5359   5.5861
  5.6132   5.6954   5.7903   5.8218   5.8448   5.9220   5.9644   6.0325
  6.0771   6.3314   6.3879   6.4642   6.5594   9.6100  11.6182  12.6782
 13.8887  13.9947
 --------------------------------------------------------------
 
          Ground-State Mulliken Net Atomic Charges

     Atom                 Charge (a.u.)
  ----------------------------------------
      1 C                    -0.069056
      2 S                     0.017043
      3 C                    -0.197931
      4 C                    -0.137178
      5 C                    -0.228760
      6 H                     0.181064
      7 H                     0.187216
      8 C                    -0.363021
      9 H                     0.135008
     10 H                     0.131133
     11 H                     0.138252
     12 H                     0.206228
  ----------------------------------------
  Sum of atomic charges =     0.000000

 -----------------------------------------------------------------
                    Cartesian Multipole Moments
 -----------------------------------------------------------------
    Charge (ESU x 10^10)
                 0.0000
    Dipole Moment (Debye)
         X       2.0576      Y      -0.3154      Z      -1.3343
       Tot       2.4725
    Quadrupole Moments (Debye-Ang)
        XX     -43.6085     XY       3.7370     YY     -42.2526
        XZ       0.8038     YZ       1.4229     ZZ     -40.9648
    Octopole Moments (Debye-Ang^2)
       XXX     -47.9480    XXY       0.8004    XYY      -9.0795
       YYY     -28.6105    XXZ      -4.2531    XYZ       1.5128
       YYZ      -6.8175    XZZ     -12.5311    YZZ      -5.3997
       ZZZ     -28.5478
    Hexadecapole Moments (Debye-Ang^3)
      XXXX    -236.6748   XXXY     -76.3383   XXYY     -84.4784
      XYYY     -85.5128   YYYY    -355.5750   XXXZ      -3.7447
      XXYZ      -1.1925   XYYZ       4.0741   YYYZ      -9.1383
      XXZZ     -83.7541   XYZZ     -17.7104   YYZZ    -102.9469
      XZZZ      -3.6011   YZZZ     -14.9964   ZZZZ    -304.3627
 -----------------------------------------------------------------
 Total job time:  11.55s(wall), 624.89s(cpu) 
 Wed Dec 27 10:11:02 2023

        *************************************************************
        *                                                           *
        *  Thank you very much for using Q-Chem.  Have a nice day.  *
        *                                                           *
        *************************************************************


0 sent ACK to 0 
now end server 0 ... 
cleanup process ... done
remove work dirs ./qchem2299183.0 -- ./qchem2299183.0
rm -rf ./qchem2299183.0
rm -rf ./qchem2299183
