You are running Q-Chem version: 5.4.0

#
# job setting
#
local host:  exp-12-09
current dir: /home/rramji/project-csd799/aromodel/pndit-qchem/methylated-rotation-run
input file:  Dimethyl_Naphthalene_Dicarboximide_Phi_50_Theta_350_Thiophene_Hydrogenated_Improper.qcin
output file: 
nprocs     : 1
nthreads   : 64
#
# qchem installation setting
#
QC:          /cm/shared/apps/spack/cpu/opt/spack/linux-centos8-zen2/gcc-10.2.0/qchem-5.4-akfmr7b3t57bfs6qan3padb2wnb2i7cl
QCAUX:       /cm/shared/apps/spack/cpu/opt/spack/linux-centos8-zen2/gcc-10.2.0/qchem-5.4-akfmr7b3t57bfs6qan3padb2wnb2i7cl/qcaux
QCPROG:      /cm/shared/apps/spack/cpu/opt/spack/linux-centos8-zen2/gcc-10.2.0/qchem-5.4-akfmr7b3t57bfs6qan3padb2wnb2i7cl/exe/qcprog.exe
QCPROG_S:    /cm/shared/apps/spack/cpu/opt/spack/linux-centos8-zen2/gcc-10.2.0/qchem-5.4-akfmr7b3t57bfs6qan3padb2wnb2i7cl/exe/qcprog.exe_s
PARALLEL:    -DPARALLEL
QCMPI:       mpich
#
# qchem directory setting
#
qcrun:       qchem2299492
QCSCRATCH:   .
QCLOCALSCR:  
QCTMPDIR:    .
QCFILEPREF:  ./qchem2299492
QCSAVEDIR:   
workdirs:    ./qchem2299492
workdir0:    ./qchem2299492
partmpdirs =  
#
# parallel setting
#
QCRSH:           ssh
QCMPI:           mpich
QCMPIRUN:        /cm/shared/apps/spack/cpu/opt/spack/linux-centos8-zen2/gcc-10.2.0/qchem-5.4-akfmr7b3t57bfs6qan3padb2wnb2i7cl/bin/mpi/mpirun_qchem
QCMACHINEFILE:   ./qchem2299492/hostfile
exp-12-09

#
# env setting
#
exported envs:   QC QCAUX QCSCRATCH QCRUNNAME QCFILEPREF QCPROG QCPROG_S GUIFILE

Running Job 1 of 1 Dimethyl_Naphthalene_Dicarboximide_Phi_50_Theta_350_Thiophene_Hydrogenated_Improper.qcin
qchem Dimethyl_Naphthalene_Dicarboximide_Phi_50_Theta_350_Thiophene_Hydrogenated_Improper.qcin_2299492.0 ./qchem2299492/ 1
/cm/shared/apps/spack/cpu/opt/spack/linux-centos8-zen2/gcc-10.2.0/qchem-5.4-akfmr7b3t57bfs6qan3padb2wnb2i7cl/bin/mpi/mpirun_qchem -machinefile ./qchem2299492/hostfile -np 1 /cm/shared/apps/spack/cpu/opt/spack/linux-centos8-zen2/gcc-10.2.0/qchem-5.4-akfmr7b3t57bfs6qan3padb2wnb2i7cl/exe/qcprog.exe Dimethyl_Naphthalene_Dicarboximide_Phi_50_Theta_350_Thiophene_Hydrogenated_Improper.qcin_2299492.0 ./qchem2299492/

Process 0 of 1 is on exp-12-09 - thread support 0
initial socket setup ...start
initial socket setup ...done 
now start server 0 ... 
                  Welcome to Q-Chem
     A Quantum Leap Into The Future Of Chemistry


 Q-Chem 5.4, Q-Chem, Inc., Pleasanton, CA (2021)

 License issued to: University of California, San Diego (site)

 E. Epifanovsky,  A. T. B. Gilbert,  Xintian Feng,  Joonho Lee,  Yuezhi Mao,  
 N. Mardirossian,  P. Pokhilko,  A. White,  M. Wormit,  M. P. Coons,  
 A. L. Dempwolff,  Zhengting Gan,  D. Hait,  P. R. Horn,  L. D. Jacobson,  
 I. Kaliman,  J. Kussmann,  A. W. Lange,  Ka Un Lao,  D. S. Levine,  Jie Liu,  
 S. C. McKenzie,  A. F. Morrison,  K. Nanda,  F. Plasser,  D. R. Rehn,  
 M. L. Vidal,  Zhi-Qiang You,  Ying Zhu,  B. Alam,  B. Albrecht,  
 A. Aldossary,  E. Alguire,  J. H. Andersen,  D. Barton,  K. Begam,  A. Behn,  
 Y. A. Bernard,  E. J. Berquist,  H. Burton,  A. Carreras,  K. Carter-Fenk,  
 R. Chakraborty,  A. D. Chien,  K. D. Closser,  V. Cofer-Shabica,  
 S. Dasgupta,  Jia Deng,  M. de Wergifosse,  M. Diedenhofen,  Hainam Do,  
 S. Ehlert,  Po-Tung Fang,  S. Fatehi,  Qingguo Feng,  J. Gayvert,  
 Qinghui Ge,  G. Gidofalvi,  M. Goldey,  J. Gomes,  C. Gonzalez-Espinoza,  
 S. Gulania,  A. Gunina,  M. W. D. Hanson-Heine,  P. H. P. Harbach,  
 A. W. Hauser,  M. F. Herbst,  M. Hernandez Vera,  M. Hodecker,  
 Z. C. Holden,  S. Houck,  Xunkun Huang,  Kerwin Hui,  B. C. Huynh,  
 M. Ivanov,  Hyunjun Ji,  Hanjie Jiang,  B. Kaduk,  S. Kaehler,  
 K. Khistyaev,  Jaehoon Kim,  P. Klunzinger,  Z. Koczor-Benda,  
 Joong Hoon Koh,  D. Kosenkov,  L. Koulias,  T. Kowalczyk,  C. M. Krauter,  
 K. Kue,  A. Kunitsa,  T. Kus,  A. Landau,  K. V. Lawler,  D. Lefrancois,  
 S. Lehtola,  Rain Li,  Yi-Pei Li,  Jiashu Liang,  M. Liebenthal,  
 Hung-Hsuan Lin,  You-Sheng Lin,  Fenglai Liu,  Kuan-Yu Liu,  
 M. Loipersberger,  A. Luenser,  A. Manjanath,  P. Manohar,  E. Mansoor,  
 S. F. Manzer,  Shan-Ping Mao,  A. V. Marenich,  T. Markovich,  S. Mason,  
 S. A. Maurer,  P. F. McLaughlin,  M. F. S. J. Menger,  J.-M. Mewes,  
 S. A. Mewes,  P. Morgante,  J. W. Mullinax,  T. S. Nguyen-Beck,  
 K. J. Oosterbaan,  G. Paran,  Alexander C. Paul,  Suranjan K. Paul,  
 F. Pavosevic,  Zheng Pei,  S. Prager,  E. I. Proynov,  E. Ramos,  B. Rana,  
 A. E. Rask,  A. Rettig,  R. M. Richard,  F. Rob,  E. Rossomme,  T. Scheele,  
 M. Scheurer,  M. Schneider,  N. Sergueev,  S. M. Sharada,  W. Skomorowski,  
 D. W. Small,  C. J. Stein,  Yu-Chuan Su,  E. J. Sundstrom,  Zhen Tao,  
 J. Thirman,  T. Tsuchimochi,  N. M. Tubman,  S. P. Veccham,  O. Vydrov,  
 J. Wenzel,  J. Witte,  A. Yamada,  Kun Yao,  S. Yeganeh,  S. R. Yost,  
 A. Zech,  Igor Ying Zhang,  Xing Zhang,  Yu Zhang,  D. Zuev,  
 A. Aspuru-Guzik,  A. T. Bell,  N. A. Besley,  K. B. Bravaya,  B. R. Brooks,  
 D. Casanova,  Jeng-Da Chai,  S. Coriani,  C. J. Cramer,  
 A. E. DePrince, III,  R. A. DiStasio Jr.,  A. Dreuw,  B. D. Dunietz,  
 T. R. Furlani,  W. A. Goddard III,  S. Grimme,  S. Hammes-Schiffer,  
 T. Head-Gordon,  W. J. Hehre,  Chao-Ping Hsu,  T.-C. Jagau,  Yousung Jung,  
 A. Klamt,  Jing Kong,  D. S. Lambrecht,  WanZhen Liang,  N. J. Mayhall,  
 C. W. McCurdy,  J. B. Neaton,  C. Ochsenfeld,  J. A. Parkhill,  R. Peverati,  
 V. A. Rassolov,  Yihan Shao,  L. V. Slipchenko,  T. Stauch,  R. P. Steele,  
 J. E. Subotnik,  A. J. W. Thom,  A. Tkatchenko,  D. G. Truhlar,  
 T. Van Voorhis,  T. A. Wesolowski,  K. B. Whaley,  H. L. Woodcock III,  
 P. M. Zimmerman,  S. Faraji,  P. M. W. Gill,  M. Head-Gordon,  
 J. M. Herbert,  A. I. Krylov

 Contributors to earlier versions of Q-Chem not listed above: 
 R. D. Adamson,  B. Austin,  R. Baer,  J. Baker,  G. J. O. Beran,  
 K. Brandhorst,  S. T. Brown,  E. F. C. Byrd,  A. K. Chakraborty,  
 G. K. L. Chan,  Chun-Min Chang,  Yunqing Chen,  C.-L. Cheng,  
 Siu Hung Chien,  D. M. Chipman,  D. L. Crittenden,  H. Dachsel,  
 R. J. Doerksen,  A. D. Dutoi,  R. G. Edgar,  J. Fosso-Tande,  
 L. Fusti-Molnar,  D. Ghosh,  A. Ghysels,  A. Golubeva-Zadorozhnaya,  
 J. Gonthier,  M. S. Gordon,  S. R. Gwaltney,  G. Hawkins,  J. E. Herr,  
 A. Heyden,  S. Hirata,  E. G. Hohenstein,  G. Kedziora,  F. J. Keil,  
 C. Kelley,  Jihan Kim,  R. A. King,  R. Z. Khaliullin,  P. P. Korambath,  
 W. Kurlancheek,  A. Laurent,  A. M. Lee,  M. S. Lee,  S. V. Levchenko,  
 Ching Yeh Lin,  D. Liotard,  E. Livshits,  R. C. Lochan,  I. Lotan,  
 L. A. Martinez-Martinez,  P. E. Maslen,  N. Nair,  D. P. O'Neill,  
 D. Neuhauser,  E. Neuscamman,  C. M. Oana,  R. Olivares-Amaya,  R. Olson,  
 T. M. Perrine,  B. Peters,  P. A. Pieniazek,  A. Prociuk,  Y. M. Rhee,  
 J. Ritchie,  M. A. Rohrdanz,  E. Rosta,  N. J. Russ,  H. F. Schaefer III,  
 M. W. Schmidt,  N. E. Schultz,  S. Sharma,  N. Shenvi,  C. D. Sherrill,  
 A. C. Simmonett,  A. Sodt,  T. Stein,  D. Stuck,  K. S. Thanthiriwatte,  
 V. Vanovschi,  L. Vogt,  Tao Wang,  A. Warshel,  M. A. Watson,  
 C. F. Williams,  Q. Wu,  X. Xu,  Jun Yang,  W. Zhang,  Yan Zhao

 Please cite Q-Chem as follows:
 Y. Shao et al., Mol. Phys. 113, 184-215 (2015)
 DOI: 10.1080/00268976.2014.952696

 Q-Chem 5.4.0 for Intel X86 EM64T Linux

 Parts of Q-Chem use Armadillo 9.800.1 (Horizon Scraper).
 http://arma.sourceforge.net/

 Q-Chem begins on Wed Dec 27 10:11:19 2023  

 Host: 
0

     Scratch files written to ./qchem2299492//
 May1621 |scratch|qcdevops|jenkins|workspace|build_RNUM    
 Parallel job on  1  processors
 Processing $rem in /cm/shared/apps/spack/cpu/opt/spack/linux-centos8-zen2/gcc-10.2.0/qchem-5.4-akfmr7b3t57bfs6qan3padb2wnb2i7cl/config/preferences:
 Processing $rem in /home/rramji/.qchemrc:
 Symmetry turned off for PCM/SM12/SMD calculation
 Core orbitals will be frozen

 Checking the input file for inconsistencies... 	...done.

 Q-Chem warning in module forms1/BasisType.C, line 2236:

 You are not using the predefined 5D/6D in this basis set.


--------------------------------------------------------------
User input:
--------------------------------------------------------------
$molecule
0 1
C	-0.402739	-0.214208	-0.214392
S	0.204761	0.295792	1.366108
C	1.459261	1.348492	0.690508
C	0.361661	0.427392	-1.199792
C	1.372961	1.276092	-0.707892
H	0.181161	0.275892	-2.274292
H	2.047761	1.842392	-1.366992
C	-0.402739	-1.692408	-0.214392
H	0.660961	-1.693008	-0.401392
H	-0.231439	-2.131708	0.757208
H	-0.544039	-2.403408	-1.014992
H	2.133861	1.914692	1.341608
$end

$rem
JOBTYPE		SP
EXCHANGE	HF
CORRELATION	pRIMP2
BASIS		cc-pvtz
METHOD		rimp2
AUX_BASIS	rimp2-cc-pvtz
SOLVENT_METHOD	PCM
PURECART	11111
SYMMETRY	false
MEM_TOTAL	110000
SCF_CONVERGENCE = 6
THRESH=10
GUI = 2
$end



$solvent
dielectric 4.90
$end
--------------------------------------------------------------
 ----------------------------------------------------------------
             Standard Nuclear Orientation (Angstroms)
    I     Atom           X                Y                Z
 ----------------------------------------------------------------
    1      C      -0.4027390000    -0.2142080000    -0.2143920000
    2      S       0.2047610000     0.2957920000     1.3661080000
    3      C       1.4592610000     1.3484920000     0.6905080000
    4      C       0.3616610000     0.4273920000    -1.1997920000
    5      C       1.3729610000     1.2760920000    -0.7078920000
    6      H       0.1811610000     0.2758920000    -2.2742920000
    7      H       2.0477610000     1.8423920000    -1.3669920000
    8      C      -0.4027390000    -1.6924080000    -0.2143920000
    9      H       0.6609610000    -1.6930080000    -0.4013920000
   10      H      -0.2314390000    -2.1317080000     0.7572080000
   11      H      -0.5440390000    -2.4034080000    -1.0149920000
   12      H       2.1338610000     1.9146920000     1.3416080000
 ----------------------------------------------------------------
 Nuclear Repulsion Energy =         274.98816320 hartrees
 There are       26 alpha and       26 beta electrons
 Requested basis set is cc-pVTZ
 There are 98 shells and 268 basis functions

 Total QAlloc Memory Limit 110000 MB
 Mega-Array Size       188 MB
 MEM_STATIC part       192 MB
 Discretize the solute cavity surface with Lebedev spheres
	Using 110 Lebedev grid points for each H atom
	Using 194 Lebedev grid points for other atoms
	Atomic van der Waals radii will be scaled by 1.20
 Remove points where switching function is < 1.0e-08
 Keep 854 surface tesserae and discard 970 interior tesserae
 Molecular Surface Area = 135.934 Angst**2

                       Distance Matrix (Angstroms)
             C (  1)   S (  2)   C (  3)   C (  4)   C (  5)   H (  6)
   S (  2)  1.768371
   C (  3)  2.593823  1.771548
   C (  4)  1.402487  2.574059  2.372000
   C (  5)  2.370158  2.574326  1.402930  1.408895
   H (  6)  2.196435  3.640531  3.402065  1.100038  2.207803
   H (  7)  3.400447  3.641216  2.196264  2.207513  1.100211  2.600252
   C (  8)  1.478200  2.611508  3.678717  2.459446  3.494087  2.908321
   H (  9)  1.831195  2.699537  3.328701  2.285414  3.068622  2.759444
   H ( 10)  2.156422  2.540430  3.869717  3.275761  4.041500  3.893170
   H ( 11)  2.335278  3.676414  4.582433  2.977897  4.160279  3.048016
   H ( 12)  3.658919  2.518504  1.095262  3.436782  2.277549  4.424188
             H (  7)   C (  8)   H (  9)   H ( 10)   H ( 11)
   C (  8)  4.452892
   H (  9)  3.918501  1.080013
   H ( 10)  5.049797  1.079970  1.526823
   H ( 11)  4.986797  1.080022  1.527481  1.819954
   H ( 12)  2.710932  4.676179  4.268839  4.723296  5.600955
 
 Requested basis set is rimp2-cc-pVTZ
 There are 207 shells and 707 basis functions
 A cutoff of  1.0D-10 yielded   4493 shell pairs
 There are     33839 function pairs (     43754 Cartesian)
 Smallest overlap matrix eigenvalue = 1.75E-04

 Scale SEOQF with 1.000000e-01/1.000000e-01/1.000000e-01

 Standard Electronic Orientation quadrupole field applied
 Nucleus-field energy     =    -0.0000000003 hartrees
 Guess from superposition of atomic densities
 Warning:  Energy on first SCF cycle will be non-variational
 SAD guess density has 52.000000 electrons

 -----------------------------------------------------------------------
  General SCF calculation program by
  Eric Jon Sundstrom, Paul Horn, Yuezhi Mao, Dmitri Zuev, Alec White,
  David Stuck, Shaama M.S., Shane Yost, Joonho Lee, David Small,
  Daniel Levine, Susi Lehtola, Hugh Burton, Evgeny Epifanovsky,
  Bang C. Huynh
 -----------------------------------------------------------------------
 Hartree-Fock
 using 64 threads for integral computing
 -------------------------------------------------------
 OpenMP Integral computing Module                
 Release: version 1.0, May 2013, Q-Chem Inc. Pittsburgh 
 -------------------------------------------------------
 A restricted SCF calculation will be
 performed using DIIS
 SCF converges when DIIS error is below 1.0e-06
 ---------------------------------------
  Cycle       Energy         DIIS error
 ---------------------------------------
    1    -592.6616664933      3.26e-02  
    2    -590.2538505219      2.18e-03  
    3    -590.3152792502      7.90e-04  
    4    -590.3222631304      3.69e-04  
    5    -590.3240675376      7.11e-05  
    6    -590.3242034002      2.97e-05  
    7    -590.3242409673      1.57e-05  
    8    -590.3242528577      6.02e-06  
    9    -590.3242551229      3.25e-06  
   10    -590.3242554366      1.07e-06  
   11    -590.3242555038      5.32e-07  Convergence criterion met
 ---------------------------------------
 SCF time:   CPU 536.94s  wall 9.00s 

************** Final PCM Free Energy Summary **************
 G_electrostatic  =      -0.00559334 hartree =      -3.50987602 kcal/mol
 G_cavitation     =       0.00000000 hartree =       0.00000000 kcal/mol
 G_dispersion     =       0.00000000 hartree =       0.00000000 kcal/mol
 G_repulsion      =       0.00000000 hartree =       0.00000000 kcal/mol
 --------------------------------------------------
 Non-electrostatic Free Energy =       0.00000000 hartree =       0.00000000 kcal/mol
 Total                         =      -0.00559334 hartree =      -3.50987602 kcal/mol
 --------------------------------------------------
 SCF Energy (H0 + V/2)                       =    -590.32425550 
 Solute Internal Energy (H0)                 =    -590.31866216 
 Total Free Energy (H0 + V/2 + non-elec)     =    -590.32425550 hartree
                                             = -370434.06128963 kcal/mol
***********************************************************

 SCF   energy in the final basis set =     -590.3242555038
 Total energy in the final basis set =     -590.3242555038


 --------------------------------------------------------------
  Generalized many-body perturbation theory program
  by Joonho Lee, Fazle Rob, Xintian Feng, Evgeny Epifanovsky

 No regularization used 
 (reg. param. = 0.0000e+00)
  (P|Q)^-1/2 Time:  CPU 5.68 s  wall 0.09 s

 In RI-MP2 calculation: 
 # of frozen core orbitals: 10

 Components of the RIMP2 correlation energy:
        aaaa    correlation energy =        -0.1270200216 a.u.
        abab    correlation energy =        -0.7575137196 a.u.
        bbbb    correlation energy =        -0.1270200216 a.u.
        non-Brillouin singles      =        -0.0000000000 a.u.
        total same-spin energy     =        -0.2540400431 a.u.
        total opposite-spin energy =        -0.7575137196 a.u.

 Total  RIMP2   correlation energy =        -1.0115537627 a.u.
        RIMP2         total energy =      -591.3358092665 a.u.

 RI-MP2 Energy Time:  CPU 26.34 s  wall 0.45 s
 
 --------------------------------------------------------------
 
                    Orbital Energies (a.u.)
 --------------------------------------------------------------
 
 Alpha MOs
 -- Occupied --
-91.9790 -11.2791 -11.2731 -11.2453 -11.2411 -11.2212  -8.9793  -6.6601
 -6.6594  -6.6590  -1.1677  -1.0393  -0.9768  -0.9086  -0.7612  -0.7259
 -0.6725  -0.5957  -0.5675  -0.5615  -0.5382  -0.4899  -0.4653  -0.4565
 -0.3460  -0.2958
 -- Virtual --
  0.0732   0.1568   0.1600   0.1818   0.1847   0.1975   0.2142   0.2202
  0.2283   0.2474   0.3102   0.3261   0.3408   0.3661   0.3807   0.4002
  0.4400   0.4461   0.4528   0.4597   0.4783   0.4972   0.5221   0.5322
  0.5416   0.5558   0.5722   0.5765   0.5947   0.5994   0.6069   0.6185
  0.6227   0.6379   0.6403   0.6734   0.6961   0.6973   0.7444   0.7660
  0.7680   0.7829   0.7902   0.8462   0.8614   0.8895   0.8935   0.9044
  0.9654   0.9863   1.0427   1.0564   1.0863   1.1042   1.1186   1.1423
  1.1559   1.1611   1.1663   1.1805   1.2196   1.2442   1.2654   1.2753
  1.2976   1.3175   1.3263   1.3490   1.3739   1.4085   1.4148   1.4425
  1.4634   1.4691   1.4858   1.5162   1.5259   1.5426   1.5626   1.5734
  1.5996   1.6227   1.6438   1.6576   1.7142   1.7456   1.7758   1.8032
  1.8398   1.8704   1.8873   1.9064   1.9644   1.9862   2.0125   2.1093
  2.1371   2.1641   2.1846   2.2084   2.2384   2.2728   2.3418   2.3862
  2.4180   2.4486   2.4788   2.5127   2.5546   2.5794   2.6589   2.6703
  2.6864   2.7045   2.7222   2.7652   2.7686   2.7814   2.8331   2.8591
  2.8827   2.9078   2.9403   2.9607   3.0105   3.0286   3.0394   3.0516
  3.0851   3.1029   3.1233   3.1432   3.1634   3.1829   3.2088   3.2232
  3.2484   3.2647   3.2882   3.2930   3.3224   3.3325   3.3547   3.3664
  3.4055   3.4257   3.4478   3.4554   3.4582   3.4718   3.4906   3.5009
  3.5109   3.5207   3.5563   3.5858   3.5907   3.6182   3.6349   3.6762
  3.6841   3.6931   3.7222   3.7516   3.7700   3.7969   3.8291   3.8612
  3.8776   3.8983   3.9209   3.9435   3.9552   3.9704   3.9771   3.9971
  4.0339   4.0575   4.0933   4.1233   4.1405   4.1700   4.1886   4.2014
  4.2475   4.2726   4.2884   4.3057   4.3248   4.3793   4.4011   4.4148
  4.4437   4.4679   4.4849   4.5222   4.5551   4.5835   4.6260   4.6440
  4.6558   4.6965   4.7358   4.7668   4.7924   4.8137   4.8419   4.8709
  4.8841   5.0014   5.0292   5.0495   5.0864   5.1065   5.1774   5.2154
  5.2651   5.2903   5.3596   5.4352   5.4404   5.4894   5.5394   5.5923
  5.5987   5.7081   5.7611   5.8264   5.8447   5.9515   5.9624   6.0228
  6.0805   6.3343   6.3945   6.4675   6.5654   9.6484  11.6298  12.6371
 13.9513  13.9945
 --------------------------------------------------------------
 
          Ground-State Mulliken Net Atomic Charges

     Atom                 Charge (a.u.)
  ----------------------------------------
      1 C                    -0.059594
      2 S                     0.014205
      3 C                    -0.204110
      4 C                    -0.153151
      5 C                    -0.218288
      6 H                     0.180241
      7 H                     0.187485
      8 C                    -0.356457
      9 H                     0.132783
     10 H                     0.126385
     11 H                     0.143778
     12 H                     0.206722
  ----------------------------------------
  Sum of atomic charges =     0.000000

 -----------------------------------------------------------------
                    Cartesian Multipole Moments
 -----------------------------------------------------------------
    Charge (ESU x 10^10)
                 0.0000
    Dipole Moment (Debye)
         X       2.0584      Y      -0.3958      Z      -1.1430
       Tot       2.3875
    Quadrupole Moments (Debye-Ang)
        XX     -43.7907     XY       3.7730     YY     -41.9889
        XZ       0.5360     YZ       1.1667     ZZ     -41.0744
    Octopole Moments (Debye-Ang^2)
       XXX     -48.0010    XXY       1.3385    XYY      -8.8719
       YYY     -29.3045    XXZ      -4.2572    XYZ       2.2484
       YYZ      -6.5599    XZZ     -12.4888    YZZ      -5.6743
       ZZZ     -28.6785
    Hexadecapole Moments (Debye-Ang^3)
      XXXX    -235.9180   XXXY     -76.1109   XXYY     -85.7632
      XYYY     -85.7160   YYYY    -353.2080   XXXZ      -3.2653
      XXYZ      -1.3356   XYYZ       2.2526   YYYZ      -8.4415
      XXZZ     -84.1756   XYZZ     -17.5070   YYZZ    -101.7487
      XZZZ      -3.0970   YZZZ     -13.8711   ZZZZ    -304.1981
 -----------------------------------------------------------------
 Total job time:  11.60s(wall), 603.47s(cpu) 
 Wed Dec 27 10:11:31 2023

        *************************************************************
        *                                                           *
        *  Thank you very much for using Q-Chem.  Have a nice day.  *
        *                                                           *
        *************************************************************


0 sent ACK to 0 
now end server 0 ... 
cleanup process ... done
remove work dirs ./qchem2299492.0 -- ./qchem2299492.0
rm -rf ./qchem2299492.0
rm -rf ./qchem2299492
