You are running Q-Chem version: 5.4.0

#
# job setting
#
local host:  exp-13-43
current dir: /home/rramji/project-csd799/aromodel/pndit-qchem/methylated-rotation-run
input file:  Dimethyl_Naphthalene_Dicarboximide_Phi_60_Theta_350_Thiophene_Hydrogenated_Improper.qcin
output file: 
nprocs     : 1
nthreads   : 64
#
# qchem installation setting
#
QC:          /cm/shared/apps/spack/cpu/opt/spack/linux-centos8-zen2/gcc-10.2.0/qchem-5.4-akfmr7b3t57bfs6qan3padb2wnb2i7cl
QCAUX:       /cm/shared/apps/spack/cpu/opt/spack/linux-centos8-zen2/gcc-10.2.0/qchem-5.4-akfmr7b3t57bfs6qan3padb2wnb2i7cl/qcaux
QCPROG:      /cm/shared/apps/spack/cpu/opt/spack/linux-centos8-zen2/gcc-10.2.0/qchem-5.4-akfmr7b3t57bfs6qan3padb2wnb2i7cl/exe/qcprog.exe
QCPROG_S:    /cm/shared/apps/spack/cpu/opt/spack/linux-centos8-zen2/gcc-10.2.0/qchem-5.4-akfmr7b3t57bfs6qan3padb2wnb2i7cl/exe/qcprog.exe_s
PARALLEL:    -DPARALLEL
QCMPI:       mpich
#
# qchem directory setting
#
qcrun:       qchem658323
QCSCRATCH:   .
QCLOCALSCR:  
QCTMPDIR:    .
QCFILEPREF:  ./qchem658323
QCSAVEDIR:   
workdirs:    ./qchem658323
workdir0:    ./qchem658323
partmpdirs =  
#
# parallel setting
#
QCRSH:           ssh
QCMPI:           mpich
QCMPIRUN:        /cm/shared/apps/spack/cpu/opt/spack/linux-centos8-zen2/gcc-10.2.0/qchem-5.4-akfmr7b3t57bfs6qan3padb2wnb2i7cl/bin/mpi/mpirun_qchem
QCMACHINEFILE:   ./qchem658323/hostfile
exp-13-43

#
# env setting
#
exported envs:   QC QCAUX QCSCRATCH QCRUNNAME QCFILEPREF QCPROG QCPROG_S GUIFILE

Running Job 1 of 1 Dimethyl_Naphthalene_Dicarboximide_Phi_60_Theta_350_Thiophene_Hydrogenated_Improper.qcin
qchem Dimethyl_Naphthalene_Dicarboximide_Phi_60_Theta_350_Thiophene_Hydrogenated_Improper.qcin_658323.0 ./qchem658323/ 1
/cm/shared/apps/spack/cpu/opt/spack/linux-centos8-zen2/gcc-10.2.0/qchem-5.4-akfmr7b3t57bfs6qan3padb2wnb2i7cl/bin/mpi/mpirun_qchem -machinefile ./qchem658323/hostfile -np 1 /cm/shared/apps/spack/cpu/opt/spack/linux-centos8-zen2/gcc-10.2.0/qchem-5.4-akfmr7b3t57bfs6qan3padb2wnb2i7cl/exe/qcprog.exe Dimethyl_Naphthalene_Dicarboximide_Phi_60_Theta_350_Thiophene_Hydrogenated_Improper.qcin_658323.0 ./qchem658323/

Process 0 of 1 is on exp-13-43 - thread support 0
initial socket setup ...start
initial socket setup ...done 
now start server 0 ... 
                  Welcome to Q-Chem
     A Quantum Leap Into The Future Of Chemistry


 Q-Chem 5.4, Q-Chem, Inc., Pleasanton, CA (2021)

 License issued to: University of California, San Diego (site)

 E. Epifanovsky,  A. T. B. Gilbert,  Xintian Feng,  Joonho Lee,  Yuezhi Mao,  
 N. Mardirossian,  P. Pokhilko,  A. White,  M. Wormit,  M. P. Coons,  
 A. L. Dempwolff,  Zhengting Gan,  D. Hait,  P. R. Horn,  L. D. Jacobson,  
 I. Kaliman,  J. Kussmann,  A. W. Lange,  Ka Un Lao,  D. S. Levine,  Jie Liu,  
 S. C. McKenzie,  A. F. Morrison,  K. Nanda,  F. Plasser,  D. R. Rehn,  
 M. L. Vidal,  Zhi-Qiang You,  Ying Zhu,  B. Alam,  B. Albrecht,  
 A. Aldossary,  E. Alguire,  J. H. Andersen,  D. Barton,  K. Begam,  A. Behn,  
 Y. A. Bernard,  E. J. Berquist,  H. Burton,  A. Carreras,  K. Carter-Fenk,  
 R. Chakraborty,  A. D. Chien,  K. D. Closser,  V. Cofer-Shabica,  
 S. Dasgupta,  Jia Deng,  M. de Wergifosse,  M. Diedenhofen,  Hainam Do,  
 S. Ehlert,  Po-Tung Fang,  S. Fatehi,  Qingguo Feng,  J. Gayvert,  
 Qinghui Ge,  G. Gidofalvi,  M. Goldey,  J. Gomes,  C. Gonzalez-Espinoza,  
 S. Gulania,  A. Gunina,  M. W. D. Hanson-Heine,  P. H. P. Harbach,  
 A. W. Hauser,  M. F. Herbst,  M. Hernandez Vera,  M. Hodecker,  
 Z. C. Holden,  S. Houck,  Xunkun Huang,  Kerwin Hui,  B. C. Huynh,  
 M. Ivanov,  Hyunjun Ji,  Hanjie Jiang,  B. Kaduk,  S. Kaehler,  
 K. Khistyaev,  Jaehoon Kim,  P. Klunzinger,  Z. Koczor-Benda,  
 Joong Hoon Koh,  D. Kosenkov,  L. Koulias,  T. Kowalczyk,  C. M. Krauter,  
 K. Kue,  A. Kunitsa,  T. Kus,  A. Landau,  K. V. Lawler,  D. Lefrancois,  
 S. Lehtola,  Rain Li,  Yi-Pei Li,  Jiashu Liang,  M. Liebenthal,  
 Hung-Hsuan Lin,  You-Sheng Lin,  Fenglai Liu,  Kuan-Yu Liu,  
 M. Loipersberger,  A. Luenser,  A. Manjanath,  P. Manohar,  E. Mansoor,  
 S. F. Manzer,  Shan-Ping Mao,  A. V. Marenich,  T. Markovich,  S. Mason,  
 S. A. Maurer,  P. F. McLaughlin,  M. F. S. J. Menger,  J.-M. Mewes,  
 S. A. Mewes,  P. Morgante,  J. W. Mullinax,  T. S. Nguyen-Beck,  
 K. J. Oosterbaan,  G. Paran,  Alexander C. Paul,  Suranjan K. Paul,  
 F. Pavosevic,  Zheng Pei,  S. Prager,  E. I. Proynov,  E. Ramos,  B. Rana,  
 A. E. Rask,  A. Rettig,  R. M. Richard,  F. Rob,  E. Rossomme,  T. Scheele,  
 M. Scheurer,  M. Schneider,  N. Sergueev,  S. M. Sharada,  W. Skomorowski,  
 D. W. Small,  C. J. Stein,  Yu-Chuan Su,  E. J. Sundstrom,  Zhen Tao,  
 J. Thirman,  T. Tsuchimochi,  N. M. Tubman,  S. P. Veccham,  O. Vydrov,  
 J. Wenzel,  J. Witte,  A. Yamada,  Kun Yao,  S. Yeganeh,  S. R. Yost,  
 A. Zech,  Igor Ying Zhang,  Xing Zhang,  Yu Zhang,  D. Zuev,  
 A. Aspuru-Guzik,  A. T. Bell,  N. A. Besley,  K. B. Bravaya,  B. R. Brooks,  
 D. Casanova,  Jeng-Da Chai,  S. Coriani,  C. J. Cramer,  
 A. E. DePrince, III,  R. A. DiStasio Jr.,  A. Dreuw,  B. D. Dunietz,  
 T. R. Furlani,  W. A. Goddard III,  S. Grimme,  S. Hammes-Schiffer,  
 T. Head-Gordon,  W. J. Hehre,  Chao-Ping Hsu,  T.-C. Jagau,  Yousung Jung,  
 A. Klamt,  Jing Kong,  D. S. Lambrecht,  WanZhen Liang,  N. J. Mayhall,  
 C. W. McCurdy,  J. B. Neaton,  C. Ochsenfeld,  J. A. Parkhill,  R. Peverati,  
 V. A. Rassolov,  Yihan Shao,  L. V. Slipchenko,  T. Stauch,  R. P. Steele,  
 J. E. Subotnik,  A. J. W. Thom,  A. Tkatchenko,  D. G. Truhlar,  
 T. Van Voorhis,  T. A. Wesolowski,  K. B. Whaley,  H. L. Woodcock III,  
 P. M. Zimmerman,  S. Faraji,  P. M. W. Gill,  M. Head-Gordon,  
 J. M. Herbert,  A. I. Krylov

 Contributors to earlier versions of Q-Chem not listed above: 
 R. D. Adamson,  B. Austin,  R. Baer,  J. Baker,  G. J. O. Beran,  
 K. Brandhorst,  S. T. Brown,  E. F. C. Byrd,  A. K. Chakraborty,  
 G. K. L. Chan,  Chun-Min Chang,  Yunqing Chen,  C.-L. Cheng,  
 Siu Hung Chien,  D. M. Chipman,  D. L. Crittenden,  H. Dachsel,  
 R. J. Doerksen,  A. D. Dutoi,  R. G. Edgar,  J. Fosso-Tande,  
 L. Fusti-Molnar,  D. Ghosh,  A. Ghysels,  A. Golubeva-Zadorozhnaya,  
 J. Gonthier,  M. S. Gordon,  S. R. Gwaltney,  G. Hawkins,  J. E. Herr,  
 A. Heyden,  S. Hirata,  E. G. Hohenstein,  G. Kedziora,  F. J. Keil,  
 C. Kelley,  Jihan Kim,  R. A. King,  R. Z. Khaliullin,  P. P. Korambath,  
 W. Kurlancheek,  A. Laurent,  A. M. Lee,  M. S. Lee,  S. V. Levchenko,  
 Ching Yeh Lin,  D. Liotard,  E. Livshits,  R. C. Lochan,  I. Lotan,  
 L. A. Martinez-Martinez,  P. E. Maslen,  N. Nair,  D. P. O'Neill,  
 D. Neuhauser,  E. Neuscamman,  C. M. Oana,  R. Olivares-Amaya,  R. Olson,  
 T. M. Perrine,  B. Peters,  P. A. Pieniazek,  A. Prociuk,  Y. M. Rhee,  
 J. Ritchie,  M. A. Rohrdanz,  E. Rosta,  N. J. Russ,  H. F. Schaefer III,  
 M. W. Schmidt,  N. E. Schultz,  S. Sharma,  N. Shenvi,  C. D. Sherrill,  
 A. C. Simmonett,  A. Sodt,  T. Stein,  D. Stuck,  K. S. Thanthiriwatte,  
 V. Vanovschi,  L. Vogt,  Tao Wang,  A. Warshel,  M. A. Watson,  
 C. F. Williams,  Q. Wu,  X. Xu,  Jun Yang,  W. Zhang,  Yan Zhao

 Please cite Q-Chem as follows:
 Y. Shao et al., Mol. Phys. 113, 184-215 (2015)
 DOI: 10.1080/00268976.2014.952696

 Q-Chem 5.4.0 for Intel X86 EM64T Linux

 Parts of Q-Chem use Armadillo 9.800.1 (Horizon Scraper).
 http://arma.sourceforge.net/

 Q-Chem begins on Wed Dec 27 10:08:08 2023  

 Host: 
0

     Scratch files written to ./qchem658323//
 May1621 |scratch|qcdevops|jenkins|workspace|build_RNUM    
 Parallel job on  1  processors
 Processing $rem in /cm/shared/apps/spack/cpu/opt/spack/linux-centos8-zen2/gcc-10.2.0/qchem-5.4-akfmr7b3t57bfs6qan3padb2wnb2i7cl/config/preferences:
 Processing $rem in /home/rramji/.qchemrc:
 Symmetry turned off for PCM/SM12/SMD calculation
 Core orbitals will be frozen

 Checking the input file for inconsistencies... 	...done.

 Q-Chem warning in module forms1/BasisType.C, line 2236:

 You are not using the predefined 5D/6D in this basis set.


--------------------------------------------------------------
User input:
--------------------------------------------------------------
$molecule
0 1
C	-0.454582	-0.140188	-0.214392
S	0.232218	0.256612	1.366108
C	1.650518	1.075412	0.690508
C	0.409618	0.358912	-1.199792
C	1.552918	1.019112	-0.707892
H	0.205518	0.241112	-2.274292
H	2.315818	1.459712	-1.366992
C	-0.454582	-1.618388	-0.214392
H	0.609118	-1.618988	-0.401392
H	-0.283282	-2.057688	0.757208
H	-0.595882	-2.329388	-1.014992
H	2.413118	1.515912	1.341608
$end

$rem
JOBTYPE		SP
EXCHANGE	HF
CORRELATION	pRIMP2
BASIS		cc-pvtz
METHOD		rimp2
AUX_BASIS	rimp2-cc-pvtz
SOLVENT_METHOD	PCM
PURECART	11111
SYMMETRY	false
MEM_TOTAL	110000
SCF_CONVERGENCE = 6
THRESH=10
GUI = 2
$end



$solvent
dielectric 4.90
$end
--------------------------------------------------------------
 ----------------------------------------------------------------
             Standard Nuclear Orientation (Angstroms)
    I     Atom           X                Y                Z
 ----------------------------------------------------------------
    1      C      -0.4545820000    -0.1401880000    -0.2143920000
    2      S       0.2322180000     0.2566120000     1.3661080000
    3      C       1.6505180000     1.0754120000     0.6905080000
    4      C       0.4096180000     0.3589120000    -1.1997920000
    5      C       1.5529180000     1.0191120000    -0.7078920000
    6      H       0.2055180000     0.2411120000    -2.2742920000
    7      H       2.3158180000     1.4597120000    -1.3669920000
    8      C      -0.4545820000    -1.6183880000    -0.2143920000
    9      H       0.6091180000    -1.6189880000    -0.4013920000
   10      H      -0.2832820000    -2.0576880000     0.7572080000
   11      H      -0.5958820000    -2.3293880000    -1.0149920000
   12      H       2.4131180000     1.5159120000     1.3416080000
 ----------------------------------------------------------------
 Nuclear Repulsion Energy =         277.06589757 hartrees
 There are       26 alpha and       26 beta electrons
 Requested basis set is cc-pVTZ
 There are 98 shells and 268 basis functions

 Total QAlloc Memory Limit 110000 MB
 Mega-Array Size       188 MB
 MEM_STATIC part       192 MB
 Discretize the solute cavity surface with Lebedev spheres
	Using 110 Lebedev grid points for each H atom
	Using 194 Lebedev grid points for other atoms
	Atomic van der Waals radii will be scaled by 1.20
 Remove points where switching function is < 1.0e-08
 Keep 851 surface tesserae and discard 973 interior tesserae
 Molecular Surface Area = 134.821 Angst**2

                       Distance Matrix (Angstroms)
             C (  1)   S (  2)   C (  3)   C (  4)   C (  5)   H (  6)
   S (  2)  1.768368
   C (  3)  2.593834  1.771565
   C (  4)  1.402482  2.574059  2.372012
   C (  5)  2.370142  2.574321  1.402932  1.408888
   H (  6)  2.196431  3.640531  3.402076  1.100038  2.207800
   H (  7)  3.400483  3.641246  2.196273  2.207559  1.100253  2.600297
   C (  8)  1.478200  2.546625  3.536502  2.372250  3.351120  2.852483
   H (  9)  1.831195  2.604608  3.088131  2.142272  2.818559  2.670322
   H ( 10)  2.156422  2.447955  3.682438  3.185893  3.871027  3.835805
   H ( 11)  2.335278  3.611479  4.421279  2.876133  3.990502  2.972465
   H ( 12)  3.658894  2.518484  1.095231  3.436768  2.277544  4.424177
             H (  7)   C (  8)   H (  9)   H ( 10)   H ( 11)
   C (  8)  4.298640
   H (  9)  3.650151  1.080013
   H ( 10)  4.862062  1.079970  1.526823
   H ( 11)  4.791574  1.080022  1.527481  1.819954
   H ( 12)  2.710930  4.524232  4.014980  4.514722  5.421621
 
 Requested basis set is rimp2-cc-pVTZ
 There are 207 shells and 707 basis functions
 A cutoff of  1.0D-10 yielded   4526 shell pairs
 There are     34044 function pairs (     44001 Cartesian)
 Smallest overlap matrix eigenvalue = 1.82E-04

 Scale SEOQF with 1.000000e-01/1.000000e-01/1.000000e-01

 Standard Electronic Orientation quadrupole field applied
 Nucleus-field energy     =    -0.0000000009 hartrees
 Guess from superposition of atomic densities
 Warning:  Energy on first SCF cycle will be non-variational
 SAD guess density has 52.000000 electrons

 -----------------------------------------------------------------------
  General SCF calculation program by
  Eric Jon Sundstrom, Paul Horn, Yuezhi Mao, Dmitri Zuev, Alec White,
  David Stuck, Shaama M.S., Shane Yost, Joonho Lee, David Small,
  Daniel Levine, Susi Lehtola, Hugh Burton, Evgeny Epifanovsky,
  Bang C. Huynh
 -----------------------------------------------------------------------
 Hartree-Fock
 using 64 threads for integral computing
 -------------------------------------------------------
 OpenMP Integral computing Module                
 Release: version 1.0, May 2013, Q-Chem Inc. Pittsburgh 
 -------------------------------------------------------
 A restricted SCF calculation will be
 performed using DIIS
 SCF converges when DIIS error is below 1.0e-06
 ---------------------------------------
  Cycle       Energy         DIIS error
 ---------------------------------------
    1    -592.7164270804      3.29e-02  
    2    -590.2279109977      2.18e-03  
    3    -590.2898331807      7.87e-04  
    4    -590.2969410724      3.77e-04  
    5    -590.2988298702      7.51e-05  
    6    -590.2989904846      3.90e-05  
    7    -590.2990430991      1.79e-05  
    8    -590.2990639132      1.01e-05  
    9    -590.2990687334      3.70e-06  
   10    -590.2990695525      1.84e-06  
   11    -590.2990697181      7.53e-07  Convergence criterion met
 ---------------------------------------
 SCF time:   CPU 561.09s  wall 10.00s 

************** Final PCM Free Energy Summary **************
 G_electrostatic  =      -0.00616659 hartree =      -3.86959165 kcal/mol
 G_cavitation     =       0.00000000 hartree =       0.00000000 kcal/mol
 G_dispersion     =       0.00000000 hartree =       0.00000000 kcal/mol
 G_repulsion      =       0.00000000 hartree =       0.00000000 kcal/mol
 --------------------------------------------------
 Non-electrostatic Free Energy =       0.00000000 hartree =       0.00000000 kcal/mol
 Total                         =      -0.00616659 hartree =      -3.86959165 kcal/mol
 --------------------------------------------------
 SCF Energy (H0 + V/2)                       =    -590.29906972 
 Solute Internal Energy (H0)                 =    -590.29290313 
 Total Free Energy (H0 + V/2 + non-elec)     =    -590.29906972 hartree
                                             = -370418.25697062 kcal/mol
***********************************************************

 SCF   energy in the final basis set =     -590.2990697181
 Total energy in the final basis set =     -590.2990697181


 --------------------------------------------------------------
  Generalized many-body perturbation theory program
  by Joonho Lee, Fazle Rob, Xintian Feng, Evgeny Epifanovsky

 No regularization used 
 (reg. param. = 0.0000e+00)
  (P|Q)^-1/2 Time:  CPU 6.00 s  wall 0.10 s

 In RI-MP2 calculation: 
 # of frozen core orbitals: 10

 Components of the RIMP2 correlation energy:
        aaaa    correlation energy =        -0.1278788788 a.u.
        abab    correlation energy =        -0.7602465230 a.u.
        bbbb    correlation energy =        -0.1278788788 a.u.
        non-Brillouin singles      =        -0.0000000000 a.u.
        total same-spin energy     =        -0.2557577576 a.u.
        total opposite-spin energy =        -0.7602465230 a.u.

 Total  RIMP2   correlation energy =        -1.0160042806 a.u.
        RIMP2         total energy =      -591.3150739987 a.u.

 RI-MP2 Energy Time:  CPU 25.33 s  wall 0.44 s
 
 --------------------------------------------------------------
 
                    Orbital Energies (a.u.)
 --------------------------------------------------------------
 
 Alpha MOs
 -- Occupied --
-91.9792 -11.2898 -11.2616 -11.2496 -11.2463 -11.2179  -8.9798  -6.6605
 -6.6598  -6.6595  -1.1740  -1.0399  -0.9805  -0.9042  -0.7653  -0.7291
 -0.6745  -0.5964  -0.5684  -0.5664  -0.5344  -0.4899  -0.4627  -0.4506
 -0.3450  -0.2960
 -- Virtual --
  0.0616   0.1557   0.1610   0.1823   0.1832   0.1989   0.2127   0.2220
  0.2279   0.2454   0.3041   0.3203   0.3394   0.3639   0.3746   0.3938
  0.4397   0.4419   0.4545   0.4572   0.4804   0.4961   0.5197   0.5290
  0.5344   0.5629   0.5651   0.5747   0.5913   0.5949   0.6040   0.6159
  0.6196   0.6381   0.6442   0.6774   0.6956   0.7174   0.7487   0.7579
  0.7634   0.7808   0.8035   0.8472   0.8595   0.8845   0.8937   0.9064
  0.9764   0.9908   1.0467   1.0619   1.0939   1.1146   1.1238   1.1424
  1.1532   1.1692   1.1752   1.1877   1.2188   1.2524   1.2581   1.2721
  1.3004   1.3196   1.3338   1.3603   1.3737   1.4083   1.4121   1.4430
  1.4616   1.4678   1.4792   1.5112   1.5306   1.5410   1.5599   1.5758
  1.6042   1.6199   1.6425   1.6548   1.7113   1.7347   1.7750   1.8047
  1.8283   1.8621   1.8908   1.9048   1.9591   1.9850   2.0235   2.1009
  2.1131   2.1647   2.1910   2.2104   2.2306   2.2701   2.3407   2.3995
  2.4123   2.4453   2.4835   2.5026   2.5508   2.5878   2.6645   2.6708
  2.6880   2.7071   2.7183   2.7787   2.7882   2.7980   2.8438   2.8595
  2.8819   2.9091   2.9519   2.9727   3.0094   3.0216   3.0313   3.0581
  3.0876   3.1112   3.1268   3.1466   3.1548   3.1781   3.2027   3.2189
  3.2317   3.2640   3.2879   3.3024   3.3250   3.3431   3.3485   3.3672
  3.4022   3.4304   3.4413   3.4495   3.4661   3.4729   3.4984   3.5098
  3.5143   3.5293   3.5670   3.5954   3.6035   3.6225   3.6488   3.6747
  3.6908   3.7061   3.7313   3.7591   3.7865   3.8124   3.8257   3.8713
  3.8886   3.9056   3.9209   3.9405   3.9615   3.9787   3.9932   4.0071
  4.0292   4.0532   4.0989   4.1387   4.1570   4.1741   4.1856   4.2026
  4.2421   4.2731   4.3013   4.3135   4.3374   4.3829   4.4126   4.4393
  4.4473   4.4785   4.5028   4.5373   4.5558   4.5953   4.6335   4.6430
  4.6606   4.7011   4.7298   4.7670   4.7906   4.8246   4.8446   4.8892
  4.9045   5.0028   5.0214   5.0576   5.0941   5.1146   5.1725   5.2247
  5.2629   5.2869   5.3569   5.4249   5.4364   5.4895   5.5366   5.5906
  5.6209   5.6969   5.7791   5.8223   5.8542   5.9535   5.9655   6.0135
  6.0694   6.3388   6.3887   6.4854   6.5512   9.7570  11.7261  12.6064
 13.9367  14.0653
 --------------------------------------------------------------
 
          Ground-State Mulliken Net Atomic Charges

     Atom                 Charge (a.u.)
  ----------------------------------------
      1 C                    -0.113116
      2 S                     0.023810
      3 C                    -0.173797
      4 C                    -0.095669
      5 C                    -0.242084
      6 H                     0.184250
      7 H                     0.187130
      8 C                    -0.350828
      9 H                     0.112522
     10 H                     0.122678
     11 H                     0.136041
     12 H                     0.209065
  ----------------------------------------
  Sum of atomic charges =     0.000000

 -----------------------------------------------------------------
                    Cartesian Multipole Moments
 -----------------------------------------------------------------
    Charge (ESU x 10^10)
                 0.0000
    Dipole Moment (Debye)
         X       2.6563      Y      -0.2608      Z      -1.0987
       Tot       2.8863
    Quadrupole Moments (Debye-Ang)
        XX     -42.3173     XY       3.7528     YY     -43.8355
        XZ       0.7526     YZ       1.0437     ZZ     -40.6385
    Octopole Moments (Debye-Ang^2)
       XXX     -48.2328    XXY       6.0249    XYY     -14.0592
       YYY     -19.8161    XXZ      -2.6602    XYZ       2.3271
       YYZ      -6.8240    XZZ     -13.8982    YZZ      -3.1064
       ZZZ     -29.1430
    Hexadecapole Moments (Debye-Ang^3)
      XXXX    -269.3547   XXXY     -63.0389   XXYY     -88.5505
      XYYY     -87.0377   YYYY    -294.9776   XXXZ      -0.8985
      XXYZ      -0.1180   XYYZ       1.4400   YYYZ      -9.0957
      XXZZ     -87.7979   XYZZ     -16.5910   YYZZ     -95.4246
      XZZZ      -3.6839   YZZZ     -13.6542   ZZZZ    -302.1097
 -----------------------------------------------------------------
 Total job time:  13.39s(wall), 614.26s(cpu) 
 Wed Dec 27 10:08:21 2023

        *************************************************************
        *                                                           *
        *  Thank you very much for using Q-Chem.  Have a nice day.  *
        *                                                           *
        *************************************************************


0 sent ACK to 0 
now end server 0 ... 
cleanup process ... done
remove work dirs ./qchem658323.0 -- ./qchem658323.0
rm -rf ./qchem658323.0
rm -rf ./qchem658323
