You are running Q-Chem version: 5.4.0

#
# job setting
#
local host:  exp-4-24
current dir: /home/rramji/project-csd799/aromodel/pndit-qchem/methylated-rotation-run
input file:  Dimethyl_Naphthalene_Dicarboximide_Phi_10_Theta_170_Thiophene_Hydrogenated_Improper.qcin
output file: 
nprocs     : 1
nthreads   : 64
#
# qchem installation setting
#
QC:          /cm/shared/apps/spack/cpu/opt/spack/linux-centos8-zen2/gcc-10.2.0/qchem-5.4-akfmr7b3t57bfs6qan3padb2wnb2i7cl
QCAUX:       /cm/shared/apps/spack/cpu/opt/spack/linux-centos8-zen2/gcc-10.2.0/qchem-5.4-akfmr7b3t57bfs6qan3padb2wnb2i7cl/qcaux
QCPROG:      /cm/shared/apps/spack/cpu/opt/spack/linux-centos8-zen2/gcc-10.2.0/qchem-5.4-akfmr7b3t57bfs6qan3padb2wnb2i7cl/exe/qcprog.exe
QCPROG_S:    /cm/shared/apps/spack/cpu/opt/spack/linux-centos8-zen2/gcc-10.2.0/qchem-5.4-akfmr7b3t57bfs6qan3padb2wnb2i7cl/exe/qcprog.exe_s
PARALLEL:    -DPARALLEL
QCMPI:       mpich
#
# qchem directory setting
#
qcrun:       qchem2966321
QCSCRATCH:   .
QCLOCALSCR:  
QCTMPDIR:    .
QCFILEPREF:  ./qchem2966321
QCSAVEDIR:   
workdirs:    ./qchem2966321
workdir0:    ./qchem2966321
partmpdirs =  
#
# parallel setting
#
QCRSH:           ssh
QCMPI:           mpich
QCMPIRUN:        /cm/shared/apps/spack/cpu/opt/spack/linux-centos8-zen2/gcc-10.2.0/qchem-5.4-akfmr7b3t57bfs6qan3padb2wnb2i7cl/bin/mpi/mpirun_qchem
QCMACHINEFILE:   ./qchem2966321/hostfile
exp-4-24

#
# env setting
#
exported envs:   QC QCAUX QCSCRATCH QCRUNNAME QCFILEPREF QCPROG QCPROG_S GUIFILE

Running Job 1 of 1 Dimethyl_Naphthalene_Dicarboximide_Phi_10_Theta_170_Thiophene_Hydrogenated_Improper.qcin
qchem Dimethyl_Naphthalene_Dicarboximide_Phi_10_Theta_170_Thiophene_Hydrogenated_Improper.qcin_2966321.0 ./qchem2966321/ 1
/cm/shared/apps/spack/cpu/opt/spack/linux-centos8-zen2/gcc-10.2.0/qchem-5.4-akfmr7b3t57bfs6qan3padb2wnb2i7cl/bin/mpi/mpirun_qchem -machinefile ./qchem2966321/hostfile -np 1 /cm/shared/apps/spack/cpu/opt/spack/linux-centos8-zen2/gcc-10.2.0/qchem-5.4-akfmr7b3t57bfs6qan3padb2wnb2i7cl/exe/qcprog.exe Dimethyl_Naphthalene_Dicarboximide_Phi_10_Theta_170_Thiophene_Hydrogenated_Improper.qcin_2966321.0 ./qchem2966321/

Process 0 of 1 is on exp-4-24 - thread support 0
initial socket setup ...start
initial socket setup ...done 
now start server 0 ... 
                  Welcome to Q-Chem
     A Quantum Leap Into The Future Of Chemistry


 Q-Chem 5.4, Q-Chem, Inc., Pleasanton, CA (2021)

 License issued to: University of California, San Diego (site)

 E. Epifanovsky,  A. T. B. Gilbert,  Xintian Feng,  Joonho Lee,  Yuezhi Mao,  
 N. Mardirossian,  P. Pokhilko,  A. White,  M. Wormit,  M. P. Coons,  
 A. L. Dempwolff,  Zhengting Gan,  D. Hait,  P. R. Horn,  L. D. Jacobson,  
 I. Kaliman,  J. Kussmann,  A. W. Lange,  Ka Un Lao,  D. S. Levine,  Jie Liu,  
 S. C. McKenzie,  A. F. Morrison,  K. Nanda,  F. Plasser,  D. R. Rehn,  
 M. L. Vidal,  Zhi-Qiang You,  Ying Zhu,  B. Alam,  B. Albrecht,  
 A. Aldossary,  E. Alguire,  J. H. Andersen,  D. Barton,  K. Begam,  A. Behn,  
 Y. A. Bernard,  E. J. Berquist,  H. Burton,  A. Carreras,  K. Carter-Fenk,  
 R. Chakraborty,  A. D. Chien,  K. D. Closser,  V. Cofer-Shabica,  
 S. Dasgupta,  Jia Deng,  M. de Wergifosse,  M. Diedenhofen,  Hainam Do,  
 S. Ehlert,  Po-Tung Fang,  S. Fatehi,  Qingguo Feng,  J. Gayvert,  
 Qinghui Ge,  G. Gidofalvi,  M. Goldey,  J. Gomes,  C. Gonzalez-Espinoza,  
 S. Gulania,  A. Gunina,  M. W. D. Hanson-Heine,  P. H. P. Harbach,  
 A. W. Hauser,  M. F. Herbst,  M. Hernandez Vera,  M. Hodecker,  
 Z. C. Holden,  S. Houck,  Xunkun Huang,  Kerwin Hui,  B. C. Huynh,  
 M. Ivanov,  Hyunjun Ji,  Hanjie Jiang,  B. Kaduk,  S. Kaehler,  
 K. Khistyaev,  Jaehoon Kim,  P. Klunzinger,  Z. Koczor-Benda,  
 Joong Hoon Koh,  D. Kosenkov,  L. Koulias,  T. Kowalczyk,  C. M. Krauter,  
 K. Kue,  A. Kunitsa,  T. Kus,  A. Landau,  K. V. Lawler,  D. Lefrancois,  
 S. Lehtola,  Rain Li,  Yi-Pei Li,  Jiashu Liang,  M. Liebenthal,  
 Hung-Hsuan Lin,  You-Sheng Lin,  Fenglai Liu,  Kuan-Yu Liu,  
 M. Loipersberger,  A. Luenser,  A. Manjanath,  P. Manohar,  E. Mansoor,  
 S. F. Manzer,  Shan-Ping Mao,  A. V. Marenich,  T. Markovich,  S. Mason,  
 S. A. Maurer,  P. F. McLaughlin,  M. F. S. J. Menger,  J.-M. Mewes,  
 S. A. Mewes,  P. Morgante,  J. W. Mullinax,  T. S. Nguyen-Beck,  
 K. J. Oosterbaan,  G. Paran,  Alexander C. Paul,  Suranjan K. Paul,  
 F. Pavosevic,  Zheng Pei,  S. Prager,  E. I. Proynov,  E. Ramos,  B. Rana,  
 A. E. Rask,  A. Rettig,  R. M. Richard,  F. Rob,  E. Rossomme,  T. Scheele,  
 M. Scheurer,  M. Schneider,  N. Sergueev,  S. M. Sharada,  W. Skomorowski,  
 D. W. Small,  C. J. Stein,  Yu-Chuan Su,  E. J. Sundstrom,  Zhen Tao,  
 J. Thirman,  T. Tsuchimochi,  N. M. Tubman,  S. P. Veccham,  O. Vydrov,  
 J. Wenzel,  J. Witte,  A. Yamada,  Kun Yao,  S. Yeganeh,  S. R. Yost,  
 A. Zech,  Igor Ying Zhang,  Xing Zhang,  Yu Zhang,  D. Zuev,  
 A. Aspuru-Guzik,  A. T. Bell,  N. A. Besley,  K. B. Bravaya,  B. R. Brooks,  
 D. Casanova,  Jeng-Da Chai,  S. Coriani,  C. J. Cramer,  
 A. E. DePrince, III,  R. A. DiStasio Jr.,  A. Dreuw,  B. D. Dunietz,  
 T. R. Furlani,  W. A. Goddard III,  S. Grimme,  S. Hammes-Schiffer,  
 T. Head-Gordon,  W. J. Hehre,  Chao-Ping Hsu,  T.-C. Jagau,  Yousung Jung,  
 A. Klamt,  Jing Kong,  D. S. Lambrecht,  WanZhen Liang,  N. J. Mayhall,  
 C. W. McCurdy,  J. B. Neaton,  C. Ochsenfeld,  J. A. Parkhill,  R. Peverati,  
 V. A. Rassolov,  Yihan Shao,  L. V. Slipchenko,  T. Stauch,  R. P. Steele,  
 J. E. Subotnik,  A. J. W. Thom,  A. Tkatchenko,  D. G. Truhlar,  
 T. Van Voorhis,  T. A. Wesolowski,  K. B. Whaley,  H. L. Woodcock III,  
 P. M. Zimmerman,  S. Faraji,  P. M. W. Gill,  M. Head-Gordon,  
 J. M. Herbert,  A. I. Krylov

 Contributors to earlier versions of Q-Chem not listed above: 
 R. D. Adamson,  B. Austin,  R. Baer,  J. Baker,  G. J. O. Beran,  
 K. Brandhorst,  S. T. Brown,  E. F. C. Byrd,  A. K. Chakraborty,  
 G. K. L. Chan,  Chun-Min Chang,  Yunqing Chen,  C.-L. Cheng,  
 Siu Hung Chien,  D. M. Chipman,  D. L. Crittenden,  H. Dachsel,  
 R. J. Doerksen,  A. D. Dutoi,  R. G. Edgar,  J. Fosso-Tande,  
 L. Fusti-Molnar,  D. Ghosh,  A. Ghysels,  A. Golubeva-Zadorozhnaya,  
 J. Gonthier,  M. S. Gordon,  S. R. Gwaltney,  G. Hawkins,  J. E. Herr,  
 A. Heyden,  S. Hirata,  E. G. Hohenstein,  G. Kedziora,  F. J. Keil,  
 C. Kelley,  Jihan Kim,  R. A. King,  R. Z. Khaliullin,  P. P. Korambath,  
 W. Kurlancheek,  A. Laurent,  A. M. Lee,  M. S. Lee,  S. V. Levchenko,  
 Ching Yeh Lin,  D. Liotard,  E. Livshits,  R. C. Lochan,  I. Lotan,  
 L. A. Martinez-Martinez,  P. E. Maslen,  N. Nair,  D. P. O'Neill,  
 D. Neuhauser,  E. Neuscamman,  C. M. Oana,  R. Olivares-Amaya,  R. Olson,  
 T. M. Perrine,  B. Peters,  P. A. Pieniazek,  A. Prociuk,  Y. M. Rhee,  
 J. Ritchie,  M. A. Rohrdanz,  E. Rosta,  N. J. Russ,  H. F. Schaefer III,  
 M. W. Schmidt,  N. E. Schultz,  S. Sharma,  N. Shenvi,  C. D. Sherrill,  
 A. C. Simmonett,  A. Sodt,  T. Stein,  D. Stuck,  K. S. Thanthiriwatte,  
 V. Vanovschi,  L. Vogt,  Tao Wang,  A. Warshel,  M. A. Watson,  
 C. F. Williams,  Q. Wu,  X. Xu,  Jun Yang,  W. Zhang,  Yan Zhao

 Please cite Q-Chem as follows:
 Y. Shao et al., Mol. Phys. 113, 184-215 (2015)
 DOI: 10.1080/00268976.2014.952696

 Q-Chem 5.4.0 for Intel X86 EM64T Linux

 Parts of Q-Chem use Armadillo 9.800.1 (Horizon Scraper).
 http://arma.sourceforge.net/

 Q-Chem begins on Wed Dec 27 10:04:26 2023  

 Host: 
0

     Scratch files written to ./qchem2966321//
 May1621 |scratch|qcdevops|jenkins|workspace|build_RNUM    
 Parallel job on  1  processors
 Processing $rem in /cm/shared/apps/spack/cpu/opt/spack/linux-centos8-zen2/gcc-10.2.0/qchem-5.4-akfmr7b3t57bfs6qan3padb2wnb2i7cl/config/preferences:
 Processing $rem in /home/rramji/.qchemrc:
 Symmetry turned off for PCM/SM12/SMD calculation
 Core orbitals will be frozen

 Checking the input file for inconsistencies... 	...done.

 Q-Chem warning in module forms1/BasisType.C, line 2236:

 You are not using the predefined 5D/6D in this basis set.


--------------------------------------------------------------
User input:
--------------------------------------------------------------
$molecule
0 1
C	-0.084332	-0.391505	-0.214556
S	0.053168	0.389695	1.365944
C	0.337568	2.002495	0.690344
C	0.088768	0.591395	-1.199956
C	0.317968	1.891595	-0.708056
H	0.047868	0.359295	-2.274456
H	0.470868	2.759095	-1.367156
C	-0.084332	-1.869705	-0.214556
H	-1.148032	-1.870305	-0.027556
H	-0.255632	-2.309005	-1.186156
H	0.056968	-2.580705	0.586044
H	0.490368	2.869795	1.341444
$end

$rem
JOBTYPE		SP
EXCHANGE	HF
CORRELATION	pRIMP2
BASIS		cc-pvtz
METHOD		rimp2
AUX_BASIS	rimp2-cc-pvtz
SOLVENT_METHOD	PCM
PURECART	11111
SYMMETRY	false
MEM_TOTAL	110000
SCF_CONVERGENCE = 6
THRESH=10
GUI = 2
$end



$solvent
dielectric 4.90
$end
--------------------------------------------------------------
 ----------------------------------------------------------------
             Standard Nuclear Orientation (Angstroms)
    I     Atom           X                Y                Z
 ----------------------------------------------------------------
    1      C      -0.0843320000    -0.3915050000    -0.2145560000
    2      S       0.0531680000     0.3896950000     1.3659440000
    3      C       0.3375680000     2.0024950000     0.6903440000
    4      C       0.0887680000     0.5913950000    -1.1999560000
    5      C       0.3179680000     1.8915950000    -0.7080560000
    6      H       0.0478680000     0.3592950000    -2.2744560000
    7      H       0.4708680000     2.7590950000    -1.3671560000
    8      C      -0.0843320000    -1.8697050000    -0.2145560000
    9      H      -1.1480320000    -1.8703050000    -0.0275560000
   10      H      -0.2556320000    -2.3090050000    -1.1861560000
   11      H       0.0569680000    -2.5807050000     0.5860440000
   12      H       0.4903680000     2.8697950000     1.3414440000
 ----------------------------------------------------------------
 Nuclear Repulsion Energy =         270.24369490 hartrees
 There are       26 alpha and       26 beta electrons
 Requested basis set is cc-pVTZ
 There are 98 shells and 268 basis functions

 Total QAlloc Memory Limit 110000 MB
 Mega-Array Size       188 MB
 MEM_STATIC part       192 MB
 Discretize the solute cavity surface with Lebedev spheres
	Using 110 Lebedev grid points for each H atom
	Using 194 Lebedev grid points for other atoms
	Atomic van der Waals radii will be scaled by 1.20
 Remove points where switching function is < 1.0e-08
 Keep 888 surface tesserae and discard 936 interior tesserae
 Molecular Surface Area = 138.124 Angst**2

                       Distance Matrix (Angstroms)
             C (  1)   S (  2)   C (  3)   C (  4)   C (  5)   H (  6)
   S (  2)  1.768378
   C (  3)  2.593854  1.771565
   C (  4)  1.402522  2.574062  2.371990
   C (  5)  2.370218  2.574354  1.402927  1.408907
   H (  6)  2.196444  3.640531  3.402069  1.100042  2.207828
   H (  7)  3.400443  3.641204  2.196251  2.207460  1.100158  2.600224
   C (  8)  1.478200  2.760756  3.998847  2.656688  3.814809  3.037944
   H (  9)  1.831195  2.914159  4.209628  2.994021  4.094402  3.383763
   H ( 10)  2.156422  3.727137  4.739427  2.920808  4.266455  2.897643
   H ( 11)  2.335278  3.071080  4.592966  3.640471  4.663077  4.101968
   H ( 12)  3.658892  2.518460  1.095212  3.436729  2.277509  4.424155
             H (  7)   C (  8)   H (  9)   H ( 10)   H ( 11)
   C (  8)  4.802346
   H (  9)  5.083966  1.080013
   H ( 10)  5.123105  1.079970  1.526823
   H ( 11)  5.700857  1.080022  1.527481  1.819954
   H ( 12)  2.710931  5.021382  5.198756  5.810787  5.519639
 
 Requested basis set is rimp2-cc-pVTZ
 There are 207 shells and 707 basis functions
 A cutoff of  1.0D-10 yielded   4356 shell pairs
 There are     32728 function pairs (     42340 Cartesian)
 Smallest overlap matrix eigenvalue = 1.12E-04

 Scale SEOQF with 1.000000e+00/1.000000e-01/1.000000e-01

 Standard Electronic Orientation quadrupole field applied
 Nucleus-field energy     =     0.0000000026 hartrees
 Guess from superposition of atomic densities
 Warning:  Energy on first SCF cycle will be non-variational
 SAD guess density has 52.000000 electrons

 -----------------------------------------------------------------------
  General SCF calculation program by
  Eric Jon Sundstrom, Paul Horn, Yuezhi Mao, Dmitri Zuev, Alec White,
  David Stuck, Shaama M.S., Shane Yost, Joonho Lee, David Small,
  Daniel Levine, Susi Lehtola, Hugh Burton, Evgeny Epifanovsky,
  Bang C. Huynh
 -----------------------------------------------------------------------
 Hartree-Fock
 using 64 threads for integral computing
 -------------------------------------------------------
 OpenMP Integral computing Module                
 Release: version 1.0, May 2013, Q-Chem Inc. Pittsburgh 
 -------------------------------------------------------
 A restricted SCF calculation will be
 performed using DIIS
 SCF converges when DIIS error is below 1.0e-06
 ---------------------------------------
  Cycle       Energy         DIIS error
 ---------------------------------------
    1    -592.5697824568      3.22e-02  
    2    -590.2998079612      2.19e-03  
    3    -590.3606947555      8.47e-04  
    4    -590.3680623396      4.04e-04  
    5    -590.3701379740      7.07e-05  
    6    -590.3702645871      3.19e-05  
    7    -590.3702949030      1.43e-05  
    8    -590.3703042617      5.63e-06  
    9    -590.3703056867      1.85e-06  
   10    -590.3703058127      6.20e-07  Convergence criterion met
 ---------------------------------------
 SCF time:   CPU 534.64s  wall 30.00s 

************** Final PCM Free Energy Summary **************
 G_electrostatic  =      -0.00611943 hartree =      -3.83999938 kcal/mol
 G_cavitation     =       0.00000000 hartree =       0.00000000 kcal/mol
 G_dispersion     =       0.00000000 hartree =       0.00000000 kcal/mol
 G_repulsion      =       0.00000000 hartree =       0.00000000 kcal/mol
 --------------------------------------------------
 Non-electrostatic Free Energy =       0.00000000 hartree =       0.00000000 kcal/mol
 Total                         =      -0.00611943 hartree =      -3.83999938 kcal/mol
 --------------------------------------------------
 SCF Energy (H0 + V/2)                       =    -590.37030581 
 Solute Internal Energy (H0)                 =    -590.36418638 
 Total Free Energy (H0 + V/2 + non-elec)     =    -590.37030581 hartree
                                             = -370462.95829463 kcal/mol
***********************************************************

 SCF   energy in the final basis set =     -590.3703058127
 Total energy in the final basis set =     -590.3703058127


 --------------------------------------------------------------
  Generalized many-body perturbation theory program
  by Joonho Lee, Fazle Rob, Xintian Feng, Evgeny Epifanovsky

 No regularization used 
 (reg. param. = 0.0000e+00)
  (P|Q)^-1/2 Time:  CPU 7.19 s  wall 0.12 s

 In RI-MP2 calculation: 
 # of frozen core orbitals: 10

 Components of the RIMP2 correlation energy:
        aaaa    correlation energy =        -0.1251220944 a.u.
        abab    correlation energy =        -0.7505964580 a.u.
        bbbb    correlation energy =        -0.1251220944 a.u.
        non-Brillouin singles      =        -0.0000000000 a.u.
        total same-spin energy     =        -0.2502441888 a.u.
        total opposite-spin energy =        -0.7505964580 a.u.

 Total  RIMP2   correlation energy =        -1.0008406467 a.u.
        RIMP2         total energy =      -591.3711464594 a.u.

 RI-MP2 Energy Time:  CPU 26.60 s  wall 0.46 s
 
 --------------------------------------------------------------
 
                    Orbital Energies (a.u.)
 --------------------------------------------------------------
 
 Alpha MOs
 -- Occupied --
-91.9771 -11.2906 -11.2634 -11.2428 -11.2330 -11.2273  -8.9771  -6.6581
 -6.6576  -6.6570  -1.1568  -1.0403  -0.9712  -0.9201  -0.7550  -0.7214
 -0.6705  -0.5985  -0.5652  -0.5563  -0.5476  -0.4922  -0.4746  -0.4546
 -0.3462  -0.2982
 -- Virtual --
  0.1103   0.1454   0.1599   0.1823   0.1883   0.2023   0.2160   0.2211
  0.2278   0.2368   0.3119   0.3377   0.3492   0.3652   0.3907   0.4099
  0.4296   0.4453   0.4560   0.4930   0.5051   0.5098   0.5212   0.5323
  0.5538   0.5574   0.5756   0.5795   0.5988   0.6141   0.6166   0.6242
  0.6324   0.6364   0.6456   0.6608   0.6942   0.7159   0.7471   0.7732
  0.7811   0.8042   0.8396   0.8562   0.8673   0.8797   0.8938   0.9336
  0.9644   0.9810   1.0089   1.0459   1.0637   1.0783   1.0971   1.1067
  1.1258   1.1407   1.1713   1.1732   1.2192   1.2367   1.2420   1.2629
  1.2861   1.3252   1.3446   1.3540   1.3965   1.4114   1.4136   1.4500
  1.4730   1.4956   1.5100   1.5251   1.5387   1.5493   1.5613   1.5911
  1.6090   1.6374   1.6461   1.6869   1.7288   1.7535   1.7803   1.7969
  1.8244   1.8872   1.9137   1.9284   1.9348   2.0256   2.0597   2.0775
  2.1531   2.1705   2.2222   2.2288   2.2530   2.2808   2.3349   2.4142
  2.4332   2.4567   2.4695   2.5360   2.5462   2.5878   2.6423   2.6578
  2.6981   2.7113   2.7339   2.7472   2.7668   2.7742   2.7852   2.8352
  2.8634   2.8953   2.9192   2.9614   3.0047   3.0058   3.0209   3.0474
  3.0752   3.0911   3.1150   3.1337   3.1731   3.2061   3.2288   3.2466
  3.2648   3.2686   3.2875   3.3064   3.3354   3.3489   3.3515   3.3969
  3.4062   3.4159   3.4255   3.4471   3.4636   3.4775   3.4920   3.4983
  3.5133   3.5191   3.5274   3.5590   3.5992   3.6045   3.6206   3.6541
  3.6678   3.7050   3.7202   3.7407   3.7518   3.7884   3.8122   3.8508
  3.8728   3.8983   3.9086   3.9223   3.9382   3.9475   3.9846   3.9915
  4.0084   4.0280   4.0733   4.1013   4.1323   4.1672   4.1747   4.2093
  4.2260   4.2492   4.2814   4.3011   4.3260   4.3653   4.3689   4.3863
  4.4415   4.4484   4.4810   4.5208   4.5292   4.5533   4.5734   4.6432
  4.6710   4.6970   4.7119   4.7691   4.7849   4.8194   4.8244   4.9225
  4.9769   5.0041   5.0211   5.0507   5.0852   5.1379   5.1714   5.1921
  5.2115   5.2999   5.3598   5.4101   5.4241   5.5005   5.5271   5.5929
  5.6073   5.7015   5.7886   5.8214   5.8958   6.0091   6.0322   6.0754
  6.1232   6.3245   6.4417   6.4720   6.6915   9.4139  11.2647  12.8509
 13.9476  14.2762
 --------------------------------------------------------------
 
          Ground-State Mulliken Net Atomic Charges

     Atom                 Charge (a.u.)
  ----------------------------------------
      1 C                     0.015790
      2 S                    -0.009397
      3 C                    -0.243434
      4 C                    -0.229190
      5 C                    -0.190870
      6 H                     0.183386
      7 H                     0.185160
      8 C                    -0.361602
      9 H                     0.138887
     10 H                     0.134638
     11 H                     0.172221
     12 H                     0.204412
  ----------------------------------------
  Sum of atomic charges =     0.000000

 -----------------------------------------------------------------
                    Cartesian Multipole Moments
 -----------------------------------------------------------------
    Charge (ESU x 10^10)
                -0.0000
    Dipole Moment (Debye)
         X      -0.5428      Y      -0.7959      Z      -0.9620
       Tot       1.3615
    Quadrupole Moments (Debye-Ang)
        XX     -47.9278     XY       2.9535     YY     -36.1250
        XZ       0.3835     YZ       0.3285     ZZ     -41.8220
    Octopole Moments (Debye-Ang^2)
       XXX     -13.2960    XXY     -20.1682    XYY      -1.9997
       YYY     -43.4518    XXZ      -7.0656    XYZ      -0.0328
       YYZ      -2.4532    XZZ      -2.6892    YZZ     -11.4400
       ZZZ     -28.5380
    Hexadecapole Moments (Debye-Ang^3)
      XXXX     -76.4406   XXXY     -38.3522   XXYY    -114.4238
      XYYY     -14.8496   YYYY    -493.1197   XXXZ      -2.5430
      XXYZ      -6.3954   XYYZ       2.2213   YYYZ     -15.8457
      XXZZ     -71.1047   XYZZ      -6.2234   YYZZ    -121.9460
      XZZZ      -0.8733   YZZZ     -14.1804   ZZZZ    -307.3520
 -----------------------------------------------------------------
 Total job time:  31.48s(wall), 590.40s(cpu) 
 Wed Dec 27 10:04:57 2023

        *************************************************************
        *                                                           *
        *  Thank you very much for using Q-Chem.  Have a nice day.  *
        *                                                           *
        *************************************************************


0 sent ACK to 0 
now end server 0 ... 
cleanup process ... done
remove work dirs ./qchem2966321.0 -- ./qchem2966321.0
rm -rf ./qchem2966321.0
rm -rf ./qchem2966321
