You are running Q-Chem version: 5.4.0

#
# job setting
#
local host:  exp-3-56
current dir: /home/rramji/project-csd799/aromodel/pndit-qchem/methylated-rotation-run
input file:  Dimethyl_Naphthalene_Dicarboximide_Phi_0_Theta_20_Thiophene_Hydrogenated_Improper.qcin
output file: 
nprocs     : 1
nthreads   : 64
#
# qchem installation setting
#
QC:          /cm/shared/apps/spack/cpu/opt/spack/linux-centos8-zen2/gcc-10.2.0/qchem-5.4-akfmr7b3t57bfs6qan3padb2wnb2i7cl
QCAUX:       /cm/shared/apps/spack/cpu/opt/spack/linux-centos8-zen2/gcc-10.2.0/qchem-5.4-akfmr7b3t57bfs6qan3padb2wnb2i7cl/qcaux
QCPROG:      /cm/shared/apps/spack/cpu/opt/spack/linux-centos8-zen2/gcc-10.2.0/qchem-5.4-akfmr7b3t57bfs6qan3padb2wnb2i7cl/exe/qcprog.exe
QCPROG_S:    /cm/shared/apps/spack/cpu/opt/spack/linux-centos8-zen2/gcc-10.2.0/qchem-5.4-akfmr7b3t57bfs6qan3padb2wnb2i7cl/exe/qcprog.exe_s
PARALLEL:    -DPARALLEL
QCMPI:       mpich
#
# qchem directory setting
#
qcrun:       qchem2754454
QCSCRATCH:   .
QCLOCALSCR:  
QCTMPDIR:    .
QCFILEPREF:  ./qchem2754454
QCSAVEDIR:   
workdirs:    ./qchem2754454
workdir0:    ./qchem2754454
partmpdirs =  
#
# parallel setting
#
QCRSH:           ssh
QCMPI:           mpich
QCMPIRUN:        /cm/shared/apps/spack/cpu/opt/spack/linux-centos8-zen2/gcc-10.2.0/qchem-5.4-akfmr7b3t57bfs6qan3padb2wnb2i7cl/bin/mpi/mpirun_qchem
QCMACHINEFILE:   ./qchem2754454/hostfile
exp-3-56

#
# env setting
#
exported envs:   QC QCAUX QCSCRATCH QCRUNNAME QCFILEPREF QCPROG QCPROG_S GUIFILE

Running Job 1 of 1 Dimethyl_Naphthalene_Dicarboximide_Phi_0_Theta_20_Thiophene_Hydrogenated_Improper.qcin
qchem Dimethyl_Naphthalene_Dicarboximide_Phi_0_Theta_20_Thiophene_Hydrogenated_Improper.qcin_2754454.0 ./qchem2754454/ 1
/cm/shared/apps/spack/cpu/opt/spack/linux-centos8-zen2/gcc-10.2.0/qchem-5.4-akfmr7b3t57bfs6qan3padb2wnb2i7cl/bin/mpi/mpirun_qchem -machinefile ./qchem2754454/hostfile -np 1 /cm/shared/apps/spack/cpu/opt/spack/linux-centos8-zen2/gcc-10.2.0/qchem-5.4-akfmr7b3t57bfs6qan3padb2wnb2i7cl/exe/qcprog.exe Dimethyl_Naphthalene_Dicarboximide_Phi_0_Theta_20_Thiophene_Hydrogenated_Improper.qcin_2754454.0 ./qchem2754454/

Process 0 of 1 is on exp-3-56 - thread support 0
initial socket setup ...start
initial socket setup ...done 
now start server 0 ... 
                  Welcome to Q-Chem
     A Quantum Leap Into The Future Of Chemistry


 Q-Chem 5.4, Q-Chem, Inc., Pleasanton, CA (2021)

 License issued to: University of California, San Diego (site)

 E. Epifanovsky,  A. T. B. Gilbert,  Xintian Feng,  Joonho Lee,  Yuezhi Mao,  
 N. Mardirossian,  P. Pokhilko,  A. White,  M. Wormit,  M. P. Coons,  
 A. L. Dempwolff,  Zhengting Gan,  D. Hait,  P. R. Horn,  L. D. Jacobson,  
 I. Kaliman,  J. Kussmann,  A. W. Lange,  Ka Un Lao,  D. S. Levine,  Jie Liu,  
 S. C. McKenzie,  A. F. Morrison,  K. Nanda,  F. Plasser,  D. R. Rehn,  
 M. L. Vidal,  Zhi-Qiang You,  Ying Zhu,  B. Alam,  B. Albrecht,  
 A. Aldossary,  E. Alguire,  J. H. Andersen,  D. Barton,  K. Begam,  A. Behn,  
 Y. A. Bernard,  E. J. Berquist,  H. Burton,  A. Carreras,  K. Carter-Fenk,  
 R. Chakraborty,  A. D. Chien,  K. D. Closser,  V. Cofer-Shabica,  
 S. Dasgupta,  Jia Deng,  M. de Wergifosse,  M. Diedenhofen,  Hainam Do,  
 S. Ehlert,  Po-Tung Fang,  S. Fatehi,  Qingguo Feng,  J. Gayvert,  
 Qinghui Ge,  G. Gidofalvi,  M. Goldey,  J. Gomes,  C. Gonzalez-Espinoza,  
 S. Gulania,  A. Gunina,  M. W. D. Hanson-Heine,  P. H. P. Harbach,  
 A. W. Hauser,  M. F. Herbst,  M. Hernandez Vera,  M. Hodecker,  
 Z. C. Holden,  S. Houck,  Xunkun Huang,  Kerwin Hui,  B. C. Huynh,  
 M. Ivanov,  Hyunjun Ji,  Hanjie Jiang,  B. Kaduk,  S. Kaehler,  
 K. Khistyaev,  Jaehoon Kim,  P. Klunzinger,  Z. Koczor-Benda,  
 Joong Hoon Koh,  D. Kosenkov,  L. Koulias,  T. Kowalczyk,  C. M. Krauter,  
 K. Kue,  A. Kunitsa,  T. Kus,  A. Landau,  K. V. Lawler,  D. Lefrancois,  
 S. Lehtola,  Rain Li,  Yi-Pei Li,  Jiashu Liang,  M. Liebenthal,  
 Hung-Hsuan Lin,  You-Sheng Lin,  Fenglai Liu,  Kuan-Yu Liu,  
 M. Loipersberger,  A. Luenser,  A. Manjanath,  P. Manohar,  E. Mansoor,  
 S. F. Manzer,  Shan-Ping Mao,  A. V. Marenich,  T. Markovich,  S. Mason,  
 S. A. Maurer,  P. F. McLaughlin,  M. F. S. J. Menger,  J.-M. Mewes,  
 S. A. Mewes,  P. Morgante,  J. W. Mullinax,  T. S. Nguyen-Beck,  
 K. J. Oosterbaan,  G. Paran,  Alexander C. Paul,  Suranjan K. Paul,  
 F. Pavosevic,  Zheng Pei,  S. Prager,  E. I. Proynov,  E. Ramos,  B. Rana,  
 A. E. Rask,  A. Rettig,  R. M. Richard,  F. Rob,  E. Rossomme,  T. Scheele,  
 M. Scheurer,  M. Schneider,  N. Sergueev,  S. M. Sharada,  W. Skomorowski,  
 D. W. Small,  C. J. Stein,  Yu-Chuan Su,  E. J. Sundstrom,  Zhen Tao,  
 J. Thirman,  T. Tsuchimochi,  N. M. Tubman,  S. P. Veccham,  O. Vydrov,  
 J. Wenzel,  J. Witte,  A. Yamada,  Kun Yao,  S. Yeganeh,  S. R. Yost,  
 A. Zech,  Igor Ying Zhang,  Xing Zhang,  Yu Zhang,  D. Zuev,  
 A. Aspuru-Guzik,  A. T. Bell,  N. A. Besley,  K. B. Bravaya,  B. R. Brooks,  
 D. Casanova,  Jeng-Da Chai,  S. Coriani,  C. J. Cramer,  
 A. E. DePrince, III,  R. A. DiStasio Jr.,  A. Dreuw,  B. D. Dunietz,  
 T. R. Furlani,  W. A. Goddard III,  S. Grimme,  S. Hammes-Schiffer,  
 T. Head-Gordon,  W. J. Hehre,  Chao-Ping Hsu,  T.-C. Jagau,  Yousung Jung,  
 A. Klamt,  Jing Kong,  D. S. Lambrecht,  WanZhen Liang,  N. J. Mayhall,  
 C. W. McCurdy,  J. B. Neaton,  C. Ochsenfeld,  J. A. Parkhill,  R. Peverati,  
 V. A. Rassolov,  Yihan Shao,  L. V. Slipchenko,  T. Stauch,  R. P. Steele,  
 J. E. Subotnik,  A. J. W. Thom,  A. Tkatchenko,  D. G. Truhlar,  
 T. Van Voorhis,  T. A. Wesolowski,  K. B. Whaley,  H. L. Woodcock III,  
 P. M. Zimmerman,  S. Faraji,  P. M. W. Gill,  M. Head-Gordon,  
 J. M. Herbert,  A. I. Krylov

 Contributors to earlier versions of Q-Chem not listed above: 
 R. D. Adamson,  B. Austin,  R. Baer,  J. Baker,  G. J. O. Beran,  
 K. Brandhorst,  S. T. Brown,  E. F. C. Byrd,  A. K. Chakraborty,  
 G. K. L. Chan,  Chun-Min Chang,  Yunqing Chen,  C.-L. Cheng,  
 Siu Hung Chien,  D. M. Chipman,  D. L. Crittenden,  H. Dachsel,  
 R. J. Doerksen,  A. D. Dutoi,  R. G. Edgar,  J. Fosso-Tande,  
 L. Fusti-Molnar,  D. Ghosh,  A. Ghysels,  A. Golubeva-Zadorozhnaya,  
 J. Gonthier,  M. S. Gordon,  S. R. Gwaltney,  G. Hawkins,  J. E. Herr,  
 A. Heyden,  S. Hirata,  E. G. Hohenstein,  G. Kedziora,  F. J. Keil,  
 C. Kelley,  Jihan Kim,  R. A. King,  R. Z. Khaliullin,  P. P. Korambath,  
 W. Kurlancheek,  A. Laurent,  A. M. Lee,  M. S. Lee,  S. V. Levchenko,  
 Ching Yeh Lin,  D. Liotard,  E. Livshits,  R. C. Lochan,  I. Lotan,  
 L. A. Martinez-Martinez,  P. E. Maslen,  N. Nair,  D. P. O'Neill,  
 D. Neuhauser,  E. Neuscamman,  C. M. Oana,  R. Olivares-Amaya,  R. Olson,  
 T. M. Perrine,  B. Peters,  P. A. Pieniazek,  A. Prociuk,  Y. M. Rhee,  
 J. Ritchie,  M. A. Rohrdanz,  E. Rosta,  N. J. Russ,  H. F. Schaefer III,  
 M. W. Schmidt,  N. E. Schultz,  S. Sharma,  N. Shenvi,  C. D. Sherrill,  
 A. C. Simmonett,  A. Sodt,  T. Stein,  D. Stuck,  K. S. Thanthiriwatte,  
 V. Vanovschi,  L. Vogt,  Tao Wang,  A. Warshel,  M. A. Watson,  
 C. F. Williams,  Q. Wu,  X. Xu,  Jun Yang,  W. Zhang,  Yan Zhao

 Please cite Q-Chem as follows:
 Y. Shao et al., Mol. Phys. 113, 184-215 (2015)
 DOI: 10.1080/00268976.2014.952696

 Q-Chem 5.4.0 for Intel X86 EM64T Linux

 Parts of Q-Chem use Armadillo 9.800.1 (Horizon Scraper).
 http://arma.sourceforge.net/

 Q-Chem begins on Wed Dec 27 10:00:08 2023  

 Host: 
0

     Scratch files written to ./qchem2754454//
 May1621 |scratch|qcdevops|jenkins|workspace|build_RNUM    
 Parallel job on  1  processors
 Processing $rem in /cm/shared/apps/spack/cpu/opt/spack/linux-centos8-zen2/gcc-10.2.0/qchem-5.4-akfmr7b3t57bfs6qan3padb2wnb2i7cl/config/preferences:
 Processing $rem in /home/rramji/.qchemrc:
 Symmetry turned off for PCM/SM12/SMD calculation
 Core orbitals will be frozen

 Checking the input file for inconsistencies... 	...done.

 Q-Chem warning in module forms1/BasisType.C, line 2236:

 You are not using the predefined 5D/6D in this basis set.


--------------------------------------------------------------
User input:
--------------------------------------------------------------
$molecule
0 1
C	-0.004825	-0.399361	-0.217210
S	-0.005025	0.393839	1.363290
C	-0.005025	2.031539	0.687690
C	-0.005025	0.598639	-1.202610
C	-0.005125	1.918839	-0.710710
H	-0.004925	0.362939	-2.277110
H	-0.005125	2.799839	-1.369810
C	-0.004825	-1.877561	-0.217210
H	1.009875	-1.878161	0.152690
H	-0.342325	-2.316861	0.709890
H	0.273075	-2.588561	-0.981210
H	-0.005125	2.912239	1.338790
$end

$rem
JOBTYPE		SP
EXCHANGE	HF
CORRELATION	pRIMP2
BASIS		cc-pvtz
METHOD		rimp2
AUX_BASIS	rimp2-cc-pvtz
SOLVENT_METHOD	PCM
PURECART	11111
SYMMETRY	false
MEM_TOTAL	110000
SCF_CONVERGENCE = 6
THRESH=10
GUI = 2
$end



$solvent
dielectric 4.90
$end
--------------------------------------------------------------
 ----------------------------------------------------------------
             Standard Nuclear Orientation (Angstroms)
    I     Atom           X                Y                Z
 ----------------------------------------------------------------
    1      C      -0.0048250000    -0.3993610000    -0.2172100000
    2      S      -0.0050250000     0.3938390000     1.3632900000
    3      C      -0.0050250000     2.0315390000     0.6876900000
    4      C      -0.0050250000     0.5986390000    -1.2026100000
    5      C      -0.0051250000     1.9188390000    -0.7107100000
    6      H      -0.0049250000     0.3629390000    -2.2771100000
    7      H      -0.0051250000     2.7998390000    -1.3698100000
    8      C      -0.0048250000    -1.8775610000    -0.2172100000
    9      H       1.0098750000    -1.8781610000     0.1526900000
   10      H      -0.3423250000    -2.3168610000     0.7098900000
   11      H       0.2730750000    -2.5885610000    -0.9812100000
   12      H      -0.0051250000     2.9122390000     1.3387900000
 ----------------------------------------------------------------
 Nuclear Repulsion Energy =         270.45972176 hartrees
 There are       26 alpha and       26 beta electrons
 Requested basis set is cc-pVTZ
 There are 98 shells and 268 basis functions

 Total QAlloc Memory Limit 110000 MB
 Mega-Array Size       188 MB
 MEM_STATIC part       192 MB
 Discretize the solute cavity surface with Lebedev spheres
	Using 110 Lebedev grid points for each H atom
	Using 194 Lebedev grid points for other atoms
	Atomic van der Waals radii will be scaled by 1.20
 Remove points where switching function is < 1.0e-08
 Keep 893 surface tesserae and discard 931 interior tesserae
 Molecular Surface Area = 138.462 Angst**2

                       Distance Matrix (Angstroms)
             C (  1)   S (  2)   C (  3)   C (  4)   C (  5)   H (  6)
   S (  2)  1.768374
   C (  3)  2.593862  1.771580
   C (  4)  1.402504  2.574060  2.372011
   C (  5)  2.370146  2.574316  1.402934  1.408863
   H (  6)  2.196426  3.640531  3.402097  1.100048  2.207812
   H (  7)  3.400495  3.641246  2.196268  2.207541  1.100261  2.600322
   C (  8)  1.478200  2.767172  4.012469  2.665067  3.828341  3.043522
   H (  9)  1.831199  2.767229  4.074555  3.000233  4.024039  3.457785
   H ( 10)  2.156438  2.808665  4.361519  3.503080  4.480286  4.027075
   H ( 11)  2.335278  3.803778  4.920152  3.206961  4.524071  3.235428
   H ( 12)  3.658938  2.518519  1.095246  3.436780  2.277563  4.424213
             H (  7)   C (  8)   H (  9)   H ( 10)   H ( 11)
   C (  8)  4.817319
   H (  9)  5.023138  1.080020
   H ( 10)  5.533487  1.080002  1.526884
   H ( 11)  5.409553  1.080021  1.527505  1.819988
   H ( 12)  2.710931  5.036201  5.038352  5.277566  5.976504
 
 Requested basis set is rimp2-cc-pVTZ
 There are 207 shells and 707 basis functions
 A cutoff of  1.0D-10 yielded   4354 shell pairs
 There are     32598 function pairs (     42132 Cartesian)
 Smallest overlap matrix eigenvalue = 1.02E-04

 Scale SEOQF with 1.000000e+00/1.000000e-01/1.000000e-01

 Standard Electronic Orientation quadrupole field applied
 Nucleus-field energy     =     0.0000000021 hartrees
 Guess from superposition of atomic densities
 Warning:  Energy on first SCF cycle will be non-variational
 SAD guess density has 52.000000 electrons

 -----------------------------------------------------------------------
  General SCF calculation program by
  Eric Jon Sundstrom, Paul Horn, Yuezhi Mao, Dmitri Zuev, Alec White,
  David Stuck, Shaama M.S., Shane Yost, Joonho Lee, David Small,
  Daniel Levine, Susi Lehtola, Hugh Burton, Evgeny Epifanovsky,
  Bang C. Huynh
 -----------------------------------------------------------------------
 Hartree-Fock
 using 64 threads for integral computing
 -------------------------------------------------------
 OpenMP Integral computing Module                
 Release: version 1.0, May 2013, Q-Chem Inc. Pittsburgh 
 -------------------------------------------------------
 A restricted SCF calculation will be
 performed using DIIS
 SCF converges when DIIS error is below 1.0e-06
 ---------------------------------------
  Cycle       Energy         DIIS error
 ---------------------------------------
    1    -592.5748560395      3.22e-02  
    2    -590.3028853488      2.22e-03  
    3    -590.3642482642      8.74e-04  
    4    -590.3719242776      4.07e-04  
    5    -590.3740518973      7.03e-05  
    6    -590.3741789245      3.23e-05  
    7    -590.3742095215      1.42e-05  
    8    -590.3742189545      5.70e-06  
    9    -590.3742203468      1.85e-06  
   10    -590.3742204738      6.33e-07  Convergence criterion met
 ---------------------------------------
 SCF time:   CPU 483.78s  wall 8.00s 

************** Final PCM Free Energy Summary **************
 G_electrostatic  =      -0.00598159 hartree =      -3.75350206 kcal/mol
 G_cavitation     =       0.00000000 hartree =       0.00000000 kcal/mol
 G_dispersion     =       0.00000000 hartree =       0.00000000 kcal/mol
 G_repulsion      =       0.00000000 hartree =       0.00000000 kcal/mol
 --------------------------------------------------
 Non-electrostatic Free Energy =       0.00000000 hartree =       0.00000000 kcal/mol
 Total                         =      -0.00598159 hartree =      -3.75350206 kcal/mol
 --------------------------------------------------
 SCF Energy (H0 + V/2)                       =    -590.37422047 
 Solute Internal Energy (H0)                 =    -590.36823889 
 Total Free Energy (H0 + V/2 + non-elec)     =    -590.37422047 hartree
                                             = -370465.41478155 kcal/mol
***********************************************************

 SCF   energy in the final basis set =     -590.3742204738
 Total energy in the final basis set =     -590.3742204738


 --------------------------------------------------------------
  Generalized many-body perturbation theory program
  by Joonho Lee, Fazle Rob, Xintian Feng, Evgeny Epifanovsky

 No regularization used 
 (reg. param. = 0.0000e+00)
  (P|Q)^-1/2 Time:  CPU 5.29 s  wall 0.09 s

 In RI-MP2 calculation: 
 # of frozen core orbitals: 10

 Components of the RIMP2 correlation energy:
        aaaa    correlation energy =        -0.1248465725 a.u.
        abab    correlation energy =        -0.7497902740 a.u.
        bbbb    correlation energy =        -0.1248465725 a.u.
        non-Brillouin singles      =        -0.0000000000 a.u.
        total same-spin energy     =        -0.2496931450 a.u.
        total opposite-spin energy =        -0.7497902740 a.u.

 Total  RIMP2   correlation energy =        -0.9994834190 a.u.
        RIMP2         total energy =      -591.3737038928 a.u.

 RI-MP2 Energy Time:  CPU 23.56 s  wall 0.43 s
 
 --------------------------------------------------------------
 
                    Orbital Energies (a.u.)
 --------------------------------------------------------------
 
 Alpha MOs
 -- Occupied --
-91.9791 -11.2911 -11.2635 -11.2426 -11.2307 -11.2281  -8.9790  -6.6599
 -6.6595  -6.6588  -1.1573  -1.0412  -0.9713  -0.9197  -0.7553  -0.7213
 -0.6714  -0.5974  -0.5654  -0.5601  -0.5385  -0.4977  -0.4765  -0.4565
 -0.3469  -0.2991
 -- Virtual --
  0.1113   0.1453   0.1604   0.1811   0.1895   0.2073   0.2106   0.2174
  0.2265   0.2498   0.3116   0.3424   0.3446   0.3661   0.3857   0.4168
  0.4274   0.4419   0.4573   0.4865   0.5006   0.5081   0.5265   0.5436
  0.5492   0.5566   0.5751   0.5846   0.5988   0.6081   0.6170   0.6213
  0.6273   0.6418   0.6493   0.6581   0.7016   0.7107   0.7435   0.7800
  0.7838   0.8046   0.8421   0.8475   0.8778   0.8833   0.8949   0.9452
  0.9597   0.9822   0.9959   1.0388   1.0633   1.0892   1.0983   1.1105
  1.1169   1.1643   1.1726   1.1739   1.2172   1.2318   1.2460   1.2666
  1.2814   1.3004   1.3420   1.3537   1.4005   1.4208   1.4326   1.4422
  1.4801   1.4956   1.5129   1.5221   1.5453   1.5518   1.5666   1.5843
  1.5982   1.6327   1.6522   1.6928   1.7016   1.7594   1.7677   1.7913
  1.8360   1.8819   1.9072   1.9284   1.9381   2.0203   2.0698   2.0767
  2.1527   2.1692   2.2281   2.2353   2.2556   2.2893   2.3326   2.4168
  2.4333   2.4436   2.4529   2.5371   2.5383   2.5988   2.6442   2.6557
  2.6924   2.7296   2.7349   2.7402   2.7514   2.7761   2.7962   2.8420
  2.8707   2.8898   2.9290   2.9625   2.9778   3.0185   3.0378   3.0437
  3.0573   3.1004   3.1122   3.1526   3.1685   3.2083   3.2165   3.2390
  3.2559   3.2822   3.2874   3.3076   3.3157   3.3497   3.3850   3.3884
  3.4013   3.4348   3.4378   3.4462   3.4523   3.4574   3.4744   3.4986
  3.5080   3.5174   3.5382   3.5560   3.5975   3.6120   3.6191   3.6532
  3.6899   3.7063   3.7295   3.7475   3.7613   3.7935   3.8211   3.8291
  3.8581   3.8839   3.9153   3.9234   3.9567   3.9668   3.9711   3.9885
  4.0075   4.0428   4.0625   4.0929   4.1340   4.1522   4.1636   4.2019
  4.2184   4.2528   4.2776   4.2823   4.3008   4.3503   4.3824   4.4004
  4.4079   4.4653   4.4847   4.5066   4.5429   4.5682   4.5815   4.6304
  4.6692   4.6981   4.7450   4.7568   4.8039   4.8209   4.8443   4.8499
  4.9571   5.0102   5.0269   5.0345   5.0729   5.1445   5.1705   5.1971
  5.2169   5.3008   5.3650   5.4352   5.4675   5.4956   5.5377   5.6043
  5.6216   5.6932   5.7965   5.8173   5.8639   5.9932   6.0449   6.0927
  6.1405   6.3391   6.4116   6.4873   6.7434   9.3987  11.3047  12.8781
 13.9147  14.3313
 --------------------------------------------------------------
 
          Ground-State Mulliken Net Atomic Charges

     Atom                 Charge (a.u.)
  ----------------------------------------
      1 C                     0.020343
      2 S                    -0.005622
      3 C                    -0.245742
      4 C                    -0.236296
      5 C                    -0.187330
      6 H                     0.183567
      7 H                     0.184848
      8 C                    -0.360324
      9 H                     0.137021
     10 H                     0.137100
     11 H                     0.167444
     12 H                     0.204990
  ----------------------------------------
  Sum of atomic charges =     0.000000

 -----------------------------------------------------------------
                    Cartesian Multipole Moments
 -----------------------------------------------------------------
    Charge (ESU x 10^10)
                -0.0000
    Dipole Moment (Debye)
         X       0.6859      Y      -0.7791      Z      -0.8069
       Tot       1.3147
    Quadrupole Moments (Debye-Ang)
        XX     -48.2118     XY      -1.4468     YY     -35.8065
        XZ      -0.4178     YZ       0.6003     ZZ     -41.9142
    Octopole Moments (Debye-Ang^2)
       XXX      -0.4383    XXY     -21.6333    XYY       2.7526
       YYY     -43.2876    XXZ      -7.3087    XYZ       1.1970
       YYZ      -4.2900    XZZ      -0.1764    YZZ     -11.3954
       ZZZ     -28.3908
    Hexadecapole Moments (Debye-Ang^3)
      XXXX     -65.0215   XXXY       2.6407   XXYY    -117.3697
      XYYY      -4.4347   YYYY    -498.4015   XXXZ       0.8955
      XXYZ      -6.2412   XYYZ      -3.0912   YYYZ      -5.8844
      XXZZ     -69.7816   XYZZ       0.5475   YYZZ    -122.6728
      XZZZ       0.1114   YZZZ     -13.5935   ZZZZ    -306.4857
 -----------------------------------------------------------------
 Total job time:  11.77s(wall), 558.27s(cpu) 
 Wed Dec 27 10:00:20 2023

        *************************************************************
        *                                                           *
        *  Thank you very much for using Q-Chem.  Have a nice day.  *
        *                                                           *
        *************************************************************


0 sent ACK to 0 
now end server 0 ... 
cleanup process ... done
remove work dirs ./qchem2754454.0 -- ./qchem2754454.0
rm -rf ./qchem2754454.0
rm -rf ./qchem2754454
