You are running Q-Chem version: 5.4.0

#
# job setting
#
local host:  exp-4-24
current dir: /home/rramji/project-csd799/aromodel/pndit-qchem/methylated-rotation-run
input file:  Dimethyl_Naphthalene_Dicarboximide_Phi_10_Theta_0_Thiophene_Hydrogenated_Improper.qcin
output file: 
nprocs     : 1
nthreads   : 64
#
# qchem installation setting
#
QC:          /cm/shared/apps/spack/cpu/opt/spack/linux-centos8-zen2/gcc-10.2.0/qchem-5.4-akfmr7b3t57bfs6qan3padb2wnb2i7cl
QCAUX:       /cm/shared/apps/spack/cpu/opt/spack/linux-centos8-zen2/gcc-10.2.0/qchem-5.4-akfmr7b3t57bfs6qan3padb2wnb2i7cl/qcaux
QCPROG:      /cm/shared/apps/spack/cpu/opt/spack/linux-centos8-zen2/gcc-10.2.0/qchem-5.4-akfmr7b3t57bfs6qan3padb2wnb2i7cl/exe/qcprog.exe
QCPROG_S:    /cm/shared/apps/spack/cpu/opt/spack/linux-centos8-zen2/gcc-10.2.0/qchem-5.4-akfmr7b3t57bfs6qan3padb2wnb2i7cl/exe/qcprog.exe_s
PARALLEL:    -DPARALLEL
QCMPI:       mpich
#
# qchem directory setting
#
qcrun:       qchem2962755
QCSCRATCH:   .
QCLOCALSCR:  
QCTMPDIR:    .
QCFILEPREF:  ./qchem2962755
QCSAVEDIR:   
workdirs:    ./qchem2962755
workdir0:    ./qchem2962755
partmpdirs =  
#
# parallel setting
#
QCRSH:           ssh
QCMPI:           mpich
QCMPIRUN:        /cm/shared/apps/spack/cpu/opt/spack/linux-centos8-zen2/gcc-10.2.0/qchem-5.4-akfmr7b3t57bfs6qan3padb2wnb2i7cl/bin/mpi/mpirun_qchem
QCMACHINEFILE:   ./qchem2962755/hostfile
exp-4-24

#
# env setting
#
exported envs:   QC QCAUX QCSCRATCH QCRUNNAME QCFILEPREF QCPROG QCPROG_S GUIFILE

Running Job 1 of 1 Dimethyl_Naphthalene_Dicarboximide_Phi_10_Theta_0_Thiophene_Hydrogenated_Improper.qcin
qchem Dimethyl_Naphthalene_Dicarboximide_Phi_10_Theta_0_Thiophene_Hydrogenated_Improper.qcin_2962755.0 ./qchem2962755/ 1
/cm/shared/apps/spack/cpu/opt/spack/linux-centos8-zen2/gcc-10.2.0/qchem-5.4-akfmr7b3t57bfs6qan3padb2wnb2i7cl/bin/mpi/mpirun_qchem -machinefile ./qchem2962755/hostfile -np 1 /cm/shared/apps/spack/cpu/opt/spack/linux-centos8-zen2/gcc-10.2.0/qchem-5.4-akfmr7b3t57bfs6qan3padb2wnb2i7cl/exe/qcprog.exe Dimethyl_Naphthalene_Dicarboximide_Phi_10_Theta_0_Thiophene_Hydrogenated_Improper.qcin_2962755.0 ./qchem2962755/

Process 0 of 1 is on exp-4-24 - thread support 0
initial socket setup ...start
initial socket setup ...done 
now start server 0 ... 
                  Welcome to Q-Chem
     A Quantum Leap Into The Future Of Chemistry


 Q-Chem 5.4, Q-Chem, Inc., Pleasanton, CA (2021)

 License issued to: University of California, San Diego (site)

 E. Epifanovsky,  A. T. B. Gilbert,  Xintian Feng,  Joonho Lee,  Yuezhi Mao,  
 N. Mardirossian,  P. Pokhilko,  A. White,  M. Wormit,  M. P. Coons,  
 A. L. Dempwolff,  Zhengting Gan,  D. Hait,  P. R. Horn,  L. D. Jacobson,  
 I. Kaliman,  J. Kussmann,  A. W. Lange,  Ka Un Lao,  D. S. Levine,  Jie Liu,  
 S. C. McKenzie,  A. F. Morrison,  K. Nanda,  F. Plasser,  D. R. Rehn,  
 M. L. Vidal,  Zhi-Qiang You,  Ying Zhu,  B. Alam,  B. Albrecht,  
 A. Aldossary,  E. Alguire,  J. H. Andersen,  D. Barton,  K. Begam,  A. Behn,  
 Y. A. Bernard,  E. J. Berquist,  H. Burton,  A. Carreras,  K. Carter-Fenk,  
 R. Chakraborty,  A. D. Chien,  K. D. Closser,  V. Cofer-Shabica,  
 S. Dasgupta,  Jia Deng,  M. de Wergifosse,  M. Diedenhofen,  Hainam Do,  
 S. Ehlert,  Po-Tung Fang,  S. Fatehi,  Qingguo Feng,  J. Gayvert,  
 Qinghui Ge,  G. Gidofalvi,  M. Goldey,  J. Gomes,  C. Gonzalez-Espinoza,  
 S. Gulania,  A. Gunina,  M. W. D. Hanson-Heine,  P. H. P. Harbach,  
 A. W. Hauser,  M. F. Herbst,  M. Hernandez Vera,  M. Hodecker,  
 Z. C. Holden,  S. Houck,  Xunkun Huang,  Kerwin Hui,  B. C. Huynh,  
 M. Ivanov,  Hyunjun Ji,  Hanjie Jiang,  B. Kaduk,  S. Kaehler,  
 K. Khistyaev,  Jaehoon Kim,  P. Klunzinger,  Z. Koczor-Benda,  
 Joong Hoon Koh,  D. Kosenkov,  L. Koulias,  T. Kowalczyk,  C. M. Krauter,  
 K. Kue,  A. Kunitsa,  T. Kus,  A. Landau,  K. V. Lawler,  D. Lefrancois,  
 S. Lehtola,  Rain Li,  Yi-Pei Li,  Jiashu Liang,  M. Liebenthal,  
 Hung-Hsuan Lin,  You-Sheng Lin,  Fenglai Liu,  Kuan-Yu Liu,  
 M. Loipersberger,  A. Luenser,  A. Manjanath,  P. Manohar,  E. Mansoor,  
 S. F. Manzer,  Shan-Ping Mao,  A. V. Marenich,  T. Markovich,  S. Mason,  
 S. A. Maurer,  P. F. McLaughlin,  M. F. S. J. Menger,  J.-M. Mewes,  
 S. A. Mewes,  P. Morgante,  J. W. Mullinax,  T. S. Nguyen-Beck,  
 K. J. Oosterbaan,  G. Paran,  Alexander C. Paul,  Suranjan K. Paul,  
 F. Pavosevic,  Zheng Pei,  S. Prager,  E. I. Proynov,  E. Ramos,  B. Rana,  
 A. E. Rask,  A. Rettig,  R. M. Richard,  F. Rob,  E. Rossomme,  T. Scheele,  
 M. Scheurer,  M. Schneider,  N. Sergueev,  S. M. Sharada,  W. Skomorowski,  
 D. W. Small,  C. J. Stein,  Yu-Chuan Su,  E. J. Sundstrom,  Zhen Tao,  
 J. Thirman,  T. Tsuchimochi,  N. M. Tubman,  S. P. Veccham,  O. Vydrov,  
 J. Wenzel,  J. Witte,  A. Yamada,  Kun Yao,  S. Yeganeh,  S. R. Yost,  
 A. Zech,  Igor Ying Zhang,  Xing Zhang,  Yu Zhang,  D. Zuev,  
 A. Aspuru-Guzik,  A. T. Bell,  N. A. Besley,  K. B. Bravaya,  B. R. Brooks,  
 D. Casanova,  Jeng-Da Chai,  S. Coriani,  C. J. Cramer,  
 A. E. DePrince, III,  R. A. DiStasio Jr.,  A. Dreuw,  B. D. Dunietz,  
 T. R. Furlani,  W. A. Goddard III,  S. Grimme,  S. Hammes-Schiffer,  
 T. Head-Gordon,  W. J. Hehre,  Chao-Ping Hsu,  T.-C. Jagau,  Yousung Jung,  
 A. Klamt,  Jing Kong,  D. S. Lambrecht,  WanZhen Liang,  N. J. Mayhall,  
 C. W. McCurdy,  J. B. Neaton,  C. Ochsenfeld,  J. A. Parkhill,  R. Peverati,  
 V. A. Rassolov,  Yihan Shao,  L. V. Slipchenko,  T. Stauch,  R. P. Steele,  
 J. E. Subotnik,  A. J. W. Thom,  A. Tkatchenko,  D. G. Truhlar,  
 T. Van Voorhis,  T. A. Wesolowski,  K. B. Whaley,  H. L. Woodcock III,  
 P. M. Zimmerman,  S. Faraji,  P. M. W. Gill,  M. Head-Gordon,  
 J. M. Herbert,  A. I. Krylov

 Contributors to earlier versions of Q-Chem not listed above: 
 R. D. Adamson,  B. Austin,  R. Baer,  J. Baker,  G. J. O. Beran,  
 K. Brandhorst,  S. T. Brown,  E. F. C. Byrd,  A. K. Chakraborty,  
 G. K. L. Chan,  Chun-Min Chang,  Yunqing Chen,  C.-L. Cheng,  
 Siu Hung Chien,  D. M. Chipman,  D. L. Crittenden,  H. Dachsel,  
 R. J. Doerksen,  A. D. Dutoi,  R. G. Edgar,  J. Fosso-Tande,  
 L. Fusti-Molnar,  D. Ghosh,  A. Ghysels,  A. Golubeva-Zadorozhnaya,  
 J. Gonthier,  M. S. Gordon,  S. R. Gwaltney,  G. Hawkins,  J. E. Herr,  
 A. Heyden,  S. Hirata,  E. G. Hohenstein,  G. Kedziora,  F. J. Keil,  
 C. Kelley,  Jihan Kim,  R. A. King,  R. Z. Khaliullin,  P. P. Korambath,  
 W. Kurlancheek,  A. Laurent,  A. M. Lee,  M. S. Lee,  S. V. Levchenko,  
 Ching Yeh Lin,  D. Liotard,  E. Livshits,  R. C. Lochan,  I. Lotan,  
 L. A. Martinez-Martinez,  P. E. Maslen,  N. Nair,  D. P. O'Neill,  
 D. Neuhauser,  E. Neuscamman,  C. M. Oana,  R. Olivares-Amaya,  R. Olson,  
 T. M. Perrine,  B. Peters,  P. A. Pieniazek,  A. Prociuk,  Y. M. Rhee,  
 J. Ritchie,  M. A. Rohrdanz,  E. Rosta,  N. J. Russ,  H. F. Schaefer III,  
 M. W. Schmidt,  N. E. Schultz,  S. Sharma,  N. Shenvi,  C. D. Sherrill,  
 A. C. Simmonett,  A. Sodt,  T. Stein,  D. Stuck,  K. S. Thanthiriwatte,  
 V. Vanovschi,  L. Vogt,  Tao Wang,  A. Warshel,  M. A. Watson,  
 C. F. Williams,  Q. Wu,  X. Xu,  Jun Yang,  W. Zhang,  Yan Zhao

 Please cite Q-Chem as follows:
 Y. Shao et al., Mol. Phys. 113, 184-215 (2015)
 DOI: 10.1080/00268976.2014.952696

 Q-Chem 5.4.0 for Intel X86 EM64T Linux

 Parts of Q-Chem use Armadillo 9.800.1 (Horizon Scraper).
 http://arma.sourceforge.net/

 Q-Chem begins on Wed Dec 27 09:59:37 2023  

 Host: 
0

     Scratch files written to ./qchem2962755//
 May1621 |scratch|qcdevops|jenkins|workspace|build_RNUM    
 Parallel job on  1  processors
 Processing $rem in /cm/shared/apps/spack/cpu/opt/spack/linux-centos8-zen2/gcc-10.2.0/qchem-5.4-akfmr7b3t57bfs6qan3padb2wnb2i7cl/config/preferences:
 Processing $rem in /home/rramji/.qchemrc:
 Symmetry turned off for PCM/SM12/SMD calculation
 Core orbitals will be frozen

 Checking the input file for inconsistencies... 	...done.

 Q-Chem warning in module forms1/BasisType.C, line 2236:

 You are not using the predefined 5D/6D in this basis set.


--------------------------------------------------------------
User input:
--------------------------------------------------------------
$molecule
0 1
C	-0.061006	-0.398330	-0.215368
S	0.007894	0.391870	1.365132
C	0.150594	2.023370	0.689532
C	0.025794	0.595870	-1.200768
C	0.140794	1.911070	-0.708868
H	0.005294	0.361170	-2.275268
H	0.217494	2.788670	-1.367968
C	0.067794	-1.870930	-0.215368
H	1.143794	-1.777430	-0.214868
H	0.106094	-2.308530	0.771232
H	0.129694	-2.579130	-1.028368
H	0.227294	2.900670	1.340632
$end

$rem
JOBTYPE		SP
EXCHANGE	HF
CORRELATION	pRIMP2
BASIS		cc-pvtz
METHOD		rimp2
AUX_BASIS	rimp2-cc-pvtz
SOLVENT_METHOD	PCM
PURECART	11111
SYMMETRY	false
MEM_TOTAL	110000
SCF_CONVERGENCE = 6
THRESH=10
GUI = 2
$end



$solvent
dielectric 4.90
$end
--------------------------------------------------------------
 ----------------------------------------------------------------
             Standard Nuclear Orientation (Angstroms)
    I     Atom           X                Y                Z
 ----------------------------------------------------------------
    1      C      -0.0610060000    -0.3983300000    -0.2153680000
    2      S       0.0078940000     0.3918700000     1.3651320000
    3      C       0.1505940000     2.0233700000     0.6895320000
    4      C       0.0257940000     0.5958700000    -1.2007680000
    5      C       0.1407940000     1.9110700000    -0.7088680000
    6      H       0.0052940000     0.3611700000    -2.2752680000
    7      H       0.2174940000     2.7886700000    -1.3679680000
    8      C       0.0677940000    -1.8709300000    -0.2153680000
    9      H       1.1437940000    -1.7774300000    -0.2148680000
   10      H       0.1060940000    -2.3085300000     0.7712320000
   11      H       0.1296940000    -2.5791300000    -1.0283680000
   12      H       0.2272940000     2.9006700000     1.3406320000
 ----------------------------------------------------------------
 Nuclear Repulsion Energy =         270.60352374 hartrees
 There are       26 alpha and       26 beta electrons
 Requested basis set is cc-pVTZ
 There are 98 shells and 268 basis functions

 Total QAlloc Memory Limit 110000 MB
 Mega-Array Size       188 MB
 MEM_STATIC part       192 MB
 Discretize the solute cavity surface with Lebedev spheres
	Using 110 Lebedev grid points for each H atom
	Using 194 Lebedev grid points for other atoms
	Atomic van der Waals radii will be scaled by 1.20
 Remove points where switching function is < 1.0e-08
 Keep 895 surface tesserae and discard 929 interior tesserae
 Molecular Surface Area = 138.356 Angst**2

                       Distance Matrix (Angstroms)
             C (  1)   S (  2)   C (  3)   C (  4)   C (  5)   H (  6)
   S (  2)  1.768373
   C (  3)  2.593887  1.771607
   C (  4)  1.402491  2.574059  2.372038
   C (  5)  2.370146  2.574317  1.402936  1.408880
   H (  6)  2.196457  3.640530  3.402067  1.100025  2.207750
   H (  7)  3.400444  3.641211  2.196239  2.207505  1.100217  2.600188
   C (  8)  1.478222  2.760767  3.998909  2.656667  3.814760  3.037987
   H (  9)  1.831246  2.914195  4.031187  2.802584  3.854228  3.180415
   H ( 10)  2.156424  2.766680  4.332899  3.511520  4.471792  4.051990
   H ( 11)  2.335214  3.817135  4.912700  3.181374  4.501566  3.196185
   H ( 12)  3.658914  2.518494  1.095203  3.436775  2.277551  4.424147
             H (  7)   C (  8)   H (  9)   H ( 10)   H ( 11)
   C (  8)  4.802371
   H (  9)  4.799681  1.080055
   H ( 10)  5.529017  1.079972  1.526854
   H ( 11)  5.379248  1.079976  1.527385  1.819984
   H ( 12)  2.710932  5.021428  5.014396  5.241629  5.970753
 
 Requested basis set is rimp2-cc-pVTZ
 There are 207 shells and 707 basis functions
 A cutoff of  1.0D-10 yielded   4371 shell pairs
 There are     32765 function pairs (     42371 Cartesian)
 Smallest overlap matrix eigenvalue = 1.14E-04

 Scale SEOQF with 1.000000e+00/1.000000e-01/1.000000e-01

 Standard Electronic Orientation quadrupole field applied
 Nucleus-field energy     =     0.0000000021 hartrees
 Guess from superposition of atomic densities
 Warning:  Energy on first SCF cycle will be non-variational
 SAD guess density has 52.000000 electrons

 -----------------------------------------------------------------------
  General SCF calculation program by
  Eric Jon Sundstrom, Paul Horn, Yuezhi Mao, Dmitri Zuev, Alec White,
  David Stuck, Shaama M.S., Shane Yost, Joonho Lee, David Small,
  Daniel Levine, Susi Lehtola, Hugh Burton, Evgeny Epifanovsky,
  Bang C. Huynh
 -----------------------------------------------------------------------
 Hartree-Fock
 using 64 threads for integral computing
 -------------------------------------------------------
 OpenMP Integral computing Module                
 Release: version 1.0, May 2013, Q-Chem Inc. Pittsburgh 
 -------------------------------------------------------
 A restricted SCF calculation will be
 performed using DIIS
 SCF converges when DIIS error is below 1.0e-06
 ---------------------------------------
  Cycle       Energy         DIIS error
 ---------------------------------------
    1    -592.5764115431      3.22e-02  
    2    -590.3024589435      2.22e-03  
    3    -590.3638164353      8.75e-04  
    4    -590.3715026411      4.09e-04  
    5    -590.3736370743      6.94e-05  
    6    -590.3737608458      3.23e-05  
    7    -590.3737904427      1.40e-05  
    8    -590.3737997323      5.66e-06  
    9    -590.3738011214      1.85e-06  
   10    -590.3738012503      6.56e-07  Convergence criterion met
 ---------------------------------------
 SCF time:   CPU 509.34s  wall 9.00s 

************** Final PCM Free Energy Summary **************
 G_electrostatic  =      -0.00602744 hartree =      -3.78227268 kcal/mol
 G_cavitation     =       0.00000000 hartree =       0.00000000 kcal/mol
 G_dispersion     =       0.00000000 hartree =       0.00000000 kcal/mol
 G_repulsion      =       0.00000000 hartree =       0.00000000 kcal/mol
 --------------------------------------------------
 Non-electrostatic Free Energy =       0.00000000 hartree =       0.00000000 kcal/mol
 Total                         =      -0.00602744 hartree =      -3.78227268 kcal/mol
 --------------------------------------------------
 SCF Energy (H0 + V/2)                       =    -590.37380125 
 Solute Internal Energy (H0)                 =    -590.36777382 
 Total Free Energy (H0 + V/2 + non-elec)     =    -590.37380125 hartree
                                             = -370465.15171483 kcal/mol
***********************************************************

 SCF   energy in the final basis set =     -590.3738012503
 Total energy in the final basis set =     -590.3738012503


 --------------------------------------------------------------
  Generalized many-body perturbation theory program
  by Joonho Lee, Fazle Rob, Xintian Feng, Evgeny Epifanovsky

 No regularization used 
 (reg. param. = 0.0000e+00)
  (P|Q)^-1/2 Time:  CPU 7.05 s  wall 0.12 s

 In RI-MP2 calculation: 
 # of frozen core orbitals: 10

 Components of the RIMP2 correlation energy:
        aaaa    correlation energy =        -0.1249254728 a.u.
        abab    correlation energy =        -0.7498535143 a.u.
        bbbb    correlation energy =        -0.1249254728 a.u.
        non-Brillouin singles      =        -0.0000000000 a.u.
        total same-spin energy     =        -0.2498509457 a.u.
        total opposite-spin energy =        -0.7498535143 a.u.

 Total  RIMP2   correlation energy =        -0.9997044600 a.u.
        RIMP2         total energy =      -591.3735057103 a.u.

 RI-MP2 Energy Time:  CPU 25.83 s  wall 0.44 s
 
 --------------------------------------------------------------
 
                    Orbital Energies (a.u.)
 --------------------------------------------------------------
 
 Alpha MOs
 -- Occupied --
-91.9794 -11.2924 -11.2620 -11.2429 -11.2296 -11.2293  -8.9792  -6.6601
 -6.6597  -6.6590  -1.1576  -1.0412  -0.9712  -0.9191  -0.7548  -0.7220
 -0.6714  -0.5974  -0.5659  -0.5567  -0.5416  -0.4967  -0.4783  -0.4568
 -0.3469  -0.2974
 -- Virtual --
  0.1116   0.1472   0.1603   0.1802   0.1886   0.1979   0.2134   0.2198
  0.2276   0.2539   0.3159   0.3361   0.3477   0.3645   0.3886   0.4166
  0.4278   0.4405   0.4549   0.4810   0.5032   0.5144   0.5265   0.5392
  0.5473   0.5657   0.5718   0.5822   0.5900   0.6110   0.6207   0.6274
  0.6295   0.6397   0.6441   0.6532   0.6992   0.7025   0.7415   0.7792
  0.7832   0.7946   0.8432   0.8598   0.8717   0.8840   0.8966   0.9331
  0.9528   0.9921   1.0004   1.0351   1.0643   1.0795   1.0846   1.1119
  1.1192   1.1587   1.1690   1.1786   1.2166   1.2421   1.2527   1.2639
  1.2835   1.2941   1.3399   1.3472   1.3984   1.4129   1.4339   1.4582
  1.4757   1.4860   1.4908   1.5137   1.5272   1.5554   1.5630   1.5684
  1.5936   1.6240   1.6509   1.7070   1.7124   1.7493   1.7864   1.7980
  1.8312   1.8862   1.9134   1.9183   1.9504   2.0136   2.0666   2.0768
  2.1517   2.1698   2.2231   2.2407   2.2630   2.2866   2.3115   2.4124
  2.4277   2.4372   2.4699   2.5328   2.5412   2.5856   2.6275   2.6594
  2.6904   2.7306   2.7367   2.7503   2.7684   2.7772   2.7953   2.8258
  2.8708   2.8914   2.9205   2.9701   3.0066   3.0213   3.0249   3.0527
  3.0769   3.0988   3.1056   3.1377   3.1693   3.2061   3.2121   3.2461
  3.2611   3.2721   3.2886   3.3097   3.3138   3.3404   3.3764   3.3856
  3.4079   3.4296   3.4320   3.4426   3.4592   3.4693   3.4777   3.5000
  3.5070   3.5183   3.5387   3.5593   3.5966   3.6147   3.6237   3.6511
  3.6877   3.6938   3.7206   3.7476   3.7709   3.7915   3.8225   3.8334
  3.8501   3.8870   3.9022   3.9157   3.9586   3.9602   3.9835   3.9886
  4.0175   4.0385   4.0631   4.1072   4.1234   4.1566   4.1662   4.1834
  4.2482   4.2629   4.2812   4.2932   4.3203   4.3549   4.3652   4.3920
  4.4179   4.4681   4.4922   4.5071   4.5418   4.5733   4.5821   4.6236
  4.6658   4.6939   4.7452   4.7710   4.7816   4.8230   4.8272   4.8665
  4.9668   4.9950   5.0206   5.0377   5.0687   5.1316   5.1851   5.1931
  5.2283   5.3018   5.3550   5.4188   5.4725   5.5014   5.5388   5.5779
  5.6278   5.6830   5.7890   5.8217   5.8731   5.9899   6.0148   6.0870
  6.1477   6.3464   6.4178   6.4781   6.7377   9.3756  11.3157  12.8322
 13.9040  14.3343
 --------------------------------------------------------------
 
          Ground-State Mulliken Net Atomic Charges

     Atom                 Charge (a.u.)
  ----------------------------------------
      1 C                     0.026227
      2 S                    -0.000462
      3 C                    -0.252263
      4 C                    -0.246359
      5 C                    -0.183817
      6 H                     0.179925
      7 H                     0.185588
      8 C                    -0.362911
      9 H                     0.145929
     10 H                     0.136160
     11 H                     0.167679
     12 H                     0.204305
  ----------------------------------------
  Sum of atomic charges =     0.000000

 -----------------------------------------------------------------
                    Cartesian Multipole Moments
 -----------------------------------------------------------------
    Charge (ESU x 10^10)
                 0.0000
    Dipole Moment (Debye)
         X       0.9931      Y      -0.8110      Z      -1.0459
       Tot       1.6546
    Quadrupole Moments (Debye-Ang)
        XX     -48.1037     XY      -0.9754     YY     -36.2162
        XZ      -0.1979     YZ       1.0768     ZZ     -41.7540
    Octopole Moments (Debye-Ang^2)
       XXX      -9.0487    XXY     -21.4461    XYY       2.7622
       YYY     -42.9865    XXZ      -7.3169    XYZ       0.7879
       YYZ      -5.3563    XZZ      -2.0183    YZZ     -12.0448
       ZZZ     -28.0118
    Hexadecapole Moments (Debye-Ang^3)
      XXXX     -67.4222   XXXY      -8.1944   XXYY    -116.6000
      XYYY      -6.9166   YYYY    -497.9768   XXXZ       0.2353
      XXYZ      -6.4228   XYYZ      -0.4100   YYYZ      -5.5409
      XXZZ     -70.4340   XYZZ      -0.5276   YYZZ    -120.9997
      XZZZ       0.8377   YZZZ     -14.1604   ZZZZ    -307.0044
 -----------------------------------------------------------------
 Total job time:  14.05s(wall), 579.93s(cpu) 
 Wed Dec 27 09:59:51 2023

        *************************************************************
        *                                                           *
        *  Thank you very much for using Q-Chem.  Have a nice day.  *
        *                                                           *
        *************************************************************


0 sent ACK to 0 
now end server 0 ... 
cleanup process ... done
remove work dirs ./qchem2962755.0 -- ./qchem2962755.0
rm -rf ./qchem2962755.0
rm -rf ./qchem2962755
