You are running Q-Chem version: 5.4.0

#
# job setting
#
local host:  exp-13-43
current dir: /home/rramji/project-csd799/aromodel/pndit-qchem/methylated-rotation-run
input file:  Dimethyl_Naphthalene_Dicarboximide_Phi_60_Theta_310_Thiophene_Hydrogenated_Improper.qcin
output file: 
nprocs     : 1
nthreads   : 64
#
# qchem installation setting
#
QC:          /cm/shared/apps/spack/cpu/opt/spack/linux-centos8-zen2/gcc-10.2.0/qchem-5.4-akfmr7b3t57bfs6qan3padb2wnb2i7cl
QCAUX:       /cm/shared/apps/spack/cpu/opt/spack/linux-centos8-zen2/gcc-10.2.0/qchem-5.4-akfmr7b3t57bfs6qan3padb2wnb2i7cl/qcaux
QCPROG:      /cm/shared/apps/spack/cpu/opt/spack/linux-centos8-zen2/gcc-10.2.0/qchem-5.4-akfmr7b3t57bfs6qan3padb2wnb2i7cl/exe/qcprog.exe
QCPROG_S:    /cm/shared/apps/spack/cpu/opt/spack/linux-centos8-zen2/gcc-10.2.0/qchem-5.4-akfmr7b3t57bfs6qan3padb2wnb2i7cl/exe/qcprog.exe_s
PARALLEL:    -DPARALLEL
QCMPI:       mpich
#
# qchem directory setting
#
qcrun:       qchem657365
QCSCRATCH:   .
QCLOCALSCR:  
QCTMPDIR:    .
QCFILEPREF:  ./qchem657365
QCSAVEDIR:   
workdirs:    ./qchem657365
workdir0:    ./qchem657365
partmpdirs =  
#
# parallel setting
#
QCRSH:           ssh
QCMPI:           mpich
QCMPIRUN:        /cm/shared/apps/spack/cpu/opt/spack/linux-centos8-zen2/gcc-10.2.0/qchem-5.4-akfmr7b3t57bfs6qan3padb2wnb2i7cl/bin/mpi/mpirun_qchem
QCMACHINEFILE:   ./qchem657365/hostfile
exp-13-43

#
# env setting
#
exported envs:   QC QCAUX QCSCRATCH QCRUNNAME QCFILEPREF QCPROG QCPROG_S GUIFILE

Running Job 1 of 1 Dimethyl_Naphthalene_Dicarboximide_Phi_60_Theta_310_Thiophene_Hydrogenated_Improper.qcin
qchem Dimethyl_Naphthalene_Dicarboximide_Phi_60_Theta_310_Thiophene_Hydrogenated_Improper.qcin_657365.0 ./qchem657365/ 1
/cm/shared/apps/spack/cpu/opt/spack/linux-centos8-zen2/gcc-10.2.0/qchem-5.4-akfmr7b3t57bfs6qan3padb2wnb2i7cl/bin/mpi/mpirun_qchem -machinefile ./qchem657365/hostfile -np 1 /cm/shared/apps/spack/cpu/opt/spack/linux-centos8-zen2/gcc-10.2.0/qchem-5.4-akfmr7b3t57bfs6qan3padb2wnb2i7cl/exe/qcprog.exe Dimethyl_Naphthalene_Dicarboximide_Phi_60_Theta_310_Thiophene_Hydrogenated_Improper.qcin_657365.0 ./qchem657365/

Process 0 of 1 is on exp-13-43 - thread support 0
initial socket setup ...start
initial socket setup ...done 
now start server 0 ... 
                  Welcome to Q-Chem
     A Quantum Leap Into The Future Of Chemistry


 Q-Chem 5.4, Q-Chem, Inc., Pleasanton, CA (2021)

 License issued to: University of California, San Diego (site)

 E. Epifanovsky,  A. T. B. Gilbert,  Xintian Feng,  Joonho Lee,  Yuezhi Mao,  
 N. Mardirossian,  P. Pokhilko,  A. White,  M. Wormit,  M. P. Coons,  
 A. L. Dempwolff,  Zhengting Gan,  D. Hait,  P. R. Horn,  L. D. Jacobson,  
 I. Kaliman,  J. Kussmann,  A. W. Lange,  Ka Un Lao,  D. S. Levine,  Jie Liu,  
 S. C. McKenzie,  A. F. Morrison,  K. Nanda,  F. Plasser,  D. R. Rehn,  
 M. L. Vidal,  Zhi-Qiang You,  Ying Zhu,  B. Alam,  B. Albrecht,  
 A. Aldossary,  E. Alguire,  J. H. Andersen,  D. Barton,  K. Begam,  A. Behn,  
 Y. A. Bernard,  E. J. Berquist,  H. Burton,  A. Carreras,  K. Carter-Fenk,  
 R. Chakraborty,  A. D. Chien,  K. D. Closser,  V. Cofer-Shabica,  
 S. Dasgupta,  Jia Deng,  M. de Wergifosse,  M. Diedenhofen,  Hainam Do,  
 S. Ehlert,  Po-Tung Fang,  S. Fatehi,  Qingguo Feng,  J. Gayvert,  
 Qinghui Ge,  G. Gidofalvi,  M. Goldey,  J. Gomes,  C. Gonzalez-Espinoza,  
 S. Gulania,  A. Gunina,  M. W. D. Hanson-Heine,  P. H. P. Harbach,  
 A. W. Hauser,  M. F. Herbst,  M. Hernandez Vera,  M. Hodecker,  
 Z. C. Holden,  S. Houck,  Xunkun Huang,  Kerwin Hui,  B. C. Huynh,  
 M. Ivanov,  Hyunjun Ji,  Hanjie Jiang,  B. Kaduk,  S. Kaehler,  
 K. Khistyaev,  Jaehoon Kim,  P. Klunzinger,  Z. Koczor-Benda,  
 Joong Hoon Koh,  D. Kosenkov,  L. Koulias,  T. Kowalczyk,  C. M. Krauter,  
 K. Kue,  A. Kunitsa,  T. Kus,  A. Landau,  K. V. Lawler,  D. Lefrancois,  
 S. Lehtola,  Rain Li,  Yi-Pei Li,  Jiashu Liang,  M. Liebenthal,  
 Hung-Hsuan Lin,  You-Sheng Lin,  Fenglai Liu,  Kuan-Yu Liu,  
 M. Loipersberger,  A. Luenser,  A. Manjanath,  P. Manohar,  E. Mansoor,  
 S. F. Manzer,  Shan-Ping Mao,  A. V. Marenich,  T. Markovich,  S. Mason,  
 S. A. Maurer,  P. F. McLaughlin,  M. F. S. J. Menger,  J.-M. Mewes,  
 S. A. Mewes,  P. Morgante,  J. W. Mullinax,  T. S. Nguyen-Beck,  
 K. J. Oosterbaan,  G. Paran,  Alexander C. Paul,  Suranjan K. Paul,  
 F. Pavosevic,  Zheng Pei,  S. Prager,  E. I. Proynov,  E. Ramos,  B. Rana,  
 A. E. Rask,  A. Rettig,  R. M. Richard,  F. Rob,  E. Rossomme,  T. Scheele,  
 M. Scheurer,  M. Schneider,  N. Sergueev,  S. M. Sharada,  W. Skomorowski,  
 D. W. Small,  C. J. Stein,  Yu-Chuan Su,  E. J. Sundstrom,  Zhen Tao,  
 J. Thirman,  T. Tsuchimochi,  N. M. Tubman,  S. P. Veccham,  O. Vydrov,  
 J. Wenzel,  J. Witte,  A. Yamada,  Kun Yao,  S. Yeganeh,  S. R. Yost,  
 A. Zech,  Igor Ying Zhang,  Xing Zhang,  Yu Zhang,  D. Zuev,  
 A. Aspuru-Guzik,  A. T. Bell,  N. A. Besley,  K. B. Bravaya,  B. R. Brooks,  
 D. Casanova,  Jeng-Da Chai,  S. Coriani,  C. J. Cramer,  
 A. E. DePrince, III,  R. A. DiStasio Jr.,  A. Dreuw,  B. D. Dunietz,  
 T. R. Furlani,  W. A. Goddard III,  S. Grimme,  S. Hammes-Schiffer,  
 T. Head-Gordon,  W. J. Hehre,  Chao-Ping Hsu,  T.-C. Jagau,  Yousung Jung,  
 A. Klamt,  Jing Kong,  D. S. Lambrecht,  WanZhen Liang,  N. J. Mayhall,  
 C. W. McCurdy,  J. B. Neaton,  C. Ochsenfeld,  J. A. Parkhill,  R. Peverati,  
 V. A. Rassolov,  Yihan Shao,  L. V. Slipchenko,  T. Stauch,  R. P. Steele,  
 J. E. Subotnik,  A. J. W. Thom,  A. Tkatchenko,  D. G. Truhlar,  
 T. Van Voorhis,  T. A. Wesolowski,  K. B. Whaley,  H. L. Woodcock III,  
 P. M. Zimmerman,  S. Faraji,  P. M. W. Gill,  M. Head-Gordon,  
 J. M. Herbert,  A. I. Krylov

 Contributors to earlier versions of Q-Chem not listed above: 
 R. D. Adamson,  B. Austin,  R. Baer,  J. Baker,  G. J. O. Beran,  
 K. Brandhorst,  S. T. Brown,  E. F. C. Byrd,  A. K. Chakraborty,  
 G. K. L. Chan,  Chun-Min Chang,  Yunqing Chen,  C.-L. Cheng,  
 Siu Hung Chien,  D. M. Chipman,  D. L. Crittenden,  H. Dachsel,  
 R. J. Doerksen,  A. D. Dutoi,  R. G. Edgar,  J. Fosso-Tande,  
 L. Fusti-Molnar,  D. Ghosh,  A. Ghysels,  A. Golubeva-Zadorozhnaya,  
 J. Gonthier,  M. S. Gordon,  S. R. Gwaltney,  G. Hawkins,  J. E. Herr,  
 A. Heyden,  S. Hirata,  E. G. Hohenstein,  G. Kedziora,  F. J. Keil,  
 C. Kelley,  Jihan Kim,  R. A. King,  R. Z. Khaliullin,  P. P. Korambath,  
 W. Kurlancheek,  A. Laurent,  A. M. Lee,  M. S. Lee,  S. V. Levchenko,  
 Ching Yeh Lin,  D. Liotard,  E. Livshits,  R. C. Lochan,  I. Lotan,  
 L. A. Martinez-Martinez,  P. E. Maslen,  N. Nair,  D. P. O'Neill,  
 D. Neuhauser,  E. Neuscamman,  C. M. Oana,  R. Olivares-Amaya,  R. Olson,  
 T. M. Perrine,  B. Peters,  P. A. Pieniazek,  A. Prociuk,  Y. M. Rhee,  
 J. Ritchie,  M. A. Rohrdanz,  E. Rosta,  N. J. Russ,  H. F. Schaefer III,  
 M. W. Schmidt,  N. E. Schultz,  S. Sharma,  N. Shenvi,  C. D. Sherrill,  
 A. C. Simmonett,  A. Sodt,  T. Stein,  D. Stuck,  K. S. Thanthiriwatte,  
 V. Vanovschi,  L. Vogt,  Tao Wang,  A. Warshel,  M. A. Watson,  
 C. F. Williams,  Q. Wu,  X. Xu,  Jun Yang,  W. Zhang,  Yan Zhao

 Please cite Q-Chem as follows:
 Y. Shao et al., Mol. Phys. 113, 184-215 (2015)
 DOI: 10.1080/00268976.2014.952696

 Q-Chem 5.4.0 for Intel X86 EM64T Linux

 Parts of Q-Chem use Armadillo 9.800.1 (Horizon Scraper).
 http://arma.sourceforge.net/

 Q-Chem begins on Wed Dec 27 10:07:11 2023  

 Host: 
0

     Scratch files written to ./qchem657365//
 May1621 |scratch|qcdevops|jenkins|workspace|build_RNUM    
 Parallel job on  1  processors
 Processing $rem in /cm/shared/apps/spack/cpu/opt/spack/linux-centos8-zen2/gcc-10.2.0/qchem-5.4-akfmr7b3t57bfs6qan3padb2wnb2i7cl/config/preferences:
 Processing $rem in /home/rramji/.qchemrc:
 Symmetry turned off for PCM/SM12/SMD calculation
 Core orbitals will be frozen

 Checking the input file for inconsistencies... 	...done.

 Q-Chem warning in module forms1/BasisType.C, line 2236:

 You are not using the predefined 5D/6D in this basis set.


--------------------------------------------------------------
User input:
--------------------------------------------------------------
$molecule
0 1
C	-0.453215	-0.140188	-0.210801
S	0.233585	0.256612	1.369699
C	1.651885	1.075412	0.694099
C	0.410985	0.358912	-1.196201
C	1.554285	1.019112	-0.704301
H	0.206885	0.241112	-2.270701
H	2.317185	1.459712	-1.363401
C	-0.453215	-1.618388	-0.210801
H	0.241385	-1.618988	-1.037801
H	0.302585	-2.057688	0.423399
H	-1.076115	-2.329388	-0.733301
H	2.414485	1.515912	1.345199
$end

$rem
JOBTYPE		SP
EXCHANGE	HF
CORRELATION	pRIMP2
BASIS		cc-pvtz
METHOD		rimp2
AUX_BASIS	rimp2-cc-pvtz
SOLVENT_METHOD	PCM
PURECART	11111
SYMMETRY	false
MEM_TOTAL	110000
SCF_CONVERGENCE = 6
THRESH=10
GUI = 2
$end



$solvent
dielectric 4.90
$end
--------------------------------------------------------------
 ----------------------------------------------------------------
             Standard Nuclear Orientation (Angstroms)
    I     Atom           X                Y                Z
 ----------------------------------------------------------------
    1      C      -0.4532150000    -0.1401880000    -0.2108010000
    2      S       0.2335850000     0.2566120000     1.3696990000
    3      C       1.6518850000     1.0754120000     0.6940990000
    4      C       0.4109850000     0.3589120000    -1.1962010000
    5      C       1.5542850000     1.0191120000    -0.7043010000
    6      H       0.2068850000     0.2411120000    -2.2707010000
    7      H       2.3171850000     1.4597120000    -1.3634010000
    8      C      -0.4532150000    -1.6183880000    -0.2108010000
    9      H       0.2413850000    -1.6189880000    -1.0378010000
   10      H       0.3025850000    -2.0576880000     0.4233990000
   11      H      -1.0761150000    -2.3293880000    -0.7333010000
   12      H       2.4144850000     1.5159120000     1.3451990000
 ----------------------------------------------------------------
 Nuclear Repulsion Energy =         276.58214877 hartrees
 There are       26 alpha and       26 beta electrons
 Requested basis set is cc-pVTZ
 There are 98 shells and 268 basis functions

 Total QAlloc Memory Limit 110000 MB
 Mega-Array Size       188 MB
 MEM_STATIC part       192 MB
 Discretize the solute cavity surface with Lebedev spheres
	Using 110 Lebedev grid points for each H atom
	Using 194 Lebedev grid points for other atoms
	Atomic van der Waals radii will be scaled by 1.20
 Remove points where switching function is < 1.0e-08
 Keep 856 surface tesserae and discard 968 interior tesserae
 Molecular Surface Area = 134.539 Angst**2

                       Distance Matrix (Angstroms)
             C (  1)   S (  2)   C (  3)   C (  4)   C (  5)   H (  6)
   S (  2)  1.768368
   C (  3)  2.593834  1.771565
   C (  4)  1.402482  2.574059  2.372012
   C (  5)  2.370142  2.574321  1.402932  1.408888
   H (  6)  2.196431  3.640531  3.402076  1.100038  2.207800
   H (  7)  3.400483  3.641246  2.196273  2.207559  1.100253  2.600297
   C (  8)  1.478200  2.546625  3.536502  2.372250  3.351120  2.852483
   H (  9)  1.831187  3.051883  3.499826  1.991468  2.965552  2.231861
   H ( 10)  2.156444  2.501246  3.422018  2.911153  3.507871  3.542854
   H ( 11)  2.335296  3.581245  4.590438  3.106879  4.258204  3.258398
   H ( 12)  3.658894  2.518484  1.095231  3.436768  2.277544  4.424177
             H (  7)   C (  8)   H (  9)   H ( 10)   H ( 11)
   C (  8)  4.298640
   H (  9)  3.727379  1.079999
   H ( 10)  4.429827  1.080013  1.526862
   H ( 11)  5.125309  1.080061  1.527480  1.820052
   H ( 12)  2.710930  4.524232  4.497627  4.252112  5.593816
 
 Requested basis set is rimp2-cc-pVTZ
 There are 207 shells and 707 basis functions
 A cutoff of  1.0D-10 yielded   4521 shell pairs
 There are     34165 function pairs (     44200 Cartesian)
 Smallest overlap matrix eigenvalue = 1.79E-04

 Scale SEOQF with 1.000000e-01/1.000000e-01/1.000000e-01

 Standard Electronic Orientation quadrupole field applied
 Nucleus-field energy     =    -0.0000000009 hartrees
 Guess from superposition of atomic densities
 Warning:  Energy on first SCF cycle will be non-variational
 SAD guess density has 52.000000 electrons

 -----------------------------------------------------------------------
  General SCF calculation program by
  Eric Jon Sundstrom, Paul Horn, Yuezhi Mao, Dmitri Zuev, Alec White,
  David Stuck, Shaama M.S., Shane Yost, Joonho Lee, David Small,
  Daniel Levine, Susi Lehtola, Hugh Burton, Evgeny Epifanovsky,
  Bang C. Huynh
 -----------------------------------------------------------------------
 Hartree-Fock
 using 64 threads for integral computing
 -------------------------------------------------------
 OpenMP Integral computing Module                
 Release: version 1.0, May 2013, Q-Chem Inc. Pittsburgh 
 -------------------------------------------------------
 A restricted SCF calculation will be
 performed using DIIS
 SCF converges when DIIS error is below 1.0e-06
 ---------------------------------------
  Cycle       Energy         DIIS error
 ---------------------------------------
    1    -592.7173790261      3.28e-02  
    2    -590.2214395257      2.17e-03  
    3    -590.2832329712      7.68e-04  
    4    -590.2902116624      3.77e-04  
    5    -590.2920726990      8.00e-05  
    6    -590.2922489730      4.38e-05  
    7    -590.2923138111      1.97e-05  
    8    -590.2923416537      1.14e-05  
    9    -590.2923482948      4.13e-06  
   10    -590.2923492813      1.90e-06  
   11    -590.2923494563      7.80e-07  Convergence criterion met
 ---------------------------------------
 SCF time:   CPU 538.20s  wall 10.00s 

************** Final PCM Free Energy Summary **************
 G_electrostatic  =      -0.00642172 hartree =      -4.02968963 kcal/mol
 G_cavitation     =       0.00000000 hartree =       0.00000000 kcal/mol
 G_dispersion     =       0.00000000 hartree =       0.00000000 kcal/mol
 G_repulsion      =       0.00000000 hartree =       0.00000000 kcal/mol
 --------------------------------------------------
 Non-electrostatic Free Energy =       0.00000000 hartree =       0.00000000 kcal/mol
 Total                         =      -0.00642172 hartree =      -4.02968963 kcal/mol
 --------------------------------------------------
 SCF Energy (H0 + V/2)                       =    -590.29234946 
 Solute Internal Energy (H0)                 =    -590.28592774 
 Total Free Energy (H0 + V/2 + non-elec)     =    -590.29234946 hartree
                                             = -370414.03994268 kcal/mol
***********************************************************

 SCF   energy in the final basis set =     -590.2923494563
 Total energy in the final basis set =     -590.2923494563


 --------------------------------------------------------------
  Generalized many-body perturbation theory program
  by Joonho Lee, Fazle Rob, Xintian Feng, Evgeny Epifanovsky

 No regularization used 
 (reg. param. = 0.0000e+00)
  (P|Q)^-1/2 Time:  CPU 5.26 s  wall 0.09 s

 In RI-MP2 calculation: 
 # of frozen core orbitals: 10

 Components of the RIMP2 correlation energy:
        aaaa    correlation energy =        -0.1280764975 a.u.
        abab    correlation energy =        -0.7606547416 a.u.
        bbbb    correlation energy =        -0.1280764975 a.u.
        non-Brillouin singles      =        -0.0000000000 a.u.
        total same-spin energy     =        -0.2561529950 a.u.
        total opposite-spin energy =        -0.7606547416 a.u.

 Total  RIMP2   correlation energy =        -1.0168077365 a.u.
        RIMP2         total energy =      -591.3091571928 a.u.

 RI-MP2 Energy Time:  CPU 25.13 s  wall 0.45 s
 
 --------------------------------------------------------------
 
                    Orbital Energies (a.u.)
 --------------------------------------------------------------
 
 Alpha MOs
 -- Occupied --
-91.9778 -11.2908 -11.2557 -11.2545 -11.2446 -11.2116  -8.9782  -6.6589
 -6.6581  -6.6579  -1.1726  -1.0387  -0.9809  -0.9031  -0.7641  -0.7312
 -0.6726  -0.5974  -0.5741  -0.5551  -0.5438  -0.4757  -0.4642  -0.4464
 -0.3377  -0.3022
 -- Virtual --
  0.0594   0.1546   0.1631   0.1795   0.1831   0.1983   0.2141   0.2250
  0.2263   0.2471   0.2888   0.3327   0.3350   0.3598   0.3812   0.3992
  0.4236   0.4393   0.4503   0.4576   0.4895   0.5093   0.5132   0.5339
  0.5389   0.5485   0.5523   0.5804   0.5910   0.6033   0.6101   0.6139
  0.6216   0.6417   0.6579   0.6873   0.7046   0.7196   0.7336   0.7551
  0.7784   0.8025   0.8256   0.8373   0.8466   0.8664   0.9086   0.9121
  0.9370   1.0031   1.0443   1.0659   1.0760   1.1080   1.1262   1.1402
  1.1691   1.1752   1.1911   1.2055   1.2244   1.2323   1.2682   1.2779
  1.3020   1.3114   1.3357   1.3401   1.3673   1.4051   1.4295   1.4490
  1.4587   1.4915   1.4974   1.5088   1.5274   1.5341   1.5775   1.5983
  1.6107   1.6178   1.6346   1.6643   1.6808   1.7071   1.7771   1.7859
  1.8332   1.8660   1.9028   1.9151   1.9608   1.9772   2.0289   2.1052
  2.1092   2.1675   2.2024   2.2046   2.2316   2.2698   2.3426   2.3858
  2.4136   2.4427   2.4671   2.5129   2.5651   2.6056   2.6221   2.6687
  2.6815   2.7025   2.7342   2.7509   2.7545   2.8235   2.8639   2.8804
  2.9006   2.9013   2.9529   2.9745   2.9813   3.0180   3.0207   3.0688
  3.0808   3.0928   3.1335   3.1441   3.1753   3.1831   3.2154   3.2370
  3.2443   3.2589   3.2963   3.3148   3.3227   3.3377   3.3515   3.3821
  3.4057   3.4147   3.4224   3.4398   3.4656   3.4847   3.4869   3.5077
  3.5224   3.5440   3.5619   3.5830   3.6345   3.6417   3.6610   3.6639
  3.6846   3.7162   3.7362   3.7734   3.7931   3.8197   3.8317   3.8551
  3.8804   3.9188   3.9482   3.9530   3.9638   3.9833   3.9930   4.0207
  4.0277   4.0850   4.1084   4.1190   4.1491   4.1710   4.1819   4.2071
  4.2502   4.2672   4.2898   4.3015   4.3157   4.3861   4.4140   4.4359
  4.4512   4.4793   4.5096   4.5417   4.5726   4.6114   4.6352   4.6569
  4.6788   4.7127   4.7438   4.7766   4.8072   4.8365   4.8552   4.9152
  4.9550   4.9870   5.0190   5.0686   5.1117   5.1231   5.1668   5.1801
  5.2219   5.2841   5.3638   5.4177   5.4490   5.4870   5.5188   5.6095
  5.6125   5.6892   5.8030   5.8281   5.8538   5.9215   5.9509   6.0333
  6.0664   6.3316   6.3781   6.4789   6.5473   9.6729  11.7120  12.6887
 13.9322  13.9804
 --------------------------------------------------------------
 
          Ground-State Mulliken Net Atomic Charges

     Atom                 Charge (a.u.)
  ----------------------------------------
      1 C                    -0.118618
      2 S                     0.018934
      3 C                    -0.162736
      4 C                    -0.079853
      5 C                    -0.252739
      6 H                     0.186752
      7 H                     0.187005
      8 C                    -0.358771
      9 H                     0.120010
     10 H                     0.124954
     11 H                     0.126462
     12 H                     0.208601
  ----------------------------------------
  Sum of atomic charges =     0.000000

 -----------------------------------------------------------------
                    Cartesian Multipole Moments
 -----------------------------------------------------------------
    Charge (ESU x 10^10)
                 0.0000
    Dipole Moment (Debye)
         X       2.6711      Y      -0.1244      Z      -1.5320
       Tot       3.0817
    Quadrupole Moments (Debye-Ang)
        XX     -41.7916     XY       3.7563     YY     -44.1644
        XZ       1.2022     YZ       1.3606     ZZ     -40.6839
    Octopole Moments (Debye-Ang^2)
       XXX     -47.8963    XXY       4.5462    XYY     -14.4686
       YYY     -18.7193    XXZ      -2.5209    XYZ       1.3800
       YYZ      -7.3352    XZZ     -13.9050    YZZ      -2.2231
       ZZZ     -29.4104
    Hexadecapole Moments (Debye-Ang^3)
      XXXX    -271.0086   XXXY     -63.4752   XXYY     -85.1984
      XYYY     -86.9259   YYYY    -298.2185   XXXZ      -0.9447
      XXYZ       0.2985   XYYZ       3.7803   YYYZ     -10.7173
      XXZZ     -87.4380   XYZZ     -17.0780   YYZZ     -98.4739
      XZZZ      -5.1681   YZZZ     -16.4264   ZZZZ    -302.8273
 -----------------------------------------------------------------
 Total job time:  11.09s(wall), 610.96s(cpu) 
 Wed Dec 27 10:07:22 2023

        *************************************************************
        *                                                           *
        *  Thank you very much for using Q-Chem.  Have a nice day.  *
        *                                                           *
        *************************************************************


0 sent ACK to 0 
now end server 0 ... 
cleanup process ... done
remove work dirs ./qchem657365.0 -- ./qchem657365.0
rm -rf ./qchem657365.0
rm -rf ./qchem657365
