You are running Q-Chem version: 5.4.0

#
# job setting
#
local host:  exp-9-52
current dir: /home/rramji/project-csd799/aromodel/pndit-qchem/methylated-rotation-run
input file:  Dimethyl_Naphthalene_Dicarboximide_Phi_40_Theta_160_Thiophene_Hydrogenated_Improper.qcin
output file: 
nprocs     : 1
nthreads   : 64
#
# qchem installation setting
#
QC:          /cm/shared/apps/spack/cpu/opt/spack/linux-centos8-zen2/gcc-10.2.0/qchem-5.4-akfmr7b3t57bfs6qan3padb2wnb2i7cl
QCAUX:       /cm/shared/apps/spack/cpu/opt/spack/linux-centos8-zen2/gcc-10.2.0/qchem-5.4-akfmr7b3t57bfs6qan3padb2wnb2i7cl/qcaux
QCPROG:      /cm/shared/apps/spack/cpu/opt/spack/linux-centos8-zen2/gcc-10.2.0/qchem-5.4-akfmr7b3t57bfs6qan3padb2wnb2i7cl/exe/qcprog.exe
QCPROG_S:    /cm/shared/apps/spack/cpu/opt/spack/linux-centos8-zen2/gcc-10.2.0/qchem-5.4-akfmr7b3t57bfs6qan3padb2wnb2i7cl/exe/qcprog.exe_s
PARALLEL:    -DPARALLEL
QCMPI:       mpich
#
# qchem directory setting
#
qcrun:       qchem3737801
QCSCRATCH:   .
QCLOCALSCR:  
QCTMPDIR:    .
QCFILEPREF:  ./qchem3737801
QCSAVEDIR:   
workdirs:    ./qchem3737801
workdir0:    ./qchem3737801
partmpdirs =  
#
# parallel setting
#
QCRSH:           ssh
QCMPI:           mpich
QCMPIRUN:        /cm/shared/apps/spack/cpu/opt/spack/linux-centos8-zen2/gcc-10.2.0/qchem-5.4-akfmr7b3t57bfs6qan3padb2wnb2i7cl/bin/mpi/mpirun_qchem
QCMACHINEFILE:   ./qchem3737801/hostfile
exp-9-52

#
# env setting
#
exported envs:   QC QCAUX QCSCRATCH QCRUNNAME QCFILEPREF QCPROG QCPROG_S GUIFILE

Running Job 1 of 1 Dimethyl_Naphthalene_Dicarboximide_Phi_40_Theta_160_Thiophene_Hydrogenated_Improper.qcin
qchem Dimethyl_Naphthalene_Dicarboximide_Phi_40_Theta_160_Thiophene_Hydrogenated_Improper.qcin_3737801.0 ./qchem3737801/ 1
/cm/shared/apps/spack/cpu/opt/spack/linux-centos8-zen2/gcc-10.2.0/qchem-5.4-akfmr7b3t57bfs6qan3padb2wnb2i7cl/bin/mpi/mpirun_qchem -machinefile ./qchem3737801/hostfile -np 1 /cm/shared/apps/spack/cpu/opt/spack/linux-centos8-zen2/gcc-10.2.0/qchem-5.4-akfmr7b3t57bfs6qan3padb2wnb2i7cl/exe/qcprog.exe Dimethyl_Naphthalene_Dicarboximide_Phi_40_Theta_160_Thiophene_Hydrogenated_Improper.qcin_3737801.0 ./qchem3737801/

Process 0 of 1 is on exp-9-52 - thread support 0
initial socket setup ...start
initial socket setup ...done 
now start server 0 ... 
                  Welcome to Q-Chem
     A Quantum Leap Into The Future Of Chemistry


 Q-Chem 5.4, Q-Chem, Inc., Pleasanton, CA (2021)

 License issued to: University of California, San Diego (site)

 E. Epifanovsky,  A. T. B. Gilbert,  Xintian Feng,  Joonho Lee,  Yuezhi Mao,  
 N. Mardirossian,  P. Pokhilko,  A. White,  M. Wormit,  M. P. Coons,  
 A. L. Dempwolff,  Zhengting Gan,  D. Hait,  P. R. Horn,  L. D. Jacobson,  
 I. Kaliman,  J. Kussmann,  A. W. Lange,  Ka Un Lao,  D. S. Levine,  Jie Liu,  
 S. C. McKenzie,  A. F. Morrison,  K. Nanda,  F. Plasser,  D. R. Rehn,  
 M. L. Vidal,  Zhi-Qiang You,  Ying Zhu,  B. Alam,  B. Albrecht,  
 A. Aldossary,  E. Alguire,  J. H. Andersen,  D. Barton,  K. Begam,  A. Behn,  
 Y. A. Bernard,  E. J. Berquist,  H. Burton,  A. Carreras,  K. Carter-Fenk,  
 R. Chakraborty,  A. D. Chien,  K. D. Closser,  V. Cofer-Shabica,  
 S. Dasgupta,  Jia Deng,  M. de Wergifosse,  M. Diedenhofen,  Hainam Do,  
 S. Ehlert,  Po-Tung Fang,  S. Fatehi,  Qingguo Feng,  J. Gayvert,  
 Qinghui Ge,  G. Gidofalvi,  M. Goldey,  J. Gomes,  C. Gonzalez-Espinoza,  
 S. Gulania,  A. Gunina,  M. W. D. Hanson-Heine,  P. H. P. Harbach,  
 A. W. Hauser,  M. F. Herbst,  M. Hernandez Vera,  M. Hodecker,  
 Z. C. Holden,  S. Houck,  Xunkun Huang,  Kerwin Hui,  B. C. Huynh,  
 M. Ivanov,  Hyunjun Ji,  Hanjie Jiang,  B. Kaduk,  S. Kaehler,  
 K. Khistyaev,  Jaehoon Kim,  P. Klunzinger,  Z. Koczor-Benda,  
 Joong Hoon Koh,  D. Kosenkov,  L. Koulias,  T. Kowalczyk,  C. M. Krauter,  
 K. Kue,  A. Kunitsa,  T. Kus,  A. Landau,  K. V. Lawler,  D. Lefrancois,  
 S. Lehtola,  Rain Li,  Yi-Pei Li,  Jiashu Liang,  M. Liebenthal,  
 Hung-Hsuan Lin,  You-Sheng Lin,  Fenglai Liu,  Kuan-Yu Liu,  
 M. Loipersberger,  A. Luenser,  A. Manjanath,  P. Manohar,  E. Mansoor,  
 S. F. Manzer,  Shan-Ping Mao,  A. V. Marenich,  T. Markovich,  S. Mason,  
 S. A. Maurer,  P. F. McLaughlin,  M. F. S. J. Menger,  J.-M. Mewes,  
 S. A. Mewes,  P. Morgante,  J. W. Mullinax,  T. S. Nguyen-Beck,  
 K. J. Oosterbaan,  G. Paran,  Alexander C. Paul,  Suranjan K. Paul,  
 F. Pavosevic,  Zheng Pei,  S. Prager,  E. I. Proynov,  E. Ramos,  B. Rana,  
 A. E. Rask,  A. Rettig,  R. M. Richard,  F. Rob,  E. Rossomme,  T. Scheele,  
 M. Scheurer,  M. Schneider,  N. Sergueev,  S. M. Sharada,  W. Skomorowski,  
 D. W. Small,  C. J. Stein,  Yu-Chuan Su,  E. J. Sundstrom,  Zhen Tao,  
 J. Thirman,  T. Tsuchimochi,  N. M. Tubman,  S. P. Veccham,  O. Vydrov,  
 J. Wenzel,  J. Witte,  A. Yamada,  Kun Yao,  S. Yeganeh,  S. R. Yost,  
 A. Zech,  Igor Ying Zhang,  Xing Zhang,  Yu Zhang,  D. Zuev,  
 A. Aspuru-Guzik,  A. T. Bell,  N. A. Besley,  K. B. Bravaya,  B. R. Brooks,  
 D. Casanova,  Jeng-Da Chai,  S. Coriani,  C. J. Cramer,  
 A. E. DePrince, III,  R. A. DiStasio Jr.,  A. Dreuw,  B. D. Dunietz,  
 T. R. Furlani,  W. A. Goddard III,  S. Grimme,  S. Hammes-Schiffer,  
 T. Head-Gordon,  W. J. Hehre,  Chao-Ping Hsu,  T.-C. Jagau,  Yousung Jung,  
 A. Klamt,  Jing Kong,  D. S. Lambrecht,  WanZhen Liang,  N. J. Mayhall,  
 C. W. McCurdy,  J. B. Neaton,  C. Ochsenfeld,  J. A. Parkhill,  R. Peverati,  
 V. A. Rassolov,  Yihan Shao,  L. V. Slipchenko,  T. Stauch,  R. P. Steele,  
 J. E. Subotnik,  A. J. W. Thom,  A. Tkatchenko,  D. G. Truhlar,  
 T. Van Voorhis,  T. A. Wesolowski,  K. B. Whaley,  H. L. Woodcock III,  
 P. M. Zimmerman,  S. Faraji,  P. M. W. Gill,  M. Head-Gordon,  
 J. M. Herbert,  A. I. Krylov

 Contributors to earlier versions of Q-Chem not listed above: 
 R. D. Adamson,  B. Austin,  R. Baer,  J. Baker,  G. J. O. Beran,  
 K. Brandhorst,  S. T. Brown,  E. F. C. Byrd,  A. K. Chakraborty,  
 G. K. L. Chan,  Chun-Min Chang,  Yunqing Chen,  C.-L. Cheng,  
 Siu Hung Chien,  D. M. Chipman,  D. L. Crittenden,  H. Dachsel,  
 R. J. Doerksen,  A. D. Dutoi,  R. G. Edgar,  J. Fosso-Tande,  
 L. Fusti-Molnar,  D. Ghosh,  A. Ghysels,  A. Golubeva-Zadorozhnaya,  
 J. Gonthier,  M. S. Gordon,  S. R. Gwaltney,  G. Hawkins,  J. E. Herr,  
 A. Heyden,  S. Hirata,  E. G. Hohenstein,  G. Kedziora,  F. J. Keil,  
 C. Kelley,  Jihan Kim,  R. A. King,  R. Z. Khaliullin,  P. P. Korambath,  
 W. Kurlancheek,  A. Laurent,  A. M. Lee,  M. S. Lee,  S. V. Levchenko,  
 Ching Yeh Lin,  D. Liotard,  E. Livshits,  R. C. Lochan,  I. Lotan,  
 L. A. Martinez-Martinez,  P. E. Maslen,  N. Nair,  D. P. O'Neill,  
 D. Neuhauser,  E. Neuscamman,  C. M. Oana,  R. Olivares-Amaya,  R. Olson,  
 T. M. Perrine,  B. Peters,  P. A. Pieniazek,  A. Prociuk,  Y. M. Rhee,  
 J. Ritchie,  M. A. Rohrdanz,  E. Rosta,  N. J. Russ,  H. F. Schaefer III,  
 M. W. Schmidt,  N. E. Schultz,  S. Sharma,  N. Shenvi,  C. D. Sherrill,  
 A. C. Simmonett,  A. Sodt,  T. Stein,  D. Stuck,  K. S. Thanthiriwatte,  
 V. Vanovschi,  L. Vogt,  Tao Wang,  A. Warshel,  M. A. Watson,  
 C. F. Williams,  Q. Wu,  X. Xu,  Jun Yang,  W. Zhang,  Yan Zhao

 Please cite Q-Chem as follows:
 Y. Shao et al., Mol. Phys. 113, 184-215 (2015)
 DOI: 10.1080/00268976.2014.952696

 Q-Chem 5.4.0 for Intel X86 EM64T Linux

 Parts of Q-Chem use Armadillo 9.800.1 (Horizon Scraper).
 http://arma.sourceforge.net/

 Q-Chem begins on Wed Dec 27 10:03:43 2023  

 Host: 
0

     Scratch files written to ./qchem3737801//
 May1621 |scratch|qcdevops|jenkins|workspace|build_RNUM    
 Parallel job on  1  processors
 Processing $rem in /cm/shared/apps/spack/cpu/opt/spack/linux-centos8-zen2/gcc-10.2.0/qchem-5.4-akfmr7b3t57bfs6qan3padb2wnb2i7cl/config/preferences:
 Processing $rem in /home/rramji/.qchemrc:
 Symmetry turned off for PCM/SM12/SMD calculation
 Core orbitals will be frozen

 Checking the input file for inconsistencies... 	...done.

 Q-Chem warning in module forms1/BasisType.C, line 2236:

 You are not using the predefined 5D/6D in this basis set.


--------------------------------------------------------------
User input:
--------------------------------------------------------------
$molecule
0 1
C	-0.327695	-0.278098	-0.215530
S	0.182005	0.329602	1.364970
C	1.234705	1.584202	0.689370
C	0.313705	0.486502	-1.200930
C	1.162205	1.497902	-0.709030
H	0.162205	0.306002	-2.275430
H	1.728405	2.172802	-1.368130
C	-0.327695	-1.756298	-0.215530
H	-1.342695	-1.756898	0.153370
H	-0.665095	-2.195598	-1.142630
H	-0.049495	-2.467298	0.548370
H	1.800705	2.258902	1.340470
$end

$rem
JOBTYPE		SP
EXCHANGE	HF
CORRELATION	pRIMP2
BASIS		cc-pvtz
METHOD		rimp2
AUX_BASIS	rimp2-cc-pvtz
SOLVENT_METHOD	PCM
PURECART	11111
SYMMETRY	false
MEM_TOTAL	110000
SCF_CONVERGENCE = 6
THRESH=10
GUI = 2
$end



$solvent
dielectric 4.90
$end
--------------------------------------------------------------
 ----------------------------------------------------------------
             Standard Nuclear Orientation (Angstroms)
    I     Atom           X                Y                Z
 ----------------------------------------------------------------
    1      C      -0.3276950000    -0.2780980000    -0.2155300000
    2      S       0.1820050000     0.3296020000     1.3649700000
    3      C       1.2347050000     1.5842020000     0.6893700000
    4      C       0.3137050000     0.4865020000    -1.2009300000
    5      C       1.1622050000     1.4979020000    -0.7090300000
    6      H       0.1622050000     0.3060020000    -2.2754300000
    7      H       1.7284050000     2.1728020000    -1.3681300000
    8      C      -0.3276950000    -1.7562980000    -0.2155300000
    9      H      -1.3426950000    -1.7568980000     0.1533700000
   10      H      -0.6650950000    -2.1955980000    -1.1426300000
   11      H      -0.0494950000    -2.4672980000     0.5483700000
   12      H       1.8007050000     2.2589020000     1.3404700000
 ----------------------------------------------------------------
 Nuclear Repulsion Energy =         272.28732144 hartrees
 There are       26 alpha and       26 beta electrons
 Requested basis set is cc-pVTZ
 There are 98 shells and 268 basis functions

 Total QAlloc Memory Limit 110000 MB
 Mega-Array Size       188 MB
 MEM_STATIC part       192 MB
 Discretize the solute cavity surface with Lebedev spheres
	Using 110 Lebedev grid points for each H atom
	Using 194 Lebedev grid points for other atoms
	Atomic van der Waals radii will be scaled by 1.20
 Remove points where switching function is < 1.0e-08
 Keep 875 surface tesserae and discard 949 interior tesserae
 Molecular Surface Area = 137.257 Angst**2

                       Distance Matrix (Angstroms)
             C (  1)   S (  2)   C (  3)   C (  4)   C (  5)   H (  6)
   S (  2)  1.768353
   C (  3)  2.593858  1.771619
   C (  4)  1.402505  2.574064  2.372008
   C (  5)  2.370131  2.574333  1.402935  1.408846
   H (  6)  2.196443  3.640530  3.402072  1.100038  2.207767
   H (  7)  3.400433  3.641233  2.196246  2.207474  1.100221  2.600215
   C (  8)  1.478200  2.666225  3.797220  2.532303  3.612916  2.955718
   H (  9)  1.831164  2.854149  4.253614  3.100102  4.196663  3.524110
   H ( 10)  2.156423  3.658179  4.610027  2.855715  4.143546  2.868042
   H ( 11)  2.335281  2.922854  4.252494  3.452086  4.332676  3.963566
   H ( 12)  3.658906  2.518529  1.095220  3.436755  2.277554  4.424165
             H (  7)   C (  8)   H (  9)   H ( 10)   H ( 11)
   C (  8)  4.581906
   H (  9)  5.214323  1.079960
   H ( 10)  4.986242  1.079971  1.526832
   H ( 11)  5.325827  1.080028  1.527436  1.819963
   H ( 12)  2.710932  4.803442  5.236107  5.664673  5.136889
 
 Requested basis set is rimp2-cc-pVTZ
 There are 207 shells and 707 basis functions
 A cutoff of  1.0D-10 yielded   4401 shell pairs
 There are     33121 function pairs (     42851 Cartesian)
 Smallest overlap matrix eigenvalue = 1.56E-04

 Scale SEOQF with 1.000000e-01/1.000000e-01/1.000000e-01

 Standard Electronic Orientation quadrupole field applied
 Nucleus-field energy     =     0.0000000004 hartrees
 Guess from superposition of atomic densities
 Warning:  Energy on first SCF cycle will be non-variational
 SAD guess density has 52.000000 electrons

 -----------------------------------------------------------------------
  General SCF calculation program by
  Eric Jon Sundstrom, Paul Horn, Yuezhi Mao, Dmitri Zuev, Alec White,
  David Stuck, Shaama M.S., Shane Yost, Joonho Lee, David Small,
  Daniel Levine, Susi Lehtola, Hugh Burton, Evgeny Epifanovsky,
  Bang C. Huynh
 -----------------------------------------------------------------------
 Hartree-Fock
 using 64 threads for integral computing
 -------------------------------------------------------
 OpenMP Integral computing Module                
 Release: version 1.0, May 2013, Q-Chem Inc. Pittsburgh 
 -------------------------------------------------------
 A restricted SCF calculation will be
 performed using DIIS
 SCF converges when DIIS error is below 1.0e-06
 ---------------------------------------
  Cycle       Energy         DIIS error
 ---------------------------------------
    1    -592.6007862115      3.23e-02  
    2    -590.2659654878      2.16e-03  
    3    -590.3264501607      7.83e-04  
    4    -590.3333274482      3.67e-04  
    5    -590.3351274400      7.33e-05  
    6    -590.3352687908      3.02e-05  
    7    -590.3353076249      1.60e-05  
    8    -590.3353193661      6.00e-06  
    9    -590.3353214300      3.04e-06  
   10    -590.3353216978      9.62e-07  Convergence criterion met
 ---------------------------------------
 SCF time:   CPU 478.59s  wall 8.00s 

************** Final PCM Free Energy Summary **************
 G_electrostatic  =      -0.00540359 hartree =      -3.39080217 kcal/mol
 G_cavitation     =       0.00000000 hartree =       0.00000000 kcal/mol
 G_dispersion     =       0.00000000 hartree =       0.00000000 kcal/mol
 G_repulsion      =       0.00000000 hartree =       0.00000000 kcal/mol
 --------------------------------------------------
 Non-electrostatic Free Energy =       0.00000000 hartree =       0.00000000 kcal/mol
 Total                         =      -0.00540359 hartree =      -3.39080217 kcal/mol
 --------------------------------------------------
 SCF Energy (H0 + V/2)                       =    -590.33532170 
 Solute Internal Energy (H0)                 =    -590.32991811 
 Total Free Energy (H0 + V/2 + non-elec)     =    -590.33532170 hartree
                                             = -370441.00543121 kcal/mol
***********************************************************

 SCF   energy in the final basis set =     -590.3353216978
 Total energy in the final basis set =     -590.3353216978


 --------------------------------------------------------------
  Generalized many-body perturbation theory program
  by Joonho Lee, Fazle Rob, Xintian Feng, Evgeny Epifanovsky

 No regularization used 
 (reg. param. = 0.0000e+00)
  (P|Q)^-1/2 Time:  CPU 5.24 s  wall 0.09 s

 In RI-MP2 calculation: 
 # of frozen core orbitals: 10

 Components of the RIMP2 correlation energy:
        aaaa    correlation energy =        -0.1264683208 a.u.
        abab    correlation energy =        -0.7560622714 a.u.
        bbbb    correlation energy =        -0.1264683208 a.u.
        non-Brillouin singles      =        -0.0000000000 a.u.
        total same-spin energy     =        -0.2529366416 a.u.
        total opposite-spin energy =        -0.7560622714 a.u.

 Total  RIMP2   correlation energy =        -1.0089989130 a.u.
        RIMP2         total energy =      -591.3443206108 a.u.

 RI-MP2 Energy Time:  CPU 24.21 s  wall 0.41 s
 
 --------------------------------------------------------------
 
                    Orbital Energies (a.u.)
 --------------------------------------------------------------
 
 Alpha MOs
 -- Occupied --
-91.9767 -11.2766 -11.2711 -11.2439 -11.2425 -11.2175  -8.9770  -6.6579
 -6.6573  -6.6568  -1.1604  -1.0363  -0.9743  -0.9155  -0.7591  -0.7229
 -0.6696  -0.5941  -0.5610  -0.5588  -0.5509  -0.4880  -0.4584  -0.4519
 -0.3455  -0.2984
 -- Virtual --
  0.0812   0.1505   0.1593   0.1828   0.1871   0.1970   0.2148   0.2214
  0.2311   0.2339   0.2981   0.3417   0.3436   0.3678   0.3918   0.4050
  0.4405   0.4479   0.4607   0.4737   0.4790   0.5001   0.5229   0.5304
  0.5476   0.5585   0.5712   0.5882   0.5899   0.6141   0.6150   0.6198
  0.6242   0.6279   0.6502   0.6670   0.6832   0.6870   0.7585   0.7627
  0.7802   0.8006   0.8186   0.8403   0.8689   0.8843   0.9049   0.9123
  0.9472   0.9705   1.0234   1.0622   1.0795   1.0870   1.1021   1.1234
  1.1330   1.1563   1.1764   1.1882   1.2138   1.2208   1.2480   1.2641
  1.3079   1.3226   1.3395   1.3487   1.3655   1.4136   1.4249   1.4457
  1.4654   1.4867   1.5010   1.5214   1.5339   1.5397   1.5572   1.5943
  1.6062   1.6132   1.6400   1.6791   1.6991   1.7547   1.7781   1.7955
  1.8606   1.8811   1.8956   1.9063   1.9552   1.9878   2.0234   2.1179
  2.1485   2.1548   2.1728   2.2092   2.2405   2.2638   2.3075   2.3915
  2.4259   2.4632   2.4891   2.5285   2.5701   2.5952   2.6539   2.6703
  2.7013   2.7076   2.7303   2.7410   2.7627   2.7834   2.7910   2.8430
  2.8538   2.8870   2.9127   2.9894   3.0064   3.0108   3.0333   3.0709
  3.0840   3.0878   3.1275   3.1363   3.1940   3.1950   3.2134   3.2414
  3.2496   3.2566   3.2842   3.3041   3.3155   3.3251   3.3561   3.3766
  3.4141   3.4206   3.4378   3.4513   3.4642   3.4697   3.4866   3.4993
  3.5124   3.5399   3.5707   3.5885   3.5917   3.6001   3.6267   3.6613
  3.6627   3.6781   3.7396   3.7525   3.7579   3.7894   3.8192   3.8608
  3.8885   3.9109   3.9267   3.9422   3.9609   3.9701   3.9831   3.9965
  4.0131   4.0365   4.0732   4.1042   4.1353   4.1474   4.1692   4.2079
  4.2588   4.2640   4.2948   4.3031   4.3109   4.3317   4.3653   4.4041
  4.4348   4.4582   4.4683   4.4992   4.5355   4.5761   4.6015   4.6524
  4.6668   4.7095   4.7190   4.7504   4.7918   4.8114   4.8211   4.8786
  4.9393   4.9928   5.0273   5.0388   5.1078   5.1226   5.1700   5.1883
  5.2072   5.2905   5.3543   5.3974   5.4318   5.4960   5.5184   5.5861
  5.6355   5.7186   5.7814   5.8452   5.8917   5.9404   5.9804   6.0301
  6.0851   6.3420   6.4139   6.4408   6.5992   9.4570  11.4078  12.7251
 13.9465  13.9846
 --------------------------------------------------------------
 
          Ground-State Mulliken Net Atomic Charges

     Atom                 Charge (a.u.)
  ----------------------------------------
      1 C                    -0.053450
      2 S                    -0.002219
      3 C                    -0.201907
      4 C                    -0.165313
      5 C                    -0.203321
      6 H                     0.185446
      7 H                     0.185225
      8 C                    -0.370228
      9 H                     0.128577
     10 H                     0.125186
     11 H                     0.165961
     12 H                     0.206044
  ----------------------------------------
  Sum of atomic charges =     0.000000

 -----------------------------------------------------------------
                    Cartesian Multipole Moments
 -----------------------------------------------------------------
    Charge (ESU x 10^10)
                 0.0000
    Dipole Moment (Debye)
         X       0.5605      Y      -0.1779      Z      -0.9077
       Tot       1.0815
    Quadrupole Moments (Debye-Ang)
        XX     -44.2845     XY       5.6871     YY     -40.1897
        XZ       0.8048     YZ       0.1164     ZZ     -41.4346
    Octopole Moments (Debye-Ang^2)
       XXX     -42.0708    XXY      -5.1579    XYY      -7.0430
       YYY     -35.1071    XXZ      -5.4313    XYZ       1.6178
       YYZ      -2.8443    XZZ     -10.1504    YZZ      -7.0369
       ZZZ     -29.5361
    Hexadecapole Moments (Debye-Ang^3)
      XXXX    -198.1794   XXXY     -87.3348   XXYY     -86.6161
      XYYY     -73.5434   YYYY    -405.8552   XXXZ      -4.4441
      XXYZ      -1.5640   XYYZ       3.9875   YYYZ     -16.1457
      XXZZ     -80.3924   XYZZ     -17.9886   YYZZ    -109.7778
      XZZZ      -2.8407   YZZZ     -13.6240   ZZZZ    -305.0449
 -----------------------------------------------------------------
 Total job time:  9.91s(wall), 533.24s(cpu) 
 Wed Dec 27 10:03:52 2023

        *************************************************************
        *                                                           *
        *  Thank you very much for using Q-Chem.  Have a nice day.  *
        *                                                           *
        *************************************************************


0 sent ACK to 0 
now end server 0 ... 
cleanup process ... done
remove work dirs ./qchem3737801.0 -- ./qchem3737801.0
rm -rf ./qchem3737801.0
rm -rf ./qchem3737801
