You are running Q-Chem version: 5.4.0

#
# job setting
#
local host:  exp-4-24
current dir: /home/rramji/project-csd799/aromodel/pndit-qchem/methylated-rotation-run
input file:  Dimethyl_Naphthalene_Dicarboximide_Phi_10_Theta_330_Thiophene_Hydrogenated_Improper.qcin
output file: 
nprocs     : 1
nthreads   : 64
#
# qchem installation setting
#
QC:          /cm/shared/apps/spack/cpu/opt/spack/linux-centos8-zen2/gcc-10.2.0/qchem-5.4-akfmr7b3t57bfs6qan3padb2wnb2i7cl
QCAUX:       /cm/shared/apps/spack/cpu/opt/spack/linux-centos8-zen2/gcc-10.2.0/qchem-5.4-akfmr7b3t57bfs6qan3padb2wnb2i7cl/qcaux
QCPROG:      /cm/shared/apps/spack/cpu/opt/spack/linux-centos8-zen2/gcc-10.2.0/qchem-5.4-akfmr7b3t57bfs6qan3padb2wnb2i7cl/exe/qcprog.exe
QCPROG_S:    /cm/shared/apps/spack/cpu/opt/spack/linux-centos8-zen2/gcc-10.2.0/qchem-5.4-akfmr7b3t57bfs6qan3padb2wnb2i7cl/exe/qcprog.exe_s
PARALLEL:    -DPARALLEL
QCMPI:       mpich
#
# qchem directory setting
#
qcrun:       qchem2969176
QCSCRATCH:   .
QCLOCALSCR:  
QCTMPDIR:    .
QCFILEPREF:  ./qchem2969176
QCSAVEDIR:   
workdirs:    ./qchem2969176
workdir0:    ./qchem2969176
partmpdirs =  
#
# parallel setting
#
QCRSH:           ssh
QCMPI:           mpich
QCMPIRUN:        /cm/shared/apps/spack/cpu/opt/spack/linux-centos8-zen2/gcc-10.2.0/qchem-5.4-akfmr7b3t57bfs6qan3padb2wnb2i7cl/bin/mpi/mpirun_qchem
QCMACHINEFILE:   ./qchem2969176/hostfile
exp-4-24

#
# env setting
#
exported envs:   QC QCAUX QCSCRATCH QCRUNNAME QCFILEPREF QCPROG QCPROG_S GUIFILE

Running Job 1 of 1 Dimethyl_Naphthalene_Dicarboximide_Phi_10_Theta_330_Thiophene_Hydrogenated_Improper.qcin
qchem Dimethyl_Naphthalene_Dicarboximide_Phi_10_Theta_330_Thiophene_Hydrogenated_Improper.qcin_2969176.0 ./qchem2969176/ 1
/cm/shared/apps/spack/cpu/opt/spack/linux-centos8-zen2/gcc-10.2.0/qchem-5.4-akfmr7b3t57bfs6qan3padb2wnb2i7cl/bin/mpi/mpirun_qchem -machinefile ./qchem2969176/hostfile -np 1 /cm/shared/apps/spack/cpu/opt/spack/linux-centos8-zen2/gcc-10.2.0/qchem-5.4-akfmr7b3t57bfs6qan3padb2wnb2i7cl/exe/qcprog.exe Dimethyl_Naphthalene_Dicarboximide_Phi_10_Theta_330_Thiophene_Hydrogenated_Improper.qcin_2969176.0 ./qchem2969176/

Process 0 of 1 is on exp-4-24 - thread support 0
initial socket setup ...start
initial socket setup ...done 
now start server 0 ... 
                  Welcome to Q-Chem
     A Quantum Leap Into The Future Of Chemistry


 Q-Chem 5.4, Q-Chem, Inc., Pleasanton, CA (2021)

 License issued to: University of California, San Diego (site)

 E. Epifanovsky,  A. T. B. Gilbert,  Xintian Feng,  Joonho Lee,  Yuezhi Mao,  
 N. Mardirossian,  P. Pokhilko,  A. White,  M. Wormit,  M. P. Coons,  
 A. L. Dempwolff,  Zhengting Gan,  D. Hait,  P. R. Horn,  L. D. Jacobson,  
 I. Kaliman,  J. Kussmann,  A. W. Lange,  Ka Un Lao,  D. S. Levine,  Jie Liu,  
 S. C. McKenzie,  A. F. Morrison,  K. Nanda,  F. Plasser,  D. R. Rehn,  
 M. L. Vidal,  Zhi-Qiang You,  Ying Zhu,  B. Alam,  B. Albrecht,  
 A. Aldossary,  E. Alguire,  J. H. Andersen,  D. Barton,  K. Begam,  A. Behn,  
 Y. A. Bernard,  E. J. Berquist,  H. Burton,  A. Carreras,  K. Carter-Fenk,  
 R. Chakraborty,  A. D. Chien,  K. D. Closser,  V. Cofer-Shabica,  
 S. Dasgupta,  Jia Deng,  M. de Wergifosse,  M. Diedenhofen,  Hainam Do,  
 S. Ehlert,  Po-Tung Fang,  S. Fatehi,  Qingguo Feng,  J. Gayvert,  
 Qinghui Ge,  G. Gidofalvi,  M. Goldey,  J. Gomes,  C. Gonzalez-Espinoza,  
 S. Gulania,  A. Gunina,  M. W. D. Hanson-Heine,  P. H. P. Harbach,  
 A. W. Hauser,  M. F. Herbst,  M. Hernandez Vera,  M. Hodecker,  
 Z. C. Holden,  S. Houck,  Xunkun Huang,  Kerwin Hui,  B. C. Huynh,  
 M. Ivanov,  Hyunjun Ji,  Hanjie Jiang,  B. Kaduk,  S. Kaehler,  
 K. Khistyaev,  Jaehoon Kim,  P. Klunzinger,  Z. Koczor-Benda,  
 Joong Hoon Koh,  D. Kosenkov,  L. Koulias,  T. Kowalczyk,  C. M. Krauter,  
 K. Kue,  A. Kunitsa,  T. Kus,  A. Landau,  K. V. Lawler,  D. Lefrancois,  
 S. Lehtola,  Rain Li,  Yi-Pei Li,  Jiashu Liang,  M. Liebenthal,  
 Hung-Hsuan Lin,  You-Sheng Lin,  Fenglai Liu,  Kuan-Yu Liu,  
 M. Loipersberger,  A. Luenser,  A. Manjanath,  P. Manohar,  E. Mansoor,  
 S. F. Manzer,  Shan-Ping Mao,  A. V. Marenich,  T. Markovich,  S. Mason,  
 S. A. Maurer,  P. F. McLaughlin,  M. F. S. J. Menger,  J.-M. Mewes,  
 S. A. Mewes,  P. Morgante,  J. W. Mullinax,  T. S. Nguyen-Beck,  
 K. J. Oosterbaan,  G. Paran,  Alexander C. Paul,  Suranjan K. Paul,  
 F. Pavosevic,  Zheng Pei,  S. Prager,  E. I. Proynov,  E. Ramos,  B. Rana,  
 A. E. Rask,  A. Rettig,  R. M. Richard,  F. Rob,  E. Rossomme,  T. Scheele,  
 M. Scheurer,  M. Schneider,  N. Sergueev,  S. M. Sharada,  W. Skomorowski,  
 D. W. Small,  C. J. Stein,  Yu-Chuan Su,  E. J. Sundstrom,  Zhen Tao,  
 J. Thirman,  T. Tsuchimochi,  N. M. Tubman,  S. P. Veccham,  O. Vydrov,  
 J. Wenzel,  J. Witte,  A. Yamada,  Kun Yao,  S. Yeganeh,  S. R. Yost,  
 A. Zech,  Igor Ying Zhang,  Xing Zhang,  Yu Zhang,  D. Zuev,  
 A. Aspuru-Guzik,  A. T. Bell,  N. A. Besley,  K. B. Bravaya,  B. R. Brooks,  
 D. Casanova,  Jeng-Da Chai,  S. Coriani,  C. J. Cramer,  
 A. E. DePrince, III,  R. A. DiStasio Jr.,  A. Dreuw,  B. D. Dunietz,  
 T. R. Furlani,  W. A. Goddard III,  S. Grimme,  S. Hammes-Schiffer,  
 T. Head-Gordon,  W. J. Hehre,  Chao-Ping Hsu,  T.-C. Jagau,  Yousung Jung,  
 A. Klamt,  Jing Kong,  D. S. Lambrecht,  WanZhen Liang,  N. J. Mayhall,  
 C. W. McCurdy,  J. B. Neaton,  C. Ochsenfeld,  J. A. Parkhill,  R. Peverati,  
 V. A. Rassolov,  Yihan Shao,  L. V. Slipchenko,  T. Stauch,  R. P. Steele,  
 J. E. Subotnik,  A. J. W. Thom,  A. Tkatchenko,  D. G. Truhlar,  
 T. Van Voorhis,  T. A. Wesolowski,  K. B. Whaley,  H. L. Woodcock III,  
 P. M. Zimmerman,  S. Faraji,  P. M. W. Gill,  M. Head-Gordon,  
 J. M. Herbert,  A. I. Krylov

 Contributors to earlier versions of Q-Chem not listed above: 
 R. D. Adamson,  B. Austin,  R. Baer,  J. Baker,  G. J. O. Beran,  
 K. Brandhorst,  S. T. Brown,  E. F. C. Byrd,  A. K. Chakraborty,  
 G. K. L. Chan,  Chun-Min Chang,  Yunqing Chen,  C.-L. Cheng,  
 Siu Hung Chien,  D. M. Chipman,  D. L. Crittenden,  H. Dachsel,  
 R. J. Doerksen,  A. D. Dutoi,  R. G. Edgar,  J. Fosso-Tande,  
 L. Fusti-Molnar,  D. Ghosh,  A. Ghysels,  A. Golubeva-Zadorozhnaya,  
 J. Gonthier,  M. S. Gordon,  S. R. Gwaltney,  G. Hawkins,  J. E. Herr,  
 A. Heyden,  S. Hirata,  E. G. Hohenstein,  G. Kedziora,  F. J. Keil,  
 C. Kelley,  Jihan Kim,  R. A. King,  R. Z. Khaliullin,  P. P. Korambath,  
 W. Kurlancheek,  A. Laurent,  A. M. Lee,  M. S. Lee,  S. V. Levchenko,  
 Ching Yeh Lin,  D. Liotard,  E. Livshits,  R. C. Lochan,  I. Lotan,  
 L. A. Martinez-Martinez,  P. E. Maslen,  N. Nair,  D. P. O'Neill,  
 D. Neuhauser,  E. Neuscamman,  C. M. Oana,  R. Olivares-Amaya,  R. Olson,  
 T. M. Perrine,  B. Peters,  P. A. Pieniazek,  A. Prociuk,  Y. M. Rhee,  
 J. Ritchie,  M. A. Rohrdanz,  E. Rosta,  N. J. Russ,  H. F. Schaefer III,  
 M. W. Schmidt,  N. E. Schultz,  S. Sharma,  N. Shenvi,  C. D. Sherrill,  
 A. C. Simmonett,  A. Sodt,  T. Stein,  D. Stuck,  K. S. Thanthiriwatte,  
 V. Vanovschi,  L. Vogt,  Tao Wang,  A. Warshel,  M. A. Watson,  
 C. F. Williams,  Q. Wu,  X. Xu,  Jun Yang,  W. Zhang,  Yan Zhao

 Please cite Q-Chem as follows:
 Y. Shao et al., Mol. Phys. 113, 184-215 (2015)
 DOI: 10.1080/00268976.2014.952696

 Q-Chem 5.4.0 for Intel X86 EM64T Linux

 Parts of Q-Chem use Armadillo 9.800.1 (Horizon Scraper).
 http://arma.sourceforge.net/

 Q-Chem begins on Wed Dec 27 10:09:55 2023  

 Host: 
0

     Scratch files written to ./qchem2969176//
 May1621 |scratch|qcdevops|jenkins|workspace|build_RNUM    
 Parallel job on  1  processors
 Processing $rem in /cm/shared/apps/spack/cpu/opt/spack/linux-centos8-zen2/gcc-10.2.0/qchem-5.4-akfmr7b3t57bfs6qan3padb2wnb2i7cl/config/preferences:
 Processing $rem in /home/rramji/.qchemrc:
 Symmetry turned off for PCM/SM12/SMD calculation
 Core orbitals will be frozen

 Checking the input file for inconsistencies... 	...done.

 Q-Chem warning in module forms1/BasisType.C, line 2236:

 You are not using the predefined 5D/6D in this basis set.


--------------------------------------------------------------
User input:
--------------------------------------------------------------
$molecule
0 1
C	-0.095196	-0.391505	-0.212476
S	0.042304	0.389695	1.368024
C	0.326704	2.002495	0.692424
C	0.077904	0.591395	-1.197876
C	0.307104	1.891595	-0.705976
H	0.037004	0.359295	-2.272376
H	0.460004	2.759095	-1.365076
C	-0.095196	-1.869705	-0.212476
H	0.840404	-1.870305	-0.751976
H	0.398104	-2.309005	0.642024
H	-0.501796	-2.580705	-0.916476
H	0.479504	2.869795	1.343524
$end

$rem
JOBTYPE		SP
EXCHANGE	HF
CORRELATION	pRIMP2
BASIS		cc-pvtz
METHOD		rimp2
AUX_BASIS	rimp2-cc-pvtz
SOLVENT_METHOD	PCM
PURECART	11111
SYMMETRY	false
MEM_TOTAL	110000
SCF_CONVERGENCE = 6
THRESH=10
GUI = 2
$end



$solvent
dielectric 4.90
$end
--------------------------------------------------------------
 ----------------------------------------------------------------
             Standard Nuclear Orientation (Angstroms)
    I     Atom           X                Y                Z
 ----------------------------------------------------------------
    1      C      -0.0951960000    -0.3915050000    -0.2124760000
    2      S       0.0423040000     0.3896950000     1.3680240000
    3      C       0.3267040000     2.0024950000     0.6924240000
    4      C       0.0779040000     0.5913950000    -1.1978760000
    5      C       0.3071040000     1.8915950000    -0.7059760000
    6      H       0.0370040000     0.3592950000    -2.2723760000
    7      H       0.4600040000     2.7590950000    -1.3650760000
    8      C      -0.0951960000    -1.8697050000    -0.2124760000
    9      H       0.8404040000    -1.8703050000    -0.7519760000
   10      H       0.3981040000    -2.3090050000     0.6420240000
   11      H      -0.5017960000    -2.5807050000    -0.9164760000
   12      H       0.4795040000     2.8697950000     1.3435240000
 ----------------------------------------------------------------
 Nuclear Repulsion Energy =         270.39672643 hartrees
 There are       26 alpha and       26 beta electrons
 Requested basis set is cc-pVTZ
 There are 98 shells and 268 basis functions

 Total QAlloc Memory Limit 110000 MB
 Mega-Array Size       188 MB
 MEM_STATIC part       192 MB
 Discretize the solute cavity surface with Lebedev spheres
	Using 110 Lebedev grid points for each H atom
	Using 194 Lebedev grid points for other atoms
	Atomic van der Waals radii will be scaled by 1.20
 Remove points where switching function is < 1.0e-08
 Keep 887 surface tesserae and discard 937 interior tesserae
 Molecular Surface Area = 138.002 Angst**2

                       Distance Matrix (Angstroms)
             C (  1)   S (  2)   C (  3)   C (  4)   C (  5)   H (  6)
   S (  2)  1.768378
   C (  3)  2.593854  1.771565
   C (  4)  1.402522  2.574062  2.371990
   C (  5)  2.370218  2.574354  1.402927  1.408907
   H (  6)  2.196444  3.640531  3.402069  1.100042  2.207828
   H (  7)  3.400443  3.641204  2.196251  2.207460  1.100158  2.600224
   C (  8)  1.478200  2.760756  3.998847  2.656688  3.814809  3.037944
   H (  9)  1.831190  3.199838  4.165184  2.615378  3.799792  2.815703
   H ( 10)  2.156460  2.817206  4.312386  3.449649  4.412530  3.967864
   H ( 11)  2.335281  3.786590  4.927544  3.236890  4.549736  3.282129
   H ( 12)  3.658892  2.518460  1.095212  3.436729  2.277509  4.424155
             H (  7)   C (  8)   H (  9)   H ( 10)   H ( 11)
   C (  8)  4.802346
   H (  9)  4.685290  1.080004
   H ( 10)  5.451414  1.080046  1.526867
   H ( 11)  5.444241  1.080028  1.527491  1.820045
   H ( 12)  2.710931  5.021382  5.195182  5.226729  5.981513
 
 Requested basis set is rimp2-cc-pVTZ
 There are 207 shells and 707 basis functions
 A cutoff of  1.0D-10 yielded   4372 shell pairs
 There are     32840 function pairs (     42486 Cartesian)
 Smallest overlap matrix eigenvalue = 1.23E-04

 Scale SEOQF with 1.000000e+00/1.000000e-01/1.000000e-01

 Standard Electronic Orientation quadrupole field applied
 Nucleus-field energy     =     0.0000000025 hartrees
 Guess from superposition of atomic densities
 Warning:  Energy on first SCF cycle will be non-variational
 SAD guess density has 52.000000 electrons

 -----------------------------------------------------------------------
  General SCF calculation program by
  Eric Jon Sundstrom, Paul Horn, Yuezhi Mao, Dmitri Zuev, Alec White,
  David Stuck, Shaama M.S., Shane Yost, Joonho Lee, David Small,
  Daniel Levine, Susi Lehtola, Hugh Burton, Evgeny Epifanovsky,
  Bang C. Huynh
 -----------------------------------------------------------------------
 Hartree-Fock
 using 64 threads for integral computing
 -------------------------------------------------------
 OpenMP Integral computing Module                
 Release: version 1.0, May 2013, Q-Chem Inc. Pittsburgh 
 -------------------------------------------------------
 A restricted SCF calculation will be
 performed using DIIS
 SCF converges when DIIS error is below 1.0e-06
 ---------------------------------------
  Cycle       Energy         DIIS error
 ---------------------------------------
    1    -592.5748346473      3.22e-02  
    2    -590.3020679401      2.20e-03  
    3    -590.3629581398      8.43e-04  
    4    -590.3702444050      4.02e-04  
    5    -590.3722826098      6.95e-05  
    6    -590.3724024562      3.17e-05  
    7    -590.3724311796      1.40e-05  
    8    -590.3724403042      5.63e-06  
    9    -590.3724417381      1.87e-06  
   10    -590.3724418725      6.17e-07  Convergence criterion met
 ---------------------------------------
 SCF time:   CPU 502.09s  wall 9.00s 

************** Final PCM Free Energy Summary **************
 G_electrostatic  =      -0.00590812 hartree =      -3.70739859 kcal/mol
 G_cavitation     =       0.00000000 hartree =       0.00000000 kcal/mol
 G_dispersion     =       0.00000000 hartree =       0.00000000 kcal/mol
 G_repulsion      =       0.00000000 hartree =       0.00000000 kcal/mol
 --------------------------------------------------
 Non-electrostatic Free Energy =       0.00000000 hartree =       0.00000000 kcal/mol
 Total                         =      -0.00590812 hartree =      -3.70739859 kcal/mol
 --------------------------------------------------
 SCF Energy (H0 + V/2)                       =    -590.37244187 
 Solute Internal Energy (H0)                 =    -590.36653376 
 Total Free Energy (H0 + V/2 + non-elec)     =    -590.37244187 hartree
                                             = -370464.29869241 kcal/mol
***********************************************************

 SCF   energy in the final basis set =     -590.3724418725
 Total energy in the final basis set =     -590.3724418725


 --------------------------------------------------------------
  Generalized many-body perturbation theory program
  by Joonho Lee, Fazle Rob, Xintian Feng, Evgeny Epifanovsky

 No regularization used 
 (reg. param. = 0.0000e+00)
  (P|Q)^-1/2 Time:  CPU 7.12 s  wall 0.12 s

 In RI-MP2 calculation: 
 # of frozen core orbitals: 10

 Components of the RIMP2 correlation energy:
        aaaa    correlation energy =        -0.1252222406 a.u.
        abab    correlation energy =        -0.7505439135 a.u.
        bbbb    correlation energy =        -0.1252222406 a.u.
        non-Brillouin singles      =        -0.0000000000 a.u.
        total same-spin energy     =        -0.2504444812 a.u.
        total opposite-spin energy =        -0.7505439135 a.u.

 Total  RIMP2   correlation energy =        -1.0009883947 a.u.
        RIMP2         total energy =      -591.3734302673 a.u.

 RI-MP2 Energy Time:  CPU 26.32 s  wall 0.45 s
 
 --------------------------------------------------------------
 
                    Orbital Energies (a.u.)
 --------------------------------------------------------------
 
 Alpha MOs
 -- Occupied --
-91.9791 -11.2905 -11.2628 -11.2430 -11.2320 -11.2270  -8.9788  -6.6597
 -6.6592  -6.6586  -1.1572  -1.0399  -0.9717  -0.9188  -0.7543  -0.7228
 -0.6715  -0.5974  -0.5662  -0.5548  -0.5450  -0.4966  -0.4726  -0.4539
 -0.3459  -0.3003
 -- Virtual --
  0.1092   0.1487   0.1604   0.1802   0.1851   0.1922   0.2164   0.2249
  0.2426   0.2461   0.3163   0.3289   0.3523   0.3670   0.3868   0.4073
  0.4265   0.4451   0.4632   0.4877   0.4976   0.5143   0.5253   0.5309
  0.5478   0.5513   0.5706   0.5861   0.5897   0.6131   0.6161   0.6212
  0.6337   0.6428   0.6480   0.6545   0.7027   0.7047   0.7362   0.7733
  0.7812   0.7958   0.8400   0.8656   0.8774   0.8803   0.8906   0.9092
  0.9495   0.9828   1.0088   1.0399   1.0621   1.0709   1.0907   1.1200
  1.1447   1.1676   1.1701   1.1926   1.2231   1.2280   1.2335   1.2744
  1.2838   1.3141   1.3284   1.3435   1.3934   1.4059   1.4250   1.4499
  1.4713   1.4975   1.5057   1.5187   1.5340   1.5408   1.5610   1.5757
  1.5929   1.6167   1.6483   1.6867   1.7218   1.7508   1.7762   1.7942
  1.8193   1.8938   1.9087   1.9310   1.9560   1.9877   2.0565   2.0805
  2.1529   2.1704   2.2195   2.2283   2.2558   2.2852   2.3051   2.4204
  2.4272   2.4522   2.4835   2.5288   2.5682   2.5816   2.6302   2.6539
  2.7062   2.7105   2.7256   2.7496   2.7569   2.7772   2.7917   2.8133
  2.8731   2.9053   2.9113   2.9553   2.9918   3.0159   3.0263   3.0478
  3.0523   3.0838   3.1128   3.1400   3.1683   3.2012   3.2256   3.2430
  3.2624   3.2712   3.2936   3.3163   3.3205   3.3413   3.3521   3.3902
  3.3934   3.4240   3.4402   3.4565   3.4623   3.4749   3.4953   3.5071
  3.5169   3.5241   3.5441   3.5650   3.5830   3.6249   3.6282   3.6708
  3.6725   3.6945   3.7170   3.7369   3.7624   3.7652   3.7997   3.8371
  3.8565   3.8834   3.9001   3.9198   3.9336   3.9467   3.9747   3.9956
  4.0227   4.0429   4.0728   4.1057   4.1235   4.1585   4.1670   4.2001
  4.2342   4.2582   4.2813   4.2964   4.3170   4.3520   4.3645   4.3918
  4.4187   4.4621   4.4818   4.4961   4.5459   4.5721   4.6020   4.6374
  4.6513   4.6988   4.7352   4.7645   4.7843   4.8106   4.8560   4.8925
  4.9336   4.9960   5.0191   5.0322   5.0750   5.1381   5.1647   5.1943
  5.2239   5.3049   5.3592   5.4276   5.4625   5.4920   5.5318   5.5732
  5.6307   5.7175   5.7913   5.8112   5.8763   5.9480   6.0095   6.0857
  6.1357   6.3349   6.4170   6.4723   6.6937   9.3598  11.3270  12.8580
 13.9330  14.2205
 --------------------------------------------------------------
 
          Ground-State Mulliken Net Atomic Charges

     Atom                 Charge (a.u.)
  ----------------------------------------
      1 C                     0.032151
      2 S                     0.000253
      3 C                    -0.245373
      4 C                    -0.237621
      5 C                    -0.190222
      6 H                     0.179853
      7 H                     0.185702
      8 C                    -0.366521
      9 H                     0.140323
     10 H                     0.137043
     11 H                     0.160944
     12 H                     0.203468
  ----------------------------------------
  Sum of atomic charges =     0.000000

 -----------------------------------------------------------------
                    Cartesian Multipole Moments
 -----------------------------------------------------------------
    Charge (ESU x 10^10)
                 0.0000
    Dipole Moment (Debye)
         X       0.8254      Y      -0.7624      Z      -1.4077
       Tot       1.8011
    Quadrupole Moments (Debye-Ang)
        XX     -47.9680     XY       0.3149     YY     -36.3330
        XZ       0.2751     YZ       1.7192     ZZ     -41.6845
    Octopole Moments (Debye-Ang^2)
       XXX     -14.5829    XXY     -20.4325    XYY       1.7806
       YYY     -42.7624    XXZ      -7.0932    XYZ      -0.3066
       YYZ      -6.4749    XZZ      -3.0902    YZZ     -11.4798
       ZZZ     -27.7757
    Hexadecapole Moments (Debye-Ang^3)
      XXXX     -75.4436   XXXY     -32.5418   XXYY    -113.6415
      XYYY     -17.4348   YYYY    -494.9548   XXXZ      -2.1368
      XXYZ      -6.7694   XYYZ       3.7603   YYYZ      -5.1442
      XXZZ     -70.2241   XYZZ      -4.7691   YYZZ    -122.1276
      XZZZ      -0.5180   YZZZ     -15.9031   ZZZZ    -308.1180
 -----------------------------------------------------------------
 Total job time:  10.76s(wall), 573.08s(cpu) 
 Wed Dec 27 10:10:06 2023

        *************************************************************
        *                                                           *
        *  Thank you very much for using Q-Chem.  Have a nice day.  *
        *                                                           *
        *************************************************************


0 sent ACK to 0 
now end server 0 ... 
cleanup process ... done
remove work dirs ./qchem2969176.0 -- ./qchem2969176.0
rm -rf ./qchem2969176.0
rm -rf ./qchem2969176
