You are running Q-Chem version: 5.4.0

#
# job setting
#
local host:  exp-4-42
current dir: /home/rramji/project-csd799/aromodel/pndit-qchem/methylated-rotation-run
input file:  Dimethyl_Naphthalene_Dicarboximide_Phi_15_Theta_220_Thiophene_Hydrogenated_Improper.qcin
output file: 
nprocs     : 1
nthreads   : 64
#
# qchem installation setting
#
QC:          /cm/shared/apps/spack/cpu/opt/spack/linux-centos8-zen2/gcc-10.2.0/qchem-5.4-akfmr7b3t57bfs6qan3padb2wnb2i7cl
QCAUX:       /cm/shared/apps/spack/cpu/opt/spack/linux-centos8-zen2/gcc-10.2.0/qchem-5.4-akfmr7b3t57bfs6qan3padb2wnb2i7cl/qcaux
QCPROG:      /cm/shared/apps/spack/cpu/opt/spack/linux-centos8-zen2/gcc-10.2.0/qchem-5.4-akfmr7b3t57bfs6qan3padb2wnb2i7cl/exe/qcprog.exe
QCPROG_S:    /cm/shared/apps/spack/cpu/opt/spack/linux-centos8-zen2/gcc-10.2.0/qchem-5.4-akfmr7b3t57bfs6qan3padb2wnb2i7cl/exe/qcprog.exe_s
PARALLEL:    -DPARALLEL
QCMPI:       mpich
#
# qchem directory setting
#
qcrun:       qchem2793819
QCSCRATCH:   .
QCLOCALSCR:  
QCTMPDIR:    .
QCFILEPREF:  ./qchem2793819
QCSAVEDIR:   
workdirs:    ./qchem2793819
workdir0:    ./qchem2793819
partmpdirs =  
#
# parallel setting
#
QCRSH:           ssh
QCMPI:           mpich
QCMPIRUN:        /cm/shared/apps/spack/cpu/opt/spack/linux-centos8-zen2/gcc-10.2.0/qchem-5.4-akfmr7b3t57bfs6qan3padb2wnb2i7cl/bin/mpi/mpirun_qchem
QCMACHINEFILE:   ./qchem2793819/hostfile
exp-4-42

#
# env setting
#
exported envs:   QC QCAUX QCSCRATCH QCRUNNAME QCFILEPREF QCPROG QCPROG_S GUIFILE

Running Job 1 of 1 Dimethyl_Naphthalene_Dicarboximide_Phi_15_Theta_220_Thiophene_Hydrogenated_Improper.qcin
qchem Dimethyl_Naphthalene_Dicarboximide_Phi_15_Theta_220_Thiophene_Hydrogenated_Improper.qcin_2793819.0 ./qchem2793819/ 1
/cm/shared/apps/spack/cpu/opt/spack/linux-centos8-zen2/gcc-10.2.0/qchem-5.4-akfmr7b3t57bfs6qan3padb2wnb2i7cl/bin/mpi/mpirun_qchem -machinefile ./qchem2793819/hostfile -np 1 /cm/shared/apps/spack/cpu/opt/spack/linux-centos8-zen2/gcc-10.2.0/qchem-5.4-akfmr7b3t57bfs6qan3padb2wnb2i7cl/exe/qcprog.exe Dimethyl_Naphthalene_Dicarboximide_Phi_15_Theta_220_Thiophene_Hydrogenated_Improper.qcin_2793819.0 ./qchem2793819/

Process 0 of 1 is on exp-4-42 - thread support 0
initial socket setup ...start
initial socket setup ...done 
now start server 0 ... 
                  Welcome to Q-Chem
     A Quantum Leap Into The Future Of Chemistry


 Q-Chem 5.4, Q-Chem, Inc., Pleasanton, CA (2021)

 License issued to: University of California, San Diego (site)

 E. Epifanovsky,  A. T. B. Gilbert,  Xintian Feng,  Joonho Lee,  Yuezhi Mao,  
 N. Mardirossian,  P. Pokhilko,  A. White,  M. Wormit,  M. P. Coons,  
 A. L. Dempwolff,  Zhengting Gan,  D. Hait,  P. R. Horn,  L. D. Jacobson,  
 I. Kaliman,  J. Kussmann,  A. W. Lange,  Ka Un Lao,  D. S. Levine,  Jie Liu,  
 S. C. McKenzie,  A. F. Morrison,  K. Nanda,  F. Plasser,  D. R. Rehn,  
 M. L. Vidal,  Zhi-Qiang You,  Ying Zhu,  B. Alam,  B. Albrecht,  
 A. Aldossary,  E. Alguire,  J. H. Andersen,  D. Barton,  K. Begam,  A. Behn,  
 Y. A. Bernard,  E. J. Berquist,  H. Burton,  A. Carreras,  K. Carter-Fenk,  
 R. Chakraborty,  A. D. Chien,  K. D. Closser,  V. Cofer-Shabica,  
 S. Dasgupta,  Jia Deng,  M. de Wergifosse,  M. Diedenhofen,  Hainam Do,  
 S. Ehlert,  Po-Tung Fang,  S. Fatehi,  Qingguo Feng,  J. Gayvert,  
 Qinghui Ge,  G. Gidofalvi,  M. Goldey,  J. Gomes,  C. Gonzalez-Espinoza,  
 S. Gulania,  A. Gunina,  M. W. D. Hanson-Heine,  P. H. P. Harbach,  
 A. W. Hauser,  M. F. Herbst,  M. Hernandez Vera,  M. Hodecker,  
 Z. C. Holden,  S. Houck,  Xunkun Huang,  Kerwin Hui,  B. C. Huynh,  
 M. Ivanov,  Hyunjun Ji,  Hanjie Jiang,  B. Kaduk,  S. Kaehler,  
 K. Khistyaev,  Jaehoon Kim,  P. Klunzinger,  Z. Koczor-Benda,  
 Joong Hoon Koh,  D. Kosenkov,  L. Koulias,  T. Kowalczyk,  C. M. Krauter,  
 K. Kue,  A. Kunitsa,  T. Kus,  A. Landau,  K. V. Lawler,  D. Lefrancois,  
 S. Lehtola,  Rain Li,  Yi-Pei Li,  Jiashu Liang,  M. Liebenthal,  
 Hung-Hsuan Lin,  You-Sheng Lin,  Fenglai Liu,  Kuan-Yu Liu,  
 M. Loipersberger,  A. Luenser,  A. Manjanath,  P. Manohar,  E. Mansoor,  
 S. F. Manzer,  Shan-Ping Mao,  A. V. Marenich,  T. Markovich,  S. Mason,  
 S. A. Maurer,  P. F. McLaughlin,  M. F. S. J. Menger,  J.-M. Mewes,  
 S. A. Mewes,  P. Morgante,  J. W. Mullinax,  T. S. Nguyen-Beck,  
 K. J. Oosterbaan,  G. Paran,  Alexander C. Paul,  Suranjan K. Paul,  
 F. Pavosevic,  Zheng Pei,  S. Prager,  E. I. Proynov,  E. Ramos,  B. Rana,  
 A. E. Rask,  A. Rettig,  R. M. Richard,  F. Rob,  E. Rossomme,  T. Scheele,  
 M. Scheurer,  M. Schneider,  N. Sergueev,  S. M. Sharada,  W. Skomorowski,  
 D. W. Small,  C. J. Stein,  Yu-Chuan Su,  E. J. Sundstrom,  Zhen Tao,  
 J. Thirman,  T. Tsuchimochi,  N. M. Tubman,  S. P. Veccham,  O. Vydrov,  
 J. Wenzel,  J. Witte,  A. Yamada,  Kun Yao,  S. Yeganeh,  S. R. Yost,  
 A. Zech,  Igor Ying Zhang,  Xing Zhang,  Yu Zhang,  D. Zuev,  
 A. Aspuru-Guzik,  A. T. Bell,  N. A. Besley,  K. B. Bravaya,  B. R. Brooks,  
 D. Casanova,  Jeng-Da Chai,  S. Coriani,  C. J. Cramer,  
 A. E. DePrince, III,  R. A. DiStasio Jr.,  A. Dreuw,  B. D. Dunietz,  
 T. R. Furlani,  W. A. Goddard III,  S. Grimme,  S. Hammes-Schiffer,  
 T. Head-Gordon,  W. J. Hehre,  Chao-Ping Hsu,  T.-C. Jagau,  Yousung Jung,  
 A. Klamt,  Jing Kong,  D. S. Lambrecht,  WanZhen Liang,  N. J. Mayhall,  
 C. W. McCurdy,  J. B. Neaton,  C. Ochsenfeld,  J. A. Parkhill,  R. Peverati,  
 V. A. Rassolov,  Yihan Shao,  L. V. Slipchenko,  T. Stauch,  R. P. Steele,  
 J. E. Subotnik,  A. J. W. Thom,  A. Tkatchenko,  D. G. Truhlar,  
 T. Van Voorhis,  T. A. Wesolowski,  K. B. Whaley,  H. L. Woodcock III,  
 P. M. Zimmerman,  S. Faraji,  P. M. W. Gill,  M. Head-Gordon,  
 J. M. Herbert,  A. I. Krylov

 Contributors to earlier versions of Q-Chem not listed above: 
 R. D. Adamson,  B. Austin,  R. Baer,  J. Baker,  G. J. O. Beran,  
 K. Brandhorst,  S. T. Brown,  E. F. C. Byrd,  A. K. Chakraborty,  
 G. K. L. Chan,  Chun-Min Chang,  Yunqing Chen,  C.-L. Cheng,  
 Siu Hung Chien,  D. M. Chipman,  D. L. Crittenden,  H. Dachsel,  
 R. J. Doerksen,  A. D. Dutoi,  R. G. Edgar,  J. Fosso-Tande,  
 L. Fusti-Molnar,  D. Ghosh,  A. Ghysels,  A. Golubeva-Zadorozhnaya,  
 J. Gonthier,  M. S. Gordon,  S. R. Gwaltney,  G. Hawkins,  J. E. Herr,  
 A. Heyden,  S. Hirata,  E. G. Hohenstein,  G. Kedziora,  F. J. Keil,  
 C. Kelley,  Jihan Kim,  R. A. King,  R. Z. Khaliullin,  P. P. Korambath,  
 W. Kurlancheek,  A. Laurent,  A. M. Lee,  M. S. Lee,  S. V. Levchenko,  
 Ching Yeh Lin,  D. Liotard,  E. Livshits,  R. C. Lochan,  I. Lotan,  
 L. A. Martinez-Martinez,  P. E. Maslen,  N. Nair,  D. P. O'Neill,  
 D. Neuhauser,  E. Neuscamman,  C. M. Oana,  R. Olivares-Amaya,  R. Olson,  
 T. M. Perrine,  B. Peters,  P. A. Pieniazek,  A. Prociuk,  Y. M. Rhee,  
 J. Ritchie,  M. A. Rohrdanz,  E. Rosta,  N. J. Russ,  H. F. Schaefer III,  
 M. W. Schmidt,  N. E. Schultz,  S. Sharma,  N. Shenvi,  C. D. Sherrill,  
 A. C. Simmonett,  A. Sodt,  T. Stein,  D. Stuck,  K. S. Thanthiriwatte,  
 V. Vanovschi,  L. Vogt,  Tao Wang,  A. Warshel,  M. A. Watson,  
 C. F. Williams,  Q. Wu,  X. Xu,  Jun Yang,  W. Zhang,  Yan Zhao

 Please cite Q-Chem as follows:
 Y. Shao et al., Mol. Phys. 113, 184-215 (2015)
 DOI: 10.1080/00268976.2014.952696

 Q-Chem 5.4.0 for Intel X86 EM64T Linux

 Parts of Q-Chem use Armadillo 9.800.1 (Horizon Scraper).
 http://arma.sourceforge.net/

 Q-Chem begins on Wed Dec 27 10:05:06 2023  

 Host: 
0

     Scratch files written to ./qchem2793819//
 May1621 |scratch|qcdevops|jenkins|workspace|build_RNUM    
 Parallel job on  1  processors
 Processing $rem in /cm/shared/apps/spack/cpu/opt/spack/linux-centos8-zen2/gcc-10.2.0/qchem-5.4-akfmr7b3t57bfs6qan3padb2wnb2i7cl/config/preferences:
 Processing $rem in /home/rramji/.qchemrc:
 Symmetry turned off for PCM/SM12/SMD calculation
 Core orbitals will be frozen

 Checking the input file for inconsistencies... 	...done.

 Q-Chem warning in module forms1/BasisType.C, line 2236:

 You are not using the predefined 5D/6D in this basis set.


--------------------------------------------------------------
User input:
--------------------------------------------------------------
$molecule
0 1
C	-0.130436	-0.381707	-0.210225
S	0.074664	0.384493	1.370275
C	0.498464	1.966393	0.694675
C	0.127664	0.582293	-1.195625
C	0.469264	1.857593	-0.703725
H	0.066764	0.354693	-2.270125
H	0.697264	2.708493	-1.362825
C	-0.130436	-1.859907	-0.210225
H	-0.957436	-1.860507	-0.904825
H	0.503764	-2.299207	-0.966025
H	-0.652936	-2.570907	0.412675
H	0.726364	2.817093	1.345775
$end

$rem
JOBTYPE		SP
EXCHANGE	HF
CORRELATION	pRIMP2
BASIS		cc-pvtz
METHOD		rimp2
AUX_BASIS	rimp2-cc-pvtz
SOLVENT_METHOD	PCM
PURECART	11111
SYMMETRY	false
MEM_TOTAL	110000
SCF_CONVERGENCE = 6
THRESH=10
GUI = 2
$end



$solvent
dielectric 4.90
$end
--------------------------------------------------------------
 ----------------------------------------------------------------
             Standard Nuclear Orientation (Angstroms)
    I     Atom           X                Y                Z
 ----------------------------------------------------------------
    1      C      -0.1304360000    -0.3817070000    -0.2102250000
    2      S       0.0746640000     0.3844930000     1.3702750000
    3      C       0.4984640000     1.9663930000     0.6946750000
    4      C       0.1276640000     0.5822930000    -1.1956250000
    5      C       0.4692640000     1.8575930000    -0.7037250000
    6      H       0.0667640000     0.3546930000    -2.2701250000
    7      H       0.6972640000     2.7084930000    -1.3628250000
    8      C      -0.1304360000    -1.8599070000    -0.2102250000
    9      H      -0.9574360000    -1.8605070000    -0.9048250000
   10      H       0.5037640000    -2.2992070000    -0.9660250000
   11      H      -0.6529360000    -2.5709070000     0.4126750000
   12      H       0.7263640000     2.8170930000     1.3457750000
 ----------------------------------------------------------------
 Nuclear Repulsion Energy =         270.14797259 hartrees
 There are       26 alpha and       26 beta electrons
 Requested basis set is cc-pVTZ
 There are 98 shells and 268 basis functions

 Total QAlloc Memory Limit 110000 MB
 Mega-Array Size       188 MB
 MEM_STATIC part       192 MB
 Discretize the solute cavity surface with Lebedev spheres
	Using 110 Lebedev grid points for each H atom
	Using 194 Lebedev grid points for other atoms
	Atomic van der Waals radii will be scaled by 1.20
 Remove points where switching function is < 1.0e-08
 Keep 886 surface tesserae and discard 938 interior tesserae
 Molecular Surface Area = 138.060 Angst**2

                       Distance Matrix (Angstroms)
             C (  1)   S (  2)   C (  3)   C (  4)   C (  5)   H (  6)
   S (  2)  1.768363
   C (  3)  2.593826  1.771567
   C (  4)  1.402471  2.574058  2.372016
   C (  5)  2.370158  2.574337  1.402930  1.408917
   H (  6)  2.196443  3.640531  3.402055  1.100028  2.207787
   H (  7)  3.400428  3.641214  2.196256  2.207516  1.100194  2.600211
   C (  8)  1.478200  2.752704  3.981825  2.646124  3.797761  3.030929
   H (  9)  1.831187  3.358770  4.395817  2.688732  3.987503  2.796451
   H ( 10)  2.156444  3.583946  4.577477  2.914997  4.165210  2.989119
   H ( 11)  2.335296  3.190735  4.689599  3.624726  4.702903  4.034169
   H ( 12)  3.658902  2.518503  1.095244  3.436784  2.277541  4.424163
             H (  7)   C (  8)   H (  9)   H ( 10)   H ( 11)
   C (  8)  4.783707
   H (  9)  4.880938  1.079999
   H ( 10)  5.027122  1.080013  1.526862
   H ( 11)  5.731274  1.080061  1.527480  1.820052
   H ( 12)  2.710932  5.002956  5.457135  5.618763  5.639476
 
 Requested basis set is rimp2-cc-pVTZ
 There are 207 shells and 707 basis functions
 A cutoff of  1.0D-10 yielded   4375 shell pairs
 There are     32825 function pairs (     42450 Cartesian)
 Smallest overlap matrix eigenvalue = 1.16E-04

 Scale SEOQF with 1.000000e+00/1.000000e-01/1.000000e-01

 Standard Electronic Orientation quadrupole field applied
 Nucleus-field energy     =     0.0000000033 hartrees
 Guess from superposition of atomic densities
 Warning:  Energy on first SCF cycle will be non-variational
 SAD guess density has 52.000000 electrons

 -----------------------------------------------------------------------
  General SCF calculation program by
  Eric Jon Sundstrom, Paul Horn, Yuezhi Mao, Dmitri Zuev, Alec White,
  David Stuck, Shaama M.S., Shane Yost, Joonho Lee, David Small,
  Daniel Levine, Susi Lehtola, Hugh Burton, Evgeny Epifanovsky,
  Bang C. Huynh
 -----------------------------------------------------------------------
 Hartree-Fock
 using 64 threads for integral computing
 -------------------------------------------------------
 OpenMP Integral computing Module                
 Release: version 1.0, May 2013, Q-Chem Inc. Pittsburgh 
 -------------------------------------------------------
 A restricted SCF calculation will be
 performed using DIIS
 SCF converges when DIIS error is below 1.0e-06
 ---------------------------------------
  Cycle       Energy         DIIS error
 ---------------------------------------
    1    -592.5702251229      3.22e-02  
    2    -590.2983215904      2.16e-03  
    3    -590.3584900019      8.01e-04  
    4    -590.3653155500      3.91e-04  
    5    -590.3672259292      7.03e-05  
    6    -590.3673455711      3.08e-05  
    7    -590.3673742510      1.42e-05  
    8    -590.3673833555      5.63e-06  
    9    -590.3673848714      1.93e-06  
   10    -590.3673850135      6.21e-07  Convergence criterion met
 ---------------------------------------
 SCF time:   CPU 474.77s  wall 9.00s 

************** Final PCM Free Energy Summary **************
 G_electrostatic  =      -0.00598807 hartree =      -3.75757203 kcal/mol
 G_cavitation     =       0.00000000 hartree =       0.00000000 kcal/mol
 G_dispersion     =       0.00000000 hartree =       0.00000000 kcal/mol
 G_repulsion      =       0.00000000 hartree =       0.00000000 kcal/mol
 --------------------------------------------------
 Non-electrostatic Free Energy =       0.00000000 hartree =       0.00000000 kcal/mol
 Total                         =      -0.00598807 hartree =      -3.75757203 kcal/mol
 --------------------------------------------------
 SCF Energy (H0 + V/2)                       =    -590.36738501 
 Solute Internal Energy (H0)                 =    -590.36139694 
 Total Free Energy (H0 + V/2 + non-elec)     =    -590.36738501 hartree
                                             = -370461.12546549 kcal/mol
***********************************************************

 SCF   energy in the final basis set =     -590.3673850135
 Total energy in the final basis set =     -590.3673850135


 --------------------------------------------------------------
  Generalized many-body perturbation theory program
  by Joonho Lee, Fazle Rob, Xintian Feng, Evgeny Epifanovsky

 No regularization used 
 (reg. param. = 0.0000e+00)
  (P|Q)^-1/2 Time:  CPU 5.86 s  wall 0.10 s

 In RI-MP2 calculation: 
 # of frozen core orbitals: 10

 Components of the RIMP2 correlation energy:
        aaaa    correlation energy =        -0.1255568674 a.u.
        abab    correlation energy =        -0.7516712935 a.u.
        bbbb    correlation energy =        -0.1255568674 a.u.
        non-Brillouin singles      =        -0.0000000000 a.u.
        total same-spin energy     =        -0.2511137348 a.u.
        total opposite-spin energy =        -0.7516712935 a.u.

 Total  RIMP2   correlation energy =        -1.0027850283 a.u.
        RIMP2         total energy =      -591.3701700418 a.u.

 RI-MP2 Energy Time:  CPU 24.49 s  wall 0.42 s
 
 --------------------------------------------------------------
 
                    Orbital Energies (a.u.)
 --------------------------------------------------------------
 
 Alpha MOs
 -- Occupied --
-91.9757 -11.2880 -11.2648 -11.2432 -11.2369 -11.2249  -8.9757  -6.6566
 -6.6560  -6.6555  -1.1568  -1.0389  -0.9717  -0.9194  -0.7539  -0.7229
 -0.6710  -0.5979  -0.5641  -0.5608  -0.5447  -0.4999  -0.4665  -0.4457
 -0.3453  -0.3021
 -- Virtual --
  0.1067   0.1467   0.1604   0.1792   0.1843   0.1915   0.2205   0.2264
  0.2367   0.2483   0.3155   0.3254   0.3573   0.3614   0.3904   0.4072
  0.4202   0.4456   0.4636   0.4832   0.4958   0.5232   0.5250   0.5281
  0.5393   0.5410   0.5751   0.5818   0.5935   0.6099   0.6177   0.6213
  0.6288   0.6478   0.6532   0.6627   0.6955   0.7039   0.7374   0.7593
  0.7914   0.8141   0.8334   0.8572   0.8686   0.8929   0.8977   0.9169
  0.9759   0.9972   1.0065   1.0221   1.0505   1.0771   1.0933   1.1043
  1.1333   1.1527   1.1708   1.2042   1.2192   1.2339   1.2572   1.2625
  1.2791   1.3046   1.3430   1.3542   1.3674   1.3926   1.4314   1.4513
  1.4795   1.4920   1.4937   1.5244   1.5395   1.5491   1.5761   1.5869
  1.6070   1.6261   1.6463   1.6859   1.7230   1.7406   1.7572   1.7794
  1.8462   1.8871   1.8946   1.9146   1.9549   2.0037   2.0569   2.0824
  2.1614   2.1705   2.2020   2.2200   2.2581   2.2756   2.3247   2.3940
  2.4265   2.4693   2.4991   2.5123   2.5678   2.5849   2.6188   2.6608
  2.6978   2.7021   2.7405   2.7522   2.7612   2.7750   2.8109   2.8454
  2.8710   2.8900   2.9471   2.9813   2.9859   3.0073   3.0272   3.0357
  3.0581   3.0707   3.1078   3.1474   3.1621   3.1984   3.2188   3.2528
  3.2661   3.2787   3.2933   3.3041   3.3161   3.3513   3.3690   3.3876
  3.3979   3.4197   3.4403   3.4616   3.4652   3.4767   3.4890   3.5016
  3.5117   3.5338   3.5482   3.5819   3.5939   3.6216   3.6225   3.6418
  3.6716   3.6792   3.7069   3.7407   3.7465   3.7932   3.8139   3.8456
  3.8618   3.8839   3.9079   3.9234   3.9359   3.9490   3.9610   3.9699
  3.9836   4.0286   4.0628   4.1086   4.1339   4.1657   4.1710   4.2051
  4.2260   4.2522   4.2650   4.2969   4.3106   4.3649   4.3764   4.4079
  4.4280   4.4399   4.4807   4.5017   4.5542   4.5644   4.5826   4.6483
  4.6714   4.7006   4.7198   4.7703   4.7912   4.8405   4.8449   4.8731
  4.9735   4.9948   5.0191   5.0405   5.0757   5.1279   5.1745   5.1817
  5.2162   5.3014   5.3541   5.4149   5.4270   5.4864   5.5315   5.5774
  5.6321   5.6867   5.7946   5.8543   5.8911   5.9860   6.0214   6.0402
  6.0980   6.3101   6.4444   6.4522   6.6892   9.4252  11.2943  12.7909
 13.9395  14.3704
 --------------------------------------------------------------
 
          Ground-State Mulliken Net Atomic Charges

     Atom                 Charge (a.u.)
  ----------------------------------------
      1 C                     0.033433
      2 S                    -0.001548
      3 C                    -0.241695
      4 C                    -0.246842
      5 C                    -0.182602
      6 H                     0.180516
      7 H                     0.186271
      8 C                    -0.370823
      9 H                     0.131090
     10 H                     0.136762
     11 H                     0.173088
     12 H                     0.202349
  ----------------------------------------
  Sum of atomic charges =     0.000000

 -----------------------------------------------------------------
                    Cartesian Multipole Moments
 -----------------------------------------------------------------
    Charge (ESU x 10^10)
                -0.0000
    Dipole Moment (Debye)
         X      -0.2512      Y      -0.6563      Z      -1.5676
       Tot       1.7179
    Quadrupole Moments (Debye-Ang)
        XX     -47.2355     XY       3.5371     YY     -36.6380
        XZ      -0.1074     YZ       1.4563     ZZ     -41.8236
    Octopole Moments (Debye-Ang^2)
       XXX     -20.1404    XXY     -19.5907    XYY      -2.6963
       YYY     -42.4228    XXZ      -6.8326    XYZ       1.9573
       YYZ      -4.8008    XZZ      -3.7510    YZZ     -10.5363
       ZZZ     -27.8875
    Hexadecapole Moments (Debye-Ang^3)
      XXXX     -90.1647   XXXY     -52.1348   XXYY    -106.9823
      XYYY     -20.1379   YYYY    -487.4242   XXXZ      -2.7449
      XXYZ      -6.8754   XYYZ      -2.0602   YYYZ     -13.1366
      XXZZ     -71.3679   XYZZ      -9.9146   YYZZ    -123.3204
      XZZZ      -1.7644   YZZZ     -17.5625   ZZZZ    -309.5056
 -----------------------------------------------------------------
 Total job time:  10.31s(wall), 540.90s(cpu) 
 Wed Dec 27 10:05:16 2023

        *************************************************************
        *                                                           *
        *  Thank you very much for using Q-Chem.  Have a nice day.  *
        *                                                           *
        *************************************************************


0 sent ACK to 0 
now end server 0 ... 
cleanup process ... done
remove work dirs ./qchem2793819.0 -- ./qchem2793819.0
rm -rf ./qchem2793819.0
rm -rf ./qchem2793819
