You are running Q-Chem version: 5.4.0

#
# job setting
#
local host:  exp-4-42
current dir: /home/rramji/project-csd799/aromodel/pndit-qchem/methylated-rotation-run
input file:  Dimethyl_Naphthalene_Dicarboximide_Phi_20_Theta_190_Thiophene_Hydrogenated_Improper.qcin
output file: 
nprocs     : 1
nthreads   : 64
#
# qchem installation setting
#
QC:          /cm/shared/apps/spack/cpu/opt/spack/linux-centos8-zen2/gcc-10.2.0/qchem-5.4-akfmr7b3t57bfs6qan3padb2wnb2i7cl
QCAUX:       /cm/shared/apps/spack/cpu/opt/spack/linux-centos8-zen2/gcc-10.2.0/qchem-5.4-akfmr7b3t57bfs6qan3padb2wnb2i7cl/qcaux
QCPROG:      /cm/shared/apps/spack/cpu/opt/spack/linux-centos8-zen2/gcc-10.2.0/qchem-5.4-akfmr7b3t57bfs6qan3padb2wnb2i7cl/exe/qcprog.exe
QCPROG_S:    /cm/shared/apps/spack/cpu/opt/spack/linux-centos8-zen2/gcc-10.2.0/qchem-5.4-akfmr7b3t57bfs6qan3padb2wnb2i7cl/exe/qcprog.exe_s
PARALLEL:    -DPARALLEL
QCMPI:       mpich
#
# qchem directory setting
#
qcrun:       qchem2792961
QCSCRATCH:   .
QCLOCALSCR:  
QCTMPDIR:    .
QCFILEPREF:  ./qchem2792961
QCSAVEDIR:   
workdirs:    ./qchem2792961
workdir0:    ./qchem2792961
partmpdirs =  
#
# parallel setting
#
QCRSH:           ssh
QCMPI:           mpich
QCMPIRUN:        /cm/shared/apps/spack/cpu/opt/spack/linux-centos8-zen2/gcc-10.2.0/qchem-5.4-akfmr7b3t57bfs6qan3padb2wnb2i7cl/bin/mpi/mpirun_qchem
QCMACHINEFILE:   ./qchem2792961/hostfile
exp-4-42

#
# env setting
#
exported envs:   QC QCAUX QCSCRATCH QCRUNNAME QCFILEPREF QCPROG QCPROG_S GUIFILE

Running Job 1 of 1 Dimethyl_Naphthalene_Dicarboximide_Phi_20_Theta_190_Thiophene_Hydrogenated_Improper.qcin
qchem Dimethyl_Naphthalene_Dicarboximide_Phi_20_Theta_190_Thiophene_Hydrogenated_Improper.qcin_2792961.0 ./qchem2792961/ 1
/cm/shared/apps/spack/cpu/opt/spack/linux-centos8-zen2/gcc-10.2.0/qchem-5.4-akfmr7b3t57bfs6qan3padb2wnb2i7cl/bin/mpi/mpirun_qchem -machinefile ./qchem2792961/hostfile -np 1 /cm/shared/apps/spack/cpu/opt/spack/linux-centos8-zen2/gcc-10.2.0/qchem-5.4-akfmr7b3t57bfs6qan3padb2wnb2i7cl/exe/qcprog.exe Dimethyl_Naphthalene_Dicarboximide_Phi_20_Theta_190_Thiophene_Hydrogenated_Improper.qcin_2792961.0 ./qchem2792961/

Process 0 of 1 is on exp-4-42 - thread support 0
initial socket setup ...start
initial socket setup ...done 
now start server 0 ... 
                  Welcome to Q-Chem
     A Quantum Leap Into The Future Of Chemistry


 Q-Chem 5.4, Q-Chem, Inc., Pleasanton, CA (2021)

 License issued to: University of California, San Diego (site)

 E. Epifanovsky,  A. T. B. Gilbert,  Xintian Feng,  Joonho Lee,  Yuezhi Mao,  
 N. Mardirossian,  P. Pokhilko,  A. White,  M. Wormit,  M. P. Coons,  
 A. L. Dempwolff,  Zhengting Gan,  D. Hait,  P. R. Horn,  L. D. Jacobson,  
 I. Kaliman,  J. Kussmann,  A. W. Lange,  Ka Un Lao,  D. S. Levine,  Jie Liu,  
 S. C. McKenzie,  A. F. Morrison,  K. Nanda,  F. Plasser,  D. R. Rehn,  
 M. L. Vidal,  Zhi-Qiang You,  Ying Zhu,  B. Alam,  B. Albrecht,  
 A. Aldossary,  E. Alguire,  J. H. Andersen,  D. Barton,  K. Begam,  A. Behn,  
 Y. A. Bernard,  E. J. Berquist,  H. Burton,  A. Carreras,  K. Carter-Fenk,  
 R. Chakraborty,  A. D. Chien,  K. D. Closser,  V. Cofer-Shabica,  
 S. Dasgupta,  Jia Deng,  M. de Wergifosse,  M. Diedenhofen,  Hainam Do,  
 S. Ehlert,  Po-Tung Fang,  S. Fatehi,  Qingguo Feng,  J. Gayvert,  
 Qinghui Ge,  G. Gidofalvi,  M. Goldey,  J. Gomes,  C. Gonzalez-Espinoza,  
 S. Gulania,  A. Gunina,  M. W. D. Hanson-Heine,  P. H. P. Harbach,  
 A. W. Hauser,  M. F. Herbst,  M. Hernandez Vera,  M. Hodecker,  
 Z. C. Holden,  S. Houck,  Xunkun Huang,  Kerwin Hui,  B. C. Huynh,  
 M. Ivanov,  Hyunjun Ji,  Hanjie Jiang,  B. Kaduk,  S. Kaehler,  
 K. Khistyaev,  Jaehoon Kim,  P. Klunzinger,  Z. Koczor-Benda,  
 Joong Hoon Koh,  D. Kosenkov,  L. Koulias,  T. Kowalczyk,  C. M. Krauter,  
 K. Kue,  A. Kunitsa,  T. Kus,  A. Landau,  K. V. Lawler,  D. Lefrancois,  
 S. Lehtola,  Rain Li,  Yi-Pei Li,  Jiashu Liang,  M. Liebenthal,  
 Hung-Hsuan Lin,  You-Sheng Lin,  Fenglai Liu,  Kuan-Yu Liu,  
 M. Loipersberger,  A. Luenser,  A. Manjanath,  P. Manohar,  E. Mansoor,  
 S. F. Manzer,  Shan-Ping Mao,  A. V. Marenich,  T. Markovich,  S. Mason,  
 S. A. Maurer,  P. F. McLaughlin,  M. F. S. J. Menger,  J.-M. Mewes,  
 S. A. Mewes,  P. Morgante,  J. W. Mullinax,  T. S. Nguyen-Beck,  
 K. J. Oosterbaan,  G. Paran,  Alexander C. Paul,  Suranjan K. Paul,  
 F. Pavosevic,  Zheng Pei,  S. Prager,  E. I. Proynov,  E. Ramos,  B. Rana,  
 A. E. Rask,  A. Rettig,  R. M. Richard,  F. Rob,  E. Rossomme,  T. Scheele,  
 M. Scheurer,  M. Schneider,  N. Sergueev,  S. M. Sharada,  W. Skomorowski,  
 D. W. Small,  C. J. Stein,  Yu-Chuan Su,  E. J. Sundstrom,  Zhen Tao,  
 J. Thirman,  T. Tsuchimochi,  N. M. Tubman,  S. P. Veccham,  O. Vydrov,  
 J. Wenzel,  J. Witte,  A. Yamada,  Kun Yao,  S. Yeganeh,  S. R. Yost,  
 A. Zech,  Igor Ying Zhang,  Xing Zhang,  Yu Zhang,  D. Zuev,  
 A. Aspuru-Guzik,  A. T. Bell,  N. A. Besley,  K. B. Bravaya,  B. R. Brooks,  
 D. Casanova,  Jeng-Da Chai,  S. Coriani,  C. J. Cramer,  
 A. E. DePrince, III,  R. A. DiStasio Jr.,  A. Dreuw,  B. D. Dunietz,  
 T. R. Furlani,  W. A. Goddard III,  S. Grimme,  S. Hammes-Schiffer,  
 T. Head-Gordon,  W. J. Hehre,  Chao-Ping Hsu,  T.-C. Jagau,  Yousung Jung,  
 A. Klamt,  Jing Kong,  D. S. Lambrecht,  WanZhen Liang,  N. J. Mayhall,  
 C. W. McCurdy,  J. B. Neaton,  C. Ochsenfeld,  J. A. Parkhill,  R. Peverati,  
 V. A. Rassolov,  Yihan Shao,  L. V. Slipchenko,  T. Stauch,  R. P. Steele,  
 J. E. Subotnik,  A. J. W. Thom,  A. Tkatchenko,  D. G. Truhlar,  
 T. Van Voorhis,  T. A. Wesolowski,  K. B. Whaley,  H. L. Woodcock III,  
 P. M. Zimmerman,  S. Faraji,  P. M. W. Gill,  M. Head-Gordon,  
 J. M. Herbert,  A. I. Krylov

 Contributors to earlier versions of Q-Chem not listed above: 
 R. D. Adamson,  B. Austin,  R. Baer,  J. Baker,  G. J. O. Beran,  
 K. Brandhorst,  S. T. Brown,  E. F. C. Byrd,  A. K. Chakraborty,  
 G. K. L. Chan,  Chun-Min Chang,  Yunqing Chen,  C.-L. Cheng,  
 Siu Hung Chien,  D. M. Chipman,  D. L. Crittenden,  H. Dachsel,  
 R. J. Doerksen,  A. D. Dutoi,  R. G. Edgar,  J. Fosso-Tande,  
 L. Fusti-Molnar,  D. Ghosh,  A. Ghysels,  A. Golubeva-Zadorozhnaya,  
 J. Gonthier,  M. S. Gordon,  S. R. Gwaltney,  G. Hawkins,  J. E. Herr,  
 A. Heyden,  S. Hirata,  E. G. Hohenstein,  G. Kedziora,  F. J. Keil,  
 C. Kelley,  Jihan Kim,  R. A. King,  R. Z. Khaliullin,  P. P. Korambath,  
 W. Kurlancheek,  A. Laurent,  A. M. Lee,  M. S. Lee,  S. V. Levchenko,  
 Ching Yeh Lin,  D. Liotard,  E. Livshits,  R. C. Lochan,  I. Lotan,  
 L. A. Martinez-Martinez,  P. E. Maslen,  N. Nair,  D. P. O'Neill,  
 D. Neuhauser,  E. Neuscamman,  C. M. Oana,  R. Olivares-Amaya,  R. Olson,  
 T. M. Perrine,  B. Peters,  P. A. Pieniazek,  A. Prociuk,  Y. M. Rhee,  
 J. Ritchie,  M. A. Rohrdanz,  E. Rosta,  N. J. Russ,  H. F. Schaefer III,  
 M. W. Schmidt,  N. E. Schultz,  S. Sharma,  N. Shenvi,  C. D. Sherrill,  
 A. C. Simmonett,  A. Sodt,  T. Stein,  D. Stuck,  K. S. Thanthiriwatte,  
 V. Vanovschi,  L. Vogt,  Tao Wang,  A. Warshel,  M. A. Watson,  
 C. F. Williams,  Q. Wu,  X. Xu,  Jun Yang,  W. Zhang,  Yan Zhao

 Please cite Q-Chem as follows:
 Y. Shao et al., Mol. Phys. 113, 184-215 (2015)
 DOI: 10.1080/00268976.2014.952696

 Q-Chem 5.4.0 for Intel X86 EM64T Linux

 Parts of Q-Chem use Armadillo 9.800.1 (Horizon Scraper).
 http://arma.sourceforge.net/

 Q-Chem begins on Wed Dec 27 10:04:25 2023  

 Host: 
0

     Scratch files written to ./qchem2792961//
 May1621 |scratch|qcdevops|jenkins|workspace|build_RNUM    
 Parallel job on  1  processors
 Processing $rem in /cm/shared/apps/spack/cpu/opt/spack/linux-centos8-zen2/gcc-10.2.0/qchem-5.4-akfmr7b3t57bfs6qan3padb2wnb2i7cl/config/preferences:
 Processing $rem in /home/rramji/.qchemrc:
 Symmetry turned off for PCM/SM12/SMD calculation
 Core orbitals will be frozen

 Checking the input file for inconsistencies... 	...done.

 Q-Chem warning in module forms1/BasisType.C, line 2236:

 You are not using the predefined 5D/6D in this basis set.


--------------------------------------------------------------
User input:
--------------------------------------------------------------
$molecule
0 1
C	-0.171951	-0.368118	-0.212630
S	0.099149	0.377282	1.367870
C	0.659249	1.916282	0.692270
C	0.169249	0.569782	-1.198030
C	0.620649	1.810382	-0.706130
H	0.088649	0.348282	-2.272530
H	0.921949	2.638182	-1.365230
C	-0.171951	-1.846318	-0.212630
H	-1.235451	-1.846918	-0.400730
H	-0.000551	-2.285618	-1.184230
H	-0.312951	-2.557318	0.588070
H	0.960349	2.743882	1.343370
$end

$rem
JOBTYPE		SP
EXCHANGE	HF
CORRELATION	pRIMP2
BASIS		cc-pvtz
METHOD		rimp2
AUX_BASIS	rimp2-cc-pvtz
SOLVENT_METHOD	PCM
PURECART	11111
SYMMETRY	false
MEM_TOTAL	110000
SCF_CONVERGENCE = 6
THRESH=10
GUI = 2
$end



$solvent
dielectric 4.90
$end
--------------------------------------------------------------
 ----------------------------------------------------------------
             Standard Nuclear Orientation (Angstroms)
    I     Atom           X                Y                Z
 ----------------------------------------------------------------
    1      C      -0.1719510000    -0.3681180000    -0.2126300000
    2      S       0.0991490000     0.3772820000     1.3678700000
    3      C       0.6592490000     1.9162820000     0.6922700000
    4      C       0.1692490000     0.5697820000    -1.1980300000
    5      C       0.6206490000     1.8103820000    -0.7061300000
    6      H       0.0886490000     0.3482820000    -2.2725300000
    7      H       0.9219490000     2.6381820000    -1.3652300000
    8      C      -0.1719510000    -1.8463180000    -0.2126300000
    9      H      -1.2354510000    -1.8469180000    -0.4007300000
   10      H      -0.0005510000    -2.2856180000    -1.1842300000
   11      H      -0.3129510000    -2.5573180000     0.5880700000
   12      H       0.9603490000     2.7438820000     1.3433700000
 ----------------------------------------------------------------
 Nuclear Repulsion Energy =         270.45929655 hartrees
 There are       26 alpha and       26 beta electrons
 Requested basis set is cc-pVTZ
 There are 98 shells and 268 basis functions

 Total QAlloc Memory Limit 110000 MB
 Mega-Array Size       188 MB
 MEM_STATIC part       192 MB
 Discretize the solute cavity surface with Lebedev spheres
	Using 110 Lebedev grid points for each H atom
	Using 194 Lebedev grid points for other atoms
	Atomic van der Waals radii will be scaled by 1.20
 Remove points where switching function is < 1.0e-08
 Keep 890 surface tesserae and discard 934 interior tesserae
 Molecular Surface Area = 138.055 Angst**2

                       Distance Matrix (Angstroms)
             C (  1)   S (  2)   C (  3)   C (  4)   C (  5)   H (  6)
   S (  2)  1.768360
   C (  3)  2.593881  1.771629
   C (  4)  1.402529  2.574065  2.372003
   C (  5)  2.370152  2.574338  1.402935  1.408835
   H (  6)  2.196436  3.640531  3.402095  1.100049  2.207797
   H (  7)  3.400433  3.641223  2.196237  2.207440  1.100203  2.600235
   C (  8)  1.478200  2.741509  3.958143  2.631534  3.774018  3.021154
   H (  9)  1.831192  3.139454  4.352725  2.906769  4.112690  3.174237
   H ( 10)  2.156430  3.689741  4.648930  2.860478  4.170334  2.851277
   H ( 11)  2.335294  3.064277  4.579206  3.633376  4.650093  4.097173
   H ( 12)  3.658932  2.518543  1.095223  3.436752  2.277558  4.424194
             H (  7)   C (  8)   H (  9)   H ( 10)   H ( 11)
   C (  8)  4.757714
   H (  9)  5.069591  1.080007
   H ( 10)  5.012741  1.079986  1.526862
   H ( 11)  5.686262  1.080057  1.527547  1.820017
   H ( 12)  2.710934  4.977266  5.379486  5.710338  5.504043
 
 Requested basis set is rimp2-cc-pVTZ
 There are 207 shells and 707 basis functions
 A cutoff of  1.0D-10 yielded   4371 shell pairs
 There are     32807 function pairs (     42430 Cartesian)
 Smallest overlap matrix eigenvalue = 1.35E-04

 Scale SEOQF with 1.000000e+00/1.000000e-01/1.000000e-01

 Standard Electronic Orientation quadrupole field applied
 Nucleus-field energy     =     0.0000000042 hartrees
 Guess from superposition of atomic densities
 Warning:  Energy on first SCF cycle will be non-variational
 SAD guess density has 52.000000 electrons

 -----------------------------------------------------------------------
  General SCF calculation program by
  Eric Jon Sundstrom, Paul Horn, Yuezhi Mao, Dmitri Zuev, Alec White,
  David Stuck, Shaama M.S., Shane Yost, Joonho Lee, David Small,
  Daniel Levine, Susi Lehtola, Hugh Burton, Evgeny Epifanovsky,
  Bang C. Huynh
 -----------------------------------------------------------------------
 Hartree-Fock
 using 64 threads for integral computing
 -------------------------------------------------------
 OpenMP Integral computing Module                
 Release: version 1.0, May 2013, Q-Chem Inc. Pittsburgh 
 -------------------------------------------------------
 A restricted SCF calculation will be
 performed using DIIS
 SCF converges when DIIS error is below 1.0e-06
 ---------------------------------------
  Cycle       Energy         DIIS error
 ---------------------------------------
    1    -592.5728929402      3.22e-02  
    2    -590.2922242596      2.18e-03  
    3    -590.3528239149      8.28e-04  
    4    -590.3599728587      3.98e-04  
    5    -590.3619812867      7.16e-05  
    6    -590.3621063223      3.16e-05  
    7    -590.3621364642      1.44e-05  
    8    -590.3621457766      5.73e-06  
    9    -590.3621473132      1.94e-06  
   10    -590.3621474588      6.32e-07  Convergence criterion met
 ---------------------------------------
 SCF time:   CPU 493.16s  wall 10.00s 

************** Final PCM Free Energy Summary **************
 G_electrostatic  =      -0.00609857 hartree =      -3.82690975 kcal/mol
 G_cavitation     =       0.00000000 hartree =       0.00000000 kcal/mol
 G_dispersion     =       0.00000000 hartree =       0.00000000 kcal/mol
 G_repulsion      =       0.00000000 hartree =       0.00000000 kcal/mol
 --------------------------------------------------
 Non-electrostatic Free Energy =       0.00000000 hartree =       0.00000000 kcal/mol
 Total                         =      -0.00609857 hartree =      -3.82690975 kcal/mol
 --------------------------------------------------
 SCF Energy (H0 + V/2)                       =    -590.36214746 
 Solute Internal Energy (H0)                 =    -590.35604889 
 Total Free Energy (H0 + V/2 + non-elec)     =    -590.36214746 hartree
                                             = -370457.83885030 kcal/mol
***********************************************************

 SCF   energy in the final basis set =     -590.3621474588
 Total energy in the final basis set =     -590.3621474588


 --------------------------------------------------------------
  Generalized many-body perturbation theory program
  by Joonho Lee, Fazle Rob, Xintian Feng, Evgeny Epifanovsky

 No regularization used 
 (reg. param. = 0.0000e+00)
  (P|Q)^-1/2 Time:  CPU 5.58 s  wall 0.09 s

 In RI-MP2 calculation: 
 # of frozen core orbitals: 10

 Components of the RIMP2 correlation energy:
        aaaa    correlation energy =        -0.1255459871 a.u.
        abab    correlation energy =        -0.7520183842 a.u.
        bbbb    correlation energy =        -0.1255459871 a.u.
        non-Brillouin singles      =        -0.0000000000 a.u.
        total same-spin energy     =        -0.2510919741 a.u.
        total opposite-spin energy =        -0.7520183842 a.u.

 Total  RIMP2   correlation energy =        -1.0031103583 a.u.
        RIMP2         total energy =      -591.3652578171 a.u.

 RI-MP2 Energy Time:  CPU 24.53 s  wall 0.44 s
 
 --------------------------------------------------------------
 
                    Orbital Energies (a.u.)
 --------------------------------------------------------------
 
 Alpha MOs
 -- Occupied --
-91.9764 -11.2880 -11.2643 -11.2430 -11.2347 -11.2251  -8.9764  -6.6573
 -6.6568  -6.6562  -1.1570  -1.0393  -0.9714  -0.9194  -0.7547  -0.7220
 -0.6700  -0.5974  -0.5629  -0.5553  -0.5507  -0.4969  -0.4671  -0.4523
 -0.3457  -0.2969
 -- Virtual --
  0.1055   0.1470   0.1602   0.1818   0.1891   0.1923   0.2191   0.2220
  0.2305   0.2374   0.3122   0.3299   0.3563   0.3602   0.3931   0.4112
  0.4295   0.4469   0.4543   0.4881   0.4903   0.5148   0.5247   0.5344
  0.5481   0.5597   0.5713   0.5787   0.5893   0.6157   0.6168   0.6280
  0.6316   0.6381   0.6476   0.6580   0.6786   0.7141   0.7444   0.7641
  0.7820   0.8120   0.8384   0.8516   0.8653   0.8837   0.8994   0.9288
  0.9470   0.9808   1.0200   1.0338   1.0647   1.0705   1.0936   1.0986
  1.1277   1.1508   1.1704   1.1871   1.2200   1.2270   1.2440   1.2643
  1.2882   1.3308   1.3406   1.3621   1.3838   1.4055   1.4196   1.4377
  1.4613   1.4920   1.4930   1.5115   1.5245   1.5530   1.5738   1.5900
  1.6064   1.6320   1.6430   1.6754   1.7407   1.7562   1.7635   1.7872
  1.8299   1.8939   1.9045   1.9230   1.9547   2.0156   2.0462   2.0928
  2.1398   2.1693   2.2098   2.2280   2.2443   2.2642   2.3004   2.3935
  2.4266   2.4649   2.4850   2.5263   2.5519   2.5921   2.6126   2.6693
  2.7022   2.7244   2.7305   2.7605   2.7639   2.7919   2.8069   2.8351
  2.8460   2.8792   2.9167   2.9707   3.0013   3.0199   3.0237   3.0579
  3.0748   3.0851   3.1104   3.1475   3.1613   3.2055   3.2097   3.2505
  3.2563   3.2650   3.2861   3.3124   3.3185   3.3496   3.3522   3.3908
  3.3990   3.4184   3.4229   3.4607   3.4651   3.4747   3.4881   3.4993
  3.5159   3.5314   3.5441   3.5579   3.5954   3.6179   3.6225   3.6498
  3.6615   3.6928   3.7208   3.7236   3.7441   3.8001   3.8125   3.8417
  3.8687   3.9031   3.9161   3.9211   3.9386   3.9504   3.9700   3.9819
  3.9999   4.0153   4.0848   4.1068   4.1445   4.1696   4.1934   4.2049
  4.2318   4.2528   4.2714   4.2962   4.3224   4.3638   4.3681   4.3936
  4.4340   4.4495   4.4802   4.4947   4.5402   4.5603   4.5930   4.6316
  4.6739   4.7034   4.7272   4.7530   4.7885   4.8107   4.8402   4.9296
  4.9456   5.0014   5.0234   5.0392   5.0864   5.1409   5.1689   5.1772
  5.2124   5.2993   5.3508   5.4152   5.4255   5.4940   5.5227   5.5966
  5.6335   5.6902   5.7782   5.8073   5.9062   5.9813   6.0040   6.0406
  6.1114   6.3248   6.4364   6.4557   6.6754   9.4100  11.2961  12.7524
 13.8734  14.2549
 --------------------------------------------------------------
 
          Ground-State Mulliken Net Atomic Charges

     Atom                 Charge (a.u.)
  ----------------------------------------
      1 C                     0.021529
      2 S                    -0.000890
      3 C                    -0.245237
      4 C                    -0.239750
      5 C                    -0.184089
      6 H                     0.180914
      7 H                     0.186594
      8 C                    -0.368064
      9 H                     0.135439
     10 H                     0.138001
     11 H                     0.172051
     12 H                     0.203500
  ----------------------------------------
  Sum of atomic charges =     0.000000

 -----------------------------------------------------------------
                    Cartesian Multipole Moments
 -----------------------------------------------------------------
    Charge (ESU x 10^10)
                -0.0000
    Dipole Moment (Debye)
         X      -0.3417      Y      -0.7498      Z      -1.2237
       Tot       1.4752
    Quadrupole Moments (Debye-Ang)
        XX     -47.0685     XY       4.3658     YY     -37.0782
        XZ       0.2164     YZ       0.7610     ZZ     -41.6573
    Octopole Moments (Debye-Ang^2)
       XXX     -25.9444    XXY     -16.6590    XYY      -3.0509
       YYY     -42.8286    XXZ      -6.6114    XYZ       1.4448
       YYZ      -3.5224    XZZ      -5.2480    YZZ     -10.9475
       ZZZ     -28.4416
    Hexadecapole Moments (Debye-Ang^3)
      XXXX    -107.1108   XXXY     -66.4812   XXYY    -105.0261
      XYYY     -31.8329   YYYY    -477.0562   XXXZ      -3.4874
      XXYZ      -6.2068   XYYZ       0.2255   YYYZ     -15.7017
      XXZZ     -73.5545   XYZZ     -11.9098   YYZZ    -119.0126
      XZZZ      -2.2421   YZZZ     -15.0545   ZZZZ    -307.8054
 -----------------------------------------------------------------
 Total job time:  11.68s(wall), 545.61s(cpu) 
 Wed Dec 27 10:04:36 2023

        *************************************************************
        *                                                           *
        *  Thank you very much for using Q-Chem.  Have a nice day.  *
        *                                                           *
        *************************************************************


0 sent ACK to 0 
now end server 0 ... 
cleanup process ... done
remove work dirs ./qchem2792961.0 -- ./qchem2792961.0
rm -rf ./qchem2792961.0
rm -rf ./qchem2792961
