You are running Q-Chem version: 5.4.0

#
# job setting
#
local host:  exp-4-42
current dir: /home/rramji/project-csd799/aromodel/pndit-qchem/methylated-rotation-run
input file:  Dimethyl_Naphthalene_Dicarboximide_Phi_20_Theta_180_Thiophene_Hydrogenated_Improper.qcin
output file: 
nprocs     : 1
nthreads   : 64
#
# qchem installation setting
#
QC:          /cm/shared/apps/spack/cpu/opt/spack/linux-centos8-zen2/gcc-10.2.0/qchem-5.4-akfmr7b3t57bfs6qan3padb2wnb2i7cl
QCAUX:       /cm/shared/apps/spack/cpu/opt/spack/linux-centos8-zen2/gcc-10.2.0/qchem-5.4-akfmr7b3t57bfs6qan3padb2wnb2i7cl/qcaux
QCPROG:      /cm/shared/apps/spack/cpu/opt/spack/linux-centos8-zen2/gcc-10.2.0/qchem-5.4-akfmr7b3t57bfs6qan3padb2wnb2i7cl/exe/qcprog.exe
QCPROG_S:    /cm/shared/apps/spack/cpu/opt/spack/linux-centos8-zen2/gcc-10.2.0/qchem-5.4-akfmr7b3t57bfs6qan3padb2wnb2i7cl/exe/qcprog.exe_s
PARALLEL:    -DPARALLEL
QCMPI:       mpich
#
# qchem directory setting
#
qcrun:       qchem2792639
QCSCRATCH:   .
QCLOCALSCR:  
QCTMPDIR:    .
QCFILEPREF:  ./qchem2792639
QCSAVEDIR:   
workdirs:    ./qchem2792639
workdir0:    ./qchem2792639
partmpdirs =  
#
# parallel setting
#
QCRSH:           ssh
QCMPI:           mpich
QCMPIRUN:        /cm/shared/apps/spack/cpu/opt/spack/linux-centos8-zen2/gcc-10.2.0/qchem-5.4-akfmr7b3t57bfs6qan3padb2wnb2i7cl/bin/mpi/mpirun_qchem
QCMACHINEFILE:   ./qchem2792639/hostfile
exp-4-42

#
# env setting
#
exported envs:   QC QCAUX QCSCRATCH QCRUNNAME QCFILEPREF QCPROG QCPROG_S GUIFILE

Running Job 1 of 1 Dimethyl_Naphthalene_Dicarboximide_Phi_20_Theta_180_Thiophene_Hydrogenated_Improper.qcin
qchem Dimethyl_Naphthalene_Dicarboximide_Phi_20_Theta_180_Thiophene_Hydrogenated_Improper.qcin_2792639.0 ./qchem2792639/ 1
/cm/shared/apps/spack/cpu/opt/spack/linux-centos8-zen2/gcc-10.2.0/qchem-5.4-akfmr7b3t57bfs6qan3padb2wnb2i7cl/bin/mpi/mpirun_qchem -machinefile ./qchem2792639/hostfile -np 1 /cm/shared/apps/spack/cpu/opt/spack/linux-centos8-zen2/gcc-10.2.0/qchem-5.4-akfmr7b3t57bfs6qan3padb2wnb2i7cl/exe/qcprog.exe Dimethyl_Naphthalene_Dicarboximide_Phi_20_Theta_180_Thiophene_Hydrogenated_Improper.qcin_2792639.0 ./qchem2792639/

Process 0 of 1 is on exp-4-42 - thread support 0
initial socket setup ...start
initial socket setup ...done 
now start server 0 ... 
                  Welcome to Q-Chem
     A Quantum Leap Into The Future Of Chemistry


 Q-Chem 5.4, Q-Chem, Inc., Pleasanton, CA (2021)

 License issued to: University of California, San Diego (site)

 E. Epifanovsky,  A. T. B. Gilbert,  Xintian Feng,  Joonho Lee,  Yuezhi Mao,  
 N. Mardirossian,  P. Pokhilko,  A. White,  M. Wormit,  M. P. Coons,  
 A. L. Dempwolff,  Zhengting Gan,  D. Hait,  P. R. Horn,  L. D. Jacobson,  
 I. Kaliman,  J. Kussmann,  A. W. Lange,  Ka Un Lao,  D. S. Levine,  Jie Liu,  
 S. C. McKenzie,  A. F. Morrison,  K. Nanda,  F. Plasser,  D. R. Rehn,  
 M. L. Vidal,  Zhi-Qiang You,  Ying Zhu,  B. Alam,  B. Albrecht,  
 A. Aldossary,  E. Alguire,  J. H. Andersen,  D. Barton,  K. Begam,  A. Behn,  
 Y. A. Bernard,  E. J. Berquist,  H. Burton,  A. Carreras,  K. Carter-Fenk,  
 R. Chakraborty,  A. D. Chien,  K. D. Closser,  V. Cofer-Shabica,  
 S. Dasgupta,  Jia Deng,  M. de Wergifosse,  M. Diedenhofen,  Hainam Do,  
 S. Ehlert,  Po-Tung Fang,  S. Fatehi,  Qingguo Feng,  J. Gayvert,  
 Qinghui Ge,  G. Gidofalvi,  M. Goldey,  J. Gomes,  C. Gonzalez-Espinoza,  
 S. Gulania,  A. Gunina,  M. W. D. Hanson-Heine,  P. H. P. Harbach,  
 A. W. Hauser,  M. F. Herbst,  M. Hernandez Vera,  M. Hodecker,  
 Z. C. Holden,  S. Houck,  Xunkun Huang,  Kerwin Hui,  B. C. Huynh,  
 M. Ivanov,  Hyunjun Ji,  Hanjie Jiang,  B. Kaduk,  S. Kaehler,  
 K. Khistyaev,  Jaehoon Kim,  P. Klunzinger,  Z. Koczor-Benda,  
 Joong Hoon Koh,  D. Kosenkov,  L. Koulias,  T. Kowalczyk,  C. M. Krauter,  
 K. Kue,  A. Kunitsa,  T. Kus,  A. Landau,  K. V. Lawler,  D. Lefrancois,  
 S. Lehtola,  Rain Li,  Yi-Pei Li,  Jiashu Liang,  M. Liebenthal,  
 Hung-Hsuan Lin,  You-Sheng Lin,  Fenglai Liu,  Kuan-Yu Liu,  
 M. Loipersberger,  A. Luenser,  A. Manjanath,  P. Manohar,  E. Mansoor,  
 S. F. Manzer,  Shan-Ping Mao,  A. V. Marenich,  T. Markovich,  S. Mason,  
 S. A. Maurer,  P. F. McLaughlin,  M. F. S. J. Menger,  J.-M. Mewes,  
 S. A. Mewes,  P. Morgante,  J. W. Mullinax,  T. S. Nguyen-Beck,  
 K. J. Oosterbaan,  G. Paran,  Alexander C. Paul,  Suranjan K. Paul,  
 F. Pavosevic,  Zheng Pei,  S. Prager,  E. I. Proynov,  E. Ramos,  B. Rana,  
 A. E. Rask,  A. Rettig,  R. M. Richard,  F. Rob,  E. Rossomme,  T. Scheele,  
 M. Scheurer,  M. Schneider,  N. Sergueev,  S. M. Sharada,  W. Skomorowski,  
 D. W. Small,  C. J. Stein,  Yu-Chuan Su,  E. J. Sundstrom,  Zhen Tao,  
 J. Thirman,  T. Tsuchimochi,  N. M. Tubman,  S. P. Veccham,  O. Vydrov,  
 J. Wenzel,  J. Witte,  A. Yamada,  Kun Yao,  S. Yeganeh,  S. R. Yost,  
 A. Zech,  Igor Ying Zhang,  Xing Zhang,  Yu Zhang,  D. Zuev,  
 A. Aspuru-Guzik,  A. T. Bell,  N. A. Besley,  K. B. Bravaya,  B. R. Brooks,  
 D. Casanova,  Jeng-Da Chai,  S. Coriani,  C. J. Cramer,  
 A. E. DePrince, III,  R. A. DiStasio Jr.,  A. Dreuw,  B. D. Dunietz,  
 T. R. Furlani,  W. A. Goddard III,  S. Grimme,  S. Hammes-Schiffer,  
 T. Head-Gordon,  W. J. Hehre,  Chao-Ping Hsu,  T.-C. Jagau,  Yousung Jung,  
 A. Klamt,  Jing Kong,  D. S. Lambrecht,  WanZhen Liang,  N. J. Mayhall,  
 C. W. McCurdy,  J. B. Neaton,  C. Ochsenfeld,  J. A. Parkhill,  R. Peverati,  
 V. A. Rassolov,  Yihan Shao,  L. V. Slipchenko,  T. Stauch,  R. P. Steele,  
 J. E. Subotnik,  A. J. W. Thom,  A. Tkatchenko,  D. G. Truhlar,  
 T. Van Voorhis,  T. A. Wesolowski,  K. B. Whaley,  H. L. Woodcock III,  
 P. M. Zimmerman,  S. Faraji,  P. M. W. Gill,  M. Head-Gordon,  
 J. M. Herbert,  A. I. Krylov

 Contributors to earlier versions of Q-Chem not listed above: 
 R. D. Adamson,  B. Austin,  R. Baer,  J. Baker,  G. J. O. Beran,  
 K. Brandhorst,  S. T. Brown,  E. F. C. Byrd,  A. K. Chakraborty,  
 G. K. L. Chan,  Chun-Min Chang,  Yunqing Chen,  C.-L. Cheng,  
 Siu Hung Chien,  D. M. Chipman,  D. L. Crittenden,  H. Dachsel,  
 R. J. Doerksen,  A. D. Dutoi,  R. G. Edgar,  J. Fosso-Tande,  
 L. Fusti-Molnar,  D. Ghosh,  A. Ghysels,  A. Golubeva-Zadorozhnaya,  
 J. Gonthier,  M. S. Gordon,  S. R. Gwaltney,  G. Hawkins,  J. E. Herr,  
 A. Heyden,  S. Hirata,  E. G. Hohenstein,  G. Kedziora,  F. J. Keil,  
 C. Kelley,  Jihan Kim,  R. A. King,  R. Z. Khaliullin,  P. P. Korambath,  
 W. Kurlancheek,  A. Laurent,  A. M. Lee,  M. S. Lee,  S. V. Levchenko,  
 Ching Yeh Lin,  D. Liotard,  E. Livshits,  R. C. Lochan,  I. Lotan,  
 L. A. Martinez-Martinez,  P. E. Maslen,  N. Nair,  D. P. O'Neill,  
 D. Neuhauser,  E. Neuscamman,  C. M. Oana,  R. Olivares-Amaya,  R. Olson,  
 T. M. Perrine,  B. Peters,  P. A. Pieniazek,  A. Prociuk,  Y. M. Rhee,  
 J. Ritchie,  M. A. Rohrdanz,  E. Rosta,  N. J. Russ,  H. F. Schaefer III,  
 M. W. Schmidt,  N. E. Schultz,  S. Sharma,  N. Shenvi,  C. D. Sherrill,  
 A. C. Simmonett,  A. Sodt,  T. Stein,  D. Stuck,  K. S. Thanthiriwatte,  
 V. Vanovschi,  L. Vogt,  Tao Wang,  A. Warshel,  M. A. Watson,  
 C. F. Williams,  Q. Wu,  X. Xu,  Jun Yang,  W. Zhang,  Yan Zhao

 Please cite Q-Chem as follows:
 Y. Shao et al., Mol. Phys. 113, 184-215 (2015)
 DOI: 10.1080/00268976.2014.952696

 Q-Chem 5.4.0 for Intel X86 EM64T Linux

 Parts of Q-Chem use Armadillo 9.800.1 (Horizon Scraper).
 http://arma.sourceforge.net/

 Q-Chem begins on Wed Dec 27 10:04:12 2023  

 Host: 
0

     Scratch files written to ./qchem2792639//
 May1621 |scratch|qcdevops|jenkins|workspace|build_RNUM    
 Parallel job on  1  processors
 Processing $rem in /cm/shared/apps/spack/cpu/opt/spack/linux-centos8-zen2/gcc-10.2.0/qchem-5.4-akfmr7b3t57bfs6qan3padb2wnb2i7cl/config/preferences:
 Processing $rem in /home/rramji/.qchemrc:
 Symmetry turned off for PCM/SM12/SMD calculation
 Core orbitals will be frozen

 Checking the input file for inconsistencies... 	...done.

 Q-Chem warning in module forms1/BasisType.C, line 2236:

 You are not using the predefined 5D/6D in this basis set.


--------------------------------------------------------------
User input:
--------------------------------------------------------------
$molecule
0 1
C	-0.171711	-0.368118	-0.213580
S	0.099389	0.377282	1.366920
C	0.659489	1.916282	0.691320
C	0.169489	0.569782	-1.198980
C	0.620889	1.810382	-0.707080
H	0.088889	0.348282	-2.273480
H	0.922189	2.638182	-1.366180
C	-0.171711	-1.846318	-0.213580
H	-1.251711	-1.846918	-0.214080
H	-0.171711	-2.285618	-1.200180
H	-0.171611	-2.557318	0.599420
H	0.960589	2.743882	1.342420
$end

$rem
JOBTYPE		SP
EXCHANGE	HF
CORRELATION	pRIMP2
BASIS		cc-pvtz
METHOD		rimp2
AUX_BASIS	rimp2-cc-pvtz
SOLVENT_METHOD	PCM
PURECART	11111
SYMMETRY	false
MEM_TOTAL	110000
SCF_CONVERGENCE = 6
THRESH=10
GUI = 2
$end



$solvent
dielectric 4.90
$end
--------------------------------------------------------------
 ----------------------------------------------------------------
             Standard Nuclear Orientation (Angstroms)
    I     Atom           X                Y                Z
 ----------------------------------------------------------------
    1      C      -0.1717110000    -0.3681180000    -0.2135800000
    2      S       0.0993890000     0.3772820000     1.3669200000
    3      C       0.6594890000     1.9162820000     0.6913200000
    4      C       0.1694890000     0.5697820000    -1.1989800000
    5      C       0.6208890000     1.8103820000    -0.7070800000
    6      H       0.0888890000     0.3482820000    -2.2734800000
    7      H       0.9221890000     2.6381820000    -1.3661800000
    8      C      -0.1717110000    -1.8463180000    -0.2135800000
    9      H      -1.2517110000    -1.8469180000    -0.2140800000
   10      H      -0.1717110000    -2.2856180000    -1.2001800000
   11      H      -0.1716110000    -2.5573180000     0.5994200000
   12      H       0.9605890000     2.7438820000     1.3424200000
 ----------------------------------------------------------------
 Nuclear Repulsion Energy =         270.51298526 hartrees
 There are       26 alpha and       26 beta electrons
 Requested basis set is cc-pVTZ
 There are 98 shells and 268 basis functions

 Total QAlloc Memory Limit 110000 MB
 Mega-Array Size       188 MB
 MEM_STATIC part       192 MB
 Discretize the solute cavity surface with Lebedev spheres
	Using 110 Lebedev grid points for each H atom
	Using 194 Lebedev grid points for other atoms
	Atomic van der Waals radii will be scaled by 1.20
 Remove points where switching function is < 1.0e-08
 Keep 881 surface tesserae and discard 943 interior tesserae
 Molecular Surface Area = 138.037 Angst**2

                       Distance Matrix (Angstroms)
             C (  1)   S (  2)   C (  3)   C (  4)   C (  5)   H (  6)
   S (  2)  1.768360
   C (  3)  2.593881  1.771629
   C (  4)  1.402529  2.574065  2.372003
   C (  5)  2.370152  2.574338  1.402935  1.408835
   H (  6)  2.196436  3.640531  3.402095  1.100049  2.207797
   H (  7)  3.400433  3.641223  2.196237  2.207440  1.100203  2.600235
   C (  8)  1.478200  2.741509  3.958143  2.631534  3.774018  3.021154
   H (  9)  1.831188  3.045012  4.316724  2.971578  4.138300  3.295033
   H ( 10)  2.156429  3.708711  4.682374  2.875713  4.201021  2.856101
   H ( 11)  2.335287  3.045386  4.551073  3.623444  4.627289  4.094377
   H ( 12)  3.658932  2.518543  1.095223  3.436752  2.277558  4.424194
             H (  7)   C (  8)   H (  9)   H ( 10)   H ( 11)
   C (  8)  4.757714
   H (  9)  5.115594  1.080000
   H ( 10)  5.046581  1.079983  1.526843
   H ( 11)  5.661555  1.080042  1.527438  1.819995
   H ( 12)  2.710934  4.977266  5.328453  5.748286  5.471439
 
 Requested basis set is rimp2-cc-pVTZ
 There are 207 shells and 707 basis functions
 A cutoff of  1.0D-10 yielded   4365 shell pairs
 There are     32795 function pairs (     42416 Cartesian)
 Smallest overlap matrix eigenvalue = 1.35E-04

 Scale SEOQF with 1.000000e+00/1.000000e-01/1.000000e-01

 Standard Electronic Orientation quadrupole field applied
 Nucleus-field energy     =     0.0000000042 hartrees
 Guess from superposition of atomic densities
 Warning:  Energy on first SCF cycle will be non-variational
 SAD guess density has 52.000000 electrons

 -----------------------------------------------------------------------
  General SCF calculation program by
  Eric Jon Sundstrom, Paul Horn, Yuezhi Mao, Dmitri Zuev, Alec White,
  David Stuck, Shaama M.S., Shane Yost, Joonho Lee, David Small,
  Daniel Levine, Susi Lehtola, Hugh Burton, Evgeny Epifanovsky,
  Bang C. Huynh
 -----------------------------------------------------------------------
 Hartree-Fock
 using 64 threads for integral computing
 -------------------------------------------------------
 OpenMP Integral computing Module                
 Release: version 1.0, May 2013, Q-Chem Inc. Pittsburgh 
 -------------------------------------------------------
 A restricted SCF calculation will be
 performed using DIIS
 SCF converges when DIIS error is below 1.0e-06
 ---------------------------------------
  Cycle       Energy         DIIS error
 ---------------------------------------
    1    -592.5734453547      3.22e-02  
    2    -590.2920853903      2.18e-03  
    3    -590.3527849304      8.32e-04  
    4    -590.3599944574      3.98e-04  
    5    -590.3620154229      7.19e-05  
    6    -590.3621423863      3.18e-05  
    7    -590.3621731754      1.45e-05  
    8    -590.3621826550      5.75e-06  
    9    -590.3621841978      1.94e-06  
   10    -590.3621843420      6.26e-07  Convergence criterion met
 ---------------------------------------
 SCF time:   CPU 478.02s  wall 8.00s 

************** Final PCM Free Energy Summary **************
 G_electrostatic  =      -0.00606469 hartree =      -3.80564937 kcal/mol
 G_cavitation     =       0.00000000 hartree =       0.00000000 kcal/mol
 G_dispersion     =       0.00000000 hartree =       0.00000000 kcal/mol
 G_repulsion      =       0.00000000 hartree =       0.00000000 kcal/mol
 --------------------------------------------------
 Non-electrostatic Free Energy =       0.00000000 hartree =       0.00000000 kcal/mol
 Total                         =      -0.00606469 hartree =      -3.80564937 kcal/mol
 --------------------------------------------------
 SCF Energy (H0 + V/2)                       =    -590.36218434 
 Solute Internal Energy (H0)                 =    -590.35611965 
 Total Free Energy (H0 + V/2 + non-elec)     =    -590.36218434 hartree
                                             = -370457.86199483 kcal/mol
***********************************************************

 SCF   energy in the final basis set =     -590.3621843420
 Total energy in the final basis set =     -590.3621843420


 --------------------------------------------------------------
  Generalized many-body perturbation theory program
  by Joonho Lee, Fazle Rob, Xintian Feng, Evgeny Epifanovsky

 No regularization used 
 (reg. param. = 0.0000e+00)
  (P|Q)^-1/2 Time:  CPU 5.21 s  wall 0.08 s

 In RI-MP2 calculation: 
 # of frozen core orbitals: 10

 Components of the RIMP2 correlation energy:
        aaaa    correlation energy =        -0.1254927949 a.u.
        abab    correlation energy =        -0.7519565836 a.u.
        bbbb    correlation energy =        -0.1254927949 a.u.
        non-Brillouin singles      =        -0.0000000000 a.u.
        total same-spin energy     =        -0.2509855898 a.u.
        total opposite-spin energy =        -0.7519565836 a.u.

 Total  RIMP2   correlation energy =        -1.0029421733 a.u.
        RIMP2         total energy =      -591.3651265153 a.u.

 RI-MP2 Energy Time:  CPU 23.26 s  wall 0.40 s
 
 --------------------------------------------------------------
 
                    Orbital Energies (a.u.)
 --------------------------------------------------------------
 
 Alpha MOs
 -- Occupied --
-91.9767 -11.2877 -11.2648 -11.2430 -11.2346 -11.2251  -8.9767  -6.6576
 -6.6571  -6.6565  -1.1571  -1.0393  -0.9715  -0.9194  -0.7551  -0.7218
 -0.6700  -0.5974  -0.5634  -0.5546  -0.5511  -0.4948  -0.4685  -0.4536
 -0.3458  -0.2970
 -- Virtual --
  0.1049   0.1469   0.1602   0.1822   0.1887   0.1973   0.2157   0.2215
  0.2286   0.2369   0.3103   0.3340   0.3531   0.3628   0.3933   0.4095
  0.4323   0.4480   0.4538   0.4880   0.4932   0.5106   0.5245   0.5322
  0.5518   0.5610   0.5717   0.5767   0.5938   0.6158   0.6165   0.6293
  0.6315   0.6338   0.6469   0.6588   0.6798   0.7128   0.7481   0.7623
  0.7808   0.8073   0.8412   0.8496   0.8647   0.8823   0.8967   0.9299
  0.9444   0.9774   1.0272   1.0387   1.0689   1.0762   1.0868   1.0992
  1.1285   1.1483   1.1705   1.1789   1.2189   1.2273   1.2445   1.2626
  1.2950   1.3280   1.3423   1.3589   1.3979   1.4038   1.4118   1.4412
  1.4670   1.4924   1.4987   1.5083   1.5288   1.5489   1.5667   1.5931
  1.6066   1.6333   1.6436   1.6742   1.7389   1.7537   1.7678   1.7943
  1.8250   1.8971   1.9080   1.9235   1.9476   2.0212   2.0455   2.0941
  2.1406   2.1684   2.2102   2.2259   2.2415   2.2679   2.3086   2.4001
  2.4277   2.4631   2.4819   2.5299   2.5504   2.5952   2.6163   2.6673
  2.6968   2.7197   2.7327   2.7604   2.7677   2.7823   2.8075   2.8275
  2.8479   2.8818   2.9168   2.9687   3.0045   3.0196   3.0228   3.0620
  3.0835   3.1009   3.1033   3.1345   3.1582   3.2069   3.2114   3.2480
  3.2540   3.2609   3.2904   3.3097   3.3255   3.3442   3.3570   3.3939
  3.3966   3.4196   3.4302   3.4604   3.4661   3.4743   3.4922   3.4948
  3.5123   3.5183   3.5448   3.5554   3.5977   3.6092   3.6193   3.6528
  3.6597   3.6960   3.7248   3.7328   3.7461   3.7975   3.8065   3.8500
  3.8729   3.9044   3.9156   3.9213   3.9387   3.9541   3.9784   3.9874
  3.9997   4.0147   4.0843   4.1042   4.1419   4.1703   4.1969   4.2034
  4.2338   4.2414   4.2763   4.2991   4.3205   4.3618   4.3751   4.3860
  4.4413   4.4517   4.4762   4.5033   4.5425   4.5543   4.5890   4.6310
  4.6723   4.7003   4.7140   4.7657   4.7797   4.8129   4.8323   4.9230
  4.9640   5.0024   5.0238   5.0398   5.0846   5.1443   5.1659   5.1788
  5.2073   5.2983   5.3514   5.4140   5.4266   5.4970   5.5197   5.5965
  5.6257   5.7014   5.7752   5.8116   5.9105   5.9854   6.0211   6.0344
  6.1131   6.3263   6.4368   6.4565   6.6685   9.3978  11.2833  12.7646
 13.8987  14.2075
 --------------------------------------------------------------
 
          Ground-State Mulliken Net Atomic Charges

     Atom                 Charge (a.u.)
  ----------------------------------------
      1 C                     0.012731
      2 S                    -0.004012
      3 C                    -0.241780
      4 C                    -0.230016
      5 C                    -0.187878
      6 H                     0.182448
      7 H                     0.185962
      8 C                    -0.364803
      9 H                     0.135805
     10 H                     0.135578
     11 H                     0.171745
     12 H                     0.204219
  ----------------------------------------
  Sum of atomic charges =     0.000000

 -----------------------------------------------------------------
                    Cartesian Multipole Moments
 -----------------------------------------------------------------
    Charge (ESU x 10^10)
                -0.0000
    Dipole Moment (Debye)
         X      -0.3421      Y      -0.7237      Z      -1.0956
       Tot       1.3569
    Quadrupole Moments (Debye-Ang)
        XX     -47.0950     XY       4.3456     YY     -37.0573
        XZ       0.3496     YZ       0.5335     ZZ     -41.6762
    Octopole Moments (Debye-Ang^2)
       XXX     -25.8414    XXY     -16.5251    XYY      -2.8245
       YYY     -42.7026    XXZ      -6.6726    XYZ       1.0378
       YYZ      -3.0302    XZZ      -5.3373    YZZ     -10.8853
       ZZZ     -28.5865
    Hexadecapole Moments (Debye-Ang^3)
      XXXX    -107.0969   XXXY     -66.6990   XXYY    -105.3751
      XYYY     -32.6894   YYYY    -476.8810   XXXZ      -3.7600
      XXYZ      -5.8572   XYYZ       1.4744   YYYZ     -15.9632
      XXZZ     -73.5809   XYZZ     -11.6168   YYZZ    -118.8350
      XZZZ      -1.9156   YZZZ     -14.5024   ZZZZ    -307.3008
 -----------------------------------------------------------------
 Total job time:  10.24s(wall), 542.71s(cpu) 
 Wed Dec 27 10:04:22 2023

        *************************************************************
        *                                                           *
        *  Thank you very much for using Q-Chem.  Have a nice day.  *
        *                                                           *
        *************************************************************


0 sent ACK to 0 
now end server 0 ... 
cleanup process ... done
remove work dirs ./qchem2792639.0 -- ./qchem2792639.0
rm -rf ./qchem2792639.0
rm -rf ./qchem2792639
