You are running Q-Chem version: 5.4.0

#
# job setting
#
local host:  exp-3-56
current dir: /home/rramji/project-csd799/aromodel/pndit-qchem/methylated-rotation-run
input file:  Dimethyl_Naphthalene_Dicarboximide_Phi_0_Theta_280_Thiophene_Hydrogenated_Improper.qcin
output file: 
nprocs     : 1
nthreads   : 64
#
# qchem installation setting
#
QC:          /cm/shared/apps/spack/cpu/opt/spack/linux-centos8-zen2/gcc-10.2.0/qchem-5.4-akfmr7b3t57bfs6qan3padb2wnb2i7cl
QCAUX:       /cm/shared/apps/spack/cpu/opt/spack/linux-centos8-zen2/gcc-10.2.0/qchem-5.4-akfmr7b3t57bfs6qan3padb2wnb2i7cl/qcaux
QCPROG:      /cm/shared/apps/spack/cpu/opt/spack/linux-centos8-zen2/gcc-10.2.0/qchem-5.4-akfmr7b3t57bfs6qan3padb2wnb2i7cl/exe/qcprog.exe
QCPROG_S:    /cm/shared/apps/spack/cpu/opt/spack/linux-centos8-zen2/gcc-10.2.0/qchem-5.4-akfmr7b3t57bfs6qan3padb2wnb2i7cl/exe/qcprog.exe_s
PARALLEL:    -DPARALLEL
QCMPI:       mpich
#
# qchem directory setting
#
qcrun:       qchem2759325
QCSCRATCH:   .
QCLOCALSCR:  
QCTMPDIR:    .
QCFILEPREF:  ./qchem2759325
QCSAVEDIR:   
workdirs:    ./qchem2759325
workdir0:    ./qchem2759325
partmpdirs =  
#
# parallel setting
#
QCRSH:           ssh
QCMPI:           mpich
QCMPIRUN:        /cm/shared/apps/spack/cpu/opt/spack/linux-centos8-zen2/gcc-10.2.0/qchem-5.4-akfmr7b3t57bfs6qan3padb2wnb2i7cl/bin/mpi/mpirun_qchem
QCMACHINEFILE:   ./qchem2759325/hostfile
exp-3-56

#
# env setting
#
exported envs:   QC QCAUX QCSCRATCH QCRUNNAME QCFILEPREF QCPROG QCPROG_S GUIFILE

Running Job 1 of 1 Dimethyl_Naphthalene_Dicarboximide_Phi_0_Theta_280_Thiophene_Hydrogenated_Improper.qcin
qchem Dimethyl_Naphthalene_Dicarboximide_Phi_0_Theta_280_Thiophene_Hydrogenated_Improper.qcin_2759325.0 ./qchem2759325/ 1
/cm/shared/apps/spack/cpu/opt/spack/linux-centos8-zen2/gcc-10.2.0/qchem-5.4-akfmr7b3t57bfs6qan3padb2wnb2i7cl/bin/mpi/mpirun_qchem -machinefile ./qchem2759325/hostfile -np 1 /cm/shared/apps/spack/cpu/opt/spack/linux-centos8-zen2/gcc-10.2.0/qchem-5.4-akfmr7b3t57bfs6qan3padb2wnb2i7cl/exe/qcprog.exe Dimethyl_Naphthalene_Dicarboximide_Phi_0_Theta_280_Thiophene_Hydrogenated_Improper.qcin_2759325.0 ./qchem2759325/

Process 0 of 1 is on exp-3-56 - thread support 0
initial socket setup ...start
initial socket setup ...done 
now start server 0 ... 
                  Welcome to Q-Chem
     A Quantum Leap Into The Future Of Chemistry


 Q-Chem 5.4, Q-Chem, Inc., Pleasanton, CA (2021)

 License issued to: University of California, San Diego (site)

 E. Epifanovsky,  A. T. B. Gilbert,  Xintian Feng,  Joonho Lee,  Yuezhi Mao,  
 N. Mardirossian,  P. Pokhilko,  A. White,  M. Wormit,  M. P. Coons,  
 A. L. Dempwolff,  Zhengting Gan,  D. Hait,  P. R. Horn,  L. D. Jacobson,  
 I. Kaliman,  J. Kussmann,  A. W. Lange,  Ka Un Lao,  D. S. Levine,  Jie Liu,  
 S. C. McKenzie,  A. F. Morrison,  K. Nanda,  F. Plasser,  D. R. Rehn,  
 M. L. Vidal,  Zhi-Qiang You,  Ying Zhu,  B. Alam,  B. Albrecht,  
 A. Aldossary,  E. Alguire,  J. H. Andersen,  D. Barton,  K. Begam,  A. Behn,  
 Y. A. Bernard,  E. J. Berquist,  H. Burton,  A. Carreras,  K. Carter-Fenk,  
 R. Chakraborty,  A. D. Chien,  K. D. Closser,  V. Cofer-Shabica,  
 S. Dasgupta,  Jia Deng,  M. de Wergifosse,  M. Diedenhofen,  Hainam Do,  
 S. Ehlert,  Po-Tung Fang,  S. Fatehi,  Qingguo Feng,  J. Gayvert,  
 Qinghui Ge,  G. Gidofalvi,  M. Goldey,  J. Gomes,  C. Gonzalez-Espinoza,  
 S. Gulania,  A. Gunina,  M. W. D. Hanson-Heine,  P. H. P. Harbach,  
 A. W. Hauser,  M. F. Herbst,  M. Hernandez Vera,  M. Hodecker,  
 Z. C. Holden,  S. Houck,  Xunkun Huang,  Kerwin Hui,  B. C. Huynh,  
 M. Ivanov,  Hyunjun Ji,  Hanjie Jiang,  B. Kaduk,  S. Kaehler,  
 K. Khistyaev,  Jaehoon Kim,  P. Klunzinger,  Z. Koczor-Benda,  
 Joong Hoon Koh,  D. Kosenkov,  L. Koulias,  T. Kowalczyk,  C. M. Krauter,  
 K. Kue,  A. Kunitsa,  T. Kus,  A. Landau,  K. V. Lawler,  D. Lefrancois,  
 S. Lehtola,  Rain Li,  Yi-Pei Li,  Jiashu Liang,  M. Liebenthal,  
 Hung-Hsuan Lin,  You-Sheng Lin,  Fenglai Liu,  Kuan-Yu Liu,  
 M. Loipersberger,  A. Luenser,  A. Manjanath,  P. Manohar,  E. Mansoor,  
 S. F. Manzer,  Shan-Ping Mao,  A. V. Marenich,  T. Markovich,  S. Mason,  
 S. A. Maurer,  P. F. McLaughlin,  M. F. S. J. Menger,  J.-M. Mewes,  
 S. A. Mewes,  P. Morgante,  J. W. Mullinax,  T. S. Nguyen-Beck,  
 K. J. Oosterbaan,  G. Paran,  Alexander C. Paul,  Suranjan K. Paul,  
 F. Pavosevic,  Zheng Pei,  S. Prager,  E. I. Proynov,  E. Ramos,  B. Rana,  
 A. E. Rask,  A. Rettig,  R. M. Richard,  F. Rob,  E. Rossomme,  T. Scheele,  
 M. Scheurer,  M. Schneider,  N. Sergueev,  S. M. Sharada,  W. Skomorowski,  
 D. W. Small,  C. J. Stein,  Yu-Chuan Su,  E. J. Sundstrom,  Zhen Tao,  
 J. Thirman,  T. Tsuchimochi,  N. M. Tubman,  S. P. Veccham,  O. Vydrov,  
 J. Wenzel,  J. Witte,  A. Yamada,  Kun Yao,  S. Yeganeh,  S. R. Yost,  
 A. Zech,  Igor Ying Zhang,  Xing Zhang,  Yu Zhang,  D. Zuev,  
 A. Aspuru-Guzik,  A. T. Bell,  N. A. Besley,  K. B. Bravaya,  B. R. Brooks,  
 D. Casanova,  Jeng-Da Chai,  S. Coriani,  C. J. Cramer,  
 A. E. DePrince, III,  R. A. DiStasio Jr.,  A. Dreuw,  B. D. Dunietz,  
 T. R. Furlani,  W. A. Goddard III,  S. Grimme,  S. Hammes-Schiffer,  
 T. Head-Gordon,  W. J. Hehre,  Chao-Ping Hsu,  T.-C. Jagau,  Yousung Jung,  
 A. Klamt,  Jing Kong,  D. S. Lambrecht,  WanZhen Liang,  N. J. Mayhall,  
 C. W. McCurdy,  J. B. Neaton,  C. Ochsenfeld,  J. A. Parkhill,  R. Peverati,  
 V. A. Rassolov,  Yihan Shao,  L. V. Slipchenko,  T. Stauch,  R. P. Steele,  
 J. E. Subotnik,  A. J. W. Thom,  A. Tkatchenko,  D. G. Truhlar,  
 T. Van Voorhis,  T. A. Wesolowski,  K. B. Whaley,  H. L. Woodcock III,  
 P. M. Zimmerman,  S. Faraji,  P. M. W. Gill,  M. Head-Gordon,  
 J. M. Herbert,  A. I. Krylov

 Contributors to earlier versions of Q-Chem not listed above: 
 R. D. Adamson,  B. Austin,  R. Baer,  J. Baker,  G. J. O. Beran,  
 K. Brandhorst,  S. T. Brown,  E. F. C. Byrd,  A. K. Chakraborty,  
 G. K. L. Chan,  Chun-Min Chang,  Yunqing Chen,  C.-L. Cheng,  
 Siu Hung Chien,  D. M. Chipman,  D. L. Crittenden,  H. Dachsel,  
 R. J. Doerksen,  A. D. Dutoi,  R. G. Edgar,  J. Fosso-Tande,  
 L. Fusti-Molnar,  D. Ghosh,  A. Ghysels,  A. Golubeva-Zadorozhnaya,  
 J. Gonthier,  M. S. Gordon,  S. R. Gwaltney,  G. Hawkins,  J. E. Herr,  
 A. Heyden,  S. Hirata,  E. G. Hohenstein,  G. Kedziora,  F. J. Keil,  
 C. Kelley,  Jihan Kim,  R. A. King,  R. Z. Khaliullin,  P. P. Korambath,  
 W. Kurlancheek,  A. Laurent,  A. M. Lee,  M. S. Lee,  S. V. Levchenko,  
 Ching Yeh Lin,  D. Liotard,  E. Livshits,  R. C. Lochan,  I. Lotan,  
 L. A. Martinez-Martinez,  P. E. Maslen,  N. Nair,  D. P. O'Neill,  
 D. Neuhauser,  E. Neuscamman,  C. M. Oana,  R. Olivares-Amaya,  R. Olson,  
 T. M. Perrine,  B. Peters,  P. A. Pieniazek,  A. Prociuk,  Y. M. Rhee,  
 J. Ritchie,  M. A. Rohrdanz,  E. Rosta,  N. J. Russ,  H. F. Schaefer III,  
 M. W. Schmidt,  N. E. Schultz,  S. Sharma,  N. Shenvi,  C. D. Sherrill,  
 A. C. Simmonett,  A. Sodt,  T. Stein,  D. Stuck,  K. S. Thanthiriwatte,  
 V. Vanovschi,  L. Vogt,  Tao Wang,  A. Warshel,  M. A. Watson,  
 C. F. Williams,  Q. Wu,  X. Xu,  Jun Yang,  W. Zhang,  Yan Zhao

 Please cite Q-Chem as follows:
 Y. Shao et al., Mol. Phys. 113, 184-215 (2015)
 DOI: 10.1080/00268976.2014.952696

 Q-Chem 5.4.0 for Intel X86 EM64T Linux

 Parts of Q-Chem use Armadillo 9.800.1 (Horizon Scraper).
 http://arma.sourceforge.net/

 Q-Chem begins on Wed Dec 27 10:06:43 2023  

 Host: 
0

     Scratch files written to ./qchem2759325//
 May1621 |scratch|qcdevops|jenkins|workspace|build_RNUM    
 Parallel job on  1  processors
 Processing $rem in /cm/shared/apps/spack/cpu/opt/spack/linux-centos8-zen2/gcc-10.2.0/qchem-5.4-akfmr7b3t57bfs6qan3padb2wnb2i7cl/config/preferences:
 Processing $rem in /home/rramji/.qchemrc:
 Symmetry turned off for PCM/SM12/SMD calculation
 Core orbitals will be frozen

 Checking the input file for inconsistencies... 	...done.

 Q-Chem warning in module forms1/BasisType.C, line 2236:

 You are not using the predefined 5D/6D in this basis set.


--------------------------------------------------------------
User input:
--------------------------------------------------------------
$molecule
0 1
C	-0.001764	-0.399361	-0.209169
S	-0.001964	0.393839	1.371331
C	-0.001964	2.031539	0.695731
C	-0.001964	0.598639	-1.194569
C	-0.002064	1.918839	-0.702669
H	-0.001864	0.362939	-2.269069
H	-0.002064	2.799839	-1.361769
C	-0.001764	-1.877561	-0.209169
H	0.186336	-1.878161	-1.272669
H	0.969836	-2.316861	-0.037769
H	-0.802464	-2.588561	-0.350169
H	-0.002064	2.912239	1.346831
$end

$rem
JOBTYPE		SP
EXCHANGE	HF
CORRELATION	pRIMP2
BASIS		cc-pvtz
METHOD		rimp2
AUX_BASIS	rimp2-cc-pvtz
SOLVENT_METHOD	PCM
PURECART	11111
SYMMETRY	false
MEM_TOTAL	110000
SCF_CONVERGENCE = 6
THRESH=10
GUI = 2
$end



$solvent
dielectric 4.90
$end
--------------------------------------------------------------
 ----------------------------------------------------------------
             Standard Nuclear Orientation (Angstroms)
    I     Atom           X                Y                Z
 ----------------------------------------------------------------
    1      C      -0.0017640000    -0.3993610000    -0.2091690000
    2      S      -0.0019640000     0.3938390000     1.3713310000
    3      C      -0.0019640000     2.0315390000     0.6957310000
    4      C      -0.0019640000     0.5986390000    -1.1945690000
    5      C      -0.0020640000     1.9188390000    -0.7026690000
    6      H      -0.0018640000     0.3629390000    -2.2690690000
    7      H      -0.0020640000     2.7998390000    -1.3617690000
    8      C      -0.0017640000    -1.8775610000    -0.2091690000
    9      H       0.1863360000    -1.8781610000    -1.2726690000
   10      H       0.9698360000    -2.3168610000    -0.0377690000
   11      H      -0.8024640000    -2.5885610000    -0.3501690000
   12      H      -0.0020640000     2.9122390000     1.3468310000
 ----------------------------------------------------------------
 Nuclear Repulsion Energy =         269.88104560 hartrees
 There are       26 alpha and       26 beta electrons
 Requested basis set is cc-pVTZ
 There are 98 shells and 268 basis functions

 Total QAlloc Memory Limit 110000 MB
 Mega-Array Size       188 MB
 MEM_STATIC part       192 MB
 Discretize the solute cavity surface with Lebedev spheres
	Using 110 Lebedev grid points for each H atom
	Using 194 Lebedev grid points for other atoms
	Atomic van der Waals radii will be scaled by 1.20
 Remove points where switching function is < 1.0e-08
 Keep 889 surface tesserae and discard 935 interior tesserae
 Molecular Surface Area = 138.228 Angst**2

                       Distance Matrix (Angstroms)
             C (  1)   S (  2)   C (  3)   C (  4)   C (  5)   H (  6)
   S (  2)  1.768374
   C (  3)  2.593862  1.771580
   C (  4)  1.402504  2.574060  2.372011
   C (  5)  2.370146  2.574316  1.402934  1.408863
   H (  6)  2.196426  3.640531  3.402097  1.100048  2.207812
   H (  7)  3.400495  3.641246  2.196268  2.207541  1.100261  2.600322
   C (  8)  1.478200  2.767172  4.012469  2.665067  3.828341  3.043522
   H (  9)  1.831192  3.491157  4.381302  2.485175  3.844165  2.459830
   H ( 10)  2.156430  3.205909  4.515639  3.283705  4.396343  3.619976
   H ( 11)  2.335294  3.535403  4.804168  3.392942  4.591465  3.610331
   H ( 12)  3.658938  2.518519  1.095246  3.436780  2.277563  4.424213
             H (  7)   C (  8)   H (  9)   H ( 10)   H ( 11)
   C (  8)  4.817319
   H (  9)  4.682640  1.080007
   H ( 10)  5.373843  1.079986  1.526862
   H ( 11)  5.540652  1.080057  1.527547  1.820017
   H ( 12)  2.710931  5.036201  5.463077  5.495925  5.811992
 
 Requested basis set is rimp2-cc-pVTZ
 There are 207 shells and 707 basis functions
 A cutoff of  1.0D-10 yielded   4373 shell pairs
 There are     32761 function pairs (     42345 Cartesian)
 Smallest overlap matrix eigenvalue = 1.19E-04

 Scale SEOQF with 1.000000e+00/1.000000e-01/1.000000e-01

 Standard Electronic Orientation quadrupole field applied
 Nucleus-field energy     =     0.0000000022 hartrees
 Guess from superposition of atomic densities
 Warning:  Energy on first SCF cycle will be non-variational
 SAD guess density has 52.000000 electrons

 -----------------------------------------------------------------------
  General SCF calculation program by
  Eric Jon Sundstrom, Paul Horn, Yuezhi Mao, Dmitri Zuev, Alec White,
  David Stuck, Shaama M.S., Shane Yost, Joonho Lee, David Small,
  Daniel Levine, Susi Lehtola, Hugh Burton, Evgeny Epifanovsky,
  Bang C. Huynh
 -----------------------------------------------------------------------
 Hartree-Fock
 using 64 threads for integral computing
 -------------------------------------------------------
 OpenMP Integral computing Module                
 Release: version 1.0, May 2013, Q-Chem Inc. Pittsburgh 
 -------------------------------------------------------
 A restricted SCF calculation will be
 performed using DIIS
 SCF converges when DIIS error is below 1.0e-06
 ---------------------------------------
  Cycle       Energy         DIIS error
 ---------------------------------------
    1    -592.5712146358      3.22e-02  
    2    -590.3054804063      2.15e-03  
    3    -590.3654250137      7.72e-04  
    4    -590.3719808253      3.77e-04  
    5    -590.3737538824      6.96e-05  
    6    -590.3738745372      2.99e-05  
    7    -590.3739043064      1.46e-05  
    8    -590.3739139585      5.59e-06  
    9    -590.3739154940      1.98e-06  
   10    -590.3739156220      5.74e-07  Convergence criterion met
 ---------------------------------------
 SCF time:   CPU 502.51s  wall 9.00s 

************** Final PCM Free Energy Summary **************
 G_electrostatic  =      -0.00574226 hartree =      -3.60332546 kcal/mol
 G_cavitation     =       0.00000000 hartree =       0.00000000 kcal/mol
 G_dispersion     =       0.00000000 hartree =       0.00000000 kcal/mol
 G_repulsion      =       0.00000000 hartree =       0.00000000 kcal/mol
 --------------------------------------------------
 Non-electrostatic Free Energy =       0.00000000 hartree =       0.00000000 kcal/mol
 Total                         =      -0.00574226 hartree =      -3.60332546 kcal/mol
 --------------------------------------------------
 SCF Energy (H0 + V/2)                       =    -590.37391562 
 Solute Internal Energy (H0)                 =    -590.36817336 
 Total Free Energy (H0 + V/2 + non-elec)     =    -590.37391562 hartree
                                             = -370465.22348414 kcal/mol
***********************************************************

 SCF   energy in the final basis set =     -590.3739156220
 Total energy in the final basis set =     -590.3739156220


 --------------------------------------------------------------
  Generalized many-body perturbation theory program
  by Joonho Lee, Fazle Rob, Xintian Feng, Evgeny Epifanovsky

 No regularization used 
 (reg. param. = 0.0000e+00)
  (P|Q)^-1/2 Time:  CPU 5.35 s  wall 0.09 s

 In RI-MP2 calculation: 
 # of frozen core orbitals: 10

 Components of the RIMP2 correlation energy:
        aaaa    correlation energy =        -0.1254253882 a.u.
        abab    correlation energy =        -0.7511672133 a.u.
        bbbb    correlation energy =        -0.1254253882 a.u.
        non-Brillouin singles      =        -0.0000000000 a.u.
        total same-spin energy     =        -0.2508507765 a.u.
        total opposite-spin energy =        -0.7511672133 a.u.

 Total  RIMP2   correlation energy =        -1.0020179898 a.u.
        RIMP2         total energy =      -591.3759336118 a.u.

 RI-MP2 Energy Time:  CPU 23.85 s  wall 0.43 s
 
 --------------------------------------------------------------
 
                    Orbital Energies (a.u.)
 --------------------------------------------------------------
 
 Alpha MOs
 -- Occupied --
-91.9750 -11.2853 -11.2688 -11.2430 -11.2410 -11.2236  -8.9751  -6.6560
 -6.6554  -6.6549  -1.1570  -1.0380  -0.9729  -0.9194  -0.7545  -0.7243
 -0.6727  -0.5972  -0.5709  -0.5596  -0.5390  -0.5004  -0.4676  -0.4374
 -0.3450  -0.3126
 -- Virtual --
  0.1047   0.1481   0.1600   0.1768   0.1927   0.1957   0.2108   0.2284
  0.2379   0.2539   0.3094   0.3380   0.3661   0.3755   0.3933   0.3947
  0.4166   0.4531   0.4581   0.4628   0.4958   0.5135   0.5331   0.5359
  0.5402   0.5611   0.5677   0.5821   0.5991   0.6099   0.6170   0.6221
  0.6360   0.6519   0.6602   0.6683   0.6889   0.7143   0.7280   0.7499
  0.7848   0.7920   0.8227   0.8690   0.8715   0.8853   0.9122   0.9178
  0.9660   0.9853   0.9996   1.0095   1.0623   1.0730   1.1143   1.1270
  1.1335   1.1611   1.1715   1.1917   1.2121   1.2228   1.2448   1.2586
  1.2907   1.3191   1.3278   1.3483   1.3971   1.4074   1.4103   1.4490
  1.4751   1.4789   1.5133   1.5345   1.5445   1.5510   1.5658   1.5735
  1.6026   1.6262   1.6578   1.6851   1.7077   1.7268   1.7650   1.8173
  1.8193   1.8876   1.9066   1.9262   1.9354   1.9828   2.0536   2.0838
  2.1481   2.1773   2.1802   2.2211   2.2479   2.2916   2.3270   2.4178
  2.4240   2.4658   2.5046   2.5123   2.5739   2.5995   2.6207   2.6601
  2.6782   2.7103   2.7217   2.7306   2.7572   2.7908   2.8313   2.8521
  2.8561   2.8870   2.9170   2.9243   2.9675   3.0154   3.0190   3.0486
  3.0695   3.1104   3.1236   3.1599   3.1824   3.2132   3.2261   3.2347
  3.2438   3.2734   3.3005   3.3104   3.3262   3.3425   3.3524   3.3771
  3.3887   3.4063   3.4333   3.4470   3.4520   3.4664   3.4889   3.4969
  3.5110   3.5139   3.5486   3.5963   3.6085   3.6294   3.6465   3.6616
  3.6869   3.7000   3.7068   3.7407   3.7460   3.7736   3.7876   3.8388
  3.8467   3.8734   3.9059   3.9284   3.9325   3.9422   3.9650   3.9732
  3.9924   4.0406   4.0494   4.0836   4.1087   4.1572   4.1665   4.1828
  4.2181   4.2259   4.2549   4.2876   4.3053   4.3662   4.3755   4.3994
  4.4096   4.4522   4.4843   4.5015   4.5521   4.5831   4.6327   4.6541
  4.6873   4.6939   4.7097   4.7860   4.8032   4.8259   4.8381   4.8680
  4.9600   4.9795   5.0163   5.0577   5.0656   5.1296   5.1844   5.2218
  5.2358   5.2899   5.3673   5.4148   5.4250   5.4916   5.5350   5.5987
  5.6352   5.7377   5.8114   5.8284   5.8614   5.9126   6.0119   6.0732
  6.1257   6.2998   6.4179   6.4772   6.6741   9.4066  11.2842  12.8003
 13.9909  14.2710
 --------------------------------------------------------------
 
          Ground-State Mulliken Net Atomic Charges

     Atom                 Charge (a.u.)
  ----------------------------------------
      1 C                     0.034440
      2 S                    -0.009062
      3 C                    -0.227842
      4 C                    -0.219722
      5 C                    -0.202194
      6 H                     0.183726
      7 H                     0.186606
      8 C                    -0.355105
      9 H                     0.118136
     10 H                     0.134908
     11 H                     0.151698
     12 H                     0.204410
  ----------------------------------------
  Sum of atomic charges =     0.000000

 -----------------------------------------------------------------
                    Cartesian Multipole Moments
 -----------------------------------------------------------------
    Charge (ESU x 10^10)
                -0.0000
    Dipole Moment (Debye)
         X       0.1368      Y      -0.3225      Z      -1.7734
       Tot       1.8076
    Quadrupole Moments (Debye-Ang)
        XX     -47.4812     XY      -0.0794     YY     -35.9910
        XZ       0.1170     YZ       2.1488     ZZ     -42.1011
    Octopole Moments (Debye-Ang^2)
       XXX      -0.0264    XXY     -23.2623    XYY      -0.7600
       YYY     -40.4754    XXZ      -7.0529    XYZ      -0.4829
       YYZ      -6.1892    XZZ      -0.2079    YZZ      -9.6070
       ZZZ     -27.7304
    Hexadecapole Moments (Debye-Ang^3)
      XXXX     -65.2627   XXXY       0.4195   XXYY    -111.1419
      XYYY       4.1004   YYYY    -499.8724   XXXZ       0.3369
      XXYZ      -7.2745   XYYZ       1.6009   YYYZ      -5.7255
      XXZZ     -70.1952   XYZZ       0.5849   YYZZ    -128.5785
      XZZZ      -0.1890   YZZZ     -19.8318   ZZZZ    -308.6418
 -----------------------------------------------------------------
 Total job time:  10.55s(wall), 560.46s(cpu) 
 Wed Dec 27 10:06:53 2023

        *************************************************************
        *                                                           *
        *  Thank you very much for using Q-Chem.  Have a nice day.  *
        *                                                           *
        *************************************************************


0 sent ACK to 0 
now end server 0 ... 
cleanup process ... done
remove work dirs ./qchem2759325.0 -- ./qchem2759325.0
rm -rf ./qchem2759325.0
rm -rf ./qchem2759325
