You are running Q-Chem version: 5.4.0

#
# job setting
#
local host:  exp-6-47
current dir: /home/rramji/project-csd799/aromodel/pndit-qchem/methylated-rotation-run
input file:  Dimethyl_Naphthalene_Dicarboximide_Phi_30_Theta_0_Thiophene_Hydrogenated_Improper.qcin
output file: 
nprocs     : 1
nthreads   : 64
#
# qchem installation setting
#
QC:          /cm/shared/apps/spack/cpu/opt/spack/linux-centos8-zen2/gcc-10.2.0/qchem-5.4-akfmr7b3t57bfs6qan3padb2wnb2i7cl
QCAUX:       /cm/shared/apps/spack/cpu/opt/spack/linux-centos8-zen2/gcc-10.2.0/qchem-5.4-akfmr7b3t57bfs6qan3padb2wnb2i7cl/qcaux
QCPROG:      /cm/shared/apps/spack/cpu/opt/spack/linux-centos8-zen2/gcc-10.2.0/qchem-5.4-akfmr7b3t57bfs6qan3padb2wnb2i7cl/exe/qcprog.exe
QCPROG_S:    /cm/shared/apps/spack/cpu/opt/spack/linux-centos8-zen2/gcc-10.2.0/qchem-5.4-akfmr7b3t57bfs6qan3padb2wnb2i7cl/exe/qcprog.exe_s
PARALLEL:    -DPARALLEL
QCMPI:       mpich
#
# qchem directory setting
#
qcrun:       qchem2749164
QCSCRATCH:   .
QCLOCALSCR:  
QCTMPDIR:    .
QCFILEPREF:  ./qchem2749164
QCSAVEDIR:   
workdirs:    ./qchem2749164
workdir0:    ./qchem2749164
partmpdirs =  
#
# parallel setting
#
QCRSH:           ssh
QCMPI:           mpich
QCMPIRUN:        /cm/shared/apps/spack/cpu/opt/spack/linux-centos8-zen2/gcc-10.2.0/qchem-5.4-akfmr7b3t57bfs6qan3padb2wnb2i7cl/bin/mpi/mpirun_qchem
QCMACHINEFILE:   ./qchem2749164/hostfile
exp-6-47

#
# env setting
#
exported envs:   QC QCAUX QCSCRATCH QCRUNNAME QCFILEPREF QCPROG QCPROG_S GUIFILE

Running Job 1 of 1 Dimethyl_Naphthalene_Dicarboximide_Phi_30_Theta_0_Thiophene_Hydrogenated_Improper.qcin
qchem Dimethyl_Naphthalene_Dicarboximide_Phi_30_Theta_0_Thiophene_Hydrogenated_Improper.qcin_2749164.0 ./qchem2749164/ 1
/cm/shared/apps/spack/cpu/opt/spack/linux-centos8-zen2/gcc-10.2.0/qchem-5.4-akfmr7b3t57bfs6qan3padb2wnb2i7cl/bin/mpi/mpirun_qchem -machinefile ./qchem2749164/hostfile -np 1 /cm/shared/apps/spack/cpu/opt/spack/linux-centos8-zen2/gcc-10.2.0/qchem-5.4-akfmr7b3t57bfs6qan3padb2wnb2i7cl/exe/qcprog.exe Dimethyl_Naphthalene_Dicarboximide_Phi_30_Theta_0_Thiophene_Hydrogenated_Improper.qcin_2749164.0 ./qchem2749164/

Process 0 of 1 is on exp-6-47 - thread support 0
initial socket setup ...start
initial socket setup ...done 
now start server 0 ... 
                  Welcome to Q-Chem
     A Quantum Leap Into The Future Of Chemistry


 Q-Chem 5.4, Q-Chem, Inc., Pleasanton, CA (2021)

 License issued to: University of California, San Diego (site)

 E. Epifanovsky,  A. T. B. Gilbert,  Xintian Feng,  Joonho Lee,  Yuezhi Mao,  
 N. Mardirossian,  P. Pokhilko,  A. White,  M. Wormit,  M. P. Coons,  
 A. L. Dempwolff,  Zhengting Gan,  D. Hait,  P. R. Horn,  L. D. Jacobson,  
 I. Kaliman,  J. Kussmann,  A. W. Lange,  Ka Un Lao,  D. S. Levine,  Jie Liu,  
 S. C. McKenzie,  A. F. Morrison,  K. Nanda,  F. Plasser,  D. R. Rehn,  
 M. L. Vidal,  Zhi-Qiang You,  Ying Zhu,  B. Alam,  B. Albrecht,  
 A. Aldossary,  E. Alguire,  J. H. Andersen,  D. Barton,  K. Begam,  A. Behn,  
 Y. A. Bernard,  E. J. Berquist,  H. Burton,  A. Carreras,  K. Carter-Fenk,  
 R. Chakraborty,  A. D. Chien,  K. D. Closser,  V. Cofer-Shabica,  
 S. Dasgupta,  Jia Deng,  M. de Wergifosse,  M. Diedenhofen,  Hainam Do,  
 S. Ehlert,  Po-Tung Fang,  S. Fatehi,  Qingguo Feng,  J. Gayvert,  
 Qinghui Ge,  G. Gidofalvi,  M. Goldey,  J. Gomes,  C. Gonzalez-Espinoza,  
 S. Gulania,  A. Gunina,  M. W. D. Hanson-Heine,  P. H. P. Harbach,  
 A. W. Hauser,  M. F. Herbst,  M. Hernandez Vera,  M. Hodecker,  
 Z. C. Holden,  S. Houck,  Xunkun Huang,  Kerwin Hui,  B. C. Huynh,  
 M. Ivanov,  Hyunjun Ji,  Hanjie Jiang,  B. Kaduk,  S. Kaehler,  
 K. Khistyaev,  Jaehoon Kim,  P. Klunzinger,  Z. Koczor-Benda,  
 Joong Hoon Koh,  D. Kosenkov,  L. Koulias,  T. Kowalczyk,  C. M. Krauter,  
 K. Kue,  A. Kunitsa,  T. Kus,  A. Landau,  K. V. Lawler,  D. Lefrancois,  
 S. Lehtola,  Rain Li,  Yi-Pei Li,  Jiashu Liang,  M. Liebenthal,  
 Hung-Hsuan Lin,  You-Sheng Lin,  Fenglai Liu,  Kuan-Yu Liu,  
 M. Loipersberger,  A. Luenser,  A. Manjanath,  P. Manohar,  E. Mansoor,  
 S. F. Manzer,  Shan-Ping Mao,  A. V. Marenich,  T. Markovich,  S. Mason,  
 S. A. Maurer,  P. F. McLaughlin,  M. F. S. J. Menger,  J.-M. Mewes,  
 S. A. Mewes,  P. Morgante,  J. W. Mullinax,  T. S. Nguyen-Beck,  
 K. J. Oosterbaan,  G. Paran,  Alexander C. Paul,  Suranjan K. Paul,  
 F. Pavosevic,  Zheng Pei,  S. Prager,  E. I. Proynov,  E. Ramos,  B. Rana,  
 A. E. Rask,  A. Rettig,  R. M. Richard,  F. Rob,  E. Rossomme,  T. Scheele,  
 M. Scheurer,  M. Schneider,  N. Sergueev,  S. M. Sharada,  W. Skomorowski,  
 D. W. Small,  C. J. Stein,  Yu-Chuan Su,  E. J. Sundstrom,  Zhen Tao,  
 J. Thirman,  T. Tsuchimochi,  N. M. Tubman,  S. P. Veccham,  O. Vydrov,  
 J. Wenzel,  J. Witte,  A. Yamada,  Kun Yao,  S. Yeganeh,  S. R. Yost,  
 A. Zech,  Igor Ying Zhang,  Xing Zhang,  Yu Zhang,  D. Zuev,  
 A. Aspuru-Guzik,  A. T. Bell,  N. A. Besley,  K. B. Bravaya,  B. R. Brooks,  
 D. Casanova,  Jeng-Da Chai,  S. Coriani,  C. J. Cramer,  
 A. E. DePrince, III,  R. A. DiStasio Jr.,  A. Dreuw,  B. D. Dunietz,  
 T. R. Furlani,  W. A. Goddard III,  S. Grimme,  S. Hammes-Schiffer,  
 T. Head-Gordon,  W. J. Hehre,  Chao-Ping Hsu,  T.-C. Jagau,  Yousung Jung,  
 A. Klamt,  Jing Kong,  D. S. Lambrecht,  WanZhen Liang,  N. J. Mayhall,  
 C. W. McCurdy,  J. B. Neaton,  C. Ochsenfeld,  J. A. Parkhill,  R. Peverati,  
 V. A. Rassolov,  Yihan Shao,  L. V. Slipchenko,  T. Stauch,  R. P. Steele,  
 J. E. Subotnik,  A. J. W. Thom,  A. Tkatchenko,  D. G. Truhlar,  
 T. Van Voorhis,  T. A. Wesolowski,  K. B. Whaley,  H. L. Woodcock III,  
 P. M. Zimmerman,  S. Faraji,  P. M. W. Gill,  M. Head-Gordon,  
 J. M. Herbert,  A. I. Krylov

 Contributors to earlier versions of Q-Chem not listed above: 
 R. D. Adamson,  B. Austin,  R. Baer,  J. Baker,  G. J. O. Beran,  
 K. Brandhorst,  S. T. Brown,  E. F. C. Byrd,  A. K. Chakraborty,  
 G. K. L. Chan,  Chun-Min Chang,  Yunqing Chen,  C.-L. Cheng,  
 Siu Hung Chien,  D. M. Chipman,  D. L. Crittenden,  H. Dachsel,  
 R. J. Doerksen,  A. D. Dutoi,  R. G. Edgar,  J. Fosso-Tande,  
 L. Fusti-Molnar,  D. Ghosh,  A. Ghysels,  A. Golubeva-Zadorozhnaya,  
 J. Gonthier,  M. S. Gordon,  S. R. Gwaltney,  G. Hawkins,  J. E. Herr,  
 A. Heyden,  S. Hirata,  E. G. Hohenstein,  G. Kedziora,  F. J. Keil,  
 C. Kelley,  Jihan Kim,  R. A. King,  R. Z. Khaliullin,  P. P. Korambath,  
 W. Kurlancheek,  A. Laurent,  A. M. Lee,  M. S. Lee,  S. V. Levchenko,  
 Ching Yeh Lin,  D. Liotard,  E. Livshits,  R. C. Lochan,  I. Lotan,  
 L. A. Martinez-Martinez,  P. E. Maslen,  N. Nair,  D. P. O'Neill,  
 D. Neuhauser,  E. Neuscamman,  C. M. Oana,  R. Olivares-Amaya,  R. Olson,  
 T. M. Perrine,  B. Peters,  P. A. Pieniazek,  A. Prociuk,  Y. M. Rhee,  
 J. Ritchie,  M. A. Rohrdanz,  E. Rosta,  N. J. Russ,  H. F. Schaefer III,  
 M. W. Schmidt,  N. E. Schultz,  S. Sharma,  N. Shenvi,  C. D. Sherrill,  
 A. C. Simmonett,  A. Sodt,  T. Stein,  D. Stuck,  K. S. Thanthiriwatte,  
 V. Vanovschi,  L. Vogt,  Tao Wang,  A. Warshel,  M. A. Watson,  
 C. F. Williams,  Q. Wu,  X. Xu,  Jun Yang,  W. Zhang,  Yan Zhao

 Please cite Q-Chem as follows:
 Y. Shao et al., Mol. Phys. 113, 184-215 (2015)
 DOI: 10.1080/00268976.2014.952696

 Q-Chem 5.4.0 for Intel X86 EM64T Linux

 Parts of Q-Chem use Armadillo 9.800.1 (Horizon Scraper).
 http://arma.sourceforge.net/

 Q-Chem begins on Wed Dec 27 09:59:37 2023  

 Host: 
0

     Scratch files written to ./qchem2749164//
 May1621 |scratch|qcdevops|jenkins|workspace|build_RNUM    
 Parallel job on  1  processors
 Processing $rem in /cm/shared/apps/spack/cpu/opt/spack/linux-centos8-zen2/gcc-10.2.0/qchem-5.4-akfmr7b3t57bfs6qan3padb2wnb2i7cl/config/preferences:
 Processing $rem in /home/rramji/.qchemrc:
 Symmetry turned off for PCM/SM12/SMD calculation
 Core orbitals will be frozen

 Checking the input file for inconsistencies... 	...done.

 Q-Chem warning in module forms1/BasisType.C, line 2236:

 You are not using the predefined 5D/6D in this basis set.


--------------------------------------------------------------
User input:
--------------------------------------------------------------
$molecule
0 1
C	-0.234940	-0.351739	-0.215368
S	0.100060	0.367161	1.365132
C	0.792160	1.851461	0.689532
C	0.186660	0.552861	-1.200768
C	0.744560	1.749361	-0.708868
H	0.087060	0.339261	-2.275268
H	1.116760	2.547861	-1.367968
C	-0.106140	-1.824339	-0.215368
H	0.969860	-1.730839	-0.214868
H	-0.067840	-2.261939	0.771232
H	-0.044240	-2.532539	-1.028368
H	1.164260	2.649661	1.340632
$end

$rem
JOBTYPE		SP
EXCHANGE	HF
CORRELATION	pRIMP2
BASIS		cc-pvtz
METHOD		rimp2
AUX_BASIS	rimp2-cc-pvtz
SOLVENT_METHOD	PCM
PURECART	11111
SYMMETRY	false
MEM_TOTAL	110000
SCF_CONVERGENCE = 6
THRESH=10
GUI = 2
$end



$solvent
dielectric 4.90
$end
--------------------------------------------------------------
 ----------------------------------------------------------------
             Standard Nuclear Orientation (Angstroms)
    I     Atom           X                Y                Z
 ----------------------------------------------------------------
    1      C      -0.2349400000    -0.3517390000    -0.2153680000
    2      S       0.1000600000     0.3671610000     1.3651320000
    3      C       0.7921600000     1.8514610000     0.6895320000
    4      C       0.1866600000     0.5528610000    -1.2007680000
    5      C       0.7445600000     1.7493610000    -0.7088680000
    6      H       0.0870600000     0.3392610000    -2.2752680000
    7      H       1.1167600000     2.5478610000    -1.3679680000
    8      C      -0.1061400000    -1.8243390000    -0.2153680000
    9      H       0.9698600000    -1.7308390000    -0.2148680000
   10      H      -0.0678400000    -2.2619390000     0.7712320000
   11      H      -0.0442400000    -2.5325390000    -1.0283680000
   12      H       1.1642600000     2.6496610000     1.3406320000
 ----------------------------------------------------------------
 Nuclear Repulsion Energy =         272.12012148 hartrees
 There are       26 alpha and       26 beta electrons
 Requested basis set is cc-pVTZ
 There are 98 shells and 268 basis functions

 Total QAlloc Memory Limit 110000 MB
 Mega-Array Size       188 MB
 MEM_STATIC part       192 MB
 Discretize the solute cavity surface with Lebedev spheres
	Using 110 Lebedev grid points for each H atom
	Using 194 Lebedev grid points for other atoms
	Atomic van der Waals radii will be scaled by 1.20
 Remove points where switching function is < 1.0e-08
 Keep 878 surface tesserae and discard 946 interior tesserae
 Molecular Surface Area = 137.615 Angst**2

                       Distance Matrix (Angstroms)
             C (  1)   S (  2)   C (  3)   C (  4)   C (  5)   H (  6)
   S (  2)  1.768339
   C (  3)  2.593814  1.771605
   C (  4)  1.402519  2.574068  2.371967
   C (  5)  2.370144  2.574361  1.402930  1.408840
   H (  6)  2.196441  3.640530  3.402051  1.100043  2.207781
   H (  7)  3.400479  3.641286  2.196280  2.207502  1.100249  2.600267
   C (  8)  1.478222  2.709829  3.890667  2.589947  3.706557  2.993606
   H (  9)  1.831246  2.766687  3.698971  2.607813  3.522299  3.051213
   H ( 10)  2.156424  2.700569  4.203134  3.446252  4.352151  4.008915
   H ( 11)  2.335214  3.762702  4.782280  3.098827  4.365656  3.133566
   H ( 12)  3.658866  2.518517  1.095223  3.436712  2.277529  4.424143
             H (  7)   C (  8)   H (  9)   H ( 10)   H ( 11)
   C (  8)  4.684026
   H (  9)  4.433790  1.080055
   H ( 10)  5.395705  1.079972  1.526854
   H ( 11)  5.222424  1.079976  1.527385  1.819984
   H ( 12)  2.710929  4.904256  4.652543  5.095694  5.824760
 
 Requested basis set is rimp2-cc-pVTZ
 There are 207 shells and 707 basis functions
 A cutoff of  1.0D-10 yielded   4418 shell pairs
 There are     33224 function pairs (     42979 Cartesian)
 Smallest overlap matrix eigenvalue = 1.56E-04

 Scale SEOQF with 1.000000e+00/1.000000e-01/1.000000e-01

 Standard Electronic Orientation quadrupole field applied
 Nucleus-field energy     =     0.0000000047 hartrees
 Guess from superposition of atomic densities
 Warning:  Energy on first SCF cycle will be non-variational
 SAD guess density has 52.000000 electrons

 -----------------------------------------------------------------------
  General SCF calculation program by
  Eric Jon Sundstrom, Paul Horn, Yuezhi Mao, Dmitri Zuev, Alec White,
  David Stuck, Shaama M.S., Shane Yost, Joonho Lee, David Small,
  Daniel Levine, Susi Lehtola, Hugh Burton, Evgeny Epifanovsky,
  Bang C. Huynh
 -----------------------------------------------------------------------
 Hartree-Fock
 using 64 threads for integral computing
 -------------------------------------------------------
 OpenMP Integral computing Module                
 Release: version 1.0, May 2013, Q-Chem Inc. Pittsburgh 
 -------------------------------------------------------
 A restricted SCF calculation will be
 performed using DIIS
 SCF converges when DIIS error is below 1.0e-06
 ---------------------------------------
  Cycle       Energy         DIIS error
 ---------------------------------------
    1    -592.6011075810      3.23e-02  
    2    -590.2884576690      2.20e-03  
    3    -590.3497322745      8.49e-04  
    4    -590.3571244023      4.00e-04  
    5    -590.3591659598      7.10e-05  
    6    -590.3592906962      3.22e-05  
    7    -590.3593217402      1.46e-05  
    8    -590.3593315735      5.86e-06  
    9    -590.3593331792      2.01e-06  
   10    -590.3593333445      6.37e-07  Convergence criterion met
 ---------------------------------------
 SCF time:   CPU 496.26s  wall 8.00s 

************** Final PCM Free Energy Summary **************
 G_electrostatic  =      -0.00564587 hartree =      -3.54283926 kcal/mol
 G_cavitation     =       0.00000000 hartree =       0.00000000 kcal/mol
 G_dispersion     =       0.00000000 hartree =       0.00000000 kcal/mol
 G_repulsion      =       0.00000000 hartree =       0.00000000 kcal/mol
 --------------------------------------------------
 Non-electrostatic Free Energy =       0.00000000 hartree =       0.00000000 kcal/mol
 Total                         =      -0.00564587 hartree =      -3.54283926 kcal/mol
 --------------------------------------------------
 SCF Energy (H0 + V/2)                       =    -590.35933334 
 Solute Internal Energy (H0)                 =    -590.35368747 
 Total Free Energy (H0 + V/2 + non-elec)     =    -590.35933334 hartree
                                             = -370456.07296691 kcal/mol
***********************************************************

 SCF   energy in the final basis set =     -590.3593333445
 Total energy in the final basis set =     -590.3593333445


 --------------------------------------------------------------
  Generalized many-body perturbation theory program
  by Joonho Lee, Fazle Rob, Xintian Feng, Evgeny Epifanovsky

 No regularization used 
 (reg. param. = 0.0000e+00)
  (P|Q)^-1/2 Time:  CPU 5.27 s  wall 0.09 s

 In RI-MP2 calculation: 
 # of frozen core orbitals: 10

 Components of the RIMP2 correlation energy:
        aaaa    correlation energy =        -0.1255294807 a.u.
        abab    correlation energy =        -0.7522544142 a.u.
        bbbb    correlation energy =        -0.1255294807 a.u.
        non-Brillouin singles      =        -0.0000000000 a.u.
        total same-spin energy     =        -0.2510589615 a.u.
        total opposite-spin energy =        -0.7522544142 a.u.

 Total  RIMP2   correlation energy =        -1.0033133757 a.u.
        RIMP2         total energy =      -591.3626467202 a.u.

 RI-MP2 Energy Time:  CPU 23.42 s  wall 0.42 s
 
 --------------------------------------------------------------
 
                    Orbital Energies (a.u.)
 --------------------------------------------------------------
 
 Alpha MOs
 -- Occupied --
-91.9787 -11.2873 -11.2668 -11.2437 -11.2325 -11.2273  -8.9787  -6.6596
 -6.6591  -6.6585  -1.1607  -1.0403  -0.9727  -0.9154  -0.7567  -0.7227
 -0.6715  -0.5963  -0.5668  -0.5582  -0.5391  -0.4954  -0.4746  -0.4569
 -0.3470  -0.2966
 -- Virtual --
  0.0961   0.1529   0.1600   0.1807   0.1872   0.1980   0.2145   0.2159
  0.2292   0.2563   0.3158   0.3376   0.3432   0.3651   0.3878   0.4095
  0.4374   0.4434   0.4542   0.4651   0.4860   0.5101   0.5223   0.5336
  0.5447   0.5602   0.5723   0.5803   0.5868   0.6057   0.6137   0.6231
  0.6329   0.6340   0.6439   0.6595   0.6752   0.7059   0.7410   0.7649
  0.7788   0.7817   0.8143   0.8472   0.8653   0.8799   0.8999   0.9175
  0.9524   0.9830   1.0263   1.0586   1.0681   1.0791   1.1091   1.1269
  1.1303   1.1507   1.1722   1.1784   1.2166   1.2345   1.2590   1.2752
  1.2883   1.2992   1.3275   1.3431   1.3954   1.4152   1.4280   1.4370
  1.4563   1.4737   1.4920   1.5116   1.5373   1.5479   1.5555   1.5710
  1.5972   1.6173   1.6487   1.6801   1.7275   1.7565   1.7701   1.7949
  1.8431   1.8784   1.9072   1.9122   1.9606   2.0041   2.0308   2.1201
  2.1389   2.1724   2.1904   2.2217   2.2542   2.2793   2.3175   2.3898
  2.4301   2.4477   2.4784   2.5319   2.5361   2.5879   2.6065   2.6664
  2.6920   2.7225   2.7248   2.7459   2.7647   2.7846   2.8110   2.8499
  2.8662   2.9154   2.9286   2.9756   3.0143   3.0203   3.0383   3.0685
  3.0841   3.1025   3.1246   3.1326   3.1614   3.1871   3.2019   3.2309
  3.2570   3.2704   3.2793   3.2988   3.3200   3.3395   3.3600   3.3997
  3.4118   3.4186   3.4270   3.4498   3.4634   3.4741   3.4881   3.4923
  3.5105   3.5276   3.5545   3.5832   3.5893   3.6143   3.6362   3.6487
  3.6572   3.6860   3.7361   3.7471   3.7593   3.7840   3.8361   3.8471
  3.8579   3.8811   3.8966   3.9301   3.9395   3.9619   3.9903   3.9998
  4.0135   4.0547   4.0806   4.0874   4.1273   4.1415   4.1716   4.2157
  4.2533   4.2621   4.2767   4.2944   4.3265   4.3592   4.3913   4.3953
  4.4386   4.4693   4.4750   4.5074   4.5494   4.5821   4.5992   4.6368
  4.6442   4.7011   4.7317   4.7503   4.7927   4.8020   4.8161   4.8468
  4.9221   5.0134   5.0270   5.0504   5.0716   5.1053   5.1642   5.1875
  5.2495   5.2997   5.3539   5.4241   5.4794   5.4924   5.5357   5.5767
  5.6097   5.6997   5.7803   5.8167   5.8652   5.9547   5.9836   6.0640
  6.1118   6.3376   6.4086   6.4509   6.6432   9.4300  11.3771  12.7068
 13.9267  14.1311
 --------------------------------------------------------------
 
          Ground-State Mulliken Net Atomic Charges

     Atom                 Charge (a.u.)
  ----------------------------------------
      1 C                     0.013309
      2 S                     0.000862
      3 C                    -0.242645
      4 C                    -0.237447
      5 C                    -0.183185
      6 H                     0.178782
      7 H                     0.187096
      8 C                    -0.358966
      9 H                     0.147877
     10 H                     0.130014
     11 H                     0.159656
     12 H                     0.204646
  ----------------------------------------
  Sum of atomic charges =     0.000000

 -----------------------------------------------------------------
                    Cartesian Multipole Moments
 -----------------------------------------------------------------
    Charge (ESU x 10^10)
                 0.0000
    Dipole Moment (Debye)
         X       1.3866      Y      -0.6109      Z      -1.0666
       Tot       1.8530
    Quadrupole Moments (Debye-Ang)
        XX     -46.9314     XY       1.8849     YY     -37.9837
        XZ       0.0131     YZ       1.0733     ZZ     -41.6298
    Octopole Moments (Debye-Ang^2)
       XXX     -34.1059    XXY     -13.8241    XYY       1.0981
       YYY     -40.3808    XXZ      -6.5958    XYZ       1.9376
       YYZ      -5.4939    XZZ      -7.4538    YZZ     -10.3430
       ZZZ     -28.2888
    Hexadecapole Moments (Debye-Ang^3)
      XXXX    -121.1152   XXXY     -64.1320   XXYY    -100.0818
      XYYY     -42.7577   YYYY    -465.1813   XXXZ      -2.5908
      XXYZ      -4.9068   XYYZ       1.2127   YYYZ      -6.3780
      XXZZ     -74.0586   XYZZ     -10.6290   YYZZ    -115.6041
      XZZZ      -0.5456   YZZZ     -14.0153   ZZZZ    -306.3445
 -----------------------------------------------------------------
 Total job time:  12.87s(wall), 560.06s(cpu) 
 Wed Dec 27 09:59:50 2023

        *************************************************************
        *                                                           *
        *  Thank you very much for using Q-Chem.  Have a nice day.  *
        *                                                           *
        *************************************************************


0 sent ACK to 0 
now end server 0 ... 
cleanup process ... done
remove work dirs ./qchem2749164.0 -- ./qchem2749164.0
rm -rf ./qchem2749164.0
rm -rf ./qchem2749164
