You are running Q-Chem version: 5.4.0

#
# job setting
#
local host:  exp-4-24
current dir: /home/rramji/project-csd799/aromodel/pndit-qchem/methylated-rotation-run
input file:  Dimethyl_Naphthalene_Dicarboximide_Phi_10_Theta_190_Thiophene_Hydrogenated_Improper.qcin
output file: 
nprocs     : 1
nthreads   : 64
#
# qchem installation setting
#
QC:          /cm/shared/apps/spack/cpu/opt/spack/linux-centos8-zen2/gcc-10.2.0/qchem-5.4-akfmr7b3t57bfs6qan3padb2wnb2i7cl
QCAUX:       /cm/shared/apps/spack/cpu/opt/spack/linux-centos8-zen2/gcc-10.2.0/qchem-5.4-akfmr7b3t57bfs6qan3padb2wnb2i7cl/qcaux
QCPROG:      /cm/shared/apps/spack/cpu/opt/spack/linux-centos8-zen2/gcc-10.2.0/qchem-5.4-akfmr7b3t57bfs6qan3padb2wnb2i7cl/exe/qcprog.exe
QCPROG_S:    /cm/shared/apps/spack/cpu/opt/spack/linux-centos8-zen2/gcc-10.2.0/qchem-5.4-akfmr7b3t57bfs6qan3padb2wnb2i7cl/exe/qcprog.exe_s
PARALLEL:    -DPARALLEL
QCMPI:       mpich
#
# qchem directory setting
#
qcrun:       qchem2966662
QCSCRATCH:   .
QCLOCALSCR:  
QCTMPDIR:    .
QCFILEPREF:  ./qchem2966662
QCSAVEDIR:   
workdirs:    ./qchem2966662
workdir0:    ./qchem2966662
partmpdirs =  
#
# parallel setting
#
QCRSH:           ssh
QCMPI:           mpich
QCMPIRUN:        /cm/shared/apps/spack/cpu/opt/spack/linux-centos8-zen2/gcc-10.2.0/qchem-5.4-akfmr7b3t57bfs6qan3padb2wnb2i7cl/bin/mpi/mpirun_qchem
QCMACHINEFILE:   ./qchem2966662/hostfile
exp-4-24

#
# env setting
#
exported envs:   QC QCAUX QCSCRATCH QCRUNNAME QCFILEPREF QCPROG QCPROG_S GUIFILE

Running Job 1 of 1 Dimethyl_Naphthalene_Dicarboximide_Phi_10_Theta_190_Thiophene_Hydrogenated_Improper.qcin
qchem Dimethyl_Naphthalene_Dicarboximide_Phi_10_Theta_190_Thiophene_Hydrogenated_Improper.qcin_2966662.0 ./qchem2966662/ 1
/cm/shared/apps/spack/cpu/opt/spack/linux-centos8-zen2/gcc-10.2.0/qchem-5.4-akfmr7b3t57bfs6qan3padb2wnb2i7cl/bin/mpi/mpirun_qchem -machinefile ./qchem2966662/hostfile -np 1 /cm/shared/apps/spack/cpu/opt/spack/linux-centos8-zen2/gcc-10.2.0/qchem-5.4-akfmr7b3t57bfs6qan3padb2wnb2i7cl/exe/qcprog.exe Dimethyl_Naphthalene_Dicarboximide_Phi_10_Theta_190_Thiophene_Hydrogenated_Improper.qcin_2966662.0 ./qchem2966662/

Process 0 of 1 is on exp-4-24 - thread support 0
initial socket setup ...start
initial socket setup ...done 
now start server 0 ... 
                  Welcome to Q-Chem
     A Quantum Leap Into The Future Of Chemistry


 Q-Chem 5.4, Q-Chem, Inc., Pleasanton, CA (2021)

 License issued to: University of California, San Diego (site)

 E. Epifanovsky,  A. T. B. Gilbert,  Xintian Feng,  Joonho Lee,  Yuezhi Mao,  
 N. Mardirossian,  P. Pokhilko,  A. White,  M. Wormit,  M. P. Coons,  
 A. L. Dempwolff,  Zhengting Gan,  D. Hait,  P. R. Horn,  L. D. Jacobson,  
 I. Kaliman,  J. Kussmann,  A. W. Lange,  Ka Un Lao,  D. S. Levine,  Jie Liu,  
 S. C. McKenzie,  A. F. Morrison,  K. Nanda,  F. Plasser,  D. R. Rehn,  
 M. L. Vidal,  Zhi-Qiang You,  Ying Zhu,  B. Alam,  B. Albrecht,  
 A. Aldossary,  E. Alguire,  J. H. Andersen,  D. Barton,  K. Begam,  A. Behn,  
 Y. A. Bernard,  E. J. Berquist,  H. Burton,  A. Carreras,  K. Carter-Fenk,  
 R. Chakraborty,  A. D. Chien,  K. D. Closser,  V. Cofer-Shabica,  
 S. Dasgupta,  Jia Deng,  M. de Wergifosse,  M. Diedenhofen,  Hainam Do,  
 S. Ehlert,  Po-Tung Fang,  S. Fatehi,  Qingguo Feng,  J. Gayvert,  
 Qinghui Ge,  G. Gidofalvi,  M. Goldey,  J. Gomes,  C. Gonzalez-Espinoza,  
 S. Gulania,  A. Gunina,  M. W. D. Hanson-Heine,  P. H. P. Harbach,  
 A. W. Hauser,  M. F. Herbst,  M. Hernandez Vera,  M. Hodecker,  
 Z. C. Holden,  S. Houck,  Xunkun Huang,  Kerwin Hui,  B. C. Huynh,  
 M. Ivanov,  Hyunjun Ji,  Hanjie Jiang,  B. Kaduk,  S. Kaehler,  
 K. Khistyaev,  Jaehoon Kim,  P. Klunzinger,  Z. Koczor-Benda,  
 Joong Hoon Koh,  D. Kosenkov,  L. Koulias,  T. Kowalczyk,  C. M. Krauter,  
 K. Kue,  A. Kunitsa,  T. Kus,  A. Landau,  K. V. Lawler,  D. Lefrancois,  
 S. Lehtola,  Rain Li,  Yi-Pei Li,  Jiashu Liang,  M. Liebenthal,  
 Hung-Hsuan Lin,  You-Sheng Lin,  Fenglai Liu,  Kuan-Yu Liu,  
 M. Loipersberger,  A. Luenser,  A. Manjanath,  P. Manohar,  E. Mansoor,  
 S. F. Manzer,  Shan-Ping Mao,  A. V. Marenich,  T. Markovich,  S. Mason,  
 S. A. Maurer,  P. F. McLaughlin,  M. F. S. J. Menger,  J.-M. Mewes,  
 S. A. Mewes,  P. Morgante,  J. W. Mullinax,  T. S. Nguyen-Beck,  
 K. J. Oosterbaan,  G. Paran,  Alexander C. Paul,  Suranjan K. Paul,  
 F. Pavosevic,  Zheng Pei,  S. Prager,  E. I. Proynov,  E. Ramos,  B. Rana,  
 A. E. Rask,  A. Rettig,  R. M. Richard,  F. Rob,  E. Rossomme,  T. Scheele,  
 M. Scheurer,  M. Schneider,  N. Sergueev,  S. M. Sharada,  W. Skomorowski,  
 D. W. Small,  C. J. Stein,  Yu-Chuan Su,  E. J. Sundstrom,  Zhen Tao,  
 J. Thirman,  T. Tsuchimochi,  N. M. Tubman,  S. P. Veccham,  O. Vydrov,  
 J. Wenzel,  J. Witte,  A. Yamada,  Kun Yao,  S. Yeganeh,  S. R. Yost,  
 A. Zech,  Igor Ying Zhang,  Xing Zhang,  Yu Zhang,  D. Zuev,  
 A. Aspuru-Guzik,  A. T. Bell,  N. A. Besley,  K. B. Bravaya,  B. R. Brooks,  
 D. Casanova,  Jeng-Da Chai,  S. Coriani,  C. J. Cramer,  
 A. E. DePrince, III,  R. A. DiStasio Jr.,  A. Dreuw,  B. D. Dunietz,  
 T. R. Furlani,  W. A. Goddard III,  S. Grimme,  S. Hammes-Schiffer,  
 T. Head-Gordon,  W. J. Hehre,  Chao-Ping Hsu,  T.-C. Jagau,  Yousung Jung,  
 A. Klamt,  Jing Kong,  D. S. Lambrecht,  WanZhen Liang,  N. J. Mayhall,  
 C. W. McCurdy,  J. B. Neaton,  C. Ochsenfeld,  J. A. Parkhill,  R. Peverati,  
 V. A. Rassolov,  Yihan Shao,  L. V. Slipchenko,  T. Stauch,  R. P. Steele,  
 J. E. Subotnik,  A. J. W. Thom,  A. Tkatchenko,  D. G. Truhlar,  
 T. Van Voorhis,  T. A. Wesolowski,  K. B. Whaley,  H. L. Woodcock III,  
 P. M. Zimmerman,  S. Faraji,  P. M. W. Gill,  M. Head-Gordon,  
 J. M. Herbert,  A. I. Krylov

 Contributors to earlier versions of Q-Chem not listed above: 
 R. D. Adamson,  B. Austin,  R. Baer,  J. Baker,  G. J. O. Beran,  
 K. Brandhorst,  S. T. Brown,  E. F. C. Byrd,  A. K. Chakraborty,  
 G. K. L. Chan,  Chun-Min Chang,  Yunqing Chen,  C.-L. Cheng,  
 Siu Hung Chien,  D. M. Chipman,  D. L. Crittenden,  H. Dachsel,  
 R. J. Doerksen,  A. D. Dutoi,  R. G. Edgar,  J. Fosso-Tande,  
 L. Fusti-Molnar,  D. Ghosh,  A. Ghysels,  A. Golubeva-Zadorozhnaya,  
 J. Gonthier,  M. S. Gordon,  S. R. Gwaltney,  G. Hawkins,  J. E. Herr,  
 A. Heyden,  S. Hirata,  E. G. Hohenstein,  G. Kedziora,  F. J. Keil,  
 C. Kelley,  Jihan Kim,  R. A. King,  R. Z. Khaliullin,  P. P. Korambath,  
 W. Kurlancheek,  A. Laurent,  A. M. Lee,  M. S. Lee,  S. V. Levchenko,  
 Ching Yeh Lin,  D. Liotard,  E. Livshits,  R. C. Lochan,  I. Lotan,  
 L. A. Martinez-Martinez,  P. E. Maslen,  N. Nair,  D. P. O'Neill,  
 D. Neuhauser,  E. Neuscamman,  C. M. Oana,  R. Olivares-Amaya,  R. Olson,  
 T. M. Perrine,  B. Peters,  P. A. Pieniazek,  A. Prociuk,  Y. M. Rhee,  
 J. Ritchie,  M. A. Rohrdanz,  E. Rosta,  N. J. Russ,  H. F. Schaefer III,  
 M. W. Schmidt,  N. E. Schultz,  S. Sharma,  N. Shenvi,  C. D. Sherrill,  
 A. C. Simmonett,  A. Sodt,  T. Stein,  D. Stuck,  K. S. Thanthiriwatte,  
 V. Vanovschi,  L. Vogt,  Tao Wang,  A. Warshel,  M. A. Watson,  
 C. F. Williams,  Q. Wu,  X. Xu,  Jun Yang,  W. Zhang,  Yan Zhao

 Please cite Q-Chem as follows:
 Y. Shao et al., Mol. Phys. 113, 184-215 (2015)
 DOI: 10.1080/00268976.2014.952696

 Q-Chem 5.4.0 for Intel X86 EM64T Linux

 Parts of Q-Chem use Armadillo 9.800.1 (Horizon Scraper).
 http://arma.sourceforge.net/

 Q-Chem begins on Wed Dec 27 10:05:39 2023  

 Host: 
0

     Scratch files written to ./qchem2966662//
 May1621 |scratch|qcdevops|jenkins|workspace|build_RNUM    
 Parallel job on  1  processors
 Processing $rem in /cm/shared/apps/spack/cpu/opt/spack/linux-centos8-zen2/gcc-10.2.0/qchem-5.4-akfmr7b3t57bfs6qan3padb2wnb2i7cl/config/preferences:
 Processing $rem in /home/rramji/.qchemrc:
 Symmetry turned off for PCM/SM12/SMD calculation
 Core orbitals will be frozen

 Checking the input file for inconsistencies... 	...done.

 Q-Chem warning in module forms1/BasisType.C, line 2236:

 You are not using the predefined 5D/6D in this basis set.


--------------------------------------------------------------
User input:
--------------------------------------------------------------
$molecule
0 1
C	-0.084643	-0.391505	-0.212630
S	0.052857	0.389695	1.367870
C	0.337257	2.002495	0.692270
C	0.088457	0.591395	-1.198030
C	0.317657	1.891595	-0.706130
H	0.047557	0.359295	-2.272530
H	0.470557	2.759095	-1.365230
C	-0.084643	-1.869705	-0.212630
H	-1.148143	-1.870305	-0.400730
H	0.086757	-2.309005	-1.184230
H	-0.225643	-2.580705	0.588070
H	0.490057	2.869795	1.343370
$end

$rem
JOBTYPE		SP
EXCHANGE	HF
CORRELATION	pRIMP2
BASIS		cc-pvtz
METHOD		rimp2
AUX_BASIS	rimp2-cc-pvtz
SOLVENT_METHOD	PCM
PURECART	11111
SYMMETRY	false
MEM_TOTAL	110000
SCF_CONVERGENCE = 6
THRESH=10
GUI = 2
$end



$solvent
dielectric 4.90
$end
--------------------------------------------------------------
 ----------------------------------------------------------------
             Standard Nuclear Orientation (Angstroms)
    I     Atom           X                Y                Z
 ----------------------------------------------------------------
    1      C      -0.0846430000    -0.3915050000    -0.2126300000
    2      S       0.0528570000     0.3896950000     1.3678700000
    3      C       0.3372570000     2.0024950000     0.6922700000
    4      C       0.0884570000     0.5913950000    -1.1980300000
    5      C       0.3176570000     1.8915950000    -0.7061300000
    6      H       0.0475570000     0.3592950000    -2.2725300000
    7      H       0.4705570000     2.7590950000    -1.3652300000
    8      C      -0.0846430000    -1.8697050000    -0.2126300000
    9      H      -1.1481430000    -1.8703050000    -0.4007300000
   10      H       0.0867570000    -2.3090050000    -1.1842300000
   11      H      -0.2256430000    -2.5807050000     0.5880700000
   12      H       0.4900570000     2.8697950000     1.3433700000
 ----------------------------------------------------------------
 Nuclear Repulsion Energy =         270.11710308 hartrees
 There are       26 alpha and       26 beta electrons
 Requested basis set is cc-pVTZ
 There are 98 shells and 268 basis functions

 Total QAlloc Memory Limit 110000 MB
 Mega-Array Size       188 MB
 MEM_STATIC part       192 MB
 Discretize the solute cavity surface with Lebedev spheres
	Using 110 Lebedev grid points for each H atom
	Using 194 Lebedev grid points for other atoms
	Atomic van der Waals radii will be scaled by 1.20
 Remove points where switching function is < 1.0e-08
 Keep 888 surface tesserae and discard 936 interior tesserae
 Molecular Surface Area = 138.114 Angst**2

                       Distance Matrix (Angstroms)
             C (  1)   S (  2)   C (  3)   C (  4)   C (  5)   H (  6)
   S (  2)  1.768378
   C (  3)  2.593854  1.771565
   C (  4)  1.402522  2.574062  2.371990
   C (  5)  2.370218  2.574354  1.402927  1.408907
   H (  6)  2.196444  3.640531  3.402069  1.100042  2.207828
   H (  7)  3.400443  3.641204  2.196251  2.207460  1.100158  2.600224
   C (  8)  1.478200  2.760756  3.998847  2.656688  3.814809  3.037944
   H (  9)  1.831192  3.110940  4.289480  2.867897  4.048917  3.147134
   H ( 10)  2.156430  3.714478  4.708825  2.900433  4.234021  2.881971
   H ( 11)  2.335294  3.083655  4.618813  3.653906  4.687387  4.111115
   H ( 12)  3.658892  2.518460  1.095212  3.436729  2.277509  4.424155
             H (  7)   C (  8)   H (  9)   H ( 10)   H ( 11)
   C (  8)  4.802346
   H (  9)  4.998179  1.080007
   H ( 10)  5.085833  1.079986  1.526862
   H ( 11)  5.728310  1.080057  1.527547  1.820017
   H ( 12)  2.710931  5.021382  5.309815  5.776797  5.548933
 
 Requested basis set is rimp2-cc-pVTZ
 There are 207 shells and 707 basis functions
 A cutoff of  1.0D-10 yielded   4360 shell pairs
 There are     32764 function pairs (     42382 Cartesian)
 Smallest overlap matrix eigenvalue = 1.13E-04

 Scale SEOQF with 1.000000e+00/1.000000e-01/1.000000e-01

 Standard Electronic Orientation quadrupole field applied
 Nucleus-field energy     =     0.0000000026 hartrees
 Guess from superposition of atomic densities
 Warning:  Energy on first SCF cycle will be non-variational
 SAD guess density has 52.000000 electrons

 -----------------------------------------------------------------------
  General SCF calculation program by
  Eric Jon Sundstrom, Paul Horn, Yuezhi Mao, Dmitri Zuev, Alec White,
  David Stuck, Shaama M.S., Shane Yost, Joonho Lee, David Small,
  Daniel Levine, Susi Lehtola, Hugh Burton, Evgeny Epifanovsky,
  Bang C. Huynh
 -----------------------------------------------------------------------
 Hartree-Fock
 using 64 threads for integral computing
 -------------------------------------------------------
 OpenMP Integral computing Module                
 Release: version 1.0, May 2013, Q-Chem Inc. Pittsburgh 
 -------------------------------------------------------
 A restricted SCF calculation will be
 performed using DIIS
 SCF converges when DIIS error is below 1.0e-06
 ---------------------------------------
  Cycle       Energy         DIIS error
 ---------------------------------------
    1    -592.5680807109      3.22e-02  
    2    -590.2996207221      2.19e-03  
    3    -590.3603741390      8.44e-04  
    4    -590.3676833392      4.05e-04  
    5    -590.3697526645      7.01e-05  
    6    -590.3698760197      3.17e-05  
    7    -590.3699052067      1.40e-05  
    8    -590.3699142892      5.60e-06  
    9    -590.3699157032      1.83e-06  
   10    -590.3699158310      6.36e-07  Convergence criterion met
 ---------------------------------------
 SCF time:   CPU 499.78s  wall 8.00s 

************** Final PCM Free Energy Summary **************
 G_electrostatic  =      -0.00622674 hartree =      -3.90733906 kcal/mol
 G_cavitation     =       0.00000000 hartree =       0.00000000 kcal/mol
 G_dispersion     =       0.00000000 hartree =       0.00000000 kcal/mol
 G_repulsion      =       0.00000000 hartree =       0.00000000 kcal/mol
 --------------------------------------------------
 Non-electrostatic Free Energy =       0.00000000 hartree =       0.00000000 kcal/mol
 Total                         =      -0.00622674 hartree =      -3.90733906 kcal/mol
 --------------------------------------------------
 SCF Energy (H0 + V/2)                       =    -590.36991583 
 Solute Internal Energy (H0)                 =    -590.36368909 
 Total Free Energy (H0 + V/2 + non-elec)     =    -590.36991583 hartree
                                             = -370462.71357744 kcal/mol
***********************************************************

 SCF   energy in the final basis set =     -590.3699158310
 Total energy in the final basis set =     -590.3699158310


 --------------------------------------------------------------
  Generalized many-body perturbation theory program
  by Joonho Lee, Fazle Rob, Xintian Feng, Evgeny Epifanovsky

 No regularization used 
 (reg. param. = 0.0000e+00)
  (P|Q)^-1/2 Time:  CPU 6.33 s  wall 0.10 s

 In RI-MP2 calculation: 
 # of frozen core orbitals: 10

 Components of the RIMP2 correlation energy:
        aaaa    correlation energy =        -0.1252184884 a.u.
        abab    correlation energy =        -0.7506955216 a.u.
        bbbb    correlation energy =        -0.1252184884 a.u.
        non-Brillouin singles      =        -0.0000000000 a.u.
        total same-spin energy     =        -0.2504369767 a.u.
        total opposite-spin energy =        -0.7506955216 a.u.

 Total  RIMP2   correlation energy =        -1.0011324983 a.u.
        RIMP2         total energy =      -591.3710483294 a.u.

 RI-MP2 Energy Time:  CPU 24.95 s  wall 0.43 s
 
 --------------------------------------------------------------
 
                    Orbital Energies (a.u.)
 --------------------------------------------------------------
 
 Alpha MOs
 -- Occupied --
-91.9769 -11.2915 -11.2620 -11.2429 -11.2328 -11.2274  -8.9769  -6.6578
 -6.6573  -6.6567  -1.1566  -1.0402  -0.9710  -0.9201  -0.7541  -0.7219
 -0.6704  -0.5986  -0.5640  -0.5553  -0.5502  -0.4956  -0.4714  -0.4534
 -0.3459  -0.2975
 -- Virtual --
  0.1125   0.1454   0.1599   0.1815   0.1887   0.1926   0.2206   0.2220
  0.2323   0.2365   0.3168   0.3296   0.3551   0.3600   0.3924   0.4133
  0.4255   0.4442   0.4558   0.4940   0.4994   0.5140   0.5217   0.5376
  0.5487   0.5596   0.5744   0.5799   0.5933   0.6141   0.6178   0.6284
  0.6309   0.6406   0.6458   0.6587   0.6878   0.7154   0.7440   0.7766
  0.7885   0.8163   0.8482   0.8587   0.8630   0.8796   0.8990   0.9330
  0.9552   0.9895   1.0015   1.0313   1.0614   1.0663   1.0976   1.1027
  1.1277   1.1446   1.1716   1.1820   1.2215   1.2328   1.2452   1.2646
  1.2757   1.3315   1.3444   1.3609   1.3828   1.4031   1.4266   1.4449
  1.4613   1.4933   1.5021   1.5234   1.5367   1.5557   1.5732   1.5886
  1.6062   1.6341   1.6486   1.6855   1.7454   1.7506   1.7657   1.7904
  1.8401   1.8879   1.9110   1.9277   1.9448   2.0168   2.0616   2.0778
  2.1530   2.1701   2.2190   2.2397   2.2586   2.2714   2.3059   2.4085
  2.4260   2.4597   2.4662   2.5322   2.5485   2.5812   2.6263   2.6619
  2.7062   2.7275   2.7359   2.7556   2.7701   2.7765   2.8011   2.8291
  2.8590   2.8856   2.9155   2.9641   2.9922   3.0067   3.0213   3.0457
  3.0544   3.0895   3.1159   3.1531   3.1712   3.2078   3.2250   3.2561
  3.2610   3.2639   3.2811   3.3162   3.3190   3.3428   3.3603   3.3866
  3.4149   3.4183   3.4269   3.4435   3.4659   3.4721   3.4861   3.4975
  3.5144   3.5224   3.5377   3.5600   3.6010   3.6107   3.6300   3.6501
  3.6682   3.6970   3.7111   3.7252   3.7366   3.8000   3.8186   3.8348
  3.8678   3.9042   3.9159   3.9230   3.9311   3.9452   3.9743   3.9891
  4.0022   4.0320   4.0721   4.1065   4.1345   4.1637   4.1739   4.2116
  4.2371   4.2568   4.2730   4.3031   4.3296   4.3579   4.3681   4.3951
  4.4392   4.4460   4.4803   4.4997   4.5356   4.5630   4.5801   4.6441
  4.6749   4.7018   4.7333   4.7643   4.7883   4.8212   4.8354   4.9285
  4.9548   4.9995   5.0204   5.0439   5.0863   5.1397   5.1732   5.1891
  5.2221   5.3007   5.3551   5.4119   5.4260   5.4972   5.5299   5.5875
  5.6193   5.6839   5.7980   5.8105   5.8909   5.9983   6.0344   6.0507
  6.1168   6.3250   6.4387   6.4721   6.7011   9.4224  11.2842  12.8297
 13.9131  14.3446
 --------------------------------------------------------------
 
          Ground-State Mulliken Net Atomic Charges

     Atom                 Charge (a.u.)
  ----------------------------------------
      1 C                     0.033531
      2 S                    -0.002475
      3 C                    -0.252319
      4 C                    -0.247807
      5 C                    -0.183589
      6 H                     0.180482
      7 H                     0.186161
      8 C                    -0.369259
      9 H                     0.139134
     10 H                     0.137745
     11 H                     0.175060
     12 H                     0.203336
  ----------------------------------------
  Sum of atomic charges =     0.000000

 -----------------------------------------------------------------
                    Cartesian Multipole Moments
 -----------------------------------------------------------------
    Charge (ESU x 10^10)
                -0.0000
    Dipole Moment (Debye)
         X      -0.5646      Y      -0.8757      Z      -1.2140
       Tot       1.5999
    Quadrupole Moments (Debye-Ang)
        XX     -47.9220     XY       3.0437     YY     -36.1666
        XZ       0.1274     YZ       0.7941     ZZ     -41.7405
    Octopole Moments (Debye-Ang^2)
       XXX     -13.4520    XXY     -20.2818    XYY      -2.5040
       YYY     -43.8982    XXZ      -6.9675    XYZ       0.8092
       YYZ      -3.4766    XZZ      -2.5011    YZZ     -11.7562
       ZZZ     -28.2394
    Hexadecapole Moments (Debye-Ang^3)
      XXXX     -76.3602   XXXY     -38.1298   XXYY    -114.2699
      XYYY     -12.9816   YYYY    -493.4093   XXXZ      -1.8745
      XXYZ      -6.9708   XYYZ      -0.2706   YYYZ     -15.4861
      XXZZ     -71.2426   XYZZ      -6.7671   YYZZ    -121.8481
      XZZZ      -1.3898   YZZZ     -15.0839   ZZZZ    -308.1579
 -----------------------------------------------------------------
 Total job time:  40.91s(wall), 572.37s(cpu) 
 Wed Dec 27 10:06:20 2023

        *************************************************************
        *                                                           *
        *  Thank you very much for using Q-Chem.  Have a nice day.  *
        *                                                           *
        *************************************************************


0 sent ACK to 0 
now end server 0 ... 
cleanup process ... done
remove work dirs ./qchem2966662.0 -- ./qchem2966662.0
rm -rf ./qchem2966662.0
rm -rf ./qchem2966662
