You are running Q-Chem version: 5.4.0

#
# job setting
#
local host:  exp-4-24
current dir: /home/rramji/project-csd799/aromodel/pndit-qchem/methylated-rotation-run
input file:  Dimethyl_Naphthalene_Dicarboximide_Phi_10_Theta_180_Thiophene_Hydrogenated_Improper.qcin
output file: 
nprocs     : 1
nthreads   : 64
#
# qchem installation setting
#
QC:          /cm/shared/apps/spack/cpu/opt/spack/linux-centos8-zen2/gcc-10.2.0/qchem-5.4-akfmr7b3t57bfs6qan3padb2wnb2i7cl
QCAUX:       /cm/shared/apps/spack/cpu/opt/spack/linux-centos8-zen2/gcc-10.2.0/qchem-5.4-akfmr7b3t57bfs6qan3padb2wnb2i7cl/qcaux
QCPROG:      /cm/shared/apps/spack/cpu/opt/spack/linux-centos8-zen2/gcc-10.2.0/qchem-5.4-akfmr7b3t57bfs6qan3padb2wnb2i7cl/exe/qcprog.exe
QCPROG_S:    /cm/shared/apps/spack/cpu/opt/spack/linux-centos8-zen2/gcc-10.2.0/qchem-5.4-akfmr7b3t57bfs6qan3padb2wnb2i7cl/exe/qcprog.exe_s
PARALLEL:    -DPARALLEL
QCMPI:       mpich
#
# qchem directory setting
#
qcrun:       qchem2966499
QCSCRATCH:   .
QCLOCALSCR:  
QCTMPDIR:    .
QCFILEPREF:  ./qchem2966499
QCSAVEDIR:   
workdirs:    ./qchem2966499
workdir0:    ./qchem2966499
partmpdirs =  
#
# parallel setting
#
QCRSH:           ssh
QCMPI:           mpich
QCMPIRUN:        /cm/shared/apps/spack/cpu/opt/spack/linux-centos8-zen2/gcc-10.2.0/qchem-5.4-akfmr7b3t57bfs6qan3padb2wnb2i7cl/bin/mpi/mpirun_qchem
QCMACHINEFILE:   ./qchem2966499/hostfile
exp-4-24

#
# env setting
#
exported envs:   QC QCAUX QCSCRATCH QCRUNNAME QCFILEPREF QCPROG QCPROG_S GUIFILE

Running Job 1 of 1 Dimethyl_Naphthalene_Dicarboximide_Phi_10_Theta_180_Thiophene_Hydrogenated_Improper.qcin
qchem Dimethyl_Naphthalene_Dicarboximide_Phi_10_Theta_180_Thiophene_Hydrogenated_Improper.qcin_2966499.0 ./qchem2966499/ 1
/cm/shared/apps/spack/cpu/opt/spack/linux-centos8-zen2/gcc-10.2.0/qchem-5.4-akfmr7b3t57bfs6qan3padb2wnb2i7cl/bin/mpi/mpirun_qchem -machinefile ./qchem2966499/hostfile -np 1 /cm/shared/apps/spack/cpu/opt/spack/linux-centos8-zen2/gcc-10.2.0/qchem-5.4-akfmr7b3t57bfs6qan3padb2wnb2i7cl/exe/qcprog.exe Dimethyl_Naphthalene_Dicarboximide_Phi_10_Theta_180_Thiophene_Hydrogenated_Improper.qcin_2966499.0 ./qchem2966499/

Process 0 of 1 is on exp-4-24 - thread support 0
initial socket setup ...start
initial socket setup ...done 
now start server 0 ... 
                  Welcome to Q-Chem
     A Quantum Leap Into The Future Of Chemistry


 Q-Chem 5.4, Q-Chem, Inc., Pleasanton, CA (2021)

 License issued to: University of California, San Diego (site)

 E. Epifanovsky,  A. T. B. Gilbert,  Xintian Feng,  Joonho Lee,  Yuezhi Mao,  
 N. Mardirossian,  P. Pokhilko,  A. White,  M. Wormit,  M. P. Coons,  
 A. L. Dempwolff,  Zhengting Gan,  D. Hait,  P. R. Horn,  L. D. Jacobson,  
 I. Kaliman,  J. Kussmann,  A. W. Lange,  Ka Un Lao,  D. S. Levine,  Jie Liu,  
 S. C. McKenzie,  A. F. Morrison,  K. Nanda,  F. Plasser,  D. R. Rehn,  
 M. L. Vidal,  Zhi-Qiang You,  Ying Zhu,  B. Alam,  B. Albrecht,  
 A. Aldossary,  E. Alguire,  J. H. Andersen,  D. Barton,  K. Begam,  A. Behn,  
 Y. A. Bernard,  E. J. Berquist,  H. Burton,  A. Carreras,  K. Carter-Fenk,  
 R. Chakraborty,  A. D. Chien,  K. D. Closser,  V. Cofer-Shabica,  
 S. Dasgupta,  Jia Deng,  M. de Wergifosse,  M. Diedenhofen,  Hainam Do,  
 S. Ehlert,  Po-Tung Fang,  S. Fatehi,  Qingguo Feng,  J. Gayvert,  
 Qinghui Ge,  G. Gidofalvi,  M. Goldey,  J. Gomes,  C. Gonzalez-Espinoza,  
 S. Gulania,  A. Gunina,  M. W. D. Hanson-Heine,  P. H. P. Harbach,  
 A. W. Hauser,  M. F. Herbst,  M. Hernandez Vera,  M. Hodecker,  
 Z. C. Holden,  S. Houck,  Xunkun Huang,  Kerwin Hui,  B. C. Huynh,  
 M. Ivanov,  Hyunjun Ji,  Hanjie Jiang,  B. Kaduk,  S. Kaehler,  
 K. Khistyaev,  Jaehoon Kim,  P. Klunzinger,  Z. Koczor-Benda,  
 Joong Hoon Koh,  D. Kosenkov,  L. Koulias,  T. Kowalczyk,  C. M. Krauter,  
 K. Kue,  A. Kunitsa,  T. Kus,  A. Landau,  K. V. Lawler,  D. Lefrancois,  
 S. Lehtola,  Rain Li,  Yi-Pei Li,  Jiashu Liang,  M. Liebenthal,  
 Hung-Hsuan Lin,  You-Sheng Lin,  Fenglai Liu,  Kuan-Yu Liu,  
 M. Loipersberger,  A. Luenser,  A. Manjanath,  P. Manohar,  E. Mansoor,  
 S. F. Manzer,  Shan-Ping Mao,  A. V. Marenich,  T. Markovich,  S. Mason,  
 S. A. Maurer,  P. F. McLaughlin,  M. F. S. J. Menger,  J.-M. Mewes,  
 S. A. Mewes,  P. Morgante,  J. W. Mullinax,  T. S. Nguyen-Beck,  
 K. J. Oosterbaan,  G. Paran,  Alexander C. Paul,  Suranjan K. Paul,  
 F. Pavosevic,  Zheng Pei,  S. Prager,  E. I. Proynov,  E. Ramos,  B. Rana,  
 A. E. Rask,  A. Rettig,  R. M. Richard,  F. Rob,  E. Rossomme,  T. Scheele,  
 M. Scheurer,  M. Schneider,  N. Sergueev,  S. M. Sharada,  W. Skomorowski,  
 D. W. Small,  C. J. Stein,  Yu-Chuan Su,  E. J. Sundstrom,  Zhen Tao,  
 J. Thirman,  T. Tsuchimochi,  N. M. Tubman,  S. P. Veccham,  O. Vydrov,  
 J. Wenzel,  J. Witte,  A. Yamada,  Kun Yao,  S. Yeganeh,  S. R. Yost,  
 A. Zech,  Igor Ying Zhang,  Xing Zhang,  Yu Zhang,  D. Zuev,  
 A. Aspuru-Guzik,  A. T. Bell,  N. A. Besley,  K. B. Bravaya,  B. R. Brooks,  
 D. Casanova,  Jeng-Da Chai,  S. Coriani,  C. J. Cramer,  
 A. E. DePrince, III,  R. A. DiStasio Jr.,  A. Dreuw,  B. D. Dunietz,  
 T. R. Furlani,  W. A. Goddard III,  S. Grimme,  S. Hammes-Schiffer,  
 T. Head-Gordon,  W. J. Hehre,  Chao-Ping Hsu,  T.-C. Jagau,  Yousung Jung,  
 A. Klamt,  Jing Kong,  D. S. Lambrecht,  WanZhen Liang,  N. J. Mayhall,  
 C. W. McCurdy,  J. B. Neaton,  C. Ochsenfeld,  J. A. Parkhill,  R. Peverati,  
 V. A. Rassolov,  Yihan Shao,  L. V. Slipchenko,  T. Stauch,  R. P. Steele,  
 J. E. Subotnik,  A. J. W. Thom,  A. Tkatchenko,  D. G. Truhlar,  
 T. Van Voorhis,  T. A. Wesolowski,  K. B. Whaley,  H. L. Woodcock III,  
 P. M. Zimmerman,  S. Faraji,  P. M. W. Gill,  M. Head-Gordon,  
 J. M. Herbert,  A. I. Krylov

 Contributors to earlier versions of Q-Chem not listed above: 
 R. D. Adamson,  B. Austin,  R. Baer,  J. Baker,  G. J. O. Beran,  
 K. Brandhorst,  S. T. Brown,  E. F. C. Byrd,  A. K. Chakraborty,  
 G. K. L. Chan,  Chun-Min Chang,  Yunqing Chen,  C.-L. Cheng,  
 Siu Hung Chien,  D. M. Chipman,  D. L. Crittenden,  H. Dachsel,  
 R. J. Doerksen,  A. D. Dutoi,  R. G. Edgar,  J. Fosso-Tande,  
 L. Fusti-Molnar,  D. Ghosh,  A. Ghysels,  A. Golubeva-Zadorozhnaya,  
 J. Gonthier,  M. S. Gordon,  S. R. Gwaltney,  G. Hawkins,  J. E. Herr,  
 A. Heyden,  S. Hirata,  E. G. Hohenstein,  G. Kedziora,  F. J. Keil,  
 C. Kelley,  Jihan Kim,  R. A. King,  R. Z. Khaliullin,  P. P. Korambath,  
 W. Kurlancheek,  A. Laurent,  A. M. Lee,  M. S. Lee,  S. V. Levchenko,  
 Ching Yeh Lin,  D. Liotard,  E. Livshits,  R. C. Lochan,  I. Lotan,  
 L. A. Martinez-Martinez,  P. E. Maslen,  N. Nair,  D. P. O'Neill,  
 D. Neuhauser,  E. Neuscamman,  C. M. Oana,  R. Olivares-Amaya,  R. Olson,  
 T. M. Perrine,  B. Peters,  P. A. Pieniazek,  A. Prociuk,  Y. M. Rhee,  
 J. Ritchie,  M. A. Rohrdanz,  E. Rosta,  N. J. Russ,  H. F. Schaefer III,  
 M. W. Schmidt,  N. E. Schultz,  S. Sharma,  N. Shenvi,  C. D. Sherrill,  
 A. C. Simmonett,  A. Sodt,  T. Stein,  D. Stuck,  K. S. Thanthiriwatte,  
 V. Vanovschi,  L. Vogt,  Tao Wang,  A. Warshel,  M. A. Watson,  
 C. F. Williams,  Q. Wu,  X. Xu,  Jun Yang,  W. Zhang,  Yan Zhao

 Please cite Q-Chem as follows:
 Y. Shao et al., Mol. Phys. 113, 184-215 (2015)
 DOI: 10.1080/00268976.2014.952696

 Q-Chem 5.4.0 for Intel X86 EM64T Linux

 Parts of Q-Chem use Armadillo 9.800.1 (Horizon Scraper).
 http://arma.sourceforge.net/

 Q-Chem begins on Wed Dec 27 10:05:00 2023  

 Host: 
0

     Scratch files written to ./qchem2966499//
 May1621 |scratch|qcdevops|jenkins|workspace|build_RNUM    
 Parallel job on  1  processors
 Processing $rem in /cm/shared/apps/spack/cpu/opt/spack/linux-centos8-zen2/gcc-10.2.0/qchem-5.4-akfmr7b3t57bfs6qan3padb2wnb2i7cl/config/preferences:
 Processing $rem in /home/rramji/.qchemrc:
 Symmetry turned off for PCM/SM12/SMD calculation
 Core orbitals will be frozen

 Checking the input file for inconsistencies... 	...done.

 Q-Chem warning in module forms1/BasisType.C, line 2236:

 You are not using the predefined 5D/6D in this basis set.


--------------------------------------------------------------
User input:
--------------------------------------------------------------
$molecule
0 1
C	-0.084403	-0.391505	-0.213580
S	0.053097	0.389695	1.366920
C	0.337497	2.002495	0.691320
C	0.088697	0.591395	-1.198980
C	0.317897	1.891595	-0.707080
H	0.047797	0.359295	-2.273480
H	0.470797	2.759095	-1.366180
C	-0.084403	-1.869705	-0.213580
H	-1.164403	-1.870305	-0.214080
H	-0.084403	-2.309005	-1.200180
H	-0.084303	-2.580705	0.599420
H	0.490297	2.869795	1.342420
$end

$rem
JOBTYPE		SP
EXCHANGE	HF
CORRELATION	pRIMP2
BASIS		cc-pvtz
METHOD		rimp2
AUX_BASIS	rimp2-cc-pvtz
SOLVENT_METHOD	PCM
PURECART	11111
SYMMETRY	false
MEM_TOTAL	110000
SCF_CONVERGENCE = 6
THRESH=10
GUI = 2
$end



$solvent
dielectric 4.90
$end
--------------------------------------------------------------
 ----------------------------------------------------------------
             Standard Nuclear Orientation (Angstroms)
    I     Atom           X                Y                Z
 ----------------------------------------------------------------
    1      C      -0.0844030000    -0.3915050000    -0.2135800000
    2      S       0.0530970000     0.3896950000     1.3669200000
    3      C       0.3374970000     2.0024950000     0.6913200000
    4      C       0.0886970000     0.5913950000    -1.1989800000
    5      C       0.3178970000     1.8915950000    -0.7070800000
    6      H       0.0477970000     0.3592950000    -2.2734800000
    7      H       0.4707970000     2.7590950000    -1.3661800000
    8      C      -0.0844030000    -1.8697050000    -0.2135800000
    9      H      -1.1644030000    -1.8703050000    -0.2140800000
   10      H      -0.0844030000    -2.3090050000    -1.2001800000
   11      H      -0.0843030000    -2.5807050000     0.5994200000
   12      H       0.4902970000     2.8697950000     1.3424200000
 ----------------------------------------------------------------
 Nuclear Repulsion Energy =         270.17634012 hartrees
 There are       26 alpha and       26 beta electrons
 Requested basis set is cc-pVTZ
 There are 98 shells and 268 basis functions

 Total QAlloc Memory Limit 110000 MB
 Mega-Array Size       188 MB
 MEM_STATIC part       192 MB
 Discretize the solute cavity surface with Lebedev spheres
	Using 110 Lebedev grid points for each H atom
	Using 194 Lebedev grid points for other atoms
	Atomic van der Waals radii will be scaled by 1.20
 Remove points where switching function is < 1.0e-08
 Keep 879 surface tesserae and discard 945 interior tesserae
 Molecular Surface Area = 138.099 Angst**2

                       Distance Matrix (Angstroms)
             C (  1)   S (  2)   C (  3)   C (  4)   C (  5)   H (  6)
   S (  2)  1.768378
   C (  3)  2.593854  1.771565
   C (  4)  1.402522  2.574062  2.371990
   C (  5)  2.370218  2.574354  1.402927  1.408907
   H (  6)  2.196444  3.640531  3.402069  1.100042  2.207828
   H (  7)  3.400443  3.641204  2.196251  2.207460  1.100158  2.600224
   C (  8)  1.478200  2.760756  3.998847  2.656688  3.814809  3.037944
   H (  9)  1.831188  3.014874  4.251357  2.932619  4.073347  3.268283
   H ( 10)  2.156429  3.727183  4.727029  2.905561  4.248533  2.879110
   H ( 11)  2.335287  3.071028  4.603486  3.650533  4.676556  4.112737
   H ( 12)  3.658892  2.518460  1.095212  3.436729  2.277509  4.424155
             H (  7)   C (  8)   H (  9)   H ( 10)   H ( 11)
   C (  8)  4.802346
   H (  9)  5.043070  1.080000
   H ( 10)  5.101122  1.079983  1.526843
   H ( 11)  5.717096  1.080042  1.527438  1.819995
   H ( 12)  2.710931  5.021382  5.256355  5.797850  5.530838
 
 Requested basis set is rimp2-cc-pVTZ
 There are 207 shells and 707 basis functions
 A cutoff of  1.0D-10 yielded   4358 shell pairs
 There are     32756 function pairs (     42373 Cartesian)
 Smallest overlap matrix eigenvalue = 1.13E-04

 Scale SEOQF with 1.000000e+00/1.000000e-01/1.000000e-01

 Standard Electronic Orientation quadrupole field applied
 Nucleus-field energy     =     0.0000000026 hartrees
 Guess from superposition of atomic densities
 Warning:  Energy on first SCF cycle will be non-variational
 SAD guess density has 52.000000 electrons

 -----------------------------------------------------------------------
  General SCF calculation program by
  Eric Jon Sundstrom, Paul Horn, Yuezhi Mao, Dmitri Zuev, Alec White,
  David Stuck, Shaama M.S., Shane Yost, Joonho Lee, David Small,
  Daniel Levine, Susi Lehtola, Hugh Burton, Evgeny Epifanovsky,
  Bang C. Huynh
 -----------------------------------------------------------------------
 Hartree-Fock
 using 64 threads for integral computing
 -------------------------------------------------------
 OpenMP Integral computing Module                
 Release: version 1.0, May 2013, Q-Chem Inc. Pittsburgh 
 -------------------------------------------------------
 A restricted SCF calculation will be
 performed using DIIS
 SCF converges when DIIS error is below 1.0e-06
 ---------------------------------------
  Cycle       Energy         DIIS error
 ---------------------------------------
    1    -592.5687365825      3.22e-02  
    2    -590.2996575379      2.19e-03  
    3    -590.3605049274      8.48e-04  
    4    -590.3678723817      4.05e-04  
    5    -590.3699535514      7.03e-05  
    6    -590.3700786630      3.19e-05  
    7    -590.3701084013      1.41e-05  
    8    -590.3701176135      5.61e-06  
    9    -590.3701190288      1.84e-06  
   10    -590.3701191544      6.31e-07  Convergence criterion met
 ---------------------------------------
 SCF time:   CPU 487.97s  wall 9.00s 

************** Final PCM Free Energy Summary **************
 G_electrostatic  =      -0.00620567 hartree =      -3.89411741 kcal/mol
 G_cavitation     =       0.00000000 hartree =       0.00000000 kcal/mol
 G_dispersion     =       0.00000000 hartree =       0.00000000 kcal/mol
 G_repulsion      =       0.00000000 hartree =       0.00000000 kcal/mol
 --------------------------------------------------
 Non-electrostatic Free Energy =       0.00000000 hartree =       0.00000000 kcal/mol
 Total                         =      -0.00620567 hartree =      -3.89411741 kcal/mol
 --------------------------------------------------
 SCF Energy (H0 + V/2)                       =    -590.37011915 
 Solute Internal Energy (H0)                 =    -590.36391348 
 Total Free Energy (H0 + V/2 + non-elec)     =    -590.37011915 hartree
                                             = -370462.84116481 kcal/mol
***********************************************************

 SCF   energy in the final basis set =     -590.3701191544
 Total energy in the final basis set =     -590.3701191544


 --------------------------------------------------------------
  Generalized many-body perturbation theory program
  by Joonho Lee, Fazle Rob, Xintian Feng, Evgeny Epifanovsky

 No regularization used 
 (reg. param. = 0.0000e+00)
  (P|Q)^-1/2 Time:  CPU 6.94 s  wall 0.11 s

 In RI-MP2 calculation: 
 # of frozen core orbitals: 10

 Components of the RIMP2 correlation energy:
        aaaa    correlation energy =        -0.1251574482 a.u.
        abab    correlation energy =        -0.7506067181 a.u.
        bbbb    correlation energy =        -0.1251574482 a.u.
        non-Brillouin singles      =        -0.0000000000 a.u.
        total same-spin energy     =        -0.2503148964 a.u.
        total opposite-spin energy =        -0.7506067181 a.u.

 Total  RIMP2   correlation energy =        -1.0009216144 a.u.
        RIMP2         total energy =      -591.3710407689 a.u.

 RI-MP2 Energy Time:  CPU 26.22 s  wall 0.46 s
 
 --------------------------------------------------------------
 
                    Orbital Energies (a.u.)
 --------------------------------------------------------------
 
 Alpha MOs
 -- Occupied --
-91.9770 -11.2913 -11.2625 -11.2429 -11.2327 -11.2275  -8.9770  -6.6579
 -6.6574  -6.6568  -1.1567  -1.0403  -0.9710  -0.9201  -0.7545  -0.7217
 -0.6704  -0.5985  -0.5646  -0.5551  -0.5496  -0.4939  -0.4732  -0.4542
 -0.3461  -0.2974
 -- Virtual --
  0.1118   0.1454   0.1599   0.1819   0.1885   0.1976   0.2187   0.2216
  0.2283   0.2367   0.3147   0.3334   0.3526   0.3624   0.3924   0.4121
  0.4278   0.4448   0.4547   0.4931   0.5041   0.5102   0.5211   0.5356
  0.5544   0.5587   0.5752   0.5774   0.5971   0.6142   0.6171   0.6309
  0.6329   0.6347   0.6443   0.6597   0.6895   0.7171   0.7461   0.7777
  0.7837   0.8103   0.8431   0.8590   0.8632   0.8789   0.8966   0.9371
  0.9549   0.9854   1.0043   1.0389   1.0638   1.0765   1.0923   1.1045
  1.1284   1.1389   1.1712   1.1745   1.2201   1.2348   1.2437   1.2646
  1.2818   1.3282   1.3447   1.3592   1.3949   1.4090   1.4123   1.4451
  1.4685   1.4934   1.5057   1.5250   1.5367   1.5521   1.5680   1.5900
  1.6087   1.6385   1.6479   1.6834   1.7416   1.7518   1.7728   1.7939
  1.8310   1.8876   1.9139   1.9300   1.9373   2.0241   2.0625   2.0770
  2.1520   2.1698   2.2204   2.2433   2.2478   2.2746   2.3207   2.4119
  2.4287   2.4579   2.4632   2.5354   2.5457   2.5838   2.6349   2.6613
  2.7016   2.7191   2.7367   2.7489   2.7733   2.7757   2.7917   2.8303
  2.8561   2.8913   2.9184   2.9603   2.9966   3.0083   3.0210   3.0475
  3.0667   3.0984   3.1192   3.1338   3.1723   3.2073   3.2272   3.2552
  3.2577   3.2649   3.2831   3.3108   3.3249   3.3478   3.3566   3.3909
  3.4089   3.4231   3.4246   3.4403   3.4653   3.4773   3.4943   3.4954
  3.5102   3.5223   3.5231   3.5591   3.6018   3.6070   3.6261   3.6536
  3.6664   3.7015   3.7143   3.7321   3.7431   3.7939   3.8199   3.8430
  3.8683   3.9009   3.9134   3.9231   3.9358   3.9450   3.9850   3.9914
  4.0017   4.0329   4.0718   4.1050   4.1329   4.1654   4.1746   4.2124
  4.2403   4.2449   4.2773   4.3036   4.3275   4.3630   4.3666   4.3928
  4.4417   4.4493   4.4830   4.5059   4.5330   4.5586   4.5781   4.6449
  4.6741   4.6972   4.7193   4.7720   4.7833   4.8219   4.8285   4.9402
  4.9564   5.0005   5.0210   5.0474   5.0876   5.1451   5.1627   5.1911
  5.2165   5.2996   5.3560   5.4120   5.4263   5.4991   5.5281   5.5891
  5.6165   5.6902   5.7956   5.8081   5.8942   6.0045   6.0327   6.0647
  6.1212   6.3257   6.4398   6.4728   6.6981   9.4185  11.2724  12.8344
 13.9253  14.3141
 --------------------------------------------------------------
 
          Ground-State Mulliken Net Atomic Charges

     Atom                 Charge (a.u.)
  ----------------------------------------
      1 C                     0.025286
      2 S                    -0.005723
      3 C                    -0.249034
      4 C                    -0.239435
      5 C                    -0.187047
      6 H                     0.181908
      7 H                     0.185669
      8 C                    -0.365882
      9 H                     0.139758
     10 H                     0.136470
     11 H                     0.174100
     12 H                     0.203930
  ----------------------------------------
  Sum of atomic charges =     0.000000

 -----------------------------------------------------------------
                    Cartesian Multipole Moments
 -----------------------------------------------------------------
    Charge (ESU x 10^10)
                -0.0000
    Dipole Moment (Debye)
         X      -0.5703      Y      -0.8567      Z      -1.0858
       Tot       1.4960
    Quadrupole Moments (Debye-Ang)
        XX     -47.9502     XY       3.0218     YY     -36.1364
        XZ       0.2593     YZ       0.5554     ZZ     -41.7679
    Octopole Moments (Debye-Ang^2)
       XXX     -13.3730    XXY     -20.1678    XYY      -2.2937
       YYY     -43.8056    XXZ      -6.9982    XYZ       0.3814
       YYZ      -2.9639    XZZ      -2.5955    YZZ     -11.6974
       ZZZ     -28.3955
    Hexadecapole Moments (Debye-Ang^3)
      XXXX     -76.2927   XXXY     -38.3203   XXYY    -114.5744
      XYYY     -13.8799   YYYY    -493.1846   XXXZ      -2.2189
      XXYZ      -6.7281   XYYZ       0.9702   YYYZ     -15.7964
      XXZZ     -71.3067   XYZZ      -6.4904   YYZZ    -121.6620
      XZZZ      -1.1258   YZZZ     -14.5437   ZZZZ    -307.6964
 -----------------------------------------------------------------
 Total job time:  36.11s(wall), 559.69s(cpu) 
 Wed Dec 27 10:05:36 2023

        *************************************************************
        *                                                           *
        *  Thank you very much for using Q-Chem.  Have a nice day.  *
        *                                                           *
        *************************************************************


0 sent ACK to 0 
now end server 0 ... 
cleanup process ... done
remove work dirs ./qchem2966499.0 -- ./qchem2966499.0
rm -rf ./qchem2966499.0
rm -rf ./qchem2966499
