You are running Q-Chem version: 5.4.0

#
# job setting
#
local host:  exp-6-47
current dir: /home/rramji/project-csd799/aromodel/pndit-qchem/methylated-rotation-run
input file:  Dimethyl_Naphthalene_Dicarboximide_Phi_30_Theta_50_Thiophene_Hydrogenated_Improper.qcin
output file: 
nprocs     : 1
nthreads   : 64
#
# qchem installation setting
#
QC:          /cm/shared/apps/spack/cpu/opt/spack/linux-centos8-zen2/gcc-10.2.0/qchem-5.4-akfmr7b3t57bfs6qan3padb2wnb2i7cl
QCAUX:       /cm/shared/apps/spack/cpu/opt/spack/linux-centos8-zen2/gcc-10.2.0/qchem-5.4-akfmr7b3t57bfs6qan3padb2wnb2i7cl/qcaux
QCPROG:      /cm/shared/apps/spack/cpu/opt/spack/linux-centos8-zen2/gcc-10.2.0/qchem-5.4-akfmr7b3t57bfs6qan3padb2wnb2i7cl/exe/qcprog.exe
QCPROG_S:    /cm/shared/apps/spack/cpu/opt/spack/linux-centos8-zen2/gcc-10.2.0/qchem-5.4-akfmr7b3t57bfs6qan3padb2wnb2i7cl/exe/qcprog.exe_s
PARALLEL:    -DPARALLEL
QCMPI:       mpich
#
# qchem directory setting
#
qcrun:       qchem2751078
QCSCRATCH:   .
QCLOCALSCR:  
QCTMPDIR:    .
QCFILEPREF:  ./qchem2751078
QCSAVEDIR:   
workdirs:    ./qchem2751078
workdir0:    ./qchem2751078
partmpdirs =  
#
# parallel setting
#
QCRSH:           ssh
QCMPI:           mpich
QCMPIRUN:        /cm/shared/apps/spack/cpu/opt/spack/linux-centos8-zen2/gcc-10.2.0/qchem-5.4-akfmr7b3t57bfs6qan3padb2wnb2i7cl/bin/mpi/mpirun_qchem
QCMACHINEFILE:   ./qchem2751078/hostfile
exp-6-47

#
# env setting
#
exported envs:   QC QCAUX QCSCRATCH QCRUNNAME QCFILEPREF QCPROG QCPROG_S GUIFILE

Running Job 1 of 1 Dimethyl_Naphthalene_Dicarboximide_Phi_30_Theta_50_Thiophene_Hydrogenated_Improper.qcin
qchem Dimethyl_Naphthalene_Dicarboximide_Phi_30_Theta_50_Thiophene_Hydrogenated_Improper.qcin_2751078.0 ./qchem2751078/ 1
/cm/shared/apps/spack/cpu/opt/spack/linux-centos8-zen2/gcc-10.2.0/qchem-5.4-akfmr7b3t57bfs6qan3padb2wnb2i7cl/bin/mpi/mpirun_qchem -machinefile ./qchem2751078/hostfile -np 1 /cm/shared/apps/spack/cpu/opt/spack/linux-centos8-zen2/gcc-10.2.0/qchem-5.4-akfmr7b3t57bfs6qan3padb2wnb2i7cl/exe/qcprog.exe Dimethyl_Naphthalene_Dicarboximide_Phi_30_Theta_50_Thiophene_Hydrogenated_Improper.qcin_2751078.0 ./qchem2751078/

Process 0 of 1 is on exp-6-47 - thread support 0
initial socket setup ...start
initial socket setup ...done 
now start server 0 ... 
                  Welcome to Q-Chem
     A Quantum Leap Into The Future Of Chemistry


 Q-Chem 5.4, Q-Chem, Inc., Pleasanton, CA (2021)

 License issued to: University of California, San Diego (site)

 E. Epifanovsky,  A. T. B. Gilbert,  Xintian Feng,  Joonho Lee,  Yuezhi Mao,  
 N. Mardirossian,  P. Pokhilko,  A. White,  M. Wormit,  M. P. Coons,  
 A. L. Dempwolff,  Zhengting Gan,  D. Hait,  P. R. Horn,  L. D. Jacobson,  
 I. Kaliman,  J. Kussmann,  A. W. Lange,  Ka Un Lao,  D. S. Levine,  Jie Liu,  
 S. C. McKenzie,  A. F. Morrison,  K. Nanda,  F. Plasser,  D. R. Rehn,  
 M. L. Vidal,  Zhi-Qiang You,  Ying Zhu,  B. Alam,  B. Albrecht,  
 A. Aldossary,  E. Alguire,  J. H. Andersen,  D. Barton,  K. Begam,  A. Behn,  
 Y. A. Bernard,  E. J. Berquist,  H. Burton,  A. Carreras,  K. Carter-Fenk,  
 R. Chakraborty,  A. D. Chien,  K. D. Closser,  V. Cofer-Shabica,  
 S. Dasgupta,  Jia Deng,  M. de Wergifosse,  M. Diedenhofen,  Hainam Do,  
 S. Ehlert,  Po-Tung Fang,  S. Fatehi,  Qingguo Feng,  J. Gayvert,  
 Qinghui Ge,  G. Gidofalvi,  M. Goldey,  J. Gomes,  C. Gonzalez-Espinoza,  
 S. Gulania,  A. Gunina,  M. W. D. Hanson-Heine,  P. H. P. Harbach,  
 A. W. Hauser,  M. F. Herbst,  M. Hernandez Vera,  M. Hodecker,  
 Z. C. Holden,  S. Houck,  Xunkun Huang,  Kerwin Hui,  B. C. Huynh,  
 M. Ivanov,  Hyunjun Ji,  Hanjie Jiang,  B. Kaduk,  S. Kaehler,  
 K. Khistyaev,  Jaehoon Kim,  P. Klunzinger,  Z. Koczor-Benda,  
 Joong Hoon Koh,  D. Kosenkov,  L. Koulias,  T. Kowalczyk,  C. M. Krauter,  
 K. Kue,  A. Kunitsa,  T. Kus,  A. Landau,  K. V. Lawler,  D. Lefrancois,  
 S. Lehtola,  Rain Li,  Yi-Pei Li,  Jiashu Liang,  M. Liebenthal,  
 Hung-Hsuan Lin,  You-Sheng Lin,  Fenglai Liu,  Kuan-Yu Liu,  
 M. Loipersberger,  A. Luenser,  A. Manjanath,  P. Manohar,  E. Mansoor,  
 S. F. Manzer,  Shan-Ping Mao,  A. V. Marenich,  T. Markovich,  S. Mason,  
 S. A. Maurer,  P. F. McLaughlin,  M. F. S. J. Menger,  J.-M. Mewes,  
 S. A. Mewes,  P. Morgante,  J. W. Mullinax,  T. S. Nguyen-Beck,  
 K. J. Oosterbaan,  G. Paran,  Alexander C. Paul,  Suranjan K. Paul,  
 F. Pavosevic,  Zheng Pei,  S. Prager,  E. I. Proynov,  E. Ramos,  B. Rana,  
 A. E. Rask,  A. Rettig,  R. M. Richard,  F. Rob,  E. Rossomme,  T. Scheele,  
 M. Scheurer,  M. Schneider,  N. Sergueev,  S. M. Sharada,  W. Skomorowski,  
 D. W. Small,  C. J. Stein,  Yu-Chuan Su,  E. J. Sundstrom,  Zhen Tao,  
 J. Thirman,  T. Tsuchimochi,  N. M. Tubman,  S. P. Veccham,  O. Vydrov,  
 J. Wenzel,  J. Witte,  A. Yamada,  Kun Yao,  S. Yeganeh,  S. R. Yost,  
 A. Zech,  Igor Ying Zhang,  Xing Zhang,  Yu Zhang,  D. Zuev,  
 A. Aspuru-Guzik,  A. T. Bell,  N. A. Besley,  K. B. Bravaya,  B. R. Brooks,  
 D. Casanova,  Jeng-Da Chai,  S. Coriani,  C. J. Cramer,  
 A. E. DePrince, III,  R. A. DiStasio Jr.,  A. Dreuw,  B. D. Dunietz,  
 T. R. Furlani,  W. A. Goddard III,  S. Grimme,  S. Hammes-Schiffer,  
 T. Head-Gordon,  W. J. Hehre,  Chao-Ping Hsu,  T.-C. Jagau,  Yousung Jung,  
 A. Klamt,  Jing Kong,  D. S. Lambrecht,  WanZhen Liang,  N. J. Mayhall,  
 C. W. McCurdy,  J. B. Neaton,  C. Ochsenfeld,  J. A. Parkhill,  R. Peverati,  
 V. A. Rassolov,  Yihan Shao,  L. V. Slipchenko,  T. Stauch,  R. P. Steele,  
 J. E. Subotnik,  A. J. W. Thom,  A. Tkatchenko,  D. G. Truhlar,  
 T. Van Voorhis,  T. A. Wesolowski,  K. B. Whaley,  H. L. Woodcock III,  
 P. M. Zimmerman,  S. Faraji,  P. M. W. Gill,  M. Head-Gordon,  
 J. M. Herbert,  A. I. Krylov

 Contributors to earlier versions of Q-Chem not listed above: 
 R. D. Adamson,  B. Austin,  R. Baer,  J. Baker,  G. J. O. Beran,  
 K. Brandhorst,  S. T. Brown,  E. F. C. Byrd,  A. K. Chakraborty,  
 G. K. L. Chan,  Chun-Min Chang,  Yunqing Chen,  C.-L. Cheng,  
 Siu Hung Chien,  D. M. Chipman,  D. L. Crittenden,  H. Dachsel,  
 R. J. Doerksen,  A. D. Dutoi,  R. G. Edgar,  J. Fosso-Tande,  
 L. Fusti-Molnar,  D. Ghosh,  A. Ghysels,  A. Golubeva-Zadorozhnaya,  
 J. Gonthier,  M. S. Gordon,  S. R. Gwaltney,  G. Hawkins,  J. E. Herr,  
 A. Heyden,  S. Hirata,  E. G. Hohenstein,  G. Kedziora,  F. J. Keil,  
 C. Kelley,  Jihan Kim,  R. A. King,  R. Z. Khaliullin,  P. P. Korambath,  
 W. Kurlancheek,  A. Laurent,  A. M. Lee,  M. S. Lee,  S. V. Levchenko,  
 Ching Yeh Lin,  D. Liotard,  E. Livshits,  R. C. Lochan,  I. Lotan,  
 L. A. Martinez-Martinez,  P. E. Maslen,  N. Nair,  D. P. O'Neill,  
 D. Neuhauser,  E. Neuscamman,  C. M. Oana,  R. Olivares-Amaya,  R. Olson,  
 T. M. Perrine,  B. Peters,  P. A. Pieniazek,  A. Prociuk,  Y. M. Rhee,  
 J. Ritchie,  M. A. Rohrdanz,  E. Rosta,  N. J. Russ,  H. F. Schaefer III,  
 M. W. Schmidt,  N. E. Schultz,  S. Sharma,  N. Shenvi,  C. D. Sherrill,  
 A. C. Simmonett,  A. Sodt,  T. Stein,  D. Stuck,  K. S. Thanthiriwatte,  
 V. Vanovschi,  L. Vogt,  Tao Wang,  A. Warshel,  M. A. Watson,  
 C. F. Williams,  Q. Wu,  X. Xu,  Jun Yang,  W. Zhang,  Yan Zhao

 Please cite Q-Chem as follows:
 Y. Shao et al., Mol. Phys. 113, 184-215 (2015)
 DOI: 10.1080/00268976.2014.952696

 Q-Chem 5.4.0 for Intel X86 EM64T Linux

 Parts of Q-Chem use Armadillo 9.800.1 (Horizon Scraper).
 http://arma.sourceforge.net/

 Q-Chem begins on Wed Dec 27 10:01:05 2023  

 Host: 
0

     Scratch files written to ./qchem2751078//
 May1621 |scratch|qcdevops|jenkins|workspace|build_RNUM    
 Parallel job on  1  processors
 Processing $rem in /cm/shared/apps/spack/cpu/opt/spack/linux-centos8-zen2/gcc-10.2.0/qchem-5.4-akfmr7b3t57bfs6qan3padb2wnb2i7cl/config/preferences:
 Processing $rem in /home/rramji/.qchemrc:
 Symmetry turned off for PCM/SM12/SMD calculation
 Core orbitals will be frozen

 Checking the input file for inconsistencies... 	...done.

 Q-Chem warning in module forms1/BasisType.C, line 2236:

 You are not using the predefined 5D/6D in this basis set.


--------------------------------------------------------------
User input:
--------------------------------------------------------------
$molecule
0 1
C	-0.262039	-0.329934	-0.219296
S	0.134361	0.357066	1.361204
C	0.953161	1.775366	0.685604
C	0.236761	0.534466	-1.204696
C	0.896861	1.677866	-0.712796
H	0.118961	0.330366	-2.279196
H	1.337261	2.440766	-1.371896
C	-0.262039	-1.808134	-0.219296
H	0.431761	-1.808734	0.608404
H	-1.017839	-2.247434	0.414904
H	0.360661	-2.519134	-0.741996
H	1.393461	2.538166	1.336704
$end

$rem
JOBTYPE		SP
EXCHANGE	HF
CORRELATION	pRIMP2
BASIS		cc-pvtz
METHOD		rimp2
AUX_BASIS	rimp2-cc-pvtz
SOLVENT_METHOD	PCM
PURECART	11111
SYMMETRY	false
MEM_TOTAL	110000
SCF_CONVERGENCE = 6
THRESH=10
GUI = 2
$end



$solvent
dielectric 4.90
$end
--------------------------------------------------------------
 ----------------------------------------------------------------
             Standard Nuclear Orientation (Angstroms)
    I     Atom           X                Y                Z
 ----------------------------------------------------------------
    1      C      -0.2620390000    -0.3299340000    -0.2192960000
    2      S       0.1343610000     0.3570660000     1.3612040000
    3      C       0.9531610000     1.7753660000     0.6856040000
    4      C       0.2367610000     0.5344660000    -1.2046960000
    5      C       0.8968610000     1.6778660000    -0.7127960000
    6      H       0.1189610000     0.3303660000    -2.2791960000
    7      H       1.3372610000     2.4407660000    -1.3718960000
    8      C      -0.2620390000    -1.8081340000    -0.2192960000
    9      H       0.4317610000    -1.8087340000     0.6084040000
   10      H      -1.0178390000    -2.2474340000     0.4149040000
   11      H       0.3606610000    -2.5191340000    -0.7419960000
   12      H       1.3934610000     2.5381660000     1.3367040000
 ----------------------------------------------------------------
 Nuclear Repulsion Energy =         272.28761233 hartrees
 There are       26 alpha and       26 beta electrons
 Requested basis set is cc-pVTZ
 There are 98 shells and 268 basis functions

 Total QAlloc Memory Limit 110000 MB
 Mega-Array Size       188 MB
 MEM_STATIC part       192 MB
 Discretize the solute cavity surface with Lebedev spheres
	Using 110 Lebedev grid points for each H atom
	Using 194 Lebedev grid points for other atoms
	Atomic van der Waals radii will be scaled by 1.20
 Remove points where switching function is < 1.0e-08
 Keep 879 surface tesserae and discard 945 interior tesserae
 Molecular Surface Area = 137.199 Angst**2

                       Distance Matrix (Angstroms)
             C (  1)   S (  2)   C (  3)   C (  4)   C (  5)   H (  6)
   S (  2)  1.768356
   C (  3)  2.593809  1.771565
   C (  4)  1.402498  2.574063  2.371981
   C (  5)  2.370201  2.574373  1.402925  1.408922
   H (  6)  2.196439  3.640530  3.402051  1.100038  2.207826
   H (  7)  3.400445  3.641237  2.196269  2.207495  1.100173  2.600238
   C (  8)  1.478200  2.709835  3.890633  2.589901  3.706587  2.993582
   H (  9)  1.831200  2.312108  3.622650  2.969165  3.757428  3.607191
   H ( 10)  2.156444  3.001078  4.487877  3.454865  4.510628  3.898146
   H ( 11)  2.335287  3.570320  4.564190  3.090941  4.231214  3.246699
   H ( 12)  3.658936  2.518557  1.095290  3.436784  2.277538  4.424191
             H (  7)   C (  8)   H (  9)   H ( 10)   H ( 11)
   C (  8)  4.683951
   H (  9)  4.774910  1.080021
   H ( 10)  5.542415  1.080013  1.526840
   H ( 11)  5.094225  1.080042  1.527515  1.820028
   H ( 12)  2.710933  4.904298  4.511189  5.437467  5.564526
 
 Requested basis set is rimp2-cc-pVTZ
 There are 207 shells and 707 basis functions
 A cutoff of  1.0D-10 yielded   4416 shell pairs
 There are     33180 function pairs (     42912 Cartesian)
 Smallest overlap matrix eigenvalue = 1.46E-04

 Scale SEOQF with 1.000000e+00/1.000000e-01/1.000000e-01

 Standard Electronic Orientation quadrupole field applied
 Nucleus-field energy     =     0.0000000064 hartrees
 Guess from superposition of atomic densities
 Warning:  Energy on first SCF cycle will be non-variational
 SAD guess density has 52.000000 electrons

 -----------------------------------------------------------------------
  General SCF calculation program by
  Eric Jon Sundstrom, Paul Horn, Yuezhi Mao, Dmitri Zuev, Alec White,
  David Stuck, Shaama M.S., Shane Yost, Joonho Lee, David Small,
  Daniel Levine, Susi Lehtola, Hugh Burton, Evgeny Epifanovsky,
  Bang C. Huynh
 -----------------------------------------------------------------------
 Hartree-Fock
 using 64 threads for integral computing
 -------------------------------------------------------
 OpenMP Integral computing Module                
 Release: version 1.0, May 2013, Q-Chem Inc. Pittsburgh 
 -------------------------------------------------------
 A restricted SCF calculation will be
 performed using DIIS
 SCF converges when DIIS error is below 1.0e-06
 ---------------------------------------
  Cycle       Energy         DIIS error
 ---------------------------------------
    1    -592.6148709113      3.24e-02  
    2    -590.2816494065      2.19e-03  
    3    -590.3429227689      8.14e-04  
    4    -590.3500203842      3.83e-04  
    5    -590.3519283816      7.24e-05  
    6    -590.3520612783      3.12e-05  
    7    -590.3520961473      1.51e-05  
    8    -590.3521066779      6.04e-06  
    9    -590.3521083693      2.20e-06  
   10    -590.3521085515      6.38e-07  Convergence criterion met
 ---------------------------------------
 SCF time:   CPU 499.70s  wall 8.00s 

************** Final PCM Free Energy Summary **************
 G_electrostatic  =      -0.00531696 hartree =      -3.33644205 kcal/mol
 G_cavitation     =       0.00000000 hartree =       0.00000000 kcal/mol
 G_dispersion     =       0.00000000 hartree =       0.00000000 kcal/mol
 G_repulsion      =       0.00000000 hartree =       0.00000000 kcal/mol
 --------------------------------------------------
 Non-electrostatic Free Energy =       0.00000000 hartree =       0.00000000 kcal/mol
 Total                         =      -0.00531696 hartree =      -3.33644205 kcal/mol
 --------------------------------------------------
 SCF Energy (H0 + V/2)                       =    -590.35210855 
 Solute Internal Energy (H0)                 =    -590.34679159 
 Total Free Energy (H0 + V/2 + non-elec)     =    -590.35210855 hartree
                                             = -370451.53934091 kcal/mol
***********************************************************

 SCF   energy in the final basis set =     -590.3521085515
 Total energy in the final basis set =     -590.3521085515


 --------------------------------------------------------------
  Generalized many-body perturbation theory program
  by Joonho Lee, Fazle Rob, Xintian Feng, Evgeny Epifanovsky

 No regularization used 
 (reg. param. = 0.0000e+00)
  (P|Q)^-1/2 Time:  CPU 5.86 s  wall 0.10 s

 In RI-MP2 calculation: 
 # of frozen core orbitals: 10

 Components of the RIMP2 correlation energy:
        aaaa    correlation energy =        -0.1256818282 a.u.
        abab    correlation energy =        -0.7531646178 a.u.
        bbbb    correlation energy =        -0.1256818282 a.u.
        non-Brillouin singles      =        -0.0000000000 a.u.
        total same-spin energy     =        -0.2513636564 a.u.
        total opposite-spin energy =        -0.7531646178 a.u.

 Total  RIMP2   correlation energy =        -1.0045282742 a.u.
        RIMP2         total energy =      -591.3566368257 a.u.

 RI-MP2 Energy Time:  CPU 24.20 s  wall 0.42 s
 
 --------------------------------------------------------------
 
                    Orbital Energies (a.u.)
 --------------------------------------------------------------
 
 Alpha MOs
 -- Occupied --
-91.9761 -11.2798 -11.2729 -11.2430 -11.2394 -11.2208  -8.9767  -6.6576
 -6.6570  -6.6564  -1.1610  -1.0394  -0.9739  -0.9147  -0.7595  -0.7217
 -0.6717  -0.5939  -0.5696  -0.5636  -0.5328  -0.4992  -0.4643  -0.4518
 -0.3458  -0.3038
 -- Virtual --
  0.0906   0.1516   0.1606   0.1768   0.1901   0.1974   0.2126   0.2210
  0.2376   0.2505   0.3070   0.3233   0.3603   0.3672   0.3953   0.4150
  0.4324   0.4509   0.4575   0.4667   0.4830   0.4980   0.5241   0.5339
  0.5380   0.5571   0.5611   0.5735   0.5894   0.6102   0.6163   0.6187
  0.6323   0.6395   0.6538   0.6604   0.6997   0.7062   0.7274   0.7582
  0.7783   0.7973   0.8285   0.8507   0.8741   0.8757   0.8997   0.9196
  0.9376   0.9998   1.0133   1.0476   1.0578   1.0732   1.1070   1.1274
  1.1472   1.1652   1.1757   1.1874   1.2221   1.2400   1.2465   1.2636
  1.2985   1.3206   1.3410   1.3550   1.3808   1.4072   1.4195   1.4392
  1.4721   1.4841   1.4977   1.5076   1.5265   1.5417   1.5520   1.5794
  1.6114   1.6372   1.6526   1.6623   1.7198   1.7353   1.7443   1.7959
  1.8274   1.8974   1.9064   1.9375   1.9511   2.0090   2.0712   2.1166
  2.1264   2.1616   2.1820   2.2076   2.2609   2.2617   2.3441   2.3872
  2.4311   2.4581   2.4826   2.4961   2.5495   2.5971   2.6211   2.6670
  2.6847   2.7091   2.7294   2.7304   2.7519   2.7800   2.8278   2.8428
  2.8792   2.9076   2.9448   2.9720   3.0023   3.0043   3.0335   3.0476
  3.0560   3.1011   3.1303   3.1461   3.1613   3.1999   3.2070   3.2360
  3.2534   3.2645   3.2986   3.3048   3.3448   3.3611   3.3699   3.3921
  3.4066   3.4141   3.4239   3.4491   3.4590   3.4655   3.4886   3.4981
  3.5077   3.5213   3.5441   3.5891   3.6069   3.6127   3.6373   3.6535
  3.6870   3.7144   3.7247   3.7375   3.7635   3.7983   3.8093   3.8385
  3.8674   3.8918   3.9160   3.9298   3.9410   3.9600   3.9659   3.9967
  4.0102   4.0314   4.0505   4.1118   4.1354   4.1437   4.1760   4.2127
  4.2275   4.2571   4.2732   4.3019   4.3049   4.3537   4.3924   4.4076
  4.4427   4.4669   4.4800   4.5058   4.5408   4.5719   4.5990   4.6378
  4.6621   4.6946   4.7200   4.7557   4.7903   4.7960   4.8113   4.8465
  4.8991   5.0156   5.0257   5.0523   5.0670   5.1265   5.1780   5.1867
  5.2319   5.3007   5.3534   5.4243   5.4698   5.4991   5.5402   5.5849
  5.6276   5.6685   5.7781   5.8468   5.8588   5.9237   5.9866   6.0718
  6.1093   6.3308   6.4234   6.4430   6.6796   9.4379  11.3573  12.6782
 13.8271  14.2697
 --------------------------------------------------------------
 
          Ground-State Mulliken Net Atomic Charges

     Atom                 Charge (a.u.)
  ----------------------------------------
      1 C                     0.005828
      2 S                    -0.005637
      3 C                    -0.221177
      4 C                    -0.227214
      5 C                    -0.188357
      6 H                     0.183878
      7 H                     0.186854
      8 C                    -0.363205
      9 H                     0.131635
     10 H                     0.127918
     11 H                     0.164310
     12 H                     0.205169
  ----------------------------------------
  Sum of atomic charges =     0.000000

 -----------------------------------------------------------------
                    Cartesian Multipole Moments
 -----------------------------------------------------------------
    Charge (ESU x 10^10)
                 0.0000
    Dipole Moment (Debye)
         X       1.2271      Y      -0.2851      Z      -0.6009
       Tot       1.3958
    Quadrupole Moments (Debye-Ang)
        XX     -45.8708     XY       2.9049     YY     -38.5830
        XZ      -0.1776     YZ      -0.1086     ZZ     -42.0321
    Octopole Moments (Debye-Ang^2)
       XXX     -36.8336    XXY     -11.5584    XYY       0.4451
       YYY     -38.3169    XXZ      -5.9452    XYZ       3.5970
       YYZ      -3.1860    XZZ      -7.7836    YZZ      -7.3458
       ZZZ     -29.3678
    Hexadecapole Moments (Debye-Ang^3)
      XXXX    -147.5112   XXXY     -78.0207   XXYY     -92.2455
      XYYY     -60.3822   YYYY    -450.0433   XXXZ      -3.0088
      XXYZ      -3.9608   XYYZ      -1.4384   YYYZ      -9.1319
      XXZZ     -75.1749   XYZZ     -15.1191   YYZZ    -118.3173
      XZZZ      -0.8555   YZZZ     -13.4506   ZZZZ    -304.1711
 -----------------------------------------------------------------
 Total job time:  10.32s(wall), 557.20s(cpu) 
 Wed Dec 27 10:01:15 2023

        *************************************************************
        *                                                           *
        *  Thank you very much for using Q-Chem.  Have a nice day.  *
        *                                                           *
        *************************************************************


0 sent ACK to 0 
now end server 0 ... 
cleanup process ... done
remove work dirs ./qchem2751078.0 -- ./qchem2751078.0
rm -rf ./qchem2751078.0
rm -rf ./qchem2751078
