You are running Q-Chem version: 5.4.0

#
# job setting
#
local host:  exp-12-09
current dir: /home/rramji/project-csd799/aromodel/pndit-qchem/methylated-rotation-run
input file:  Dimethyl_Naphthalene_Dicarboximide_Phi_50_Theta_280_Thiophene_Hydrogenated_Improper.qcin
output file: 
nprocs     : 1
nthreads   : 64
#
# qchem installation setting
#
QC:          /cm/shared/apps/spack/cpu/opt/spack/linux-centos8-zen2/gcc-10.2.0/qchem-5.4-akfmr7b3t57bfs6qan3padb2wnb2i7cl
QCAUX:       /cm/shared/apps/spack/cpu/opt/spack/linux-centos8-zen2/gcc-10.2.0/qchem-5.4-akfmr7b3t57bfs6qan3padb2wnb2i7cl/qcaux
QCPROG:      /cm/shared/apps/spack/cpu/opt/spack/linux-centos8-zen2/gcc-10.2.0/qchem-5.4-akfmr7b3t57bfs6qan3padb2wnb2i7cl/exe/qcprog.exe
QCPROG_S:    /cm/shared/apps/spack/cpu/opt/spack/linux-centos8-zen2/gcc-10.2.0/qchem-5.4-akfmr7b3t57bfs6qan3padb2wnb2i7cl/exe/qcprog.exe_s
PARALLEL:    -DPARALLEL
QCMPI:       mpich
#
# qchem directory setting
#
qcrun:       qchem2298232
QCSCRATCH:   .
QCLOCALSCR:  
QCTMPDIR:    .
QCFILEPREF:  ./qchem2298232
QCSAVEDIR:   
workdirs:    ./qchem2298232
workdir0:    ./qchem2298232
partmpdirs =  
#
# parallel setting
#
QCRSH:           ssh
QCMPI:           mpich
QCMPIRUN:        /cm/shared/apps/spack/cpu/opt/spack/linux-centos8-zen2/gcc-10.2.0/qchem-5.4-akfmr7b3t57bfs6qan3padb2wnb2i7cl/bin/mpi/mpirun_qchem
QCMACHINEFILE:   ./qchem2298232/hostfile
exp-12-09

#
# env setting
#
exported envs:   QC QCAUX QCSCRATCH QCRUNNAME QCFILEPREF QCPROG QCPROG_S GUIFILE

Running Job 1 of 1 Dimethyl_Naphthalene_Dicarboximide_Phi_50_Theta_280_Thiophene_Hydrogenated_Improper.qcin
qchem Dimethyl_Naphthalene_Dicarboximide_Phi_50_Theta_280_Thiophene_Hydrogenated_Improper.qcin_2298232.0 ./qchem2298232/ 1
/cm/shared/apps/spack/cpu/opt/spack/linux-centos8-zen2/gcc-10.2.0/qchem-5.4-akfmr7b3t57bfs6qan3padb2wnb2i7cl/bin/mpi/mpirun_qchem -machinefile ./qchem2298232/hostfile -np 1 /cm/shared/apps/spack/cpu/opt/spack/linux-centos8-zen2/gcc-10.2.0/qchem-5.4-akfmr7b3t57bfs6qan3padb2wnb2i7cl/exe/qcprog.exe Dimethyl_Naphthalene_Dicarboximide_Phi_50_Theta_280_Thiophene_Hydrogenated_Improper.qcin_2298232.0 ./qchem2298232/

Process 0 of 1 is on exp-12-09 - thread support 0
initial socket setup ...start
initial socket setup ...done 
now start server 0 ... 
                  Welcome to Q-Chem
     A Quantum Leap Into The Future Of Chemistry


 Q-Chem 5.4, Q-Chem, Inc., Pleasanton, CA (2021)

 License issued to: University of California, San Diego (site)

 E. Epifanovsky,  A. T. B. Gilbert,  Xintian Feng,  Joonho Lee,  Yuezhi Mao,  
 N. Mardirossian,  P. Pokhilko,  A. White,  M. Wormit,  M. P. Coons,  
 A. L. Dempwolff,  Zhengting Gan,  D. Hait,  P. R. Horn,  L. D. Jacobson,  
 I. Kaliman,  J. Kussmann,  A. W. Lange,  Ka Un Lao,  D. S. Levine,  Jie Liu,  
 S. C. McKenzie,  A. F. Morrison,  K. Nanda,  F. Plasser,  D. R. Rehn,  
 M. L. Vidal,  Zhi-Qiang You,  Ying Zhu,  B. Alam,  B. Albrecht,  
 A. Aldossary,  E. Alguire,  J. H. Andersen,  D. Barton,  K. Begam,  A. Behn,  
 Y. A. Bernard,  E. J. Berquist,  H. Burton,  A. Carreras,  K. Carter-Fenk,  
 R. Chakraborty,  A. D. Chien,  K. D. Closser,  V. Cofer-Shabica,  
 S. Dasgupta,  Jia Deng,  M. de Wergifosse,  M. Diedenhofen,  Hainam Do,  
 S. Ehlert,  Po-Tung Fang,  S. Fatehi,  Qingguo Feng,  J. Gayvert,  
 Qinghui Ge,  G. Gidofalvi,  M. Goldey,  J. Gomes,  C. Gonzalez-Espinoza,  
 S. Gulania,  A. Gunina,  M. W. D. Hanson-Heine,  P. H. P. Harbach,  
 A. W. Hauser,  M. F. Herbst,  M. Hernandez Vera,  M. Hodecker,  
 Z. C. Holden,  S. Houck,  Xunkun Huang,  Kerwin Hui,  B. C. Huynh,  
 M. Ivanov,  Hyunjun Ji,  Hanjie Jiang,  B. Kaduk,  S. Kaehler,  
 K. Khistyaev,  Jaehoon Kim,  P. Klunzinger,  Z. Koczor-Benda,  
 Joong Hoon Koh,  D. Kosenkov,  L. Koulias,  T. Kowalczyk,  C. M. Krauter,  
 K. Kue,  A. Kunitsa,  T. Kus,  A. Landau,  K. V. Lawler,  D. Lefrancois,  
 S. Lehtola,  Rain Li,  Yi-Pei Li,  Jiashu Liang,  M. Liebenthal,  
 Hung-Hsuan Lin,  You-Sheng Lin,  Fenglai Liu,  Kuan-Yu Liu,  
 M. Loipersberger,  A. Luenser,  A. Manjanath,  P. Manohar,  E. Mansoor,  
 S. F. Manzer,  Shan-Ping Mao,  A. V. Marenich,  T. Markovich,  S. Mason,  
 S. A. Maurer,  P. F. McLaughlin,  M. F. S. J. Menger,  J.-M. Mewes,  
 S. A. Mewes,  P. Morgante,  J. W. Mullinax,  T. S. Nguyen-Beck,  
 K. J. Oosterbaan,  G. Paran,  Alexander C. Paul,  Suranjan K. Paul,  
 F. Pavosevic,  Zheng Pei,  S. Prager,  E. I. Proynov,  E. Ramos,  B. Rana,  
 A. E. Rask,  A. Rettig,  R. M. Richard,  F. Rob,  E. Rossomme,  T. Scheele,  
 M. Scheurer,  M. Schneider,  N. Sergueev,  S. M. Sharada,  W. Skomorowski,  
 D. W. Small,  C. J. Stein,  Yu-Chuan Su,  E. J. Sundstrom,  Zhen Tao,  
 J. Thirman,  T. Tsuchimochi,  N. M. Tubman,  S. P. Veccham,  O. Vydrov,  
 J. Wenzel,  J. Witte,  A. Yamada,  Kun Yao,  S. Yeganeh,  S. R. Yost,  
 A. Zech,  Igor Ying Zhang,  Xing Zhang,  Yu Zhang,  D. Zuev,  
 A. Aspuru-Guzik,  A. T. Bell,  N. A. Besley,  K. B. Bravaya,  B. R. Brooks,  
 D. Casanova,  Jeng-Da Chai,  S. Coriani,  C. J. Cramer,  
 A. E. DePrince, III,  R. A. DiStasio Jr.,  A. Dreuw,  B. D. Dunietz,  
 T. R. Furlani,  W. A. Goddard III,  S. Grimme,  S. Hammes-Schiffer,  
 T. Head-Gordon,  W. J. Hehre,  Chao-Ping Hsu,  T.-C. Jagau,  Yousung Jung,  
 A. Klamt,  Jing Kong,  D. S. Lambrecht,  WanZhen Liang,  N. J. Mayhall,  
 C. W. McCurdy,  J. B. Neaton,  C. Ochsenfeld,  J. A. Parkhill,  R. Peverati,  
 V. A. Rassolov,  Yihan Shao,  L. V. Slipchenko,  T. Stauch,  R. P. Steele,  
 J. E. Subotnik,  A. J. W. Thom,  A. Tkatchenko,  D. G. Truhlar,  
 T. Van Voorhis,  T. A. Wesolowski,  K. B. Whaley,  H. L. Woodcock III,  
 P. M. Zimmerman,  S. Faraji,  P. M. W. Gill,  M. Head-Gordon,  
 J. M. Herbert,  A. I. Krylov

 Contributors to earlier versions of Q-Chem not listed above: 
 R. D. Adamson,  B. Austin,  R. Baer,  J. Baker,  G. J. O. Beran,  
 K. Brandhorst,  S. T. Brown,  E. F. C. Byrd,  A. K. Chakraborty,  
 G. K. L. Chan,  Chun-Min Chang,  Yunqing Chen,  C.-L. Cheng,  
 Siu Hung Chien,  D. M. Chipman,  D. L. Crittenden,  H. Dachsel,  
 R. J. Doerksen,  A. D. Dutoi,  R. G. Edgar,  J. Fosso-Tande,  
 L. Fusti-Molnar,  D. Ghosh,  A. Ghysels,  A. Golubeva-Zadorozhnaya,  
 J. Gonthier,  M. S. Gordon,  S. R. Gwaltney,  G. Hawkins,  J. E. Herr,  
 A. Heyden,  S. Hirata,  E. G. Hohenstein,  G. Kedziora,  F. J. Keil,  
 C. Kelley,  Jihan Kim,  R. A. King,  R. Z. Khaliullin,  P. P. Korambath,  
 W. Kurlancheek,  A. Laurent,  A. M. Lee,  M. S. Lee,  S. V. Levchenko,  
 Ching Yeh Lin,  D. Liotard,  E. Livshits,  R. C. Lochan,  I. Lotan,  
 L. A. Martinez-Martinez,  P. E. Maslen,  N. Nair,  D. P. O'Neill,  
 D. Neuhauser,  E. Neuscamman,  C. M. Oana,  R. Olivares-Amaya,  R. Olson,  
 T. M. Perrine,  B. Peters,  P. A. Pieniazek,  A. Prociuk,  Y. M. Rhee,  
 J. Ritchie,  M. A. Rohrdanz,  E. Rosta,  N. J. Russ,  H. F. Schaefer III,  
 M. W. Schmidt,  N. E. Schultz,  S. Sharma,  N. Shenvi,  C. D. Sherrill,  
 A. C. Simmonett,  A. Sodt,  T. Stein,  D. Stuck,  K. S. Thanthiriwatte,  
 V. Vanovschi,  L. Vogt,  Tao Wang,  A. Warshel,  M. A. Watson,  
 C. F. Williams,  Q. Wu,  X. Xu,  Jun Yang,  W. Zhang,  Yan Zhao

 Please cite Q-Chem as follows:
 Y. Shao et al., Mol. Phys. 113, 184-215 (2015)
 DOI: 10.1080/00268976.2014.952696

 Q-Chem 5.4.0 for Intel X86 EM64T Linux

 Parts of Q-Chem use Armadillo 9.800.1 (Horizon Scraper).
 http://arma.sourceforge.net/

 Q-Chem begins on Wed Dec 27 10:09:29 2023  

 Host: 
0

     Scratch files written to ./qchem2298232//
 May1621 |scratch|qcdevops|jenkins|workspace|build_RNUM    
 Parallel job on  1  processors
 Processing $rem in /cm/shared/apps/spack/cpu/opt/spack/linux-centos8-zen2/gcc-10.2.0/qchem-5.4-akfmr7b3t57bfs6qan3padb2wnb2i7cl/config/preferences:
 Processing $rem in /home/rramji/.qchemrc:
 Symmetry turned off for PCM/SM12/SMD calculation
 Core orbitals will be frozen

 Checking the input file for inconsistencies... 	...done.

 Q-Chem warning in module forms1/BasisType.C, line 2236:

 You are not using the predefined 5D/6D in this basis set.


--------------------------------------------------------------
User input:
--------------------------------------------------------------
$molecule
0 1
C	-0.398967	-0.214208	-0.209169
S	0.208533	0.295792	1.371331
C	1.463033	1.348492	0.695731
C	0.365433	0.427392	-1.194569
C	1.376733	1.276092	-0.702669
H	0.184933	0.275892	-2.269069
H	2.051533	1.842392	-1.361769
C	-0.398967	-1.692408	-0.209169
H	-0.210867	-1.693008	-1.272669
H	0.572633	-2.131708	-0.037769
H	-1.199667	-2.403408	-0.350169
H	2.137633	1.914692	1.346831
$end

$rem
JOBTYPE		SP
EXCHANGE	HF
CORRELATION	pRIMP2
BASIS		cc-pvtz
METHOD		rimp2
AUX_BASIS	rimp2-cc-pvtz
SOLVENT_METHOD	PCM
PURECART	11111
SYMMETRY	false
MEM_TOTAL	110000
SCF_CONVERGENCE = 6
THRESH=10
GUI = 2
$end



$solvent
dielectric 4.90
$end
--------------------------------------------------------------
 ----------------------------------------------------------------
             Standard Nuclear Orientation (Angstroms)
    I     Atom           X                Y                Z
 ----------------------------------------------------------------
    1      C      -0.3989670000    -0.2142080000    -0.2091690000
    2      S       0.2085330000     0.2957920000     1.3713310000
    3      C       1.4630330000     1.3484920000     0.6957310000
    4      C       0.3654330000     0.4273920000    -1.1945690000
    5      C       1.3767330000     1.2760920000    -0.7026690000
    6      H       0.1849330000     0.2758920000    -2.2690690000
    7      H       2.0515330000     1.8423920000    -1.3617690000
    8      C      -0.3989670000    -1.6924080000    -0.2091690000
    9      H      -0.2108670000    -1.6930080000    -1.2726690000
   10      H       0.5726330000    -2.1317080000    -0.0377690000
   11      H      -1.1996670000    -2.4034080000    -0.3501690000
   12      H       2.1376330000     1.9146920000     1.3468310000
 ----------------------------------------------------------------
 Nuclear Repulsion Energy =         274.09521769 hartrees
 There are       26 alpha and       26 beta electrons
 Requested basis set is cc-pVTZ
 There are 98 shells and 268 basis functions

 Total QAlloc Memory Limit 110000 MB
 Mega-Array Size       188 MB
 MEM_STATIC part       192 MB
 Discretize the solute cavity surface with Lebedev spheres
	Using 110 Lebedev grid points for each H atom
	Using 194 Lebedev grid points for other atoms
	Atomic van der Waals radii will be scaled by 1.20
 Remove points where switching function is < 1.0e-08
 Keep 857 surface tesserae and discard 967 interior tesserae
 Molecular Surface Area = 136.136 Angst**2

                       Distance Matrix (Angstroms)
             C (  1)   S (  2)   C (  3)   C (  4)   C (  5)   H (  6)
   S (  2)  1.768371
   C (  3)  2.593823  1.771548
   C (  4)  1.402487  2.574059  2.372000
   C (  5)  2.370158  2.574326  1.402930  1.408895
   H (  6)  2.196435  3.640531  3.402065  1.100038  2.207803
   H (  7)  3.400447  3.641216  2.196264  2.207513  1.100211  2.600252
   C (  8)  1.478200  2.611508  3.678717  2.459446  3.494087  2.908321
   H (  9)  1.831192  3.334960  3.990897  2.198708  3.414810  2.241883
   H ( 10)  2.156430  2.830351  3.666419  2.816045  3.563954  3.305382
   H ( 11)  2.335294  3.497466  4.718117  3.343049  4.505642  3.574625
   H ( 12)  3.658919  2.518504  1.095262  3.436782  2.277549  4.424188
             H (  7)   C (  8)   H (  9)   H ( 10)   H ( 11)
   C (  8)  4.452892
   H (  9)  4.198267  1.080007
   H ( 10)  4.442251  1.079986  1.526862
   H ( 11)  5.442468  1.080057  1.527547  1.820017
   H ( 12)  2.710932  4.676179  5.039120  4.554086  5.715187
 
 Requested basis set is rimp2-cc-pVTZ
 There are 207 shells and 707 basis functions
 A cutoff of  1.0D-10 yielded   4473 shell pairs
 There are     33749 function pairs (     43676 Cartesian)
 Smallest overlap matrix eigenvalue = 1.84E-04

 Scale SEOQF with 1.000000e-01/1.000000e-01/1.000000e-01

 Standard Electronic Orientation quadrupole field applied
 Nucleus-field energy     =    -0.0000000002 hartrees
 Guess from superposition of atomic densities
 Warning:  Energy on first SCF cycle will be non-variational
 SAD guess density has 52.000000 electrons

 -----------------------------------------------------------------------
  General SCF calculation program by
  Eric Jon Sundstrom, Paul Horn, Yuezhi Mao, Dmitri Zuev, Alec White,
  David Stuck, Shaama M.S., Shane Yost, Joonho Lee, David Small,
  Daniel Levine, Susi Lehtola, Hugh Burton, Evgeny Epifanovsky,
  Bang C. Huynh
 -----------------------------------------------------------------------
 Hartree-Fock
 using 64 threads for integral computing
 -------------------------------------------------------
 OpenMP Integral computing Module                
 Release: version 1.0, May 2013, Q-Chem Inc. Pittsburgh 
 -------------------------------------------------------
 A restricted SCF calculation will be
 performed using DIIS
 SCF converges when DIIS error is below 1.0e-06
 ---------------------------------------
  Cycle       Energy         DIIS error
 ---------------------------------------
    1    -592.6490860973      3.25e-02  
    2    -590.2572132439      2.14e-03  
    3    -590.3177158534      7.37e-04  
    4    -590.3242662773      3.51e-04  
    5    -590.3258786121      7.10e-05  
    6    -590.3260218736      3.36e-05  
    7    -590.3260656365      1.64e-05  
    8    -590.3260813528      7.86e-06  
    9    -590.3260844040      2.82e-06  
   10    -590.3260847529      1.21e-06  
   11    -590.3260848112      4.66e-07  Convergence criterion met
 ---------------------------------------
 SCF time:   CPU 544.88s  wall 10.00s 

************** Final PCM Free Energy Summary **************
 G_electrostatic  =      -0.00577680 hartree =      -3.62499542 kcal/mol
 G_cavitation     =       0.00000000 hartree =       0.00000000 kcal/mol
 G_dispersion     =       0.00000000 hartree =       0.00000000 kcal/mol
 G_repulsion      =       0.00000000 hartree =       0.00000000 kcal/mol
 --------------------------------------------------
 Non-electrostatic Free Energy =       0.00000000 hartree =       0.00000000 kcal/mol
 Total                         =      -0.00577680 hartree =      -3.62499542 kcal/mol
 --------------------------------------------------
 SCF Energy (H0 + V/2)                       =    -590.32608481 
 Solute Internal Energy (H0)                 =    -590.32030801 
 Total Free Energy (H0 + V/2 + non-elec)     =    -590.32608481 hartree
                                             = -370435.20919735 kcal/mol
***********************************************************

 SCF   energy in the final basis set =     -590.3260848112
 Total energy in the final basis set =     -590.3260848112


 --------------------------------------------------------------
  Generalized many-body perturbation theory program
  by Joonho Lee, Fazle Rob, Xintian Feng, Evgeny Epifanovsky

 No regularization used 
 (reg. param. = 0.0000e+00)
  (P|Q)^-1/2 Time:  CPU 5.67 s  wall 0.09 s

 In RI-MP2 calculation: 
 # of frozen core orbitals: 10

 Components of the RIMP2 correlation energy:
        aaaa    correlation energy =        -0.1270995658 a.u.
        abab    correlation energy =        -0.7574294178 a.u.
        bbbb    correlation energy =        -0.1270995658 a.u.
        non-Brillouin singles      =        -0.0000000000 a.u.
        total same-spin energy     =        -0.2541991316 a.u.
        total opposite-spin energy =        -0.7574294178 a.u.

 Total  RIMP2   correlation energy =        -1.0116285494 a.u.
        RIMP2         total energy =      -591.3377133606 a.u.

 RI-MP2 Energy Time:  CPU 28.10 s  wall 0.46 s
 
 --------------------------------------------------------------
 
                    Orbital Energies (a.u.)
 --------------------------------------------------------------
 
 Alpha MOs
 -- Occupied --
-91.9744 -11.2844 -11.2641 -11.2519 -11.2442 -11.2162  -8.9749  -6.6557
 -6.6549  -6.6546  -1.1658  -1.0372  -0.9773  -0.9091  -0.7600  -0.7284
 -0.6718  -0.5959  -0.5759  -0.5549  -0.5415  -0.4821  -0.4688  -0.4324
 -0.3408  -0.3132
 -- Virtual --
  0.0700   0.1548   0.1616   0.1768   0.1878   0.1983   0.2076   0.2249
  0.2344   0.2549   0.2905   0.3367   0.3552   0.3643   0.3802   0.3995
  0.4275   0.4433   0.4528   0.4576   0.4809   0.5094   0.5224   0.5322
  0.5369   0.5430   0.5605   0.5791   0.5925   0.6022   0.6153   0.6225
  0.6266   0.6374   0.6565   0.6635   0.6873   0.7205   0.7338   0.7682
  0.7841   0.7971   0.8138   0.8297   0.8495   0.8714   0.8970   0.9385
  0.9770   1.0007   1.0272   1.0314   1.0674   1.0900   1.1231   1.1447
  1.1563   1.1626   1.1833   1.1970   1.2266   1.2301   1.2557   1.2772
  1.2881   1.3171   1.3301   1.3510   1.3728   1.3918   1.4147   1.4472
  1.4607   1.4841   1.4883   1.5051   1.5133   1.5401   1.5732   1.6001
  1.6064   1.6275   1.6508   1.6594   1.6892   1.7163   1.7575   1.8062
  1.8337   1.8735   1.8956   1.9042   1.9554   1.9709   2.0249   2.1025
  2.1225   2.1621   2.1793   2.2106   2.2394   2.2554   2.3380   2.3856
  2.4245   2.4565   2.4731   2.5127   2.5718   2.6197   2.6317   2.6578
  2.6854   2.7023   2.7134   2.7452   2.7760   2.8383   2.8578   2.8760
  2.8931   2.9255   2.9422   2.9616   2.9770   3.0073   3.0240   3.0449
  3.1048   3.1176   3.1355   3.1493   3.1677   3.1932   3.2102   3.2283
  3.2470   3.2682   3.2784   3.2930   3.3124   3.3317   3.3549   3.3589
  3.3961   3.4078   3.4217   3.4468   3.4663   3.4695   3.4927   3.5065
  3.5211   3.5418   3.5731   3.5780   3.5984   3.6461   3.6569   3.6613
  3.6807   3.6907   3.7268   3.7697   3.7867   3.8091   3.8256   3.8385
  3.8784   3.8998   3.9137   3.9500   3.9557   3.9693   3.9730   3.9896
  4.0184   4.0469   4.0640   4.1138   4.1219   4.1660   4.1698   4.2086
  4.2309   4.2760   4.2825   4.2960   4.3053   4.3647   4.4176   4.4193
  4.4622   4.4765   4.5042   4.5181   4.5544   4.5955   4.6158   4.6567
  4.6909   4.7220   4.7405   4.7553   4.7765   4.8143   4.8342   4.8956
  4.9270   4.9969   5.0155   5.0413   5.0838   5.1387   5.1612   5.1780
  5.2180   5.2854   5.3627   5.4171   5.4515   5.4759   5.5276   5.5836
  5.6289   5.7097   5.7595   5.8061   5.8497   5.9396   5.9775   6.0423
  6.0752   6.3164   6.3846   6.4671   6.5747   9.5795  11.5834  12.6469
 13.8519  14.0124
 --------------------------------------------------------------
 
          Ground-State Mulliken Net Atomic Charges

     Atom                 Charge (a.u.)
  ----------------------------------------
      1 C                    -0.060528
      2 S                     0.005566
      3 C                    -0.183018
      4 C                    -0.141350
      5 C                    -0.223229
      6 H                     0.181644
      7 H                     0.187919
      8 C                    -0.350314
      9 H                     0.111334
     10 H                     0.130531
     11 H                     0.135363
     12 H                     0.206081
  ----------------------------------------
  Sum of atomic charges =     0.000000

 -----------------------------------------------------------------
                    Cartesian Multipole Moments
 -----------------------------------------------------------------
    Charge (ESU x 10^10)
                 0.0000
    Dipole Moment (Debye)
         X       1.8490      Y      -0.0286      Z      -1.7407
       Tot       2.5396
    Quadrupole Moments (Debye-Ang)
        XX     -42.5525     XY       4.7219     YY     -42.1067
        XZ       0.9281     YZ       1.6785     ZZ     -41.4966
    Octopole Moments (Debye-Ang^2)
       XXX     -47.0918    XXY      -1.0566    XYY     -10.6042
       YYY     -27.7002    XXZ      -3.8223    XYZ       1.9236
       YYZ      -7.1338    XZZ     -12.1636    YZZ      -3.5710
       ZZZ     -28.7152
    Hexadecapole Moments (Debye-Ang^3)
      XXXX    -236.9956   XXXY     -75.5099   XXYY     -78.3868
      XYYY     -82.1562   YYYY    -354.4405   XXXZ      -2.9890
      XXYZ      -1.0144   XYYZ       3.4954   YYYZ     -10.6293
      XXZZ     -84.5966   XYZZ     -18.5833   YYZZ    -107.6642
      XZZZ      -5.0433   YZZZ     -18.8858   ZZZZ    -305.7517
 -----------------------------------------------------------------
 Total job time:  11.46s(wall), 610.04s(cpu) 
 Wed Dec 27 10:09:40 2023

        *************************************************************
        *                                                           *
        *  Thank you very much for using Q-Chem.  Have a nice day.  *
        *                                                           *
        *************************************************************


0 sent ACK to 0 
now end server 0 ... 
cleanup process ... done
remove work dirs ./qchem2298232.0 -- ./qchem2298232.0
rm -rf ./qchem2298232.0
rm -rf ./qchem2298232
