You are running Q-Chem version: 5.4.0

#
# job setting
#
local host:  exp-4-24
current dir: /home/rramji/project-csd799/aromodel/pndit-qchem/methylated-rotation-run
input file:  Dimethyl_Naphthalene_Dicarboximide_Phi_10_Theta_250_Thiophene_Hydrogenated_Improper.qcin
output file: 
nprocs     : 1
nthreads   : 64
#
# qchem installation setting
#
QC:          /cm/shared/apps/spack/cpu/opt/spack/linux-centos8-zen2/gcc-10.2.0/qchem-5.4-akfmr7b3t57bfs6qan3padb2wnb2i7cl
QCAUX:       /cm/shared/apps/spack/cpu/opt/spack/linux-centos8-zen2/gcc-10.2.0/qchem-5.4-akfmr7b3t57bfs6qan3padb2wnb2i7cl/qcaux
QCPROG:      /cm/shared/apps/spack/cpu/opt/spack/linux-centos8-zen2/gcc-10.2.0/qchem-5.4-akfmr7b3t57bfs6qan3padb2wnb2i7cl/exe/qcprog.exe
QCPROG_S:    /cm/shared/apps/spack/cpu/opt/spack/linux-centos8-zen2/gcc-10.2.0/qchem-5.4-akfmr7b3t57bfs6qan3padb2wnb2i7cl/exe/qcprog.exe_s
PARALLEL:    -DPARALLEL
QCMPI:       mpich
#
# qchem directory setting
#
qcrun:       qchem2967846
QCSCRATCH:   .
QCLOCALSCR:  
QCTMPDIR:    .
QCFILEPREF:  ./qchem2967846
QCSAVEDIR:   
workdirs:    ./qchem2967846
workdir0:    ./qchem2967846
partmpdirs =  
#
# parallel setting
#
QCRSH:           ssh
QCMPI:           mpich
QCMPIRUN:        /cm/shared/apps/spack/cpu/opt/spack/linux-centos8-zen2/gcc-10.2.0/qchem-5.4-akfmr7b3t57bfs6qan3padb2wnb2i7cl/bin/mpi/mpirun_qchem
QCMACHINEFILE:   ./qchem2967846/hostfile
exp-4-24

#
# env setting
#
exported envs:   QC QCAUX QCSCRATCH QCRUNNAME QCFILEPREF QCPROG QCPROG_S GUIFILE

Running Job 1 of 1 Dimethyl_Naphthalene_Dicarboximide_Phi_10_Theta_250_Thiophene_Hydrogenated_Improper.qcin
qchem Dimethyl_Naphthalene_Dicarboximide_Phi_10_Theta_250_Thiophene_Hydrogenated_Improper.qcin_2967846.0 ./qchem2967846/ 1
/cm/shared/apps/spack/cpu/opt/spack/linux-centos8-zen2/gcc-10.2.0/qchem-5.4-akfmr7b3t57bfs6qan3padb2wnb2i7cl/bin/mpi/mpirun_qchem -machinefile ./qchem2967846/hostfile -np 1 /cm/shared/apps/spack/cpu/opt/spack/linux-centos8-zen2/gcc-10.2.0/qchem-5.4-akfmr7b3t57bfs6qan3padb2wnb2i7cl/exe/qcprog.exe Dimethyl_Naphthalene_Dicarboximide_Phi_10_Theta_250_Thiophene_Hydrogenated_Improper.qcin_2967846.0 ./qchem2967846/

Process 0 of 1 is on exp-4-24 - thread support 0
initial socket setup ...start
initial socket setup ...done 
now start server 0 ... 
                  Welcome to Q-Chem
     A Quantum Leap Into The Future Of Chemistry


 Q-Chem 5.4, Q-Chem, Inc., Pleasanton, CA (2021)

 License issued to: University of California, San Diego (site)

 E. Epifanovsky,  A. T. B. Gilbert,  Xintian Feng,  Joonho Lee,  Yuezhi Mao,  
 N. Mardirossian,  P. Pokhilko,  A. White,  M. Wormit,  M. P. Coons,  
 A. L. Dempwolff,  Zhengting Gan,  D. Hait,  P. R. Horn,  L. D. Jacobson,  
 I. Kaliman,  J. Kussmann,  A. W. Lange,  Ka Un Lao,  D. S. Levine,  Jie Liu,  
 S. C. McKenzie,  A. F. Morrison,  K. Nanda,  F. Plasser,  D. R. Rehn,  
 M. L. Vidal,  Zhi-Qiang You,  Ying Zhu,  B. Alam,  B. Albrecht,  
 A. Aldossary,  E. Alguire,  J. H. Andersen,  D. Barton,  K. Begam,  A. Behn,  
 Y. A. Bernard,  E. J. Berquist,  H. Burton,  A. Carreras,  K. Carter-Fenk,  
 R. Chakraborty,  A. D. Chien,  K. D. Closser,  V. Cofer-Shabica,  
 S. Dasgupta,  Jia Deng,  M. de Wergifosse,  M. Diedenhofen,  Hainam Do,  
 S. Ehlert,  Po-Tung Fang,  S. Fatehi,  Qingguo Feng,  J. Gayvert,  
 Qinghui Ge,  G. Gidofalvi,  M. Goldey,  J. Gomes,  C. Gonzalez-Espinoza,  
 S. Gulania,  A. Gunina,  M. W. D. Hanson-Heine,  P. H. P. Harbach,  
 A. W. Hauser,  M. F. Herbst,  M. Hernandez Vera,  M. Hodecker,  
 Z. C. Holden,  S. Houck,  Xunkun Huang,  Kerwin Hui,  B. C. Huynh,  
 M. Ivanov,  Hyunjun Ji,  Hanjie Jiang,  B. Kaduk,  S. Kaehler,  
 K. Khistyaev,  Jaehoon Kim,  P. Klunzinger,  Z. Koczor-Benda,  
 Joong Hoon Koh,  D. Kosenkov,  L. Koulias,  T. Kowalczyk,  C. M. Krauter,  
 K. Kue,  A. Kunitsa,  T. Kus,  A. Landau,  K. V. Lawler,  D. Lefrancois,  
 S. Lehtola,  Rain Li,  Yi-Pei Li,  Jiashu Liang,  M. Liebenthal,  
 Hung-Hsuan Lin,  You-Sheng Lin,  Fenglai Liu,  Kuan-Yu Liu,  
 M. Loipersberger,  A. Luenser,  A. Manjanath,  P. Manohar,  E. Mansoor,  
 S. F. Manzer,  Shan-Ping Mao,  A. V. Marenich,  T. Markovich,  S. Mason,  
 S. A. Maurer,  P. F. McLaughlin,  M. F. S. J. Menger,  J.-M. Mewes,  
 S. A. Mewes,  P. Morgante,  J. W. Mullinax,  T. S. Nguyen-Beck,  
 K. J. Oosterbaan,  G. Paran,  Alexander C. Paul,  Suranjan K. Paul,  
 F. Pavosevic,  Zheng Pei,  S. Prager,  E. I. Proynov,  E. Ramos,  B. Rana,  
 A. E. Rask,  A. Rettig,  R. M. Richard,  F. Rob,  E. Rossomme,  T. Scheele,  
 M. Scheurer,  M. Schneider,  N. Sergueev,  S. M. Sharada,  W. Skomorowski,  
 D. W. Small,  C. J. Stein,  Yu-Chuan Su,  E. J. Sundstrom,  Zhen Tao,  
 J. Thirman,  T. Tsuchimochi,  N. M. Tubman,  S. P. Veccham,  O. Vydrov,  
 J. Wenzel,  J. Witte,  A. Yamada,  Kun Yao,  S. Yeganeh,  S. R. Yost,  
 A. Zech,  Igor Ying Zhang,  Xing Zhang,  Yu Zhang,  D. Zuev,  
 A. Aspuru-Guzik,  A. T. Bell,  N. A. Besley,  K. B. Bravaya,  B. R. Brooks,  
 D. Casanova,  Jeng-Da Chai,  S. Coriani,  C. J. Cramer,  
 A. E. DePrince, III,  R. A. DiStasio Jr.,  A. Dreuw,  B. D. Dunietz,  
 T. R. Furlani,  W. A. Goddard III,  S. Grimme,  S. Hammes-Schiffer,  
 T. Head-Gordon,  W. J. Hehre,  Chao-Ping Hsu,  T.-C. Jagau,  Yousung Jung,  
 A. Klamt,  Jing Kong,  D. S. Lambrecht,  WanZhen Liang,  N. J. Mayhall,  
 C. W. McCurdy,  J. B. Neaton,  C. Ochsenfeld,  J. A. Parkhill,  R. Peverati,  
 V. A. Rassolov,  Yihan Shao,  L. V. Slipchenko,  T. Stauch,  R. P. Steele,  
 J. E. Subotnik,  A. J. W. Thom,  A. Tkatchenko,  D. G. Truhlar,  
 T. Van Voorhis,  T. A. Wesolowski,  K. B. Whaley,  H. L. Woodcock III,  
 P. M. Zimmerman,  S. Faraji,  P. M. W. Gill,  M. Head-Gordon,  
 J. M. Herbert,  A. I. Krylov

 Contributors to earlier versions of Q-Chem not listed above: 
 R. D. Adamson,  B. Austin,  R. Baer,  J. Baker,  G. J. O. Beran,  
 K. Brandhorst,  S. T. Brown,  E. F. C. Byrd,  A. K. Chakraborty,  
 G. K. L. Chan,  Chun-Min Chang,  Yunqing Chen,  C.-L. Cheng,  
 Siu Hung Chien,  D. M. Chipman,  D. L. Crittenden,  H. Dachsel,  
 R. J. Doerksen,  A. D. Dutoi,  R. G. Edgar,  J. Fosso-Tande,  
 L. Fusti-Molnar,  D. Ghosh,  A. Ghysels,  A. Golubeva-Zadorozhnaya,  
 J. Gonthier,  M. S. Gordon,  S. R. Gwaltney,  G. Hawkins,  J. E. Herr,  
 A. Heyden,  S. Hirata,  E. G. Hohenstein,  G. Kedziora,  F. J. Keil,  
 C. Kelley,  Jihan Kim,  R. A. King,  R. Z. Khaliullin,  P. P. Korambath,  
 W. Kurlancheek,  A. Laurent,  A. M. Lee,  M. S. Lee,  S. V. Levchenko,  
 Ching Yeh Lin,  D. Liotard,  E. Livshits,  R. C. Lochan,  I. Lotan,  
 L. A. Martinez-Martinez,  P. E. Maslen,  N. Nair,  D. P. O'Neill,  
 D. Neuhauser,  E. Neuscamman,  C. M. Oana,  R. Olivares-Amaya,  R. Olson,  
 T. M. Perrine,  B. Peters,  P. A. Pieniazek,  A. Prociuk,  Y. M. Rhee,  
 J. Ritchie,  M. A. Rohrdanz,  E. Rosta,  N. J. Russ,  H. F. Schaefer III,  
 M. W. Schmidt,  N. E. Schultz,  S. Sharma,  N. Shenvi,  C. D. Sherrill,  
 A. C. Simmonett,  A. Sodt,  T. Stein,  D. Stuck,  K. S. Thanthiriwatte,  
 V. Vanovschi,  L. Vogt,  Tao Wang,  A. Warshel,  M. A. Watson,  
 C. F. Williams,  Q. Wu,  X. Xu,  Jun Yang,  W. Zhang,  Yan Zhao

 Please cite Q-Chem as follows:
 Y. Shao et al., Mol. Phys. 113, 184-215 (2015)
 DOI: 10.1080/00268976.2014.952696

 Q-Chem 5.4.0 for Intel X86 EM64T Linux

 Parts of Q-Chem use Armadillo 9.800.1 (Horizon Scraper).
 http://arma.sourceforge.net/

 Q-Chem begins on Wed Dec 27 10:08:03 2023  

 Host: 
0

     Scratch files written to ./qchem2967846//
 May1621 |scratch|qcdevops|jenkins|workspace|build_RNUM    
 Parallel job on  1  processors
 Processing $rem in /cm/shared/apps/spack/cpu/opt/spack/linux-centos8-zen2/gcc-10.2.0/qchem-5.4-akfmr7b3t57bfs6qan3padb2wnb2i7cl/config/preferences:
 Processing $rem in /home/rramji/.qchemrc:
 Symmetry turned off for PCM/SM12/SMD calculation
 Core orbitals will be frozen

 Checking the input file for inconsistencies... 	...done.

 Q-Chem warning in module forms1/BasisType.C, line 2236:

 You are not using the predefined 5D/6D in this basis set.


--------------------------------------------------------------
User input:
--------------------------------------------------------------
$molecule
0 1
C	-0.088891	-0.391505	-0.208958
S	0.048609	0.389695	1.371542
C	0.333009	2.002495	0.695942
C	0.084209	0.591395	-1.194358
C	0.313409	1.891595	-0.702458
H	0.043309	0.359295	-2.268858
H	0.466309	2.759095	-1.361558
C	-0.088891	-1.869705	-0.208958
H	-0.457791	-1.870305	-1.223958
H	0.838209	-2.309005	-0.546358
H	-0.852791	-2.580705	0.069242
H	0.485809	2.869795	1.347042
$end

$rem
JOBTYPE		SP
EXCHANGE	HF
CORRELATION	pRIMP2
BASIS		cc-pvtz
METHOD		rimp2
AUX_BASIS	rimp2-cc-pvtz
SOLVENT_METHOD	PCM
PURECART	11111
SYMMETRY	false
MEM_TOTAL	110000
SCF_CONVERGENCE = 6
THRESH=10
GUI = 2
$end



$solvent
dielectric 4.90
$end
--------------------------------------------------------------
 ----------------------------------------------------------------
             Standard Nuclear Orientation (Angstroms)
    I     Atom           X                Y                Z
 ----------------------------------------------------------------
    1      C      -0.0888910000    -0.3915050000    -0.2089580000
    2      S       0.0486090000     0.3896950000     1.3715420000
    3      C       0.3330090000     2.0024950000     0.6959420000
    4      C       0.0842090000     0.5913950000    -1.1943580000
    5      C       0.3134090000     1.8915950000    -0.7024580000
    6      H       0.0433090000     0.3592950000    -2.2688580000
    7      H       0.4663090000     2.7590950000    -1.3615580000
    8      C      -0.0888910000    -1.8697050000    -0.2089580000
    9      H      -0.4577910000    -1.8703050000    -1.2239580000
   10      H       0.8382090000    -2.3090050000    -0.5463580000
   11      H      -0.8527910000    -2.5807050000     0.0692420000
   12      H       0.4858090000     2.8697950000     1.3470420000
 ----------------------------------------------------------------
 Nuclear Repulsion Energy =         269.98434497 hartrees
 There are       26 alpha and       26 beta electrons
 Requested basis set is cc-pVTZ
 There are 98 shells and 268 basis functions

 Total QAlloc Memory Limit 110000 MB
 Mega-Array Size       188 MB
 MEM_STATIC part       192 MB
 Discretize the solute cavity surface with Lebedev spheres
	Using 110 Lebedev grid points for each H atom
	Using 194 Lebedev grid points for other atoms
	Atomic van der Waals radii will be scaled by 1.20
 Remove points where switching function is < 1.0e-08
 Keep 892 surface tesserae and discard 932 interior tesserae
 Molecular Surface Area = 137.951 Angst**2

                       Distance Matrix (Angstroms)
             C (  1)   S (  2)   C (  3)   C (  4)   C (  5)   H (  6)
   S (  2)  1.768378
   C (  3)  2.593854  1.771565
   C (  4)  1.402522  2.574062  2.371990
   C (  5)  2.370218  2.574354  1.402927  1.408907
   H (  6)  2.196444  3.640531  3.402069  1.100042  2.207828
   H (  7)  3.400443  3.641204  2.196251  2.207460  1.100158  2.600224
   C (  8)  1.478200  2.760756  3.998847  2.656688  3.814809  3.037944
   H (  9)  1.831164  3.478600  4.394310  2.520835  3.875384  2.512774
   H ( 10)  2.156423  3.403644  4.515260  3.066063  4.236133  3.273942
   H ( 11)  2.335281  3.366271  4.775416  3.540745  4.685831  3.861775
   H ( 12)  3.658892  2.518460  1.095212  3.436729  2.277509  4.424155
             H (  7)   C (  8)   H (  9)   H ( 10)   H ( 11)
   C (  8)  4.802346
   H (  9)  4.722736  1.079960
   H ( 10)  5.146698  1.079971  1.526832
   H ( 11)  5.683368  1.080028  1.527436  1.819963
   H ( 12)  2.710931  5.021382  5.474392  5.525316  5.756090
 
 Requested basis set is rimp2-cc-pVTZ
 There are 207 shells and 707 basis functions
 A cutoff of  1.0D-10 yielded   4375 shell pairs
 There are     32847 function pairs (     42482 Cartesian)
 Smallest overlap matrix eigenvalue = 1.19E-04

 Scale SEOQF with 1.000000e+00/1.000000e-01/1.000000e-01

 Standard Electronic Orientation quadrupole field applied
 Nucleus-field energy     =     0.0000000027 hartrees
 Guess from superposition of atomic densities
 Warning:  Energy on first SCF cycle will be non-variational
 SAD guess density has 52.000000 electrons

 -----------------------------------------------------------------------
  General SCF calculation program by
  Eric Jon Sundstrom, Paul Horn, Yuezhi Mao, Dmitri Zuev, Alec White,
  David Stuck, Shaama M.S., Shane Yost, Joonho Lee, David Small,
  Daniel Levine, Susi Lehtola, Hugh Burton, Evgeny Epifanovsky,
  Bang C. Huynh
 -----------------------------------------------------------------------
 Hartree-Fock
 using 64 threads for integral computing
 -------------------------------------------------------
 OpenMP Integral computing Module                
 Release: version 1.0, May 2013, Q-Chem Inc. Pittsburgh 
 -------------------------------------------------------
 A restricted SCF calculation will be
 performed using DIIS
 SCF converges when DIIS error is below 1.0e-06
 ---------------------------------------
  Cycle       Energy         DIIS error
 ---------------------------------------
    1    -592.5714760438      3.22e-02  
    2    -590.3034129532      2.15e-03  
    3    -590.3633021991      7.72e-04  
    4    -590.3698558460      3.79e-04  
    5    -590.3716379754      6.97e-05  
    6    -590.3717576420      3.00e-05  
    7    -590.3717869893      1.45e-05  
    8    -590.3717965201      5.61e-06  
    9    -590.3717980695      1.98e-06  
   10    -590.3717982023      5.91e-07  Convergence criterion met
 ---------------------------------------
 SCF time:   CPU 490.11s  wall 9.00s 

************** Final PCM Free Energy Summary **************
 G_electrostatic  =      -0.00578433 hartree =      -3.62972415 kcal/mol
 G_cavitation     =       0.00000000 hartree =       0.00000000 kcal/mol
 G_dispersion     =       0.00000000 hartree =       0.00000000 kcal/mol
 G_repulsion      =       0.00000000 hartree =       0.00000000 kcal/mol
 --------------------------------------------------
 Non-electrostatic Free Energy =       0.00000000 hartree =       0.00000000 kcal/mol
 Total                         =      -0.00578433 hartree =      -3.62972415 kcal/mol
 --------------------------------------------------
 SCF Energy (H0 + V/2)                       =    -590.37179820 
 Solute Internal Energy (H0)                 =    -590.36601387 
 Total Free Energy (H0 + V/2 + non-elec)     =    -590.37179820 hartree
                                             = -370463.89478325 kcal/mol
***********************************************************

 SCF   energy in the final basis set =     -590.3717982023
 Total energy in the final basis set =     -590.3717982023


 --------------------------------------------------------------
  Generalized many-body perturbation theory program
  by Joonho Lee, Fazle Rob, Xintian Feng, Evgeny Epifanovsky

 No regularization used 
 (reg. param. = 0.0000e+00)
  (P|Q)^-1/2 Time:  CPU 6.66 s  wall 0.11 s

 In RI-MP2 calculation: 
 # of frozen core orbitals: 10

 Components of the RIMP2 correlation energy:
        aaaa    correlation energy =        -0.1255164143 a.u.
        abab    correlation energy =        -0.7514493904 a.u.
        bbbb    correlation energy =        -0.1255164143 a.u.
        non-Brillouin singles      =        -0.0000000000 a.u.
        total same-spin energy     =        -0.2510328286 a.u.
        total opposite-spin energy =        -0.7514493904 a.u.

 Total  RIMP2   correlation energy =        -1.0024822190 a.u.
        RIMP2         total energy =      -591.3742804213 a.u.

 RI-MP2 Energy Time:  CPU 25.34 s  wall 0.44 s
 
 --------------------------------------------------------------
 
                    Orbital Energies (a.u.)
 --------------------------------------------------------------
 
 Alpha MOs
 -- Occupied --
-91.9747 -11.2858 -11.2680 -11.2431 -11.2406 -11.2239  -8.9748  -6.6557
 -6.6551  -6.6546  -1.1570  -1.0382  -0.9726  -0.9192  -0.7542  -0.7241
 -0.6722  -0.5977  -0.5696  -0.5606  -0.5400  -0.5004  -0.4671  -0.4379
 -0.3450  -0.3104
 -- Virtual --
  0.1046   0.1480   0.1604   0.1769   0.1893   0.1946   0.2120   0.2305
  0.2383   0.2540   0.3124   0.3360   0.3634   0.3672   0.3935   0.3982
  0.4136   0.4506   0.4582   0.4686   0.4957   0.5163   0.5241   0.5361
  0.5397   0.5508   0.5670   0.5839   0.5967   0.6101   0.6150   0.6209
  0.6350   0.6531   0.6643   0.6652   0.6908   0.7184   0.7243   0.7492
  0.7878   0.8008   0.8269   0.8641   0.8740   0.8874   0.9043   0.9289
  0.9583   0.9793   1.0015   1.0151   1.0610   1.0792   1.0971   1.1141
  1.1500   1.1650   1.1707   1.1952   1.2154   1.2225   1.2515   1.2653
  1.2899   1.3180   1.3270   1.3365   1.3608   1.3945   1.4266   1.4466
  1.4732   1.4959   1.5228   1.5364   1.5429   1.5584   1.5669   1.5784
  1.5869   1.6276   1.6539   1.6934   1.7107   1.7345   1.7548   1.7949
  1.8245   1.8894   1.8919   1.9180   1.9425   1.9903   2.0544   2.0870
  2.1510   2.1716   2.1889   2.2180   2.2524   2.2842   2.3408   2.4083
  2.4292   2.4627   2.5011   2.5093   2.5775   2.5882   2.6341   2.6526
  2.6734   2.7099   2.7346   2.7381   2.7400   2.7711   2.8032   2.8504
  2.8795   2.8950   2.9283   2.9441   2.9944   3.0157   3.0192   3.0354
  3.0725   3.0946   3.1130   3.1524   3.1547   3.1977   3.2224   3.2491
  3.2612   3.2743   3.2931   3.3099   3.3273   3.3424   3.3527   3.3846
  3.4057   3.4125   3.4418   3.4541   3.4620   3.4703   3.4878   3.4942
  3.5120   3.5212   3.5465   3.5853   3.5925   3.6202   3.6333   3.6620
  3.6793   3.6859   3.7174   3.7394   3.7511   3.7677   3.8043   3.8327
  3.8578   3.8787   3.8920   3.9209   3.9307   3.9523   3.9665   3.9762
  4.0001   4.0218   4.0471   4.0883   4.1261   4.1573   4.1756   4.2074
  4.2164   4.2350   4.2450   4.2848   4.3010   4.3724   4.3853   4.4184
  4.4321   4.4356   4.4559   4.5077   4.5605   4.5808   4.6314   4.6361
  4.6850   4.6923   4.7018   4.7693   4.7995   4.8160   4.8505   4.8875
  4.9627   4.9807   5.0181   5.0561   5.0866   5.1282   5.1793   5.1928
  5.2151   5.2936   5.3576   5.4140   5.4273   5.4870   5.5317   5.5824
  5.6451   5.7020   5.8049   5.8552   5.8850   5.9722   6.0138   6.0490
  6.0925   6.2951   6.4220   6.4675   6.6742   9.4175  11.2733  12.7745
 13.9770  14.2923
 --------------------------------------------------------------
 
          Ground-State Mulliken Net Atomic Charges

     Atom                 Charge (a.u.)
  ----------------------------------------
      1 C                     0.030998
      2 S                    -0.006894
      3 C                    -0.230491
      4 C                    -0.226086
      5 C                    -0.196937
      6 H                     0.183039
      7 H                     0.186425
      8 C                    -0.359599
      9 H                     0.120144
     10 H                     0.129304
     11 H                     0.166409
     12 H                     0.203690
  ----------------------------------------
  Sum of atomic charges =     0.000000

 -----------------------------------------------------------------
                    Cartesian Multipole Moments
 -----------------------------------------------------------------
    Charge (ESU x 10^10)
                -0.0000
    Dipole Moment (Debye)
         X       0.0055      Y      -0.4045      Z      -1.7604
       Tot       1.8063
    Quadrupole Moments (Debye-Ang)
        XX     -47.2417     XY       2.2625     YY     -36.2746
        XZ      -0.0673     YZ       1.9580     ZZ     -42.0750
    Octopole Moments (Debye-Ang^2)
       XXX     -13.7029    XXY     -21.9654    XYY      -1.7693
       YYY     -40.9746    XXZ      -7.0329    XYZ       1.2813
       YYZ      -5.6546    XZZ      -2.6195    YZZ      -9.5513
       ZZZ     -27.6206
    Hexadecapole Moments (Debye-Ang^3)
      XXXX     -76.3776   XXXY     -35.4237   XXYY    -107.7794
      XYYY     -10.8474   YYYY    -494.3046   XXXZ      -2.3679
      XXYZ      -6.8697   XYYZ      -0.7839   YYYZ      -9.0614
      XXZZ     -70.6959   XYZZ      -6.4792   YYZZ    -127.4780
      XZZZ      -0.5873   YZZZ     -19.7752   ZZZZ    -309.2327
 -----------------------------------------------------------------
 Total job time:  10.64s(wall), 556.09s(cpu) 
 Wed Dec 27 10:08:13 2023

        *************************************************************
        *                                                           *
        *  Thank you very much for using Q-Chem.  Have a nice day.  *
        *                                                           *
        *************************************************************


0 sent ACK to 0 
now end server 0 ... 
cleanup process ... done
remove work dirs ./qchem2967846.0 -- ./qchem2967846.0
rm -rf ./qchem2967846.0
rm -rf ./qchem2967846
