You are running Q-Chem version: 5.4.0

#
# job setting
#
local host:  exp-3-56
current dir: /home/rramji/project-csd799/aromodel/pndit-qchem/methylated-rotation-run
input file:  Dimethyl_Naphthalene_Dicarboximide_Phi_0_Theta_180_Thiophene_Hydrogenated_Improper.qcin
output file: 
nprocs     : 1
nthreads   : 64
#
# qchem installation setting
#
QC:          /cm/shared/apps/spack/cpu/opt/spack/linux-centos8-zen2/gcc-10.2.0/qchem-5.4-akfmr7b3t57bfs6qan3padb2wnb2i7cl
QCAUX:       /cm/shared/apps/spack/cpu/opt/spack/linux-centos8-zen2/gcc-10.2.0/qchem-5.4-akfmr7b3t57bfs6qan3padb2wnb2i7cl/qcaux
QCPROG:      /cm/shared/apps/spack/cpu/opt/spack/linux-centos8-zen2/gcc-10.2.0/qchem-5.4-akfmr7b3t57bfs6qan3padb2wnb2i7cl/exe/qcprog.exe
QCPROG_S:    /cm/shared/apps/spack/cpu/opt/spack/linux-centos8-zen2/gcc-10.2.0/qchem-5.4-akfmr7b3t57bfs6qan3padb2wnb2i7cl/exe/qcprog.exe_s
PARALLEL:    -DPARALLEL
QCMPI:       mpich
#
# qchem directory setting
#
qcrun:       qchem2757602
QCSCRATCH:   .
QCLOCALSCR:  
QCTMPDIR:    .
QCFILEPREF:  ./qchem2757602
QCSAVEDIR:   
workdirs:    ./qchem2757602
workdir0:    ./qchem2757602
partmpdirs =  
#
# parallel setting
#
QCRSH:           ssh
QCMPI:           mpich
QCMPIRUN:        /cm/shared/apps/spack/cpu/opt/spack/linux-centos8-zen2/gcc-10.2.0/qchem-5.4-akfmr7b3t57bfs6qan3padb2wnb2i7cl/bin/mpi/mpirun_qchem
QCMACHINEFILE:   ./qchem2757602/hostfile
exp-3-56

#
# env setting
#
exported envs:   QC QCAUX QCSCRATCH QCRUNNAME QCFILEPREF QCPROG QCPROG_S GUIFILE

Running Job 1 of 1 Dimethyl_Naphthalene_Dicarboximide_Phi_0_Theta_180_Thiophene_Hydrogenated_Improper.qcin
qchem Dimethyl_Naphthalene_Dicarboximide_Phi_0_Theta_180_Thiophene_Hydrogenated_Improper.qcin_2757602.0 ./qchem2757602/ 1
/cm/shared/apps/spack/cpu/opt/spack/linux-centos8-zen2/gcc-10.2.0/qchem-5.4-akfmr7b3t57bfs6qan3padb2wnb2i7cl/bin/mpi/mpirun_qchem -machinefile ./qchem2757602/hostfile -np 1 /cm/shared/apps/spack/cpu/opt/spack/linux-centos8-zen2/gcc-10.2.0/qchem-5.4-akfmr7b3t57bfs6qan3padb2wnb2i7cl/exe/qcprog.exe Dimethyl_Naphthalene_Dicarboximide_Phi_0_Theta_180_Thiophene_Hydrogenated_Improper.qcin_2757602.0 ./qchem2757602/

Process 0 of 1 is on exp-3-56 - thread support 0
initial socket setup ...start
initial socket setup ...done 
now start server 0 ... 
                  Welcome to Q-Chem
     A Quantum Leap Into The Future Of Chemistry


 Q-Chem 5.4, Q-Chem, Inc., Pleasanton, CA (2021)

 License issued to: University of California, San Diego (site)

 E. Epifanovsky,  A. T. B. Gilbert,  Xintian Feng,  Joonho Lee,  Yuezhi Mao,  
 N. Mardirossian,  P. Pokhilko,  A. White,  M. Wormit,  M. P. Coons,  
 A. L. Dempwolff,  Zhengting Gan,  D. Hait,  P. R. Horn,  L. D. Jacobson,  
 I. Kaliman,  J. Kussmann,  A. W. Lange,  Ka Un Lao,  D. S. Levine,  Jie Liu,  
 S. C. McKenzie,  A. F. Morrison,  K. Nanda,  F. Plasser,  D. R. Rehn,  
 M. L. Vidal,  Zhi-Qiang You,  Ying Zhu,  B. Alam,  B. Albrecht,  
 A. Aldossary,  E. Alguire,  J. H. Andersen,  D. Barton,  K. Begam,  A. Behn,  
 Y. A. Bernard,  E. J. Berquist,  H. Burton,  A. Carreras,  K. Carter-Fenk,  
 R. Chakraborty,  A. D. Chien,  K. D. Closser,  V. Cofer-Shabica,  
 S. Dasgupta,  Jia Deng,  M. de Wergifosse,  M. Diedenhofen,  Hainam Do,  
 S. Ehlert,  Po-Tung Fang,  S. Fatehi,  Qingguo Feng,  J. Gayvert,  
 Qinghui Ge,  G. Gidofalvi,  M. Goldey,  J. Gomes,  C. Gonzalez-Espinoza,  
 S. Gulania,  A. Gunina,  M. W. D. Hanson-Heine,  P. H. P. Harbach,  
 A. W. Hauser,  M. F. Herbst,  M. Hernandez Vera,  M. Hodecker,  
 Z. C. Holden,  S. Houck,  Xunkun Huang,  Kerwin Hui,  B. C. Huynh,  
 M. Ivanov,  Hyunjun Ji,  Hanjie Jiang,  B. Kaduk,  S. Kaehler,  
 K. Khistyaev,  Jaehoon Kim,  P. Klunzinger,  Z. Koczor-Benda,  
 Joong Hoon Koh,  D. Kosenkov,  L. Koulias,  T. Kowalczyk,  C. M. Krauter,  
 K. Kue,  A. Kunitsa,  T. Kus,  A. Landau,  K. V. Lawler,  D. Lefrancois,  
 S. Lehtola,  Rain Li,  Yi-Pei Li,  Jiashu Liang,  M. Liebenthal,  
 Hung-Hsuan Lin,  You-Sheng Lin,  Fenglai Liu,  Kuan-Yu Liu,  
 M. Loipersberger,  A. Luenser,  A. Manjanath,  P. Manohar,  E. Mansoor,  
 S. F. Manzer,  Shan-Ping Mao,  A. V. Marenich,  T. Markovich,  S. Mason,  
 S. A. Maurer,  P. F. McLaughlin,  M. F. S. J. Menger,  J.-M. Mewes,  
 S. A. Mewes,  P. Morgante,  J. W. Mullinax,  T. S. Nguyen-Beck,  
 K. J. Oosterbaan,  G. Paran,  Alexander C. Paul,  Suranjan K. Paul,  
 F. Pavosevic,  Zheng Pei,  S. Prager,  E. I. Proynov,  E. Ramos,  B. Rana,  
 A. E. Rask,  A. Rettig,  R. M. Richard,  F. Rob,  E. Rossomme,  T. Scheele,  
 M. Scheurer,  M. Schneider,  N. Sergueev,  S. M. Sharada,  W. Skomorowski,  
 D. W. Small,  C. J. Stein,  Yu-Chuan Su,  E. J. Sundstrom,  Zhen Tao,  
 J. Thirman,  T. Tsuchimochi,  N. M. Tubman,  S. P. Veccham,  O. Vydrov,  
 J. Wenzel,  J. Witte,  A. Yamada,  Kun Yao,  S. Yeganeh,  S. R. Yost,  
 A. Zech,  Igor Ying Zhang,  Xing Zhang,  Yu Zhang,  D. Zuev,  
 A. Aspuru-Guzik,  A. T. Bell,  N. A. Besley,  K. B. Bravaya,  B. R. Brooks,  
 D. Casanova,  Jeng-Da Chai,  S. Coriani,  C. J. Cramer,  
 A. E. DePrince, III,  R. A. DiStasio Jr.,  A. Dreuw,  B. D. Dunietz,  
 T. R. Furlani,  W. A. Goddard III,  S. Grimme,  S. Hammes-Schiffer,  
 T. Head-Gordon,  W. J. Hehre,  Chao-Ping Hsu,  T.-C. Jagau,  Yousung Jung,  
 A. Klamt,  Jing Kong,  D. S. Lambrecht,  WanZhen Liang,  N. J. Mayhall,  
 C. W. McCurdy,  J. B. Neaton,  C. Ochsenfeld,  J. A. Parkhill,  R. Peverati,  
 V. A. Rassolov,  Yihan Shao,  L. V. Slipchenko,  T. Stauch,  R. P. Steele,  
 J. E. Subotnik,  A. J. W. Thom,  A. Tkatchenko,  D. G. Truhlar,  
 T. Van Voorhis,  T. A. Wesolowski,  K. B. Whaley,  H. L. Woodcock III,  
 P. M. Zimmerman,  S. Faraji,  P. M. W. Gill,  M. Head-Gordon,  
 J. M. Herbert,  A. I. Krylov

 Contributors to earlier versions of Q-Chem not listed above: 
 R. D. Adamson,  B. Austin,  R. Baer,  J. Baker,  G. J. O. Beran,  
 K. Brandhorst,  S. T. Brown,  E. F. C. Byrd,  A. K. Chakraborty,  
 G. K. L. Chan,  Chun-Min Chang,  Yunqing Chen,  C.-L. Cheng,  
 Siu Hung Chien,  D. M. Chipman,  D. L. Crittenden,  H. Dachsel,  
 R. J. Doerksen,  A. D. Dutoi,  R. G. Edgar,  J. Fosso-Tande,  
 L. Fusti-Molnar,  D. Ghosh,  A. Ghysels,  A. Golubeva-Zadorozhnaya,  
 J. Gonthier,  M. S. Gordon,  S. R. Gwaltney,  G. Hawkins,  J. E. Herr,  
 A. Heyden,  S. Hirata,  E. G. Hohenstein,  G. Kedziora,  F. J. Keil,  
 C. Kelley,  Jihan Kim,  R. A. King,  R. Z. Khaliullin,  P. P. Korambath,  
 W. Kurlancheek,  A. Laurent,  A. M. Lee,  M. S. Lee,  S. V. Levchenko,  
 Ching Yeh Lin,  D. Liotard,  E. Livshits,  R. C. Lochan,  I. Lotan,  
 L. A. Martinez-Martinez,  P. E. Maslen,  N. Nair,  D. P. O'Neill,  
 D. Neuhauser,  E. Neuscamman,  C. M. Oana,  R. Olivares-Amaya,  R. Olson,  
 T. M. Perrine,  B. Peters,  P. A. Pieniazek,  A. Prociuk,  Y. M. Rhee,  
 J. Ritchie,  M. A. Rohrdanz,  E. Rosta,  N. J. Russ,  H. F. Schaefer III,  
 M. W. Schmidt,  N. E. Schultz,  S. Sharma,  N. Shenvi,  C. D. Sherrill,  
 A. C. Simmonett,  A. Sodt,  T. Stein,  D. Stuck,  K. S. Thanthiriwatte,  
 V. Vanovschi,  L. Vogt,  Tao Wang,  A. Warshel,  M. A. Watson,  
 C. F. Williams,  Q. Wu,  X. Xu,  Jun Yang,  W. Zhang,  Yan Zhao

 Please cite Q-Chem as follows:
 Y. Shao et al., Mol. Phys. 113, 184-215 (2015)
 DOI: 10.1080/00268976.2014.952696

 Q-Chem 5.4.0 for Intel X86 EM64T Linux

 Parts of Q-Chem use Armadillo 9.800.1 (Horizon Scraper).
 http://arma.sourceforge.net/

 Q-Chem begins on Wed Dec 27 10:04:08 2023  

 Host: 
0

     Scratch files written to ./qchem2757602//
 May1621 |scratch|qcdevops|jenkins|workspace|build_RNUM    
 Parallel job on  1  processors
 Processing $rem in /cm/shared/apps/spack/cpu/opt/spack/linux-centos8-zen2/gcc-10.2.0/qchem-5.4-akfmr7b3t57bfs6qan3padb2wnb2i7cl/config/preferences:
 Processing $rem in /home/rramji/.qchemrc:
 Symmetry turned off for PCM/SM12/SMD calculation
 Core orbitals will be frozen

 Checking the input file for inconsistencies... 	...done.

 Q-Chem warning in module forms1/BasisType.C, line 2236:

 You are not using the predefined 5D/6D in this basis set.


--------------------------------------------------------------
User input:
--------------------------------------------------------------
$molecule
0 1
C	0.005624	-0.399361	-0.213580
S	0.005424	0.393839	1.366920
C	0.005424	2.031539	0.691320
C	0.005424	0.598639	-1.198980
C	0.005324	1.918839	-0.707080
H	0.005524	0.362939	-2.273480
H	0.005324	2.799839	-1.366180
C	0.005624	-1.877561	-0.213580
H	-1.074376	-1.878161	-0.214080
H	0.005624	-2.316861	-1.200180
H	0.005724	-2.588561	0.599420
H	0.005324	2.912239	1.342420
$end

$rem
JOBTYPE		SP
EXCHANGE	HF
CORRELATION	pRIMP2
BASIS		cc-pvtz
METHOD		rimp2
AUX_BASIS	rimp2-cc-pvtz
SOLVENT_METHOD	PCM
PURECART	11111
SYMMETRY	false
MEM_TOTAL	110000
SCF_CONVERGENCE = 6
THRESH=10
GUI = 2
$end



$solvent
dielectric 4.90
$end
--------------------------------------------------------------
 ----------------------------------------------------------------
             Standard Nuclear Orientation (Angstroms)
    I     Atom           X                Y                Z
 ----------------------------------------------------------------
    1      C       0.0056240000    -0.3993610000    -0.2135800000
    2      S       0.0054240000     0.3938390000     1.3669200000
    3      C       0.0054240000     2.0315390000     0.6913200000
    4      C       0.0054240000     0.5986390000    -1.1989800000
    5      C       0.0053240000     1.9188390000    -0.7070800000
    6      H       0.0055240000     0.3629390000    -2.2734800000
    7      H       0.0053240000     2.7998390000    -1.3661800000
    8      C       0.0056240000    -1.8775610000    -0.2135800000
    9      H      -1.0743760000    -1.8781610000    -0.2140800000
   10      H       0.0056240000    -2.3168610000    -1.2001800000
   11      H       0.0057240000    -2.5885610000     0.5994200000
   12      H       0.0053240000     2.9122390000     1.3424200000
 ----------------------------------------------------------------
 Nuclear Repulsion Energy =         270.14736151 hartrees
 There are       26 alpha and       26 beta electrons
 Requested basis set is cc-pVTZ
 There are 98 shells and 268 basis functions

 Total QAlloc Memory Limit 110000 MB
 Mega-Array Size       188 MB
 MEM_STATIC part       192 MB
 Discretize the solute cavity surface with Lebedev spheres
	Using 110 Lebedev grid points for each H atom
	Using 194 Lebedev grid points for other atoms
	Atomic van der Waals radii will be scaled by 1.20
 Remove points where switching function is < 1.0e-08
 Keep 883 surface tesserae and discard 941 interior tesserae
 Molecular Surface Area = 138.395 Angst**2

                       Distance Matrix (Angstroms)
             C (  1)   S (  2)   C (  3)   C (  4)   C (  5)   H (  6)
   S (  2)  1.768374
   C (  3)  2.593862  1.771580
   C (  4)  1.402504  2.574060  2.372011
   C (  5)  2.370146  2.574316  1.402934  1.408863
   H (  6)  2.196426  3.640531  3.402097  1.100048  2.207812
   H (  7)  3.400495  3.641246  2.196268  2.207541  1.100261  2.600322
   C (  8)  1.478200  2.767172  4.012469  2.665067  3.828341  3.043522
   H (  9)  1.831188  2.971113  4.155896  2.875854  3.978192  3.229527
   H ( 10)  2.156429  3.733349  4.741978  2.915500  4.264306  2.886746
   H ( 11)  2.335287  3.079572  4.621014  3.659575  4.692931  4.118848
   H ( 12)  3.658938  2.518519  1.095246  3.436780  2.277563  4.424213
             H (  7)   C (  8)   H (  9)   H ( 10)   H ( 11)
   C (  8)  4.817319
   H (  9)  4.937284  1.080000
   H ( 10)  5.119392  1.079983  1.526843
   H ( 11)  5.735716  1.080042  1.527438  1.819995
   H ( 12)  2.710931  5.036201  5.151347  5.814491  5.550752
 
 Requested basis set is rimp2-cc-pVTZ
 There are 207 shells and 707 basis functions
 A cutoff of  1.0D-10 yielded   4355 shell pairs
 There are     32647 function pairs (     42196 Cartesian)
 Smallest overlap matrix eigenvalue = 1.04E-04

 Scale SEOQF with 1.000000e+00/1.000000e-01/1.000000e-01

 Standard Electronic Orientation quadrupole field applied
 Nucleus-field energy     =     0.0000000020 hartrees
 Guess from superposition of atomic densities
 Warning:  Energy on first SCF cycle will be non-variational
 SAD guess density has 52.000000 electrons

 -----------------------------------------------------------------------
  General SCF calculation program by
  Eric Jon Sundstrom, Paul Horn, Yuezhi Mao, Dmitri Zuev, Alec White,
  David Stuck, Shaama M.S., Shane Yost, Joonho Lee, David Small,
  Daniel Levine, Susi Lehtola, Hugh Burton, Evgeny Epifanovsky,
  Bang C. Huynh
 -----------------------------------------------------------------------
 Hartree-Fock
 using 64 threads for integral computing
 -------------------------------------------------------
 OpenMP Integral computing Module                
 Release: version 1.0, May 2013, Q-Chem Inc. Pittsburgh 
 -------------------------------------------------------
 A restricted SCF calculation will be
 performed using DIIS
 SCF converges when DIIS error is below 1.0e-06
 ---------------------------------------
  Cycle       Energy         DIIS error
 ---------------------------------------
    1    -592.5683999191      3.22e-02  
    2    -590.3031856012      2.20e-03  
    3    -590.3641196504      8.56e-04  
    4    -590.3715690258      4.09e-04  
    5    -590.3736778208      6.95e-05  
    6    -590.3738020028      3.19e-05  
    7    -590.3738313605      1.40e-05  
    8    -590.3738405521      5.56e-06  
    9    -590.3738419231      1.81e-06  
   10    -590.3738420420      6.46e-07  Convergence criterion met
 ---------------------------------------
 SCF time:   CPU 478.96s  wall 9.00s 

************** Final PCM Free Energy Summary **************
 G_electrostatic  =      -0.00623631 hartree =      -3.91334244 kcal/mol
 G_cavitation     =       0.00000000 hartree =       0.00000000 kcal/mol
 G_dispersion     =       0.00000000 hartree =       0.00000000 kcal/mol
 G_repulsion      =       0.00000000 hartree =       0.00000000 kcal/mol
 --------------------------------------------------
 Non-electrostatic Free Energy =       0.00000000 hartree =       0.00000000 kcal/mol
 Total                         =      -0.00623631 hartree =      -3.91334244 kcal/mol
 --------------------------------------------------
 SCF Energy (H0 + V/2)                       =    -590.37384204 
 Solute Internal Energy (H0)                 =    -590.36760573 
 Total Free Energy (H0 + V/2 + non-elec)     =    -590.37384204 hartree
                                             = -370465.17731204 kcal/mol
***********************************************************

 SCF   energy in the final basis set =     -590.3738420420
 Total energy in the final basis set =     -590.3738420420


 --------------------------------------------------------------
  Generalized many-body perturbation theory program
  by Joonho Lee, Fazle Rob, Xintian Feng, Evgeny Epifanovsky

 No regularization used 
 (reg. param. = 0.0000e+00)
  (P|Q)^-1/2 Time:  CPU 5.23 s  wall 0.09 s

 In RI-MP2 calculation: 
 # of frozen core orbitals: 10

 Components of the RIMP2 correlation energy:
        aaaa    correlation energy =        -0.1249913504 a.u.
        abab    correlation energy =        -0.7499560246 a.u.
        bbbb    correlation energy =        -0.1249913504 a.u.
        non-Brillouin singles      =        -0.0000000000 a.u.
        total same-spin energy     =        -0.2499827008 a.u.
        total opposite-spin energy =        -0.7499560246 a.u.

 Total  RIMP2   correlation energy =        -0.9999387254 a.u.
        RIMP2         total energy =      -591.3737807674 a.u.

 RI-MP2 Energy Time:  CPU 23.63 s  wall 0.41 s
 
 --------------------------------------------------------------
 
                    Orbital Energies (a.u.)
 --------------------------------------------------------------
 
 Alpha MOs
 -- Occupied --
-91.9772 -11.2931 -11.2615 -11.2429 -11.2318 -11.2290  -8.9772  -6.6581
 -6.6576  -6.6570  -1.1568  -1.0409  -0.9709  -0.9201  -0.7543  -0.7217
 -0.6707  -0.5992  -0.5656  -0.5554  -0.5486  -0.4926  -0.4767  -0.4545
 -0.3464  -0.2977
 -- Virtual --
  0.1142   0.1455   0.1597   0.1817   0.1882   0.1976   0.2208   0.2210
  0.2286   0.2376   0.3176   0.3337   0.3516   0.3623   0.3917   0.4143
  0.4248   0.4418   0.4551   0.4936   0.5049   0.5104   0.5234   0.5368
  0.5527   0.5590   0.5743   0.5808   0.5968   0.6138   0.6188   0.6303
  0.6304   0.6375   0.6430   0.6595   0.6998   0.7111   0.7457   0.7808
  0.7921   0.8066   0.8484   0.8628   0.8743   0.8832   0.8953   0.9356
  0.9568   0.9714   1.0050   1.0379   1.0616   1.0817   1.1001   1.1057
  1.1219   1.1399   1.1703   1.1749   1.2203   1.2424   1.2443   1.2633
  1.2702   1.3282   1.3438   1.3620   1.3918   1.4091   1.4230   1.4453
  1.4643   1.4897   1.5083   1.5269   1.5404   1.5472   1.5693   1.5845
  1.6061   1.6374   1.6515   1.6896   1.7345   1.7552   1.7798   1.7958
  1.8428   1.8761   1.9211   1.9261   1.9399   2.0236   2.0666   2.0688
  2.1579   2.1716   2.2230   2.2474   2.2575   2.2844   2.3306   2.4157
  2.4226   2.4410   2.4667   2.5380   2.5416   2.5805   2.6578   2.6601
  2.7005   2.7170   2.7295   2.7379   2.7647   2.7843   2.7933   2.8149
  2.8680   2.9083   2.9208   2.9543   2.9873   3.0060   3.0212   3.0431
  3.0575   3.0964   3.1260   3.1396   3.1775   3.2067   3.2449   3.2536
  3.2644   3.2700   3.2854   3.3069   3.3209   3.3340   3.3680   3.3844
  3.3912   3.4253   3.4329   3.4473   3.4587   3.4724   3.4921   3.4941
  3.5119   3.5197   3.5412   3.5616   3.5986   3.6057   3.6311   3.6501
  3.6681   3.6917   3.7135   3.7354   3.7468   3.7831   3.8286   3.8423
  3.8635   3.8969   3.9123   3.9180   3.9451   3.9460   3.9874   3.9958
  4.0112   4.0413   4.0559   4.1069   4.1262   4.1504   4.1636   4.2156
  4.2462   4.2519   4.2781   4.3122   4.3337   4.3572   4.3664   4.3987
  4.4362   4.4488   4.4792   4.5019   4.5286   4.5672   4.5728   4.6545
  4.6762   4.6963   4.7278   4.7708   4.7865   4.8223   4.8284   4.9343
  4.9498   5.0077   5.0195   5.0476   5.0885   5.1429   5.1605   5.1965
  5.2210   5.3005   5.3599   5.4104   5.4256   5.4999   5.5364   5.5757
  5.6232   5.6811   5.7935   5.8340   5.8763   6.0122   6.0317   6.0737
  6.1273   6.3276   6.4407   6.4809   6.7087   9.4306  11.2747  12.8706
 13.9406  14.3721
 --------------------------------------------------------------
 
          Ground-State Mulliken Net Atomic Charges

     Atom                 Charge (a.u.)
  ----------------------------------------
      1 C                     0.031266
      2 S                    -0.006664
      3 C                    -0.251756
      4 C                    -0.244792
      5 C                    -0.186216
      6 H                     0.181248
      7 H                     0.185591
      8 C                    -0.368214
      9 H                     0.143715
     10 H                     0.136533
     11 H                     0.175637
     12 H                     0.203652
  ----------------------------------------
  Sum of atomic charges =     0.000000

 -----------------------------------------------------------------
                    Cartesian Multipole Moments
 -----------------------------------------------------------------
    Charge (ESU x 10^10)
                -0.0000
    Dipole Moment (Debye)
         X      -0.7496      Y      -0.9297      Z      -1.0820
       Tot       1.6115
    Quadrupole Moments (Debye-Ang)
        XX     -48.3277     XY       1.4884     YY     -35.8006
        XZ       0.1727     YZ       0.5663     ZZ     -41.8174
    Octopole Moments (Debye-Ang^2)
       XXX       0.5377    XXY     -21.3958    XYY      -2.4797
       YYY     -44.1600    XXZ      -7.0914    XYZ      -0.2644
       YYZ      -2.9859    XZZ       0.2458    YZZ     -11.9655
       ZZZ     -28.3015
    Hexadecapole Moments (Debye-Ang^3)
      XXXX     -64.6146   XXXY      -2.9634   XXYY    -118.4455
      XYYY       3.1149   YYYY    -498.2134   XXXZ      -0.3547
      XXYZ      -7.0563   XYYZ       0.3324   YYYZ     -15.7780
      XXZZ     -70.4509   XYZZ      -0.8037   YYZZ    -122.6548
      XZZZ      -0.3392   YZZZ     -14.5394   ZZZZ    -307.9007
 -----------------------------------------------------------------
 Total job time:  9.96s(wall), 535.54s(cpu) 
 Wed Dec 27 10:04:18 2023

        *************************************************************
        *                                                           *
        *  Thank you very much for using Q-Chem.  Have a nice day.  *
        *                                                           *
        *************************************************************


0 sent ACK to 0 
now end server 0 ... 
cleanup process ... done
remove work dirs ./qchem2757602.0 -- ./qchem2757602.0
rm -rf ./qchem2757602.0
rm -rf ./qchem2757602
