You are running Q-Chem version: 5.4.0

#
# job setting
#
local host:  exp-6-47
current dir: /home/rramji/project-csd799/aromodel/pndit-qchem/methylated-rotation-run
input file:  Dimethyl_Naphthalene_Dicarboximide_Phi_30_Theta_120_Thiophene_Hydrogenated_Improper.qcin
output file: 
nprocs     : 1
nthreads   : 64
#
# qchem installation setting
#
QC:          /cm/shared/apps/spack/cpu/opt/spack/linux-centos8-zen2/gcc-10.2.0/qchem-5.4-akfmr7b3t57bfs6qan3padb2wnb2i7cl
QCAUX:       /cm/shared/apps/spack/cpu/opt/spack/linux-centos8-zen2/gcc-10.2.0/qchem-5.4-akfmr7b3t57bfs6qan3padb2wnb2i7cl/qcaux
QCPROG:      /cm/shared/apps/spack/cpu/opt/spack/linux-centos8-zen2/gcc-10.2.0/qchem-5.4-akfmr7b3t57bfs6qan3padb2wnb2i7cl/exe/qcprog.exe
QCPROG_S:    /cm/shared/apps/spack/cpu/opt/spack/linux-centos8-zen2/gcc-10.2.0/qchem-5.4-akfmr7b3t57bfs6qan3padb2wnb2i7cl/exe/qcprog.exe_s
PARALLEL:    -DPARALLEL
QCMPI:       mpich
#
# qchem directory setting
#
qcrun:       qchem2753325
QCSCRATCH:   .
QCLOCALSCR:  
QCTMPDIR:    .
QCFILEPREF:  ./qchem2753325
QCSAVEDIR:   
workdirs:    ./qchem2753325
workdir0:    ./qchem2753325
partmpdirs =  
#
# parallel setting
#
QCRSH:           ssh
QCMPI:           mpich
QCMPIRUN:        /cm/shared/apps/spack/cpu/opt/spack/linux-centos8-zen2/gcc-10.2.0/qchem-5.4-akfmr7b3t57bfs6qan3padb2wnb2i7cl/bin/mpi/mpirun_qchem
QCMACHINEFILE:   ./qchem2753325/hostfile
exp-6-47

#
# env setting
#
exported envs:   QC QCAUX QCSCRATCH QCRUNNAME QCFILEPREF QCPROG QCPROG_S GUIFILE

Running Job 1 of 1 Dimethyl_Naphthalene_Dicarboximide_Phi_30_Theta_120_Thiophene_Hydrogenated_Improper.qcin
qchem Dimethyl_Naphthalene_Dicarboximide_Phi_30_Theta_120_Thiophene_Hydrogenated_Improper.qcin_2753325.0 ./qchem2753325/ 1
/cm/shared/apps/spack/cpu/opt/spack/linux-centos8-zen2/gcc-10.2.0/qchem-5.4-akfmr7b3t57bfs6qan3padb2wnb2i7cl/bin/mpi/mpirun_qchem -machinefile ./qchem2753325/hostfile -np 1 /cm/shared/apps/spack/cpu/opt/spack/linux-centos8-zen2/gcc-10.2.0/qchem-5.4-akfmr7b3t57bfs6qan3padb2wnb2i7cl/exe/qcprog.exe Dimethyl_Naphthalene_Dicarboximide_Phi_30_Theta_120_Thiophene_Hydrogenated_Improper.qcin_2753325.0 ./qchem2753325/

Process 0 of 1 is on exp-6-47 - thread support 0
initial socket setup ...start
initial socket setup ...done 
now start server 0 ... 
                  Welcome to Q-Chem
     A Quantum Leap Into The Future Of Chemistry


 Q-Chem 5.4, Q-Chem, Inc., Pleasanton, CA (2021)

 License issued to: University of California, San Diego (site)

 E. Epifanovsky,  A. T. B. Gilbert,  Xintian Feng,  Joonho Lee,  Yuezhi Mao,  
 N. Mardirossian,  P. Pokhilko,  A. White,  M. Wormit,  M. P. Coons,  
 A. L. Dempwolff,  Zhengting Gan,  D. Hait,  P. R. Horn,  L. D. Jacobson,  
 I. Kaliman,  J. Kussmann,  A. W. Lange,  Ka Un Lao,  D. S. Levine,  Jie Liu,  
 S. C. McKenzie,  A. F. Morrison,  K. Nanda,  F. Plasser,  D. R. Rehn,  
 M. L. Vidal,  Zhi-Qiang You,  Ying Zhu,  B. Alam,  B. Albrecht,  
 A. Aldossary,  E. Alguire,  J. H. Andersen,  D. Barton,  K. Begam,  A. Behn,  
 Y. A. Bernard,  E. J. Berquist,  H. Burton,  A. Carreras,  K. Carter-Fenk,  
 R. Chakraborty,  A. D. Chien,  K. D. Closser,  V. Cofer-Shabica,  
 S. Dasgupta,  Jia Deng,  M. de Wergifosse,  M. Diedenhofen,  Hainam Do,  
 S. Ehlert,  Po-Tung Fang,  S. Fatehi,  Qingguo Feng,  J. Gayvert,  
 Qinghui Ge,  G. Gidofalvi,  M. Goldey,  J. Gomes,  C. Gonzalez-Espinoza,  
 S. Gulania,  A. Gunina,  M. W. D. Hanson-Heine,  P. H. P. Harbach,  
 A. W. Hauser,  M. F. Herbst,  M. Hernandez Vera,  M. Hodecker,  
 Z. C. Holden,  S. Houck,  Xunkun Huang,  Kerwin Hui,  B. C. Huynh,  
 M. Ivanov,  Hyunjun Ji,  Hanjie Jiang,  B. Kaduk,  S. Kaehler,  
 K. Khistyaev,  Jaehoon Kim,  P. Klunzinger,  Z. Koczor-Benda,  
 Joong Hoon Koh,  D. Kosenkov,  L. Koulias,  T. Kowalczyk,  C. M. Krauter,  
 K. Kue,  A. Kunitsa,  T. Kus,  A. Landau,  K. V. Lawler,  D. Lefrancois,  
 S. Lehtola,  Rain Li,  Yi-Pei Li,  Jiashu Liang,  M. Liebenthal,  
 Hung-Hsuan Lin,  You-Sheng Lin,  Fenglai Liu,  Kuan-Yu Liu,  
 M. Loipersberger,  A. Luenser,  A. Manjanath,  P. Manohar,  E. Mansoor,  
 S. F. Manzer,  Shan-Ping Mao,  A. V. Marenich,  T. Markovich,  S. Mason,  
 S. A. Maurer,  P. F. McLaughlin,  M. F. S. J. Menger,  J.-M. Mewes,  
 S. A. Mewes,  P. Morgante,  J. W. Mullinax,  T. S. Nguyen-Beck,  
 K. J. Oosterbaan,  G. Paran,  Alexander C. Paul,  Suranjan K. Paul,  
 F. Pavosevic,  Zheng Pei,  S. Prager,  E. I. Proynov,  E. Ramos,  B. Rana,  
 A. E. Rask,  A. Rettig,  R. M. Richard,  F. Rob,  E. Rossomme,  T. Scheele,  
 M. Scheurer,  M. Schneider,  N. Sergueev,  S. M. Sharada,  W. Skomorowski,  
 D. W. Small,  C. J. Stein,  Yu-Chuan Su,  E. J. Sundstrom,  Zhen Tao,  
 J. Thirman,  T. Tsuchimochi,  N. M. Tubman,  S. P. Veccham,  O. Vydrov,  
 J. Wenzel,  J. Witte,  A. Yamada,  Kun Yao,  S. Yeganeh,  S. R. Yost,  
 A. Zech,  Igor Ying Zhang,  Xing Zhang,  Yu Zhang,  D. Zuev,  
 A. Aspuru-Guzik,  A. T. Bell,  N. A. Besley,  K. B. Bravaya,  B. R. Brooks,  
 D. Casanova,  Jeng-Da Chai,  S. Coriani,  C. J. Cramer,  
 A. E. DePrince, III,  R. A. DiStasio Jr.,  A. Dreuw,  B. D. Dunietz,  
 T. R. Furlani,  W. A. Goddard III,  S. Grimme,  S. Hammes-Schiffer,  
 T. Head-Gordon,  W. J. Hehre,  Chao-Ping Hsu,  T.-C. Jagau,  Yousung Jung,  
 A. Klamt,  Jing Kong,  D. S. Lambrecht,  WanZhen Liang,  N. J. Mayhall,  
 C. W. McCurdy,  J. B. Neaton,  C. Ochsenfeld,  J. A. Parkhill,  R. Peverati,  
 V. A. Rassolov,  Yihan Shao,  L. V. Slipchenko,  T. Stauch,  R. P. Steele,  
 J. E. Subotnik,  A. J. W. Thom,  A. Tkatchenko,  D. G. Truhlar,  
 T. Van Voorhis,  T. A. Wesolowski,  K. B. Whaley,  H. L. Woodcock III,  
 P. M. Zimmerman,  S. Faraji,  P. M. W. Gill,  M. Head-Gordon,  
 J. M. Herbert,  A. I. Krylov

 Contributors to earlier versions of Q-Chem not listed above: 
 R. D. Adamson,  B. Austin,  R. Baer,  J. Baker,  G. J. O. Beran,  
 K. Brandhorst,  S. T. Brown,  E. F. C. Byrd,  A. K. Chakraborty,  
 G. K. L. Chan,  Chun-Min Chang,  Yunqing Chen,  C.-L. Cheng,  
 Siu Hung Chien,  D. M. Chipman,  D. L. Crittenden,  H. Dachsel,  
 R. J. Doerksen,  A. D. Dutoi,  R. G. Edgar,  J. Fosso-Tande,  
 L. Fusti-Molnar,  D. Ghosh,  A. Ghysels,  A. Golubeva-Zadorozhnaya,  
 J. Gonthier,  M. S. Gordon,  S. R. Gwaltney,  G. Hawkins,  J. E. Herr,  
 A. Heyden,  S. Hirata,  E. G. Hohenstein,  G. Kedziora,  F. J. Keil,  
 C. Kelley,  Jihan Kim,  R. A. King,  R. Z. Khaliullin,  P. P. Korambath,  
 W. Kurlancheek,  A. Laurent,  A. M. Lee,  M. S. Lee,  S. V. Levchenko,  
 Ching Yeh Lin,  D. Liotard,  E. Livshits,  R. C. Lochan,  I. Lotan,  
 L. A. Martinez-Martinez,  P. E. Maslen,  N. Nair,  D. P. O'Neill,  
 D. Neuhauser,  E. Neuscamman,  C. M. Oana,  R. Olivares-Amaya,  R. Olson,  
 T. M. Perrine,  B. Peters,  P. A. Pieniazek,  A. Prociuk,  Y. M. Rhee,  
 J. Ritchie,  M. A. Rohrdanz,  E. Rosta,  N. J. Russ,  H. F. Schaefer III,  
 M. W. Schmidt,  N. E. Schultz,  S. Sharma,  N. Shenvi,  C. D. Sherrill,  
 A. C. Simmonett,  A. Sodt,  T. Stein,  D. Stuck,  K. S. Thanthiriwatte,  
 V. Vanovschi,  L. Vogt,  Tao Wang,  A. Warshel,  M. A. Watson,  
 C. F. Williams,  Q. Wu,  X. Xu,  Jun Yang,  W. Zhang,  Yan Zhao

 Please cite Q-Chem as follows:
 Y. Shao et al., Mol. Phys. 113, 184-215 (2015)
 DOI: 10.1080/00268976.2014.952696

 Q-Chem 5.4.0 for Intel X86 EM64T Linux

 Parts of Q-Chem use Armadillo 9.800.1 (Horizon Scraper).
 http://arma.sourceforge.net/

 Q-Chem begins on Wed Dec 27 10:02:41 2023  

 Host: 
0

     Scratch files written to ./qchem2753325//
 May1621 |scratch|qcdevops|jenkins|workspace|build_RNUM    
 Parallel job on  1  processors
 Processing $rem in /cm/shared/apps/spack/cpu/opt/spack/linux-centos8-zen2/gcc-10.2.0/qchem-5.4-akfmr7b3t57bfs6qan3padb2wnb2i7cl/config/preferences:
 Processing $rem in /home/rramji/.qchemrc:
 Symmetry turned off for PCM/SM12/SMD calculation
 Core orbitals will be frozen

 Checking the input file for inconsistencies... 	...done.

 Q-Chem warning in module forms1/BasisType.C, line 2236:

 You are not using the predefined 5D/6D in this basis set.


--------------------------------------------------------------
User input:
--------------------------------------------------------------
$molecule
0 1
C	-0.255613	-0.329934	-0.218828
S	0.140787	0.357066	1.361672
C	0.959587	1.775366	0.686072
C	0.243187	0.534466	-1.204228
C	0.903287	1.677866	-0.712328
H	0.125387	0.330366	-2.278728
H	1.343687	2.440766	-1.371428
C	-0.255613	-1.808134	-0.218828
H	-0.796113	-1.808734	0.716172
H	-1.110013	-2.247434	-0.712128
H	0.448487	-2.519134	0.187572
H	1.399887	2.538166	1.337172
$end

$rem
JOBTYPE		SP
EXCHANGE	HF
CORRELATION	pRIMP2
BASIS		cc-pvtz
METHOD		rimp2
AUX_BASIS	rimp2-cc-pvtz
SOLVENT_METHOD	PCM
PURECART	11111
SYMMETRY	false
MEM_TOTAL	110000
SCF_CONVERGENCE = 6
THRESH=10
GUI = 2
$end



$solvent
dielectric 4.90
$end
--------------------------------------------------------------
 ----------------------------------------------------------------
             Standard Nuclear Orientation (Angstroms)
    I     Atom           X                Y                Z
 ----------------------------------------------------------------
    1      C      -0.2556130000    -0.3299340000    -0.2188280000
    2      S       0.1407870000     0.3570660000     1.3616720000
    3      C       0.9595870000     1.7753660000     0.6860720000
    4      C       0.2431870000     0.5344660000    -1.2042280000
    5      C       0.9032870000     1.6778660000    -0.7123280000
    6      H       0.1253870000     0.3303660000    -2.2787280000
    7      H       1.3436870000     2.4407660000    -1.3714280000
    8      C      -0.2556130000    -1.8081340000    -0.2188280000
    9      H      -0.7961130000    -1.8087340000     0.7161720000
   10      H      -1.1100130000    -2.2474340000    -0.7121280000
   11      H       0.4484870000    -2.5191340000     0.1875720000
   12      H       1.3998870000     2.5381660000     1.3371720000
 ----------------------------------------------------------------
 Nuclear Repulsion Energy =         271.73815496 hartrees
 There are       26 alpha and       26 beta electrons
 Requested basis set is cc-pVTZ
 There are 98 shells and 268 basis functions

 Total QAlloc Memory Limit 110000 MB
 Mega-Array Size       188 MB
 MEM_STATIC part       192 MB
 Discretize the solute cavity surface with Lebedev spheres
	Using 110 Lebedev grid points for each H atom
	Using 194 Lebedev grid points for other atoms
	Atomic van der Waals radii will be scaled by 1.20
 Remove points where switching function is < 1.0e-08
 Keep 879 surface tesserae and discard 945 interior tesserae
 Molecular Surface Area = 137.167 Angst**2

                       Distance Matrix (Angstroms)
             C (  1)   S (  2)   C (  3)   C (  4)   C (  5)   H (  6)
   S (  2)  1.768356
   C (  3)  2.593809  1.771565
   C (  4)  1.402498  2.574063  2.371981
   C (  5)  2.370201  2.574373  1.402925  1.408922
   H (  6)  2.196439  3.640530  3.402051  1.100038  2.207826
   H (  7)  3.400445  3.641237  2.196269  2.207495  1.100173  2.600238
   C (  8)  1.478200  2.709835  3.890633  2.589901  3.706587  2.993582
   H (  9)  1.831178  2.446455  3.991135  3.202915  4.133395  3.793987
   H ( 10)  2.156421  3.556482  4.735095  3.132456  4.411503  3.259678
   H ( 11)  2.335276  3.121813  4.353442  3.362102  4.316419  3.782417
   H ( 12)  3.658936  2.518557  1.095290  3.436784  2.277538  4.424191
             H (  7)   C (  8)   H (  9)   H ( 10)   H ( 11)
   C (  8)  4.683951
   H (  9)  5.195678  1.079984
   H ( 10)  5.332405  1.079967  1.526772
   H ( 11)  5.275649  1.080018  1.527454  1.819946
   H ( 12)  2.710933  4.904298  4.909541  5.779377  5.272857
 
 Requested basis set is rimp2-cc-pVTZ
 There are 207 shells and 707 basis functions
 A cutoff of  1.0D-10 yielded   4388 shell pairs
 There are     32940 function pairs (     42595 Cartesian)
 Smallest overlap matrix eigenvalue = 1.56E-04

 Scale SEOQF with 1.000000e+00/1.000000e-01/1.000000e-01

 Standard Electronic Orientation quadrupole field applied
 Nucleus-field energy     =     0.0000000067 hartrees
 Guess from superposition of atomic densities
 Warning:  Energy on first SCF cycle will be non-variational
 SAD guess density has 52.000000 electrons

 -----------------------------------------------------------------------
  General SCF calculation program by
  Eric Jon Sundstrom, Paul Horn, Yuezhi Mao, Dmitri Zuev, Alec White,
  David Stuck, Shaama M.S., Shane Yost, Joonho Lee, David Small,
  Daniel Levine, Susi Lehtola, Hugh Burton, Evgeny Epifanovsky,
  Bang C. Huynh
 -----------------------------------------------------------------------
 Hartree-Fock
 using 64 threads for integral computing
 -------------------------------------------------------
 OpenMP Integral computing Module                
 Release: version 1.0, May 2013, Q-Chem Inc. Pittsburgh 
 -------------------------------------------------------
 A restricted SCF calculation will be
 performed using DIIS
 SCF converges when DIIS error is below 1.0e-06
 ---------------------------------------
  Cycle       Energy         DIIS error
 ---------------------------------------
    1    -592.5995804718      3.23e-02  
    2    -590.2830865651      2.16e-03  
    3    -590.3438285482      7.87e-04  
    4    -590.3507234136      3.69e-04  
    5    -590.3525279821      7.16e-05  
    6    -590.3526637553      2.97e-05  
    7    -590.3526994733      1.52e-05  
    8    -590.3527099287      5.69e-06  
    9    -590.3527116196      2.62e-06  
   10    -590.3527118216      7.60e-07  Convergence criterion met
 ---------------------------------------
 SCF time:   CPU 479.64s  wall 9.00s 

************** Final PCM Free Energy Summary **************
 G_electrostatic  =      -0.00514140 hartree =      -3.22627990 kcal/mol
 G_cavitation     =       0.00000000 hartree =       0.00000000 kcal/mol
 G_dispersion     =       0.00000000 hartree =       0.00000000 kcal/mol
 G_repulsion      =       0.00000000 hartree =       0.00000000 kcal/mol
 --------------------------------------------------
 Non-electrostatic Free Energy =       0.00000000 hartree =       0.00000000 kcal/mol
 Total                         =      -0.00514140 hartree =      -3.22627990 kcal/mol
 --------------------------------------------------
 SCF Energy (H0 + V/2)                       =    -590.35271182 
 Solute Internal Energy (H0)                 =    -590.34757042 
 Total Free Energy (H0 + V/2 + non-elec)     =    -590.35271182 hartree
                                             = -370451.91789860 kcal/mol
***********************************************************

 SCF   energy in the final basis set =     -590.3527118216
 Total energy in the final basis set =     -590.3527118216


 --------------------------------------------------------------
  Generalized many-body perturbation theory program
  by Joonho Lee, Fazle Rob, Xintian Feng, Evgeny Epifanovsky

 No regularization used 
 (reg. param. = 0.0000e+00)
  (P|Q)^-1/2 Time:  CPU 5.36 s  wall 0.09 s

 In RI-MP2 calculation: 
 # of frozen core orbitals: 10

 Components of the RIMP2 correlation energy:
        aaaa    correlation energy =        -0.1259972834 a.u.
        abab    correlation energy =        -0.7539311984 a.u.
        bbbb    correlation energy =        -0.1259972834 a.u.
        non-Brillouin singles      =        -0.0000000000 a.u.
        total same-spin energy     =        -0.2519945667 a.u.
        total opposite-spin energy =        -0.7539311984 a.u.

 Total  RIMP2   correlation energy =        -1.0059257651 a.u.
        RIMP2         total energy =      -591.3586375867 a.u.

 RI-MP2 Energy Time:  CPU 23.70 s  wall 0.41 s
 
 --------------------------------------------------------------
 
                    Orbital Energies (a.u.)
 --------------------------------------------------------------
 
 Alpha MOs
 -- Occupied --
-91.9793 -11.2757 -11.2737 -11.2437 -11.2412 -11.2201  -8.9794  -6.6602
 -6.6596  -6.6591  -1.1597  -1.0376  -0.9745  -0.9164  -0.7600  -0.7216
 -0.6711  -0.5949  -0.5679  -0.5617  -0.5432  -0.4837  -0.4632  -0.4503
 -0.3461  -0.3098
 -- Virtual --
  0.0872   0.1472   0.1601   0.1804   0.1883   0.1952   0.2098   0.2255
  0.2329   0.2704   0.2979   0.3167   0.3633   0.3743   0.3804   0.4026
  0.4268   0.4516   0.4532   0.4774   0.4821   0.5113   0.5228   0.5354
  0.5381   0.5578   0.5714   0.5932   0.5959   0.6019   0.6103   0.6214
  0.6271   0.6505   0.6558   0.6582   0.6877   0.7061   0.7249   0.7603
  0.7742   0.7913   0.8340   0.8482   0.8715   0.8871   0.8987   0.9198
  0.9276   0.9722   0.9848   1.0549   1.0683   1.0837   1.1114   1.1194
  1.1448   1.1676   1.1716   1.2187   1.2229   1.2375   1.2402   1.2552
  1.2828   1.2936   1.3172   1.3346   1.3824   1.3950   1.4217   1.4359
  1.4717   1.4869   1.5061   1.5275   1.5426   1.5560   1.5849   1.5897
  1.6191   1.6314   1.6412   1.6592   1.6816   1.7337   1.7696   1.8129
  1.8436   1.8980   1.9059   1.9165   1.9565   1.9760   2.0247   2.1049
  2.1253   2.1648   2.1797   2.2165   2.2472   2.2619   2.3234   2.4194
  2.4303   2.4673   2.4805   2.5215   2.5927   2.6055   2.6277   2.6636
  2.7011   2.7137   2.7318   2.7366   2.7501   2.7992   2.8087   2.8430
  2.8462   2.8915   2.9254   2.9682   2.9910   3.0128   3.0272   3.0492
  3.0648   3.0948   3.1344   3.1461   3.1747   3.1939   3.2163   3.2385
  3.2572   3.2645   3.2822   3.2993   3.3181   3.3412   3.3703   3.3775
  3.3948   3.4126   3.4263   3.4457   3.4592   3.4633   3.4885   3.5069
  3.5135   3.5366   3.5596   3.5773   3.5845   3.6240   3.6318   3.6672
  3.6838   3.7094   3.7232   3.7453   3.7780   3.8057   3.8225   3.8461
  3.8577   3.8829   3.8915   3.9415   3.9516   3.9556   3.9761   3.9988
  4.0033   4.0392   4.0715   4.0934   4.1249   4.1610   4.1715   4.1961
  4.2227   4.2525   4.2699   4.2867   4.3251   4.3352   4.3681   4.4077
  4.4298   4.4648   4.4674   4.4863   4.5268   4.5544   4.6132   4.6652
  4.6668   4.6980   4.7094   4.7381   4.7902   4.8027   4.8316   4.8809
  4.9415   5.0092   5.0218   5.0352   5.0929   5.1463   5.1813   5.1912
  5.2246   5.2883   5.3509   5.4090   5.4440   5.4874   5.5247   5.5889
  5.6331   5.7203   5.7705   5.8146   5.8899   5.9416   5.9821   6.0527
  6.0772   6.3233   6.4122   6.4582   6.6273   9.3891  11.3682  12.7431
 13.9456  14.0846
 --------------------------------------------------------------
 
          Ground-State Mulliken Net Atomic Charges

     Atom                 Charge (a.u.)
  ----------------------------------------
      1 C                    -0.029436
      2 S                     0.000336
      3 C                    -0.213639
      4 C                    -0.189431
      5 C                    -0.195875
      6 H                     0.184206
      7 H                     0.186595
      8 C                    -0.343857
      9 H                     0.111546
     10 H                     0.124912
     11 H                     0.158501
     12 H                     0.206143
  ----------------------------------------
  Sum of atomic charges =     0.000000

 -----------------------------------------------------------------
                    Cartesian Multipole Moments
 -----------------------------------------------------------------
    Charge (ESU x 10^10)
                -0.0000
    Dipole Moment (Debye)
         X       0.5676      Y       0.0098      Z      -0.5776
       Tot       0.8099
    Quadrupole Moments (Debye-Ang)
        XX     -45.3514     XY       4.4840     YY     -38.5449
        XZ       0.6476     YZ      -0.3007     ZZ     -42.0449
    Octopole Moments (Debye-Ang^2)
       XXX     -35.8863    XXY     -12.0937    XYY      -1.9798
       YYY     -37.1543    XXZ      -6.6039    XYZ       1.1698
       YYZ      -1.5324    XZZ      -7.7171    YZZ      -6.5325
       ZZZ     -29.3372
    Hexadecapole Moments (Debye-Ang^3)
      XXXX    -149.7427   XXXY     -80.0437   XXYY     -90.3128
      XYYY     -57.5529   YYYY    -448.9675   XXXZ      -3.1013
      XXYZ      -2.0983   XYYZ       4.9502   YYYZ     -13.9525
      XXZZ     -75.4691   XYZZ     -15.7415   YYZZ    -120.1023
      XZZZ      -2.6885   YZZZ     -13.1700   ZZZZ    -303.4931
 -----------------------------------------------------------------
 Total job time:  10.07s(wall), 548.16s(cpu) 
 Wed Dec 27 10:02:51 2023

        *************************************************************
        *                                                           *
        *  Thank you very much for using Q-Chem.  Have a nice day.  *
        *                                                           *
        *************************************************************


0 sent ACK to 0 
now end server 0 ... 
cleanup process ... done
remove work dirs ./qchem2753325.0 -- ./qchem2753325.0
rm -rf ./qchem2753325.0
rm -rf ./qchem2753325
