You are running Q-Chem version: 5.4.0

#
# job setting
#
local host:  exp-9-52
current dir: /home/rramji/project-csd799/aromodel/pndit-qchem/methylated-rotation-run
input file:  Dimethyl_Naphthalene_Dicarboximide_Phi_40_Theta_280_Thiophene_Hydrogenated_Improper.qcin
output file: 
nprocs     : 1
nthreads   : 64
#
# qchem installation setting
#
QC:          /cm/shared/apps/spack/cpu/opt/spack/linux-centos8-zen2/gcc-10.2.0/qchem-5.4-akfmr7b3t57bfs6qan3padb2wnb2i7cl
QCAUX:       /cm/shared/apps/spack/cpu/opt/spack/linux-centos8-zen2/gcc-10.2.0/qchem-5.4-akfmr7b3t57bfs6qan3padb2wnb2i7cl/qcaux
QCPROG:      /cm/shared/apps/spack/cpu/opt/spack/linux-centos8-zen2/gcc-10.2.0/qchem-5.4-akfmr7b3t57bfs6qan3padb2wnb2i7cl/exe/qcprog.exe
QCPROG_S:    /cm/shared/apps/spack/cpu/opt/spack/linux-centos8-zen2/gcc-10.2.0/qchem-5.4-akfmr7b3t57bfs6qan3padb2wnb2i7cl/exe/qcprog.exe_s
PARALLEL:    -DPARALLEL
QCMPI:       mpich
#
# qchem directory setting
#
qcrun:       qchem3748734
QCSCRATCH:   .
QCLOCALSCR:  
QCTMPDIR:    .
QCFILEPREF:  ./qchem3748734
QCSAVEDIR:   
workdirs:    ./qchem3748734
workdir0:    ./qchem3748734
partmpdirs =  
#
# parallel setting
#
QCRSH:           ssh
QCMPI:           mpich
QCMPIRUN:        /cm/shared/apps/spack/cpu/opt/spack/linux-centos8-zen2/gcc-10.2.0/qchem-5.4-akfmr7b3t57bfs6qan3padb2wnb2i7cl/bin/mpi/mpirun_qchem
QCMACHINEFILE:   ./qchem3748734/hostfile
exp-9-52

#
# env setting
#
exported envs:   QC QCAUX QCSCRATCH QCRUNNAME QCFILEPREF QCPROG QCPROG_S GUIFILE

Running Job 1 of 1 Dimethyl_Naphthalene_Dicarboximide_Phi_40_Theta_280_Thiophene_Hydrogenated_Improper.qcin
qchem Dimethyl_Naphthalene_Dicarboximide_Phi_40_Theta_280_Thiophene_Hydrogenated_Improper.qcin_3748734.0 ./qchem3748734/ 1
/cm/shared/apps/spack/cpu/opt/spack/linux-centos8-zen2/gcc-10.2.0/qchem-5.4-akfmr7b3t57bfs6qan3padb2wnb2i7cl/bin/mpi/mpirun_qchem -machinefile ./qchem3748734/hostfile -np 1 /cm/shared/apps/spack/cpu/opt/spack/linux-centos8-zen2/gcc-10.2.0/qchem-5.4-akfmr7b3t57bfs6qan3padb2wnb2i7cl/exe/qcprog.exe Dimethyl_Naphthalene_Dicarboximide_Phi_40_Theta_280_Thiophene_Hydrogenated_Improper.qcin_3748734.0 ./qchem3748734/

Process 0 of 1 is on exp-9-52 - thread support 0
initial socket setup ...start
initial socket setup ...done 
now start server 0 ... 
                  Welcome to Q-Chem
     A Quantum Leap Into The Future Of Chemistry


 Q-Chem 5.4, Q-Chem, Inc., Pleasanton, CA (2021)

 License issued to: University of California, San Diego (site)

 E. Epifanovsky,  A. T. B. Gilbert,  Xintian Feng,  Joonho Lee,  Yuezhi Mao,  
 N. Mardirossian,  P. Pokhilko,  A. White,  M. Wormit,  M. P. Coons,  
 A. L. Dempwolff,  Zhengting Gan,  D. Hait,  P. R. Horn,  L. D. Jacobson,  
 I. Kaliman,  J. Kussmann,  A. W. Lange,  Ka Un Lao,  D. S. Levine,  Jie Liu,  
 S. C. McKenzie,  A. F. Morrison,  K. Nanda,  F. Plasser,  D. R. Rehn,  
 M. L. Vidal,  Zhi-Qiang You,  Ying Zhu,  B. Alam,  B. Albrecht,  
 A. Aldossary,  E. Alguire,  J. H. Andersen,  D. Barton,  K. Begam,  A. Behn,  
 Y. A. Bernard,  E. J. Berquist,  H. Burton,  A. Carreras,  K. Carter-Fenk,  
 R. Chakraborty,  A. D. Chien,  K. D. Closser,  V. Cofer-Shabica,  
 S. Dasgupta,  Jia Deng,  M. de Wergifosse,  M. Diedenhofen,  Hainam Do,  
 S. Ehlert,  Po-Tung Fang,  S. Fatehi,  Qingguo Feng,  J. Gayvert,  
 Qinghui Ge,  G. Gidofalvi,  M. Goldey,  J. Gomes,  C. Gonzalez-Espinoza,  
 S. Gulania,  A. Gunina,  M. W. D. Hanson-Heine,  P. H. P. Harbach,  
 A. W. Hauser,  M. F. Herbst,  M. Hernandez Vera,  M. Hodecker,  
 Z. C. Holden,  S. Houck,  Xunkun Huang,  Kerwin Hui,  B. C. Huynh,  
 M. Ivanov,  Hyunjun Ji,  Hanjie Jiang,  B. Kaduk,  S. Kaehler,  
 K. Khistyaev,  Jaehoon Kim,  P. Klunzinger,  Z. Koczor-Benda,  
 Joong Hoon Koh,  D. Kosenkov,  L. Koulias,  T. Kowalczyk,  C. M. Krauter,  
 K. Kue,  A. Kunitsa,  T. Kus,  A. Landau,  K. V. Lawler,  D. Lefrancois,  
 S. Lehtola,  Rain Li,  Yi-Pei Li,  Jiashu Liang,  M. Liebenthal,  
 Hung-Hsuan Lin,  You-Sheng Lin,  Fenglai Liu,  Kuan-Yu Liu,  
 M. Loipersberger,  A. Luenser,  A. Manjanath,  P. Manohar,  E. Mansoor,  
 S. F. Manzer,  Shan-Ping Mao,  A. V. Marenich,  T. Markovich,  S. Mason,  
 S. A. Maurer,  P. F. McLaughlin,  M. F. S. J. Menger,  J.-M. Mewes,  
 S. A. Mewes,  P. Morgante,  J. W. Mullinax,  T. S. Nguyen-Beck,  
 K. J. Oosterbaan,  G. Paran,  Alexander C. Paul,  Suranjan K. Paul,  
 F. Pavosevic,  Zheng Pei,  S. Prager,  E. I. Proynov,  E. Ramos,  B. Rana,  
 A. E. Rask,  A. Rettig,  R. M. Richard,  F. Rob,  E. Rossomme,  T. Scheele,  
 M. Scheurer,  M. Schneider,  N. Sergueev,  S. M. Sharada,  W. Skomorowski,  
 D. W. Small,  C. J. Stein,  Yu-Chuan Su,  E. J. Sundstrom,  Zhen Tao,  
 J. Thirman,  T. Tsuchimochi,  N. M. Tubman,  S. P. Veccham,  O. Vydrov,  
 J. Wenzel,  J. Witte,  A. Yamada,  Kun Yao,  S. Yeganeh,  S. R. Yost,  
 A. Zech,  Igor Ying Zhang,  Xing Zhang,  Yu Zhang,  D. Zuev,  
 A. Aspuru-Guzik,  A. T. Bell,  N. A. Besley,  K. B. Bravaya,  B. R. Brooks,  
 D. Casanova,  Jeng-Da Chai,  S. Coriani,  C. J. Cramer,  
 A. E. DePrince, III,  R. A. DiStasio Jr.,  A. Dreuw,  B. D. Dunietz,  
 T. R. Furlani,  W. A. Goddard III,  S. Grimme,  S. Hammes-Schiffer,  
 T. Head-Gordon,  W. J. Hehre,  Chao-Ping Hsu,  T.-C. Jagau,  Yousung Jung,  
 A. Klamt,  Jing Kong,  D. S. Lambrecht,  WanZhen Liang,  N. J. Mayhall,  
 C. W. McCurdy,  J. B. Neaton,  C. Ochsenfeld,  J. A. Parkhill,  R. Peverati,  
 V. A. Rassolov,  Yihan Shao,  L. V. Slipchenko,  T. Stauch,  R. P. Steele,  
 J. E. Subotnik,  A. J. W. Thom,  A. Tkatchenko,  D. G. Truhlar,  
 T. Van Voorhis,  T. A. Wesolowski,  K. B. Whaley,  H. L. Woodcock III,  
 P. M. Zimmerman,  S. Faraji,  P. M. W. Gill,  M. Head-Gordon,  
 J. M. Herbert,  A. I. Krylov

 Contributors to earlier versions of Q-Chem not listed above: 
 R. D. Adamson,  B. Austin,  R. Baer,  J. Baker,  G. J. O. Beran,  
 K. Brandhorst,  S. T. Brown,  E. F. C. Byrd,  A. K. Chakraborty,  
 G. K. L. Chan,  Chun-Min Chang,  Yunqing Chen,  C.-L. Cheng,  
 Siu Hung Chien,  D. M. Chipman,  D. L. Crittenden,  H. Dachsel,  
 R. J. Doerksen,  A. D. Dutoi,  R. G. Edgar,  J. Fosso-Tande,  
 L. Fusti-Molnar,  D. Ghosh,  A. Ghysels,  A. Golubeva-Zadorozhnaya,  
 J. Gonthier,  M. S. Gordon,  S. R. Gwaltney,  G. Hawkins,  J. E. Herr,  
 A. Heyden,  S. Hirata,  E. G. Hohenstein,  G. Kedziora,  F. J. Keil,  
 C. Kelley,  Jihan Kim,  R. A. King,  R. Z. Khaliullin,  P. P. Korambath,  
 W. Kurlancheek,  A. Laurent,  A. M. Lee,  M. S. Lee,  S. V. Levchenko,  
 Ching Yeh Lin,  D. Liotard,  E. Livshits,  R. C. Lochan,  I. Lotan,  
 L. A. Martinez-Martinez,  P. E. Maslen,  N. Nair,  D. P. O'Neill,  
 D. Neuhauser,  E. Neuscamman,  C. M. Oana,  R. Olivares-Amaya,  R. Olson,  
 T. M. Perrine,  B. Peters,  P. A. Pieniazek,  A. Prociuk,  Y. M. Rhee,  
 J. Ritchie,  M. A. Rohrdanz,  E. Rosta,  N. J. Russ,  H. F. Schaefer III,  
 M. W. Schmidt,  N. E. Schultz,  S. Sharma,  N. Shenvi,  C. D. Sherrill,  
 A. C. Simmonett,  A. Sodt,  T. Stein,  D. Stuck,  K. S. Thanthiriwatte,  
 V. Vanovschi,  L. Vogt,  Tao Wang,  A. Warshel,  M. A. Watson,  
 C. F. Williams,  Q. Wu,  X. Xu,  Jun Yang,  W. Zhang,  Yan Zhao

 Please cite Q-Chem as follows:
 Y. Shao et al., Mol. Phys. 113, 184-215 (2015)
 DOI: 10.1080/00268976.2014.952696

 Q-Chem 5.4.0 for Intel X86 EM64T Linux

 Parts of Q-Chem use Armadillo 9.800.1 (Horizon Scraper).
 http://arma.sourceforge.net/

 Q-Chem begins on Wed Dec 27 10:06:31 2023  

 Host: 
0

     Scratch files written to ./qchem3748734//
 May1621 |scratch|qcdevops|jenkins|workspace|build_RNUM    
 Parallel job on  1  processors
 Processing $rem in /cm/shared/apps/spack/cpu/opt/spack/linux-centos8-zen2/gcc-10.2.0/qchem-5.4-akfmr7b3t57bfs6qan3padb2wnb2i7cl/config/preferences:
 Processing $rem in /home/rramji/.qchemrc:
 Symmetry turned off for PCM/SM12/SMD calculation
 Core orbitals will be frozen

 Checking the input file for inconsistencies... 	...done.

 Q-Chem warning in module forms1/BasisType.C, line 2236:

 You are not using the predefined 5D/6D in this basis set.


--------------------------------------------------------------
User input:
--------------------------------------------------------------
$molecule
0 1
C	-0.335053	-0.278098	-0.209169
S	0.174647	0.329602	1.371331
C	1.227347	1.584202	0.695731
C	0.306347	0.486502	-1.194569
C	1.154847	1.497902	-0.702669
H	0.154847	0.306002	-2.269069
H	1.721047	2.172802	-1.361769
C	-0.335053	-1.756298	-0.209169
H	-0.146953	-1.756898	-1.272669
H	0.636547	-2.195598	-0.037769
H	-1.135753	-2.467298	-0.350169
H	1.793347	2.258902	1.346831
$end

$rem
JOBTYPE		SP
EXCHANGE	HF
CORRELATION	pRIMP2
BASIS		cc-pvtz
METHOD		rimp2
AUX_BASIS	rimp2-cc-pvtz
SOLVENT_METHOD	PCM
PURECART	11111
SYMMETRY	false
MEM_TOTAL	110000
SCF_CONVERGENCE = 6
THRESH=10
GUI = 2
$end



$solvent
dielectric 4.90
$end
--------------------------------------------------------------
 ----------------------------------------------------------------
             Standard Nuclear Orientation (Angstroms)
    I     Atom           X                Y                Z
 ----------------------------------------------------------------
    1      C      -0.3350530000    -0.2780980000    -0.2091690000
    2      S       0.1746470000     0.3296020000     1.3713310000
    3      C       1.2273470000     1.5842020000     0.6957310000
    4      C       0.3063470000     0.4865020000    -1.1945690000
    5      C       1.1548470000     1.4979020000    -0.7026690000
    6      H       0.1548470000     0.3060020000    -2.2690690000
    7      H       1.7210470000     2.1728020000    -1.3617690000
    8      C      -0.3350530000    -1.7562980000    -0.2091690000
    9      H      -0.1469530000    -1.7568980000    -1.2726690000
   10      H       0.6365470000    -2.1955980000    -0.0377690000
   11      H      -1.1357530000    -2.4672980000    -0.3501690000
   12      H       1.7933470000     2.2589020000     1.3468310000
 ----------------------------------------------------------------
 Nuclear Repulsion Energy =         272.56973220 hartrees
 There are       26 alpha and       26 beta electrons
 Requested basis set is cc-pVTZ
 There are 98 shells and 268 basis functions

 Total QAlloc Memory Limit 110000 MB
 Mega-Array Size       188 MB
 MEM_STATIC part       192 MB
 Discretize the solute cavity surface with Lebedev spheres
	Using 110 Lebedev grid points for each H atom
	Using 194 Lebedev grid points for other atoms
	Atomic van der Waals radii will be scaled by 1.20
 Remove points where switching function is < 1.0e-08
 Keep 864 surface tesserae and discard 960 interior tesserae
 Molecular Surface Area = 137.016 Angst**2

                       Distance Matrix (Angstroms)
             C (  1)   S (  2)   C (  3)   C (  4)   C (  5)   H (  6)
   S (  2)  1.768353
   C (  3)  2.593858  1.771619
   C (  4)  1.402505  2.574064  2.372008
   C (  5)  2.370131  2.574333  1.402935  1.408846
   H (  6)  2.196443  3.640530  3.402072  1.100038  2.207767
   H (  7)  3.400433  3.641233  2.196246  2.207474  1.100221  2.600215
   C (  8)  1.478200  2.666225  3.797220  2.532303  3.612916  2.955718
   H (  9)  1.831192  3.383437  4.114152  2.290071  3.551522  2.310726
   H ( 10)  2.156430  2.928404  3.895376  2.939537  3.788492  3.386552
   H ( 11)  2.335294  3.536009  4.805497  3.393759  4.592811  3.610958
   H ( 12)  3.658906  2.518529  1.095220  3.436755  2.277554  4.424165
             H (  7)   C (  8)   H (  9)   H ( 10)   H ( 11)
   C (  8)  4.581906
   H (  9)  4.352000  1.080007
   H ( 10)  4.691698  1.079986  1.526862
   H ( 11)  5.542127  1.080057  1.527547  1.820017
   H ( 12)  2.710932  4.803442  5.172349  4.806025  5.813467
 
 Requested basis set is rimp2-cc-pVTZ
 There are 207 shells and 707 basis functions
 A cutoff of  1.0D-10 yielded   4433 shell pairs
 There are     33363 function pairs (     43181 Cartesian)
 Smallest overlap matrix eigenvalue = 1.76E-04

 Scale SEOQF with 1.000000e-01/1.000000e-01/1.000000e-01

 Standard Electronic Orientation quadrupole field applied
 Nucleus-field energy     =     0.0000000003 hartrees
 Guess from superposition of atomic densities
 Warning:  Energy on first SCF cycle will be non-variational
 SAD guess density has 52.000000 electrons

 -----------------------------------------------------------------------
  General SCF calculation program by
  Eric Jon Sundstrom, Paul Horn, Yuezhi Mao, Dmitri Zuev, Alec White,
  David Stuck, Shaama M.S., Shane Yost, Joonho Lee, David Small,
  Daniel Levine, Susi Lehtola, Hugh Burton, Evgeny Epifanovsky,
  Bang C. Huynh
 -----------------------------------------------------------------------
 Hartree-Fock
 using 64 threads for integral computing
 -------------------------------------------------------
 OpenMP Integral computing Module                
 Release: version 1.0, May 2013, Q-Chem Inc. Pittsburgh 
 -------------------------------------------------------
 A restricted SCF calculation will be
 performed using DIIS
 SCF converges when DIIS error is below 1.0e-06
 ---------------------------------------
  Cycle       Energy         DIIS error
 ---------------------------------------
    1    -592.6172649144      3.24e-02  
    2    -590.2757561418      2.14e-03  
    3    -590.3359512689      7.40e-04  
    4    -590.3424142104      3.50e-04  
    5    -590.3440037611      6.97e-05  
    6    -590.3441340332      2.87e-05  
    7    -590.3441702063      1.52e-05  
    8    -590.3441815494      5.39e-06  
    9    -590.3441834150      2.53e-06  
   10    -590.3441835922      7.86e-07  Convergence criterion met
 ---------------------------------------
 SCF time:   CPU 500.16s  wall 8.00s 

************** Final PCM Free Energy Summary **************
 G_electrostatic  =      -0.00554550 hartree =      -3.47985201 kcal/mol
 G_cavitation     =       0.00000000 hartree =       0.00000000 kcal/mol
 G_dispersion     =       0.00000000 hartree =       0.00000000 kcal/mol
 G_repulsion      =       0.00000000 hartree =       0.00000000 kcal/mol
 --------------------------------------------------
 Non-electrostatic Free Energy =       0.00000000 hartree =       0.00000000 kcal/mol
 Total                         =      -0.00554550 hartree =      -3.47985201 kcal/mol
 --------------------------------------------------
 SCF Energy (H0 + V/2)                       =    -590.34418359 
 Solute Internal Energy (H0)                 =    -590.33863809 
 Total Free Energy (H0 + V/2 + non-elec)     =    -590.34418359 hartree
                                             = -370446.56635384 kcal/mol
***********************************************************

 SCF   energy in the final basis set =     -590.3441835922
 Total energy in the final basis set =     -590.3441835922


 --------------------------------------------------------------
  Generalized many-body perturbation theory program
  by Joonho Lee, Fazle Rob, Xintian Feng, Evgeny Epifanovsky

 No regularization used 
 (reg. param. = 0.0000e+00)
  (P|Q)^-1/2 Time:  CPU 5.38 s  wall 0.09 s

 In RI-MP2 calculation: 
 # of frozen core orbitals: 10

 Components of the RIMP2 correlation energy:
        aaaa    correlation energy =        -0.1265097555 a.u.
        abab    correlation energy =        -0.7553758992 a.u.
        bbbb    correlation energy =        -0.1265097555 a.u.
        non-Brillouin singles      =        -0.0000000000 a.u.
        total same-spin energy     =        -0.2530195110 a.u.
        total opposite-spin energy =        -0.7553758992 a.u.

 Total  RIMP2   correlation energy =        -1.0083954102 a.u.
        RIMP2         total energy =      -591.3525790024 a.u.

 RI-MP2 Energy Time:  CPU 24.20 s  wall 0.44 s
 
 --------------------------------------------------------------
 
                    Orbital Energies (a.u.)
 --------------------------------------------------------------
 
 Alpha MOs
 -- Occupied --
-91.9744 -11.2779 -11.2725 -11.2473 -11.2435 -11.2188  -8.9748  -6.6556
 -6.6549  -6.6545  -1.1622  -1.0369  -0.9754  -0.9127  -0.7577  -0.7264
 -0.6716  -0.5960  -0.5736  -0.5565  -0.5408  -0.4887  -0.4681  -0.4343
 -0.3426  -0.3126
 -- Virtual --
  0.0800   0.1542   0.1612   0.1770   0.1896   0.1972   0.2077   0.2263
  0.2361   0.2547   0.2983   0.3385   0.3603   0.3678   0.3817   0.4035
  0.4258   0.4454   0.4542   0.4619   0.4782   0.5090   0.5221   0.5303
  0.5375   0.5451   0.5621   0.5783   0.5966   0.6024   0.6158   0.6235
  0.6281   0.6386   0.6583   0.6657   0.6836   0.7147   0.7384   0.7622
  0.7864   0.7991   0.8217   0.8254   0.8498   0.8776   0.8939   0.9291
  0.9674   1.0005   1.0188   1.0204   1.0655   1.0871   1.1212   1.1313
  1.1577   1.1629   1.1809   1.2022   1.2180   1.2273   1.2555   1.2712
  1.2943   1.3176   1.3271   1.3444   1.3638   1.3877   1.4101   1.4492
  1.4593   1.4919   1.4970   1.5085   1.5212   1.5413   1.5755   1.5928
  1.6009   1.6287   1.6489   1.6643   1.6878   1.7224   1.7640   1.8090
  1.8219   1.8822   1.9022   1.9070   1.9531   1.9832   2.0199   2.1027
  2.1341   2.1493   2.1784   2.2146   2.2440   2.2587   2.3275   2.3950
  2.4277   2.4582   2.4780   2.5120   2.5760   2.6010   2.6326   2.6597
  2.6860   2.7179   2.7225   2.7570   2.7704   2.8158   2.8406   2.8702
  2.8948   2.9234   2.9353   2.9400   2.9793   2.9891   3.0285   3.0467
  3.0989   3.1086   3.1366   3.1459   3.1741   3.1958   3.2038   3.2265
  3.2524   3.2574   3.2832   3.3036   3.3138   3.3364   3.3490   3.3563
  3.4035   3.4164   3.4309   3.4540   3.4623   3.4761   3.4995   3.5113
  3.5150   3.5422   3.5644   3.5843   3.5952   3.6363   3.6491   3.6608
  3.6762   3.6912   3.7156   3.7463   3.7804   3.7930   3.8238   3.8306
  3.8689   3.8852   3.9047   3.9194   3.9525   3.9617   3.9695   3.9709
  4.0151   4.0358   4.0630   4.1143   4.1235   4.1635   4.1691   4.1960
  4.2259   4.2656   4.2755   4.2863   4.3026   4.3605   4.4050   4.4116
  4.4547   4.4711   4.4810   4.5069   4.5634   4.5915   4.6189   4.6546
  4.7020   4.7241   4.7346   4.7551   4.7601   4.8066   4.8248   4.8984
  4.9205   4.9945   5.0258   5.0376   5.0895   5.1472   5.1648   5.1759
  5.2082   5.2868   5.3649   5.4120   5.4404   5.4782   5.5355   5.5846
  5.6260   5.7210   5.7489   5.8002   5.8637   5.9366   5.9819   6.0374
  6.0812   6.3044   6.3896   6.4571   6.5985   9.5062  11.4836  12.6602
 13.8631  14.0307
 --------------------------------------------------------------
 
          Ground-State Mulliken Net Atomic Charges

     Atom                 Charge (a.u.)
  ----------------------------------------
      1 C                    -0.022178
      2 S                     0.000093
      3 C                    -0.202997
      4 C                    -0.181922
      5 C                    -0.207933
      6 H                     0.180703
      7 H                     0.188076
      8 C                    -0.354356
      9 H                     0.115860
     10 H                     0.136885
     11 H                     0.142924
     12 H                     0.204845
  ----------------------------------------
  Sum of atomic charges =     0.000000

 -----------------------------------------------------------------
                    Cartesian Multipole Moments
 -----------------------------------------------------------------
    Charge (ESU x 10^10)
                 0.0000
    Dipole Moment (Debye)
         X       1.3457      Y      -0.1115      Z      -1.7561
       Tot       2.2153
    Quadrupole Moments (Debye-Ang)
        XX     -44.0383     XY       4.5342     YY     -40.2667
        XZ       0.7579     YZ       1.8587     ZZ     -41.7381
    Octopole Moments (Debye-Ang^2)
       XXX     -43.6052    XXY      -6.7651    XYY      -6.0464
       YYY     -33.9714    XXZ      -5.0496    XYZ       1.6808
       YYZ      -6.8048    XZZ     -10.3268    YZZ      -5.6634
       ZZZ     -28.3158
    Hexadecapole Moments (Debye-Ang^3)
      XXXX    -193.9576   XXXY     -82.0190   XXYY     -80.5200
      XYYY     -69.4658   YYYY    -407.3669   XXXZ      -4.0628
      XXYZ      -2.6477   XYYZ       4.1337   YYYZ      -9.3162
      XXZZ     -80.3745   XYZZ     -17.5689   YYZZ    -114.1804
      XZZZ      -4.1566   YZZZ     -19.1452   ZZZZ    -306.8487
 -----------------------------------------------------------------
 Total job time:  10.41s(wall), 561.76s(cpu) 
 Wed Dec 27 10:06:42 2023

        *************************************************************
        *                                                           *
        *  Thank you very much for using Q-Chem.  Have a nice day.  *
        *                                                           *
        *************************************************************


0 sent ACK to 0 
now end server 0 ... 
cleanup process ... done
remove work dirs ./qchem3748734.0 -- ./qchem3748734.0
rm -rf ./qchem3748734.0
rm -rf ./qchem3748734
