You are running Q-Chem version: 5.4.0

#
# job setting
#
local host:  exp-4-24
current dir: /home/rramji/project-csd799/aromodel/pndit-qchem/methylated-rotation-run
input file:  Dimethyl_Naphthalene_Dicarboximide_Phi_10_Theta_50_Thiophene_Hydrogenated_Improper.qcin
output file: 
nprocs     : 1
nthreads   : 64
#
# qchem installation setting
#
QC:          /cm/shared/apps/spack/cpu/opt/spack/linux-centos8-zen2/gcc-10.2.0/qchem-5.4-akfmr7b3t57bfs6qan3padb2wnb2i7cl
QCAUX:       /cm/shared/apps/spack/cpu/opt/spack/linux-centos8-zen2/gcc-10.2.0/qchem-5.4-akfmr7b3t57bfs6qan3padb2wnb2i7cl/qcaux
QCPROG:      /cm/shared/apps/spack/cpu/opt/spack/linux-centos8-zen2/gcc-10.2.0/qchem-5.4-akfmr7b3t57bfs6qan3padb2wnb2i7cl/exe/qcprog.exe
QCPROG_S:    /cm/shared/apps/spack/cpu/opt/spack/linux-centos8-zen2/gcc-10.2.0/qchem-5.4-akfmr7b3t57bfs6qan3padb2wnb2i7cl/exe/qcprog.exe_s
PARALLEL:    -DPARALLEL
QCMPI:       mpich
#
# qchem directory setting
#
qcrun:       qchem2963819
QCSCRATCH:   .
QCLOCALSCR:  
QCTMPDIR:    .
QCFILEPREF:  ./qchem2963819
QCSAVEDIR:   
workdirs:    ./qchem2963819
workdir0:    ./qchem2963819
partmpdirs =  
#
# parallel setting
#
QCRSH:           ssh
QCMPI:           mpich
QCMPIRUN:        /cm/shared/apps/spack/cpu/opt/spack/linux-centos8-zen2/gcc-10.2.0/qchem-5.4-akfmr7b3t57bfs6qan3padb2wnb2i7cl/bin/mpi/mpirun_qchem
QCMACHINEFILE:   ./qchem2963819/hostfile
exp-4-24

#
# env setting
#
exported envs:   QC QCAUX QCSCRATCH QCRUNNAME QCFILEPREF QCPROG QCPROG_S GUIFILE

Running Job 1 of 1 Dimethyl_Naphthalene_Dicarboximide_Phi_10_Theta_50_Thiophene_Hydrogenated_Improper.qcin
qchem Dimethyl_Naphthalene_Dicarboximide_Phi_10_Theta_50_Thiophene_Hydrogenated_Improper.qcin_2963819.0 ./qchem2963819/ 1
/cm/shared/apps/spack/cpu/opt/spack/linux-centos8-zen2/gcc-10.2.0/qchem-5.4-akfmr7b3t57bfs6qan3padb2wnb2i7cl/bin/mpi/mpirun_qchem -machinefile ./qchem2963819/hostfile -np 1 /cm/shared/apps/spack/cpu/opt/spack/linux-centos8-zen2/gcc-10.2.0/qchem-5.4-akfmr7b3t57bfs6qan3padb2wnb2i7cl/exe/qcprog.exe Dimethyl_Naphthalene_Dicarboximide_Phi_10_Theta_50_Thiophene_Hydrogenated_Improper.qcin_2963819.0 ./qchem2963819/

Process 0 of 1 is on exp-4-24 - thread support 0
initial socket setup ...start
initial socket setup ...done 
now start server 0 ... 
                  Welcome to Q-Chem
     A Quantum Leap Into The Future Of Chemistry


 Q-Chem 5.4, Q-Chem, Inc., Pleasanton, CA (2021)

 License issued to: University of California, San Diego (site)

 E. Epifanovsky,  A. T. B. Gilbert,  Xintian Feng,  Joonho Lee,  Yuezhi Mao,  
 N. Mardirossian,  P. Pokhilko,  A. White,  M. Wormit,  M. P. Coons,  
 A. L. Dempwolff,  Zhengting Gan,  D. Hait,  P. R. Horn,  L. D. Jacobson,  
 I. Kaliman,  J. Kussmann,  A. W. Lange,  Ka Un Lao,  D. S. Levine,  Jie Liu,  
 S. C. McKenzie,  A. F. Morrison,  K. Nanda,  F. Plasser,  D. R. Rehn,  
 M. L. Vidal,  Zhi-Qiang You,  Ying Zhu,  B. Alam,  B. Albrecht,  
 A. Aldossary,  E. Alguire,  J. H. Andersen,  D. Barton,  K. Begam,  A. Behn,  
 Y. A. Bernard,  E. J. Berquist,  H. Burton,  A. Carreras,  K. Carter-Fenk,  
 R. Chakraborty,  A. D. Chien,  K. D. Closser,  V. Cofer-Shabica,  
 S. Dasgupta,  Jia Deng,  M. de Wergifosse,  M. Diedenhofen,  Hainam Do,  
 S. Ehlert,  Po-Tung Fang,  S. Fatehi,  Qingguo Feng,  J. Gayvert,  
 Qinghui Ge,  G. Gidofalvi,  M. Goldey,  J. Gomes,  C. Gonzalez-Espinoza,  
 S. Gulania,  A. Gunina,  M. W. D. Hanson-Heine,  P. H. P. Harbach,  
 A. W. Hauser,  M. F. Herbst,  M. Hernandez Vera,  M. Hodecker,  
 Z. C. Holden,  S. Houck,  Xunkun Huang,  Kerwin Hui,  B. C. Huynh,  
 M. Ivanov,  Hyunjun Ji,  Hanjie Jiang,  B. Kaduk,  S. Kaehler,  
 K. Khistyaev,  Jaehoon Kim,  P. Klunzinger,  Z. Koczor-Benda,  
 Joong Hoon Koh,  D. Kosenkov,  L. Koulias,  T. Kowalczyk,  C. M. Krauter,  
 K. Kue,  A. Kunitsa,  T. Kus,  A. Landau,  K. V. Lawler,  D. Lefrancois,  
 S. Lehtola,  Rain Li,  Yi-Pei Li,  Jiashu Liang,  M. Liebenthal,  
 Hung-Hsuan Lin,  You-Sheng Lin,  Fenglai Liu,  Kuan-Yu Liu,  
 M. Loipersberger,  A. Luenser,  A. Manjanath,  P. Manohar,  E. Mansoor,  
 S. F. Manzer,  Shan-Ping Mao,  A. V. Marenich,  T. Markovich,  S. Mason,  
 S. A. Maurer,  P. F. McLaughlin,  M. F. S. J. Menger,  J.-M. Mewes,  
 S. A. Mewes,  P. Morgante,  J. W. Mullinax,  T. S. Nguyen-Beck,  
 K. J. Oosterbaan,  G. Paran,  Alexander C. Paul,  Suranjan K. Paul,  
 F. Pavosevic,  Zheng Pei,  S. Prager,  E. I. Proynov,  E. Ramos,  B. Rana,  
 A. E. Rask,  A. Rettig,  R. M. Richard,  F. Rob,  E. Rossomme,  T. Scheele,  
 M. Scheurer,  M. Schneider,  N. Sergueev,  S. M. Sharada,  W. Skomorowski,  
 D. W. Small,  C. J. Stein,  Yu-Chuan Su,  E. J. Sundstrom,  Zhen Tao,  
 J. Thirman,  T. Tsuchimochi,  N. M. Tubman,  S. P. Veccham,  O. Vydrov,  
 J. Wenzel,  J. Witte,  A. Yamada,  Kun Yao,  S. Yeganeh,  S. R. Yost,  
 A. Zech,  Igor Ying Zhang,  Xing Zhang,  Yu Zhang,  D. Zuev,  
 A. Aspuru-Guzik,  A. T. Bell,  N. A. Besley,  K. B. Bravaya,  B. R. Brooks,  
 D. Casanova,  Jeng-Da Chai,  S. Coriani,  C. J. Cramer,  
 A. E. DePrince, III,  R. A. DiStasio Jr.,  A. Dreuw,  B. D. Dunietz,  
 T. R. Furlani,  W. A. Goddard III,  S. Grimme,  S. Hammes-Schiffer,  
 T. Head-Gordon,  W. J. Hehre,  Chao-Ping Hsu,  T.-C. Jagau,  Yousung Jung,  
 A. Klamt,  Jing Kong,  D. S. Lambrecht,  WanZhen Liang,  N. J. Mayhall,  
 C. W. McCurdy,  J. B. Neaton,  C. Ochsenfeld,  J. A. Parkhill,  R. Peverati,  
 V. A. Rassolov,  Yihan Shao,  L. V. Slipchenko,  T. Stauch,  R. P. Steele,  
 J. E. Subotnik,  A. J. W. Thom,  A. Tkatchenko,  D. G. Truhlar,  
 T. Van Voorhis,  T. A. Wesolowski,  K. B. Whaley,  H. L. Woodcock III,  
 P. M. Zimmerman,  S. Faraji,  P. M. W. Gill,  M. Head-Gordon,  
 J. M. Herbert,  A. I. Krylov

 Contributors to earlier versions of Q-Chem not listed above: 
 R. D. Adamson,  B. Austin,  R. Baer,  J. Baker,  G. J. O. Beran,  
 K. Brandhorst,  S. T. Brown,  E. F. C. Byrd,  A. K. Chakraborty,  
 G. K. L. Chan,  Chun-Min Chang,  Yunqing Chen,  C.-L. Cheng,  
 Siu Hung Chien,  D. M. Chipman,  D. L. Crittenden,  H. Dachsel,  
 R. J. Doerksen,  A. D. Dutoi,  R. G. Edgar,  J. Fosso-Tande,  
 L. Fusti-Molnar,  D. Ghosh,  A. Ghysels,  A. Golubeva-Zadorozhnaya,  
 J. Gonthier,  M. S. Gordon,  S. R. Gwaltney,  G. Hawkins,  J. E. Herr,  
 A. Heyden,  S. Hirata,  E. G. Hohenstein,  G. Kedziora,  F. J. Keil,  
 C. Kelley,  Jihan Kim,  R. A. King,  R. Z. Khaliullin,  P. P. Korambath,  
 W. Kurlancheek,  A. Laurent,  A. M. Lee,  M. S. Lee,  S. V. Levchenko,  
 Ching Yeh Lin,  D. Liotard,  E. Livshits,  R. C. Lochan,  I. Lotan,  
 L. A. Martinez-Martinez,  P. E. Maslen,  N. Nair,  D. P. O'Neill,  
 D. Neuhauser,  E. Neuscamman,  C. M. Oana,  R. Olivares-Amaya,  R. Olson,  
 T. M. Perrine,  B. Peters,  P. A. Pieniazek,  A. Prociuk,  Y. M. Rhee,  
 J. Ritchie,  M. A. Rohrdanz,  E. Rosta,  N. J. Russ,  H. F. Schaefer III,  
 M. W. Schmidt,  N. E. Schultz,  S. Sharma,  N. Shenvi,  C. D. Sherrill,  
 A. C. Simmonett,  A. Sodt,  T. Stein,  D. Stuck,  K. S. Thanthiriwatte,  
 V. Vanovschi,  L. Vogt,  Tao Wang,  A. Warshel,  M. A. Watson,  
 C. F. Williams,  Q. Wu,  X. Xu,  Jun Yang,  W. Zhang,  Yan Zhao

 Please cite Q-Chem as follows:
 Y. Shao et al., Mol. Phys. 113, 184-215 (2015)
 DOI: 10.1080/00268976.2014.952696

 Q-Chem 5.4.0 for Intel X86 EM64T Linux

 Parts of Q-Chem use Armadillo 9.800.1 (Horizon Scraper).
 http://arma.sourceforge.net/

 Q-Chem begins on Wed Dec 27 10:00:51 2023  

 Host: 
0

     Scratch files written to ./qchem2963819//
 May1621 |scratch|qcdevops|jenkins|workspace|build_RNUM    
 Parallel job on  1  processors
 Processing $rem in /cm/shared/apps/spack/cpu/opt/spack/linux-centos8-zen2/gcc-10.2.0/qchem-5.4-akfmr7b3t57bfs6qan3padb2wnb2i7cl/config/preferences:
 Processing $rem in /home/rramji/.qchemrc:
 Symmetry turned off for PCM/SM12/SMD calculation
 Core orbitals will be frozen

 Checking the input file for inconsistencies... 	...done.

 Q-Chem warning in module forms1/BasisType.C, line 2236:

 You are not using the predefined 5D/6D in this basis set.


--------------------------------------------------------------
User input:
--------------------------------------------------------------
$molecule
0 1
C	-0.092826	-0.391505	-0.219296
S	0.044674	0.389695	1.361204
C	0.329074	2.002495	0.685604
C	0.080274	0.591395	-1.204696
C	0.309474	1.891595	-0.712796
H	0.039374	0.359295	-2.279196
H	0.462374	2.759095	-1.371896
C	-0.092826	-1.869705	-0.219296
H	0.600974	-1.870305	0.608404
H	-0.848626	-2.309005	0.414904
H	0.529874	-2.580705	-0.741996
H	0.481874	2.869795	1.336704
$end

$rem
JOBTYPE		SP
EXCHANGE	HF
CORRELATION	pRIMP2
BASIS		cc-pvtz
METHOD		rimp2
AUX_BASIS	rimp2-cc-pvtz
SOLVENT_METHOD	PCM
PURECART	11111
SYMMETRY	false
MEM_TOTAL	110000
SCF_CONVERGENCE = 6
THRESH=10
GUI = 2
$end



$solvent
dielectric 4.90
$end
--------------------------------------------------------------
 ----------------------------------------------------------------
             Standard Nuclear Orientation (Angstroms)
    I     Atom           X                Y                Z
 ----------------------------------------------------------------
    1      C      -0.0928260000    -0.3915050000    -0.2192960000
    2      S       0.0446740000     0.3896950000     1.3612040000
    3      C       0.3290740000     2.0024950000     0.6856040000
    4      C       0.0802740000     0.5913950000    -1.2046960000
    5      C       0.3094740000     1.8915950000    -0.7127960000
    6      H       0.0393740000     0.3592950000    -2.2791960000
    7      H       0.4623740000     2.7590950000    -1.3718960000
    8      C      -0.0928260000    -1.8697050000    -0.2192960000
    9      H       0.6009740000    -1.8703050000     0.6084040000
   10      H      -0.8486260000    -2.3090050000     0.4149040000
   11      H       0.5298740000    -2.5807050000    -0.7419960000
   12      H       0.4818740000     2.8697950000     1.3367040000
 ----------------------------------------------------------------
 Nuclear Repulsion Energy =         270.86601524 hartrees
 There are       26 alpha and       26 beta electrons
 Requested basis set is cc-pVTZ
 There are 98 shells and 268 basis functions

 Total QAlloc Memory Limit 110000 MB
 Mega-Array Size       188 MB
 MEM_STATIC part       192 MB
 Discretize the solute cavity surface with Lebedev spheres
	Using 110 Lebedev grid points for each H atom
	Using 194 Lebedev grid points for other atoms
	Atomic van der Waals radii will be scaled by 1.20
 Remove points where switching function is < 1.0e-08
 Keep 886 surface tesserae and discard 938 interior tesserae
 Molecular Surface Area = 137.857 Angst**2

                       Distance Matrix (Angstroms)
             C (  1)   S (  2)   C (  3)   C (  4)   C (  5)   H (  6)
   S (  2)  1.768378
   C (  3)  2.593854  1.771565
   C (  4)  1.402522  2.574062  2.371990
   C (  5)  2.370218  2.574354  1.402927  1.408907
   H (  6)  2.196444  3.640531  3.402069  1.100042  2.207828
   H (  7)  3.400443  3.641204  2.196251  2.207460  1.100158  2.600224
   C (  8)  1.478200  2.760756  3.998847  2.656688  3.814809  3.037944
   H (  9)  1.831200  2.446176  3.883100  3.101359  3.997804  3.691171
   H ( 10)  2.156444  2.996072  4.477643  3.449388  4.500882  3.894425
   H ( 11)  2.335287  3.671804  4.804590  3.237043  4.477823  3.353681
   H ( 12)  3.658892  2.518460  1.095212  3.436729  2.277509  4.424155
             H (  7)   C (  8)   H (  9)   H ( 10)   H ( 11)
   C (  8)  4.802346
   H (  9)  5.037077  1.080021
   H ( 10)  5.531457  1.080013  1.526840
   H ( 11)  5.377248  1.080042  1.527515  1.820028
   H ( 12)  2.710931  5.021382  4.797203  5.425856  5.833631
 
 Requested basis set is rimp2-cc-pVTZ
 There are 207 shells and 707 basis functions
 A cutoff of  1.0D-10 yielded   4370 shell pairs
 There are     32788 function pairs (     42405 Cartesian)
 Smallest overlap matrix eigenvalue = 1.16E-04

 Scale SEOQF with 1.000000e+00/1.000000e-01/1.000000e-01

 Standard Electronic Orientation quadrupole field applied
 Nucleus-field energy     =     0.0000000027 hartrees
 Guess from superposition of atomic densities
 Warning:  Energy on first SCF cycle will be non-variational
 SAD guess density has 52.000000 electrons

 -----------------------------------------------------------------------
  General SCF calculation program by
  Eric Jon Sundstrom, Paul Horn, Yuezhi Mao, Dmitri Zuev, Alec White,
  David Stuck, Shaama M.S., Shane Yost, Joonho Lee, David Small,
  Daniel Levine, Susi Lehtola, Hugh Burton, Evgeny Epifanovsky,
  Bang C. Huynh
 -----------------------------------------------------------------------
 Hartree-Fock
 using 64 threads for integral computing
 -------------------------------------------------------
 OpenMP Integral computing Module                
 Release: version 1.0, May 2013, Q-Chem Inc. Pittsburgh 
 -------------------------------------------------------
 A restricted SCF calculation will be
 performed using DIIS
 SCF converges when DIIS error is below 1.0e-06
 ---------------------------------------
  Cycle       Energy         DIIS error
 ---------------------------------------
    1    -592.5876011498      3.23e-02  
    2    -590.2994021875      2.20e-03  
    3    -590.3606261316      8.41e-04  
    4    -590.3679480344      3.96e-04  
    5    -590.3699658935      7.14e-05  
    6    -590.3700948817      3.19e-05  
    7    -590.3701270317      1.46e-05  
    8    -590.3701368597      5.84e-06  
    9    -590.3701383513      1.95e-06  
   10    -590.3701384930      6.03e-07  Convergence criterion met
 ---------------------------------------
 SCF time:   CPU 498.01s  wall 9.00s 

************** Final PCM Free Energy Summary **************
 G_electrostatic  =      -0.00552758 hartree =      -3.46860596 kcal/mol
 G_cavitation     =       0.00000000 hartree =       0.00000000 kcal/mol
 G_dispersion     =       0.00000000 hartree =       0.00000000 kcal/mol
 G_repulsion      =       0.00000000 hartree =       0.00000000 kcal/mol
 --------------------------------------------------
 Non-electrostatic Free Energy =       0.00000000 hartree =       0.00000000 kcal/mol
 Total                         =      -0.00552758 hartree =      -3.46860596 kcal/mol
 --------------------------------------------------
 SCF Energy (H0 + V/2)                       =    -590.37013849 
 Solute Internal Energy (H0)                 =    -590.36461092 
 Total Free Energy (H0 + V/2 + non-elec)     =    -590.37013849 hartree
                                             = -370462.85329992 kcal/mol
***********************************************************

 SCF   energy in the final basis set =     -590.3701384930
 Total energy in the final basis set =     -590.3701384930


 --------------------------------------------------------------
  Generalized many-body perturbation theory program
  by Joonho Lee, Fazle Rob, Xintian Feng, Evgeny Epifanovsky

 No regularization used 
 (reg. param. = 0.0000e+00)
  (P|Q)^-1/2 Time:  CPU 6.74 s  wall 0.11 s

 In RI-MP2 calculation: 
 # of frozen core orbitals: 10

 Components of the RIMP2 correlation energy:
        aaaa    correlation energy =        -0.1250981828 a.u.
        abab    correlation energy =        -0.7507317038 a.u.
        bbbb    correlation energy =        -0.1250981828 a.u.
        non-Brillouin singles      =        -0.0000000000 a.u.
        total same-spin energy     =        -0.2501963656 a.u.
        total opposite-spin energy =        -0.7507317038 a.u.

 Total  RIMP2   correlation energy =        -1.0009280694 a.u.
        RIMP2         total energy =      -591.3710665623 a.u.

 RI-MP2 Energy Time:  CPU 25.35 s  wall 0.43 s
 
 --------------------------------------------------------------
 
                    Orbital Energies (a.u.)
 --------------------------------------------------------------
 
 Alpha MOs
 -- Occupied --
-91.9787 -11.2863 -11.2677 -11.2427 -11.2346 -11.2248  -8.9788  -6.6597
 -6.6592  -6.6586  -1.1582  -1.0404  -0.9724  -0.9183  -0.7574  -0.7207
 -0.6718  -0.5966  -0.5676  -0.5631  -0.5337  -0.5013  -0.4671  -0.4543
 -0.3466  -0.3051
 -- Virtual --
  0.1042   0.1470   0.1609   0.1777   0.1905   0.1990   0.2132   0.2237
  0.2435   0.2467   0.3064   0.3262   0.3585   0.3703   0.3893   0.4173
  0.4222   0.4468   0.4618   0.4769   0.4911   0.5031   0.5245   0.5376
  0.5435   0.5611   0.5658   0.5771   0.5962   0.6100   0.6145   0.6202
  0.6302   0.6424   0.6503   0.6645   0.7058   0.7168   0.7346   0.7627
  0.7833   0.8105   0.8296   0.8559   0.8624   0.8856   0.8929   0.9241
  0.9609   0.9832   0.9986   1.0323   1.0443   1.0704   1.1073   1.1147
  1.1526   1.1664   1.1736   1.1885   1.2200   1.2351   1.2537   1.2632
  1.2812   1.3073   1.3386   1.3575   1.3940   1.4062   1.4271   1.4311
  1.4782   1.4864   1.5103   1.5284   1.5381   1.5558   1.5649   1.5740
  1.5991   1.6428   1.6442   1.6659   1.7090   1.7281   1.7582   1.8076
  1.8330   1.9013   1.9117   1.9285   1.9686   1.9928   2.0634   2.0936
  2.1436   2.1738   2.2013   2.2188   2.2563   2.2781   2.3432   2.4034
  2.4321   2.4556   2.4717   2.5178   2.5456   2.5985   2.6215   2.6558
  2.7025   2.7117   2.7218   2.7402   2.7532   2.7710   2.8141   2.8378
  2.8874   2.8985   2.9333   2.9864   2.9918   3.0077   3.0240   3.0389
  3.0559   3.0835   3.1294   3.1405   3.1624   3.2076   3.2144   3.2440
  3.2585   3.2705   3.3028   3.3120   3.3343   3.3497   3.3535   3.3732
  3.3928   3.4242   3.4454   3.4498   3.4552   3.4851   3.4911   3.5032
  3.5041   3.5198   3.5428   3.5680   3.5999   3.6113   3.6500   3.6672
  3.6852   3.7010   3.7147   3.7288   3.7703   3.7913   3.8146   3.8287
  3.8450   3.8873   3.9156   3.9224   3.9329   3.9498   3.9592   3.9882
  4.0025   4.0198   4.0703   4.0988   4.1254   4.1500   4.1635   4.1907
  4.2172   4.2339   4.2609   4.2881   4.3041   4.3381   4.3848   4.3948
  4.4419   4.4678   4.4709   4.5016   4.5405   4.5609   4.5945   4.6453
  4.6724   4.6874   4.7129   4.7558   4.8005   4.8150   4.8323   4.8757
  4.9240   5.0081   5.0317   5.0416   5.0712   5.1525   5.1888   5.2094
  5.2164   5.3050   5.3627   5.4344   5.4641   5.4937   5.5426   5.6013
  5.6299   5.6873   5.8012   5.8357   5.8446   5.9346   6.0070   6.0784
  6.1387   6.3249   6.4283   6.4588   6.7200   9.3563  11.2963  12.8076
 13.9161  14.3074
 --------------------------------------------------------------
 
          Ground-State Mulliken Net Atomic Charges

     Atom                 Charge (a.u.)
  ----------------------------------------
      1 C                     0.025157
      2 S                    -0.003948
      3 C                    -0.236772
      4 C                    -0.237049
      5 C                    -0.185160
      6 H                     0.184903
      7 H                     0.185956
      8 C                    -0.356220
      9 H                     0.123557
     10 H                     0.133415
     11 H                     0.160767
     12 H                     0.205392
  ----------------------------------------
  Sum of atomic charges =     0.000000

 -----------------------------------------------------------------
                    Cartesian Multipole Moments
 -----------------------------------------------------------------
    Charge (ESU x 10^10)
                -0.0000
    Dipole Moment (Debye)
         X       0.6548      Y      -0.4395      Z      -0.5508
       Tot       0.9620
    Quadrupole Moments (Debye-Ang)
        XX     -47.6142     XY       0.4736     YY     -36.2642
        XZ      -0.3836     YZ      -0.0365     ZZ     -42.2087
    Octopole Moments (Debye-Ang^2)
       XXX     -14.3124    XXY     -21.0291    XYY       2.9220
       YYY     -41.1840    XXZ      -7.1481    XYZ       2.2547
       YYZ      -2.5860    XZZ      -2.7377    YZZ      -9.3114
       ZZZ     -28.8782
    Hexadecapole Moments (Debye-Ang^3)
      XXXX     -76.0739   XXXY     -33.1986   XXYY    -110.7216
      XYYY     -22.3673   YYYY    -494.7316   XXXZ      -1.2308
      XXYZ      -5.7174   XYYZ      -2.9911   YYYZ      -7.9656
      XXZZ     -69.7062   XYZZ      -5.6937   YYZZ    -125.8501
      XZZZ       0.2147   YZZZ     -13.2302   ZZZZ    -304.9477
 -----------------------------------------------------------------
 Total job time:  12.21s(wall), 567.29s(cpu) 
 Wed Dec 27 10:01:04 2023

        *************************************************************
        *                                                           *
        *  Thank you very much for using Q-Chem.  Have a nice day.  *
        *                                                           *
        *************************************************************


0 sent ACK to 0 
now end server 0 ... 
cleanup process ... done
remove work dirs ./qchem2963819.0 -- ./qchem2963819.0
rm -rf ./qchem2963819.0
rm -rf ./qchem2963819
