You are running Q-Chem version: 5.4.0

#
# job setting
#
local host:  exp-13-43
current dir: /home/rramji/project-csd799/aromodel/pndit-qchem/methylated-rotation-run
input file:  Dimethyl_Naphthalene_Dicarboximide_Phi_5_Theta_180_Thiophene_Hydrogenated_Improper.qcin
output file: 
nprocs     : 1
nthreads   : 64
#
# qchem installation setting
#
QC:          /cm/shared/apps/spack/cpu/opt/spack/linux-centos8-zen2/gcc-10.2.0/qchem-5.4-akfmr7b3t57bfs6qan3padb2wnb2i7cl
QCAUX:       /cm/shared/apps/spack/cpu/opt/spack/linux-centos8-zen2/gcc-10.2.0/qchem-5.4-akfmr7b3t57bfs6qan3padb2wnb2i7cl/qcaux
QCPROG:      /cm/shared/apps/spack/cpu/opt/spack/linux-centos8-zen2/gcc-10.2.0/qchem-5.4-akfmr7b3t57bfs6qan3padb2wnb2i7cl/exe/qcprog.exe
QCPROG_S:    /cm/shared/apps/spack/cpu/opt/spack/linux-centos8-zen2/gcc-10.2.0/qchem-5.4-akfmr7b3t57bfs6qan3padb2wnb2i7cl/exe/qcprog.exe_s
PARALLEL:    -DPARALLEL
QCMPI:       mpich
#
# qchem directory setting
#
qcrun:       qchem652527
QCSCRATCH:   .
QCLOCALSCR:  
QCTMPDIR:    .
QCFILEPREF:  ./qchem652527
QCSAVEDIR:   
workdirs:    ./qchem652527
workdir0:    ./qchem652527
partmpdirs =  
#
# parallel setting
#
QCRSH:           ssh
QCMPI:           mpich
QCMPIRUN:        /cm/shared/apps/spack/cpu/opt/spack/linux-centos8-zen2/gcc-10.2.0/qchem-5.4-akfmr7b3t57bfs6qan3padb2wnb2i7cl/bin/mpi/mpirun_qchem
QCMACHINEFILE:   ./qchem652527/hostfile
exp-13-43

#
# env setting
#
exported envs:   QC QCAUX QCSCRATCH QCRUNNAME QCFILEPREF QCPROG QCPROG_S GUIFILE

Running Job 1 of 1 Dimethyl_Naphthalene_Dicarboximide_Phi_5_Theta_180_Thiophene_Hydrogenated_Improper.qcin
qchem Dimethyl_Naphthalene_Dicarboximide_Phi_5_Theta_180_Thiophene_Hydrogenated_Improper.qcin_652527.0 ./qchem652527/ 1
/cm/shared/apps/spack/cpu/opt/spack/linux-centos8-zen2/gcc-10.2.0/qchem-5.4-akfmr7b3t57bfs6qan3padb2wnb2i7cl/bin/mpi/mpirun_qchem -machinefile ./qchem652527/hostfile -np 1 /cm/shared/apps/spack/cpu/opt/spack/linux-centos8-zen2/gcc-10.2.0/qchem-5.4-akfmr7b3t57bfs6qan3padb2wnb2i7cl/exe/qcprog.exe Dimethyl_Naphthalene_Dicarboximide_Phi_5_Theta_180_Thiophene_Hydrogenated_Improper.qcin_652527.0 ./qchem652527/

Process 0 of 1 is on exp-13-43 - thread support 0
initial socket setup ...start
initial socket setup ...done 
now start server 0 ... 
                  Welcome to Q-Chem
     A Quantum Leap Into The Future Of Chemistry


 Q-Chem 5.4, Q-Chem, Inc., Pleasanton, CA (2021)

 License issued to: University of California, San Diego (site)

 E. Epifanovsky,  A. T. B. Gilbert,  Xintian Feng,  Joonho Lee,  Yuezhi Mao,  
 N. Mardirossian,  P. Pokhilko,  A. White,  M. Wormit,  M. P. Coons,  
 A. L. Dempwolff,  Zhengting Gan,  D. Hait,  P. R. Horn,  L. D. Jacobson,  
 I. Kaliman,  J. Kussmann,  A. W. Lange,  Ka Un Lao,  D. S. Levine,  Jie Liu,  
 S. C. McKenzie,  A. F. Morrison,  K. Nanda,  F. Plasser,  D. R. Rehn,  
 M. L. Vidal,  Zhi-Qiang You,  Ying Zhu,  B. Alam,  B. Albrecht,  
 A. Aldossary,  E. Alguire,  J. H. Andersen,  D. Barton,  K. Begam,  A. Behn,  
 Y. A. Bernard,  E. J. Berquist,  H. Burton,  A. Carreras,  K. Carter-Fenk,  
 R. Chakraborty,  A. D. Chien,  K. D. Closser,  V. Cofer-Shabica,  
 S. Dasgupta,  Jia Deng,  M. de Wergifosse,  M. Diedenhofen,  Hainam Do,  
 S. Ehlert,  Po-Tung Fang,  S. Fatehi,  Qingguo Feng,  J. Gayvert,  
 Qinghui Ge,  G. Gidofalvi,  M. Goldey,  J. Gomes,  C. Gonzalez-Espinoza,  
 S. Gulania,  A. Gunina,  M. W. D. Hanson-Heine,  P. H. P. Harbach,  
 A. W. Hauser,  M. F. Herbst,  M. Hernandez Vera,  M. Hodecker,  
 Z. C. Holden,  S. Houck,  Xunkun Huang,  Kerwin Hui,  B. C. Huynh,  
 M. Ivanov,  Hyunjun Ji,  Hanjie Jiang,  B. Kaduk,  S. Kaehler,  
 K. Khistyaev,  Jaehoon Kim,  P. Klunzinger,  Z. Koczor-Benda,  
 Joong Hoon Koh,  D. Kosenkov,  L. Koulias,  T. Kowalczyk,  C. M. Krauter,  
 K. Kue,  A. Kunitsa,  T. Kus,  A. Landau,  K. V. Lawler,  D. Lefrancois,  
 S. Lehtola,  Rain Li,  Yi-Pei Li,  Jiashu Liang,  M. Liebenthal,  
 Hung-Hsuan Lin,  You-Sheng Lin,  Fenglai Liu,  Kuan-Yu Liu,  
 M. Loipersberger,  A. Luenser,  A. Manjanath,  P. Manohar,  E. Mansoor,  
 S. F. Manzer,  Shan-Ping Mao,  A. V. Marenich,  T. Markovich,  S. Mason,  
 S. A. Maurer,  P. F. McLaughlin,  M. F. S. J. Menger,  J.-M. Mewes,  
 S. A. Mewes,  P. Morgante,  J. W. Mullinax,  T. S. Nguyen-Beck,  
 K. J. Oosterbaan,  G. Paran,  Alexander C. Paul,  Suranjan K. Paul,  
 F. Pavosevic,  Zheng Pei,  S. Prager,  E. I. Proynov,  E. Ramos,  B. Rana,  
 A. E. Rask,  A. Rettig,  R. M. Richard,  F. Rob,  E. Rossomme,  T. Scheele,  
 M. Scheurer,  M. Schneider,  N. Sergueev,  S. M. Sharada,  W. Skomorowski,  
 D. W. Small,  C. J. Stein,  Yu-Chuan Su,  E. J. Sundstrom,  Zhen Tao,  
 J. Thirman,  T. Tsuchimochi,  N. M. Tubman,  S. P. Veccham,  O. Vydrov,  
 J. Wenzel,  J. Witte,  A. Yamada,  Kun Yao,  S. Yeganeh,  S. R. Yost,  
 A. Zech,  Igor Ying Zhang,  Xing Zhang,  Yu Zhang,  D. Zuev,  
 A. Aspuru-Guzik,  A. T. Bell,  N. A. Besley,  K. B. Bravaya,  B. R. Brooks,  
 D. Casanova,  Jeng-Da Chai,  S. Coriani,  C. J. Cramer,  
 A. E. DePrince, III,  R. A. DiStasio Jr.,  A. Dreuw,  B. D. Dunietz,  
 T. R. Furlani,  W. A. Goddard III,  S. Grimme,  S. Hammes-Schiffer,  
 T. Head-Gordon,  W. J. Hehre,  Chao-Ping Hsu,  T.-C. Jagau,  Yousung Jung,  
 A. Klamt,  Jing Kong,  D. S. Lambrecht,  WanZhen Liang,  N. J. Mayhall,  
 C. W. McCurdy,  J. B. Neaton,  C. Ochsenfeld,  J. A. Parkhill,  R. Peverati,  
 V. A. Rassolov,  Yihan Shao,  L. V. Slipchenko,  T. Stauch,  R. P. Steele,  
 J. E. Subotnik,  A. J. W. Thom,  A. Tkatchenko,  D. G. Truhlar,  
 T. Van Voorhis,  T. A. Wesolowski,  K. B. Whaley,  H. L. Woodcock III,  
 P. M. Zimmerman,  S. Faraji,  P. M. W. Gill,  M. Head-Gordon,  
 J. M. Herbert,  A. I. Krylov

 Contributors to earlier versions of Q-Chem not listed above: 
 R. D. Adamson,  B. Austin,  R. Baer,  J. Baker,  G. J. O. Beran,  
 K. Brandhorst,  S. T. Brown,  E. F. C. Byrd,  A. K. Chakraborty,  
 G. K. L. Chan,  Chun-Min Chang,  Yunqing Chen,  C.-L. Cheng,  
 Siu Hung Chien,  D. M. Chipman,  D. L. Crittenden,  H. Dachsel,  
 R. J. Doerksen,  A. D. Dutoi,  R. G. Edgar,  J. Fosso-Tande,  
 L. Fusti-Molnar,  D. Ghosh,  A. Ghysels,  A. Golubeva-Zadorozhnaya,  
 J. Gonthier,  M. S. Gordon,  S. R. Gwaltney,  G. Hawkins,  J. E. Herr,  
 A. Heyden,  S. Hirata,  E. G. Hohenstein,  G. Kedziora,  F. J. Keil,  
 C. Kelley,  Jihan Kim,  R. A. King,  R. Z. Khaliullin,  P. P. Korambath,  
 W. Kurlancheek,  A. Laurent,  A. M. Lee,  M. S. Lee,  S. V. Levchenko,  
 Ching Yeh Lin,  D. Liotard,  E. Livshits,  R. C. Lochan,  I. Lotan,  
 L. A. Martinez-Martinez,  P. E. Maslen,  N. Nair,  D. P. O'Neill,  
 D. Neuhauser,  E. Neuscamman,  C. M. Oana,  R. Olivares-Amaya,  R. Olson,  
 T. M. Perrine,  B. Peters,  P. A. Pieniazek,  A. Prociuk,  Y. M. Rhee,  
 J. Ritchie,  M. A. Rohrdanz,  E. Rosta,  N. J. Russ,  H. F. Schaefer III,  
 M. W. Schmidt,  N. E. Schultz,  S. Sharma,  N. Shenvi,  C. D. Sherrill,  
 A. C. Simmonett,  A. Sodt,  T. Stein,  D. Stuck,  K. S. Thanthiriwatte,  
 V. Vanovschi,  L. Vogt,  Tao Wang,  A. Warshel,  M. A. Watson,  
 C. F. Williams,  Q. Wu,  X. Xu,  Jun Yang,  W. Zhang,  Yan Zhao

 Please cite Q-Chem as follows:
 Y. Shao et al., Mol. Phys. 113, 184-215 (2015)
 DOI: 10.1080/00268976.2014.952696

 Q-Chem 5.4.0 for Intel X86 EM64T Linux

 Parts of Q-Chem use Armadillo 9.800.1 (Horizon Scraper).
 http://arma.sourceforge.net/

 Q-Chem begins on Wed Dec 27 10:03:40 2023  

 Host: 
0

     Scratch files written to ./qchem652527//
 May1621 |scratch|qcdevops|jenkins|workspace|build_RNUM    
 Parallel job on  1  processors
 Processing $rem in /cm/shared/apps/spack/cpu/opt/spack/linux-centos8-zen2/gcc-10.2.0/qchem-5.4-akfmr7b3t57bfs6qan3padb2wnb2i7cl/config/preferences:
 Processing $rem in /home/rramji/.qchemrc:
 Symmetry turned off for PCM/SM12/SMD calculation
 Core orbitals will be frozen

 Checking the input file for inconsistencies... 	...done.

 Q-Chem warning in module forms1/BasisType.C, line 2236:

 You are not using the predefined 5D/6D in this basis set.


--------------------------------------------------------------
User input:
--------------------------------------------------------------
$molecule
0 1
C	-0.039559	-0.397395	-0.213580
S	0.029341	0.392805	1.366920
C	0.172041	2.024305	0.691320
C	0.047241	0.596805	-1.198980
C	0.162241	1.912005	-0.707080
H	0.026741	0.362105	-2.273480
H	0.238941	2.789605	-1.366180
C	-0.039559	-1.875595	-0.213580
H	-1.119559	-1.876195	-0.214080
H	-0.039559	-2.314895	-1.200180
H	-0.039459	-2.586595	0.599420
H	0.248741	2.901605	1.342420
$end

$rem
JOBTYPE		SP
EXCHANGE	HF
CORRELATION	pRIMP2
BASIS		cc-pvtz
METHOD		rimp2
AUX_BASIS	rimp2-cc-pvtz
SOLVENT_METHOD	PCM
PURECART	11111
SYMMETRY	false
MEM_TOTAL	110000
SCF_CONVERGENCE = 6
THRESH=10
GUI = 2
$end



$solvent
dielectric 4.90
$end
--------------------------------------------------------------
 ----------------------------------------------------------------
             Standard Nuclear Orientation (Angstroms)
    I     Atom           X                Y                Z
 ----------------------------------------------------------------
    1      C      -0.0395590000    -0.3973950000    -0.2135800000
    2      S       0.0293410000     0.3928050000     1.3669200000
    3      C       0.1720410000     2.0243050000     0.6913200000
    4      C       0.0472410000     0.5968050000    -1.1989800000
    5      C       0.1622410000     1.9120050000    -0.7070800000
    6      H       0.0267410000     0.3621050000    -2.2734800000
    7      H       0.2389410000     2.7896050000    -1.3661800000
    8      C      -0.0395590000    -1.8755950000    -0.2135800000
    9      H      -1.1195590000    -1.8761950000    -0.2140800000
   10      H      -0.0395590000    -2.3148950000    -1.2001800000
   11      H      -0.0394590000    -2.5865950000     0.5994200000
   12      H       0.2487410000     2.9016050000     1.3424200000
 ----------------------------------------------------------------
 Nuclear Repulsion Energy =         270.12373916 hartrees
 There are       26 alpha and       26 beta electrons
 Requested basis set is cc-pVTZ
 There are 98 shells and 268 basis functions

 Total QAlloc Memory Limit 110000 MB
 Mega-Array Size       188 MB
 MEM_STATIC part       192 MB
 Discretize the solute cavity surface with Lebedev spheres
	Using 110 Lebedev grid points for each H atom
	Using 194 Lebedev grid points for other atoms
	Atomic van der Waals radii will be scaled by 1.20
 Remove points where switching function is < 1.0e-08
 Keep 890 surface tesserae and discard 934 interior tesserae
 Molecular Surface Area = 138.294 Angst**2

                       Distance Matrix (Angstroms)
             C (  1)   S (  2)   C (  3)   C (  4)   C (  5)   H (  6)
   S (  2)  1.768373
   C (  3)  2.593887  1.771607
   C (  4)  1.402491  2.574059  2.372038
   C (  5)  2.370146  2.574317  1.402936  1.408880
   H (  6)  2.196457  3.640530  3.402067  1.100025  2.207750
   H (  7)  3.400444  3.641211  2.196239  2.207505  1.100217  2.600188
   C (  8)  1.478200  2.765568  4.009094  2.662951  3.824942  3.042184
   H (  9)  1.831188  2.994644  4.207360  2.906403  4.029456  3.250403
   H ( 10)  2.156429  3.731808  4.738270  2.912994  4.260347  2.884909
   H ( 11)  2.335287  3.077436  4.616663  3.657293  4.688819  4.117374
   H ( 12)  3.658914  2.518494  1.095203  3.436775  2.277551  4.424147
             H (  7)   C (  8)   H (  9)   H ( 10)   H ( 11)
   C (  8)  4.813537
   H (  9)  4.994251  1.080000
   H ( 10)  5.114786  1.079983  1.526843
   H ( 11)  5.731022  1.080042  1.527438  1.819995
   H ( 12)  2.710932  5.032484  5.207908  5.810319  5.545759
 
 Requested basis set is rimp2-cc-pVTZ
 There are 207 shells and 707 basis functions
 A cutoff of  1.0D-10 yielded   4356 shell pairs
 There are     32672 function pairs (     42232 Cartesian)
 Smallest overlap matrix eigenvalue = 1.06E-04

 Scale SEOQF with 1.000000e+00/1.000000e-01/1.000000e-01

 Standard Electronic Orientation quadrupole field applied
 Nucleus-field energy     =     0.0000000022 hartrees
 Guess from superposition of atomic densities
 Warning:  Energy on first SCF cycle will be non-variational
 SAD guess density has 52.000000 electrons

 -----------------------------------------------------------------------
  General SCF calculation program by
  Eric Jon Sundstrom, Paul Horn, Yuezhi Mao, Dmitri Zuev, Alec White,
  David Stuck, Shaama M.S., Shane Yost, Joonho Lee, David Small,
  Daniel Levine, Susi Lehtola, Hugh Burton, Evgeny Epifanovsky,
  Bang C. Huynh
 -----------------------------------------------------------------------
 Hartree-Fock
 using 64 threads for integral computing
 -------------------------------------------------------
 OpenMP Integral computing Module                
 Release: version 1.0, May 2013, Q-Chem Inc. Pittsburgh 
 -------------------------------------------------------
 A restricted SCF calculation will be
 performed using DIIS
 SCF converges when DIIS error is below 1.0e-06
 ---------------------------------------
  Cycle       Energy         DIIS error
 ---------------------------------------
    1    -592.5680572773      3.22e-02  
    2    -590.3019287064      2.20e-03  
    3    -590.3628273271      8.53e-04  
    4    -590.3702464185      4.07e-04  
    5    -590.3723450253      6.98e-05  
    6    -590.3724695690      3.19e-05  
    7    -590.3724990403      1.40e-05  
    8    -590.3725082175      5.58e-06  
    9    -590.3725096018      1.82e-06  
   10    -590.3725097235      6.39e-07  Convergence criterion met
 ---------------------------------------
 SCF time:   CPU 486.61s  wall 8.00s 

************** Final PCM Free Energy Summary **************
 G_electrostatic  =      -0.00623939 hartree =      -3.91527542 kcal/mol
 G_cavitation     =       0.00000000 hartree =       0.00000000 kcal/mol
 G_dispersion     =       0.00000000 hartree =       0.00000000 kcal/mol
 G_repulsion      =       0.00000000 hartree =       0.00000000 kcal/mol
 --------------------------------------------------
 Non-electrostatic Free Energy =       0.00000000 hartree =       0.00000000 kcal/mol
 Total                         =      -0.00623939 hartree =      -3.91527542 kcal/mol
 --------------------------------------------------
 SCF Energy (H0 + V/2)                       =    -590.37250972 
 Solute Internal Energy (H0)                 =    -590.36627033 
 Total Free Energy (H0 + V/2 + non-elec)     =    -590.37250972 hartree
                                             = -370464.34126955 kcal/mol
***********************************************************

 SCF   energy in the final basis set =     -590.3725097235
 Total energy in the final basis set =     -590.3725097235


 --------------------------------------------------------------
  Generalized many-body perturbation theory program
  by Joonho Lee, Fazle Rob, Xintian Feng, Evgeny Epifanovsky

 No regularization used 
 (reg. param. = 0.0000e+00)
  (P|Q)^-1/2 Time:  CPU 6.15 s  wall 0.10 s

 In RI-MP2 calculation: 
 # of frozen core orbitals: 10

 Components of the RIMP2 correlation energy:
        aaaa    correlation energy =        -0.1250522736 a.u.
        abab    correlation energy =        -0.7501904102 a.u.
        bbbb    correlation energy =        -0.1250522736 a.u.
        non-Brillouin singles      =        -0.0000000000 a.u.
        total same-spin energy     =        -0.2501045473 a.u.
        total opposite-spin energy =        -0.7501904102 a.u.

 Total  RIMP2   correlation energy =        -1.0002949575 a.u.
        RIMP2         total energy =      -591.3728046810 a.u.

 RI-MP2 Energy Time:  CPU 25.58 s  wall 0.47 s
 
 --------------------------------------------------------------
 
                    Orbital Energies (a.u.)
 --------------------------------------------------------------
 
 Alpha MOs
 -- Occupied --
-91.9772 -11.2925 -11.2618 -11.2429 -11.2321 -11.2284  -8.9771  -6.6580
 -6.6575  -6.6569  -1.1567  -1.0407  -0.9709  -0.9202  -0.7543  -0.7217
 -0.6705  -0.5989  -0.5651  -0.5553  -0.5491  -0.4933  -0.4751  -0.4544
 -0.3462  -0.2976
 -- Virtual --
  0.1136   0.1452   0.1597   0.1818   0.1883   0.1977   0.2199   0.2214
  0.2284   0.2369   0.3163   0.3334   0.3522   0.3622   0.3920   0.4136
  0.4258   0.4431   0.4549   0.4943   0.5063   0.5088   0.5220   0.5364
  0.5556   0.5581   0.5750   0.5792   0.5974   0.6137   0.6179   0.6306
  0.6319   0.6364   0.6435   0.6597   0.6947   0.7148   0.7458   0.7810
  0.7883   0.8100   0.8474   0.8607   0.8696   0.8784   0.8964   0.9401
  0.9554   0.9794   1.0025   1.0388   1.0623   1.0782   1.0963   1.1058
  1.1268   1.1368   1.1715   1.1734   1.2204   1.2393   1.2432   1.2646
  1.2754   1.3285   1.3444   1.3605   1.3933   1.4087   1.4174   1.4456
  1.4669   1.4920   1.5078   1.5275   1.5402   1.5513   1.5700   1.5878
  1.6084   1.6386   1.6508   1.6871   1.7371   1.7553   1.7779   1.7950
  1.8390   1.8783   1.9184   1.9293   1.9362   2.0246   2.0667   2.0703
  2.1563   2.1707   2.2224   2.2483   2.2527   2.2794   2.3265   2.4158
  2.4275   2.4454   2.4643   2.5384   2.5427   2.5818   2.6486   2.6597
  2.7048   2.7143   2.7344   2.7405   2.7681   2.7795   2.7914   2.8232
  2.8635   2.9018   2.9199   2.9561   2.9893   3.0070   3.0204   3.0440
  3.0603   3.0974   3.1278   3.1328   3.1761   3.2070   3.2373   3.2549
  3.2627   3.2683   3.2808   3.3090   3.3245   3.3412   3.3650   3.3892
  3.3939   3.4214   3.4304   3.4420   3.4622   3.4754   3.4937   3.4965
  3.5098   3.5202   3.5310   3.5605   3.6033   3.6048   3.6296   3.6522
  3.6679   3.6966   3.7139   3.7341   3.7435   3.7878   3.8268   3.8431
  3.8653   3.8991   3.9138   3.9204   3.9396   3.9447   3.9870   3.9939
  4.0059   4.0415   4.0624   4.1058   4.1285   4.1603   4.1657   4.2149
  4.2428   4.2485   4.2778   4.3077   4.3307   4.3597   4.3659   4.3960
  4.4389   4.4497   4.4823   4.5039   4.5303   4.5628   4.5748   4.6517
  4.6751   4.6963   4.7234   4.7727   4.7849   4.8256   4.8269   4.9424
  4.9510   5.0037   5.0199   5.0484   5.0888   5.1442   5.1613   5.1954
  5.2193   5.3001   5.3584   5.4111   5.4259   5.4998   5.5327   5.5822
  5.6190   5.6844   5.7952   5.8212   5.8845   6.0108   6.0323   6.0736
  6.1256   6.3266   6.4412   6.4782   6.7065   9.4316  11.2730  12.8596
 13.9356  14.3524
 --------------------------------------------------------------
 
          Ground-State Mulliken Net Atomic Charges

     Atom                 Charge (a.u.)
  ----------------------------------------
      1 C                     0.029117
      2 S                    -0.006318
      3 C                    -0.251080
      4 C                    -0.242540
      5 C                    -0.186598
      6 H                     0.181656
      7 H                     0.185559
      8 C                    -0.367155
      9 H                     0.141742
     10 H                     0.136672
     11 H                     0.175137
     12 H                     0.203809
  ----------------------------------------
  Sum of atomic charges =     0.000000

 -----------------------------------------------------------------
                    Cartesian Multipole Moments
 -----------------------------------------------------------------
    Charge (ESU x 10^10)
                -0.0000
    Dipole Moment (Debye)
         X      -0.6642      Y      -0.9014      Z      -1.0832
       Tot       1.5579
    Quadrupole Moments (Debye-Ang)
        XX     -48.2028     XY       2.2706     YY     -35.8894
        XZ       0.2159     YZ       0.5623     ZZ     -41.7967
    Octopole Moments (Debye-Ang^2)
       XXX      -6.5146    XXY     -21.1124    XYY      -2.3432
       YYY     -44.0544    XXZ      -7.0722    XYZ       0.0564
       YYZ      -2.9642    XZZ      -1.1812    YZZ     -11.8997
       ZZZ     -28.3381
    Hexadecapole Moments (Debye-Ang^3)
      XXXX     -67.7939   XXXY     -21.1145   XXYY    -117.3467
      XYYY      -5.2248   YYYY    -497.0071   XXXZ      -1.3057
      XXYZ      -6.9634   XYYZ       0.6604   YYYZ     -15.7639
      XXZZ     -70.6902   XYZZ      -3.6827   YYZZ    -122.3939
      XZZZ      -0.7295   YZZZ     -14.5479   ZZZZ    -307.8149
 -----------------------------------------------------------------
 Total job time:  10.10s(wall), 551.29s(cpu) 
 Wed Dec 27 10:03:50 2023

        *************************************************************
        *                                                           *
        *  Thank you very much for using Q-Chem.  Have a nice day.  *
        *                                                           *
        *************************************************************


0 sent ACK to 0 
now end server 0 ... 
cleanup process ... done
remove work dirs ./qchem652527.0 -- ./qchem652527.0
rm -rf ./qchem652527.0
rm -rf ./qchem652527
