You are running Q-Chem version: 5.4.0

#
# job setting
#
local host:  exp-4-42
current dir: /home/rramji/project-csd799/aromodel/pndit-qchem/methylated-rotation-run
input file:  Dimethyl_Naphthalene_Dicarboximide_Phi_15_Theta_30_Thiophene_Hydrogenated_Improper.qcin
output file: 
nprocs     : 1
nthreads   : 64
#
# qchem installation setting
#
QC:          /cm/shared/apps/spack/cpu/opt/spack/linux-centos8-zen2/gcc-10.2.0/qchem-5.4-akfmr7b3t57bfs6qan3padb2wnb2i7cl
QCAUX:       /cm/shared/apps/spack/cpu/opt/spack/linux-centos8-zen2/gcc-10.2.0/qchem-5.4-akfmr7b3t57bfs6qan3padb2wnb2i7cl/qcaux
QCPROG:      /cm/shared/apps/spack/cpu/opt/spack/linux-centos8-zen2/gcc-10.2.0/qchem-5.4-akfmr7b3t57bfs6qan3padb2wnb2i7cl/exe/qcprog.exe
QCPROG_S:    /cm/shared/apps/spack/cpu/opt/spack/linux-centos8-zen2/gcc-10.2.0/qchem-5.4-akfmr7b3t57bfs6qan3padb2wnb2i7cl/exe/qcprog.exe_s
PARALLEL:    -DPARALLEL
QCMPI:       mpich
#
# qchem directory setting
#
qcrun:       qchem2787655
QCSCRATCH:   .
QCLOCALSCR:  
QCTMPDIR:    .
QCFILEPREF:  ./qchem2787655
QCSAVEDIR:   
workdirs:    ./qchem2787655
workdir0:    ./qchem2787655
partmpdirs =  
#
# parallel setting
#
QCRSH:           ssh
QCMPI:           mpich
QCMPIRUN:        /cm/shared/apps/spack/cpu/opt/spack/linux-centos8-zen2/gcc-10.2.0/qchem-5.4-akfmr7b3t57bfs6qan3padb2wnb2i7cl/bin/mpi/mpirun_qchem
QCMACHINEFILE:   ./qchem2787655/hostfile
exp-4-42

#
# env setting
#
exported envs:   QC QCAUX QCSCRATCH QCRUNNAME QCFILEPREF QCPROG QCPROG_S GUIFILE

Running Job 1 of 1 Dimethyl_Naphthalene_Dicarboximide_Phi_15_Theta_30_Thiophene_Hydrogenated_Improper.qcin
qchem Dimethyl_Naphthalene_Dicarboximide_Phi_15_Theta_30_Thiophene_Hydrogenated_Improper.qcin_2787655.0 ./qchem2787655/ 1
/cm/shared/apps/spack/cpu/opt/spack/linux-centos8-zen2/gcc-10.2.0/qchem-5.4-akfmr7b3t57bfs6qan3padb2wnb2i7cl/bin/mpi/mpirun_qchem -machinefile ./qchem2787655/hostfile -np 1 /cm/shared/apps/spack/cpu/opt/spack/linux-centos8-zen2/gcc-10.2.0/qchem-5.4-akfmr7b3t57bfs6qan3padb2wnb2i7cl/exe/qcprog.exe Dimethyl_Naphthalene_Dicarboximide_Phi_15_Theta_30_Thiophene_Hydrogenated_Improper.qcin_2787655.0 ./qchem2787655/

Process 0 of 1 is on exp-4-42 - thread support 0
initial socket setup ...start
initial socket setup ...done 
now start server 0 ... 
                  Welcome to Q-Chem
     A Quantum Leap Into The Future Of Chemistry


 Q-Chem 5.4, Q-Chem, Inc., Pleasanton, CA (2021)

 License issued to: University of California, San Diego (site)

 E. Epifanovsky,  A. T. B. Gilbert,  Xintian Feng,  Joonho Lee,  Yuezhi Mao,  
 N. Mardirossian,  P. Pokhilko,  A. White,  M. Wormit,  M. P. Coons,  
 A. L. Dempwolff,  Zhengting Gan,  D. Hait,  P. R. Horn,  L. D. Jacobson,  
 I. Kaliman,  J. Kussmann,  A. W. Lange,  Ka Un Lao,  D. S. Levine,  Jie Liu,  
 S. C. McKenzie,  A. F. Morrison,  K. Nanda,  F. Plasser,  D. R. Rehn,  
 M. L. Vidal,  Zhi-Qiang You,  Ying Zhu,  B. Alam,  B. Albrecht,  
 A. Aldossary,  E. Alguire,  J. H. Andersen,  D. Barton,  K. Begam,  A. Behn,  
 Y. A. Bernard,  E. J. Berquist,  H. Burton,  A. Carreras,  K. Carter-Fenk,  
 R. Chakraborty,  A. D. Chien,  K. D. Closser,  V. Cofer-Shabica,  
 S. Dasgupta,  Jia Deng,  M. de Wergifosse,  M. Diedenhofen,  Hainam Do,  
 S. Ehlert,  Po-Tung Fang,  S. Fatehi,  Qingguo Feng,  J. Gayvert,  
 Qinghui Ge,  G. Gidofalvi,  M. Goldey,  J. Gomes,  C. Gonzalez-Espinoza,  
 S. Gulania,  A. Gunina,  M. W. D. Hanson-Heine,  P. H. P. Harbach,  
 A. W. Hauser,  M. F. Herbst,  M. Hernandez Vera,  M. Hodecker,  
 Z. C. Holden,  S. Houck,  Xunkun Huang,  Kerwin Hui,  B. C. Huynh,  
 M. Ivanov,  Hyunjun Ji,  Hanjie Jiang,  B. Kaduk,  S. Kaehler,  
 K. Khistyaev,  Jaehoon Kim,  P. Klunzinger,  Z. Koczor-Benda,  
 Joong Hoon Koh,  D. Kosenkov,  L. Koulias,  T. Kowalczyk,  C. M. Krauter,  
 K. Kue,  A. Kunitsa,  T. Kus,  A. Landau,  K. V. Lawler,  D. Lefrancois,  
 S. Lehtola,  Rain Li,  Yi-Pei Li,  Jiashu Liang,  M. Liebenthal,  
 Hung-Hsuan Lin,  You-Sheng Lin,  Fenglai Liu,  Kuan-Yu Liu,  
 M. Loipersberger,  A. Luenser,  A. Manjanath,  P. Manohar,  E. Mansoor,  
 S. F. Manzer,  Shan-Ping Mao,  A. V. Marenich,  T. Markovich,  S. Mason,  
 S. A. Maurer,  P. F. McLaughlin,  M. F. S. J. Menger,  J.-M. Mewes,  
 S. A. Mewes,  P. Morgante,  J. W. Mullinax,  T. S. Nguyen-Beck,  
 K. J. Oosterbaan,  G. Paran,  Alexander C. Paul,  Suranjan K. Paul,  
 F. Pavosevic,  Zheng Pei,  S. Prager,  E. I. Proynov,  E. Ramos,  B. Rana,  
 A. E. Rask,  A. Rettig,  R. M. Richard,  F. Rob,  E. Rossomme,  T. Scheele,  
 M. Scheurer,  M. Schneider,  N. Sergueev,  S. M. Sharada,  W. Skomorowski,  
 D. W. Small,  C. J. Stein,  Yu-Chuan Su,  E. J. Sundstrom,  Zhen Tao,  
 J. Thirman,  T. Tsuchimochi,  N. M. Tubman,  S. P. Veccham,  O. Vydrov,  
 J. Wenzel,  J. Witte,  A. Yamada,  Kun Yao,  S. Yeganeh,  S. R. Yost,  
 A. Zech,  Igor Ying Zhang,  Xing Zhang,  Yu Zhang,  D. Zuev,  
 A. Aspuru-Guzik,  A. T. Bell,  N. A. Besley,  K. B. Bravaya,  B. R. Brooks,  
 D. Casanova,  Jeng-Da Chai,  S. Coriani,  C. J. Cramer,  
 A. E. DePrince, III,  R. A. DiStasio Jr.,  A. Dreuw,  B. D. Dunietz,  
 T. R. Furlani,  W. A. Goddard III,  S. Grimme,  S. Hammes-Schiffer,  
 T. Head-Gordon,  W. J. Hehre,  Chao-Ping Hsu,  T.-C. Jagau,  Yousung Jung,  
 A. Klamt,  Jing Kong,  D. S. Lambrecht,  WanZhen Liang,  N. J. Mayhall,  
 C. W. McCurdy,  J. B. Neaton,  C. Ochsenfeld,  J. A. Parkhill,  R. Peverati,  
 V. A. Rassolov,  Yihan Shao,  L. V. Slipchenko,  T. Stauch,  R. P. Steele,  
 J. E. Subotnik,  A. J. W. Thom,  A. Tkatchenko,  D. G. Truhlar,  
 T. Van Voorhis,  T. A. Wesolowski,  K. B. Whaley,  H. L. Woodcock III,  
 P. M. Zimmerman,  S. Faraji,  P. M. W. Gill,  M. Head-Gordon,  
 J. M. Herbert,  A. I. Krylov

 Contributors to earlier versions of Q-Chem not listed above: 
 R. D. Adamson,  B. Austin,  R. Baer,  J. Baker,  G. J. O. Beran,  
 K. Brandhorst,  S. T. Brown,  E. F. C. Byrd,  A. K. Chakraborty,  
 G. K. L. Chan,  Chun-Min Chang,  Yunqing Chen,  C.-L. Cheng,  
 Siu Hung Chien,  D. M. Chipman,  D. L. Crittenden,  H. Dachsel,  
 R. J. Doerksen,  A. D. Dutoi,  R. G. Edgar,  J. Fosso-Tande,  
 L. Fusti-Molnar,  D. Ghosh,  A. Ghysels,  A. Golubeva-Zadorozhnaya,  
 J. Gonthier,  M. S. Gordon,  S. R. Gwaltney,  G. Hawkins,  J. E. Herr,  
 A. Heyden,  S. Hirata,  E. G. Hohenstein,  G. Kedziora,  F. J. Keil,  
 C. Kelley,  Jihan Kim,  R. A. King,  R. Z. Khaliullin,  P. P. Korambath,  
 W. Kurlancheek,  A. Laurent,  A. M. Lee,  M. S. Lee,  S. V. Levchenko,  
 Ching Yeh Lin,  D. Liotard,  E. Livshits,  R. C. Lochan,  I. Lotan,  
 L. A. Martinez-Martinez,  P. E. Maslen,  N. Nair,  D. P. O'Neill,  
 D. Neuhauser,  E. Neuscamman,  C. M. Oana,  R. Olivares-Amaya,  R. Olson,  
 T. M. Perrine,  B. Peters,  P. A. Pieniazek,  A. Prociuk,  Y. M. Rhee,  
 J. Ritchie,  M. A. Rohrdanz,  E. Rosta,  N. J. Russ,  H. F. Schaefer III,  
 M. W. Schmidt,  N. E. Schultz,  S. Sharma,  N. Shenvi,  C. D. Sherrill,  
 A. C. Simmonett,  A. Sodt,  T. Stein,  D. Stuck,  K. S. Thanthiriwatte,  
 V. Vanovschi,  L. Vogt,  Tao Wang,  A. Warshel,  M. A. Watson,  
 C. F. Williams,  Q. Wu,  X. Xu,  Jun Yang,  W. Zhang,  Yan Zhao

 Please cite Q-Chem as follows:
 Y. Shao et al., Mol. Phys. 113, 184-215 (2015)
 DOI: 10.1080/00268976.2014.952696

 Q-Chem 5.4.0 for Intel X86 EM64T Linux

 Parts of Q-Chem use Armadillo 9.800.1 (Horizon Scraper).
 http://arma.sourceforge.net/

 Q-Chem begins on Wed Dec 27 10:00:54 2023  

 Host: 
0

     Scratch files written to ./qchem2787655//
 May1621 |scratch|qcdevops|jenkins|workspace|build_RNUM    
 Parallel job on  1  processors
 Processing $rem in /cm/shared/apps/spack/cpu/opt/spack/linux-centos8-zen2/gcc-10.2.0/qchem-5.4-akfmr7b3t57bfs6qan3padb2wnb2i7cl/config/preferences:
 Processing $rem in /home/rramji/.qchemrc:
 Symmetry turned off for PCM/SM12/SMD calculation
 Core orbitals will be frozen

 Checking the input file for inconsistencies... 	...done.

 Q-Chem warning in module forms1/BasisType.C, line 2236:

 You are not using the predefined 5D/6D in this basis set.


--------------------------------------------------------------
User input:
--------------------------------------------------------------
$molecule
0 1
C	-0.138463	-0.381707	-0.218020
S	0.066637	0.384493	1.362480
C	0.490437	1.966393	0.686880
C	0.119637	0.582293	-1.203420
C	0.461237	1.857593	-0.711520
H	0.058737	0.354693	-2.277920
H	0.689237	2.708493	-1.370620
C	-0.138463	-1.859907	-0.218020
H	0.796537	-1.860507	0.322480
H	-0.631763	-2.299207	0.636380
H	0.267937	-2.570907	-0.922120
H	0.718337	2.817093	1.337980
$end

$rem
JOBTYPE		SP
EXCHANGE	HF
CORRELATION	pRIMP2
BASIS		cc-pvtz
METHOD		rimp2
AUX_BASIS	rimp2-cc-pvtz
SOLVENT_METHOD	PCM
PURECART	11111
SYMMETRY	false
MEM_TOTAL	110000
SCF_CONVERGENCE = 6
THRESH=10
GUI = 2
$end



$solvent
dielectric 4.90
$end
--------------------------------------------------------------
 ----------------------------------------------------------------
             Standard Nuclear Orientation (Angstroms)
    I     Atom           X                Y                Z
 ----------------------------------------------------------------
    1      C      -0.1384630000    -0.3817070000    -0.2180200000
    2      S       0.0666370000     0.3844930000     1.3624800000
    3      C       0.4904370000     1.9663930000     0.6868800000
    4      C       0.1196370000     0.5822930000    -1.2034200000
    5      C       0.4612370000     1.8575930000    -0.7115200000
    6      H       0.0587370000     0.3546930000    -2.2779200000
    7      H       0.6892370000     2.7084930000    -1.3706200000
    8      C      -0.1384630000    -1.8599070000    -0.2180200000
    9      H       0.7965370000    -1.8605070000     0.3224800000
   10      H      -0.6317630000    -2.2992070000     0.6363800000
   11      H       0.2679370000    -2.5709070000    -0.9221200000
   12      H       0.7183370000     2.8170930000     1.3379800000
 ----------------------------------------------------------------
 Nuclear Repulsion Energy =         271.02439121 hartrees
 There are       26 alpha and       26 beta electrons
 Requested basis set is cc-pVTZ
 There are 98 shells and 268 basis functions

 Total QAlloc Memory Limit 110000 MB
 Mega-Array Size       188 MB
 MEM_STATIC part       192 MB
 Discretize the solute cavity surface with Lebedev spheres
	Using 110 Lebedev grid points for each H atom
	Using 194 Lebedev grid points for other atoms
	Atomic van der Waals radii will be scaled by 1.20
 Remove points where switching function is < 1.0e-08
 Keep 879 surface tesserae and discard 945 interior tesserae
 Molecular Surface Area = 137.934 Angst**2

                       Distance Matrix (Angstroms)
             C (  1)   S (  2)   C (  3)   C (  4)   C (  5)   H (  6)
   S (  2)  1.768363
   C (  3)  2.593826  1.771567
   C (  4)  1.402471  2.574058  2.372016
   C (  5)  2.370158  2.574337  1.402930  1.408917
   H (  6)  2.196443  3.640531  3.402055  1.100028  2.207787
   H (  7)  3.400428  3.641214  2.196256  2.207516  1.100194  2.600211
   C (  8)  1.478200  2.752704  3.981825  2.646124  3.797761  3.030929
   H (  9)  1.831178  2.579608  3.856378  2.958688  3.873738  3.494788
   H ( 10)  2.156421  2.866571  4.411035  3.500358  4.504494  4.001640
   H ( 11)  2.335276  3.740897  4.819282  3.169194  4.437717  3.231268
   H ( 12)  3.658902  2.518503  1.095244  3.436784  2.277541  4.424163
             H (  7)   C (  8)   H (  9)   H ( 10)   H ( 11)
   C (  8)  4.783707
   H (  9)  4.873793  1.079984
   H ( 10)  5.554291  1.079967  1.526772
   H ( 11)  5.315140  1.080018  1.527454  1.819946
   H ( 12)  2.710932  5.002956  4.787201  5.337747  5.860158
 
 Requested basis set is rimp2-cc-pVTZ
 There are 207 shells and 707 basis functions
 A cutoff of  1.0D-10 yielded   4374 shell pairs
 There are     32804 function pairs (     42429 Cartesian)
 Smallest overlap matrix eigenvalue = 1.23E-04

 Scale SEOQF with 1.000000e+00/1.000000e-01/1.000000e-01

 Standard Electronic Orientation quadrupole field applied
 Nucleus-field energy     =     0.0000000032 hartrees
 Guess from superposition of atomic densities
 Warning:  Energy on first SCF cycle will be non-variational
 SAD guess density has 52.000000 electrons

 -----------------------------------------------------------------------
  General SCF calculation program by
  Eric Jon Sundstrom, Paul Horn, Yuezhi Mao, Dmitri Zuev, Alec White,
  David Stuck, Shaama M.S., Shane Yost, Joonho Lee, David Small,
  Daniel Levine, Susi Lehtola, Hugh Burton, Evgeny Epifanovsky,
  Bang C. Huynh
 -----------------------------------------------------------------------
 Hartree-Fock
 using 64 threads for integral computing
 -------------------------------------------------------
 OpenMP Integral computing Module                
 Release: version 1.0, May 2013, Q-Chem Inc. Pittsburgh 
 -------------------------------------------------------
 A restricted SCF calculation will be
 performed using DIIS
 SCF converges when DIIS error is below 1.0e-06
 ---------------------------------------
  Cycle       Energy         DIIS error
 ---------------------------------------
    1    -592.5854415918      3.23e-02  
    2    -590.2991155274      2.21e-03  
    3    -590.3604094434      8.58e-04  
    4    -590.3679027097      4.03e-04  
    5    -590.3699835082      7.07e-05  
    6    -590.3701118095      3.22e-05  
    7    -590.3701434453      1.44e-05  
    8    -590.3701532802      5.81e-06  
    9    -590.3701547578      1.91e-06  
   10    -590.3701548962      6.41e-07  Convergence criterion met
 ---------------------------------------
 SCF time:   CPU 479.63s  wall 8.00s 

************** Final PCM Free Energy Summary **************
 G_electrostatic  =      -0.00573889 hartree =      -3.60120622 kcal/mol
 G_cavitation     =       0.00000000 hartree =       0.00000000 kcal/mol
 G_dispersion     =       0.00000000 hartree =       0.00000000 kcal/mol
 G_repulsion      =       0.00000000 hartree =       0.00000000 kcal/mol
 --------------------------------------------------
 Non-electrostatic Free Energy =       0.00000000 hartree =       0.00000000 kcal/mol
 Total                         =      -0.00573889 hartree =      -3.60120622 kcal/mol
 --------------------------------------------------
 SCF Energy (H0 + V/2)                       =    -590.37015490 
 Solute Internal Energy (H0)                 =    -590.36441601 
 Total Free Energy (H0 + V/2 + non-elec)     =    -590.37015490 hartree
                                             = -370462.86359313 kcal/mol
***********************************************************

 SCF   energy in the final basis set =     -590.3701548962
 Total energy in the final basis set =     -590.3701548962


 --------------------------------------------------------------
  Generalized many-body perturbation theory program
  by Joonho Lee, Fazle Rob, Xintian Feng, Evgeny Epifanovsky

 No regularization used 
 (reg. param. = 0.0000e+00)
  (P|Q)^-1/2 Time:  CPU 5.40 s  wall 0.09 s

 In RI-MP2 calculation: 
 # of frozen core orbitals: 10

 Components of the RIMP2 correlation energy:
        aaaa    correlation energy =        -0.1249805002 a.u.
        abab    correlation energy =        -0.7504535311 a.u.
        bbbb    correlation energy =        -0.1249805002 a.u.
        non-Brillouin singles      =        -0.0000000000 a.u.
        total same-spin energy     =        -0.2499610004 a.u.
        total opposite-spin energy =        -0.7504535311 a.u.

 Total  RIMP2   correlation energy =        -1.0004145315 a.u.
        RIMP2         total energy =      -591.3705694278 a.u.

 RI-MP2 Energy Time:  CPU 23.44 s  wall 0.42 s
 
 --------------------------------------------------------------
 
                    Orbital Energies (a.u.)
 --------------------------------------------------------------
 
 Alpha MOs
 -- Occupied --
-91.9779 -11.2889 -11.2659 -11.2428 -11.2327 -11.2269  -8.9781  -6.6590
 -6.6585  -6.6579  -1.1584  -1.0409  -0.9719  -0.9182  -0.7563  -0.7213
 -0.6717  -0.5967  -0.5669  -0.5619  -0.5343  -0.5009  -0.4728  -0.4556
 -0.3470  -0.3003
 -- Virtual --
  0.1051   0.1479   0.1607   0.1803   0.1893   0.2028   0.2123   0.2187
  0.2301   0.2535   0.3107   0.3362   0.3516   0.3670   0.3872   0.4196
  0.4259   0.4439   0.4572   0.4772   0.4954   0.5060   0.5210   0.5393
  0.5402   0.5575   0.5684   0.5836   0.5860   0.6097   0.6167   0.6212
  0.6284   0.6405   0.6513   0.6626   0.6980   0.7115   0.7380   0.7680
  0.7853   0.8087   0.8362   0.8460   0.8676   0.8845   0.8929   0.9182
  0.9458   0.9925   1.0014   1.0292   1.0651   1.0800   1.1052   1.1124
  1.1534   1.1593   1.1713   1.1767   1.2216   1.2305   1.2489   1.2633
  1.2815   1.3023   1.3411   1.3480   1.3914   1.4176   1.4281   1.4404
  1.4774   1.4850   1.5034   1.5174   1.5376   1.5445   1.5540   1.5778
  1.6029   1.6312   1.6401   1.6786   1.7219   1.7276   1.7524   1.7844
  1.8338   1.9047   1.9135   1.9395   1.9452   2.0036   2.0622   2.1004
  2.1394   2.1714   2.2067   2.2269   2.2598   2.2826   2.3256   2.3919
  2.4357   2.4569   2.4659   2.5200   2.5413   2.5961   2.6301   2.6576
  2.6788   2.7083   2.7315   2.7501   2.7679   2.7697   2.8341   2.8420
  2.8714   2.9064   2.9219   2.9500   2.9785   3.0179   3.0292   3.0595
  3.0655   3.0720   3.1184   3.1503   3.1670   3.2035   3.2073   3.2329
  3.2441   3.2635   3.2970   3.3078   3.3266   3.3513   3.3823   3.3918
  3.4045   3.4247   3.4307   3.4402   3.4637   3.4860   3.4890   3.5025
  3.5069   3.5165   3.5383   3.5569   3.5910   3.6125   3.6329   3.6546
  3.6867   3.7071   3.7181   3.7596   3.7748   3.7832   3.7996   3.8243
  3.8492   3.8884   3.9066   3.9197   3.9402   3.9592   3.9621   3.9913
  3.9996   4.0079   4.0700   4.1031   4.1287   4.1495   4.1688   4.1966
  4.2495   4.2517   4.2665   4.2926   4.3031   4.3515   4.3895   4.4046
  4.4244   4.4742   4.4760   4.5046   4.5386   4.5646   4.5956   4.6429
  4.6647   4.6994   4.7357   4.7560   4.7921   4.8097   4.8261   4.8381
  4.9264   5.0080   5.0277   5.0415   5.0680   5.1348   5.1832   5.1920
  5.2251   5.3027   5.3585   5.4300   5.4696   5.4939   5.5436   5.5985
  5.6238   5.6701   5.7901   5.8252   5.8554   5.9774   6.0030   6.0816
  6.1279   6.3347   6.4188   6.4661   6.7345   9.3530  11.2953  12.7746
 13.8841  14.3366
 --------------------------------------------------------------
 
          Ground-State Mulliken Net Atomic Charges

     Atom                 Charge (a.u.)
  ----------------------------------------
      1 C                     0.027761
      2 S                    -0.004622
      3 C                    -0.243437
      4 C                    -0.253999
      5 C                    -0.178633
      6 H                     0.183201
      7 H                     0.186188
      8 C                    -0.358451
      9 H                     0.136825
     10 H                     0.134661
     11 H                     0.165722
     12 H                     0.204782
  ----------------------------------------
  Sum of atomic charges =     0.000000

 -----------------------------------------------------------------
                    Cartesian Multipole Moments
 -----------------------------------------------------------------
    Charge (ESU x 10^10)
                -0.0000
    Dipole Moment (Debye)
         X       0.9205      Y      -0.6627      Z      -0.7247
       Tot       1.3460
    Quadrupole Moments (Debye-Ang)
        XX     -47.6680     XY       0.9355     YY     -36.5191
        XZ      -0.3295     YZ       0.3539     ZZ     -42.0162
    Octopole Moments (Debye-Ang^2)
       XXX     -20.8957    XXY     -18.7337    XYY       2.8293
       YYY     -42.2535    XXZ      -6.9247    XYZ       2.4475
       YYZ      -3.8705    XZZ      -4.2488    YZZ     -10.2416
       ZZZ     -28.7094
    Hexadecapole Moments (Debye-Ang^3)
      XXXX     -88.0778   XXXY     -48.2438   XXYY    -109.4547
      XYYY     -30.5122   YYYY    -486.9059   XXXZ      -1.4436
      XXYZ      -5.7857   XYYZ      -2.3206   YYYZ      -6.7728
      XXZZ     -70.9964   XYZZ      -8.0040   YYZZ    -121.7303
      XZZZ      -0.6186   YZZZ     -13.4477   ZZZZ    -306.1868
 -----------------------------------------------------------------
 Total job time:  10.47s(wall), 554.05s(cpu) 
 Wed Dec 27 10:01:05 2023

        *************************************************************
        *                                                           *
        *  Thank you very much for using Q-Chem.  Have a nice day.  *
        *                                                           *
        *************************************************************


0 sent ACK to 0 
now end server 0 ... 
cleanup process ... done
remove work dirs ./qchem2787655.0 -- ./qchem2787655.0
rm -rf ./qchem2787655.0
rm -rf ./qchem2787655
