You are running Q-Chem version: 5.4.0

#
# job setting
#
local host:  exp-4-42
current dir: /home/rramji/project-csd799/aromodel/pndit-qchem/methylated-rotation-run
input file:  Dimethyl_Naphthalene_Dicarboximide_Phi_15_Theta_150_Thiophene_Hydrogenated_Improper.qcin
output file: 
nprocs     : 1
nthreads   : 64
#
# qchem installation setting
#
QC:          /cm/shared/apps/spack/cpu/opt/spack/linux-centos8-zen2/gcc-10.2.0/qchem-5.4-akfmr7b3t57bfs6qan3padb2wnb2i7cl
QCAUX:       /cm/shared/apps/spack/cpu/opt/spack/linux-centos8-zen2/gcc-10.2.0/qchem-5.4-akfmr7b3t57bfs6qan3padb2wnb2i7cl/qcaux
QCPROG:      /cm/shared/apps/spack/cpu/opt/spack/linux-centos8-zen2/gcc-10.2.0/qchem-5.4-akfmr7b3t57bfs6qan3padb2wnb2i7cl/exe/qcprog.exe
QCPROG_S:    /cm/shared/apps/spack/cpu/opt/spack/linux-centos8-zen2/gcc-10.2.0/qchem-5.4-akfmr7b3t57bfs6qan3padb2wnb2i7cl/exe/qcprog.exe_s
PARALLEL:    -DPARALLEL
QCMPI:       mpich
#
# qchem directory setting
#
qcrun:       qchem2791696
QCSCRATCH:   .
QCLOCALSCR:  
QCTMPDIR:    .
QCFILEPREF:  ./qchem2791696
QCSAVEDIR:   
workdirs:    ./qchem2791696
workdir0:    ./qchem2791696
partmpdirs =  
#
# parallel setting
#
QCRSH:           ssh
QCMPI:           mpich
QCMPIRUN:        /cm/shared/apps/spack/cpu/opt/spack/linux-centos8-zen2/gcc-10.2.0/qchem-5.4-akfmr7b3t57bfs6qan3padb2wnb2i7cl/bin/mpi/mpirun_qchem
QCMACHINEFILE:   ./qchem2791696/hostfile
exp-4-42

#
# env setting
#
exported envs:   QC QCAUX QCSCRATCH QCRUNNAME QCFILEPREF QCPROG QCPROG_S GUIFILE

Running Job 1 of 1 Dimethyl_Naphthalene_Dicarboximide_Phi_15_Theta_150_Thiophene_Hydrogenated_Improper.qcin
qchem Dimethyl_Naphthalene_Dicarboximide_Phi_15_Theta_150_Thiophene_Hydrogenated_Improper.qcin_2791696.0 ./qchem2791696/ 1
/cm/shared/apps/spack/cpu/opt/spack/linux-centos8-zen2/gcc-10.2.0/qchem-5.4-akfmr7b3t57bfs6qan3padb2wnb2i7cl/bin/mpi/mpirun_qchem -machinefile ./qchem2791696/hostfile -np 1 /cm/shared/apps/spack/cpu/opt/spack/linux-centos8-zen2/gcc-10.2.0/qchem-5.4-akfmr7b3t57bfs6qan3padb2wnb2i7cl/exe/qcprog.exe Dimethyl_Naphthalene_Dicarboximide_Phi_15_Theta_150_Thiophene_Hydrogenated_Improper.qcin_2791696.0 ./qchem2791696/

Process 0 of 1 is on exp-4-42 - thread support 0
initial socket setup ...start
initial socket setup ...done 
now start server 0 ... 
                  Welcome to Q-Chem
     A Quantum Leap Into The Future Of Chemistry


 Q-Chem 5.4, Q-Chem, Inc., Pleasanton, CA (2021)

 License issued to: University of California, San Diego (site)

 E. Epifanovsky,  A. T. B. Gilbert,  Xintian Feng,  Joonho Lee,  Yuezhi Mao,  
 N. Mardirossian,  P. Pokhilko,  A. White,  M. Wormit,  M. P. Coons,  
 A. L. Dempwolff,  Zhengting Gan,  D. Hait,  P. R. Horn,  L. D. Jacobson,  
 I. Kaliman,  J. Kussmann,  A. W. Lange,  Ka Un Lao,  D. S. Levine,  Jie Liu,  
 S. C. McKenzie,  A. F. Morrison,  K. Nanda,  F. Plasser,  D. R. Rehn,  
 M. L. Vidal,  Zhi-Qiang You,  Ying Zhu,  B. Alam,  B. Albrecht,  
 A. Aldossary,  E. Alguire,  J. H. Andersen,  D. Barton,  K. Begam,  A. Behn,  
 Y. A. Bernard,  E. J. Berquist,  H. Burton,  A. Carreras,  K. Carter-Fenk,  
 R. Chakraborty,  A. D. Chien,  K. D. Closser,  V. Cofer-Shabica,  
 S. Dasgupta,  Jia Deng,  M. de Wergifosse,  M. Diedenhofen,  Hainam Do,  
 S. Ehlert,  Po-Tung Fang,  S. Fatehi,  Qingguo Feng,  J. Gayvert,  
 Qinghui Ge,  G. Gidofalvi,  M. Goldey,  J. Gomes,  C. Gonzalez-Espinoza,  
 S. Gulania,  A. Gunina,  M. W. D. Hanson-Heine,  P. H. P. Harbach,  
 A. W. Hauser,  M. F. Herbst,  M. Hernandez Vera,  M. Hodecker,  
 Z. C. Holden,  S. Houck,  Xunkun Huang,  Kerwin Hui,  B. C. Huynh,  
 M. Ivanov,  Hyunjun Ji,  Hanjie Jiang,  B. Kaduk,  S. Kaehler,  
 K. Khistyaev,  Jaehoon Kim,  P. Klunzinger,  Z. Koczor-Benda,  
 Joong Hoon Koh,  D. Kosenkov,  L. Koulias,  T. Kowalczyk,  C. M. Krauter,  
 K. Kue,  A. Kunitsa,  T. Kus,  A. Landau,  K. V. Lawler,  D. Lefrancois,  
 S. Lehtola,  Rain Li,  Yi-Pei Li,  Jiashu Liang,  M. Liebenthal,  
 Hung-Hsuan Lin,  You-Sheng Lin,  Fenglai Liu,  Kuan-Yu Liu,  
 M. Loipersberger,  A. Luenser,  A. Manjanath,  P. Manohar,  E. Mansoor,  
 S. F. Manzer,  Shan-Ping Mao,  A. V. Marenich,  T. Markovich,  S. Mason,  
 S. A. Maurer,  P. F. McLaughlin,  M. F. S. J. Menger,  J.-M. Mewes,  
 S. A. Mewes,  P. Morgante,  J. W. Mullinax,  T. S. Nguyen-Beck,  
 K. J. Oosterbaan,  G. Paran,  Alexander C. Paul,  Suranjan K. Paul,  
 F. Pavosevic,  Zheng Pei,  S. Prager,  E. I. Proynov,  E. Ramos,  B. Rana,  
 A. E. Rask,  A. Rettig,  R. M. Richard,  F. Rob,  E. Rossomme,  T. Scheele,  
 M. Scheurer,  M. Schneider,  N. Sergueev,  S. M. Sharada,  W. Skomorowski,  
 D. W. Small,  C. J. Stein,  Yu-Chuan Su,  E. J. Sundstrom,  Zhen Tao,  
 J. Thirman,  T. Tsuchimochi,  N. M. Tubman,  S. P. Veccham,  O. Vydrov,  
 J. Wenzel,  J. Witte,  A. Yamada,  Kun Yao,  S. Yeganeh,  S. R. Yost,  
 A. Zech,  Igor Ying Zhang,  Xing Zhang,  Yu Zhang,  D. Zuev,  
 A. Aspuru-Guzik,  A. T. Bell,  N. A. Besley,  K. B. Bravaya,  B. R. Brooks,  
 D. Casanova,  Jeng-Da Chai,  S. Coriani,  C. J. Cramer,  
 A. E. DePrince, III,  R. A. DiStasio Jr.,  A. Dreuw,  B. D. Dunietz,  
 T. R. Furlani,  W. A. Goddard III,  S. Grimme,  S. Hammes-Schiffer,  
 T. Head-Gordon,  W. J. Hehre,  Chao-Ping Hsu,  T.-C. Jagau,  Yousung Jung,  
 A. Klamt,  Jing Kong,  D. S. Lambrecht,  WanZhen Liang,  N. J. Mayhall,  
 C. W. McCurdy,  J. B. Neaton,  C. Ochsenfeld,  J. A. Parkhill,  R. Peverati,  
 V. A. Rassolov,  Yihan Shao,  L. V. Slipchenko,  T. Stauch,  R. P. Steele,  
 J. E. Subotnik,  A. J. W. Thom,  A. Tkatchenko,  D. G. Truhlar,  
 T. Van Voorhis,  T. A. Wesolowski,  K. B. Whaley,  H. L. Woodcock III,  
 P. M. Zimmerman,  S. Faraji,  P. M. W. Gill,  M. Head-Gordon,  
 J. M. Herbert,  A. I. Krylov

 Contributors to earlier versions of Q-Chem not listed above: 
 R. D. Adamson,  B. Austin,  R. Baer,  J. Baker,  G. J. O. Beran,  
 K. Brandhorst,  S. T. Brown,  E. F. C. Byrd,  A. K. Chakraborty,  
 G. K. L. Chan,  Chun-Min Chang,  Yunqing Chen,  C.-L. Cheng,  
 Siu Hung Chien,  D. M. Chipman,  D. L. Crittenden,  H. Dachsel,  
 R. J. Doerksen,  A. D. Dutoi,  R. G. Edgar,  J. Fosso-Tande,  
 L. Fusti-Molnar,  D. Ghosh,  A. Ghysels,  A. Golubeva-Zadorozhnaya,  
 J. Gonthier,  M. S. Gordon,  S. R. Gwaltney,  G. Hawkins,  J. E. Herr,  
 A. Heyden,  S. Hirata,  E. G. Hohenstein,  G. Kedziora,  F. J. Keil,  
 C. Kelley,  Jihan Kim,  R. A. King,  R. Z. Khaliullin,  P. P. Korambath,  
 W. Kurlancheek,  A. Laurent,  A. M. Lee,  M. S. Lee,  S. V. Levchenko,  
 Ching Yeh Lin,  D. Liotard,  E. Livshits,  R. C. Lochan,  I. Lotan,  
 L. A. Martinez-Martinez,  P. E. Maslen,  N. Nair,  D. P. O'Neill,  
 D. Neuhauser,  E. Neuscamman,  C. M. Oana,  R. Olivares-Amaya,  R. Olson,  
 T. M. Perrine,  B. Peters,  P. A. Pieniazek,  A. Prociuk,  Y. M. Rhee,  
 J. Ritchie,  M. A. Rohrdanz,  E. Rosta,  N. J. Russ,  H. F. Schaefer III,  
 M. W. Schmidt,  N. E. Schultz,  S. Sharma,  N. Shenvi,  C. D. Sherrill,  
 A. C. Simmonett,  A. Sodt,  T. Stein,  D. Stuck,  K. S. Thanthiriwatte,  
 V. Vanovschi,  L. Vogt,  Tao Wang,  A. Warshel,  M. A. Watson,  
 C. F. Williams,  Q. Wu,  X. Xu,  Jun Yang,  W. Zhang,  Yan Zhao

 Please cite Q-Chem as follows:
 Y. Shao et al., Mol. Phys. 113, 184-215 (2015)
 DOI: 10.1080/00268976.2014.952696

 Q-Chem 5.4.0 for Intel X86 EM64T Linux

 Parts of Q-Chem use Armadillo 9.800.1 (Horizon Scraper).
 http://arma.sourceforge.net/

 Q-Chem begins on Wed Dec 27 10:03:33 2023  

 Host: 
0

     Scratch files written to ./qchem2791696//
 May1621 |scratch|qcdevops|jenkins|workspace|build_RNUM    
 Parallel job on  1  processors
 Processing $rem in /cm/shared/apps/spack/cpu/opt/spack/linux-centos8-zen2/gcc-10.2.0/qchem-5.4-akfmr7b3t57bfs6qan3padb2wnb2i7cl/config/preferences:
 Processing $rem in /home/rramji/.qchemrc:
 Symmetry turned off for PCM/SM12/SMD calculation
 Core orbitals will be frozen

 Checking the input file for inconsistencies... 	...done.

 Q-Chem warning in module forms1/BasisType.C, line 2236:

 You are not using the predefined 5D/6D in this basis set.


--------------------------------------------------------------
User input:
--------------------------------------------------------------
$molecule
0 1
C	-0.128860	-0.381707	-0.216471
S	0.076240	0.384493	1.364029
C	0.500040	1.966393	0.688429
C	0.129240	0.582293	-1.201871
C	0.470840	1.857593	-0.709971
H	0.068340	0.354693	-2.276371
H	0.698840	2.708493	-1.369071
C	-0.128860	-1.859907	-0.216471
H	-1.064460	-1.860507	0.323029
H	-0.622160	-2.299207	-1.070971
H	0.277740	-2.570907	0.487529
H	0.727940	2.817093	1.339529
$end

$rem
JOBTYPE		SP
EXCHANGE	HF
CORRELATION	pRIMP2
BASIS		cc-pvtz
METHOD		rimp2
AUX_BASIS	rimp2-cc-pvtz
SOLVENT_METHOD	PCM
PURECART	11111
SYMMETRY	false
MEM_TOTAL	110000
SCF_CONVERGENCE = 6
THRESH=10
GUI = 2
$end



$solvent
dielectric 4.90
$end
--------------------------------------------------------------
 ----------------------------------------------------------------
             Standard Nuclear Orientation (Angstroms)
    I     Atom           X                Y                Z
 ----------------------------------------------------------------
    1      C      -0.1288600000    -0.3817070000    -0.2164710000
    2      S       0.0762400000     0.3844930000     1.3640290000
    3      C       0.5000400000     1.9663930000     0.6884290000
    4      C       0.1292400000     0.5822930000    -1.2018710000
    5      C       0.4708400000     1.8575930000    -0.7099710000
    6      H       0.0683400000     0.3546930000    -2.2763710000
    7      H       0.6988400000     2.7084930000    -1.3690710000
    8      C      -0.1288600000    -1.8599070000    -0.2164710000
    9      H      -1.0644600000    -1.8605070000     0.3230290000
   10      H      -0.6221600000    -2.2992070000    -1.0709710000
   11      H       0.2777400000    -2.5709070000     0.4875290000
   12      H       0.7279400000     2.8170930000     1.3395290000
 ----------------------------------------------------------------
 Nuclear Repulsion Energy =         270.53149804 hartrees
 There are       26 alpha and       26 beta electrons
 Requested basis set is cc-pVTZ
 There are 98 shells and 268 basis functions

 Total QAlloc Memory Limit 110000 MB
 Mega-Array Size       188 MB
 MEM_STATIC part       192 MB
 Discretize the solute cavity surface with Lebedev spheres
	Using 110 Lebedev grid points for each H atom
	Using 194 Lebedev grid points for other atoms
	Atomic van der Waals radii will be scaled by 1.20
 Remove points where switching function is < 1.0e-08
 Keep 885 surface tesserae and discard 939 interior tesserae
 Molecular Surface Area = 137.859 Angst**2

                       Distance Matrix (Angstroms)
             C (  1)   S (  2)   C (  3)   C (  4)   C (  5)   H (  6)
   S (  2)  1.768363
   C (  3)  2.593826  1.771567
   C (  4)  1.402471  2.574058  2.372016
   C (  5)  2.370158  2.574337  1.402930  1.408917
   H (  6)  2.196443  3.640531  3.402055  1.100028  2.207787
   H (  7)  3.400428  3.641214  2.196256  2.207516  1.100194  2.600211
   C (  8)  1.478200  2.752704  3.981825  2.646124  3.797761  3.030929
   H (  9)  1.831190  2.724867  4.150463  3.117292  4.153132  3.598226
   H ( 10)  2.156460  3.690425  4.748701  2.980735  4.313230  2.995491
   H ( 11)  2.335281  3.089214  4.547183  3.580334  4.591613  4.030152
   H ( 12)  3.658902  2.518503  1.095244  3.436784  2.277541  4.424163
             H (  7)   C (  8)   H (  9)   H ( 10)   H ( 11)
   C (  8)  4.783707
   H (  9)  5.181524  1.080004
   H ( 10)  5.187578  1.080046  1.526867
   H ( 11)  5.612161  1.080028  1.527491  1.820045
   H ( 12)  2.710932  5.002956  5.111351  5.814620  5.473493
 
 Requested basis set is rimp2-cc-pVTZ
 There are 207 shells and 707 basis functions
 A cutoff of  1.0D-10 yielded   4363 shell pairs
 There are     32739 function pairs (     42339 Cartesian)
 Smallest overlap matrix eigenvalue = 1.20E-04

 Scale SEOQF with 1.000000e+00/1.000000e-01/1.000000e-01

 Standard Electronic Orientation quadrupole field applied
 Nucleus-field energy     =     0.0000000034 hartrees
 Guess from superposition of atomic densities
 Warning:  Energy on first SCF cycle will be non-variational
 SAD guess density has 52.000000 electrons

 -----------------------------------------------------------------------
  General SCF calculation program by
  Eric Jon Sundstrom, Paul Horn, Yuezhi Mao, Dmitri Zuev, Alec White,
  David Stuck, Shaama M.S., Shane Yost, Joonho Lee, David Small,
  Daniel Levine, Susi Lehtola, Hugh Burton, Evgeny Epifanovsky,
  Bang C. Huynh
 -----------------------------------------------------------------------
 Hartree-Fock
 using 64 threads for integral computing
 -------------------------------------------------------
 OpenMP Integral computing Module                
 Release: version 1.0, May 2013, Q-Chem Inc. Pittsburgh 
 -------------------------------------------------------
 A restricted SCF calculation will be
 performed using DIIS
 SCF converges when DIIS error is below 1.0e-06
 ---------------------------------------
  Cycle       Energy         DIIS error
 ---------------------------------------
    1    -592.5751611937      3.22e-02  
    2    -590.2970287865      2.19e-03  
    3    -590.3578354127      8.29e-04  
    4    -590.3650218121      3.94e-04  
    5    -590.3670176252      7.20e-05  
    6    -590.3671468225      3.17e-05  
    7    -590.3671786254      1.48e-05  
    8    -590.3671883875      5.75e-06  
    9    -590.3671899152      1.97e-06  
   10    -590.3671900555      6.02e-07  Convergence criterion met
 ---------------------------------------
 SCF time:   CPU 497.39s  wall 9.00s 

************** Final PCM Free Energy Summary **************
 G_electrostatic  =      -0.00576974 hartree =      -3.62056588 kcal/mol
 G_cavitation     =       0.00000000 hartree =       0.00000000 kcal/mol
 G_dispersion     =       0.00000000 hartree =       0.00000000 kcal/mol
 G_repulsion      =       0.00000000 hartree =       0.00000000 kcal/mol
 --------------------------------------------------
 Non-electrostatic Free Energy =       0.00000000 hartree =       0.00000000 kcal/mol
 Total                         =      -0.00576974 hartree =      -3.62056588 kcal/mol
 --------------------------------------------------
 SCF Energy (H0 + V/2)                       =    -590.36719006 
 Solute Internal Energy (H0)                 =    -590.36142032 
 Total Free Energy (H0 + V/2 + non-elec)     =    -590.36719006 hartree
                                             = -370461.00312750 kcal/mol
***********************************************************

 SCF   energy in the final basis set =     -590.3671900555
 Total energy in the final basis set =     -590.3671900555


 --------------------------------------------------------------
  Generalized many-body perturbation theory program
  by Joonho Lee, Fazle Rob, Xintian Feng, Evgeny Epifanovsky

 No regularization used 
 (reg. param. = 0.0000e+00)
  (P|Q)^-1/2 Time:  CPU 5.23 s  wall 0.08 s

 In RI-MP2 calculation: 
 # of frozen core orbitals: 10

 Components of the RIMP2 correlation energy:
        aaaa    correlation energy =        -0.1252872915 a.u.
        abab    correlation energy =        -0.7513524225 a.u.
        bbbb    correlation energy =        -0.1252872915 a.u.
        non-Brillouin singles      =        -0.0000000000 a.u.
        total same-spin energy     =        -0.2505745829 a.u.
        total opposite-spin energy =        -0.7513524225 a.u.

 Total  RIMP2   correlation energy =        -1.0019270055 a.u.
        RIMP2         total energy =      -591.3691170610 a.u.

 RI-MP2 Energy Time:  CPU 23.15 s  wall 0.41 s
 
 --------------------------------------------------------------
 
                    Orbital Energies (a.u.)
 --------------------------------------------------------------
 
 Alpha MOs
 -- Occupied --
-91.9778 -11.2862 -11.2671 -11.2430 -11.2353 -11.2250  -8.9778  -6.6587
 -6.6582  -6.6576  -1.1574  -1.0395  -0.9720  -0.9195  -0.7565  -0.7211
 -0.6707  -0.5977  -0.5658  -0.5592  -0.5444  -0.4894  -0.4721  -0.4543
 -0.3463  -0.3017
 -- Virtual --
  0.1033   0.1459   0.1599   0.1826   0.1880   0.2004   0.2160   0.2241
  0.2331   0.2382   0.3050   0.3369   0.3494   0.3709   0.3834   0.4066
  0.4309   0.4480   0.4617   0.4883   0.4967   0.5139   0.5190   0.5311
  0.5511   0.5535   0.5725   0.5879   0.5923   0.6135   0.6140   0.6237
  0.6274   0.6385   0.6501   0.6632   0.6996   0.7057   0.7360   0.7602
  0.7793   0.7988   0.8426   0.8609   0.8658   0.8790   0.8930   0.9296
  0.9568   0.9752   1.0164   1.0373   1.0634   1.0863   1.0934   1.1091
  1.1346   1.1691   1.1737   1.1867   1.2188   1.2334   1.2383   1.2573
  1.2917   1.3159   1.3338   1.3539   1.3818   1.4072   1.4274   1.4612
  1.4704   1.5009   1.5107   1.5234   1.5421   1.5451   1.5659   1.5925
  1.6066   1.6202   1.6427   1.6930   1.7002   1.7371   1.7865   1.8050
  1.8289   1.8886   1.9066   1.9198   1.9493   2.0025   2.0470   2.0887
  2.1494   2.1723   2.2033   2.2209   2.2558   2.2814   2.3336   2.4167
  2.4374   2.4675   2.4872   2.5298   2.5614   2.5960   2.6445   2.6516
  2.7000   2.7112   2.7171   2.7467   2.7574   2.7856   2.7872   2.8279
  2.8741   2.9018   2.9254   2.9780   2.9988   3.0190   3.0282   3.0331
  3.0568   3.0710   3.1206   3.1450   3.1727   3.2063   3.2203   3.2389
  3.2718   3.2796   3.2944   3.3044   3.3251   3.3436   3.3638   3.3977
  3.4119   3.4225   3.4402   3.4513   3.4600   3.4702   3.4883   3.4939
  3.5122   3.5297   3.5449   3.5696   3.5896   3.6005   3.6160   3.6594
  3.6714   3.7054   3.7245   3.7415   3.7726   3.7863   3.7940   3.8524
  3.8795   3.8960   3.9032   3.9145   3.9496   3.9524   3.9673   3.9885
  4.0045   4.0232   4.0774   4.0934   4.1336   4.1559   4.1730   4.1920
  4.2145   4.2614   4.2772   4.2967   4.3152   4.3407   4.3738   4.3939
  4.4316   4.4404   4.4720   4.5190   4.5338   4.5479   4.5851   4.6350
  4.6705   4.7024   4.7098   4.7375   4.7927   4.8072   4.8297   4.8913
  4.9836   5.0111   5.0205   5.0476   5.0854   5.1443   5.1889   5.1953
  5.2085   5.3009   5.3666   5.4024   5.4199   5.5010   5.5212   5.5850
  5.6108   5.7363   5.7712   5.8640   5.8930   5.9838   6.0383   6.0555
  6.1038   6.3277   6.4388   6.4632   6.6620   9.3760  11.2812  12.8639
 14.0173  14.1380
 --------------------------------------------------------------
 
          Ground-State Mulliken Net Atomic Charges

     Atom                 Charge (a.u.)
  ----------------------------------------
      1 C                    -0.004578
      2 S                    -0.010912
      3 C                    -0.228521
      4 C                    -0.208230
      5 C                    -0.196849
      6 H                     0.184540
      7 H                     0.185030
      8 C                    -0.352084
      9 H                     0.129933
     10 H                     0.130808
     11 H                     0.165939
     12 H                     0.204925
  ----------------------------------------
  Sum of atomic charges =     0.000000

 -----------------------------------------------------------------
                    Cartesian Multipole Moments
 -----------------------------------------------------------------
    Charge (ESU x 10^10)
                -0.0000
    Dipole Moment (Debye)
         X      -0.2831      Y      -0.5191      Z      -0.7531
       Tot       0.9574
    Quadrupole Moments (Debye-Ang)
        XX     -47.3817     XY       3.4055     YY     -36.5560
        XZ       0.5985     YZ      -0.0384     ZZ     -41.9441
    Octopole Moments (Debye-Ang^2)
       XXX     -19.7175    XXY     -18.8969    XYY      -1.3169
       YYY     -41.7323    XXZ      -7.1829    XYZ      -0.2411
       YYZ      -1.6254    XZZ      -4.1540    YZZ     -10.0986
       ZZZ     -28.8161
    Hexadecapole Moments (Debye-Ang^3)
      XXXX     -90.3301   XXXY     -53.1552   XXYY    -108.8679
      XYYY     -25.8436   YYYY    -486.8050   XXXZ      -3.3086
      XXYZ      -5.0863   XYYZ       4.4396   YYYZ     -15.3128
      XXZZ     -71.1706   XYZZ      -8.6099   YYZZ    -122.5572
      XZZZ      -1.1791   YZZZ     -13.7782   ZZZZ    -306.5224
 -----------------------------------------------------------------
 Total job time:  10.22s(wall), 563.18s(cpu) 
 Wed Dec 27 10:03:43 2023

        *************************************************************
        *                                                           *
        *  Thank you very much for using Q-Chem.  Have a nice day.  *
        *                                                           *
        *************************************************************


0 sent ACK to 0 
now end server 0 ... 
cleanup process ... done
remove work dirs ./qchem2791696.0 -- ./qchem2791696.0
rm -rf ./qchem2791696.0
rm -rf ./qchem2791696
