You are running Q-Chem version: 5.4.0

#
# job setting
#
local host:  exp-4-42
current dir: /home/rramji/project-csd799/aromodel/pndit-qchem/methylated-rotation-run
input file:  Dimethyl_Naphthalene_Dicarboximide_Phi_15_Theta_330_Thiophene_Hydrogenated_Improper.qcin
output file: 
nprocs     : 1
nthreads   : 64
#
# qchem installation setting
#
QC:          /cm/shared/apps/spack/cpu/opt/spack/linux-centos8-zen2/gcc-10.2.0/qchem-5.4-akfmr7b3t57bfs6qan3padb2wnb2i7cl
QCAUX:       /cm/shared/apps/spack/cpu/opt/spack/linux-centos8-zen2/gcc-10.2.0/qchem-5.4-akfmr7b3t57bfs6qan3padb2wnb2i7cl/qcaux
QCPROG:      /cm/shared/apps/spack/cpu/opt/spack/linux-centos8-zen2/gcc-10.2.0/qchem-5.4-akfmr7b3t57bfs6qan3padb2wnb2i7cl/exe/qcprog.exe
QCPROG_S:    /cm/shared/apps/spack/cpu/opt/spack/linux-centos8-zen2/gcc-10.2.0/qchem-5.4-akfmr7b3t57bfs6qan3padb2wnb2i7cl/exe/qcprog.exe_s
PARALLEL:    -DPARALLEL
QCMPI:       mpich
#
# qchem directory setting
#
qcrun:       qchem2797319
QCSCRATCH:   .
QCLOCALSCR:  
QCTMPDIR:    .
QCFILEPREF:  ./qchem2797319
QCSAVEDIR:   
workdirs:    ./qchem2797319
workdir0:    ./qchem2797319
partmpdirs =  
#
# parallel setting
#
QCRSH:           ssh
QCMPI:           mpich
QCMPIRUN:        /cm/shared/apps/spack/cpu/opt/spack/linux-centos8-zen2/gcc-10.2.0/qchem-5.4-akfmr7b3t57bfs6qan3padb2wnb2i7cl/bin/mpi/mpirun_qchem
QCMACHINEFILE:   ./qchem2797319/hostfile
exp-4-42

#
# env setting
#
exported envs:   QC QCAUX QCSCRATCH QCRUNNAME QCFILEPREF QCPROG QCPROG_S GUIFILE

Running Job 1 of 1 Dimethyl_Naphthalene_Dicarboximide_Phi_15_Theta_330_Thiophene_Hydrogenated_Improper.qcin
qchem Dimethyl_Naphthalene_Dicarboximide_Phi_15_Theta_330_Thiophene_Hydrogenated_Improper.qcin_2797319.0 ./qchem2797319/ 1
/cm/shared/apps/spack/cpu/opt/spack/linux-centos8-zen2/gcc-10.2.0/qchem-5.4-akfmr7b3t57bfs6qan3padb2wnb2i7cl/bin/mpi/mpirun_qchem -machinefile ./qchem2797319/hostfile -np 1 /cm/shared/apps/spack/cpu/opt/spack/linux-centos8-zen2/gcc-10.2.0/qchem-5.4-akfmr7b3t57bfs6qan3padb2wnb2i7cl/exe/qcprog.exe Dimethyl_Naphthalene_Dicarboximide_Phi_15_Theta_330_Thiophene_Hydrogenated_Improper.qcin_2797319.0 ./qchem2797319/

Process 0 of 1 is on exp-4-42 - thread support 0
initial socket setup ...start
initial socket setup ...done 
now start server 0 ... 
                  Welcome to Q-Chem
     A Quantum Leap Into The Future Of Chemistry


 Q-Chem 5.4, Q-Chem, Inc., Pleasanton, CA (2021)

 License issued to: University of California, San Diego (site)

 E. Epifanovsky,  A. T. B. Gilbert,  Xintian Feng,  Joonho Lee,  Yuezhi Mao,  
 N. Mardirossian,  P. Pokhilko,  A. White,  M. Wormit,  M. P. Coons,  
 A. L. Dempwolff,  Zhengting Gan,  D. Hait,  P. R. Horn,  L. D. Jacobson,  
 I. Kaliman,  J. Kussmann,  A. W. Lange,  Ka Un Lao,  D. S. Levine,  Jie Liu,  
 S. C. McKenzie,  A. F. Morrison,  K. Nanda,  F. Plasser,  D. R. Rehn,  
 M. L. Vidal,  Zhi-Qiang You,  Ying Zhu,  B. Alam,  B. Albrecht,  
 A. Aldossary,  E. Alguire,  J. H. Andersen,  D. Barton,  K. Begam,  A. Behn,  
 Y. A. Bernard,  E. J. Berquist,  H. Burton,  A. Carreras,  K. Carter-Fenk,  
 R. Chakraborty,  A. D. Chien,  K. D. Closser,  V. Cofer-Shabica,  
 S. Dasgupta,  Jia Deng,  M. de Wergifosse,  M. Diedenhofen,  Hainam Do,  
 S. Ehlert,  Po-Tung Fang,  S. Fatehi,  Qingguo Feng,  J. Gayvert,  
 Qinghui Ge,  G. Gidofalvi,  M. Goldey,  J. Gomes,  C. Gonzalez-Espinoza,  
 S. Gulania,  A. Gunina,  M. W. D. Hanson-Heine,  P. H. P. Harbach,  
 A. W. Hauser,  M. F. Herbst,  M. Hernandez Vera,  M. Hodecker,  
 Z. C. Holden,  S. Houck,  Xunkun Huang,  Kerwin Hui,  B. C. Huynh,  
 M. Ivanov,  Hyunjun Ji,  Hanjie Jiang,  B. Kaduk,  S. Kaehler,  
 K. Khistyaev,  Jaehoon Kim,  P. Klunzinger,  Z. Koczor-Benda,  
 Joong Hoon Koh,  D. Kosenkov,  L. Koulias,  T. Kowalczyk,  C. M. Krauter,  
 K. Kue,  A. Kunitsa,  T. Kus,  A. Landau,  K. V. Lawler,  D. Lefrancois,  
 S. Lehtola,  Rain Li,  Yi-Pei Li,  Jiashu Liang,  M. Liebenthal,  
 Hung-Hsuan Lin,  You-Sheng Lin,  Fenglai Liu,  Kuan-Yu Liu,  
 M. Loipersberger,  A. Luenser,  A. Manjanath,  P. Manohar,  E. Mansoor,  
 S. F. Manzer,  Shan-Ping Mao,  A. V. Marenich,  T. Markovich,  S. Mason,  
 S. A. Maurer,  P. F. McLaughlin,  M. F. S. J. Menger,  J.-M. Mewes,  
 S. A. Mewes,  P. Morgante,  J. W. Mullinax,  T. S. Nguyen-Beck,  
 K. J. Oosterbaan,  G. Paran,  Alexander C. Paul,  Suranjan K. Paul,  
 F. Pavosevic,  Zheng Pei,  S. Prager,  E. I. Proynov,  E. Ramos,  B. Rana,  
 A. E. Rask,  A. Rettig,  R. M. Richard,  F. Rob,  E. Rossomme,  T. Scheele,  
 M. Scheurer,  M. Schneider,  N. Sergueev,  S. M. Sharada,  W. Skomorowski,  
 D. W. Small,  C. J. Stein,  Yu-Chuan Su,  E. J. Sundstrom,  Zhen Tao,  
 J. Thirman,  T. Tsuchimochi,  N. M. Tubman,  S. P. Veccham,  O. Vydrov,  
 J. Wenzel,  J. Witte,  A. Yamada,  Kun Yao,  S. Yeganeh,  S. R. Yost,  
 A. Zech,  Igor Ying Zhang,  Xing Zhang,  Yu Zhang,  D. Zuev,  
 A. Aspuru-Guzik,  A. T. Bell,  N. A. Besley,  K. B. Bravaya,  B. R. Brooks,  
 D. Casanova,  Jeng-Da Chai,  S. Coriani,  C. J. Cramer,  
 A. E. DePrince, III,  R. A. DiStasio Jr.,  A. Dreuw,  B. D. Dunietz,  
 T. R. Furlani,  W. A. Goddard III,  S. Grimme,  S. Hammes-Schiffer,  
 T. Head-Gordon,  W. J. Hehre,  Chao-Ping Hsu,  T.-C. Jagau,  Yousung Jung,  
 A. Klamt,  Jing Kong,  D. S. Lambrecht,  WanZhen Liang,  N. J. Mayhall,  
 C. W. McCurdy,  J. B. Neaton,  C. Ochsenfeld,  J. A. Parkhill,  R. Peverati,  
 V. A. Rassolov,  Yihan Shao,  L. V. Slipchenko,  T. Stauch,  R. P. Steele,  
 J. E. Subotnik,  A. J. W. Thom,  A. Tkatchenko,  D. G. Truhlar,  
 T. Van Voorhis,  T. A. Wesolowski,  K. B. Whaley,  H. L. Woodcock III,  
 P. M. Zimmerman,  S. Faraji,  P. M. W. Gill,  M. Head-Gordon,  
 J. M. Herbert,  A. I. Krylov

 Contributors to earlier versions of Q-Chem not listed above: 
 R. D. Adamson,  B. Austin,  R. Baer,  J. Baker,  G. J. O. Beran,  
 K. Brandhorst,  S. T. Brown,  E. F. C. Byrd,  A. K. Chakraborty,  
 G. K. L. Chan,  Chun-Min Chang,  Yunqing Chen,  C.-L. Cheng,  
 Siu Hung Chien,  D. M. Chipman,  D. L. Crittenden,  H. Dachsel,  
 R. J. Doerksen,  A. D. Dutoi,  R. G. Edgar,  J. Fosso-Tande,  
 L. Fusti-Molnar,  D. Ghosh,  A. Ghysels,  A. Golubeva-Zadorozhnaya,  
 J. Gonthier,  M. S. Gordon,  S. R. Gwaltney,  G. Hawkins,  J. E. Herr,  
 A. Heyden,  S. Hirata,  E. G. Hohenstein,  G. Kedziora,  F. J. Keil,  
 C. Kelley,  Jihan Kim,  R. A. King,  R. Z. Khaliullin,  P. P. Korambath,  
 W. Kurlancheek,  A. Laurent,  A. M. Lee,  M. S. Lee,  S. V. Levchenko,  
 Ching Yeh Lin,  D. Liotard,  E. Livshits,  R. C. Lochan,  I. Lotan,  
 L. A. Martinez-Martinez,  P. E. Maslen,  N. Nair,  D. P. O'Neill,  
 D. Neuhauser,  E. Neuscamman,  C. M. Oana,  R. Olivares-Amaya,  R. Olson,  
 T. M. Perrine,  B. Peters,  P. A. Pieniazek,  A. Prociuk,  Y. M. Rhee,  
 J. Ritchie,  M. A. Rohrdanz,  E. Rosta,  N. J. Russ,  H. F. Schaefer III,  
 M. W. Schmidt,  N. E. Schultz,  S. Sharma,  N. Shenvi,  C. D. Sherrill,  
 A. C. Simmonett,  A. Sodt,  T. Stein,  D. Stuck,  K. S. Thanthiriwatte,  
 V. Vanovschi,  L. Vogt,  Tao Wang,  A. Warshel,  M. A. Watson,  
 C. F. Williams,  Q. Wu,  X. Xu,  Jun Yang,  W. Zhang,  Yan Zhao

 Please cite Q-Chem as follows:
 Y. Shao et al., Mol. Phys. 113, 184-215 (2015)
 DOI: 10.1080/00268976.2014.952696

 Q-Chem 5.4.0 for Intel X86 EM64T Linux

 Parts of Q-Chem use Armadillo 9.800.1 (Horizon Scraper).
 http://arma.sourceforge.net/

 Q-Chem begins on Wed Dec 27 10:07:34 2023  

 Host: 
0

     Scratch files written to ./qchem2797319//
 May1621 |scratch|qcdevops|jenkins|workspace|build_RNUM    
 Parallel job on  1  processors
 Processing $rem in /cm/shared/apps/spack/cpu/opt/spack/linux-centos8-zen2/gcc-10.2.0/qchem-5.4-akfmr7b3t57bfs6qan3padb2wnb2i7cl/config/preferences:
 Processing $rem in /home/rramji/.qchemrc:
 Symmetry turned off for PCM/SM12/SMD calculation
 Core orbitals will be frozen

 Checking the input file for inconsistencies... 	...done.

 Q-Chem warning in module forms1/BasisType.C, line 2236:

 You are not using the predefined 5D/6D in this basis set.


--------------------------------------------------------------
User input:
--------------------------------------------------------------
$molecule
0 1
C	-0.139357	-0.381707	-0.212476
S	0.065743	0.384493	1.368024
C	0.489543	1.966393	0.692424
C	0.118743	0.582293	-1.197876
C	0.460343	1.857593	-0.705976
H	0.057843	0.354693	-2.272376
H	0.688343	2.708493	-1.365076
C	-0.139357	-1.859907	-0.212476
H	0.796243	-1.860507	-0.751976
H	0.353943	-2.299207	0.642024
H	-0.545957	-2.570907	-0.916476
H	0.717443	2.817093	1.343524
$end

$rem
JOBTYPE		SP
EXCHANGE	HF
CORRELATION	pRIMP2
BASIS		cc-pvtz
METHOD		rimp2
AUX_BASIS	rimp2-cc-pvtz
SOLVENT_METHOD	PCM
PURECART	11111
SYMMETRY	false
MEM_TOTAL	110000
SCF_CONVERGENCE = 6
THRESH=10
GUI = 2
$end



$solvent
dielectric 4.90
$end
--------------------------------------------------------------
 ----------------------------------------------------------------
             Standard Nuclear Orientation (Angstroms)
    I     Atom           X                Y                Z
 ----------------------------------------------------------------
    1      C      -0.1393570000    -0.3817070000    -0.2124760000
    2      S       0.0657430000     0.3844930000     1.3680240000
    3      C       0.4895430000     1.9663930000     0.6924240000
    4      C       0.1187430000     0.5822930000    -1.1978760000
    5      C       0.4603430000     1.8575930000    -0.7059760000
    6      H       0.0578430000     0.3546930000    -2.2723760000
    7      H       0.6883430000     2.7084930000    -1.3650760000
    8      C      -0.1393570000    -1.8599070000    -0.2124760000
    9      H       0.7962430000    -1.8605070000    -0.7519760000
   10      H       0.3539430000    -2.2992070000     0.6420240000
   11      H      -0.5459570000    -2.5709070000    -0.9164760000
   12      H       0.7174430000     2.8170930000     1.3435240000
 ----------------------------------------------------------------
 Nuclear Repulsion Energy =         270.65298791 hartrees
 There are       26 alpha and       26 beta electrons
 Requested basis set is cc-pVTZ
 There are 98 shells and 268 basis functions

 Total QAlloc Memory Limit 110000 MB
 Mega-Array Size       188 MB
 MEM_STATIC part       192 MB
 Discretize the solute cavity surface with Lebedev spheres
	Using 110 Lebedev grid points for each H atom
	Using 194 Lebedev grid points for other atoms
	Atomic van der Waals radii will be scaled by 1.20
 Remove points where switching function is < 1.0e-08
 Keep 882 surface tesserae and discard 942 interior tesserae
 Molecular Surface Area = 137.887 Angst**2

                       Distance Matrix (Angstroms)
             C (  1)   S (  2)   C (  3)   C (  4)   C (  5)   H (  6)
   S (  2)  1.768363
   C (  3)  2.593826  1.771567
   C (  4)  1.402471  2.574058  2.372016
   C (  5)  2.370158  2.574337  1.402930  1.408917
   H (  6)  2.196443  3.640531  3.402055  1.100028  2.207787
   H (  7)  3.400428  3.641214  2.196256  2.207516  1.100194  2.600211
   C (  8)  1.478200  2.752704  3.981825  2.646124  3.797761  3.030929
   H (  9)  1.831190  3.173020  4.101892  2.573928  3.733525  2.786389
   H ( 10)  2.156460  2.795064  4.268052  3.426893  4.371202  3.952795
   H ( 11)  2.335281  3.785169  4.924217  3.234762  4.546269  3.280575
   H ( 12)  3.658902  2.518503  1.095244  3.436784  2.277541  4.424163
             H (  7)   C (  8)   H (  9)   H ( 10)   H ( 11)
   C (  8)  4.783707
   H (  9)  4.611214  1.080004
   H ( 10)  5.405306  1.080046  1.526867
   H ( 11)  5.440294  1.080028  1.527491  1.820045
   H ( 12)  2.710932  5.002956  5.126136  5.176945  5.977819
 
 Requested basis set is rimp2-cc-pVTZ
 There are 207 shells and 707 basis functions
 A cutoff of  1.0D-10 yielded   4375 shell pairs
 There are     32849 function pairs (     42496 Cartesian)
 Smallest overlap matrix eigenvalue = 1.32E-04

 Scale SEOQF with 1.000000e+00/1.000000e-01/1.000000e-01

 Standard Electronic Orientation quadrupole field applied
 Nucleus-field energy     =     0.0000000031 hartrees
 Guess from superposition of atomic densities
 Warning:  Energy on first SCF cycle will be non-variational
 SAD guess density has 52.000000 electrons

 -----------------------------------------------------------------------
  General SCF calculation program by
  Eric Jon Sundstrom, Paul Horn, Yuezhi Mao, Dmitri Zuev, Alec White,
  David Stuck, Shaama M.S., Shane Yost, Joonho Lee, David Small,
  Daniel Levine, Susi Lehtola, Hugh Burton, Evgeny Epifanovsky,
  Bang C. Huynh
 -----------------------------------------------------------------------
 Hartree-Fock
 using 64 threads for integral computing
 -------------------------------------------------------
 OpenMP Integral computing Module                
 Release: version 1.0, May 2013, Q-Chem Inc. Pittsburgh 
 -------------------------------------------------------
 A restricted SCF calculation will be
 performed using DIIS
 SCF converges when DIIS error is below 1.0e-06
 ---------------------------------------
  Cycle       Energy         DIIS error
 ---------------------------------------
    1    -592.5790558767      3.22e-02  
    2    -590.2998363282      2.20e-03  
    3    -590.3607565782      8.42e-04  
    4    -590.3680266368      4.01e-04  
    5    -590.3700552051      6.98e-05  
    6    -590.3701753769      3.17e-05  
    7    -590.3702044502      1.41e-05  
    8    -590.3702136952      5.68e-06  
    9    -590.3702151674      1.90e-06  
   10    -590.3702153067      6.15e-07  Convergence criterion met
 ---------------------------------------
 SCF time:   CPU 494.08s  wall 9.00s 

************** Final PCM Free Energy Summary **************
 G_electrostatic  =      -0.00582771 hartree =      -3.65694335 kcal/mol
 G_cavitation     =       0.00000000 hartree =       0.00000000 kcal/mol
 G_dispersion     =       0.00000000 hartree =       0.00000000 kcal/mol
 G_repulsion      =       0.00000000 hartree =       0.00000000 kcal/mol
 --------------------------------------------------
 Non-electrostatic Free Energy =       0.00000000 hartree =       0.00000000 kcal/mol
 Total                         =      -0.00582771 hartree =      -3.65694335 kcal/mol
 --------------------------------------------------
 SCF Energy (H0 + V/2)                       =    -590.37021531 
 Solute Internal Energy (H0)                 =    -590.36438760 
 Total Free Energy (H0 + V/2 + non-elec)     =    -590.37021531 hartree
                                             = -370462.90150127 kcal/mol
***********************************************************

 SCF   energy in the final basis set =     -590.3702153067
 Total energy in the final basis set =     -590.3702153067


 --------------------------------------------------------------
  Generalized many-body perturbation theory program
  by Joonho Lee, Fazle Rob, Xintian Feng, Evgeny Epifanovsky

 No regularization used 
 (reg. param. = 0.0000e+00)
  (P|Q)^-1/2 Time:  CPU 5.89 s  wall 0.10 s

 In RI-MP2 calculation: 
 # of frozen core orbitals: 10

 Components of the RIMP2 correlation energy:
        aaaa    correlation energy =        -0.1253078723 a.u.
        abab    correlation energy =        -0.7508823113 a.u.
        bbbb    correlation energy =        -0.1253078723 a.u.
        non-Brillouin singles      =        -0.0000000000 a.u.
        total same-spin energy     =        -0.2506157446 a.u.
        total opposite-spin energy =        -0.7508823113 a.u.

 Total  RIMP2   correlation energy =        -1.0014980559 a.u.
        RIMP2         total energy =      -591.3717133626 a.u.

 RI-MP2 Energy Time:  CPU 25.24 s  wall 0.44 s
 
 --------------------------------------------------------------
 
                    Orbital Energies (a.u.)
 --------------------------------------------------------------
 
 Alpha MOs
 -- Occupied --
-91.9792 -11.2899 -11.2633 -11.2431 -11.2322 -11.2266  -8.9789  -6.6598
 -6.6593  -6.6587  -1.1577  -1.0398  -0.9719  -0.9181  -0.7545  -0.7229
 -0.6715  -0.5974  -0.5664  -0.5545  -0.5453  -0.4950  -0.4731  -0.4541
 -0.3458  -0.3001
 -- Virtual --
  0.1065   0.1501   0.1606   0.1803   0.1852   0.1924   0.2164   0.2249
  0.2418   0.2462   0.3164   0.3306   0.3502   0.3682   0.3864   0.4063
  0.4281   0.4459   0.4635   0.4841   0.4972   0.5157   0.5236   0.5260
  0.5476   0.5526   0.5664   0.5878   0.5909   0.6143   0.6162   0.6206
  0.6327   0.6418   0.6462   0.6556   0.7014   0.7027   0.7346   0.7648
  0.7804   0.7919   0.8406   0.8627   0.8690   0.8783   0.8932   0.9107
  0.9392   0.9824   1.0141   1.0488   1.0628   1.0731   1.0919   1.1211
  1.1452   1.1682   1.1713   1.1980   1.2201   1.2303   1.2316   1.2795
  1.2841   1.3096   1.3284   1.3412   1.3934   1.3976   1.4212   1.4514
  1.4661   1.4943   1.5076   1.5171   1.5344   1.5410   1.5579   1.5737
  1.5935   1.6147   1.6494   1.6866   1.7161   1.7506   1.7806   1.7982
  1.8134   1.8979   1.9072   1.9249   1.9615   1.9898   2.0515   2.0867
  2.1469   2.1707   2.2158   2.2347   2.2490   2.2809   2.2991   2.4189
  2.4278   2.4509   2.4814   2.5296   2.5701   2.5828   2.6226   2.6572
  2.6984   2.7102   2.7232   2.7470   2.7560   2.7816   2.7939   2.8199
  2.8699   2.9079   2.9151   2.9534   2.9958   3.0207   3.0268   3.0446
  3.0628   3.0892   3.1127   3.1398   3.1683   3.1968   3.2174   3.2420
  3.2556   3.2708   3.2912   3.3183   3.3228   3.3420   3.3543   3.3875
  3.3984   3.4154   3.4418   3.4570   3.4618   3.4737   3.4948   3.5068
  3.5151   3.5303   3.5411   3.5671   3.5906   3.6232   3.6274   3.6632
  3.6728   3.6928   3.7119   3.7434   3.7583   3.7641   3.8102   3.8379
  3.8592   3.8820   3.9000   3.9251   3.9277   3.9469   3.9744   3.9990
  4.0167   4.0459   4.0797   4.1002   4.1233   4.1552   4.1691   4.2088
  4.2394   4.2591   4.2821   4.2944   4.3215   4.3514   4.3671   4.3928
  4.4220   4.4622   4.4776   4.4991   4.5407   4.5749   4.6114   4.6357
  4.6481   4.7036   4.7344   4.7568   4.7824   4.8098   4.8492   4.8883
  4.9252   4.9994   5.0188   5.0302   5.0777   5.1422   5.1668   5.1926
  5.2209   5.3044   5.3598   5.4282   5.4610   5.4889   5.5290   5.5742
  5.6273   5.7194   5.7890   5.8187   5.8743   5.9367   6.0031   6.0824
  6.1284   6.3317   6.4143   6.4639   6.6707   9.3551  11.3319  12.8298
 13.9417  14.1572
 --------------------------------------------------------------
 
          Ground-State Mulliken Net Atomic Charges

     Atom                 Charge (a.u.)
  ----------------------------------------
      1 C                     0.027523
      2 S                     0.000714
      3 C                    -0.243176
      4 C                    -0.233548
      5 C                    -0.191670
      6 H                     0.179539
      7 H                     0.185889
      8 C                    -0.367964
      9 H                     0.142320
     10 H                     0.136695
     11 H                     0.160188
     12 H                     0.203489
  ----------------------------------------
  Sum of atomic charges =     0.000000

 -----------------------------------------------------------------
                    Cartesian Multipole Moments
 -----------------------------------------------------------------
    Charge (ESU x 10^10)
                -0.0000
    Dipole Moment (Debye)
         X       0.9191      Y      -0.7459      Z      -1.4044
       Tot       1.8367
    Quadrupole Moments (Debye-Ang)
        XX     -47.7097     XY       1.0345     YY     -36.7266
        XZ       0.3276     YZ       1.7077     ZZ     -41.6565
    Octopole Moments (Debye-Ang^2)
       XXX     -21.1565    XXY     -18.7964    XYY       1.6021
       YYY     -42.4191    XXZ      -6.9834    XYZ      -0.0307
       YYZ      -6.5059    XZZ      -4.4760    YZZ     -11.1523
       ZZZ     -27.7869
    Hexadecapole Moments (Debye-Ang^3)
      XXXX     -87.9808   XXXY     -48.0336   XXYY    -109.8028
      XYYY     -26.3302   YYYY    -488.3553   XXXZ      -2.9966
      XXYZ      -6.3354   XYYZ       4.1426   YYYZ      -5.4742
      XXZZ     -71.1020   XYZZ      -7.4803   YYZZ    -120.9400
      XZZZ      -0.9499   YZZZ     -15.8096   ZZZZ    -307.9371
 -----------------------------------------------------------------
 Total job time:  10.24s(wall), 552.43s(cpu) 
 Wed Dec 27 10:07:44 2023

        *************************************************************
        *                                                           *
        *  Thank you very much for using Q-Chem.  Have a nice day.  *
        *                                                           *
        *************************************************************


0 sent ACK to 0 
now end server 0 ... 
cleanup process ... done
remove work dirs ./qchem2797319.0 -- ./qchem2797319.0
rm -rf ./qchem2797319.0
rm -rf ./qchem2797319
