You are running Q-Chem version: 5.4.0

#
# job setting
#
local host:  exp-6-47
current dir: /home/rramji/project-csd799/aromodel/pndit-qchem/methylated-rotation-run
input file:  Dimethyl_Naphthalene_Dicarboximide_Phi_25_Theta_320_Thiophene_Hydrogenated_Improper.qcin
output file: 
nprocs     : 1
nthreads   : 64
#
# qchem installation setting
#
QC:          /cm/shared/apps/spack/cpu/opt/spack/linux-centos8-zen2/gcc-10.2.0/qchem-5.4-akfmr7b3t57bfs6qan3padb2wnb2i7cl
QCAUX:       /cm/shared/apps/spack/cpu/opt/spack/linux-centos8-zen2/gcc-10.2.0/qchem-5.4-akfmr7b3t57bfs6qan3padb2wnb2i7cl/qcaux
QCPROG:      /cm/shared/apps/spack/cpu/opt/spack/linux-centos8-zen2/gcc-10.2.0/qchem-5.4-akfmr7b3t57bfs6qan3padb2wnb2i7cl/exe/qcprog.exe
QCPROG_S:    /cm/shared/apps/spack/cpu/opt/spack/linux-centos8-zen2/gcc-10.2.0/qchem-5.4-akfmr7b3t57bfs6qan3padb2wnb2i7cl/exe/qcprog.exe_s
PARALLEL:    -DPARALLEL
QCMPI:       mpich
#
# qchem directory setting
#
qcrun:       qchem2759760
QCSCRATCH:   .
QCLOCALSCR:  
QCTMPDIR:    .
QCFILEPREF:  ./qchem2759760
QCSAVEDIR:   
workdirs:    ./qchem2759760
workdir0:    ./qchem2759760
partmpdirs =  
#
# parallel setting
#
QCRSH:           ssh
QCMPI:           mpich
QCMPIRUN:        /cm/shared/apps/spack/cpu/opt/spack/linux-centos8-zen2/gcc-10.2.0/qchem-5.4-akfmr7b3t57bfs6qan3padb2wnb2i7cl/bin/mpi/mpirun_qchem
QCMACHINEFILE:   ./qchem2759760/hostfile
exp-6-47

#
# env setting
#
exported envs:   QC QCAUX QCSCRATCH QCRUNNAME QCFILEPREF QCPROG QCPROG_S GUIFILE

Running Job 1 of 1 Dimethyl_Naphthalene_Dicarboximide_Phi_25_Theta_320_Thiophene_Hydrogenated_Improper.qcin
qchem Dimethyl_Naphthalene_Dicarboximide_Phi_25_Theta_320_Thiophene_Hydrogenated_Improper.qcin_2759760.0 ./qchem2759760/ 1
/cm/shared/apps/spack/cpu/opt/spack/linux-centos8-zen2/gcc-10.2.0/qchem-5.4-akfmr7b3t57bfs6qan3padb2wnb2i7cl/bin/mpi/mpirun_qchem -machinefile ./qchem2759760/hostfile -np 1 /cm/shared/apps/spack/cpu/opt/spack/linux-centos8-zen2/gcc-10.2.0/qchem-5.4-akfmr7b3t57bfs6qan3padb2wnb2i7cl/exe/qcprog.exe Dimethyl_Naphthalene_Dicarboximide_Phi_25_Theta_320_Thiophene_Hydrogenated_Improper.qcin_2759760.0 ./qchem2759760/

Process 0 of 1 is on exp-6-47 - thread support 0
initial socket setup ...start
initial socket setup ...done 
now start server 0 ... 
                  Welcome to Q-Chem
     A Quantum Leap Into The Future Of Chemistry


 Q-Chem 5.4, Q-Chem, Inc., Pleasanton, CA (2021)

 License issued to: University of California, San Diego (site)

 E. Epifanovsky,  A. T. B. Gilbert,  Xintian Feng,  Joonho Lee,  Yuezhi Mao,  
 N. Mardirossian,  P. Pokhilko,  A. White,  M. Wormit,  M. P. Coons,  
 A. L. Dempwolff,  Zhengting Gan,  D. Hait,  P. R. Horn,  L. D. Jacobson,  
 I. Kaliman,  J. Kussmann,  A. W. Lange,  Ka Un Lao,  D. S. Levine,  Jie Liu,  
 S. C. McKenzie,  A. F. Morrison,  K. Nanda,  F. Plasser,  D. R. Rehn,  
 M. L. Vidal,  Zhi-Qiang You,  Ying Zhu,  B. Alam,  B. Albrecht,  
 A. Aldossary,  E. Alguire,  J. H. Andersen,  D. Barton,  K. Begam,  A. Behn,  
 Y. A. Bernard,  E. J. Berquist,  H. Burton,  A. Carreras,  K. Carter-Fenk,  
 R. Chakraborty,  A. D. Chien,  K. D. Closser,  V. Cofer-Shabica,  
 S. Dasgupta,  Jia Deng,  M. de Wergifosse,  M. Diedenhofen,  Hainam Do,  
 S. Ehlert,  Po-Tung Fang,  S. Fatehi,  Qingguo Feng,  J. Gayvert,  
 Qinghui Ge,  G. Gidofalvi,  M. Goldey,  J. Gomes,  C. Gonzalez-Espinoza,  
 S. Gulania,  A. Gunina,  M. W. D. Hanson-Heine,  P. H. P. Harbach,  
 A. W. Hauser,  M. F. Herbst,  M. Hernandez Vera,  M. Hodecker,  
 Z. C. Holden,  S. Houck,  Xunkun Huang,  Kerwin Hui,  B. C. Huynh,  
 M. Ivanov,  Hyunjun Ji,  Hanjie Jiang,  B. Kaduk,  S. Kaehler,  
 K. Khistyaev,  Jaehoon Kim,  P. Klunzinger,  Z. Koczor-Benda,  
 Joong Hoon Koh,  D. Kosenkov,  L. Koulias,  T. Kowalczyk,  C. M. Krauter,  
 K. Kue,  A. Kunitsa,  T. Kus,  A. Landau,  K. V. Lawler,  D. Lefrancois,  
 S. Lehtola,  Rain Li,  Yi-Pei Li,  Jiashu Liang,  M. Liebenthal,  
 Hung-Hsuan Lin,  You-Sheng Lin,  Fenglai Liu,  Kuan-Yu Liu,  
 M. Loipersberger,  A. Luenser,  A. Manjanath,  P. Manohar,  E. Mansoor,  
 S. F. Manzer,  Shan-Ping Mao,  A. V. Marenich,  T. Markovich,  S. Mason,  
 S. A. Maurer,  P. F. McLaughlin,  M. F. S. J. Menger,  J.-M. Mewes,  
 S. A. Mewes,  P. Morgante,  J. W. Mullinax,  T. S. Nguyen-Beck,  
 K. J. Oosterbaan,  G. Paran,  Alexander C. Paul,  Suranjan K. Paul,  
 F. Pavosevic,  Zheng Pei,  S. Prager,  E. I. Proynov,  E. Ramos,  B. Rana,  
 A. E. Rask,  A. Rettig,  R. M. Richard,  F. Rob,  E. Rossomme,  T. Scheele,  
 M. Scheurer,  M. Schneider,  N. Sergueev,  S. M. Sharada,  W. Skomorowski,  
 D. W. Small,  C. J. Stein,  Yu-Chuan Su,  E. J. Sundstrom,  Zhen Tao,  
 J. Thirman,  T. Tsuchimochi,  N. M. Tubman,  S. P. Veccham,  O. Vydrov,  
 J. Wenzel,  J. Witte,  A. Yamada,  Kun Yao,  S. Yeganeh,  S. R. Yost,  
 A. Zech,  Igor Ying Zhang,  Xing Zhang,  Yu Zhang,  D. Zuev,  
 A. Aspuru-Guzik,  A. T. Bell,  N. A. Besley,  K. B. Bravaya,  B. R. Brooks,  
 D. Casanova,  Jeng-Da Chai,  S. Coriani,  C. J. Cramer,  
 A. E. DePrince, III,  R. A. DiStasio Jr.,  A. Dreuw,  B. D. Dunietz,  
 T. R. Furlani,  W. A. Goddard III,  S. Grimme,  S. Hammes-Schiffer,  
 T. Head-Gordon,  W. J. Hehre,  Chao-Ping Hsu,  T.-C. Jagau,  Yousung Jung,  
 A. Klamt,  Jing Kong,  D. S. Lambrecht,  WanZhen Liang,  N. J. Mayhall,  
 C. W. McCurdy,  J. B. Neaton,  C. Ochsenfeld,  J. A. Parkhill,  R. Peverati,  
 V. A. Rassolov,  Yihan Shao,  L. V. Slipchenko,  T. Stauch,  R. P. Steele,  
 J. E. Subotnik,  A. J. W. Thom,  A. Tkatchenko,  D. G. Truhlar,  
 T. Van Voorhis,  T. A. Wesolowski,  K. B. Whaley,  H. L. Woodcock III,  
 P. M. Zimmerman,  S. Faraji,  P. M. W. Gill,  M. Head-Gordon,  
 J. M. Herbert,  A. I. Krylov

 Contributors to earlier versions of Q-Chem not listed above: 
 R. D. Adamson,  B. Austin,  R. Baer,  J. Baker,  G. J. O. Beran,  
 K. Brandhorst,  S. T. Brown,  E. F. C. Byrd,  A. K. Chakraborty,  
 G. K. L. Chan,  Chun-Min Chang,  Yunqing Chen,  C.-L. Cheng,  
 Siu Hung Chien,  D. M. Chipman,  D. L. Crittenden,  H. Dachsel,  
 R. J. Doerksen,  A. D. Dutoi,  R. G. Edgar,  J. Fosso-Tande,  
 L. Fusti-Molnar,  D. Ghosh,  A. Ghysels,  A. Golubeva-Zadorozhnaya,  
 J. Gonthier,  M. S. Gordon,  S. R. Gwaltney,  G. Hawkins,  J. E. Herr,  
 A. Heyden,  S. Hirata,  E. G. Hohenstein,  G. Kedziora,  F. J. Keil,  
 C. Kelley,  Jihan Kim,  R. A. King,  R. Z. Khaliullin,  P. P. Korambath,  
 W. Kurlancheek,  A. Laurent,  A. M. Lee,  M. S. Lee,  S. V. Levchenko,  
 Ching Yeh Lin,  D. Liotard,  E. Livshits,  R. C. Lochan,  I. Lotan,  
 L. A. Martinez-Martinez,  P. E. Maslen,  N. Nair,  D. P. O'Neill,  
 D. Neuhauser,  E. Neuscamman,  C. M. Oana,  R. Olivares-Amaya,  R. Olson,  
 T. M. Perrine,  B. Peters,  P. A. Pieniazek,  A. Prociuk,  Y. M. Rhee,  
 J. Ritchie,  M. A. Rohrdanz,  E. Rosta,  N. J. Russ,  H. F. Schaefer III,  
 M. W. Schmidt,  N. E. Schultz,  S. Sharma,  N. Shenvi,  C. D. Sherrill,  
 A. C. Simmonett,  A. Sodt,  T. Stein,  D. Stuck,  K. S. Thanthiriwatte,  
 V. Vanovschi,  L. Vogt,  Tao Wang,  A. Warshel,  M. A. Watson,  
 C. F. Williams,  Q. Wu,  X. Xu,  Jun Yang,  W. Zhang,  Yan Zhao

 Please cite Q-Chem as follows:
 Y. Shao et al., Mol. Phys. 113, 184-215 (2015)
 DOI: 10.1080/00268976.2014.952696

 Q-Chem 5.4.0 for Intel X86 EM64T Linux

 Parts of Q-Chem use Armadillo 9.800.1 (Horizon Scraper).
 http://arma.sourceforge.net/

 Q-Chem begins on Wed Dec 27 10:07:02 2023  

 Host: 
0

     Scratch files written to ./qchem2759760//
 May1621 |scratch|qcdevops|jenkins|workspace|build_RNUM    
 Parallel job on  1  processors
 Processing $rem in /cm/shared/apps/spack/cpu/opt/spack/linux-centos8-zen2/gcc-10.2.0/qchem-5.4-akfmr7b3t57bfs6qan3padb2wnb2i7cl/config/preferences:
 Processing $rem in /home/rramji/.qchemrc:
 Symmetry turned off for PCM/SM12/SMD calculation
 Core orbitals will be frozen

 Checking the input file for inconsistencies... 	...done.

 Q-Chem warning in module forms1/BasisType.C, line 2236:

 You are not using the predefined 5D/6D in this basis set.


--------------------------------------------------------------
User input:
--------------------------------------------------------------
$molecule
0 1
C	-0.223859	-0.350804	-0.211595
S	0.111141	0.368096	1.368905
C	0.803241	1.852396	0.693305
C	0.197741	0.553796	-1.196995
C	0.755641	1.750296	-0.705095
H	0.098141	0.340196	-2.271495
H	1.127841	2.548796	-1.364195
C	-0.223859	-1.829004	-0.211595
H	0.603841	-1.829604	-0.905395
H	0.410341	-2.268304	0.544205
H	-0.746559	-2.540004	-0.834295
H	1.175341	2.650596	1.344405
$end

$rem
JOBTYPE		SP
EXCHANGE	HF
CORRELATION	pRIMP2
BASIS		cc-pvtz
METHOD		rimp2
AUX_BASIS	rimp2-cc-pvtz
SOLVENT_METHOD	PCM
PURECART	11111
SYMMETRY	false
MEM_TOTAL	110000
SCF_CONVERGENCE = 6
THRESH=10
GUI = 2
$end



$solvent
dielectric 4.90
$end
--------------------------------------------------------------
 ----------------------------------------------------------------
             Standard Nuclear Orientation (Angstroms)
    I     Atom           X                Y                Z
 ----------------------------------------------------------------
    1      C      -0.2238590000    -0.3508040000    -0.2115950000
    2      S       0.1111410000     0.3680960000     1.3689050000
    3      C       0.8032410000     1.8523960000     0.6933050000
    4      C       0.1977410000     0.5537960000    -1.1969950000
    5      C       0.7556410000     1.7502960000    -0.7050950000
    6      H       0.0981410000     0.3401960000    -2.2714950000
    7      H       1.1278410000     2.5487960000    -1.3641950000
    8      C      -0.2238590000    -1.8290040000    -0.2115950000
    9      H       0.6038410000    -1.8296040000    -0.9053950000
   10      H       0.4103410000    -2.2683040000     0.5442050000
   11      H      -0.7465590000    -2.5400040000    -0.8342950000
   12      H       1.1753410000     2.6505960000     1.3444050000
 ----------------------------------------------------------------
 Nuclear Repulsion Energy =         271.31760810 hartrees
 There are       26 alpha and       26 beta electrons
 Requested basis set is cc-pVTZ
 There are 98 shells and 268 basis functions

 Total QAlloc Memory Limit 110000 MB
 Mega-Array Size       188 MB
 MEM_STATIC part       192 MB
 Discretize the solute cavity surface with Lebedev spheres
	Using 110 Lebedev grid points for each H atom
	Using 194 Lebedev grid points for other atoms
	Atomic van der Waals radii will be scaled by 1.20
 Remove points where switching function is < 1.0e-08
 Keep 883 surface tesserae and discard 941 interior tesserae
 Molecular Surface Area = 137.699 Angst**2

                       Distance Matrix (Angstroms)
             C (  1)   S (  2)   C (  3)   C (  4)   C (  5)   H (  6)
   S (  2)  1.768339
   C (  3)  2.593814  1.771605
   C (  4)  1.402519  2.574068  2.371967
   C (  5)  2.370144  2.574361  1.402930  1.408840
   H (  6)  2.196441  3.640530  3.402051  1.100043  2.207781
   H (  7)  3.400479  3.641286  2.196280  2.207502  1.100249  2.600267
   C (  8)  1.478200  2.727170  3.927656  2.612756  3.743575  3.008704
   H (  9)  1.831200  3.200794  4.019045  2.435271  3.588711  2.613426
   H ( 10)  2.156444  2.778535  4.142073  3.322834  4.222455  3.850962
   H ( 11)  2.335287  3.747904  4.901900  3.254973  4.547524  3.327854
   H ( 12)  3.658866  2.518517  1.095223  3.436712  2.277529  4.424143
             H (  7)   C (  8)   H (  9)   H ( 10)   H ( 11)
   C (  8)  4.724480
   H (  9)  4.433448  1.080021
   H ( 10)  5.230798  1.080013  1.526840
   H ( 11)  5.448858  1.080042  1.527515  1.820028
   H ( 12)  2.710929  4.944261  5.045830  5.041936  5.948341
 
 Requested basis set is rimp2-cc-pVTZ
 There are 207 shells and 707 basis functions
 A cutoff of  1.0D-10 yielded   4391 shell pairs
 There are     32981 function pairs (     42654 Cartesian)
 Smallest overlap matrix eigenvalue = 1.49E-04

 Scale SEOQF with 1.000000e+00/1.000000e-01/1.000000e-01

 Standard Electronic Orientation quadrupole field applied
 Nucleus-field energy     =     0.0000000050 hartrees
 Guess from superposition of atomic densities
 Warning:  Energy on first SCF cycle will be non-variational
 SAD guess density has 52.000000 electrons

 -----------------------------------------------------------------------
  General SCF calculation program by
  Eric Jon Sundstrom, Paul Horn, Yuezhi Mao, Dmitri Zuev, Alec White,
  David Stuck, Shaama M.S., Shane Yost, Joonho Lee, David Small,
  Daniel Levine, Susi Lehtola, Hugh Burton, Evgeny Epifanovsky,
  Bang C. Huynh
 -----------------------------------------------------------------------
 Hartree-Fock
 using 64 threads for integral computing
 -------------------------------------------------------
 OpenMP Integral computing Module                
 Release: version 1.0, May 2013, Q-Chem Inc. Pittsburgh 
 -------------------------------------------------------
 A restricted SCF calculation will be
 performed using DIIS
 SCF converges when DIIS error is below 1.0e-06
 ---------------------------------------
  Cycle       Energy         DIIS error
 ---------------------------------------
    1    -592.5917125691      3.23e-02  
    2    -590.2917832244      2.18e-03  
    3    -590.3525410873      8.15e-04  
    4    -590.3595446640      3.90e-04  
    5    -590.3614689715      7.12e-05  
    6    -590.3615907349      3.15e-05  
    7    -590.3616212947      1.47e-05  
    8    -590.3616311114      5.89e-06  
    9    -590.3616327947      2.08e-06  
   10    -590.3616329630      6.25e-07  Convergence criterion met
 ---------------------------------------
 SCF time:   CPU 501.87s  wall 9.00s 

************** Final PCM Free Energy Summary **************
 G_electrostatic  =      -0.00560378 hartree =      -3.51642325 kcal/mol
 G_cavitation     =       0.00000000 hartree =       0.00000000 kcal/mol
 G_dispersion     =       0.00000000 hartree =       0.00000000 kcal/mol
 G_repulsion      =       0.00000000 hartree =       0.00000000 kcal/mol
 --------------------------------------------------
 Non-electrostatic Free Energy =       0.00000000 hartree =       0.00000000 kcal/mol
 Total                         =      -0.00560378 hartree =      -3.51642325 kcal/mol
 --------------------------------------------------
 SCF Energy (H0 + V/2)                       =    -590.36163296 
 Solute Internal Energy (H0)                 =    -590.35602919 
 Total Free Energy (H0 + V/2 + non-elec)     =    -590.36163296 hartree
                                             = -370457.51599931 kcal/mol
***********************************************************

 SCF   energy in the final basis set =     -590.3616329630
 Total energy in the final basis set =     -590.3616329630


 --------------------------------------------------------------
  Generalized many-body perturbation theory program
  by Joonho Lee, Fazle Rob, Xintian Feng, Evgeny Epifanovsky

 No regularization used 
 (reg. param. = 0.0000e+00)
  (P|Q)^-1/2 Time:  CPU 5.53 s  wall 0.09 s

 In RI-MP2 calculation: 
 # of frozen core orbitals: 10

 Components of the RIMP2 correlation energy:
        aaaa    correlation energy =        -0.1257158203 a.u.
        abab    correlation energy =        -0.7523950143 a.u.
        bbbb    correlation energy =        -0.1257158203 a.u.
        non-Brillouin singles      =        -0.0000000000 a.u.
        total same-spin energy     =        -0.2514316407 a.u.
        total opposite-spin energy =        -0.7523950143 a.u.

 Total  RIMP2   correlation energy =        -1.0038266549 a.u.
        RIMP2         total energy =      -591.3654596179 a.u.

 RI-MP2 Energy Time:  CPU 24.83 s  wall 0.45 s
 
 --------------------------------------------------------------
 
                    Orbital Energies (a.u.)
 --------------------------------------------------------------
 
 Alpha MOs
 -- Occupied --
-91.9786 -11.2858 -11.2664 -11.2432 -11.2352 -11.2239  -8.9784  -6.6593
 -6.6588  -6.6582  -1.1590  -1.0387  -0.9729  -0.9160  -0.7554  -0.7236
 -0.6713  -0.5970  -0.5674  -0.5545  -0.5454  -0.4914  -0.4714  -0.4516
 -0.3450  -0.3019
 -- Virtual --
  0.0972   0.1528   0.1611   0.1803   0.1856   0.1929   0.2174   0.2263
  0.2364   0.2482   0.3146   0.3332   0.3475   0.3731   0.3850   0.4041
  0.4295   0.4489   0.4619   0.4763   0.4917   0.5150   0.5181   0.5282
  0.5454   0.5501   0.5559   0.5856   0.6014   0.6084   0.6167   0.6194
  0.6329   0.6425   0.6478   0.6615   0.7006   0.7018   0.7157   0.7572
  0.7798   0.7957   0.8363   0.8431   0.8595   0.8791   0.9007   0.9121
  0.9225   0.9747   1.0215   1.0575   1.0682   1.0848   1.0987   1.1343
  1.1524   1.1700   1.1849   1.2058   1.2202   1.2248   1.2349   1.2738
  1.2919   1.3112   1.3309   1.3360   1.3717   1.4008   1.4180   1.4552
  1.4575   1.4887   1.5092   1.5154   1.5359   1.5526   1.5576   1.5718
  1.5987   1.6127   1.6497   1.6767   1.6993   1.7380   1.7796   1.8028
  1.8227   1.8975   1.9073   1.9107   1.9611   1.9931   2.0320   2.1045
  2.1349   2.1712   2.2097   2.2147   2.2465   2.2709   2.3047   2.4143
  2.4280   2.4535   2.4765   2.5266   2.5869   2.6004   2.6065   2.6663
  2.6759   2.7033   2.7242   2.7342   2.7543   2.7883   2.8027   2.8467
  2.8662   2.9032   2.9234   2.9427   2.9953   3.0224   3.0282   3.0398
  3.0775   3.1019   3.1188   3.1443   3.1730   3.1934   3.2102   3.2352
  3.2414   3.2717   3.2855   3.3177   3.3306   3.3436   3.3562   3.3783
  3.3937   3.4098   3.4464   3.4557   3.4575   3.4769   3.4965   3.5069
  3.5219   3.5308   3.5386   3.5748   3.6009   3.6229   3.6259   3.6649
  3.6745   3.6873   3.7164   3.7305   3.7646   3.7728   3.8121   3.8396
  3.8591   3.8884   3.9062   3.9161   3.9403   3.9536   3.9747   4.0011
  4.0136   4.0459   4.0737   4.1014   4.1220   4.1574   4.1710   4.2262
  4.2453   4.2534   4.2808   4.2948   4.3183   4.3671   4.3711   4.3820
  4.4218   4.4607   4.4763   4.4951   4.5507   4.5879   4.6212   4.6463
  4.6622   4.7167   4.7193   4.7580   4.7882   4.8052   4.8303   4.8930
  4.9089   5.0011   5.0170   5.0291   5.0861   5.1656   5.1759   5.1995
  5.2075   5.3035   5.3542   5.4259   5.4344   5.4897   5.5259   5.5745
  5.6210   5.7161   5.7851   5.8435   5.8686   5.9022   5.9893   6.0708
  6.1019   6.3208   6.4035   6.4499   6.6195   9.3811  11.3697  12.7587
 13.9611  14.0141
 --------------------------------------------------------------
 
          Ground-State Mulliken Net Atomic Charges

     Atom                 Charge (a.u.)
  ----------------------------------------
      1 C                     0.013910
      2 S                     0.001081
      3 C                    -0.232743
      4 C                    -0.218792
      5 C                    -0.196795
      6 H                     0.179576
      7 H                     0.186550
      8 C                    -0.369790
      9 H                     0.141245
     10 H                     0.137773
     11 H                     0.154440
     12 H                     0.203544
  ----------------------------------------
  Sum of atomic charges =     0.000000

 -----------------------------------------------------------------
                    Cartesian Multipole Moments
 -----------------------------------------------------------------
    Charge (ESU x 10^10)
                -0.0000
    Dipole Moment (Debye)
         X       1.0882      Y      -0.5772      Z      -1.5042
       Tot       1.9442
    Quadrupole Moments (Debye-Ang)
        XX     -46.7046     XY       2.4282     YY     -37.9565
        XZ       0.5415     YZ       1.8029     ZZ     -41.5973
    Octopole Moments (Debye-Ang^2)
       XXX     -32.6428    XXY     -14.3930    XYY       0.0263
       YYY     -40.3873    XXZ      -6.5230    XYZ       0.3102
       YYZ      -6.6857    XZZ      -7.1218    YZZ      -9.7142
       ZZZ     -27.9273
    Hexadecapole Moments (Debye-Ang^3)
      XXXX    -125.0510   XXXY     -71.2474   XXYY     -98.4472
      XYYY     -44.6366   YYYY    -466.5550   XXXZ      -4.1486
      XXYZ      -5.1525   XYYZ       5.3355   YYYZ      -6.3878
      XXZZ     -73.6463   XYZZ     -12.2522   YYZZ    -118.3772
      XZZZ      -2.1393   YZZZ     -16.3662   ZZZZ    -307.6169
 -----------------------------------------------------------------
 Total job time:  10.43s(wall), 567.39s(cpu) 
 Wed Dec 27 10:07:12 2023

        *************************************************************
        *                                                           *
        *  Thank you very much for using Q-Chem.  Have a nice day.  *
        *                                                           *
        *************************************************************


0 sent ACK to 0 
now end server 0 ... 
cleanup process ... done
remove work dirs ./qchem2759760.0 -- ./qchem2759760.0
rm -rf ./qchem2759760.0
rm -rf ./qchem2759760
