You are running Q-Chem version: 5.4.0

#
# job setting
#
local host:  exp-4-42
current dir: /home/rramji/project-csd799/aromodel/pndit-qchem/methylated-rotation-run
input file:  Dimethyl_Naphthalene_Dicarboximide_Phi_15_Theta_100_Thiophene_Hydrogenated_Improper.qcin
output file: 
nprocs     : 1
nthreads   : 64
#
# qchem installation setting
#
QC:          /cm/shared/apps/spack/cpu/opt/spack/linux-centos8-zen2/gcc-10.2.0/qchem-5.4-akfmr7b3t57bfs6qan3padb2wnb2i7cl
QCAUX:       /cm/shared/apps/spack/cpu/opt/spack/linux-centos8-zen2/gcc-10.2.0/qchem-5.4-akfmr7b3t57bfs6qan3padb2wnb2i7cl/qcaux
QCPROG:      /cm/shared/apps/spack/cpu/opt/spack/linux-centos8-zen2/gcc-10.2.0/qchem-5.4-akfmr7b3t57bfs6qan3padb2wnb2i7cl/exe/qcprog.exe
QCPROG_S:    /cm/shared/apps/spack/cpu/opt/spack/linux-centos8-zen2/gcc-10.2.0/qchem-5.4-akfmr7b3t57bfs6qan3padb2wnb2i7cl/exe/qcprog.exe_s
PARALLEL:    -DPARALLEL
QCMPI:       mpich
#
# qchem directory setting
#
qcrun:       qchem2789931
QCSCRATCH:   .
QCLOCALSCR:  
QCTMPDIR:    .
QCFILEPREF:  ./qchem2789931
QCSAVEDIR:   
workdirs:    ./qchem2789931
workdir0:    ./qchem2789931
partmpdirs =  
#
# parallel setting
#
QCRSH:           ssh
QCMPI:           mpich
QCMPIRUN:        /cm/shared/apps/spack/cpu/opt/spack/linux-centos8-zen2/gcc-10.2.0/qchem-5.4-akfmr7b3t57bfs6qan3padb2wnb2i7cl/bin/mpi/mpirun_qchem
QCMACHINEFILE:   ./qchem2789931/hostfile
exp-4-42

#
# env setting
#
exported envs:   QC QCAUX QCSCRATCH QCRUNNAME QCFILEPREF QCPROG QCPROG_S GUIFILE

Running Job 1 of 1 Dimethyl_Naphthalene_Dicarboximide_Phi_15_Theta_100_Thiophene_Hydrogenated_Improper.qcin
qchem Dimethyl_Naphthalene_Dicarboximide_Phi_15_Theta_100_Thiophene_Hydrogenated_Improper.qcin_2789931.0 ./qchem2789931/ 1
/cm/shared/apps/spack/cpu/opt/spack/linux-centos8-zen2/gcc-10.2.0/qchem-5.4-akfmr7b3t57bfs6qan3padb2wnb2i7cl/bin/mpi/mpirun_qchem -machinefile ./qchem2789931/hostfile -np 1 /cm/shared/apps/spack/cpu/opt/spack/linux-centos8-zen2/gcc-10.2.0/qchem-5.4-akfmr7b3t57bfs6qan3padb2wnb2i7cl/exe/qcprog.exe Dimethyl_Naphthalene_Dicarboximide_Phi_15_Theta_100_Thiophene_Hydrogenated_Improper.qcin_2789931.0 ./qchem2789931/

Process 0 of 1 is on exp-4-42 - thread support 0
initial socket setup ...start
initial socket setup ...done 
now start server 0 ... 
                  Welcome to Q-Chem
     A Quantum Leap Into The Future Of Chemistry


 Q-Chem 5.4, Q-Chem, Inc., Pleasanton, CA (2021)

 License issued to: University of California, San Diego (site)

 E. Epifanovsky,  A. T. B. Gilbert,  Xintian Feng,  Joonho Lee,  Yuezhi Mao,  
 N. Mardirossian,  P. Pokhilko,  A. White,  M. Wormit,  M. P. Coons,  
 A. L. Dempwolff,  Zhengting Gan,  D. Hait,  P. R. Horn,  L. D. Jacobson,  
 I. Kaliman,  J. Kussmann,  A. W. Lange,  Ka Un Lao,  D. S. Levine,  Jie Liu,  
 S. C. McKenzie,  A. F. Morrison,  K. Nanda,  F. Plasser,  D. R. Rehn,  
 M. L. Vidal,  Zhi-Qiang You,  Ying Zhu,  B. Alam,  B. Albrecht,  
 A. Aldossary,  E. Alguire,  J. H. Andersen,  D. Barton,  K. Begam,  A. Behn,  
 Y. A. Bernard,  E. J. Berquist,  H. Burton,  A. Carreras,  K. Carter-Fenk,  
 R. Chakraborty,  A. D. Chien,  K. D. Closser,  V. Cofer-Shabica,  
 S. Dasgupta,  Jia Deng,  M. de Wergifosse,  M. Diedenhofen,  Hainam Do,  
 S. Ehlert,  Po-Tung Fang,  S. Fatehi,  Qingguo Feng,  J. Gayvert,  
 Qinghui Ge,  G. Gidofalvi,  M. Goldey,  J. Gomes,  C. Gonzalez-Espinoza,  
 S. Gulania,  A. Gunina,  M. W. D. Hanson-Heine,  P. H. P. Harbach,  
 A. W. Hauser,  M. F. Herbst,  M. Hernandez Vera,  M. Hodecker,  
 Z. C. Holden,  S. Houck,  Xunkun Huang,  Kerwin Hui,  B. C. Huynh,  
 M. Ivanov,  Hyunjun Ji,  Hanjie Jiang,  B. Kaduk,  S. Kaehler,  
 K. Khistyaev,  Jaehoon Kim,  P. Klunzinger,  Z. Koczor-Benda,  
 Joong Hoon Koh,  D. Kosenkov,  L. Koulias,  T. Kowalczyk,  C. M. Krauter,  
 K. Kue,  A. Kunitsa,  T. Kus,  A. Landau,  K. V. Lawler,  D. Lefrancois,  
 S. Lehtola,  Rain Li,  Yi-Pei Li,  Jiashu Liang,  M. Liebenthal,  
 Hung-Hsuan Lin,  You-Sheng Lin,  Fenglai Liu,  Kuan-Yu Liu,  
 M. Loipersberger,  A. Luenser,  A. Manjanath,  P. Manohar,  E. Mansoor,  
 S. F. Manzer,  Shan-Ping Mao,  A. V. Marenich,  T. Markovich,  S. Mason,  
 S. A. Maurer,  P. F. McLaughlin,  M. F. S. J. Menger,  J.-M. Mewes,  
 S. A. Mewes,  P. Morgante,  J. W. Mullinax,  T. S. Nguyen-Beck,  
 K. J. Oosterbaan,  G. Paran,  Alexander C. Paul,  Suranjan K. Paul,  
 F. Pavosevic,  Zheng Pei,  S. Prager,  E. I. Proynov,  E. Ramos,  B. Rana,  
 A. E. Rask,  A. Rettig,  R. M. Richard,  F. Rob,  E. Rossomme,  T. Scheele,  
 M. Scheurer,  M. Schneider,  N. Sergueev,  S. M. Sharada,  W. Skomorowski,  
 D. W. Small,  C. J. Stein,  Yu-Chuan Su,  E. J. Sundstrom,  Zhen Tao,  
 J. Thirman,  T. Tsuchimochi,  N. M. Tubman,  S. P. Veccham,  O. Vydrov,  
 J. Wenzel,  J. Witte,  A. Yamada,  Kun Yao,  S. Yeganeh,  S. R. Yost,  
 A. Zech,  Igor Ying Zhang,  Xing Zhang,  Yu Zhang,  D. Zuev,  
 A. Aspuru-Guzik,  A. T. Bell,  N. A. Besley,  K. B. Bravaya,  B. R. Brooks,  
 D. Casanova,  Jeng-Da Chai,  S. Coriani,  C. J. Cramer,  
 A. E. DePrince, III,  R. A. DiStasio Jr.,  A. Dreuw,  B. D. Dunietz,  
 T. R. Furlani,  W. A. Goddard III,  S. Grimme,  S. Hammes-Schiffer,  
 T. Head-Gordon,  W. J. Hehre,  Chao-Ping Hsu,  T.-C. Jagau,  Yousung Jung,  
 A. Klamt,  Jing Kong,  D. S. Lambrecht,  WanZhen Liang,  N. J. Mayhall,  
 C. W. McCurdy,  J. B. Neaton,  C. Ochsenfeld,  J. A. Parkhill,  R. Peverati,  
 V. A. Rassolov,  Yihan Shao,  L. V. Slipchenko,  T. Stauch,  R. P. Steele,  
 J. E. Subotnik,  A. J. W. Thom,  A. Tkatchenko,  D. G. Truhlar,  
 T. Van Voorhis,  T. A. Wesolowski,  K. B. Whaley,  H. L. Woodcock III,  
 P. M. Zimmerman,  S. Faraji,  P. M. W. Gill,  M. Head-Gordon,  
 J. M. Herbert,  A. I. Krylov

 Contributors to earlier versions of Q-Chem not listed above: 
 R. D. Adamson,  B. Austin,  R. Baer,  J. Baker,  G. J. O. Beran,  
 K. Brandhorst,  S. T. Brown,  E. F. C. Byrd,  A. K. Chakraborty,  
 G. K. L. Chan,  Chun-Min Chang,  Yunqing Chen,  C.-L. Cheng,  
 Siu Hung Chien,  D. M. Chipman,  D. L. Crittenden,  H. Dachsel,  
 R. J. Doerksen,  A. D. Dutoi,  R. G. Edgar,  J. Fosso-Tande,  
 L. Fusti-Molnar,  D. Ghosh,  A. Ghysels,  A. Golubeva-Zadorozhnaya,  
 J. Gonthier,  M. S. Gordon,  S. R. Gwaltney,  G. Hawkins,  J. E. Herr,  
 A. Heyden,  S. Hirata,  E. G. Hohenstein,  G. Kedziora,  F. J. Keil,  
 C. Kelley,  Jihan Kim,  R. A. King,  R. Z. Khaliullin,  P. P. Korambath,  
 W. Kurlancheek,  A. Laurent,  A. M. Lee,  M. S. Lee,  S. V. Levchenko,  
 Ching Yeh Lin,  D. Liotard,  E. Livshits,  R. C. Lochan,  I. Lotan,  
 L. A. Martinez-Martinez,  P. E. Maslen,  N. Nair,  D. P. O'Neill,  
 D. Neuhauser,  E. Neuscamman,  C. M. Oana,  R. Olivares-Amaya,  R. Olson,  
 T. M. Perrine,  B. Peters,  P. A. Pieniazek,  A. Prociuk,  Y. M. Rhee,  
 J. Ritchie,  M. A. Rohrdanz,  E. Rosta,  N. J. Russ,  H. F. Schaefer III,  
 M. W. Schmidt,  N. E. Schultz,  S. Sharma,  N. Shenvi,  C. D. Sherrill,  
 A. C. Simmonett,  A. Sodt,  T. Stein,  D. Stuck,  K. S. Thanthiriwatte,  
 V. Vanovschi,  L. Vogt,  Tao Wang,  A. Warshel,  M. A. Watson,  
 C. F. Williams,  Q. Wu,  X. Xu,  Jun Yang,  W. Zhang,  Yan Zhao

 Please cite Q-Chem as follows:
 Y. Shao et al., Mol. Phys. 113, 184-215 (2015)
 DOI: 10.1080/00268976.2014.952696

 Q-Chem 5.4.0 for Intel X86 EM64T Linux

 Parts of Q-Chem use Armadillo 9.800.1 (Horizon Scraper).
 http://arma.sourceforge.net/

 Q-Chem begins on Wed Dec 27 10:02:28 2023  

 Host: 
0

     Scratch files written to ./qchem2789931//
 May1621 |scratch|qcdevops|jenkins|workspace|build_RNUM    
 Parallel job on  1  processors
 Processing $rem in /cm/shared/apps/spack/cpu/opt/spack/linux-centos8-zen2/gcc-10.2.0/qchem-5.4-akfmr7b3t57bfs6qan3padb2wnb2i7cl/config/preferences:
 Processing $rem in /home/rramji/.qchemrc:
 Symmetry turned off for PCM/SM12/SMD calculation
 Core orbitals will be frozen

 Checking the input file for inconsistencies... 	...done.

 Q-Chem warning in module forms1/BasisType.C, line 2236:

 You are not using the predefined 5D/6D in this basis set.


--------------------------------------------------------------
User input:
--------------------------------------------------------------
$molecule
0 1
C	-0.132265	-0.381707	-0.219778
S	0.072835	0.384493	1.360722
C	0.496635	1.966393	0.685122
C	0.125835	0.582293	-1.205178
C	0.467435	1.857593	-0.713278
H	0.064935	0.354693	-2.279678
H	0.695435	2.708493	-1.372378
C	-0.132265	-1.859907	-0.219778
H	-0.320365	-1.860507	0.843722
H	-1.103865	-2.299207	-0.391178
H	0.668435	-2.570907	-0.078778
H	0.724535	2.817093	1.336222
$end

$rem
JOBTYPE		SP
EXCHANGE	HF
CORRELATION	pRIMP2
BASIS		cc-pvtz
METHOD		rimp2
AUX_BASIS	rimp2-cc-pvtz
SOLVENT_METHOD	PCM
PURECART	11111
SYMMETRY	false
MEM_TOTAL	110000
SCF_CONVERGENCE = 6
THRESH=10
GUI = 2
$end



$solvent
dielectric 4.90
$end
--------------------------------------------------------------
 ----------------------------------------------------------------
             Standard Nuclear Orientation (Angstroms)
    I     Atom           X                Y                Z
 ----------------------------------------------------------------
    1      C      -0.1322650000    -0.3817070000    -0.2197780000
    2      S       0.0728350000     0.3844930000     1.3607220000
    3      C       0.4966350000     1.9663930000     0.6851220000
    4      C       0.1258350000     0.5822930000    -1.2051780000
    5      C       0.4674350000     1.8575930000    -0.7132780000
    6      H       0.0649350000     0.3546930000    -2.2796780000
    7      H       0.6954350000     2.7084930000    -1.3723780000
    8      C      -0.1322650000    -1.8599070000    -0.2197780000
    9      H      -0.3203650000    -1.8605070000     0.8437220000
   10      H      -1.1038650000    -2.2992070000    -0.3911780000
   11      H       0.6684350000    -2.5709070000    -0.0787780000
   12      H       0.7245350000     2.8170930000     1.3362220000
 ----------------------------------------------------------------
 Nuclear Repulsion Energy =         270.99160130 hartrees
 There are       26 alpha and       26 beta electrons
 Requested basis set is cc-pVTZ
 There are 98 shells and 268 basis functions

 Total QAlloc Memory Limit 110000 MB
 Mega-Array Size       188 MB
 MEM_STATIC part       192 MB
 Discretize the solute cavity surface with Lebedev spheres
	Using 110 Lebedev grid points for each H atom
	Using 194 Lebedev grid points for other atoms
	Atomic van der Waals radii will be scaled by 1.20
 Remove points where switching function is < 1.0e-08
 Keep 876 surface tesserae and discard 948 interior tesserae
 Molecular Surface Area = 137.262 Angst**2

                       Distance Matrix (Angstroms)
             C (  1)   S (  2)   C (  3)   C (  4)   C (  5)   H (  6)
   S (  2)  1.768363
   C (  3)  2.593826  1.771567
   C (  4)  1.402471  2.574058  2.372016
   C (  5)  2.370158  2.574337  1.402930  1.408917
   H (  6)  2.196443  3.640531  3.402055  1.100028  2.207787
   H (  7)  3.400428  3.641214  2.196256  2.207516  1.100194  2.600211
   C (  8)  1.478200  2.752704  3.981825  2.646124  3.797761  3.030929
   H (  9)  1.831192  2.337075  3.916351  3.219372  4.107207  3.848531
   H ( 10)  2.156430  3.414092  4.681385  3.236943  4.455527  3.460594
   H ( 11)  2.335294  3.340852  4.604362  3.392029  4.478237  3.710432
   H ( 12)  3.658902  2.518503  1.095244  3.436784  2.277541  4.424163
             H (  7)   C (  8)   H (  9)   H ( 10)   H ( 11)
   C (  8)  4.783707
   H (  9)  5.178678  1.080007
   H ( 10)  5.410850  1.079986  1.526862
   H ( 11)  5.435641  1.080057  1.527547  1.820017
   H ( 12)  2.710932  5.002956  4.818123  5.701183  5.570989
 
 Requested basis set is rimp2-cc-pVTZ
 There are 207 shells and 707 basis functions
 A cutoff of  1.0D-10 yielded   4379 shell pairs
 There are     32811 function pairs (     42428 Cartesian)
 Smallest overlap matrix eigenvalue = 1.38E-04

 Scale SEOQF with 1.000000e+00/1.000000e-01/1.000000e-01

 Standard Electronic Orientation quadrupole field applied
 Nucleus-field energy     =     0.0000000035 hartrees
 Guess from superposition of atomic densities
 Warning:  Energy on first SCF cycle will be non-variational
 SAD guess density has 52.000000 electrons

 -----------------------------------------------------------------------
  General SCF calculation program by
  Eric Jon Sundstrom, Paul Horn, Yuezhi Mao, Dmitri Zuev, Alec White,
  David Stuck, Shaama M.S., Shane Yost, Joonho Lee, David Small,
  Daniel Levine, Susi Lehtola, Hugh Burton, Evgeny Epifanovsky,
  Bang C. Huynh
 -----------------------------------------------------------------------
 Hartree-Fock
 using 64 threads for integral computing
 -------------------------------------------------------
 OpenMP Integral computing Module                
 Release: version 1.0, May 2013, Q-Chem Inc. Pittsburgh 
 -------------------------------------------------------
 A restricted SCF calculation will be
 performed using DIIS
 SCF converges when DIIS error is below 1.0e-06
 ---------------------------------------
  Cycle       Energy         DIIS error
 ---------------------------------------
    1    -592.5953547714      3.23e-02  
    2    -590.2954333176      2.18e-03  
    3    -590.3564391599      8.04e-04  
    4    -590.3634529657      3.80e-04  
    5    -590.3653312422      7.16e-05  
    6    -590.3654609510      3.07e-05  
    7    -590.3654934424      1.49e-05  
    8    -590.3655031892      5.84e-06  
    9    -590.3655047509      2.18e-06  
   10    -590.3655049157      6.20e-07  Convergence criterion met
 ---------------------------------------
 SCF time:   CPU 475.91s  wall 8.00s 

************** Final PCM Free Energy Summary **************
 G_electrostatic  =      -0.00520700 hartree =      -3.26743977 kcal/mol
 G_cavitation     =       0.00000000 hartree =       0.00000000 kcal/mol
 G_dispersion     =       0.00000000 hartree =       0.00000000 kcal/mol
 G_repulsion      =       0.00000000 hartree =       0.00000000 kcal/mol
 --------------------------------------------------
 Non-electrostatic Free Energy =       0.00000000 hartree =       0.00000000 kcal/mol
 Total                         =      -0.00520700 hartree =      -3.26743977 kcal/mol
 --------------------------------------------------
 SCF Energy (H0 + V/2)                       =    -590.36550492 
 Solute Internal Energy (H0)                 =    -590.36029792 
 Total Free Energy (H0 + V/2 + non-elec)     =    -590.36550492 hartree
                                             = -370459.94568628 kcal/mol
***********************************************************

 SCF   energy in the final basis set =     -590.3655049157
 Total energy in the final basis set =     -590.3655049157


 --------------------------------------------------------------
  Generalized many-body perturbation theory program
  by Joonho Lee, Fazle Rob, Xintian Feng, Evgeny Epifanovsky

 No regularization used 
 (reg. param. = 0.0000e+00)
  (P|Q)^-1/2 Time:  CPU 5.38 s  wall 0.09 s

 In RI-MP2 calculation: 
 # of frozen core orbitals: 10

 Components of the RIMP2 correlation energy:
        aaaa    correlation energy =        -0.1255684009 a.u.
        abab    correlation energy =        -0.7520485907 a.u.
        bbbb    correlation energy =        -0.1255684009 a.u.
        non-Brillouin singles      =        -0.0000000000 a.u.
        total same-spin energy     =        -0.2511368018 a.u.
        total opposite-spin energy =        -0.7520485907 a.u.

 Total  RIMP2   correlation energy =        -1.0031853925 a.u.
        RIMP2         total energy =      -591.3686903082 a.u.

 RI-MP2 Energy Time:  CPU 23.85 s  wall 0.45 s
 
 --------------------------------------------------------------
 
                    Orbital Energies (a.u.)
 --------------------------------------------------------------
 
 Alpha MOs
 -- Occupied --
-91.9805 -11.2801 -11.2712 -11.2432 -11.2378 -11.2225  -8.9804  -6.6612
 -6.6607  -6.6601  -1.1584  -1.0392  -0.9736  -0.9178  -0.7593  -0.7206
 -0.6717  -0.5962  -0.5693  -0.5624  -0.5379  -0.4954  -0.4627  -0.4485
 -0.3464  -0.3124
 -- Virtual --
  0.0991   0.1452   0.1608   0.1757   0.1923   0.1961   0.2065   0.2277
  0.2350   0.2853   0.3009   0.3107   0.3678   0.3748   0.3898   0.3969
  0.4276   0.4509   0.4561   0.4694   0.4925   0.5121   0.5312   0.5372
  0.5499   0.5642   0.5683   0.5850   0.6042   0.6064   0.6137   0.6254
  0.6284   0.6490   0.6499   0.6592   0.6822   0.7093   0.7351   0.7555
  0.7797   0.7919   0.8321   0.8623   0.8722   0.8804   0.8917   0.9259
  0.9465   0.9912   0.9978   1.0184   1.0633   1.0689   1.1120   1.1253
  1.1274   1.1544   1.1700   1.2066   1.2258   1.2353   1.2396   1.2618
  1.2815   1.3079   1.3383   1.3457   1.3741   1.4006   1.4286   1.4377
  1.4790   1.4886   1.4930   1.5292   1.5515   1.5654   1.5749   1.5858
  1.6017   1.6264   1.6455   1.6691   1.7032   1.7393   1.7520   1.8224
  1.8351   1.8931   1.9162   1.9364   1.9465   1.9636   2.0496   2.0951
  2.1453   2.1770   2.1985   2.2206   2.2455   2.2825   2.3342   2.4235
  2.4332   2.4695   2.4935   2.5167   2.5766   2.5948   2.6003   2.6578
  2.6797   2.7267   2.7324   2.7351   2.7451   2.7964   2.8173   2.8323
  2.8732   2.8841   2.9127   2.9475   2.9914   3.0167   3.0215   3.0657
  3.0868   3.1177   3.1371   3.1450   3.1710   3.1960   3.2051   3.2263
  3.2552   3.2664   3.2886   3.2959   3.3208   3.3537   3.3563   3.3695
  3.3870   3.4194   3.4346   3.4484   3.4566   3.4768   3.4946   3.5035
  3.5117   3.5222   3.5416   3.5856   3.6026   3.6154   3.6437   3.6459
  3.6928   3.6979   3.7222   3.7378   3.7787   3.8118   3.8273   3.8462
  3.8571   3.8775   3.8965   3.9229   3.9471   3.9597   3.9667   3.9801
  3.9951   4.0269   4.0764   4.1121   4.1237   4.1585   4.1725   4.1825
  4.2029   4.2276   4.2589   4.2858   4.3084   4.3381   4.3907   4.4172
  4.4315   4.4448   4.4722   4.4939   4.5228   4.5407   4.6195   4.6521
  4.6793   4.6866   4.7051   4.7184   4.8010   4.8114   4.8430   4.9069
  4.9688   5.0105   5.0214   5.0335   5.0955   5.1368   5.1785   5.2046
  5.2455   5.2868   5.3574   5.4090   5.4401   5.4906   5.5388   5.5934
  5.6359   5.7195   5.7632   5.8148   5.8845   5.9252   6.0005   6.0616
  6.1112   6.3081   6.4270   6.4564   6.6702   9.3566  11.2924  12.7655
 14.0352  14.1451
 --------------------------------------------------------------
 
          Ground-State Mulliken Net Atomic Charges

     Atom                 Charge (a.u.)
  ----------------------------------------
      1 C                     0.011598
      2 S                    -0.003618
      3 C                    -0.230754
      4 C                    -0.213951
      5 C                    -0.189478
      6 H                     0.184683
      7 H                     0.186263
      8 C                    -0.338547
      9 H                     0.109674
     10 H                     0.127392
     11 H                     0.150318
     12 H                     0.206422
  ----------------------------------------
  Sum of atomic charges =     0.000000

 -----------------------------------------------------------------
                    Cartesian Multipole Moments
 -----------------------------------------------------------------
    Charge (ESU x 10^10)
                -0.0000
    Dipole Moment (Debye)
         X       0.2686      Y      -0.1106      Z      -0.4612
       Tot       0.5451
    Quadrupole Moments (Debye-Ang)
        XX     -46.8675     XY       2.3196     YY     -36.7502
        XZ       0.2692     YZ      -0.4004     ZZ     -42.3375
    Octopole Moments (Debye-Ang^2)
       XXX     -20.3874    XXY     -20.0996    XYY       1.1281
       YYY     -39.2982    XXZ      -7.3629    XYZ       0.7791
       YYZ      -1.0312    XZZ      -3.9217    YZZ      -7.6317
       ZZZ     -28.9202
    Hexadecapole Moments (Debye-Ang^3)
      XXXX     -89.0558   XXXY     -49.9132   XXYY    -104.1065
      XYYY     -29.9535   YYYY    -488.7390   XXXZ      -1.9636
      XXYZ      -4.4189   XYYZ       2.4323   YYYZ     -12.2706
      XXZZ     -71.1810   XYZZ      -9.0076   YYZZ    -128.0185
      XZZZ      -1.3669   YZZZ     -13.1532   ZZZZ    -302.6850
 -----------------------------------------------------------------
 Total job time:  10.27s(wall), 547.97s(cpu) 
 Wed Dec 27 10:02:39 2023

        *************************************************************
        *                                                           *
        *  Thank you very much for using Q-Chem.  Have a nice day.  *
        *                                                           *
        *************************************************************


0 sent ACK to 0 
now end server 0 ... 
cleanup process ... done
remove work dirs ./qchem2789931.0 -- ./qchem2789931.0
rm -rf ./qchem2789931.0
rm -rf ./qchem2789931
