You are running Q-Chem version: 5.4.0

#
# job setting
#
local host:  exp-3-56
current dir: /home/rramji/project-csd799/aromodel/pndit-qchem/methylated-rotation-run
input file:  Dimethyl_Naphthalene_Dicarboximide_Phi_0_Theta_270_Thiophene_Hydrogenated_Improper.qcin
output file: 
nprocs     : 1
nthreads   : 64
#
# qchem installation setting
#
QC:          /cm/shared/apps/spack/cpu/opt/spack/linux-centos8-zen2/gcc-10.2.0/qchem-5.4-akfmr7b3t57bfs6qan3padb2wnb2i7cl
QCAUX:       /cm/shared/apps/spack/cpu/opt/spack/linux-centos8-zen2/gcc-10.2.0/qchem-5.4-akfmr7b3t57bfs6qan3padb2wnb2i7cl/qcaux
QCPROG:      /cm/shared/apps/spack/cpu/opt/spack/linux-centos8-zen2/gcc-10.2.0/qchem-5.4-akfmr7b3t57bfs6qan3padb2wnb2i7cl/exe/qcprog.exe
QCPROG_S:    /cm/shared/apps/spack/cpu/opt/spack/linux-centos8-zen2/gcc-10.2.0/qchem-5.4-akfmr7b3t57bfs6qan3padb2wnb2i7cl/exe/qcprog.exe_s
PARALLEL:    -DPARALLEL
QCMPI:       mpich
#
# qchem directory setting
#
qcrun:       qchem2759178
QCSCRATCH:   .
QCLOCALSCR:  
QCTMPDIR:    .
QCFILEPREF:  ./qchem2759178
QCSAVEDIR:   
workdirs:    ./qchem2759178
workdir0:    ./qchem2759178
partmpdirs =  
#
# parallel setting
#
QCRSH:           ssh
QCMPI:           mpich
QCMPIRUN:        /cm/shared/apps/spack/cpu/opt/spack/linux-centos8-zen2/gcc-10.2.0/qchem-5.4-akfmr7b3t57bfs6qan3padb2wnb2i7cl/bin/mpi/mpirun_qchem
QCMACHINEFILE:   ./qchem2759178/hostfile
exp-3-56

#
# env setting
#
exported envs:   QC QCAUX QCSCRATCH QCRUNNAME QCFILEPREF QCPROG QCPROG_S GUIFILE

Running Job 1 of 1 Dimethyl_Naphthalene_Dicarboximide_Phi_0_Theta_270_Thiophene_Hydrogenated_Improper.qcin
qchem Dimethyl_Naphthalene_Dicarboximide_Phi_0_Theta_270_Thiophene_Hydrogenated_Improper.qcin_2759178.0 ./qchem2759178/ 1
/cm/shared/apps/spack/cpu/opt/spack/linux-centos8-zen2/gcc-10.2.0/qchem-5.4-akfmr7b3t57bfs6qan3padb2wnb2i7cl/bin/mpi/mpirun_qchem -machinefile ./qchem2759178/hostfile -np 1 /cm/shared/apps/spack/cpu/opt/spack/linux-centos8-zen2/gcc-10.2.0/qchem-5.4-akfmr7b3t57bfs6qan3padb2wnb2i7cl/exe/qcprog.exe Dimethyl_Naphthalene_Dicarboximide_Phi_0_Theta_270_Thiophene_Hydrogenated_Improper.qcin_2759178.0 ./qchem2759178/

Process 0 of 1 is on exp-3-56 - thread support 0
initial socket setup ...start
initial socket setup ...done 
now start server 0 ... 
                  Welcome to Q-Chem
     A Quantum Leap Into The Future Of Chemistry


 Q-Chem 5.4, Q-Chem, Inc., Pleasanton, CA (2021)

 License issued to: University of California, San Diego (site)

 E. Epifanovsky,  A. T. B. Gilbert,  Xintian Feng,  Joonho Lee,  Yuezhi Mao,  
 N. Mardirossian,  P. Pokhilko,  A. White,  M. Wormit,  M. P. Coons,  
 A. L. Dempwolff,  Zhengting Gan,  D. Hait,  P. R. Horn,  L. D. Jacobson,  
 I. Kaliman,  J. Kussmann,  A. W. Lange,  Ka Un Lao,  D. S. Levine,  Jie Liu,  
 S. C. McKenzie,  A. F. Morrison,  K. Nanda,  F. Plasser,  D. R. Rehn,  
 M. L. Vidal,  Zhi-Qiang You,  Ying Zhu,  B. Alam,  B. Albrecht,  
 A. Aldossary,  E. Alguire,  J. H. Andersen,  D. Barton,  K. Begam,  A. Behn,  
 Y. A. Bernard,  E. J. Berquist,  H. Burton,  A. Carreras,  K. Carter-Fenk,  
 R. Chakraborty,  A. D. Chien,  K. D. Closser,  V. Cofer-Shabica,  
 S. Dasgupta,  Jia Deng,  M. de Wergifosse,  M. Diedenhofen,  Hainam Do,  
 S. Ehlert,  Po-Tung Fang,  S. Fatehi,  Qingguo Feng,  J. Gayvert,  
 Qinghui Ge,  G. Gidofalvi,  M. Goldey,  J. Gomes,  C. Gonzalez-Espinoza,  
 S. Gulania,  A. Gunina,  M. W. D. Hanson-Heine,  P. H. P. Harbach,  
 A. W. Hauser,  M. F. Herbst,  M. Hernandez Vera,  M. Hodecker,  
 Z. C. Holden,  S. Houck,  Xunkun Huang,  Kerwin Hui,  B. C. Huynh,  
 M. Ivanov,  Hyunjun Ji,  Hanjie Jiang,  B. Kaduk,  S. Kaehler,  
 K. Khistyaev,  Jaehoon Kim,  P. Klunzinger,  Z. Koczor-Benda,  
 Joong Hoon Koh,  D. Kosenkov,  L. Koulias,  T. Kowalczyk,  C. M. Krauter,  
 K. Kue,  A. Kunitsa,  T. Kus,  A. Landau,  K. V. Lawler,  D. Lefrancois,  
 S. Lehtola,  Rain Li,  Yi-Pei Li,  Jiashu Liang,  M. Liebenthal,  
 Hung-Hsuan Lin,  You-Sheng Lin,  Fenglai Liu,  Kuan-Yu Liu,  
 M. Loipersberger,  A. Luenser,  A. Manjanath,  P. Manohar,  E. Mansoor,  
 S. F. Manzer,  Shan-Ping Mao,  A. V. Marenich,  T. Markovich,  S. Mason,  
 S. A. Maurer,  P. F. McLaughlin,  M. F. S. J. Menger,  J.-M. Mewes,  
 S. A. Mewes,  P. Morgante,  J. W. Mullinax,  T. S. Nguyen-Beck,  
 K. J. Oosterbaan,  G. Paran,  Alexander C. Paul,  Suranjan K. Paul,  
 F. Pavosevic,  Zheng Pei,  S. Prager,  E. I. Proynov,  E. Ramos,  B. Rana,  
 A. E. Rask,  A. Rettig,  R. M. Richard,  F. Rob,  E. Rossomme,  T. Scheele,  
 M. Scheurer,  M. Schneider,  N. Sergueev,  S. M. Sharada,  W. Skomorowski,  
 D. W. Small,  C. J. Stein,  Yu-Chuan Su,  E. J. Sundstrom,  Zhen Tao,  
 J. Thirman,  T. Tsuchimochi,  N. M. Tubman,  S. P. Veccham,  O. Vydrov,  
 J. Wenzel,  J. Witte,  A. Yamada,  Kun Yao,  S. Yeganeh,  S. R. Yost,  
 A. Zech,  Igor Ying Zhang,  Xing Zhang,  Yu Zhang,  D. Zuev,  
 A. Aspuru-Guzik,  A. T. Bell,  N. A. Besley,  K. B. Bravaya,  B. R. Brooks,  
 D. Casanova,  Jeng-Da Chai,  S. Coriani,  C. J. Cramer,  
 A. E. DePrince, III,  R. A. DiStasio Jr.,  A. Dreuw,  B. D. Dunietz,  
 T. R. Furlani,  W. A. Goddard III,  S. Grimme,  S. Hammes-Schiffer,  
 T. Head-Gordon,  W. J. Hehre,  Chao-Ping Hsu,  T.-C. Jagau,  Yousung Jung,  
 A. Klamt,  Jing Kong,  D. S. Lambrecht,  WanZhen Liang,  N. J. Mayhall,  
 C. W. McCurdy,  J. B. Neaton,  C. Ochsenfeld,  J. A. Parkhill,  R. Peverati,  
 V. A. Rassolov,  Yihan Shao,  L. V. Slipchenko,  T. Stauch,  R. P. Steele,  
 J. E. Subotnik,  A. J. W. Thom,  A. Tkatchenko,  D. G. Truhlar,  
 T. Van Voorhis,  T. A. Wesolowski,  K. B. Whaley,  H. L. Woodcock III,  
 P. M. Zimmerman,  S. Faraji,  P. M. W. Gill,  M. Head-Gordon,  
 J. M. Herbert,  A. I. Krylov

 Contributors to earlier versions of Q-Chem not listed above: 
 R. D. Adamson,  B. Austin,  R. Baer,  J. Baker,  G. J. O. Beran,  
 K. Brandhorst,  S. T. Brown,  E. F. C. Byrd,  A. K. Chakraborty,  
 G. K. L. Chan,  Chun-Min Chang,  Yunqing Chen,  C.-L. Cheng,  
 Siu Hung Chien,  D. M. Chipman,  D. L. Crittenden,  H. Dachsel,  
 R. J. Doerksen,  A. D. Dutoi,  R. G. Edgar,  J. Fosso-Tande,  
 L. Fusti-Molnar,  D. Ghosh,  A. Ghysels,  A. Golubeva-Zadorozhnaya,  
 J. Gonthier,  M. S. Gordon,  S. R. Gwaltney,  G. Hawkins,  J. E. Herr,  
 A. Heyden,  S. Hirata,  E. G. Hohenstein,  G. Kedziora,  F. J. Keil,  
 C. Kelley,  Jihan Kim,  R. A. King,  R. Z. Khaliullin,  P. P. Korambath,  
 W. Kurlancheek,  A. Laurent,  A. M. Lee,  M. S. Lee,  S. V. Levchenko,  
 Ching Yeh Lin,  D. Liotard,  E. Livshits,  R. C. Lochan,  I. Lotan,  
 L. A. Martinez-Martinez,  P. E. Maslen,  N. Nair,  D. P. O'Neill,  
 D. Neuhauser,  E. Neuscamman,  C. M. Oana,  R. Olivares-Amaya,  R. Olson,  
 T. M. Perrine,  B. Peters,  P. A. Pieniazek,  A. Prociuk,  Y. M. Rhee,  
 J. Ritchie,  M. A. Rohrdanz,  E. Rosta,  N. J. Russ,  H. F. Schaefer III,  
 M. W. Schmidt,  N. E. Schultz,  S. Sharma,  N. Shenvi,  C. D. Sherrill,  
 A. C. Simmonett,  A. Sodt,  T. Stein,  D. Stuck,  K. S. Thanthiriwatte,  
 V. Vanovschi,  L. Vogt,  Tao Wang,  A. Warshel,  M. A. Watson,  
 C. F. Williams,  Q. Wu,  X. Xu,  Jun Yang,  W. Zhang,  Yan Zhao

 Please cite Q-Chem as follows:
 Y. Shao et al., Mol. Phys. 113, 184-215 (2015)
 DOI: 10.1080/00268976.2014.952696

 Q-Chem 5.4.0 for Intel X86 EM64T Linux

 Parts of Q-Chem use Armadillo 9.800.1 (Horizon Scraper).
 http://arma.sourceforge.net/

 Q-Chem begins on Wed Dec 27 10:06:30 2023  

 Host: 
0

     Scratch files written to ./qchem2759178//
 May1621 |scratch|qcdevops|jenkins|workspace|build_RNUM    
 Parallel job on  1  processors
 Processing $rem in /cm/shared/apps/spack/cpu/opt/spack/linux-centos8-zen2/gcc-10.2.0/qchem-5.4-akfmr7b3t57bfs6qan3padb2wnb2i7cl/config/preferences:
 Processing $rem in /home/rramji/.qchemrc:
 Symmetry turned off for PCM/SM12/SMD calculation
 Core orbitals will be frozen

 Checking the input file for inconsistencies... 	...done.

 Q-Chem warning in module forms1/BasisType.C, line 2236:

 You are not using the predefined 5D/6D in this basis set.


--------------------------------------------------------------
User input:
--------------------------------------------------------------
$molecule
0 1
C	-0.000815	-0.399361	-0.208929
S	-0.001015	0.393839	1.371571
C	-0.001015	2.031539	0.695971
C	-0.001015	0.598639	-1.194329
C	-0.001115	1.918839	-0.702429
H	-0.000915	0.362939	-2.268829
H	-0.001115	2.799839	-1.361529
C	-0.000815	-1.877561	-0.208929
H	-0.000315	-1.878161	-1.288929
H	0.985785	-2.316861	-0.208929
H	-0.813815	-2.588561	-0.208829
H	-0.001115	2.912239	1.347071
$end

$rem
JOBTYPE		SP
EXCHANGE	HF
CORRELATION	pRIMP2
BASIS		cc-pvtz
METHOD		rimp2
AUX_BASIS	rimp2-cc-pvtz
SOLVENT_METHOD	PCM
PURECART	11111
SYMMETRY	false
MEM_TOTAL	110000
SCF_CONVERGENCE = 6
THRESH=10
GUI = 2
$end



$solvent
dielectric 4.90
$end
--------------------------------------------------------------
 ----------------------------------------------------------------
             Standard Nuclear Orientation (Angstroms)
    I     Atom           X                Y                Z
 ----------------------------------------------------------------
    1      C      -0.0008150000    -0.3993610000    -0.2089290000
    2      S      -0.0010150000     0.3938390000     1.3715710000
    3      C      -0.0010150000     2.0315390000     0.6959710000
    4      C      -0.0010150000     0.5986390000    -1.1943290000
    5      C      -0.0011150000     1.9188390000    -0.7024290000
    6      H      -0.0009150000     0.3629390000    -2.2688290000
    7      H      -0.0011150000     2.7998390000    -1.3615290000
    8      C      -0.0008150000    -1.8775610000    -0.2089290000
    9      H      -0.0003150000    -1.8781610000    -1.2889290000
   10      H       0.9857850000    -2.3168610000    -0.2089290000
   11      H      -0.8138150000    -2.5885610000    -0.2088290000
   12      H      -0.0011150000     2.9122390000     1.3470710000
 ----------------------------------------------------------------
 Nuclear Repulsion Energy =         269.86204312 hartrees
 There are       26 alpha and       26 beta electrons
 Requested basis set is cc-pVTZ
 There are 98 shells and 268 basis functions

 Total QAlloc Memory Limit 110000 MB
 Mega-Array Size       188 MB
 MEM_STATIC part       192 MB
 Discretize the solute cavity surface with Lebedev spheres
	Using 110 Lebedev grid points for each H atom
	Using 194 Lebedev grid points for other atoms
	Atomic van der Waals radii will be scaled by 1.20
 Remove points where switching function is < 1.0e-08
 Keep 881 surface tesserae and discard 943 interior tesserae
 Molecular Surface Area = 138.183 Angst**2

                       Distance Matrix (Angstroms)
             C (  1)   S (  2)   C (  3)   C (  4)   C (  5)   H (  6)
   S (  2)  1.768374
   C (  3)  2.593862  1.771580
   C (  4)  1.402504  2.574060  2.372011
   C (  5)  2.370146  2.574316  1.402934  1.408863
   H (  6)  2.196426  3.640531  3.402097  1.100048  2.207812
   H (  7)  3.400495  3.641246  2.196268  2.207541  1.100261  2.600322
   C (  8)  1.478200  2.767172  4.012469  2.665067  3.828341  3.043522
   H (  9)  1.831188  3.498606  4.384699  2.478606  3.842030  2.445963
   H ( 10)  2.156429  3.289323  4.549857  3.231861  4.377062  3.521093
   H ( 11)  2.335287  3.471746  4.777513  3.433671  4.606601  3.689954
   H ( 12)  3.658938  2.518519  1.095246  3.436780  2.277563  4.424213
             H (  7)   C (  8)   H (  9)   H ( 10)   H ( 11)
   C (  8)  4.817319
   H (  9)  4.678563  1.080000
   H ( 10)  5.336954  1.079983  1.526843
   H ( 11)  5.569924  1.080042  1.527438  1.819995
   H ( 12)  2.710931  5.036201  5.467763  5.544240  5.774089
 
 Requested basis set is rimp2-cc-pVTZ
 There are 207 shells and 707 basis functions
 A cutoff of  1.0D-10 yielded   4372 shell pairs
 There are     32778 function pairs (     42372 Cartesian)
 Smallest overlap matrix eigenvalue = 1.19E-04

 Scale SEOQF with 1.000000e+00/1.000000e-01/1.000000e-01

 Standard Electronic Orientation quadrupole field applied
 Nucleus-field energy     =     0.0000000022 hartrees
 Guess from superposition of atomic densities
 Warning:  Energy on first SCF cycle will be non-variational
 SAD guess density has 52.000000 electrons

 -----------------------------------------------------------------------
  General SCF calculation program by
  Eric Jon Sundstrom, Paul Horn, Yuezhi Mao, Dmitri Zuev, Alec White,
  David Stuck, Shaama M.S., Shane Yost, Joonho Lee, David Small,
  Daniel Levine, Susi Lehtola, Hugh Burton, Evgeny Epifanovsky,
  Bang C. Huynh
 -----------------------------------------------------------------------
 Hartree-Fock
 using 64 threads for integral computing
 -------------------------------------------------------
 OpenMP Integral computing Module                
 Release: version 1.0, May 2013, Q-Chem Inc. Pittsburgh 
 -------------------------------------------------------
 A restricted SCF calculation will be
 performed using DIIS
 SCF converges when DIIS error is below 1.0e-06
 ---------------------------------------
  Cycle       Energy         DIIS error
 ---------------------------------------
    1    -592.5712472321      3.22e-02  
    2    -590.3054643368      2.15e-03  
    3    -590.3653655072      7.69e-04  
    4    -590.3718959266      3.76e-04  
    5    -590.3736576521      6.96e-05  
    6    -590.3737782994      2.99e-05  
    7    -590.3738080941      1.47e-05  
    8    -590.3738177626      5.59e-06  
    9    -590.3738192986      1.98e-06  
   10    -590.3738194253      5.73e-07  Convergence criterion met
 ---------------------------------------
 SCF time:   CPU 478.85s  wall 8.00s 

************** Final PCM Free Energy Summary **************
 G_electrostatic  =      -0.00574971 hartree =      -3.60799871 kcal/mol
 G_cavitation     =       0.00000000 hartree =       0.00000000 kcal/mol
 G_dispersion     =       0.00000000 hartree =       0.00000000 kcal/mol
 G_repulsion      =       0.00000000 hartree =       0.00000000 kcal/mol
 --------------------------------------------------
 Non-electrostatic Free Energy =       0.00000000 hartree =       0.00000000 kcal/mol
 Total                         =      -0.00574971 hartree =      -3.60799871 kcal/mol
 --------------------------------------------------
 SCF Energy (H0 + V/2)                       =    -590.37381943 
 Solute Internal Energy (H0)                 =    -590.36806971 
 Total Free Energy (H0 + V/2 + non-elec)     =    -590.37381943 hartree
                                             = -370465.16311982 kcal/mol
***********************************************************

 SCF   energy in the final basis set =     -590.3738194253
 Total energy in the final basis set =     -590.3738194253


 --------------------------------------------------------------
  Generalized many-body perturbation theory program
  by Joonho Lee, Fazle Rob, Xintian Feng, Evgeny Epifanovsky

 No regularization used 
 (reg. param. = 0.0000e+00)
  (P|Q)^-1/2 Time:  CPU 5.26 s  wall 0.09 s

 In RI-MP2 calculation: 
 # of frozen core orbitals: 10

 Components of the RIMP2 correlation energy:
        aaaa    correlation energy =        -0.1254391526 a.u.
        abab    correlation energy =        -0.7511985120 a.u.
        bbbb    correlation energy =        -0.1254391526 a.u.
        non-Brillouin singles      =        -0.0000000000 a.u.
        total same-spin energy     =        -0.2508783053 a.u.
        total opposite-spin energy =        -0.7511985120 a.u.

 Total  RIMP2   correlation energy =        -1.0020768173 a.u.
        RIMP2         total energy =      -591.3758962426 a.u.

 RI-MP2 Energy Time:  CPU 23.39 s  wall 0.40 s
 
 --------------------------------------------------------------
 
                    Orbital Energies (a.u.)
 --------------------------------------------------------------
 
 Alpha MOs
 -- Occupied --
-91.9747 -11.2853 -11.2689 -11.2430 -11.2413 -11.2236  -8.9749  -6.6558
 -6.6552  -6.6547  -1.1570  -1.0380  -0.9729  -0.9194  -0.7545  -0.7244
 -0.6727  -0.5973  -0.5710  -0.5600  -0.5391  -0.5002  -0.4675  -0.4365
 -0.3450  -0.3131
 -- Virtual --
  0.1049   0.1481   0.1600   0.1768   0.1932   0.1973   0.2075   0.2298
  0.2383   0.2531   0.3094   0.3389   0.3665   0.3769   0.3911   0.3949
  0.4171   0.4536   0.4561   0.4630   0.4954   0.5140   0.5339   0.5369
  0.5384   0.5671   0.5699   0.5774   0.5988   0.6102   0.6161   0.6248
  0.6365   0.6530   0.6623   0.6702   0.6825   0.7148   0.7249   0.7483
  0.7844   0.7916   0.8231   0.8680   0.8741   0.8845   0.9147   0.9192
  0.9672   0.9870   0.9940   1.0117   1.0639   1.0710   1.1083   1.1186
  1.1427   1.1620   1.1718   1.1943   1.2164   1.2204   1.2394   1.2616
  1.2924   1.3192   1.3278   1.3436   1.3885   1.4096   1.4182   1.4508
  1.4750   1.4825   1.5084   1.5372   1.5438   1.5475   1.5647   1.5728
  1.6022   1.6246   1.6591   1.6838   1.7129   1.7268   1.7724   1.8133
  1.8184   1.8873   1.9048   1.9260   1.9346   1.9823   2.0554   2.0855
  2.1470   2.1759   2.1816   2.2195   2.2475   2.2926   2.3269   2.4185
  2.4237   2.4671   2.5055   2.5113   2.5756   2.5987   2.6208   2.6588
  2.6752   2.7121   2.7184   2.7291   2.7498   2.7874   2.8220   2.8482
  2.8638   2.8913   2.9186   2.9244   2.9692   3.0161   3.0201   3.0553
  3.0757   3.1007   3.1221   3.1611   3.1770   3.2160   3.2218   3.2398
  3.2449   3.2721   3.3017   3.3091   3.3265   3.3424   3.3582   3.3784
  3.3891   3.3997   3.4357   3.4434   3.4510   3.4679   3.4864   3.4929
  3.5118   3.5137   3.5461   3.5954   3.6067   3.6277   3.6477   3.6651
  3.6835   3.6948   3.7109   3.7391   3.7454   3.7745   3.7931   3.8320
  3.8525   3.8720   3.9082   3.9349   3.9378   3.9438   3.9624   3.9704
  3.9831   4.0445   4.0493   4.0823   4.1131   4.1554   4.1707   4.1778
  4.2171   4.2249   4.2537   4.2875   4.2997   4.3632   4.3800   4.4080
  4.4141   4.4467   4.4781   4.5049   4.5556   4.5843   4.6310   4.6671
  4.6768   4.6931   4.7153   4.7859   4.7964   4.8256   4.8402   4.8754
  4.9636   4.9796   5.0163   5.0519   5.0690   5.1230   5.1829   5.2231
  5.2321   5.2861   5.3708   5.4114   5.4173   5.4913   5.5345   5.6003
  5.6362   5.7365   5.8087   5.8375   5.8634   5.9183   6.0113   6.0704
  6.1150   6.2939   6.4222   6.4749   6.6700   9.4171  11.2794  12.7903
 13.9950  14.2745
 --------------------------------------------------------------
 
          Ground-State Mulliken Net Atomic Charges

     Atom                 Charge (a.u.)
  ----------------------------------------
      1 C                     0.035032
      2 S                    -0.008897
      3 C                    -0.227819
      4 C                    -0.219867
      5 C                    -0.202892
      6 H                     0.183531
      7 H                     0.186794
      8 C                    -0.354048
      9 H                     0.117475
     10 H                     0.131431
     11 H                     0.154839
     12 H                     0.204421
  ----------------------------------------
  Sum of atomic charges =     0.000000

 -----------------------------------------------------------------
                    Cartesian Multipole Moments
 -----------------------------------------------------------------
    Charge (ESU x 10^10)
                -0.0000
    Dipole Moment (Debye)
         X       0.0183      Y      -0.3185      Z      -1.7879
       Tot       1.8162
    Quadrupole Moments (Debye-Ang)
        XX     -47.4524     XY       0.1940     YY     -35.9800
        XZ       0.0012     YZ       2.1272     ZZ     -42.1310
    Octopole Moments (Debye-Ang^2)
       XXX       0.1100    XXY     -23.3475    XYY      -1.2565
       YYY     -40.4723    XXZ      -7.1030    XYZ      -0.0905
       YYZ      -6.0160    XZZ      -0.1074    YZZ      -9.5007
       ZZZ     -27.6660
    Hexadecapole Moments (Debye-Ang^3)
      XXXX     -65.1721   XXXY      -0.0537   XXYY    -110.8567
      XYYY       4.9146   YYYY    -499.7274   XXXZ       0.0167
      XXYZ      -7.1752   XYYZ       0.4396   YYYZ      -6.5378
      XXZZ     -70.2862   XYZZ       0.2229   YYZZ    -128.9443
      XZZZ       0.1013   YZZZ     -20.1086   ZZZZ    -308.7007
 -----------------------------------------------------------------
 Total job time:  10.23s(wall), 541.68s(cpu) 
 Wed Dec 27 10:06:40 2023

        *************************************************************
        *                                                           *
        *  Thank you very much for using Q-Chem.  Have a nice day.  *
        *                                                           *
        *************************************************************


0 sent ACK to 0 
now end server 0 ... 
cleanup process ... done
remove work dirs ./qchem2759178.0 -- ./qchem2759178.0
rm -rf ./qchem2759178.0
rm -rf ./qchem2759178
