You are running Q-Chem version: 5.4.0

#
# job setting
#
local host:  exp-4-42
current dir: /home/rramji/project-csd799/aromodel/pndit-qchem/methylated-rotation-run
input file:  Dimethyl_Naphthalene_Dicarboximide_Phi_20_Theta_60_Thiophene_Hydrogenated_Improper.qcin
output file: 
nprocs     : 1
nthreads   : 64
#
# qchem installation setting
#
QC:          /cm/shared/apps/spack/cpu/opt/spack/linux-centos8-zen2/gcc-10.2.0/qchem-5.4-akfmr7b3t57bfs6qan3padb2wnb2i7cl
QCAUX:       /cm/shared/apps/spack/cpu/opt/spack/linux-centos8-zen2/gcc-10.2.0/qchem-5.4-akfmr7b3t57bfs6qan3padb2wnb2i7cl/qcaux
QCPROG:      /cm/shared/apps/spack/cpu/opt/spack/linux-centos8-zen2/gcc-10.2.0/qchem-5.4-akfmr7b3t57bfs6qan3padb2wnb2i7cl/exe/qcprog.exe
QCPROG_S:    /cm/shared/apps/spack/cpu/opt/spack/linux-centos8-zen2/gcc-10.2.0/qchem-5.4-akfmr7b3t57bfs6qan3padb2wnb2i7cl/exe/qcprog.exe_s
PARALLEL:    -DPARALLEL
QCMPI:       mpich
#
# qchem directory setting
#
qcrun:       qchem2788717
QCSCRATCH:   .
QCLOCALSCR:  
QCTMPDIR:    .
QCFILEPREF:  ./qchem2788717
QCSAVEDIR:   
workdirs:    ./qchem2788717
workdir0:    ./qchem2788717
partmpdirs =  
#
# parallel setting
#
QCRSH:           ssh
QCMPI:           mpich
QCMPIRUN:        /cm/shared/apps/spack/cpu/opt/spack/linux-centos8-zen2/gcc-10.2.0/qchem-5.4-akfmr7b3t57bfs6qan3padb2wnb2i7cl/bin/mpi/mpirun_qchem
QCMACHINEFILE:   ./qchem2788717/hostfile
exp-4-42

#
# env setting
#
exported envs:   QC QCAUX QCSCRATCH QCRUNNAME QCFILEPREF QCPROG QCPROG_S GUIFILE

Running Job 1 of 1 Dimethyl_Naphthalene_Dicarboximide_Phi_20_Theta_60_Thiophene_Hydrogenated_Improper.qcin
qchem Dimethyl_Naphthalene_Dicarboximide_Phi_20_Theta_60_Thiophene_Hydrogenated_Improper.qcin_2788717.0 ./qchem2788717/ 1
/cm/shared/apps/spack/cpu/opt/spack/linux-centos8-zen2/gcc-10.2.0/qchem-5.4-akfmr7b3t57bfs6qan3padb2wnb2i7cl/bin/mpi/mpirun_qchem -machinefile ./qchem2788717/hostfile -np 1 /cm/shared/apps/spack/cpu/opt/spack/linux-centos8-zen2/gcc-10.2.0/qchem-5.4-akfmr7b3t57bfs6qan3padb2wnb2i7cl/exe/qcprog.exe Dimethyl_Naphthalene_Dicarboximide_Phi_20_Theta_60_Thiophene_Hydrogenated_Improper.qcin_2788717.0 ./qchem2788717/

Process 0 of 1 is on exp-4-42 - thread support 0
initial socket setup ...start
initial socket setup ...done 
now start server 0 ... 
                  Welcome to Q-Chem
     A Quantum Leap Into The Future Of Chemistry


 Q-Chem 5.4, Q-Chem, Inc., Pleasanton, CA (2021)

 License issued to: University of California, San Diego (site)

 E. Epifanovsky,  A. T. B. Gilbert,  Xintian Feng,  Joonho Lee,  Yuezhi Mao,  
 N. Mardirossian,  P. Pokhilko,  A. White,  M. Wormit,  M. P. Coons,  
 A. L. Dempwolff,  Zhengting Gan,  D. Hait,  P. R. Horn,  L. D. Jacobson,  
 I. Kaliman,  J. Kussmann,  A. W. Lange,  Ka Un Lao,  D. S. Levine,  Jie Liu,  
 S. C. McKenzie,  A. F. Morrison,  K. Nanda,  F. Plasser,  D. R. Rehn,  
 M. L. Vidal,  Zhi-Qiang You,  Ying Zhu,  B. Alam,  B. Albrecht,  
 A. Aldossary,  E. Alguire,  J. H. Andersen,  D. Barton,  K. Begam,  A. Behn,  
 Y. A. Bernard,  E. J. Berquist,  H. Burton,  A. Carreras,  K. Carter-Fenk,  
 R. Chakraborty,  A. D. Chien,  K. D. Closser,  V. Cofer-Shabica,  
 S. Dasgupta,  Jia Deng,  M. de Wergifosse,  M. Diedenhofen,  Hainam Do,  
 S. Ehlert,  Po-Tung Fang,  S. Fatehi,  Qingguo Feng,  J. Gayvert,  
 Qinghui Ge,  G. Gidofalvi,  M. Goldey,  J. Gomes,  C. Gonzalez-Espinoza,  
 S. Gulania,  A. Gunina,  M. W. D. Hanson-Heine,  P. H. P. Harbach,  
 A. W. Hauser,  M. F. Herbst,  M. Hernandez Vera,  M. Hodecker,  
 Z. C. Holden,  S. Houck,  Xunkun Huang,  Kerwin Hui,  B. C. Huynh,  
 M. Ivanov,  Hyunjun Ji,  Hanjie Jiang,  B. Kaduk,  S. Kaehler,  
 K. Khistyaev,  Jaehoon Kim,  P. Klunzinger,  Z. Koczor-Benda,  
 Joong Hoon Koh,  D. Kosenkov,  L. Koulias,  T. Kowalczyk,  C. M. Krauter,  
 K. Kue,  A. Kunitsa,  T. Kus,  A. Landau,  K. V. Lawler,  D. Lefrancois,  
 S. Lehtola,  Rain Li,  Yi-Pei Li,  Jiashu Liang,  M. Liebenthal,  
 Hung-Hsuan Lin,  You-Sheng Lin,  Fenglai Liu,  Kuan-Yu Liu,  
 M. Loipersberger,  A. Luenser,  A. Manjanath,  P. Manohar,  E. Mansoor,  
 S. F. Manzer,  Shan-Ping Mao,  A. V. Marenich,  T. Markovich,  S. Mason,  
 S. A. Maurer,  P. F. McLaughlin,  M. F. S. J. Menger,  J.-M. Mewes,  
 S. A. Mewes,  P. Morgante,  J. W. Mullinax,  T. S. Nguyen-Beck,  
 K. J. Oosterbaan,  G. Paran,  Alexander C. Paul,  Suranjan K. Paul,  
 F. Pavosevic,  Zheng Pei,  S. Prager,  E. I. Proynov,  E. Ramos,  B. Rana,  
 A. E. Rask,  A. Rettig,  R. M. Richard,  F. Rob,  E. Rossomme,  T. Scheele,  
 M. Scheurer,  M. Schneider,  N. Sergueev,  S. M. Sharada,  W. Skomorowski,  
 D. W. Small,  C. J. Stein,  Yu-Chuan Su,  E. J. Sundstrom,  Zhen Tao,  
 J. Thirman,  T. Tsuchimochi,  N. M. Tubman,  S. P. Veccham,  O. Vydrov,  
 J. Wenzel,  J. Witte,  A. Yamada,  Kun Yao,  S. Yeganeh,  S. R. Yost,  
 A. Zech,  Igor Ying Zhang,  Xing Zhang,  Yu Zhang,  D. Zuev,  
 A. Aspuru-Guzik,  A. T. Bell,  N. A. Besley,  K. B. Bravaya,  B. R. Brooks,  
 D. Casanova,  Jeng-Da Chai,  S. Coriani,  C. J. Cramer,  
 A. E. DePrince, III,  R. A. DiStasio Jr.,  A. Dreuw,  B. D. Dunietz,  
 T. R. Furlani,  W. A. Goddard III,  S. Grimme,  S. Hammes-Schiffer,  
 T. Head-Gordon,  W. J. Hehre,  Chao-Ping Hsu,  T.-C. Jagau,  Yousung Jung,  
 A. Klamt,  Jing Kong,  D. S. Lambrecht,  WanZhen Liang,  N. J. Mayhall,  
 C. W. McCurdy,  J. B. Neaton,  C. Ochsenfeld,  J. A. Parkhill,  R. Peverati,  
 V. A. Rassolov,  Yihan Shao,  L. V. Slipchenko,  T. Stauch,  R. P. Steele,  
 J. E. Subotnik,  A. J. W. Thom,  A. Tkatchenko,  D. G. Truhlar,  
 T. Van Voorhis,  T. A. Wesolowski,  K. B. Whaley,  H. L. Woodcock III,  
 P. M. Zimmerman,  S. Faraji,  P. M. W. Gill,  M. Head-Gordon,  
 J. M. Herbert,  A. I. Krylov

 Contributors to earlier versions of Q-Chem not listed above: 
 R. D. Adamson,  B. Austin,  R. Baer,  J. Baker,  G. J. O. Beran,  
 K. Brandhorst,  S. T. Brown,  E. F. C. Byrd,  A. K. Chakraborty,  
 G. K. L. Chan,  Chun-Min Chang,  Yunqing Chen,  C.-L. Cheng,  
 Siu Hung Chien,  D. M. Chipman,  D. L. Crittenden,  H. Dachsel,  
 R. J. Doerksen,  A. D. Dutoi,  R. G. Edgar,  J. Fosso-Tande,  
 L. Fusti-Molnar,  D. Ghosh,  A. Ghysels,  A. Golubeva-Zadorozhnaya,  
 J. Gonthier,  M. S. Gordon,  S. R. Gwaltney,  G. Hawkins,  J. E. Herr,  
 A. Heyden,  S. Hirata,  E. G. Hohenstein,  G. Kedziora,  F. J. Keil,  
 C. Kelley,  Jihan Kim,  R. A. King,  R. Z. Khaliullin,  P. P. Korambath,  
 W. Kurlancheek,  A. Laurent,  A. M. Lee,  M. S. Lee,  S. V. Levchenko,  
 Ching Yeh Lin,  D. Liotard,  E. Livshits,  R. C. Lochan,  I. Lotan,  
 L. A. Martinez-Martinez,  P. E. Maslen,  N. Nair,  D. P. O'Neill,  
 D. Neuhauser,  E. Neuscamman,  C. M. Oana,  R. Olivares-Amaya,  R. Olson,  
 T. M. Perrine,  B. Peters,  P. A. Pieniazek,  A. Prociuk,  Y. M. Rhee,  
 J. Ritchie,  M. A. Rohrdanz,  E. Rosta,  N. J. Russ,  H. F. Schaefer III,  
 M. W. Schmidt,  N. E. Schultz,  S. Sharma,  N. Shenvi,  C. D. Sherrill,  
 A. C. Simmonett,  A. Sodt,  T. Stein,  D. Stuck,  K. S. Thanthiriwatte,  
 V. Vanovschi,  L. Vogt,  Tao Wang,  A. Warshel,  M. A. Watson,  
 C. F. Williams,  Q. Wu,  X. Xu,  Jun Yang,  W. Zhang,  Yan Zhao

 Please cite Q-Chem as follows:
 Y. Shao et al., Mol. Phys. 113, 184-215 (2015)
 DOI: 10.1080/00268976.2014.952696

 Q-Chem 5.4.0 for Intel X86 EM64T Linux

 Parts of Q-Chem use Armadillo 9.800.1 (Horizon Scraper).
 http://arma.sourceforge.net/

 Q-Chem begins on Wed Dec 27 10:01:36 2023  

 Host: 
0

     Scratch files written to ./qchem2788717//
 May1621 |scratch|qcdevops|jenkins|workspace|build_RNUM    
 Parallel job on  1  processors
 Processing $rem in /cm/shared/apps/spack/cpu/opt/spack/linux-centos8-zen2/gcc-10.2.0/qchem-5.4-akfmr7b3t57bfs6qan3padb2wnb2i7cl/config/preferences:
 Processing $rem in /home/rramji/.qchemrc:
 Symmetry turned off for PCM/SM12/SMD calculation
 Core orbitals will be frozen

 Checking the input file for inconsistencies... 	...done.

 Q-Chem warning in module forms1/BasisType.C, line 2236:

 You are not using the predefined 5D/6D in this basis set.


--------------------------------------------------------------
User input:
--------------------------------------------------------------
$molecule
0 1
C	-0.179252	-0.368118	-0.219723
S	0.091848	0.377282	1.360777
C	0.651948	1.916282	0.685177
C	0.161948	0.569782	-1.205123
C	0.613348	1.810382	-0.713223
H	0.081348	0.348282	-2.279623
H	0.914648	2.638182	-1.372323
C	-0.179252	-1.846318	-0.219723
H	0.360248	-1.846918	0.715877
H	-1.033752	-2.285618	0.273577
H	0.524748	-2.557318	-0.626323
H	0.953048	2.743882	1.336277
$end

$rem
JOBTYPE		SP
EXCHANGE	HF
CORRELATION	pRIMP2
BASIS		cc-pvtz
METHOD		rimp2
AUX_BASIS	rimp2-cc-pvtz
SOLVENT_METHOD	PCM
PURECART	11111
SYMMETRY	false
MEM_TOTAL	110000
SCF_CONVERGENCE = 6
THRESH=10
GUI = 2
$end



$solvent
dielectric 4.90
$end
--------------------------------------------------------------
 ----------------------------------------------------------------
             Standard Nuclear Orientation (Angstroms)
    I     Atom           X                Y                Z
 ----------------------------------------------------------------
    1      C      -0.1792520000    -0.3681180000    -0.2197230000
    2      S       0.0918480000     0.3772820000     1.3607770000
    3      C       0.6519480000     1.9162820000     0.6851770000
    4      C       0.1619480000     0.5697820000    -1.2051230000
    5      C       0.6133480000     1.8103820000    -0.7132230000
    6      H       0.0813480000     0.3482820000    -2.2796230000
    7      H       0.9146480000     2.6381820000    -1.3723230000
    8      C      -0.1792520000    -1.8463180000    -0.2197230000
    9      H       0.3602480000    -1.8469180000     0.7158770000
   10      H      -1.0337520000    -2.2856180000     0.2735770000
   11      H       0.5247480000    -2.5573180000    -0.6263230000
   12      H       0.9530480000     2.7438820000     1.3362770000
 ----------------------------------------------------------------
 Nuclear Repulsion Energy =         271.42082772 hartrees
 There are       26 alpha and       26 beta electrons
 Requested basis set is cc-pVTZ
 There are 98 shells and 268 basis functions

 Total QAlloc Memory Limit 110000 MB
 Mega-Array Size       188 MB
 MEM_STATIC part       192 MB
 Discretize the solute cavity surface with Lebedev spheres
	Using 110 Lebedev grid points for each H atom
	Using 194 Lebedev grid points for other atoms
	Atomic van der Waals radii will be scaled by 1.20
 Remove points where switching function is < 1.0e-08
 Keep 882 surface tesserae and discard 942 interior tesserae
 Molecular Surface Area = 137.661 Angst**2

                       Distance Matrix (Angstroms)
             C (  1)   S (  2)   C (  3)   C (  4)   C (  5)   H (  6)
   S (  2)  1.768360
   C (  3)  2.593881  1.771629
   C (  4)  1.402529  2.574065  2.372003
   C (  5)  2.370152  2.574338  1.402935  1.408835
   H (  6)  2.196436  3.640531  3.402095  1.100049  2.207797
   H (  7)  3.400433  3.641223  2.196237  2.207440  1.100203  2.600235
   C (  8)  1.478200  2.741509  3.958143  2.631534  3.774018  3.021154
   H (  9)  1.831190  2.331309  3.774613  3.093542  3.934746  3.724206
   H ( 10)  2.156460  3.088692  4.546093  3.430679  4.523707  3.834020
   H ( 11)  2.335281  3.570413  4.663615  3.200842  4.369463  3.372316
   H ( 12)  3.658932  2.518543  1.095223  3.436752  2.277558  4.424194
             H (  7)   C (  8)   H (  9)   H ( 10)   H ( 11)
   C (  8)  4.757714
   H (  9)  4.978359  1.080004
   H ( 10)  5.545183  1.080046  1.526867
   H ( 11)  5.263246  1.080028  1.527491  1.820045
   H ( 12)  2.710934  4.977266  4.670305  5.511132  5.669035
 
 Requested basis set is rimp2-cc-pVTZ
 There are 207 shells and 707 basis functions
 A cutoff of  1.0D-10 yielded   4387 shell pairs
 There are     32915 function pairs (     42569 Cartesian)
 Smallest overlap matrix eigenvalue = 1.32E-04

 Scale SEOQF with 1.000000e+00/1.000000e-01/1.000000e-01

 Standard Electronic Orientation quadrupole field applied
 Nucleus-field energy     =     0.0000000042 hartrees
 Guess from superposition of atomic densities
 Warning:  Energy on first SCF cycle will be non-variational
 SAD guess density has 52.000000 electrons

 -----------------------------------------------------------------------
  General SCF calculation program by
  Eric Jon Sundstrom, Paul Horn, Yuezhi Mao, Dmitri Zuev, Alec White,
  David Stuck, Shaama M.S., Shane Yost, Joonho Lee, David Small,
  Daniel Levine, Susi Lehtola, Hugh Burton, Evgeny Epifanovsky,
  Bang C. Huynh
 -----------------------------------------------------------------------
 Hartree-Fock
 using 64 threads for integral computing
 -------------------------------------------------------
 OpenMP Integral computing Module                
 Release: version 1.0, May 2013, Q-Chem Inc. Pittsburgh 
 -------------------------------------------------------
 A restricted SCF calculation will be
 performed using DIIS
 SCF converges when DIIS error is below 1.0e-06
 ---------------------------------------
  Cycle       Energy         DIIS error
 ---------------------------------------
    1    -592.6012854343      3.23e-02  
    2    -590.2915519236      2.19e-03  
    3    -590.3527609685      8.20e-04  
    4    -590.3599009556      3.87e-04  
    5    -590.3618365551      7.20e-05  
    6    -590.3619673646      3.14e-05  
    7    -590.3620007953      1.48e-05  
    8    -590.3620109039      5.95e-06  
    9    -590.3620124938      2.09e-06  
   10    -590.3620126568      6.09e-07  Convergence criterion met
 ---------------------------------------
 SCF time:   CPU 483.10s  wall 9.00s 

************** Final PCM Free Energy Summary **************
 G_electrostatic  =      -0.00532065 hartree =      -3.33875755 kcal/mol
 G_cavitation     =       0.00000000 hartree =       0.00000000 kcal/mol
 G_dispersion     =       0.00000000 hartree =       0.00000000 kcal/mol
 G_repulsion      =       0.00000000 hartree =       0.00000000 kcal/mol
 --------------------------------------------------
 Non-electrostatic Free Energy =       0.00000000 hartree =       0.00000000 kcal/mol
 Total                         =      -0.00532065 hartree =      -3.33875755 kcal/mol
 --------------------------------------------------
 SCF Energy (H0 + V/2)                       =    -590.36201266 
 Solute Internal Energy (H0)                 =    -590.35669201 
 Total Free Energy (H0 + V/2 + non-elec)     =    -590.36201266 hartree
                                             = -370457.75426077 kcal/mol
***********************************************************

 SCF   energy in the final basis set =     -590.3620126568
 Total energy in the final basis set =     -590.3620126568


 --------------------------------------------------------------
  Generalized many-body perturbation theory program
  by Joonho Lee, Fazle Rob, Xintian Feng, Evgeny Epifanovsky

 No regularization used 
 (reg. param. = 0.0000e+00)
  (P|Q)^-1/2 Time:  CPU 5.23 s  wall 0.09 s

 In RI-MP2 calculation: 
 # of frozen core orbitals: 10

 Components of the RIMP2 correlation energy:
        aaaa    correlation energy =        -0.1254450773 a.u.
        abab    correlation energy =        -0.7519869132 a.u.
        bbbb    correlation energy =        -0.1254450773 a.u.
        non-Brillouin singles      =        -0.0000000000 a.u.
        total same-spin energy     =        -0.2508901546 a.u.
        total opposite-spin energy =        -0.7519869132 a.u.

 Total  RIMP2   correlation energy =        -1.0028770678 a.u.
        RIMP2         total energy =      -591.3648897246 a.u.

 RI-MP2 Energy Time:  CPU 23.52 s  wall 0.42 s
 
 --------------------------------------------------------------
 
                    Orbital Energies (a.u.)
 --------------------------------------------------------------
 
 Alpha MOs
 -- Occupied --
-91.9782 -11.2820 -11.2706 -11.2428 -11.2374 -11.2221  -8.9785  -6.6593
 -6.6588  -6.6582  -1.1592  -1.0397  -0.9733  -0.9167  -0.7588  -0.7209
 -0.6718  -0.5952  -0.5691  -0.5633  -0.5338  -0.4998  -0.4638  -0.4519
 -0.3459  -0.3072
 -- Virtual --
  0.0975   0.1491   0.1611   0.1751   0.1911   0.1980   0.2117   0.2229
  0.2415   0.2546   0.3059   0.3197   0.3621   0.3697   0.3960   0.4136
  0.4281   0.4516   0.4611   0.4685   0.4906   0.4995   0.5228   0.5339
  0.5439   0.5606   0.5643   0.5716   0.5967   0.6096   0.6166   0.6201
  0.6314   0.6418   0.6519   0.6602   0.6980   0.7181   0.7278   0.7572
  0.7834   0.8002   0.8304   0.8445   0.8730   0.8799   0.8991   0.9252
  0.9523   0.9864   0.9932   1.0323   1.0541   1.0768   1.1070   1.1238
  1.1473   1.1611   1.1748   1.1956   1.2280   1.2346   1.2451   1.2556
  1.2985   1.3085   1.3465   1.3556   1.3914   1.4042   1.4255   1.4280
  1.4761   1.4808   1.4957   1.5248   1.5368   1.5492   1.5563   1.5756
  1.6076   1.6433   1.6486   1.6607   1.7114   1.7373   1.7502   1.8162
  1.8252   1.8971   1.9118   1.9287   1.9572   1.9975   2.0602   2.1080
  2.1395   2.1745   2.1879   2.2110   2.2566   2.2718   2.3518   2.4029
  2.4327   2.4554   2.4836   2.5066   2.5568   2.5946   2.6143   2.6618
  2.7018   2.7087   2.7200   2.7306   2.7456   2.7819   2.7992   2.8366
  2.8888   2.9070   2.9134   2.9876   2.9989   3.0184   3.0286   3.0384
  3.0487   3.1165   3.1324   3.1403   3.1561   3.2022   3.2110   3.2428
  3.2645   3.2776   3.2985   3.3157   3.3380   3.3497   3.3694   3.3773
  3.4064   3.4209   3.4339   3.4460   3.4562   3.4741   3.4845   3.4984
  3.5055   3.5224   3.5497   3.5801   3.5944   3.6157   3.6572   3.6663
  3.6819   3.7118   3.7172   3.7330   3.7722   3.7934   3.8149   3.8419
  3.8556   3.8870   3.8978   3.9303   3.9329   3.9515   3.9574   3.9877
  4.0150   4.0183   4.0557   4.1083   4.1287   4.1460   4.1705   4.2071
  4.2199   4.2310   4.2576   4.2970   4.3083   4.3428   4.3857   4.3962
  4.4427   4.4581   4.4832   4.4944   4.5367   4.5659   4.5964   4.6365
  4.6697   4.6818   4.7076   4.7662   4.7946   4.7982   4.8308   4.8765
  4.9109   5.0084   5.0278   5.0415   5.0679   5.1584   5.1898   5.1937
  5.2200   5.3030   5.3590   5.4248   5.4610   5.4990   5.5444   5.5991
  5.6277   5.6702   5.7938   5.8296   5.8640   5.9104   5.9962   6.0726
  6.1287   6.3256   6.4307   6.4386   6.7023   9.3690  11.3106  12.7419
 13.8922  14.2673
 --------------------------------------------------------------
 
          Ground-State Mulliken Net Atomic Charges

     Atom                 Charge (a.u.)
  ----------------------------------------
      1 C                     0.015943
      2 S                    -0.004687
      3 C                    -0.228811
      4 C                    -0.229787
      5 C                    -0.185963
      6 H                     0.184607
      7 H                     0.186203
      8 C                    -0.356493
      9 H                     0.122800
     10 H                     0.129434
     11 H                     0.161126
     12 H                     0.205627
  ----------------------------------------
  Sum of atomic charges =     0.000000

 -----------------------------------------------------------------
                    Cartesian Multipole Moments
 -----------------------------------------------------------------
    Charge (ESU x 10^10)
                -0.0000
    Dipole Moment (Debye)
         X       0.8268      Y      -0.2659      Z      -0.5077
       Tot       1.0060
    Quadrupole Moments (Debye-Ang)
        XX     -46.7696     XY       2.0257     YY     -37.2463
        XZ      -0.2313     YZ      -0.2151     ZZ     -42.2092
    Octopole Moments (Debye-Ang^2)
       XXX     -26.7954    XXY     -17.4125    XYY       2.2457
       YYY     -39.7524    XXZ      -6.7325    XYZ       2.8209
       YYZ      -2.2906    XZZ      -5.2784    YZZ      -8.0144
       ZZZ     -29.0776
    Hexadecapole Moments (Debye-Ang^3)
      XXXX    -105.5044   XXXY     -61.3758   XXYY    -101.0964
      XYYY     -40.8582   YYYY    -479.2703   XXXZ      -2.6878
      XXYZ      -4.8572   XYYZ      -1.5800   YYYZ      -9.3119
      XXZZ     -71.9964   XYZZ     -11.1859   YYZZ    -124.2452
      XZZZ      -0.1892   YZZZ     -13.2718   ZZZZ    -303.7265
 -----------------------------------------------------------------
 Total job time:  10.48s(wall), 531.16s(cpu) 
 Wed Dec 27 10:01:47 2023

        *************************************************************
        *                                                           *
        *  Thank you very much for using Q-Chem.  Have a nice day.  *
        *                                                           *
        *************************************************************


0 sent ACK to 0 
now end server 0 ... 
cleanup process ... done
remove work dirs ./qchem2788717.0 -- ./qchem2788717.0
rm -rf ./qchem2788717.0
rm -rf ./qchem2788717
