You are running Q-Chem version: 5.4.0

#
# job setting
#
local host:  exp-9-52
current dir: /home/rramji/project-csd799/aromodel/pndit-qchem/methylated-rotation-run
input file:  Dimethyl_Naphthalene_Dicarboximide_Phi_40_Theta_100_Thiophene_Hydrogenated_Improper.qcin
output file: 
nprocs     : 1
nthreads   : 64
#
# qchem installation setting
#
QC:          /cm/shared/apps/spack/cpu/opt/spack/linux-centos8-zen2/gcc-10.2.0/qchem-5.4-akfmr7b3t57bfs6qan3padb2wnb2i7cl
QCAUX:       /cm/shared/apps/spack/cpu/opt/spack/linux-centos8-zen2/gcc-10.2.0/qchem-5.4-akfmr7b3t57bfs6qan3padb2wnb2i7cl/qcaux
QCPROG:      /cm/shared/apps/spack/cpu/opt/spack/linux-centos8-zen2/gcc-10.2.0/qchem-5.4-akfmr7b3t57bfs6qan3padb2wnb2i7cl/exe/qcprog.exe
QCPROG_S:    /cm/shared/apps/spack/cpu/opt/spack/linux-centos8-zen2/gcc-10.2.0/qchem-5.4-akfmr7b3t57bfs6qan3padb2wnb2i7cl/exe/qcprog.exe_s
PARALLEL:    -DPARALLEL
QCMPI:       mpich
#
# qchem directory setting
#
qcrun:       qchem3736632
QCSCRATCH:   .
QCLOCALSCR:  
QCTMPDIR:    .
QCFILEPREF:  ./qchem3736632
QCSAVEDIR:   
workdirs:    ./qchem3736632
workdir0:    ./qchem3736632
partmpdirs =  
#
# parallel setting
#
QCRSH:           ssh
QCMPI:           mpich
QCMPIRUN:        /cm/shared/apps/spack/cpu/opt/spack/linux-centos8-zen2/gcc-10.2.0/qchem-5.4-akfmr7b3t57bfs6qan3padb2wnb2i7cl/bin/mpi/mpirun_qchem
QCMACHINEFILE:   ./qchem3736632/hostfile
exp-9-52

#
# env setting
#
exported envs:   QC QCAUX QCSCRATCH QCRUNNAME QCFILEPREF QCPROG QCPROG_S GUIFILE

Running Job 1 of 1 Dimethyl_Naphthalene_Dicarboximide_Phi_40_Theta_100_Thiophene_Hydrogenated_Improper.qcin
qchem Dimethyl_Naphthalene_Dicarboximide_Phi_40_Theta_100_Thiophene_Hydrogenated_Improper.qcin_3736632.0 ./qchem3736632/ 1
/cm/shared/apps/spack/cpu/opt/spack/linux-centos8-zen2/gcc-10.2.0/qchem-5.4-akfmr7b3t57bfs6qan3padb2wnb2i7cl/bin/mpi/mpirun_qchem -machinefile ./qchem3736632/hostfile -np 1 /cm/shared/apps/spack/cpu/opt/spack/linux-centos8-zen2/gcc-10.2.0/qchem-5.4-akfmr7b3t57bfs6qan3padb2wnb2i7cl/exe/qcprog.exe Dimethyl_Naphthalene_Dicarboximide_Phi_40_Theta_100_Thiophene_Hydrogenated_Improper.qcin_3736632.0 ./qchem3736632/

Process 0 of 1 is on exp-9-52 - thread support 0
initial socket setup ...start
initial socket setup ...done 
now start server 0 ... 
                  Welcome to Q-Chem
     A Quantum Leap Into The Future Of Chemistry


 Q-Chem 5.4, Q-Chem, Inc., Pleasanton, CA (2021)

 License issued to: University of California, San Diego (site)

 E. Epifanovsky,  A. T. B. Gilbert,  Xintian Feng,  Joonho Lee,  Yuezhi Mao,  
 N. Mardirossian,  P. Pokhilko,  A. White,  M. Wormit,  M. P. Coons,  
 A. L. Dempwolff,  Zhengting Gan,  D. Hait,  P. R. Horn,  L. D. Jacobson,  
 I. Kaliman,  J. Kussmann,  A. W. Lange,  Ka Un Lao,  D. S. Levine,  Jie Liu,  
 S. C. McKenzie,  A. F. Morrison,  K. Nanda,  F. Plasser,  D. R. Rehn,  
 M. L. Vidal,  Zhi-Qiang You,  Ying Zhu,  B. Alam,  B. Albrecht,  
 A. Aldossary,  E. Alguire,  J. H. Andersen,  D. Barton,  K. Begam,  A. Behn,  
 Y. A. Bernard,  E. J. Berquist,  H. Burton,  A. Carreras,  K. Carter-Fenk,  
 R. Chakraborty,  A. D. Chien,  K. D. Closser,  V. Cofer-Shabica,  
 S. Dasgupta,  Jia Deng,  M. de Wergifosse,  M. Diedenhofen,  Hainam Do,  
 S. Ehlert,  Po-Tung Fang,  S. Fatehi,  Qingguo Feng,  J. Gayvert,  
 Qinghui Ge,  G. Gidofalvi,  M. Goldey,  J. Gomes,  C. Gonzalez-Espinoza,  
 S. Gulania,  A. Gunina,  M. W. D. Hanson-Heine,  P. H. P. Harbach,  
 A. W. Hauser,  M. F. Herbst,  M. Hernandez Vera,  M. Hodecker,  
 Z. C. Holden,  S. Houck,  Xunkun Huang,  Kerwin Hui,  B. C. Huynh,  
 M. Ivanov,  Hyunjun Ji,  Hanjie Jiang,  B. Kaduk,  S. Kaehler,  
 K. Khistyaev,  Jaehoon Kim,  P. Klunzinger,  Z. Koczor-Benda,  
 Joong Hoon Koh,  D. Kosenkov,  L. Koulias,  T. Kowalczyk,  C. M. Krauter,  
 K. Kue,  A. Kunitsa,  T. Kus,  A. Landau,  K. V. Lawler,  D. Lefrancois,  
 S. Lehtola,  Rain Li,  Yi-Pei Li,  Jiashu Liang,  M. Liebenthal,  
 Hung-Hsuan Lin,  You-Sheng Lin,  Fenglai Liu,  Kuan-Yu Liu,  
 M. Loipersberger,  A. Luenser,  A. Manjanath,  P. Manohar,  E. Mansoor,  
 S. F. Manzer,  Shan-Ping Mao,  A. V. Marenich,  T. Markovich,  S. Mason,  
 S. A. Maurer,  P. F. McLaughlin,  M. F. S. J. Menger,  J.-M. Mewes,  
 S. A. Mewes,  P. Morgante,  J. W. Mullinax,  T. S. Nguyen-Beck,  
 K. J. Oosterbaan,  G. Paran,  Alexander C. Paul,  Suranjan K. Paul,  
 F. Pavosevic,  Zheng Pei,  S. Prager,  E. I. Proynov,  E. Ramos,  B. Rana,  
 A. E. Rask,  A. Rettig,  R. M. Richard,  F. Rob,  E. Rossomme,  T. Scheele,  
 M. Scheurer,  M. Schneider,  N. Sergueev,  S. M. Sharada,  W. Skomorowski,  
 D. W. Small,  C. J. Stein,  Yu-Chuan Su,  E. J. Sundstrom,  Zhen Tao,  
 J. Thirman,  T. Tsuchimochi,  N. M. Tubman,  S. P. Veccham,  O. Vydrov,  
 J. Wenzel,  J. Witte,  A. Yamada,  Kun Yao,  S. Yeganeh,  S. R. Yost,  
 A. Zech,  Igor Ying Zhang,  Xing Zhang,  Yu Zhang,  D. Zuev,  
 A. Aspuru-Guzik,  A. T. Bell,  N. A. Besley,  K. B. Bravaya,  B. R. Brooks,  
 D. Casanova,  Jeng-Da Chai,  S. Coriani,  C. J. Cramer,  
 A. E. DePrince, III,  R. A. DiStasio Jr.,  A. Dreuw,  B. D. Dunietz,  
 T. R. Furlani,  W. A. Goddard III,  S. Grimme,  S. Hammes-Schiffer,  
 T. Head-Gordon,  W. J. Hehre,  Chao-Ping Hsu,  T.-C. Jagau,  Yousung Jung,  
 A. Klamt,  Jing Kong,  D. S. Lambrecht,  WanZhen Liang,  N. J. Mayhall,  
 C. W. McCurdy,  J. B. Neaton,  C. Ochsenfeld,  J. A. Parkhill,  R. Peverati,  
 V. A. Rassolov,  Yihan Shao,  L. V. Slipchenko,  T. Stauch,  R. P. Steele,  
 J. E. Subotnik,  A. J. W. Thom,  A. Tkatchenko,  D. G. Truhlar,  
 T. Van Voorhis,  T. A. Wesolowski,  K. B. Whaley,  H. L. Woodcock III,  
 P. M. Zimmerman,  S. Faraji,  P. M. W. Gill,  M. Head-Gordon,  
 J. M. Herbert,  A. I. Krylov

 Contributors to earlier versions of Q-Chem not listed above: 
 R. D. Adamson,  B. Austin,  R. Baer,  J. Baker,  G. J. O. Beran,  
 K. Brandhorst,  S. T. Brown,  E. F. C. Byrd,  A. K. Chakraborty,  
 G. K. L. Chan,  Chun-Min Chang,  Yunqing Chen,  C.-L. Cheng,  
 Siu Hung Chien,  D. M. Chipman,  D. L. Crittenden,  H. Dachsel,  
 R. J. Doerksen,  A. D. Dutoi,  R. G. Edgar,  J. Fosso-Tande,  
 L. Fusti-Molnar,  D. Ghosh,  A. Ghysels,  A. Golubeva-Zadorozhnaya,  
 J. Gonthier,  M. S. Gordon,  S. R. Gwaltney,  G. Hawkins,  J. E. Herr,  
 A. Heyden,  S. Hirata,  E. G. Hohenstein,  G. Kedziora,  F. J. Keil,  
 C. Kelley,  Jihan Kim,  R. A. King,  R. Z. Khaliullin,  P. P. Korambath,  
 W. Kurlancheek,  A. Laurent,  A. M. Lee,  M. S. Lee,  S. V. Levchenko,  
 Ching Yeh Lin,  D. Liotard,  E. Livshits,  R. C. Lochan,  I. Lotan,  
 L. A. Martinez-Martinez,  P. E. Maslen,  N. Nair,  D. P. O'Neill,  
 D. Neuhauser,  E. Neuscamman,  C. M. Oana,  R. Olivares-Amaya,  R. Olson,  
 T. M. Perrine,  B. Peters,  P. A. Pieniazek,  A. Prociuk,  Y. M. Rhee,  
 J. Ritchie,  M. A. Rohrdanz,  E. Rosta,  N. J. Russ,  H. F. Schaefer III,  
 M. W. Schmidt,  N. E. Schultz,  S. Sharma,  N. Shenvi,  C. D. Sherrill,  
 A. C. Simmonett,  A. Sodt,  T. Stein,  D. Stuck,  K. S. Thanthiriwatte,  
 V. Vanovschi,  L. Vogt,  Tao Wang,  A. Warshel,  M. A. Watson,  
 C. F. Williams,  Q. Wu,  X. Xu,  Jun Yang,  W. Zhang,  Yan Zhao

 Please cite Q-Chem as follows:
 Y. Shao et al., Mol. Phys. 113, 184-215 (2015)
 DOI: 10.1080/00268976.2014.952696

 Q-Chem 5.4.0 for Intel X86 EM64T Linux

 Parts of Q-Chem use Armadillo 9.800.1 (Horizon Scraper).
 http://arma.sourceforge.net/

 Q-Chem begins on Wed Dec 27 10:02:19 2023  

 Host: 
0

     Scratch files written to ./qchem3736632//
 May1621 |scratch|qcdevops|jenkins|workspace|build_RNUM    
 Parallel job on  1  processors
 Processing $rem in /cm/shared/apps/spack/cpu/opt/spack/linux-centos8-zen2/gcc-10.2.0/qchem-5.4-akfmr7b3t57bfs6qan3padb2wnb2i7cl/config/preferences:
 Processing $rem in /home/rramji/.qchemrc:
 Symmetry turned off for PCM/SM12/SMD calculation
 Core orbitals will be frozen

 Checking the input file for inconsistencies... 	...done.

 Q-Chem warning in module forms1/BasisType.C, line 2236:

 You are not using the predefined 5D/6D in this basis set.


--------------------------------------------------------------
User input:
--------------------------------------------------------------
$molecule
0 1
C	-0.331367	-0.278098	-0.219778
S	0.178333	0.329602	1.360722
C	1.231033	1.584202	0.685122
C	0.310033	0.486502	-1.205178
C	1.158533	1.497902	-0.713278
H	0.158533	0.306002	-2.279678
H	1.724733	2.172802	-1.372378
C	-0.331367	-1.756298	-0.219778
H	-0.519467	-1.756898	0.843722
H	-1.302967	-2.195598	-0.391178
H	0.469333	-2.467298	-0.078778
H	1.797033	2.258902	1.336222
$end

$rem
JOBTYPE		SP
EXCHANGE	HF
CORRELATION	pRIMP2
BASIS		cc-pvtz
METHOD		rimp2
AUX_BASIS	rimp2-cc-pvtz
SOLVENT_METHOD	PCM
PURECART	11111
SYMMETRY	false
MEM_TOTAL	110000
SCF_CONVERGENCE = 6
THRESH=10
GUI = 2
$end



$solvent
dielectric 4.90
$end
--------------------------------------------------------------
 ----------------------------------------------------------------
             Standard Nuclear Orientation (Angstroms)
    I     Atom           X                Y                Z
 ----------------------------------------------------------------
    1      C      -0.3313670000    -0.2780980000    -0.2197780000
    2      S       0.1783330000     0.3296020000     1.3607220000
    3      C       1.2310330000     1.5842020000     0.6851220000
    4      C       0.3100330000     0.4865020000    -1.2051780000
    5      C       1.1585330000     1.4979020000    -0.7132780000
    6      H       0.1585330000     0.3060020000    -2.2796780000
    7      H       1.7247330000     2.1728020000    -1.3723780000
    8      C      -0.3313670000    -1.7562980000    -0.2197780000
    9      H      -0.5194670000    -1.7568980000     0.8437220000
   10      H      -1.3029670000    -2.1955980000    -0.3911780000
   11      H       0.4693330000    -2.4672980000    -0.0787780000
   12      H       1.7970330000     2.2589020000     1.3362220000
 ----------------------------------------------------------------
 Nuclear Repulsion Energy =         273.07283001 hartrees
 There are       26 alpha and       26 beta electrons
 Requested basis set is cc-pVTZ
 There are 98 shells and 268 basis functions

 Total QAlloc Memory Limit 110000 MB
 Mega-Array Size       188 MB
 MEM_STATIC part       192 MB
 Discretize the solute cavity surface with Lebedev spheres
	Using 110 Lebedev grid points for each H atom
	Using 194 Lebedev grid points for other atoms
	Atomic van der Waals radii will be scaled by 1.20
 Remove points where switching function is < 1.0e-08
 Keep 861 surface tesserae and discard 963 interior tesserae
 Molecular Surface Area = 136.730 Angst**2

                       Distance Matrix (Angstroms)
             C (  1)   S (  2)   C (  3)   C (  4)   C (  5)   H (  6)
   S (  2)  1.768353
   C (  3)  2.593858  1.771619
   C (  4)  1.402505  2.574064  2.372008
   C (  5)  2.370131  2.574333  1.402935  1.408846
   H (  6)  2.196443  3.640530  3.402072  1.100038  2.207767
   H (  7)  3.400433  3.641233  2.196246  2.207474  1.100221  2.600215
   C (  8)  1.478200  2.666225  3.797220  2.532303  3.612916  2.955718
   H (  9)  1.831192  2.260021  3.775229  3.149429  3.979153  3.804059
   H ( 10)  2.156430  3.411750  4.676159  3.233887  4.450244  3.458384
   H ( 11)  2.335294  3.159033  4.192658  3.165294  4.074359  3.554117
   H ( 12)  3.658906  2.518529  1.095220  3.436755  2.277554  4.424165
             H (  7)   C (  8)   H (  9)   H ( 10)   H ( 11)
   C (  8)  4.581906
   H (  9)  5.038857  1.080007
   H ( 10)  5.404872  1.079986  1.526862
   H ( 11)  4.977947  1.080057  1.527547  1.820017
   H ( 12)  2.710932  4.803442  4.662122  5.695303  5.109010
 
 Requested basis set is rimp2-cc-pVTZ
 There are 207 shells and 707 basis functions
 A cutoff of  1.0D-10 yielded   4414 shell pairs
 There are     33198 function pairs (     42958 Cartesian)
 Smallest overlap matrix eigenvalue = 1.73E-04

 Scale SEOQF with 1.000000e-01/1.000000e-01/1.000000e-01

 Standard Electronic Orientation quadrupole field applied
 Nucleus-field energy     =     0.0000000005 hartrees
 Guess from superposition of atomic densities
 Warning:  Energy on first SCF cycle will be non-variational
 SAD guess density has 52.000000 electrons

 -----------------------------------------------------------------------
  General SCF calculation program by
  Eric Jon Sundstrom, Paul Horn, Yuezhi Mao, Dmitri Zuev, Alec White,
  David Stuck, Shaama M.S., Shane Yost, Joonho Lee, David Small,
  Daniel Levine, Susi Lehtola, Hugh Burton, Evgeny Epifanovsky,
  Bang C. Huynh
 -----------------------------------------------------------------------
 Hartree-Fock
 using 64 threads for integral computing
 -------------------------------------------------------
 OpenMP Integral computing Module                
 Release: version 1.0, May 2013, Q-Chem Inc. Pittsburgh 
 -------------------------------------------------------
 A restricted SCF calculation will be
 performed using DIIS
 SCF converges when DIIS error is below 1.0e-06
 ---------------------------------------
  Cycle       Energy         DIIS error
 ---------------------------------------
    1    -592.6310126646      3.25e-02  
    2    -590.2666590496      2.16e-03  
    3    -590.3276698872      7.77e-04  
    4    -590.3346004464      3.64e-04  
    5    -590.3363896205      7.17e-05  
    6    -590.3365367226      3.15e-05  
    7    -590.3365786686      1.51e-05  
    8    -590.3365913591      5.86e-06  
    9    -590.3365932067      2.22e-06  
   10    -590.3365933767      1.07e-06  
   11    -590.3365934154      3.57e-07  Convergence criterion met
 ---------------------------------------
 SCF time:   CPU 539.42s  wall 10.00s 

************** Final PCM Free Energy Summary **************
 G_electrostatic  =      -0.00505245 hartree =      -3.17046064 kcal/mol
 G_cavitation     =       0.00000000 hartree =       0.00000000 kcal/mol
 G_dispersion     =       0.00000000 hartree =       0.00000000 kcal/mol
 G_repulsion      =       0.00000000 hartree =       0.00000000 kcal/mol
 --------------------------------------------------
 Non-electrostatic Free Energy =       0.00000000 hartree =       0.00000000 kcal/mol
 Total                         =      -0.00505245 hartree =      -3.17046064 kcal/mol
 --------------------------------------------------
 SCF Energy (H0 + V/2)                       =    -590.33659342 
 Solute Internal Energy (H0)                 =    -590.33154096 
 Total Free Energy (H0 + V/2 + non-elec)     =    -590.33659342 hartree
                                             = -370441.80344601 kcal/mol
***********************************************************

 SCF   energy in the final basis set =     -590.3365934154
 Total energy in the final basis set =     -590.3365934154


 --------------------------------------------------------------
  Generalized many-body perturbation theory program
  by Joonho Lee, Fazle Rob, Xintian Feng, Evgeny Epifanovsky

 No regularization used 
 (reg. param. = 0.0000e+00)
  (P|Q)^-1/2 Time:  CPU 8.52 s  wall 0.14 s

 In RI-MP2 calculation: 
 # of frozen core orbitals: 10

 Components of the RIMP2 correlation energy:
        aaaa    correlation energy =        -0.1265320524 a.u.
        abab    correlation energy =        -0.7557791295 a.u.
        bbbb    correlation energy =        -0.1265320524 a.u.
        non-Brillouin singles      =        -0.0000000000 a.u.
        total same-spin energy     =        -0.2530641049 a.u.
        total opposite-spin energy =        -0.7557791295 a.u.

 Total  RIMP2   correlation energy =        -1.0088432343 a.u.
        RIMP2         total energy =      -591.3454366497 a.u.

 RI-MP2 Energy Time:  CPU 27.28 s  wall 0.48 s
 
 --------------------------------------------------------------
 
                    Orbital Energies (a.u.)
 --------------------------------------------------------------
 
 Alpha MOs
 -- Occupied --
-91.9785 -11.2811 -11.2653 -11.2463 -11.2433 -11.2169  -8.9788  -6.6596
 -6.6589  -6.6585  -1.1624  -1.0374  -0.9763  -0.9127  -0.7629  -0.7226
 -0.6714  -0.5926  -0.5707  -0.5620  -0.5425  -0.4799  -0.4616  -0.4449
 -0.3438  -0.3133
 -- Virtual --
  0.0776   0.1500   0.1600   0.1775   0.1909   0.1952   0.2072   0.2227
  0.2321   0.2796   0.2956   0.3112   0.3610   0.3702   0.3870   0.4060
  0.4318   0.4488   0.4520   0.4706   0.4789   0.5109   0.5207   0.5305
  0.5381   0.5518   0.5645   0.5773   0.5998   0.6067   0.6158   0.6212
  0.6285   0.6495   0.6509   0.6703   0.6846   0.7064   0.7315   0.7543
  0.7800   0.7890   0.8128   0.8378   0.8681   0.8881   0.8991   0.9260
  0.9576   0.9816   0.9894   1.0447   1.0717   1.0799   1.1154   1.1376
  1.1401   1.1634   1.1683   1.2092   1.2257   1.2324   1.2533   1.2554
  1.2833   1.3225   1.3273   1.3518   1.3811   1.3947   1.4255   1.4360
  1.4605   1.4835   1.4995   1.5120   1.5341   1.5454   1.5706   1.5968
  1.6030   1.6329   1.6429   1.6649   1.6891   1.7194   1.7699   1.8275
  1.8478   1.8889   1.9012   1.9381   1.9492   1.9856   2.0334   2.1028
  2.1306   2.1697   2.1771   2.2152   2.2448   2.2637   2.3280   2.4152
  2.4288   2.4632   2.4769   2.5144   2.5865   2.6048   2.6238   2.6720
  2.6986   2.7147   2.7213   2.7358   2.7579   2.7682   2.8280   2.8305
  2.8579   2.8926   2.9533   2.9621   2.9881   3.0103   3.0283   3.0450
  3.0731   3.1145   3.1349   3.1428   3.1558   3.2004   3.2137   3.2283
  3.2524   3.2741   3.2776   3.3018   3.3234   3.3361   3.3493   3.3723
  3.3979   3.4192   3.4304   3.4423   3.4571   3.4763   3.4898   3.5067
  3.5096   3.5570   3.5689   3.5779   3.5939   3.6279   3.6400   3.6754
  3.6855   3.7043   3.7314   3.7572   3.7737   3.7891   3.8298   3.8676
  3.8734   3.8853   3.9231   3.9398   3.9531   3.9682   4.0015   4.0050
  4.0186   4.0379   4.0432   4.0872   4.1288   4.1438   4.1840   4.2072
  4.2212   4.2565   4.2654   4.2938   4.3195   4.3702   4.3795   4.4169
  4.4382   4.4566   4.4820   4.4924   4.5461   4.5696   4.6166   4.6540
  4.6824   4.6841   4.7106   4.7417   4.7852   4.8232   4.8331   4.8541
  4.9083   5.0070   5.0168   5.0337   5.1074   5.1400   5.1758   5.2087
  5.2156   5.2835   5.3583   5.4129   5.4558   5.4832   5.5266   5.6176
  5.6363   5.6785   5.7510   5.7853   5.8860   5.9501   5.9831   6.0476
  6.0691   6.3151   6.4046   6.4546   6.6103   9.4882  11.4903  12.6765
 13.9609  13.9725
 --------------------------------------------------------------
 
          Ground-State Mulliken Net Atomic Charges

     Atom                 Charge (a.u.)
  ----------------------------------------
      1 C                    -0.052232
      2 S                     0.002396
      3 C                    -0.199974
      4 C                    -0.167839
      5 C                    -0.201283
      6 H                     0.184608
      7 H                     0.186435
      8 C                    -0.341482
      9 H                     0.109533
     10 H                     0.117063
     11 H                     0.155460
     12 H                     0.207315
  ----------------------------------------
  Sum of atomic charges =     0.000000

 -----------------------------------------------------------------
                    Cartesian Multipole Moments
 -----------------------------------------------------------------
    Charge (ESU x 10^10)
                 0.0000
    Dipole Moment (Debye)
         X       1.2378      Y       0.1627      Z      -0.5193
       Tot       1.3521
    Quadrupole Moments (Debye-Ang)
        XX     -43.8886     XY       4.5923     YY     -40.3129
        XZ       0.4705     YZ      -0.4196     ZZ     -41.9500
    Octopole Moments (Debye-Ang^2)
       XXX     -42.9578    XXY      -6.2503    XYY      -4.4008
       YYY     -33.0258    XXZ      -5.4234    XYZ       2.6183
       YYZ      -2.1489    XZZ      -9.7441    YZZ      -4.2993
       ZZZ     -29.7307
    Hexadecapole Moments (Debye-Ang^3)
      XXXX    -195.0695   XXXY     -82.5487   XXYY     -81.9729
      XYYY     -77.3686   YYYY    -407.8729   XXXZ      -2.4250
      XXYZ      -0.8325   XYYZ       2.9285   YYYZ     -13.4192
      XXZZ     -80.1208   XYZZ     -18.7886   YYZZ    -115.4896
      XZZZ      -2.8026   YZZZ     -12.9467   ZZZZ    -300.9276
 -----------------------------------------------------------------
 Total job time:  11.93s(wall), 605.37s(cpu) 
 Wed Dec 27 10:02:31 2023

        *************************************************************
        *                                                           *
        *  Thank you very much for using Q-Chem.  Have a nice day.  *
        *                                                           *
        *************************************************************


0 sent ACK to 0 
now end server 0 ... 
cleanup process ... done
remove work dirs ./qchem3736632.0 -- ./qchem3736632.0
rm -rf ./qchem3736632.0
rm -rf ./qchem3736632
