You are running Q-Chem version: 5.4.0

#
# job setting
#
local host:  exp-13-43
current dir: /home/rramji/project-csd799/aromodel/pndit-qchem/methylated-rotation-run
input file:  Dimethyl_Naphthalene_Dicarboximide_Phi_5_Theta_100_Thiophene_Hydrogenated_Improper.qcin
output file: 
nprocs     : 1
nthreads   : 64
#
# qchem installation setting
#
QC:          /cm/shared/apps/spack/cpu/opt/spack/linux-centos8-zen2/gcc-10.2.0/qchem-5.4-akfmr7b3t57bfs6qan3padb2wnb2i7cl
QCAUX:       /cm/shared/apps/spack/cpu/opt/spack/linux-centos8-zen2/gcc-10.2.0/qchem-5.4-akfmr7b3t57bfs6qan3padb2wnb2i7cl/qcaux
QCPROG:      /cm/shared/apps/spack/cpu/opt/spack/linux-centos8-zen2/gcc-10.2.0/qchem-5.4-akfmr7b3t57bfs6qan3padb2wnb2i7cl/exe/qcprog.exe
QCPROG_S:    /cm/shared/apps/spack/cpu/opt/spack/linux-centos8-zen2/gcc-10.2.0/qchem-5.4-akfmr7b3t57bfs6qan3padb2wnb2i7cl/exe/qcprog.exe_s
PARALLEL:    -DPARALLEL
QCMPI:       mpich
#
# qchem directory setting
#
qcrun:       qchem649936
QCSCRATCH:   .
QCLOCALSCR:  
QCTMPDIR:    .
QCFILEPREF:  ./qchem649936
QCSAVEDIR:   
workdirs:    ./qchem649936
workdir0:    ./qchem649936
partmpdirs =  
#
# parallel setting
#
QCRSH:           ssh
QCMPI:           mpich
QCMPIRUN:        /cm/shared/apps/spack/cpu/opt/spack/linux-centos8-zen2/gcc-10.2.0/qchem-5.4-akfmr7b3t57bfs6qan3padb2wnb2i7cl/bin/mpi/mpirun_qchem
QCMACHINEFILE:   ./qchem649936/hostfile
exp-13-43

#
# env setting
#
exported envs:   QC QCAUX QCSCRATCH QCRUNNAME QCFILEPREF QCPROG QCPROG_S GUIFILE

Running Job 1 of 1 Dimethyl_Naphthalene_Dicarboximide_Phi_5_Theta_100_Thiophene_Hydrogenated_Improper.qcin
qchem Dimethyl_Naphthalene_Dicarboximide_Phi_5_Theta_100_Thiophene_Hydrogenated_Improper.qcin_649936.0 ./qchem649936/ 1
/cm/shared/apps/spack/cpu/opt/spack/linux-centos8-zen2/gcc-10.2.0/qchem-5.4-akfmr7b3t57bfs6qan3padb2wnb2i7cl/bin/mpi/mpirun_qchem -machinefile ./qchem649936/hostfile -np 1 /cm/shared/apps/spack/cpu/opt/spack/linux-centos8-zen2/gcc-10.2.0/qchem-5.4-akfmr7b3t57bfs6qan3padb2wnb2i7cl/exe/qcprog.exe Dimethyl_Naphthalene_Dicarboximide_Phi_5_Theta_100_Thiophene_Hydrogenated_Improper.qcin_649936.0 ./qchem649936/

Process 0 of 1 is on exp-13-43 - thread support 0
initial socket setup ...start
initial socket setup ...done 
now start server 0 ... 
                  Welcome to Q-Chem
     A Quantum Leap Into The Future Of Chemistry


 Q-Chem 5.4, Q-Chem, Inc., Pleasanton, CA (2021)

 License issued to: University of California, San Diego (site)

 E. Epifanovsky,  A. T. B. Gilbert,  Xintian Feng,  Joonho Lee,  Yuezhi Mao,  
 N. Mardirossian,  P. Pokhilko,  A. White,  M. Wormit,  M. P. Coons,  
 A. L. Dempwolff,  Zhengting Gan,  D. Hait,  P. R. Horn,  L. D. Jacobson,  
 I. Kaliman,  J. Kussmann,  A. W. Lange,  Ka Un Lao,  D. S. Levine,  Jie Liu,  
 S. C. McKenzie,  A. F. Morrison,  K. Nanda,  F. Plasser,  D. R. Rehn,  
 M. L. Vidal,  Zhi-Qiang You,  Ying Zhu,  B. Alam,  B. Albrecht,  
 A. Aldossary,  E. Alguire,  J. H. Andersen,  D. Barton,  K. Begam,  A. Behn,  
 Y. A. Bernard,  E. J. Berquist,  H. Burton,  A. Carreras,  K. Carter-Fenk,  
 R. Chakraborty,  A. D. Chien,  K. D. Closser,  V. Cofer-Shabica,  
 S. Dasgupta,  Jia Deng,  M. de Wergifosse,  M. Diedenhofen,  Hainam Do,  
 S. Ehlert,  Po-Tung Fang,  S. Fatehi,  Qingguo Feng,  J. Gayvert,  
 Qinghui Ge,  G. Gidofalvi,  M. Goldey,  J. Gomes,  C. Gonzalez-Espinoza,  
 S. Gulania,  A. Gunina,  M. W. D. Hanson-Heine,  P. H. P. Harbach,  
 A. W. Hauser,  M. F. Herbst,  M. Hernandez Vera,  M. Hodecker,  
 Z. C. Holden,  S. Houck,  Xunkun Huang,  Kerwin Hui,  B. C. Huynh,  
 M. Ivanov,  Hyunjun Ji,  Hanjie Jiang,  B. Kaduk,  S. Kaehler,  
 K. Khistyaev,  Jaehoon Kim,  P. Klunzinger,  Z. Koczor-Benda,  
 Joong Hoon Koh,  D. Kosenkov,  L. Koulias,  T. Kowalczyk,  C. M. Krauter,  
 K. Kue,  A. Kunitsa,  T. Kus,  A. Landau,  K. V. Lawler,  D. Lefrancois,  
 S. Lehtola,  Rain Li,  Yi-Pei Li,  Jiashu Liang,  M. Liebenthal,  
 Hung-Hsuan Lin,  You-Sheng Lin,  Fenglai Liu,  Kuan-Yu Liu,  
 M. Loipersberger,  A. Luenser,  A. Manjanath,  P. Manohar,  E. Mansoor,  
 S. F. Manzer,  Shan-Ping Mao,  A. V. Marenich,  T. Markovich,  S. Mason,  
 S. A. Maurer,  P. F. McLaughlin,  M. F. S. J. Menger,  J.-M. Mewes,  
 S. A. Mewes,  P. Morgante,  J. W. Mullinax,  T. S. Nguyen-Beck,  
 K. J. Oosterbaan,  G. Paran,  Alexander C. Paul,  Suranjan K. Paul,  
 F. Pavosevic,  Zheng Pei,  S. Prager,  E. I. Proynov,  E. Ramos,  B. Rana,  
 A. E. Rask,  A. Rettig,  R. M. Richard,  F. Rob,  E. Rossomme,  T. Scheele,  
 M. Scheurer,  M. Schneider,  N. Sergueev,  S. M. Sharada,  W. Skomorowski,  
 D. W. Small,  C. J. Stein,  Yu-Chuan Su,  E. J. Sundstrom,  Zhen Tao,  
 J. Thirman,  T. Tsuchimochi,  N. M. Tubman,  S. P. Veccham,  O. Vydrov,  
 J. Wenzel,  J. Witte,  A. Yamada,  Kun Yao,  S. Yeganeh,  S. R. Yost,  
 A. Zech,  Igor Ying Zhang,  Xing Zhang,  Yu Zhang,  D. Zuev,  
 A. Aspuru-Guzik,  A. T. Bell,  N. A. Besley,  K. B. Bravaya,  B. R. Brooks,  
 D. Casanova,  Jeng-Da Chai,  S. Coriani,  C. J. Cramer,  
 A. E. DePrince, III,  R. A. DiStasio Jr.,  A. Dreuw,  B. D. Dunietz,  
 T. R. Furlani,  W. A. Goddard III,  S. Grimme,  S. Hammes-Schiffer,  
 T. Head-Gordon,  W. J. Hehre,  Chao-Ping Hsu,  T.-C. Jagau,  Yousung Jung,  
 A. Klamt,  Jing Kong,  D. S. Lambrecht,  WanZhen Liang,  N. J. Mayhall,  
 C. W. McCurdy,  J. B. Neaton,  C. Ochsenfeld,  J. A. Parkhill,  R. Peverati,  
 V. A. Rassolov,  Yihan Shao,  L. V. Slipchenko,  T. Stauch,  R. P. Steele,  
 J. E. Subotnik,  A. J. W. Thom,  A. Tkatchenko,  D. G. Truhlar,  
 T. Van Voorhis,  T. A. Wesolowski,  K. B. Whaley,  H. L. Woodcock III,  
 P. M. Zimmerman,  S. Faraji,  P. M. W. Gill,  M. Head-Gordon,  
 J. M. Herbert,  A. I. Krylov

 Contributors to earlier versions of Q-Chem not listed above: 
 R. D. Adamson,  B. Austin,  R. Baer,  J. Baker,  G. J. O. Beran,  
 K. Brandhorst,  S. T. Brown,  E. F. C. Byrd,  A. K. Chakraborty,  
 G. K. L. Chan,  Chun-Min Chang,  Yunqing Chen,  C.-L. Cheng,  
 Siu Hung Chien,  D. M. Chipman,  D. L. Crittenden,  H. Dachsel,  
 R. J. Doerksen,  A. D. Dutoi,  R. G. Edgar,  J. Fosso-Tande,  
 L. Fusti-Molnar,  D. Ghosh,  A. Ghysels,  A. Golubeva-Zadorozhnaya,  
 J. Gonthier,  M. S. Gordon,  S. R. Gwaltney,  G. Hawkins,  J. E. Herr,  
 A. Heyden,  S. Hirata,  E. G. Hohenstein,  G. Kedziora,  F. J. Keil,  
 C. Kelley,  Jihan Kim,  R. A. King,  R. Z. Khaliullin,  P. P. Korambath,  
 W. Kurlancheek,  A. Laurent,  A. M. Lee,  M. S. Lee,  S. V. Levchenko,  
 Ching Yeh Lin,  D. Liotard,  E. Livshits,  R. C. Lochan,  I. Lotan,  
 L. A. Martinez-Martinez,  P. E. Maslen,  N. Nair,  D. P. O'Neill,  
 D. Neuhauser,  E. Neuscamman,  C. M. Oana,  R. Olivares-Amaya,  R. Olson,  
 T. M. Perrine,  B. Peters,  P. A. Pieniazek,  A. Prociuk,  Y. M. Rhee,  
 J. Ritchie,  M. A. Rohrdanz,  E. Rosta,  N. J. Russ,  H. F. Schaefer III,  
 M. W. Schmidt,  N. E. Schultz,  S. Sharma,  N. Shenvi,  C. D. Sherrill,  
 A. C. Simmonett,  A. Sodt,  T. Stein,  D. Stuck,  K. S. Thanthiriwatte,  
 V. Vanovschi,  L. Vogt,  Tao Wang,  A. Warshel,  M. A. Watson,  
 C. F. Williams,  Q. Wu,  X. Xu,  Jun Yang,  W. Zhang,  Yan Zhao

 Please cite Q-Chem as follows:
 Y. Shao et al., Mol. Phys. 113, 184-215 (2015)
 DOI: 10.1080/00268976.2014.952696

 Q-Chem 5.4.0 for Intel X86 EM64T Linux

 Parts of Q-Chem use Armadillo 9.800.1 (Horizon Scraper).
 http://arma.sourceforge.net/

 Q-Chem begins on Wed Dec 27 10:01:55 2023  

 Host: 
0

     Scratch files written to ./qchem649936//
 May1621 |scratch|qcdevops|jenkins|workspace|build_RNUM    
 Parallel job on  1  processors
 Processing $rem in /cm/shared/apps/spack/cpu/opt/spack/linux-centos8-zen2/gcc-10.2.0/qchem-5.4-akfmr7b3t57bfs6qan3padb2wnb2i7cl/config/preferences:
 Processing $rem in /home/rramji/.qchemrc:
 Symmetry turned off for PCM/SM12/SMD calculation
 Core orbitals will be frozen

 Checking the input file for inconsistencies... 	...done.

 Q-Chem warning in module forms1/BasisType.C, line 2236:

 You are not using the predefined 5D/6D in this basis set.


--------------------------------------------------------------
User input:
--------------------------------------------------------------
$molecule
0 1
C	-0.043260	-0.397395	-0.219778
S	0.025640	0.392805	1.360722
C	0.168340	2.024305	0.685122
C	0.043540	0.596805	-1.205178
C	0.158540	1.912005	-0.713278
H	0.023040	0.362105	-2.279678
H	0.235240	2.789605	-1.372378
C	-0.043260	-1.875595	-0.219778
H	-0.231360	-1.876195	0.843722
H	-1.014860	-2.314895	-0.391178
H	0.757440	-2.586595	-0.078778
H	0.245040	2.901605	1.336222
$end

$rem
JOBTYPE		SP
EXCHANGE	HF
CORRELATION	pRIMP2
BASIS		cc-pvtz
METHOD		rimp2
AUX_BASIS	rimp2-cc-pvtz
SOLVENT_METHOD	PCM
PURECART	11111
SYMMETRY	false
MEM_TOTAL	110000
SCF_CONVERGENCE = 6
THRESH=10
GUI = 2
$end



$solvent
dielectric 4.90
$end
--------------------------------------------------------------
 ----------------------------------------------------------------
             Standard Nuclear Orientation (Angstroms)
    I     Atom           X                Y                Z
 ----------------------------------------------------------------
    1      C      -0.0432600000    -0.3973950000    -0.2197780000
    2      S       0.0256400000     0.3928050000     1.3607220000
    3      C       0.1683400000     2.0243050000     0.6851220000
    4      C       0.0435400000     0.5968050000    -1.2051780000
    5      C       0.1585400000     1.9120050000    -0.7132780000
    6      H       0.0230400000     0.3621050000    -2.2796780000
    7      H       0.2352400000     2.7896050000    -1.3723780000
    8      C      -0.0432600000    -1.8755950000    -0.2197780000
    9      H      -0.2313600000    -1.8761950000     0.8437220000
   10      H      -1.0148600000    -2.3148950000    -0.3911780000
   11      H       0.7574400000    -2.5865950000    -0.0787780000
   12      H       0.2450400000     2.9016050000     1.3362220000
 ----------------------------------------------------------------
 Nuclear Repulsion Energy =         270.72895538 hartrees
 There are       26 alpha and       26 beta electrons
 Requested basis set is cc-pVTZ
 There are 98 shells and 268 basis functions

 Total QAlloc Memory Limit 110000 MB
 Mega-Array Size       188 MB
 MEM_STATIC part       192 MB
 Discretize the solute cavity surface with Lebedev spheres
	Using 110 Lebedev grid points for each H atom
	Using 194 Lebedev grid points for other atoms
	Atomic van der Waals radii will be scaled by 1.20
 Remove points where switching function is < 1.0e-08
 Keep 890 surface tesserae and discard 934 interior tesserae
 Molecular Surface Area = 137.649 Angst**2

                       Distance Matrix (Angstroms)
             C (  1)   S (  2)   C (  3)   C (  4)   C (  5)   H (  6)
   S (  2)  1.768373
   C (  3)  2.593887  1.771607
   C (  4)  1.402491  2.574059  2.372038
   C (  5)  2.370146  2.574317  1.402936  1.408880
   H (  6)  2.196457  3.640530  3.402067  1.100025  2.207750
   H (  7)  3.400444  3.641211  2.196239  2.207505  1.100217  2.600188
   C (  8)  1.478200  2.765568  4.009094  2.662951  3.824942  3.042184
   H (  9)  1.831192  2.341303  3.924132  3.223242  4.114211  3.851017
   H ( 10)  2.156430  3.388721  4.624612  3.203249  4.398557  3.436568
   H ( 11)  2.335294  3.388881  4.710730  3.451444  4.582431  3.752084
   H ( 12)  3.658914  2.518494  1.095203  3.436775  2.277551  4.424147
             H (  7)   C (  8)   H (  9)   H ( 10)   H ( 11)
   C (  8)  4.813537
   H (  9)  5.186377  1.080007
   H ( 10)  5.346160  1.079986  1.526862
   H ( 11)  5.554243  1.080057  1.527547  1.820017
   H ( 12)  2.710932  5.032484  4.826685  5.637653  5.690792
 
 Requested basis set is rimp2-cc-pVTZ
 There are 207 shells and 707 basis functions
 A cutoff of  1.0D-10 yielded   4369 shell pairs
 There are     32711 function pairs (     42276 Cartesian)
 Smallest overlap matrix eigenvalue = 1.23E-04

 Scale SEOQF with 1.000000e+00/1.000000e-01/1.000000e-01

 Standard Electronic Orientation quadrupole field applied
 Nucleus-field energy     =     0.0000000024 hartrees
 Guess from superposition of atomic densities
 Warning:  Energy on first SCF cycle will be non-variational
 SAD guess density has 52.000000 electrons

 -----------------------------------------------------------------------
  General SCF calculation program by
  Eric Jon Sundstrom, Paul Horn, Yuezhi Mao, Dmitri Zuev, Alec White,
  David Stuck, Shaama M.S., Shane Yost, Joonho Lee, David Small,
  Daniel Levine, Susi Lehtola, Hugh Burton, Evgeny Epifanovsky,
  Bang C. Huynh
 -----------------------------------------------------------------------
 Hartree-Fock
 using 64 threads for integral computing
 -------------------------------------------------------
 OpenMP Integral computing Module                
 Release: version 1.0, May 2013, Q-Chem Inc. Pittsburgh 
 -------------------------------------------------------
 A restricted SCF calculation will be
 performed using DIIS
 SCF converges when DIIS error is below 1.0e-06
 ---------------------------------------
  Cycle       Energy         DIIS error
 ---------------------------------------
    1    -592.5916633677      3.23e-02  
    2    -590.2997260677      2.18e-03  
    3    -590.3607887394      8.13e-04  
    4    -590.3678638496      3.85e-04  
    5    -590.3697787339      7.15e-05  
    6    -590.3699067648      3.11e-05  
    7    -590.3699384614      1.47e-05  
    8    -590.3699480177      5.80e-06  
    9    -590.3699495133      2.07e-06  
   10    -590.3699496632      5.94e-07  Convergence criterion met
 ---------------------------------------
 SCF time:   CPU 488.88s  wall 9.00s 

************** Final PCM Free Energy Summary **************
 G_electrostatic  =      -0.00528536 hartree =      -3.31661221 kcal/mol
 G_cavitation     =       0.00000000 hartree =       0.00000000 kcal/mol
 G_dispersion     =       0.00000000 hartree =       0.00000000 kcal/mol
 G_repulsion      =       0.00000000 hartree =       0.00000000 kcal/mol
 --------------------------------------------------
 Non-electrostatic Free Energy =       0.00000000 hartree =       0.00000000 kcal/mol
 Total                         =      -0.00528536 hartree =      -3.31661221 kcal/mol
 --------------------------------------------------
 SCF Energy (H0 + V/2)                       =    -590.36994966 
 Solute Internal Energy (H0)                 =    -590.36466431 
 Total Free Energy (H0 + V/2 + non-elec)     =    -590.36994966 hartree
                                             = -370462.73480746 kcal/mol
***********************************************************

 SCF   energy in the final basis set =     -590.3699496632
 Total energy in the final basis set =     -590.3699496632


 --------------------------------------------------------------
  Generalized many-body perturbation theory program
  by Joonho Lee, Fazle Rob, Xintian Feng, Evgeny Epifanovsky

 No regularization used 
 (reg. param. = 0.0000e+00)
  (P|Q)^-1/2 Time:  CPU 5.38 s  wall 0.09 s

 In RI-MP2 calculation: 
 # of frozen core orbitals: 10

 Components of the RIMP2 correlation energy:
        aaaa    correlation energy =        -0.1253954121 a.u.
        abab    correlation energy =        -0.7513510648 a.u.
        bbbb    correlation energy =        -0.1253954121 a.u.
        non-Brillouin singles      =        -0.0000000000 a.u.
        total same-spin energy     =        -0.2507908242 a.u.
        total opposite-spin energy =        -0.7513510648 a.u.

 Total  RIMP2   correlation energy =        -1.0021418890 a.u.
        RIMP2         total energy =      -591.3720915522 a.u.

 RI-MP2 Energy Time:  CPU 24.27 s  wall 0.43 s
 
 --------------------------------------------------------------
 
                    Orbital Energies (a.u.)
 --------------------------------------------------------------
 
 Alpha MOs
 -- Occupied --
-91.9807 -11.2825 -11.2696 -11.2431 -11.2365 -11.2235  -8.9806  -6.6614
 -6.6609  -6.6603  -1.1580  -1.0397  -0.9733  -0.9184  -0.7589  -0.7204
 -0.6718  -0.5970  -0.5693  -0.5624  -0.5364  -0.4990  -0.4628  -0.4491
 -0.3466  -0.3121
 -- Virtual --
  0.1035   0.1447   0.1607   0.1750   0.1926   0.1966   0.2061   0.2298
  0.2355   0.2839   0.3013   0.3126   0.3671   0.3766   0.3894   0.3957
  0.4252   0.4523   0.4549   0.4666   0.4973   0.5121   0.5328   0.5365
  0.5590   0.5667   0.5710   0.5808   0.6029   0.6066   0.6153   0.6281
  0.6304   0.6485   0.6498   0.6573   0.6841   0.7148   0.7316   0.7531
  0.7815   0.7982   0.8241   0.8673   0.8738   0.8865   0.8901   0.9321
  0.9579   0.9922   0.9991   1.0096   1.0622   1.0659   1.1092   1.1225
  1.1259   1.1542   1.1716   1.2066   1.2229   1.2358   1.2404   1.2637
  1.2785   1.3097   1.3384   1.3667   1.3809   1.4052   1.4257   1.4395
  1.4824   1.4841   1.4902   1.5300   1.5524   1.5617   1.5748   1.5899
  1.6000   1.6255   1.6457   1.6702   1.7115   1.7338   1.7719   1.8254
  1.8343   1.8800   1.9183   1.9335   1.9493   1.9602   2.0551   2.0928
  2.1524   2.1757   2.2124   2.2211   2.2468   2.2921   2.3333   2.4226
  2.4281   2.4717   2.5011   2.5144   2.5691   2.5880   2.6015   2.6556
  2.6697   2.7266   2.7369   2.7423   2.7439   2.8002   2.8107   2.8327
  2.8637   2.8890   2.9199   2.9364   2.9949   3.0173   3.0231   3.0631
  3.0819   3.1335   3.1423   3.1540   3.1622   3.2010   3.2203   3.2275
  3.2524   3.2680   3.2957   3.3001   3.3184   3.3422   3.3523   3.3582
  3.3859   3.4153   3.4354   3.4517   3.4525   3.4790   3.4936   3.5014
  3.5099   3.5132   3.5465   3.5839   3.6086   3.6213   3.6378   3.6626
  3.6875   3.7022   3.7237   3.7397   3.7748   3.8064   3.8256   3.8391
  3.8477   3.8848   3.9063   3.9224   3.9370   3.9564   3.9659   3.9762
  4.0068   4.0310   4.0582   4.1170   4.1236   4.1481   4.1638   4.1873
  4.2050   4.2250   4.2570   4.2881   4.2974   4.3430   4.3966   4.4094
  4.4244   4.4456   4.4762   4.4960   4.5289   4.5418   4.6188   4.6349
  4.6853   4.6917   4.7107   4.7130   4.7986   4.8086   4.8491   4.9219
  4.9739   5.0159   5.0278   5.0414   5.1029   5.1331   5.1821   5.2039
  5.2532   5.2870   5.3551   5.4092   5.4332   5.4900   5.5385   5.5929
  5.6389   5.7222   5.7797   5.8254   5.8974   5.9042   6.0080   6.0660
  6.1162   6.3016   6.4355   6.4561   6.6762   9.3935  11.2734  12.7846
 14.0404  14.2176
 --------------------------------------------------------------
 
          Ground-State Mulliken Net Atomic Charges

     Atom                 Charge (a.u.)
  ----------------------------------------
      1 C                     0.024009
      2 S                    -0.004546
      3 C                    -0.234979
      4 C                    -0.213827
      5 C                    -0.191007
      6 H                     0.185097
      7 H                     0.186034
      8 C                    -0.344369
      9 H                     0.110462
     10 H                     0.128277
     11 H                     0.148425
     12 H                     0.206424
  ----------------------------------------
  Sum of atomic charges =     0.000000

 -----------------------------------------------------------------
                    Cartesian Multipole Moments
 -----------------------------------------------------------------
    Charge (ESU x 10^10)
                -0.0000
    Dipole Moment (Debye)
         X      -0.0039      Y      -0.1853      Z      -0.4482
       Tot       0.4850
    Quadrupole Moments (Debye-Ang)
        XX     -47.3981     XY       0.8455     YY     -36.1439
        XZ       0.2076     YZ      -0.4118     ZZ     -42.3917
    Octopole Moments (Debye-Ang^2)
       XXX      -7.0052    XXY     -22.7969    XYY       1.0273
       YYY     -39.8150    XXZ      -7.6015    XYZ      -0.0675
       YYZ      -0.8884    XZZ      -1.2703    YZZ      -8.1608
       ZZZ     -28.7822
    Hexadecapole Moments (Debye-Ang^3)
      XXXX     -68.0859   XXXY     -18.0985   XXYY    -110.4562
      XYYY     -12.4980   YYYY    -499.4726   XXXZ      -0.6254
      XXYZ      -5.1152   XYYZ       1.6326   YYYZ     -12.1313
      XXZZ     -69.6296   XYZZ      -3.2144   YYZZ    -130.0537
      XZZZ      -0.7891   YZZZ     -13.2117   ZZZZ    -302.9345
 -----------------------------------------------------------------
 Total job time:  10.80s(wall), 559.68s(cpu) 
 Wed Dec 27 10:02:06 2023

        *************************************************************
        *                                                           *
        *  Thank you very much for using Q-Chem.  Have a nice day.  *
        *                                                           *
        *************************************************************


0 sent ACK to 0 
now end server 0 ... 
cleanup process ... done
remove work dirs ./qchem649936.0 -- ./qchem649936.0
rm -rf ./qchem649936.0
rm -rf ./qchem649936
