You are running Q-Chem version: 5.4.0

#
# job setting
#
local host:  exp-4-24
current dir: /home/rramji/project-csd799/aromodel/pndit-qchem/methylated-rotation-run
input file:  Dimethyl_Naphthalene_Dicarboximide_Phi_10_Theta_160_Thiophene_Hydrogenated_Improper.qcin
output file: 
nprocs     : 1
nthreads   : 64
#
# qchem installation setting
#
QC:          /cm/shared/apps/spack/cpu/opt/spack/linux-centos8-zen2/gcc-10.2.0/qchem-5.4-akfmr7b3t57bfs6qan3padb2wnb2i7cl
QCAUX:       /cm/shared/apps/spack/cpu/opt/spack/linux-centos8-zen2/gcc-10.2.0/qchem-5.4-akfmr7b3t57bfs6qan3padb2wnb2i7cl/qcaux
QCPROG:      /cm/shared/apps/spack/cpu/opt/spack/linux-centos8-zen2/gcc-10.2.0/qchem-5.4-akfmr7b3t57bfs6qan3padb2wnb2i7cl/exe/qcprog.exe
QCPROG_S:    /cm/shared/apps/spack/cpu/opt/spack/linux-centos8-zen2/gcc-10.2.0/qchem-5.4-akfmr7b3t57bfs6qan3padb2wnb2i7cl/exe/qcprog.exe_s
PARALLEL:    -DPARALLEL
QCMPI:       mpich
#
# qchem directory setting
#
qcrun:       qchem2966155
QCSCRATCH:   .
QCLOCALSCR:  
QCTMPDIR:    .
QCFILEPREF:  ./qchem2966155
QCSAVEDIR:   
workdirs:    ./qchem2966155
workdir0:    ./qchem2966155
partmpdirs =  
#
# parallel setting
#
QCRSH:           ssh
QCMPI:           mpich
QCMPIRUN:        /cm/shared/apps/spack/cpu/opt/spack/linux-centos8-zen2/gcc-10.2.0/qchem-5.4-akfmr7b3t57bfs6qan3padb2wnb2i7cl/bin/mpi/mpirun_qchem
QCMACHINEFILE:   ./qchem2966155/hostfile
exp-4-24

#
# env setting
#
exported envs:   QC QCAUX QCSCRATCH QCRUNNAME QCFILEPREF QCPROG QCPROG_S GUIFILE

Running Job 1 of 1 Dimethyl_Naphthalene_Dicarboximide_Phi_10_Theta_160_Thiophene_Hydrogenated_Improper.qcin
qchem Dimethyl_Naphthalene_Dicarboximide_Phi_10_Theta_160_Thiophene_Hydrogenated_Improper.qcin_2966155.0 ./qchem2966155/ 1
/cm/shared/apps/spack/cpu/opt/spack/linux-centos8-zen2/gcc-10.2.0/qchem-5.4-akfmr7b3t57bfs6qan3padb2wnb2i7cl/bin/mpi/mpirun_qchem -machinefile ./qchem2966155/hostfile -np 1 /cm/shared/apps/spack/cpu/opt/spack/linux-centos8-zen2/gcc-10.2.0/qchem-5.4-akfmr7b3t57bfs6qan3padb2wnb2i7cl/exe/qcprog.exe Dimethyl_Naphthalene_Dicarboximide_Phi_10_Theta_160_Thiophene_Hydrogenated_Improper.qcin_2966155.0 ./qchem2966155/

Process 0 of 1 is on exp-4-24 - thread support 0
initial socket setup ...start
initial socket setup ...done 
now start server 0 ... 
                  Welcome to Q-Chem
     A Quantum Leap Into The Future Of Chemistry


 Q-Chem 5.4, Q-Chem, Inc., Pleasanton, CA (2021)

 License issued to: University of California, San Diego (site)

 E. Epifanovsky,  A. T. B. Gilbert,  Xintian Feng,  Joonho Lee,  Yuezhi Mao,  
 N. Mardirossian,  P. Pokhilko,  A. White,  M. Wormit,  M. P. Coons,  
 A. L. Dempwolff,  Zhengting Gan,  D. Hait,  P. R. Horn,  L. D. Jacobson,  
 I. Kaliman,  J. Kussmann,  A. W. Lange,  Ka Un Lao,  D. S. Levine,  Jie Liu,  
 S. C. McKenzie,  A. F. Morrison,  K. Nanda,  F. Plasser,  D. R. Rehn,  
 M. L. Vidal,  Zhi-Qiang You,  Ying Zhu,  B. Alam,  B. Albrecht,  
 A. Aldossary,  E. Alguire,  J. H. Andersen,  D. Barton,  K. Begam,  A. Behn,  
 Y. A. Bernard,  E. J. Berquist,  H. Burton,  A. Carreras,  K. Carter-Fenk,  
 R. Chakraborty,  A. D. Chien,  K. D. Closser,  V. Cofer-Shabica,  
 S. Dasgupta,  Jia Deng,  M. de Wergifosse,  M. Diedenhofen,  Hainam Do,  
 S. Ehlert,  Po-Tung Fang,  S. Fatehi,  Qingguo Feng,  J. Gayvert,  
 Qinghui Ge,  G. Gidofalvi,  M. Goldey,  J. Gomes,  C. Gonzalez-Espinoza,  
 S. Gulania,  A. Gunina,  M. W. D. Hanson-Heine,  P. H. P. Harbach,  
 A. W. Hauser,  M. F. Herbst,  M. Hernandez Vera,  M. Hodecker,  
 Z. C. Holden,  S. Houck,  Xunkun Huang,  Kerwin Hui,  B. C. Huynh,  
 M. Ivanov,  Hyunjun Ji,  Hanjie Jiang,  B. Kaduk,  S. Kaehler,  
 K. Khistyaev,  Jaehoon Kim,  P. Klunzinger,  Z. Koczor-Benda,  
 Joong Hoon Koh,  D. Kosenkov,  L. Koulias,  T. Kowalczyk,  C. M. Krauter,  
 K. Kue,  A. Kunitsa,  T. Kus,  A. Landau,  K. V. Lawler,  D. Lefrancois,  
 S. Lehtola,  Rain Li,  Yi-Pei Li,  Jiashu Liang,  M. Liebenthal,  
 Hung-Hsuan Lin,  You-Sheng Lin,  Fenglai Liu,  Kuan-Yu Liu,  
 M. Loipersberger,  A. Luenser,  A. Manjanath,  P. Manohar,  E. Mansoor,  
 S. F. Manzer,  Shan-Ping Mao,  A. V. Marenich,  T. Markovich,  S. Mason,  
 S. A. Maurer,  P. F. McLaughlin,  M. F. S. J. Menger,  J.-M. Mewes,  
 S. A. Mewes,  P. Morgante,  J. W. Mullinax,  T. S. Nguyen-Beck,  
 K. J. Oosterbaan,  G. Paran,  Alexander C. Paul,  Suranjan K. Paul,  
 F. Pavosevic,  Zheng Pei,  S. Prager,  E. I. Proynov,  E. Ramos,  B. Rana,  
 A. E. Rask,  A. Rettig,  R. M. Richard,  F. Rob,  E. Rossomme,  T. Scheele,  
 M. Scheurer,  M. Schneider,  N. Sergueev,  S. M. Sharada,  W. Skomorowski,  
 D. W. Small,  C. J. Stein,  Yu-Chuan Su,  E. J. Sundstrom,  Zhen Tao,  
 J. Thirman,  T. Tsuchimochi,  N. M. Tubman,  S. P. Veccham,  O. Vydrov,  
 J. Wenzel,  J. Witte,  A. Yamada,  Kun Yao,  S. Yeganeh,  S. R. Yost,  
 A. Zech,  Igor Ying Zhang,  Xing Zhang,  Yu Zhang,  D. Zuev,  
 A. Aspuru-Guzik,  A. T. Bell,  N. A. Besley,  K. B. Bravaya,  B. R. Brooks,  
 D. Casanova,  Jeng-Da Chai,  S. Coriani,  C. J. Cramer,  
 A. E. DePrince, III,  R. A. DiStasio Jr.,  A. Dreuw,  B. D. Dunietz,  
 T. R. Furlani,  W. A. Goddard III,  S. Grimme,  S. Hammes-Schiffer,  
 T. Head-Gordon,  W. J. Hehre,  Chao-Ping Hsu,  T.-C. Jagau,  Yousung Jung,  
 A. Klamt,  Jing Kong,  D. S. Lambrecht,  WanZhen Liang,  N. J. Mayhall,  
 C. W. McCurdy,  J. B. Neaton,  C. Ochsenfeld,  J. A. Parkhill,  R. Peverati,  
 V. A. Rassolov,  Yihan Shao,  L. V. Slipchenko,  T. Stauch,  R. P. Steele,  
 J. E. Subotnik,  A. J. W. Thom,  A. Tkatchenko,  D. G. Truhlar,  
 T. Van Voorhis,  T. A. Wesolowski,  K. B. Whaley,  H. L. Woodcock III,  
 P. M. Zimmerman,  S. Faraji,  P. M. W. Gill,  M. Head-Gordon,  
 J. M. Herbert,  A. I. Krylov

 Contributors to earlier versions of Q-Chem not listed above: 
 R. D. Adamson,  B. Austin,  R. Baer,  J. Baker,  G. J. O. Beran,  
 K. Brandhorst,  S. T. Brown,  E. F. C. Byrd,  A. K. Chakraborty,  
 G. K. L. Chan,  Chun-Min Chang,  Yunqing Chen,  C.-L. Cheng,  
 Siu Hung Chien,  D. M. Chipman,  D. L. Crittenden,  H. Dachsel,  
 R. J. Doerksen,  A. D. Dutoi,  R. G. Edgar,  J. Fosso-Tande,  
 L. Fusti-Molnar,  D. Ghosh,  A. Ghysels,  A. Golubeva-Zadorozhnaya,  
 J. Gonthier,  M. S. Gordon,  S. R. Gwaltney,  G. Hawkins,  J. E. Herr,  
 A. Heyden,  S. Hirata,  E. G. Hohenstein,  G. Kedziora,  F. J. Keil,  
 C. Kelley,  Jihan Kim,  R. A. King,  R. Z. Khaliullin,  P. P. Korambath,  
 W. Kurlancheek,  A. Laurent,  A. M. Lee,  M. S. Lee,  S. V. Levchenko,  
 Ching Yeh Lin,  D. Liotard,  E. Livshits,  R. C. Lochan,  I. Lotan,  
 L. A. Martinez-Martinez,  P. E. Maslen,  N. Nair,  D. P. O'Neill,  
 D. Neuhauser,  E. Neuscamman,  C. M. Oana,  R. Olivares-Amaya,  R. Olson,  
 T. M. Perrine,  B. Peters,  P. A. Pieniazek,  A. Prociuk,  Y. M. Rhee,  
 J. Ritchie,  M. A. Rohrdanz,  E. Rosta,  N. J. Russ,  H. F. Schaefer III,  
 M. W. Schmidt,  N. E. Schultz,  S. Sharma,  N. Shenvi,  C. D. Sherrill,  
 A. C. Simmonett,  A. Sodt,  T. Stein,  D. Stuck,  K. S. Thanthiriwatte,  
 V. Vanovschi,  L. Vogt,  Tao Wang,  A. Warshel,  M. A. Watson,  
 C. F. Williams,  Q. Wu,  X. Xu,  Jun Yang,  W. Zhang,  Yan Zhao

 Please cite Q-Chem as follows:
 Y. Shao et al., Mol. Phys. 113, 184-215 (2015)
 DOI: 10.1080/00268976.2014.952696

 Q-Chem 5.4.0 for Intel X86 EM64T Linux

 Parts of Q-Chem use Armadillo 9.800.1 (Horizon Scraper).
 http://arma.sourceforge.net/

 Q-Chem begins on Wed Dec 27 10:04:10 2023  

 Host: 
0

     Scratch files written to ./qchem2966155//
 May1621 |scratch|qcdevops|jenkins|workspace|build_RNUM    
 Parallel job on  1  processors
 Processing $rem in /cm/shared/apps/spack/cpu/opt/spack/linux-centos8-zen2/gcc-10.2.0/qchem-5.4-akfmr7b3t57bfs6qan3padb2wnb2i7cl/config/preferences:
 Processing $rem in /home/rramji/.qchemrc:
 Symmetry turned off for PCM/SM12/SMD calculation
 Core orbitals will be frozen

 Checking the input file for inconsistencies... 	...done.

 Q-Chem warning in module forms1/BasisType.C, line 2236:

 You are not using the predefined 5D/6D in this basis set.


--------------------------------------------------------------
User input:
--------------------------------------------------------------
$molecule
0 1
C	-0.084432	-0.391505	-0.215530
S	0.053068	0.389695	1.364970
C	0.337468	2.002495	0.689370
C	0.088668	0.591395	-1.200930
C	0.317868	1.891595	-0.709030
H	0.047768	0.359295	-2.275430
H	0.470768	2.759095	-1.368130
C	-0.084432	-1.869705	-0.215530
H	-1.099432	-1.870305	0.153370
H	-0.421832	-2.309005	-1.142630
H	0.193768	-2.580705	0.548370
H	0.490268	2.869795	1.340470
$end

$rem
JOBTYPE		SP
EXCHANGE	HF
CORRELATION	pRIMP2
BASIS		cc-pvtz
METHOD		rimp2
AUX_BASIS	rimp2-cc-pvtz
SOLVENT_METHOD	PCM
PURECART	11111
SYMMETRY	false
MEM_TOTAL	110000
SCF_CONVERGENCE = 6
THRESH=10
GUI = 2
$end



$solvent
dielectric 4.90
$end
--------------------------------------------------------------
 ----------------------------------------------------------------
             Standard Nuclear Orientation (Angstroms)
    I     Atom           X                Y                Z
 ----------------------------------------------------------------
    1      C      -0.0844320000    -0.3915050000    -0.2155300000
    2      S       0.0530680000     0.3896950000     1.3649700000
    3      C       0.3374680000     2.0024950000     0.6893700000
    4      C       0.0886680000     0.5913950000    -1.2009300000
    5      C       0.3178680000     1.8915950000    -0.7090300000
    6      H       0.0477680000     0.3592950000    -2.2754300000
    7      H       0.4707680000     2.7590950000    -1.3681300000
    8      C      -0.0844320000    -1.8697050000    -0.2155300000
    9      H      -1.0994320000    -1.8703050000     0.1533700000
   10      H      -0.4218320000    -2.3090050000    -1.1426300000
   11      H       0.1937680000    -2.5807050000     0.5483700000
   12      H       0.4902680000     2.8697950000     1.3404700000
 ----------------------------------------------------------------
 Nuclear Repulsion Energy =         270.31883660 hartrees
 There are       26 alpha and       26 beta electrons
 Requested basis set is cc-pVTZ
 There are 98 shells and 268 basis functions

 Total QAlloc Memory Limit 110000 MB
 Mega-Array Size       188 MB
 MEM_STATIC part       192 MB
 Discretize the solute cavity surface with Lebedev spheres
	Using 110 Lebedev grid points for each H atom
	Using 194 Lebedev grid points for other atoms
	Atomic van der Waals radii will be scaled by 1.20
 Remove points where switching function is < 1.0e-08
 Keep 893 surface tesserae and discard 931 interior tesserae
 Molecular Surface Area = 138.121 Angst**2

                       Distance Matrix (Angstroms)
             C (  1)   S (  2)   C (  3)   C (  4)   C (  5)   H (  6)
   S (  2)  1.768378
   C (  3)  2.593854  1.771565
   C (  4)  1.402522  2.574062  2.371990
   C (  5)  2.370218  2.574354  1.402927  1.408907
   H (  6)  2.196444  3.640531  3.402069  1.100042  2.207828
   H (  7)  3.400443  3.641204  2.196251  2.207460  1.100158  2.600224
   C (  8)  1.478200  2.760756  3.998847  2.656688  3.814809  3.037944
   H (  9)  1.831164  2.811375  4.165400  3.050521  4.111492  3.490881
   H ( 10)  2.156423  3.714373  4.745713  2.945561  4.287214  2.936594
   H ( 11)  2.335281  3.083814  4.587620  3.623992  4.647357  4.079064
   H ( 12)  3.658892  2.518460  1.095212  3.436729  2.277509  4.424155
             H (  7)   C (  8)   H (  9)   H ( 10)   H ( 11)
   C (  8)  4.802346
   H (  9)  5.119749  1.079960
   H ( 10)  5.151041  1.079971  1.526832
   H ( 11)  5.680067  1.080028  1.527436  1.819963
   H ( 12)  2.710931  5.021382  5.138570  5.815297  5.515731
 
 Requested basis set is rimp2-cc-pVTZ
 There are 207 shells and 707 basis functions
 A cutoff of  1.0D-10 yielded   4357 shell pairs
 There are     32725 function pairs (     42335 Cartesian)
 Smallest overlap matrix eigenvalue = 1.11E-04

 Scale SEOQF with 1.000000e+00/1.000000e-01/1.000000e-01

 Standard Electronic Orientation quadrupole field applied
 Nucleus-field energy     =     0.0000000027 hartrees
 Guess from superposition of atomic densities
 Warning:  Energy on first SCF cycle will be non-variational
 SAD guess density has 52.000000 electrons

 -----------------------------------------------------------------------
  General SCF calculation program by
  Eric Jon Sundstrom, Paul Horn, Yuezhi Mao, Dmitri Zuev, Alec White,
  David Stuck, Shaama M.S., Shane Yost, Joonho Lee, David Small,
  Daniel Levine, Susi Lehtola, Hugh Burton, Evgeny Epifanovsky,
  Bang C. Huynh
 -----------------------------------------------------------------------
 Hartree-Fock
 using 64 threads for integral computing
 -------------------------------------------------------
 OpenMP Integral computing Module                
 Release: version 1.0, May 2013, Q-Chem Inc. Pittsburgh 
 -------------------------------------------------------
 A restricted SCF calculation will be
 performed using DIIS
 SCF converges when DIIS error is below 1.0e-06
 ---------------------------------------
  Cycle       Energy         DIIS error
 ---------------------------------------
    1    -592.5713901983      3.22e-02  
    2    -590.2999646923      2.19e-03  
    3    -590.3608474996      8.43e-04  
    4    -590.3681676559      4.01e-04  
    5    -590.3702226917      7.11e-05  
    6    -590.3703503899      3.19e-05  
    7    -590.3703812470      1.44e-05  
    8    -590.3703907497      5.66e-06  
    9    -590.3703921925      1.87e-06  
   10    -590.3703923190      6.08e-07  Convergence criterion met
 ---------------------------------------
 SCF time:   CPU 501.22s  wall 9.00s 

************** Final PCM Free Energy Summary **************
 G_electrostatic  =      -0.00599161 hartree =      -3.75979462 kcal/mol
 G_cavitation     =       0.00000000 hartree =       0.00000000 kcal/mol
 G_dispersion     =       0.00000000 hartree =       0.00000000 kcal/mol
 G_repulsion      =       0.00000000 hartree =       0.00000000 kcal/mol
 --------------------------------------------------
 Non-electrostatic Free Energy =       0.00000000 hartree =       0.00000000 kcal/mol
 Total                         =      -0.00599161 hartree =      -3.75979462 kcal/mol
 --------------------------------------------------
 SCF Energy (H0 + V/2)                       =    -590.37039232 
 Solute Internal Energy (H0)                 =    -590.36440070 
 Total Free Energy (H0 + V/2 + non-elec)     =    -590.37039232 hartree
                                             = -370463.01257813 kcal/mol
***********************************************************

 SCF   energy in the final basis set =     -590.3703923190
 Total energy in the final basis set =     -590.3703923190


 --------------------------------------------------------------
  Generalized many-body perturbation theory program
  by Joonho Lee, Fazle Rob, Xintian Feng, Evgeny Epifanovsky

 No regularization used 
 (reg. param. = 0.0000e+00)
  (P|Q)^-1/2 Time:  CPU 8.16 s  wall 0.13 s

 In RI-MP2 calculation: 
 # of frozen core orbitals: 10

 Components of the RIMP2 correlation energy:
        aaaa    correlation energy =        -0.1251192492 a.u.
        abab    correlation energy =        -0.7506663867 a.u.
        bbbb    correlation energy =        -0.1251192492 a.u.
        non-Brillouin singles      =        -0.0000000000 a.u.
        total same-spin energy     =        -0.2502384983 a.u.
        total opposite-spin energy =        -0.7506663867 a.u.

 Total  RIMP2   correlation energy =        -1.0009048851 a.u.
        RIMP2         total energy =      -591.3712972040 a.u.

 RI-MP2 Energy Time:  CPU 27.03 s  wall 0.48 s
 
 --------------------------------------------------------------
 
                    Orbital Energies (a.u.)
 --------------------------------------------------------------
 
 Alpha MOs
 -- Occupied --
-91.9773 -11.2894 -11.2646 -11.2428 -11.2337 -11.2267  -8.9774  -6.6583
 -6.6578  -6.6572  -1.1570  -1.0402  -0.9715  -0.9199  -0.7555  -0.7212
 -0.6706  -0.5984  -0.5658  -0.5578  -0.5454  -0.4910  -0.4747  -0.4545
 -0.3463  -0.2997
 -- Virtual --
  0.1082   0.1455   0.1598   0.1825   0.1882   0.2036   0.2158   0.2214
  0.2296   0.2371   0.3091   0.3407   0.3465   0.3680   0.3873   0.4083
  0.4301   0.4458   0.4589   0.4932   0.5006   0.5136   0.5226   0.5284
  0.5502   0.5569   0.5738   0.5849   0.5975   0.6131   0.6164   0.6205
  0.6304   0.6380   0.6479   0.6621   0.6995   0.7124   0.7447   0.7658
  0.7808   0.8015   0.8387   0.8579   0.8692   0.8796   0.8919   0.9332
  0.9681   0.9775   1.0146   1.0366   1.0630   1.0867   1.0943   1.1051
  1.1304   1.1563   1.1725   1.1761   1.2190   1.2364   1.2395   1.2611
  1.2880   1.3211   1.3419   1.3538   1.3856   1.4135   1.4232   1.4568
  1.4741   1.4969   1.5160   1.5243   1.5409   1.5473   1.5592   1.5907
  1.6079   1.6293   1.6452   1.6945   1.7142   1.7523   1.7809   1.7978
  1.8250   1.8868   1.9097   1.9247   1.9404   2.0171   2.0563   2.0795
  2.1541   2.1719   2.2178   2.2243   2.2559   2.2857   2.3412   2.4166
  2.4359   2.4577   2.4805   2.5337   2.5500   2.5926   2.6444   2.6546
  2.6994   2.7076   2.7249   2.7505   2.7581   2.7722   2.7863   2.8353
  2.8723   2.9004   2.9213   2.9665   3.0002   3.0145   3.0208   3.0463
  3.0662   3.0757   3.1137   3.1430   3.1757   3.2052   3.2290   3.2397
  3.2717   3.2789   3.2860   3.3063   3.3366   3.3456   3.3539   3.4027
  3.4061   3.4144   3.4287   3.4512   3.4608   3.4764   3.4864   3.4959
  3.5116   3.5203   3.5458   3.5648   3.5955   3.6011   3.6174   3.6540
  3.6707   3.7080   3.7240   3.7445   3.7628   3.7865   3.7994   3.8524
  3.8796   3.8966   3.9037   3.9178   3.9409   3.9501   3.9750   3.9954
  4.0107   4.0212   4.0774   4.0961   4.1319   4.1683   4.1722   4.1974
  4.2170   4.2551   4.2803   4.2977   4.3245   4.3608   4.3707   4.3835
  4.4405   4.4423   4.4775   4.5233   4.5332   4.5542   4.5676   4.6400
  4.6689   4.7013   4.7093   4.7526   4.7945   4.8105   4.8279   4.9060
  4.9863   5.0088   5.0206   5.0544   5.0793   5.1370   5.1844   5.1926
  5.2091   5.3014   5.3652   5.4065   5.4208   5.5009   5.5265   5.5914
  5.6060   5.7142   5.7833   5.8403   5.8934   6.0051   6.0365   6.0745
  6.1194   6.3241   6.4431   6.4703   6.6831   9.4067  11.2650  12.8718
 13.9737  14.2349
 --------------------------------------------------------------
 
          Ground-State Mulliken Net Atomic Charges

     Atom                 Charge (a.u.)
  ----------------------------------------
      1 C                     0.007829
      2 S                    -0.011742
      3 C                    -0.237318
      4 C                    -0.219985
      5 C                    -0.194085
      6 H                     0.184361
      7 H                     0.184900
      8 C                    -0.356744
      9 H                     0.135905
     10 H                     0.132865
     11 H                     0.169331
     12 H                     0.204683
  ----------------------------------------
  Sum of atomic charges =     0.000000

 -----------------------------------------------------------------
                    Cartesian Multipole Moments
 -----------------------------------------------------------------
    Charge (ESU x 10^10)
                -0.0000
    Dipole Moment (Debye)
         X      -0.4864      Y      -0.7010      Z      -0.8479
       Tot       1.2028
    Quadrupole Moments (Debye-Ang)
        XX     -47.8581     XY       2.8441     YY     -36.1361
        XZ       0.4854     YZ       0.1242     ZZ     -41.8965
    Octopole Moments (Debye-Ang^2)
       XXX     -13.2429    XXY     -20.2805    XYY      -1.6408
       YYY     -42.8849    XXZ      -7.1663    XYZ      -0.3794
       YYZ      -1.9760    XZZ      -2.7630    YZZ     -11.0100
       ZZZ     -28.6564
    Hexadecapole Moments (Debye-Ang^3)
      XXXX     -76.7426   XXXY     -38.2025   XXYY    -113.8491
      XYYY     -15.8418   YYYY    -493.2438   XXXZ      -2.6970
      XXYZ      -6.0017   XYYZ       3.3148   YYYZ     -15.6667
      XXZZ     -70.6966   XYZZ      -6.0135   YYZZ    -122.6723
      XZZZ      -0.7601   YZZZ     -13.9601   ZZZZ    -307.0649
 -----------------------------------------------------------------
 Total job time:  13.10s(wall), 577.68s(cpu) 
 Wed Dec 27 10:04:23 2023

        *************************************************************
        *                                                           *
        *  Thank you very much for using Q-Chem.  Have a nice day.  *
        *                                                           *
        *************************************************************


0 sent ACK to 0 
now end server 0 ... 
cleanup process ... done
remove work dirs ./qchem2966155.0 -- ./qchem2966155.0
rm -rf ./qchem2966155.0
rm -rf ./qchem2966155
