You are running Q-Chem version: 5.4.0

#
# job setting
#
local host:  exp-3-56
current dir: /home/rramji/project-csd799/aromodel/pndit-qchem/methylated-rotation-run
input file:  Dimethyl_Naphthalene_Dicarboximide_Phi_0_Theta_40_Thiophene_Hydrogenated_Improper.qcin
output file: 
nprocs     : 1
nthreads   : 64
#
# qchem installation setting
#
QC:          /cm/shared/apps/spack/cpu/opt/spack/linux-centos8-zen2/gcc-10.2.0/qchem-5.4-akfmr7b3t57bfs6qan3padb2wnb2i7cl
QCAUX:       /cm/shared/apps/spack/cpu/opt/spack/linux-centos8-zen2/gcc-10.2.0/qchem-5.4-akfmr7b3t57bfs6qan3padb2wnb2i7cl/qcaux
QCPROG:      /cm/shared/apps/spack/cpu/opt/spack/linux-centos8-zen2/gcc-10.2.0/qchem-5.4-akfmr7b3t57bfs6qan3padb2wnb2i7cl/exe/qcprog.exe
QCPROG_S:    /cm/shared/apps/spack/cpu/opt/spack/linux-centos8-zen2/gcc-10.2.0/qchem-5.4-akfmr7b3t57bfs6qan3padb2wnb2i7cl/exe/qcprog.exe_s
PARALLEL:    -DPARALLEL
QCMPI:       mpich
#
# qchem directory setting
#
qcrun:       qchem2754795
QCSCRATCH:   .
QCLOCALSCR:  
QCTMPDIR:    .
QCFILEPREF:  ./qchem2754795
QCSAVEDIR:   
workdirs:    ./qchem2754795
workdir0:    ./qchem2754795
partmpdirs =  
#
# parallel setting
#
QCRSH:           ssh
QCMPI:           mpich
QCMPIRUN:        /cm/shared/apps/spack/cpu/opt/spack/linux-centos8-zen2/gcc-10.2.0/qchem-5.4-akfmr7b3t57bfs6qan3padb2wnb2i7cl/bin/mpi/mpirun_qchem
QCMACHINEFILE:   ./qchem2754795/hostfile
exp-3-56

#
# env setting
#
exported envs:   QC QCAUX QCSCRATCH QCRUNNAME QCFILEPREF QCPROG QCPROG_S GUIFILE

Running Job 1 of 1 Dimethyl_Naphthalene_Dicarboximide_Phi_0_Theta_40_Thiophene_Hydrogenated_Improper.qcin
qchem Dimethyl_Naphthalene_Dicarboximide_Phi_0_Theta_40_Thiophene_Hydrogenated_Improper.qcin_2754795.0 ./qchem2754795/ 1
/cm/shared/apps/spack/cpu/opt/spack/linux-centos8-zen2/gcc-10.2.0/qchem-5.4-akfmr7b3t57bfs6qan3padb2wnb2i7cl/bin/mpi/mpirun_qchem -machinefile ./qchem2754795/hostfile -np 1 /cm/shared/apps/spack/cpu/opt/spack/linux-centos8-zen2/gcc-10.2.0/qchem-5.4-akfmr7b3t57bfs6qan3padb2wnb2i7cl/exe/qcprog.exe Dimethyl_Naphthalene_Dicarboximide_Phi_0_Theta_40_Thiophene_Hydrogenated_Improper.qcin_2754795.0 ./qchem2754795/

Process 0 of 1 is on exp-3-56 - thread support 0
initial socket setup ...start
initial socket setup ...done 
now start server 0 ... 
                  Welcome to Q-Chem
     A Quantum Leap Into The Future Of Chemistry


 Q-Chem 5.4, Q-Chem, Inc., Pleasanton, CA (2021)

 License issued to: University of California, San Diego (site)

 E. Epifanovsky,  A. T. B. Gilbert,  Xintian Feng,  Joonho Lee,  Yuezhi Mao,  
 N. Mardirossian,  P. Pokhilko,  A. White,  M. Wormit,  M. P. Coons,  
 A. L. Dempwolff,  Zhengting Gan,  D. Hait,  P. R. Horn,  L. D. Jacobson,  
 I. Kaliman,  J. Kussmann,  A. W. Lange,  Ka Un Lao,  D. S. Levine,  Jie Liu,  
 S. C. McKenzie,  A. F. Morrison,  K. Nanda,  F. Plasser,  D. R. Rehn,  
 M. L. Vidal,  Zhi-Qiang You,  Ying Zhu,  B. Alam,  B. Albrecht,  
 A. Aldossary,  E. Alguire,  J. H. Andersen,  D. Barton,  K. Begam,  A. Behn,  
 Y. A. Bernard,  E. J. Berquist,  H. Burton,  A. Carreras,  K. Carter-Fenk,  
 R. Chakraborty,  A. D. Chien,  K. D. Closser,  V. Cofer-Shabica,  
 S. Dasgupta,  Jia Deng,  M. de Wergifosse,  M. Diedenhofen,  Hainam Do,  
 S. Ehlert,  Po-Tung Fang,  S. Fatehi,  Qingguo Feng,  J. Gayvert,  
 Qinghui Ge,  G. Gidofalvi,  M. Goldey,  J. Gomes,  C. Gonzalez-Espinoza,  
 S. Gulania,  A. Gunina,  M. W. D. Hanson-Heine,  P. H. P. Harbach,  
 A. W. Hauser,  M. F. Herbst,  M. Hernandez Vera,  M. Hodecker,  
 Z. C. Holden,  S. Houck,  Xunkun Huang,  Kerwin Hui,  B. C. Huynh,  
 M. Ivanov,  Hyunjun Ji,  Hanjie Jiang,  B. Kaduk,  S. Kaehler,  
 K. Khistyaev,  Jaehoon Kim,  P. Klunzinger,  Z. Koczor-Benda,  
 Joong Hoon Koh,  D. Kosenkov,  L. Koulias,  T. Kowalczyk,  C. M. Krauter,  
 K. Kue,  A. Kunitsa,  T. Kus,  A. Landau,  K. V. Lawler,  D. Lefrancois,  
 S. Lehtola,  Rain Li,  Yi-Pei Li,  Jiashu Liang,  M. Liebenthal,  
 Hung-Hsuan Lin,  You-Sheng Lin,  Fenglai Liu,  Kuan-Yu Liu,  
 M. Loipersberger,  A. Luenser,  A. Manjanath,  P. Manohar,  E. Mansoor,  
 S. F. Manzer,  Shan-Ping Mao,  A. V. Marenich,  T. Markovich,  S. Mason,  
 S. A. Maurer,  P. F. McLaughlin,  M. F. S. J. Menger,  J.-M. Mewes,  
 S. A. Mewes,  P. Morgante,  J. W. Mullinax,  T. S. Nguyen-Beck,  
 K. J. Oosterbaan,  G. Paran,  Alexander C. Paul,  Suranjan K. Paul,  
 F. Pavosevic,  Zheng Pei,  S. Prager,  E. I. Proynov,  E. Ramos,  B. Rana,  
 A. E. Rask,  A. Rettig,  R. M. Richard,  F. Rob,  E. Rossomme,  T. Scheele,  
 M. Scheurer,  M. Schneider,  N. Sergueev,  S. M. Sharada,  W. Skomorowski,  
 D. W. Small,  C. J. Stein,  Yu-Chuan Su,  E. J. Sundstrom,  Zhen Tao,  
 J. Thirman,  T. Tsuchimochi,  N. M. Tubman,  S. P. Veccham,  O. Vydrov,  
 J. Wenzel,  J. Witte,  A. Yamada,  Kun Yao,  S. Yeganeh,  S. R. Yost,  
 A. Zech,  Igor Ying Zhang,  Xing Zhang,  Yu Zhang,  D. Zuev,  
 A. Aspuru-Guzik,  A. T. Bell,  N. A. Besley,  K. B. Bravaya,  B. R. Brooks,  
 D. Casanova,  Jeng-Da Chai,  S. Coriani,  C. J. Cramer,  
 A. E. DePrince, III,  R. A. DiStasio Jr.,  A. Dreuw,  B. D. Dunietz,  
 T. R. Furlani,  W. A. Goddard III,  S. Grimme,  S. Hammes-Schiffer,  
 T. Head-Gordon,  W. J. Hehre,  Chao-Ping Hsu,  T.-C. Jagau,  Yousung Jung,  
 A. Klamt,  Jing Kong,  D. S. Lambrecht,  WanZhen Liang,  N. J. Mayhall,  
 C. W. McCurdy,  J. B. Neaton,  C. Ochsenfeld,  J. A. Parkhill,  R. Peverati,  
 V. A. Rassolov,  Yihan Shao,  L. V. Slipchenko,  T. Stauch,  R. P. Steele,  
 J. E. Subotnik,  A. J. W. Thom,  A. Tkatchenko,  D. G. Truhlar,  
 T. Van Voorhis,  T. A. Wesolowski,  K. B. Whaley,  H. L. Woodcock III,  
 P. M. Zimmerman,  S. Faraji,  P. M. W. Gill,  M. Head-Gordon,  
 J. M. Herbert,  A. I. Krylov

 Contributors to earlier versions of Q-Chem not listed above: 
 R. D. Adamson,  B. Austin,  R. Baer,  J. Baker,  G. J. O. Beran,  
 K. Brandhorst,  S. T. Brown,  E. F. C. Byrd,  A. K. Chakraborty,  
 G. K. L. Chan,  Chun-Min Chang,  Yunqing Chen,  C.-L. Cheng,  
 Siu Hung Chien,  D. M. Chipman,  D. L. Crittenden,  H. Dachsel,  
 R. J. Doerksen,  A. D. Dutoi,  R. G. Edgar,  J. Fosso-Tande,  
 L. Fusti-Molnar,  D. Ghosh,  A. Ghysels,  A. Golubeva-Zadorozhnaya,  
 J. Gonthier,  M. S. Gordon,  S. R. Gwaltney,  G. Hawkins,  J. E. Herr,  
 A. Heyden,  S. Hirata,  E. G. Hohenstein,  G. Kedziora,  F. J. Keil,  
 C. Kelley,  Jihan Kim,  R. A. King,  R. Z. Khaliullin,  P. P. Korambath,  
 W. Kurlancheek,  A. Laurent,  A. M. Lee,  M. S. Lee,  S. V. Levchenko,  
 Ching Yeh Lin,  D. Liotard,  E. Livshits,  R. C. Lochan,  I. Lotan,  
 L. A. Martinez-Martinez,  P. E. Maslen,  N. Nair,  D. P. O'Neill,  
 D. Neuhauser,  E. Neuscamman,  C. M. Oana,  R. Olivares-Amaya,  R. Olson,  
 T. M. Perrine,  B. Peters,  P. A. Pieniazek,  A. Prociuk,  Y. M. Rhee,  
 J. Ritchie,  M. A. Rohrdanz,  E. Rosta,  N. J. Russ,  H. F. Schaefer III,  
 M. W. Schmidt,  N. E. Schultz,  S. Sharma,  N. Shenvi,  C. D. Sherrill,  
 A. C. Simmonett,  A. Sodt,  T. Stein,  D. Stuck,  K. S. Thanthiriwatte,  
 V. Vanovschi,  L. Vogt,  Tao Wang,  A. Warshel,  M. A. Watson,  
 C. F. Williams,  Q. Wu,  X. Xu,  Jun Yang,  W. Zhang,  Yan Zhao

 Please cite Q-Chem as follows:
 Y. Shao et al., Mol. Phys. 113, 184-215 (2015)
 DOI: 10.1080/00268976.2014.952696

 Q-Chem 5.4.0 for Intel X86 EM64T Linux

 Parts of Q-Chem use Armadillo 9.800.1 (Horizon Scraper).
 http://arma.sourceforge.net/

 Q-Chem begins on Wed Dec 27 10:00:45 2023  

 Host: 
0

     Scratch files written to ./qchem2754795//
 May1621 |scratch|qcdevops|jenkins|workspace|build_RNUM    
 Parallel job on  1  processors
 Processing $rem in /cm/shared/apps/spack/cpu/opt/spack/linux-centos8-zen2/gcc-10.2.0/qchem-5.4-akfmr7b3t57bfs6qan3padb2wnb2i7cl/config/preferences:
 Processing $rem in /home/rramji/.qchemrc:
 Symmetry turned off for PCM/SM12/SMD calculation
 Core orbitals will be frozen

 Checking the input file for inconsistencies... 	...done.

 Q-Chem warning in module forms1/BasisType.C, line 2236:

 You are not using the predefined 5D/6D in this basis set.


--------------------------------------------------------------
User input:
--------------------------------------------------------------
$molecule
0 1
C	-0.003593	-0.399361	-0.218722
S	-0.003793	0.393839	1.361778
C	-0.003793	2.031539	0.686178
C	-0.003793	0.598639	-1.204122
C	-0.003893	1.918839	-0.712222
H	-0.003693	0.362939	-2.278622
H	-0.003893	2.799839	-1.371322
C	-0.003593	-1.877561	-0.218722
H	0.823407	-1.878161	0.475878
H	-0.637793	-2.316861	0.537078
H	0.518907	-2.588561	-0.841622
H	-0.003893	2.912239	1.337278
$end

$rem
JOBTYPE		SP
EXCHANGE	HF
CORRELATION	pRIMP2
BASIS		cc-pvtz
METHOD		rimp2
AUX_BASIS	rimp2-cc-pvtz
SOLVENT_METHOD	PCM
PURECART	11111
SYMMETRY	false
MEM_TOTAL	110000
SCF_CONVERGENCE = 6
THRESH=10
GUI = 2
$end



$solvent
dielectric 4.90
$end
--------------------------------------------------------------
 ----------------------------------------------------------------
             Standard Nuclear Orientation (Angstroms)
    I     Atom           X                Y                Z
 ----------------------------------------------------------------
    1      C      -0.0035930000    -0.3993610000    -0.2187220000
    2      S      -0.0037930000     0.3938390000     1.3617780000
    3      C      -0.0037930000     2.0315390000     0.6861780000
    4      C      -0.0037930000     0.5986390000    -1.2041220000
    5      C      -0.0038930000     1.9188390000    -0.7122220000
    6      H      -0.0036930000     0.3629390000    -2.2786220000
    7      H      -0.0038930000     2.7998390000    -1.3713220000
    8      C      -0.0035930000    -1.8775610000    -0.2187220000
    9      H       0.8234070000    -1.8781610000     0.4758780000
   10      H      -0.6377930000    -2.3168610000     0.5370780000
   11      H       0.5189070000    -2.5885610000    -0.8416220000
   12      H      -0.0038930000     2.9122390000     1.3372780000
 ----------------------------------------------------------------
 Nuclear Repulsion Energy =         270.58421533 hartrees
 There are       26 alpha and       26 beta electrons
 Requested basis set is cc-pVTZ
 There are 98 shells and 268 basis functions

 Total QAlloc Memory Limit 110000 MB
 Mega-Array Size       188 MB
 MEM_STATIC part       192 MB
 Discretize the solute cavity surface with Lebedev spheres
	Using 110 Lebedev grid points for each H atom
	Using 194 Lebedev grid points for other atoms
	Atomic van der Waals radii will be scaled by 1.20
 Remove points where switching function is < 1.0e-08
 Keep 886 surface tesserae and discard 938 interior tesserae
 Molecular Surface Area = 138.256 Angst**2

                       Distance Matrix (Angstroms)
             C (  1)   S (  2)   C (  3)   C (  4)   C (  5)   H (  6)
   S (  2)  1.768374
   C (  3)  2.593862  1.771580
   C (  4)  1.402504  2.574060  2.372011
   C (  5)  2.370146  2.574316  1.402934  1.408863
   H (  6)  2.196426  3.640531  3.402097  1.100048  2.207812
   H (  7)  3.400495  3.641246  2.196268  2.207541  1.100261  2.600322
   C (  8)  1.478200  2.767172  4.012469  2.665067  3.828341  3.043522
   H (  9)  1.831187  2.575085  4.001780  3.105028  4.063646  3.646079
   H ( 10)  2.156444  2.903443  4.396905  3.454544  4.461360  3.938474
   H ( 11)  2.335296  3.744716  4.894151  3.250056  4.539462  3.324069
   H ( 12)  3.658938  2.518519  1.095246  3.436780  2.277563  4.424213
             H (  7)   C (  8)   H (  9)   H ( 10)   H ( 11)
   C (  8)  4.817319
   H (  9)  5.097083  1.079999
   H ( 10)  5.497676  1.080013  1.526862
   H ( 11)  5.439555  1.080061  1.527480  1.820052
   H ( 12)  2.710931  5.036201  4.937040  5.327817  5.939674
 
 Requested basis set is rimp2-cc-pVTZ
 There are 207 shells and 707 basis functions
 A cutoff of  1.0D-10 yielded   4358 shell pairs
 There are     32638 function pairs (     42180 Cartesian)
 Smallest overlap matrix eigenvalue = 1.07E-04

 Scale SEOQF with 1.000000e+00/1.000000e-01/1.000000e-01

 Standard Electronic Orientation quadrupole field applied
 Nucleus-field energy     =     0.0000000021 hartrees
 Guess from superposition of atomic densities
 Warning:  Energy on first SCF cycle will be non-variational
 SAD guess density has 52.000000 electrons

 -----------------------------------------------------------------------
  General SCF calculation program by
  Eric Jon Sundstrom, Paul Horn, Yuezhi Mao, Dmitri Zuev, Alec White,
  David Stuck, Shaama M.S., Shane Yost, Joonho Lee, David Small,
  Daniel Levine, Susi Lehtola, Hugh Burton, Evgeny Epifanovsky,
  Bang C. Huynh
 -----------------------------------------------------------------------
 Hartree-Fock
 using 64 threads for integral computing
 -------------------------------------------------------
 OpenMP Integral computing Module                
 Release: version 1.0, May 2013, Q-Chem Inc. Pittsburgh 
 -------------------------------------------------------
 A restricted SCF calculation will be
 performed using DIIS
 SCF converges when DIIS error is below 1.0e-06
 ---------------------------------------
  Cycle       Energy         DIIS error
 ---------------------------------------
    1    -592.5795657765      3.22e-02  
    2    -590.3022341195      2.21e-03  
    3    -590.3634945131      8.56e-04  
    4    -590.3709705676      4.01e-04  
    5    -590.3730388256      7.11e-05  
    6    -590.3731671528      3.21e-05  
    7    -590.3731986544      1.45e-05  
    8    -590.3732082945      5.76e-06  
    9    -590.3732097314      1.90e-06  
   10    -590.3732098630      6.02e-07  Convergence criterion met
 ---------------------------------------
 SCF time:   CPU 488.06s  wall 8.00s 

************** Final PCM Free Energy Summary **************
 G_electrostatic  =      -0.00571375 hartree =      -3.58542989 kcal/mol
 G_cavitation     =       0.00000000 hartree =       0.00000000 kcal/mol
 G_dispersion     =       0.00000000 hartree =       0.00000000 kcal/mol
 G_repulsion      =       0.00000000 hartree =       0.00000000 kcal/mol
 --------------------------------------------------
 Non-electrostatic Free Energy =       0.00000000 hartree =       0.00000000 kcal/mol
 Total                         =      -0.00571375 hartree =      -3.58542989 kcal/mol
 --------------------------------------------------
 SCF Energy (H0 + V/2)                       =    -590.37320986 
 Solute Internal Energy (H0)                 =    -590.36749612 
 Total Free Energy (H0 + V/2 + non-elec)     =    -590.37320986 hartree
                                             = -370464.78061371 kcal/mol
***********************************************************

 SCF   energy in the final basis set =     -590.3732098630
 Total energy in the final basis set =     -590.3732098630


 --------------------------------------------------------------
  Generalized many-body perturbation theory program
  by Joonho Lee, Fazle Rob, Xintian Feng, Evgeny Epifanovsky

 No regularization used 
 (reg. param. = 0.0000e+00)
  (P|Q)^-1/2 Time:  CPU 5.30 s  wall 0.09 s

 In RI-MP2 calculation: 
 # of frozen core orbitals: 10

 Components of the RIMP2 correlation energy:
        aaaa    correlation energy =        -0.1249489944 a.u.
        abab    correlation energy =        -0.7502010107 a.u.
        bbbb    correlation energy =        -0.1249489944 a.u.
        non-Brillouin singles      =        -0.0000000000 a.u.
        total same-spin energy     =        -0.2498979888 a.u.
        total opposite-spin energy =        -0.7502010107 a.u.

 Total  RIMP2   correlation energy =        -1.0000989995 a.u.
        RIMP2         total energy =      -591.3733088625 a.u.

 RI-MP2 Energy Time:  CPU 23.33 s  wall 0.40 s
 
 --------------------------------------------------------------
 
                    Orbital Energies (a.u.)
 --------------------------------------------------------------
 
 Alpha MOs
 -- Occupied --
-91.9791 -11.2884 -11.2661 -11.2427 -11.2328 -11.2262  -8.9791  -6.6600
 -6.6596  -6.6589  -1.1576  -1.0407  -0.9719  -0.9193  -0.7564  -0.7208
 -0.6716  -0.5973  -0.5661  -0.5627  -0.5355  -0.4993  -0.4710  -0.4555
 -0.3469  -0.3030
 -- Virtual --
  0.1076   0.1456   0.1606   0.1802   0.1900   0.2008   0.2138   0.2235
  0.2385   0.2440   0.3072   0.3322   0.3540   0.3697   0.3832   0.4142
  0.4255   0.4443   0.4619   0.4859   0.4912   0.5064   0.5201   0.5417
  0.5464   0.5587   0.5699   0.5824   0.6039   0.6069   0.6130   0.6202
  0.6279   0.6425   0.6492   0.6654   0.7056   0.7149   0.7397   0.7690
  0.7808   0.8081   0.8337   0.8510   0.8720   0.8840   0.8930   0.9443
  0.9555   0.9867   1.0052   1.0327   1.0502   1.0675   1.1033   1.1142
  1.1478   1.1702   1.1723   1.1828   1.2183   1.2307   1.2495   1.2619
  1.2778   1.3051   1.3359   1.3661   1.3809   1.4088   1.4324   1.4428
  1.4783   1.4989   1.5192   1.5317   1.5436   1.5596   1.5619   1.5821
  1.5972   1.6349   1.6476   1.6704   1.7100   1.7292   1.7683   1.8021
  1.8385   1.8885   1.9163   1.9283   1.9549   2.0033   2.0641   2.0825
  2.1487   2.1718   2.2124   2.2265   2.2549   2.2857   2.3339   2.4159
  2.4314   2.4551   2.4603   2.5287   2.5433   2.6006   2.6342   2.6607
  2.7017   2.7182   2.7268   2.7393   2.7587   2.7595   2.8226   2.8342
  2.8798   2.8934   2.9530   2.9651   2.9848   3.0175   3.0328   3.0452
  3.0545   3.0561   3.1187   3.1524   3.1678   3.2125   3.2178   3.2397
  3.2547   3.2861   3.2909   3.3128   3.3185   3.3529   3.3560   3.3729
  3.3928   3.4249   3.4401   3.4512   3.4565   3.4862   3.4884   3.5020
  3.5090   3.5189   3.5452   3.5698   3.5875   3.6163   3.6278   3.6610
  3.6930   3.7050   3.7166   3.7334   3.7697   3.7830   3.8078   3.8330
  3.8528   3.8841   3.9095   3.9273   3.9511   3.9552   3.9578   3.9885
  4.0121   4.0339   4.0601   4.0927   4.1270   4.1488   4.1629   4.1752
  4.2255   4.2429   4.2706   4.2802   4.2992   4.3363   4.3853   4.3982
  4.4305   4.4599   4.4751   4.5065   4.5396   4.5545   4.5991   4.6447
  4.6700   4.6978   4.7203   4.7488   4.7991   4.8245   4.8365   4.8685
  4.9419   5.0130   5.0267   5.0413   5.0781   5.1426   5.1858   5.2067
  5.2131   5.3043   5.3682   5.4386   5.4676   5.4905   5.5353   5.6023
  5.6281   5.7162   5.8040   5.8167   5.8525   5.9620   6.0241   6.0824
  6.1399   6.3222   6.4205   6.4757   6.7179   9.3780  11.3088  12.8765
 13.9438  14.2951
 --------------------------------------------------------------
 
          Ground-State Mulliken Net Atomic Charges

     Atom                 Charge (a.u.)
  ----------------------------------------
      1 C                     0.021990
      2 S                    -0.005223
      3 C                    -0.238810
      4 C                    -0.232429
      5 C                    -0.188493
      6 H                     0.184830
      7 H                     0.185375
      8 C                    -0.355692
      9 H                     0.125601
     10 H                     0.134750
     11 H                     0.162830
     12 H                     0.205270
  ----------------------------------------
  Sum of atomic charges =     0.000000

 -----------------------------------------------------------------
                    Cartesian Multipole Moments
 -----------------------------------------------------------------
    Charge (ESU x 10^10)
                -0.0000
    Dipole Moment (Debye)
         X       0.5286      Y      -0.5620      Z      -0.6170
       Tot       0.9879
    Quadrupole Moments (Debye-Ang)
        XX     -47.9497     XY      -1.2369     YY     -35.8786
        XZ      -0.4989     YZ       0.1657     ZZ     -42.1243
    Octopole Moments (Debye-Ang^2)
       XXX      -0.3981    XXY     -22.2053    XYY       2.7360
       YYY     -42.0072    XXZ      -7.3360    XYZ       1.5623
       YYZ      -3.0694    XZZ      -0.0757    YZZ     -10.1799
       ZZZ     -28.7295
    Hexadecapole Moments (Debye-Ang^3)
      XXXX     -65.7002   XXXY       2.0349   XXYY    -115.0586
      XYYY      -5.3308   YYYY    -499.0778   XXXZ       0.6425
      XXYZ      -5.9111   XYYZ      -4.1638   YYYZ      -6.9669
      XXZZ     -69.0811   XYZZ       0.2907   YYZZ    -125.3606
      XZZZ       0.4864   YZZZ     -13.2320   ZZZZ    -305.6959
 -----------------------------------------------------------------
 Total job time:  19.53s(wall), 561.77s(cpu) 
 Wed Dec 27 10:01:05 2023

        *************************************************************
        *                                                           *
        *  Thank you very much for using Q-Chem.  Have a nice day.  *
        *                                                           *
        *************************************************************


0 sent ACK to 0 
now end server 0 ... 
cleanup process ... done
remove work dirs ./qchem2754795.0 -- ./qchem2754795.0
rm -rf ./qchem2754795.0
rm -rf ./qchem2754795
