You are running Q-Chem version: 5.4.0

#
# job setting
#
local host:  exp-13-43
current dir: /home/rramji/project-csd799/aromodel/pndit-qchem/methylated-rotation-run
input file:  Dimethyl_Naphthalene_Dicarboximide_Phi_60_Theta_50_Thiophene_Hydrogenated_Improper.qcin
output file: 
nprocs     : 1
nthreads   : 64
#
# qchem installation setting
#
QC:          /cm/shared/apps/spack/cpu/opt/spack/linux-centos8-zen2/gcc-10.2.0/qchem-5.4-akfmr7b3t57bfs6qan3padb2wnb2i7cl
QCAUX:       /cm/shared/apps/spack/cpu/opt/spack/linux-centos8-zen2/gcc-10.2.0/qchem-5.4-akfmr7b3t57bfs6qan3padb2wnb2i7cl/qcaux
QCPROG:      /cm/shared/apps/spack/cpu/opt/spack/linux-centos8-zen2/gcc-10.2.0/qchem-5.4-akfmr7b3t57bfs6qan3padb2wnb2i7cl/exe/qcprog.exe
QCPROG_S:    /cm/shared/apps/spack/cpu/opt/spack/linux-centos8-zen2/gcc-10.2.0/qchem-5.4-akfmr7b3t57bfs6qan3padb2wnb2i7cl/exe/qcprog.exe_s
PARALLEL:    -DPARALLEL
QCMPI:       mpich
#
# qchem directory setting
#
qcrun:       qchem648646
QCSCRATCH:   .
QCLOCALSCR:  
QCTMPDIR:    .
QCFILEPREF:  ./qchem648646
QCSAVEDIR:   
workdirs:    ./qchem648646
workdir0:    ./qchem648646
partmpdirs =  
#
# parallel setting
#
QCRSH:           ssh
QCMPI:           mpich
QCMPIRUN:        /cm/shared/apps/spack/cpu/opt/spack/linux-centos8-zen2/gcc-10.2.0/qchem-5.4-akfmr7b3t57bfs6qan3padb2wnb2i7cl/bin/mpi/mpirun_qchem
QCMACHINEFILE:   ./qchem648646/hostfile
exp-13-43

#
# env setting
#
exported envs:   QC QCAUX QCSCRATCH QCRUNNAME QCFILEPREF QCPROG QCPROG_S GUIFILE

Running Job 1 of 1 Dimethyl_Naphthalene_Dicarboximide_Phi_60_Theta_50_Thiophene_Hydrogenated_Improper.qcin
qchem Dimethyl_Naphthalene_Dicarboximide_Phi_60_Theta_50_Thiophene_Hydrogenated_Improper.qcin_648646.0 ./qchem648646/ 1
/cm/shared/apps/spack/cpu/opt/spack/linux-centos8-zen2/gcc-10.2.0/qchem-5.4-akfmr7b3t57bfs6qan3padb2wnb2i7cl/bin/mpi/mpirun_qchem -machinefile ./qchem648646/hostfile -np 1 /cm/shared/apps/spack/cpu/opt/spack/linux-centos8-zen2/gcc-10.2.0/qchem-5.4-akfmr7b3t57bfs6qan3padb2wnb2i7cl/exe/qcprog.exe Dimethyl_Naphthalene_Dicarboximide_Phi_60_Theta_50_Thiophene_Hydrogenated_Improper.qcin_648646.0 ./qchem648646/

Process 0 of 1 is on exp-13-43 - thread support 0
initial socket setup ...start
initial socket setup ...done 
now start server 0 ... 
                  Welcome to Q-Chem
     A Quantum Leap Into The Future Of Chemistry


 Q-Chem 5.4, Q-Chem, Inc., Pleasanton, CA (2021)

 License issued to: University of California, San Diego (site)

 E. Epifanovsky,  A. T. B. Gilbert,  Xintian Feng,  Joonho Lee,  Yuezhi Mao,  
 N. Mardirossian,  P. Pokhilko,  A. White,  M. Wormit,  M. P. Coons,  
 A. L. Dempwolff,  Zhengting Gan,  D. Hait,  P. R. Horn,  L. D. Jacobson,  
 I. Kaliman,  J. Kussmann,  A. W. Lange,  Ka Un Lao,  D. S. Levine,  Jie Liu,  
 S. C. McKenzie,  A. F. Morrison,  K. Nanda,  F. Plasser,  D. R. Rehn,  
 M. L. Vidal,  Zhi-Qiang You,  Ying Zhu,  B. Alam,  B. Albrecht,  
 A. Aldossary,  E. Alguire,  J. H. Andersen,  D. Barton,  K. Begam,  A. Behn,  
 Y. A. Bernard,  E. J. Berquist,  H. Burton,  A. Carreras,  K. Carter-Fenk,  
 R. Chakraborty,  A. D. Chien,  K. D. Closser,  V. Cofer-Shabica,  
 S. Dasgupta,  Jia Deng,  M. de Wergifosse,  M. Diedenhofen,  Hainam Do,  
 S. Ehlert,  Po-Tung Fang,  S. Fatehi,  Qingguo Feng,  J. Gayvert,  
 Qinghui Ge,  G. Gidofalvi,  M. Goldey,  J. Gomes,  C. Gonzalez-Espinoza,  
 S. Gulania,  A. Gunina,  M. W. D. Hanson-Heine,  P. H. P. Harbach,  
 A. W. Hauser,  M. F. Herbst,  M. Hernandez Vera,  M. Hodecker,  
 Z. C. Holden,  S. Houck,  Xunkun Huang,  Kerwin Hui,  B. C. Huynh,  
 M. Ivanov,  Hyunjun Ji,  Hanjie Jiang,  B. Kaduk,  S. Kaehler,  
 K. Khistyaev,  Jaehoon Kim,  P. Klunzinger,  Z. Koczor-Benda,  
 Joong Hoon Koh,  D. Kosenkov,  L. Koulias,  T. Kowalczyk,  C. M. Krauter,  
 K. Kue,  A. Kunitsa,  T. Kus,  A. Landau,  K. V. Lawler,  D. Lefrancois,  
 S. Lehtola,  Rain Li,  Yi-Pei Li,  Jiashu Liang,  M. Liebenthal,  
 Hung-Hsuan Lin,  You-Sheng Lin,  Fenglai Liu,  Kuan-Yu Liu,  
 M. Loipersberger,  A. Luenser,  A. Manjanath,  P. Manohar,  E. Mansoor,  
 S. F. Manzer,  Shan-Ping Mao,  A. V. Marenich,  T. Markovich,  S. Mason,  
 S. A. Maurer,  P. F. McLaughlin,  M. F. S. J. Menger,  J.-M. Mewes,  
 S. A. Mewes,  P. Morgante,  J. W. Mullinax,  T. S. Nguyen-Beck,  
 K. J. Oosterbaan,  G. Paran,  Alexander C. Paul,  Suranjan K. Paul,  
 F. Pavosevic,  Zheng Pei,  S. Prager,  E. I. Proynov,  E. Ramos,  B. Rana,  
 A. E. Rask,  A. Rettig,  R. M. Richard,  F. Rob,  E. Rossomme,  T. Scheele,  
 M. Scheurer,  M. Schneider,  N. Sergueev,  S. M. Sharada,  W. Skomorowski,  
 D. W. Small,  C. J. Stein,  Yu-Chuan Su,  E. J. Sundstrom,  Zhen Tao,  
 J. Thirman,  T. Tsuchimochi,  N. M. Tubman,  S. P. Veccham,  O. Vydrov,  
 J. Wenzel,  J. Witte,  A. Yamada,  Kun Yao,  S. Yeganeh,  S. R. Yost,  
 A. Zech,  Igor Ying Zhang,  Xing Zhang,  Yu Zhang,  D. Zuev,  
 A. Aspuru-Guzik,  A. T. Bell,  N. A. Besley,  K. B. Bravaya,  B. R. Brooks,  
 D. Casanova,  Jeng-Da Chai,  S. Coriani,  C. J. Cramer,  
 A. E. DePrince, III,  R. A. DiStasio Jr.,  A. Dreuw,  B. D. Dunietz,  
 T. R. Furlani,  W. A. Goddard III,  S. Grimme,  S. Hammes-Schiffer,  
 T. Head-Gordon,  W. J. Hehre,  Chao-Ping Hsu,  T.-C. Jagau,  Yousung Jung,  
 A. Klamt,  Jing Kong,  D. S. Lambrecht,  WanZhen Liang,  N. J. Mayhall,  
 C. W. McCurdy,  J. B. Neaton,  C. Ochsenfeld,  J. A. Parkhill,  R. Peverati,  
 V. A. Rassolov,  Yihan Shao,  L. V. Slipchenko,  T. Stauch,  R. P. Steele,  
 J. E. Subotnik,  A. J. W. Thom,  A. Tkatchenko,  D. G. Truhlar,  
 T. Van Voorhis,  T. A. Wesolowski,  K. B. Whaley,  H. L. Woodcock III,  
 P. M. Zimmerman,  S. Faraji,  P. M. W. Gill,  M. Head-Gordon,  
 J. M. Herbert,  A. I. Krylov

 Contributors to earlier versions of Q-Chem not listed above: 
 R. D. Adamson,  B. Austin,  R. Baer,  J. Baker,  G. J. O. Beran,  
 K. Brandhorst,  S. T. Brown,  E. F. C. Byrd,  A. K. Chakraborty,  
 G. K. L. Chan,  Chun-Min Chang,  Yunqing Chen,  C.-L. Cheng,  
 Siu Hung Chien,  D. M. Chipman,  D. L. Crittenden,  H. Dachsel,  
 R. J. Doerksen,  A. D. Dutoi,  R. G. Edgar,  J. Fosso-Tande,  
 L. Fusti-Molnar,  D. Ghosh,  A. Ghysels,  A. Golubeva-Zadorozhnaya,  
 J. Gonthier,  M. S. Gordon,  S. R. Gwaltney,  G. Hawkins,  J. E. Herr,  
 A. Heyden,  S. Hirata,  E. G. Hohenstein,  G. Kedziora,  F. J. Keil,  
 C. Kelley,  Jihan Kim,  R. A. King,  R. Z. Khaliullin,  P. P. Korambath,  
 W. Kurlancheek,  A. Laurent,  A. M. Lee,  M. S. Lee,  S. V. Levchenko,  
 Ching Yeh Lin,  D. Liotard,  E. Livshits,  R. C. Lochan,  I. Lotan,  
 L. A. Martinez-Martinez,  P. E. Maslen,  N. Nair,  D. P. O'Neill,  
 D. Neuhauser,  E. Neuscamman,  C. M. Oana,  R. Olivares-Amaya,  R. Olson,  
 T. M. Perrine,  B. Peters,  P. A. Pieniazek,  A. Prociuk,  Y. M. Rhee,  
 J. Ritchie,  M. A. Rohrdanz,  E. Rosta,  N. J. Russ,  H. F. Schaefer III,  
 M. W. Schmidt,  N. E. Schultz,  S. Sharma,  N. Shenvi,  C. D. Sherrill,  
 A. C. Simmonett,  A. Sodt,  T. Stein,  D. Stuck,  K. S. Thanthiriwatte,  
 V. Vanovschi,  L. Vogt,  Tao Wang,  A. Warshel,  M. A. Watson,  
 C. F. Williams,  Q. Wu,  X. Xu,  Jun Yang,  W. Zhang,  Yan Zhao

 Please cite Q-Chem as follows:
 Y. Shao et al., Mol. Phys. 113, 184-215 (2015)
 DOI: 10.1080/00268976.2014.952696

 Q-Chem 5.4.0 for Intel X86 EM64T Linux

 Parts of Q-Chem use Armadillo 9.800.1 (Horizon Scraper).
 http://arma.sourceforge.net/

 Q-Chem begins on Wed Dec 27 10:00:58 2023  

 Host: 
0

     Scratch files written to ./qchem648646//
 May1621 |scratch|qcdevops|jenkins|workspace|build_RNUM    
 Parallel job on  1  processors
 Processing $rem in /cm/shared/apps/spack/cpu/opt/spack/linux-centos8-zen2/gcc-10.2.0/qchem-5.4-akfmr7b3t57bfs6qan3padb2wnb2i7cl/config/preferences:
 Processing $rem in /home/rramji/.qchemrc:
 Symmetry turned off for PCM/SM12/SMD calculation
 Core orbitals will be frozen

 Checking the input file for inconsistencies... 	...done.

 Q-Chem warning in module forms1/BasisType.C, line 2236:

 You are not using the predefined 5D/6D in this basis set.


--------------------------------------------------------------
User input:
--------------------------------------------------------------
$molecule
0 1
C	-0.451845	-0.140188	-0.219296
S	0.234955	0.256612	1.361204
C	1.653255	1.075412	0.685604
C	0.412355	0.358912	-1.204696
C	1.555655	1.019112	-0.712796
H	0.208255	0.241112	-2.279196
H	2.318555	1.459712	-1.371896
C	-0.451845	-1.618388	-0.219296
H	0.241955	-1.618988	0.608404
H	-1.207645	-2.057688	0.414904
H	0.170855	-2.329388	-0.741996
H	2.415855	1.515912	1.336704
$end

$rem
JOBTYPE		SP
EXCHANGE	HF
CORRELATION	pRIMP2
BASIS		cc-pvtz
METHOD		rimp2
AUX_BASIS	rimp2-cc-pvtz
SOLVENT_METHOD	PCM
PURECART	11111
SYMMETRY	false
MEM_TOTAL	110000
SCF_CONVERGENCE = 6
THRESH=10
GUI = 2
$end



$solvent
dielectric 4.90
$end
--------------------------------------------------------------
 ----------------------------------------------------------------
             Standard Nuclear Orientation (Angstroms)
    I     Atom           X                Y                Z
 ----------------------------------------------------------------
    1      C      -0.4518450000    -0.1401880000    -0.2192960000
    2      S       0.2349550000     0.2566120000     1.3612040000
    3      C       1.6532550000     1.0754120000     0.6856040000
    4      C       0.4123550000     0.3589120000    -1.2046960000
    5      C       1.5556550000     1.0191120000    -0.7127960000
    6      H       0.2082550000     0.2411120000    -2.2791960000
    7      H       2.3185550000     1.4597120000    -1.3718960000
    8      C      -0.4518450000    -1.6183880000    -0.2192960000
    9      H       0.2419550000    -1.6189880000     0.6084040000
   10      H      -1.2076450000    -2.0576880000     0.4149040000
   11      H       0.1708550000    -2.3293880000    -0.7419960000
   12      H       2.4158550000     1.5159120000     1.3367040000
 ----------------------------------------------------------------
 Nuclear Repulsion Energy =         277.15936498 hartrees
 There are       26 alpha and       26 beta electrons
 Requested basis set is cc-pVTZ
 There are 98 shells and 268 basis functions

 Total QAlloc Memory Limit 110000 MB
 Mega-Array Size       188 MB
 MEM_STATIC part       192 MB
 Discretize the solute cavity surface with Lebedev spheres
	Using 110 Lebedev grid points for each H atom
	Using 194 Lebedev grid points for other atoms
	Atomic van der Waals radii will be scaled by 1.20
 Remove points where switching function is < 1.0e-08
 Keep 860 surface tesserae and discard 964 interior tesserae
 Molecular Surface Area = 134.831 Angst**2

                       Distance Matrix (Angstroms)
             C (  1)   S (  2)   C (  3)   C (  4)   C (  5)   H (  6)
   S (  2)  1.768368
   C (  3)  2.593834  1.771565
   C (  4)  1.402482  2.574059  2.372012
   C (  5)  2.370142  2.574321  1.402932  1.408888
   H (  6)  2.196431  3.640531  3.402076  1.100038  2.207800
   H (  7)  3.400483  3.641246  2.196273  2.207559  1.100253  2.600297
   C (  8)  1.478200  2.546625  3.536502  2.372250  3.351120  2.852483
   H (  9)  1.831200  2.021047  3.042617  2.688579  3.229698  3.435017
   H ( 10)  2.156444  2.886618  4.251393  3.329784  4.286518  3.814109
   H ( 11)  2.335287  3.333910  3.978469  2.738498  3.623669  2.995305
   H ( 12)  3.658894  2.518484  1.095231  3.436768  2.277544  4.424177
             H (  7)   C (  8)   H (  9)   H ( 10)   H ( 11)
   C (  8)  4.298640
   H (  9)  4.208592  1.080021
   H ( 10)  5.291393  1.080013  1.526840
   H ( 11)  4.400758  1.080042  1.527515  1.820028
   H ( 12)  2.710930  4.524232  3.883795  5.172048  4.913995
 
 Requested basis set is rimp2-cc-pVTZ
 There are 207 shells and 707 basis functions
 A cutoff of  1.0D-10 yielded   4507 shell pairs
 There are     33983 function pairs (     43942 Cartesian)
 Smallest overlap matrix eigenvalue = 1.74E-04

 Scale SEOQF with 1.000000e-01/1.000000e-01/1.000000e-01

 Standard Electronic Orientation quadrupole field applied
 Nucleus-field energy     =    -0.0000000007 hartrees
 Guess from superposition of atomic densities
 Warning:  Energy on first SCF cycle will be non-variational
 SAD guess density has 52.000000 electrons

 -----------------------------------------------------------------------
  General SCF calculation program by
  Eric Jon Sundstrom, Paul Horn, Yuezhi Mao, Dmitri Zuev, Alec White,
  David Stuck, Shaama M.S., Shane Yost, Joonho Lee, David Small,
  Daniel Levine, Susi Lehtola, Hugh Burton, Evgeny Epifanovsky,
  Bang C. Huynh
 -----------------------------------------------------------------------
 Hartree-Fock
 using 64 threads for integral computing
 -------------------------------------------------------
 OpenMP Integral computing Module                
 Release: version 1.0, May 2013, Q-Chem Inc. Pittsburgh 
 -------------------------------------------------------
 A restricted SCF calculation will be
 performed using DIIS
 SCF converges when DIIS error is below 1.0e-06
 ---------------------------------------
  Cycle       Energy         DIIS error
 ---------------------------------------
    1    -592.7347802139      3.29e-02  
    2    -590.2152593594      2.20e-03  
    3    -590.2780364573      8.25e-04  
    4    -590.2856372774      3.99e-04  
    5    -590.2877467631      8.14e-05  
    6    -590.2879249396      4.23e-05  
    7    -590.2879867387      1.79e-05  
    8    -590.2880069334      9.02e-06  
    9    -590.2880106779      2.95e-06  
   10    -590.2880111301      1.03e-06  
   11    -590.2880111739      3.28e-07  Convergence criterion met
 ---------------------------------------
 SCF time:   CPU 540.45s  wall 9.00s 

************** Final PCM Free Energy Summary **************
 G_electrostatic  =      -0.00630583 hartree =      -3.95696916 kcal/mol
 G_cavitation     =       0.00000000 hartree =       0.00000000 kcal/mol
 G_dispersion     =       0.00000000 hartree =       0.00000000 kcal/mol
 G_repulsion      =       0.00000000 hartree =       0.00000000 kcal/mol
 --------------------------------------------------
 Non-electrostatic Free Energy =       0.00000000 hartree =       0.00000000 kcal/mol
 Total                         =      -0.00630583 hartree =      -3.95696916 kcal/mol
 --------------------------------------------------
 SCF Energy (H0 + V/2)                       =    -590.28801117 
 Solute Internal Energy (H0)                 =    -590.28170534 
 Total Free Energy (H0 + V/2 + non-elec)     =    -590.28801117 hartree
                                             = -370411.31762937 kcal/mol
***********************************************************

 SCF   energy in the final basis set =     -590.2880111739
 Total energy in the final basis set =     -590.2880111739


 --------------------------------------------------------------
  Generalized many-body perturbation theory program
  by Joonho Lee, Fazle Rob, Xintian Feng, Evgeny Epifanovsky

 No regularization used 
 (reg. param. = 0.0000e+00)
  (P|Q)^-1/2 Time:  CPU 6.52 s  wall 0.11 s

 In RI-MP2 calculation: 
 # of frozen core orbitals: 10

 Components of the RIMP2 correlation energy:
        aaaa    correlation energy =        -0.1275522688 a.u.
        abab    correlation energy =        -0.7594938598 a.u.
        bbbb    correlation energy =        -0.1275522688 a.u.
        non-Brillouin singles      =        -0.0000000000 a.u.
        total same-spin energy     =        -0.2551045376 a.u.
        total opposite-spin energy =        -0.7594938598 a.u.

 Total  RIMP2   correlation energy =        -1.0145983973 a.u.
        RIMP2         total energy =      -591.3026095712 a.u.

 RI-MP2 Energy Time:  CPU 26.48 s  wall 0.46 s
 
 --------------------------------------------------------------
 
                    Orbital Energies (a.u.)
 --------------------------------------------------------------
 
 Alpha MOs
 -- Occupied --
-91.9712 -11.2943 -11.2592 -11.2544 -11.2451 -11.2101  -8.9732  -6.6539
 -6.6530  -6.6528  -1.1738  -1.0399  -0.9819  -0.9032  -0.7689  -0.7282
 -0.6735  -0.5891  -0.5789  -0.5665  -0.5331  -0.4901  -0.4637  -0.4370
 -0.3416  -0.2998
 -- Virtual --
  0.0610   0.1561   0.1587   0.1785   0.1886   0.1946   0.2076   0.2158
  0.2313   0.2541   0.2941   0.3239   0.3544   0.3618   0.3829   0.4068
  0.4253   0.4415   0.4472   0.4558   0.4813   0.5074   0.5171   0.5227
  0.5339   0.5427   0.5596   0.5878   0.6005   0.6035   0.6052   0.6142
  0.6332   0.6373   0.6522   0.6773   0.6929   0.7115   0.7337   0.7592
  0.7770   0.7882   0.8131   0.8527   0.8576   0.8766   0.9029   0.9452
  0.9845   0.9998   1.0345   1.0646   1.0812   1.0966   1.0995   1.1445
  1.1597   1.1637   1.1819   1.1928   1.2218   1.2475   1.2664   1.2682
  1.2881   1.3253   1.3528   1.3602   1.3780   1.3961   1.4312   1.4403
  1.4620   1.4723   1.4895   1.5022   1.5229   1.5431   1.5753   1.5807
  1.6090   1.6418   1.6575   1.6650   1.6935   1.7276   1.7604   1.8008
  1.8332   1.8428   1.8973   1.9479   1.9548   1.9804   2.0493   2.0955
  2.1175   2.1776   2.1924   2.2286   2.2318   2.2540   2.3533   2.3856
  2.4286   2.4478   2.4886   2.5222   2.5706   2.6017   2.6310   2.6664
  2.6685   2.7073   2.7184   2.7476   2.7815   2.8105   2.8264   2.8690
  2.9184   2.9281   2.9580   2.9861   3.0037   3.0182   3.0329   3.0581
  3.0834   3.1089   3.1222   3.1412   3.1782   3.1995   3.2144   3.2304
  3.2504   3.2778   3.2816   3.3018   3.3093   3.3492   3.3522   3.3839
  3.3956   3.4166   3.4376   3.4493   3.4578   3.4639   3.4944   3.5141
  3.5259   3.5424   3.5756   3.5878   3.5993   3.6395   3.6575   3.6725
  3.6867   3.7124   3.7329   3.7646   3.7889   3.8038   3.8300   3.8746
  3.9019   3.9200   3.9369   3.9402   3.9535   3.9646   4.0017   4.0223
  4.0468   4.0779   4.1142   4.1384   4.1613   4.1757   4.1939   4.2092
  4.2494   4.2707   4.2799   4.2947   4.3066   4.3700   4.4121   4.4317
  4.4409   4.4622   4.5178   4.5363   4.5631   4.5938   4.6107   4.6353
  4.6420   4.7160   4.7237   4.7555   4.7916   4.8276   4.8435   4.8655
  4.8868   4.9962   5.0163   5.0467   5.0913   5.1101   5.1668   5.1959
  5.2508   5.2859   5.3535   5.4318   5.4829   5.5017   5.5396   5.5678
  5.6365   5.6838   5.8250   5.8418   5.8753   5.9313   5.9653   6.0153
  6.0614   6.3325   6.3955   6.4758   6.5643   9.7332  11.6481  12.5808
 13.8093  14.2171
 --------------------------------------------------------------
 
          Ground-State Mulliken Net Atomic Charges

     Atom                 Charge (a.u.)
  ----------------------------------------
      1 C                    -0.108597
      2 S                    -0.004140
      3 C                    -0.152739
      4 C                    -0.087731
      5 C                    -0.248134
      6 H                     0.189854
      7 H                     0.187355
      8 C                    -0.373207
      9 H                     0.132000
     10 H                     0.106625
     11 H                     0.149444
     12 H                     0.209270
  ----------------------------------------
  Sum of atomic charges =     0.000000

 -----------------------------------------------------------------
                    Cartesian Multipole Moments
 -----------------------------------------------------------------
    Charge (ESU x 10^10)
                 0.0000
    Dipole Moment (Debye)
         X       2.8086      Y      -0.0655      Z      -0.7456
       Tot       2.9066
    Quadrupole Moments (Debye-Ang)
        XX     -41.6311     XY       3.4659     YY     -44.0610
        XZ       0.2408     YZ      -0.4628     ZZ     -41.2463
    Octopole Moments (Debye-Ang^2)
       XXX     -47.2956    XXY       4.9226    XYY     -12.6461
       YYY     -18.8341    XXZ      -1.9298    XYZ       4.3149
       YYZ      -5.2769    XZZ     -13.0062    YZZ      -1.3790
       ZZZ     -31.2076
    Hexadecapole Moments (Debye-Ang^3)
      XXXX    -271.1894   XXXY     -64.0150   XXYY     -86.6024
      XYYY     -92.7976   YYYY    -297.2464   XXXZ       1.1389
      XXYZ      -0.2281   XYYZ      -2.1720   YYYZ     -11.5256
      XXZZ     -87.0222   XYZZ     -17.9692   YYZZ     -99.6761
      XZZZ      -2.5737   YZZZ     -14.0399   ZZZZ    -300.6431
 -----------------------------------------------------------------
 Total job time:  11.52s(wall), 610.94s(cpu) 
 Wed Dec 27 10:01:09 2023

        *************************************************************
        *                                                           *
        *  Thank you very much for using Q-Chem.  Have a nice day.  *
        *                                                           *
        *************************************************************


0 sent ACK to 0 
now end server 0 ... 
cleanup process ... done
remove work dirs ./qchem648646.0 -- ./qchem648646.0
rm -rf ./qchem648646.0
rm -rf ./qchem648646
