You are running Q-Chem version: 5.4.0

#
# job setting
#
local host:  exp-4-42
current dir: /home/rramji/project-csd799/aromodel/pndit-qchem/methylated-rotation-run
input file:  Dimethyl_Naphthalene_Dicarboximide_Phi_15_Theta_10_Thiophene_Hydrogenated_Improper.qcin
output file: 
nprocs     : 1
nthreads   : 64
#
# qchem installation setting
#
QC:          /cm/shared/apps/spack/cpu/opt/spack/linux-centos8-zen2/gcc-10.2.0/qchem-5.4-akfmr7b3t57bfs6qan3padb2wnb2i7cl
QCAUX:       /cm/shared/apps/spack/cpu/opt/spack/linux-centos8-zen2/gcc-10.2.0/qchem-5.4-akfmr7b3t57bfs6qan3padb2wnb2i7cl/qcaux
QCPROG:      /cm/shared/apps/spack/cpu/opt/spack/linux-centos8-zen2/gcc-10.2.0/qchem-5.4-akfmr7b3t57bfs6qan3padb2wnb2i7cl/exe/qcprog.exe
QCPROG_S:    /cm/shared/apps/spack/cpu/opt/spack/linux-centos8-zen2/gcc-10.2.0/qchem-5.4-akfmr7b3t57bfs6qan3padb2wnb2i7cl/exe/qcprog.exe_s
PARALLEL:    -DPARALLEL
QCMPI:       mpich
#
# qchem directory setting
#
qcrun:       qchem2787036
QCSCRATCH:   .
QCLOCALSCR:  
QCTMPDIR:    .
QCFILEPREF:  ./qchem2787036
QCSAVEDIR:   
workdirs:    ./qchem2787036
workdir0:    ./qchem2787036
partmpdirs =  
#
# parallel setting
#
QCRSH:           ssh
QCMPI:           mpich
QCMPIRUN:        /cm/shared/apps/spack/cpu/opt/spack/linux-centos8-zen2/gcc-10.2.0/qchem-5.4-akfmr7b3t57bfs6qan3padb2wnb2i7cl/bin/mpi/mpirun_qchem
QCMACHINEFILE:   ./qchem2787036/hostfile
exp-4-42

#
# env setting
#
exported envs:   QC QCAUX QCSCRATCH QCRUNNAME QCFILEPREF QCPROG QCPROG_S GUIFILE

Running Job 1 of 1 Dimethyl_Naphthalene_Dicarboximide_Phi_15_Theta_10_Thiophene_Hydrogenated_Improper.qcin
qchem Dimethyl_Naphthalene_Dicarboximide_Phi_15_Theta_10_Thiophene_Hydrogenated_Improper.qcin_2787036.0 ./qchem2787036/ 1
/cm/shared/apps/spack/cpu/opt/spack/linux-centos8-zen2/gcc-10.2.0/qchem-5.4-akfmr7b3t57bfs6qan3padb2wnb2i7cl/bin/mpi/mpirun_qchem -machinefile ./qchem2787036/hostfile -np 1 /cm/shared/apps/spack/cpu/opt/spack/linux-centos8-zen2/gcc-10.2.0/qchem-5.4-akfmr7b3t57bfs6qan3padb2wnb2i7cl/exe/qcprog.exe Dimethyl_Naphthalene_Dicarboximide_Phi_15_Theta_10_Thiophene_Hydrogenated_Improper.qcin_2787036.0 ./qchem2787036/

Process 0 of 1 is on exp-4-42 - thread support 0
initial socket setup ...start
initial socket setup ...done 
now start server 0 ... 
                  Welcome to Q-Chem
     A Quantum Leap Into The Future Of Chemistry


 Q-Chem 5.4, Q-Chem, Inc., Pleasanton, CA (2021)

 License issued to: University of California, San Diego (site)

 E. Epifanovsky,  A. T. B. Gilbert,  Xintian Feng,  Joonho Lee,  Yuezhi Mao,  
 N. Mardirossian,  P. Pokhilko,  A. White,  M. Wormit,  M. P. Coons,  
 A. L. Dempwolff,  Zhengting Gan,  D. Hait,  P. R. Horn,  L. D. Jacobson,  
 I. Kaliman,  J. Kussmann,  A. W. Lange,  Ka Un Lao,  D. S. Levine,  Jie Liu,  
 S. C. McKenzie,  A. F. Morrison,  K. Nanda,  F. Plasser,  D. R. Rehn,  
 M. L. Vidal,  Zhi-Qiang You,  Ying Zhu,  B. Alam,  B. Albrecht,  
 A. Aldossary,  E. Alguire,  J. H. Andersen,  D. Barton,  K. Begam,  A. Behn,  
 Y. A. Bernard,  E. J. Berquist,  H. Burton,  A. Carreras,  K. Carter-Fenk,  
 R. Chakraborty,  A. D. Chien,  K. D. Closser,  V. Cofer-Shabica,  
 S. Dasgupta,  Jia Deng,  M. de Wergifosse,  M. Diedenhofen,  Hainam Do,  
 S. Ehlert,  Po-Tung Fang,  S. Fatehi,  Qingguo Feng,  J. Gayvert,  
 Qinghui Ge,  G. Gidofalvi,  M. Goldey,  J. Gomes,  C. Gonzalez-Espinoza,  
 S. Gulania,  A. Gunina,  M. W. D. Hanson-Heine,  P. H. P. Harbach,  
 A. W. Hauser,  M. F. Herbst,  M. Hernandez Vera,  M. Hodecker,  
 Z. C. Holden,  S. Houck,  Xunkun Huang,  Kerwin Hui,  B. C. Huynh,  
 M. Ivanov,  Hyunjun Ji,  Hanjie Jiang,  B. Kaduk,  S. Kaehler,  
 K. Khistyaev,  Jaehoon Kim,  P. Klunzinger,  Z. Koczor-Benda,  
 Joong Hoon Koh,  D. Kosenkov,  L. Koulias,  T. Kowalczyk,  C. M. Krauter,  
 K. Kue,  A. Kunitsa,  T. Kus,  A. Landau,  K. V. Lawler,  D. Lefrancois,  
 S. Lehtola,  Rain Li,  Yi-Pei Li,  Jiashu Liang,  M. Liebenthal,  
 Hung-Hsuan Lin,  You-Sheng Lin,  Fenglai Liu,  Kuan-Yu Liu,  
 M. Loipersberger,  A. Luenser,  A. Manjanath,  P. Manohar,  E. Mansoor,  
 S. F. Manzer,  Shan-Ping Mao,  A. V. Marenich,  T. Markovich,  S. Mason,  
 S. A. Maurer,  P. F. McLaughlin,  M. F. S. J. Menger,  J.-M. Mewes,  
 S. A. Mewes,  P. Morgante,  J. W. Mullinax,  T. S. Nguyen-Beck,  
 K. J. Oosterbaan,  G. Paran,  Alexander C. Paul,  Suranjan K. Paul,  
 F. Pavosevic,  Zheng Pei,  S. Prager,  E. I. Proynov,  E. Ramos,  B. Rana,  
 A. E. Rask,  A. Rettig,  R. M. Richard,  F. Rob,  E. Rossomme,  T. Scheele,  
 M. Scheurer,  M. Schneider,  N. Sergueev,  S. M. Sharada,  W. Skomorowski,  
 D. W. Small,  C. J. Stein,  Yu-Chuan Su,  E. J. Sundstrom,  Zhen Tao,  
 J. Thirman,  T. Tsuchimochi,  N. M. Tubman,  S. P. Veccham,  O. Vydrov,  
 J. Wenzel,  J. Witte,  A. Yamada,  Kun Yao,  S. Yeganeh,  S. R. Yost,  
 A. Zech,  Igor Ying Zhang,  Xing Zhang,  Yu Zhang,  D. Zuev,  
 A. Aspuru-Guzik,  A. T. Bell,  N. A. Besley,  K. B. Bravaya,  B. R. Brooks,  
 D. Casanova,  Jeng-Da Chai,  S. Coriani,  C. J. Cramer,  
 A. E. DePrince, III,  R. A. DiStasio Jr.,  A. Dreuw,  B. D. Dunietz,  
 T. R. Furlani,  W. A. Goddard III,  S. Grimme,  S. Hammes-Schiffer,  
 T. Head-Gordon,  W. J. Hehre,  Chao-Ping Hsu,  T.-C. Jagau,  Yousung Jung,  
 A. Klamt,  Jing Kong,  D. S. Lambrecht,  WanZhen Liang,  N. J. Mayhall,  
 C. W. McCurdy,  J. B. Neaton,  C. Ochsenfeld,  J. A. Parkhill,  R. Peverati,  
 V. A. Rassolov,  Yihan Shao,  L. V. Slipchenko,  T. Stauch,  R. P. Steele,  
 J. E. Subotnik,  A. J. W. Thom,  A. Tkatchenko,  D. G. Truhlar,  
 T. Van Voorhis,  T. A. Wesolowski,  K. B. Whaley,  H. L. Woodcock III,  
 P. M. Zimmerman,  S. Faraji,  P. M. W. Gill,  M. Head-Gordon,  
 J. M. Herbert,  A. I. Krylov

 Contributors to earlier versions of Q-Chem not listed above: 
 R. D. Adamson,  B. Austin,  R. Baer,  J. Baker,  G. J. O. Beran,  
 K. Brandhorst,  S. T. Brown,  E. F. C. Byrd,  A. K. Chakraborty,  
 G. K. L. Chan,  Chun-Min Chang,  Yunqing Chen,  C.-L. Cheng,  
 Siu Hung Chien,  D. M. Chipman,  D. L. Crittenden,  H. Dachsel,  
 R. J. Doerksen,  A. D. Dutoi,  R. G. Edgar,  J. Fosso-Tande,  
 L. Fusti-Molnar,  D. Ghosh,  A. Ghysels,  A. Golubeva-Zadorozhnaya,  
 J. Gonthier,  M. S. Gordon,  S. R. Gwaltney,  G. Hawkins,  J. E. Herr,  
 A. Heyden,  S. Hirata,  E. G. Hohenstein,  G. Kedziora,  F. J. Keil,  
 C. Kelley,  Jihan Kim,  R. A. King,  R. Z. Khaliullin,  P. P. Korambath,  
 W. Kurlancheek,  A. Laurent,  A. M. Lee,  M. S. Lee,  S. V. Levchenko,  
 Ching Yeh Lin,  D. Liotard,  E. Livshits,  R. C. Lochan,  I. Lotan,  
 L. A. Martinez-Martinez,  P. E. Maslen,  N. Nair,  D. P. O'Neill,  
 D. Neuhauser,  E. Neuscamman,  C. M. Oana,  R. Olivares-Amaya,  R. Olson,  
 T. M. Perrine,  B. Peters,  P. A. Pieniazek,  A. Prociuk,  Y. M. Rhee,  
 J. Ritchie,  M. A. Rohrdanz,  E. Rosta,  N. J. Russ,  H. F. Schaefer III,  
 M. W. Schmidt,  N. E. Schultz,  S. Sharma,  N. Shenvi,  C. D. Sherrill,  
 A. C. Simmonett,  A. Sodt,  T. Stein,  D. Stuck,  K. S. Thanthiriwatte,  
 V. Vanovschi,  L. Vogt,  Tao Wang,  A. Warshel,  M. A. Watson,  
 C. F. Williams,  Q. Wu,  X. Xu,  Jun Yang,  W. Zhang,  Yan Zhao

 Please cite Q-Chem as follows:
 Y. Shao et al., Mol. Phys. 113, 184-215 (2015)
 DOI: 10.1080/00268976.2014.952696

 Q-Chem 5.4.0 for Intel X86 EM64T Linux

 Parts of Q-Chem use Armadillo 9.800.1 (Horizon Scraper).
 http://arma.sourceforge.net/

 Q-Chem begins on Wed Dec 27 10:00:15 2023  

 Host: 
0

     Scratch files written to ./qchem2787036//
 May1621 |scratch|qcdevops|jenkins|workspace|build_RNUM    
 Parallel job on  1  processors
 Processing $rem in /cm/shared/apps/spack/cpu/opt/spack/linux-centos8-zen2/gcc-10.2.0/qchem-5.4-akfmr7b3t57bfs6qan3padb2wnb2i7cl/config/preferences:
 Processing $rem in /home/rramji/.qchemrc:
 Symmetry turned off for PCM/SM12/SMD calculation
 Core orbitals will be frozen

 Checking the input file for inconsistencies... 	...done.

 Q-Chem warning in module forms1/BasisType.C, line 2236:

 You are not using the predefined 5D/6D in this basis set.


--------------------------------------------------------------
User input:
--------------------------------------------------------------
$molecule
0 1
C	-0.139413	-0.381707	-0.216317
S	0.065687	0.384493	1.364183
C	0.489487	1.966393	0.688583
C	0.118687	0.582293	-1.201717
C	0.460287	1.857593	-0.709817
H	0.057787	0.354693	-2.276217
H	0.688287	2.708493	-1.368917
C	-0.139413	-1.859907	-0.216317
H	0.924087	-1.860507	-0.028217
H	-0.310813	-2.299207	0.755283
H	0.001587	-2.570907	-1.017017
H	0.717387	2.817093	1.339683
$end

$rem
JOBTYPE		SP
EXCHANGE	HF
CORRELATION	pRIMP2
BASIS		cc-pvtz
METHOD		rimp2
AUX_BASIS	rimp2-cc-pvtz
SOLVENT_METHOD	PCM
PURECART	11111
SYMMETRY	false
MEM_TOTAL	110000
SCF_CONVERGENCE = 6
THRESH=10
GUI = 2
$end



$solvent
dielectric 4.90
$end
--------------------------------------------------------------
 ----------------------------------------------------------------
             Standard Nuclear Orientation (Angstroms)
    I     Atom           X                Y                Z
 ----------------------------------------------------------------
    1      C      -0.1394130000    -0.3817070000    -0.2163170000
    2      S       0.0656870000     0.3844930000     1.3641830000
    3      C       0.4894870000     1.9663930000     0.6885830000
    4      C       0.1186870000     0.5822930000    -1.2017170000
    5      C       0.4602870000     1.8575930000    -0.7098170000
    6      H       0.0577870000     0.3546930000    -2.2762170000
    7      H       0.6882870000     2.7084930000    -1.3689170000
    8      C      -0.1394130000    -1.8599070000    -0.2163170000
    9      H       0.9240870000    -1.8605070000    -0.0282170000
   10      H      -0.3108130000    -2.2992070000     0.7552830000
   11      H       0.0015870000    -2.5709070000    -1.0170170000
   12      H       0.7173870000     2.8170930000     1.3396830000
 ----------------------------------------------------------------
 Nuclear Repulsion Energy =         270.92082527 hartrees
 There are       26 alpha and       26 beta electrons
 Requested basis set is cc-pVTZ
 There are 98 shells and 268 basis functions

 Total QAlloc Memory Limit 110000 MB
 Mega-Array Size       188 MB
 MEM_STATIC part       192 MB
 Discretize the solute cavity surface with Lebedev spheres
	Using 110 Lebedev grid points for each H atom
	Using 194 Lebedev grid points for other atoms
	Atomic van der Waals radii will be scaled by 1.20
 Remove points where switching function is < 1.0e-08
 Keep 878 surface tesserae and discard 946 interior tesserae
 Molecular Surface Area = 137.915 Angst**2

                       Distance Matrix (Angstroms)
             C (  1)   S (  2)   C (  3)   C (  4)   C (  5)   H (  6)
   S (  2)  1.768363
   C (  3)  2.593826  1.771567
   C (  4)  1.402471  2.574058  2.372016
   C (  5)  2.370158  2.574337  1.402930  1.408917
   H (  6)  2.196443  3.640531  3.402055  1.100028  2.207787
   H (  7)  3.400428  3.641214  2.196256  2.207516  1.100194  2.600211
   C (  8)  1.478200  2.752704  3.981825  2.646124  3.797761  3.030929
   H (  9)  1.831192  2.777706  3.917632  2.827197  3.808406  3.272780
   H ( 10)  2.156430  2.777545  4.340538  3.509610  4.474383  4.045867
   H ( 11)  2.335294  3.795868  4.871777  3.160775  4.462778  3.185573
   H ( 12)  3.658902  2.518503  1.095244  3.436784  2.277541  4.424163
             H (  7)   C (  8)   H (  9)   H ( 10)   H ( 11)
   C (  8)  4.783707
   H (  9)  4.767477  1.080007
   H ( 10)  5.530595  1.079986  1.526862
   H ( 11)  5.335490  1.080057  1.527547  1.820017
   H ( 12)  2.710932  5.002956  4.877891  5.251214  5.924268
 
 Requested basis set is rimp2-cc-pVTZ
 There are 207 shells and 707 basis functions
 A cutoff of  1.0D-10 yielded   4382 shell pairs
 There are     32878 function pairs (     42534 Cartesian)
 Smallest overlap matrix eigenvalue = 1.24E-04

 Scale SEOQF with 1.000000e+00/1.000000e-01/1.000000e-01

 Standard Electronic Orientation quadrupole field applied
 Nucleus-field energy     =     0.0000000031 hartrees
 Guess from superposition of atomic densities
 Warning:  Energy on first SCF cycle will be non-variational
 SAD guess density has 52.000000 electrons

 -----------------------------------------------------------------------
  General SCF calculation program by
  Eric Jon Sundstrom, Paul Horn, Yuezhi Mao, Dmitri Zuev, Alec White,
  David Stuck, Shaama M.S., Shane Yost, Joonho Lee, David Small,
  Daniel Levine, Susi Lehtola, Hugh Burton, Evgeny Epifanovsky,
  Bang C. Huynh
 -----------------------------------------------------------------------
 Hartree-Fock
 using 64 threads for integral computing
 -------------------------------------------------------
 OpenMP Integral computing Module                
 Release: version 1.0, May 2013, Q-Chem Inc. Pittsburgh 
 -------------------------------------------------------
 A restricted SCF calculation will be
 performed using DIIS
 SCF converges when DIIS error is below 1.0e-06
 ---------------------------------------
  Cycle       Energy         DIIS error
 ---------------------------------------
    1    -592.5813735349      3.22e-02  
    2    -590.3005348450      2.22e-03  
    3    -590.3618998138      8.72e-04  
    4    -590.3695443884      4.08e-04  
    5    -590.3716682680      6.99e-05  
    6    -590.3717937906      3.24e-05  
    7    -590.3718241638      1.42e-05  
    8    -590.3718337071      5.72e-06  
    9    -590.3718351361      1.88e-06  
   10    -590.3718352708      6.57e-07  Convergence criterion met
 ---------------------------------------
 SCF time:   CPU 483.00s  wall 8.00s 

************** Final PCM Free Energy Summary **************
 G_electrostatic  =      -0.00591199 hartree =      -3.70982949 kcal/mol
 G_cavitation     =       0.00000000 hartree =       0.00000000 kcal/mol
 G_dispersion     =       0.00000000 hartree =       0.00000000 kcal/mol
 G_repulsion      =       0.00000000 hartree =       0.00000000 kcal/mol
 --------------------------------------------------
 Non-electrostatic Free Energy =       0.00000000 hartree =       0.00000000 kcal/mol
 Total                         =      -0.00591199 hartree =      -3.70982949 kcal/mol
 --------------------------------------------------
 SCF Energy (H0 + V/2)                       =    -590.37183527 
 Solute Internal Energy (H0)                 =    -590.36592328 
 Total Free Energy (H0 + V/2 + non-elec)     =    -590.37183527 hartree
                                             = -370463.91804410 kcal/mol
***********************************************************

 SCF   energy in the final basis set =     -590.3718352708
 Total energy in the final basis set =     -590.3718352708


 --------------------------------------------------------------
  Generalized many-body perturbation theory program
  by Joonho Lee, Fazle Rob, Xintian Feng, Evgeny Epifanovsky

 No regularization used 
 (reg. param. = 0.0000e+00)
  (P|Q)^-1/2 Time:  CPU 5.53 s  wall 0.09 s

 In RI-MP2 calculation: 
 # of frozen core orbitals: 10

 Components of the RIMP2 correlation energy:
        aaaa    correlation energy =        -0.1249483872 a.u.
        abab    correlation energy =        -0.7501367125 a.u.
        bbbb    correlation energy =        -0.1249483872 a.u.
        non-Brillouin singles      =        -0.0000000000 a.u.
        total same-spin energy     =        -0.2498967743 a.u.
        total opposite-spin energy =        -0.7501367125 a.u.

 Total  RIMP2   correlation energy =        -1.0000334868 a.u.
        RIMP2         total energy =      -591.3718687577 a.u.

 RI-MP2 Energy Time:  CPU 23.46 s  wall 0.44 s
 
 --------------------------------------------------------------
 
                    Orbital Energies (a.u.)
 --------------------------------------------------------------
 
 Alpha MOs
 -- Occupied --
-91.9788 -11.2913 -11.2634 -11.2429 -11.2304 -11.2290  -8.9787  -6.6597
 -6.6592  -6.6585  -1.1582  -1.0412  -0.9714  -0.9185  -0.7554  -0.7218
 -0.6715  -0.5971  -0.5664  -0.5587  -0.5384  -0.4980  -0.4775  -0.4566
 -0.3471  -0.2977
 -- Virtual --
  0.1081   0.1481   0.1605   0.1806   0.1886   0.2025   0.2118   0.2160
  0.2274   0.2562   0.3148   0.3419   0.3442   0.3650   0.3883   0.4172
  0.4291   0.4408   0.4534   0.4770   0.4993   0.5137   0.5251   0.5366
  0.5444   0.5592   0.5767   0.5790   0.5885   0.6085   0.6203   0.6224
  0.6290   0.6400   0.6491   0.6547   0.6915   0.7085   0.7411   0.7742
  0.7841   0.7940   0.8354   0.8503   0.8699   0.8830   0.9027   0.9318
  0.9412   0.9860   1.0032   1.0341   1.0644   1.0899   1.1086   1.1117
  1.1146   1.1558   1.1707   1.1768   1.2157   1.2391   1.2514   1.2668
  1.2812   1.2949   1.3397   1.3486   1.3983   1.4158   1.4282   1.4535
  1.4802   1.4810   1.4892   1.5076   1.5308   1.5508   1.5580   1.5744
  1.5970   1.6240   1.6466   1.6939   1.7187   1.7441   1.7739   1.7884
  1.8314   1.8965   1.9121   1.9174   1.9501   2.0118   2.0619   2.0914
  2.1451   2.1710   2.2194   2.2323   2.2602   2.2888   2.3135   2.4008
  2.4318   2.4415   2.4743   2.5303   2.5365   2.5906   2.6186   2.6642
  2.6819   2.7267   2.7318   2.7583   2.7673   2.7733   2.8165   2.8403
  2.8623   2.8944   2.9182   2.9621   2.9981   3.0229   3.0318   3.0594
  3.0752   3.0923   3.1090   3.1468   3.1740   3.1963   3.2076   3.2348
  3.2549   3.2703   3.2866   3.3093   3.3207   3.3441   3.3801   3.3874
  3.4093   3.4277   3.4312   3.4336   3.4638   3.4739   3.4878   3.4994
  3.5100   3.5228   3.5412   3.5523   3.5925   3.6131   3.6223   3.6471
  3.6885   3.6968   3.7267   3.7570   3.7732   3.7984   3.8098   3.8324
  3.8502   3.8820   3.8992   3.9187   3.9458   3.9660   3.9807   3.9936
  4.0014   4.0258   4.0753   4.0959   4.1247   4.1511   4.1689   4.1866
  4.2532   4.2659   4.2758   4.2908   4.3216   4.3589   4.3717   4.3972
  4.4175   4.4757   4.4851   4.5123   4.5366   4.5684   4.5886   4.6296
  4.6629   4.6976   4.7450   4.7591   4.7838   4.8142   4.8188   4.8497
  4.9516   5.0056   5.0220   5.0347   5.0696   5.1270   5.1860   5.1966
  5.2281   5.3021   5.3542   5.4194   5.4737   5.4982   5.5403   5.5819
  5.6261   5.6780   5.7862   5.8222   5.8650   5.9890   6.0054   6.0834
  6.1360   6.3419   6.4157   6.4707   6.7298   9.3650  11.3056  12.7883
 13.8983  14.3209
 --------------------------------------------------------------
 
          Ground-State Mulliken Net Atomic Charges

     Atom                 Charge (a.u.)
  ----------------------------------------
      1 C                     0.027458
      2 S                    -0.002652
      3 C                    -0.250452
      4 C                    -0.252930
      5 C                    -0.179339
      6 H                     0.180596
      7 H                     0.186011
      8 C                    -0.360037
      9 H                     0.145522
     10 H                     0.134445
     11 H                     0.166919
     12 H                     0.204460
  ----------------------------------------
  Sum of atomic charges =     0.000000

 -----------------------------------------------------------------
                    Cartesian Multipole Moments
 -----------------------------------------------------------------
    Charge (ESU x 10^10)
                 0.0000
    Dipole Moment (Debye)
         X       0.9959      Y      -0.8388      Z      -0.9342
       Tot       1.6025
    Quadrupole Moments (Debye-Ang)
        XX     -47.8900     XY       0.8178     YY     -36.4794
        XZ      -0.1725     YZ       0.8423     ZZ     -41.8282
    Octopole Moments (Debye-Ang^2)
       XXX     -20.9819    XXY     -18.3400    XYY       2.5660
       YYY     -43.1943    XXZ      -6.9902    XYZ       1.7104
       YYZ      -5.0609    XZZ      -4.4020    YZZ     -11.2148
       ZZZ     -28.2617
    Hexadecapole Moments (Debye-Ang^3)
      XXXX     -87.2484   XXXY     -48.0815   XXYY    -111.2283
      XYYY     -29.2665   YYYY    -486.3744   XXXZ      -1.8021
      XXYZ      -5.9841   XYYZ      -0.5943   YYYZ      -5.9567
      XXZZ     -71.6673   XYZZ      -7.6664   YYZZ    -119.7422
      XZZZ      -0.8252   YZZZ     -13.8062   ZZZZ    -306.7311
 -----------------------------------------------------------------
 Total job time:  10.32s(wall), 547.37s(cpu) 
 Wed Dec 27 10:00:25 2023

        *************************************************************
        *                                                           *
        *  Thank you very much for using Q-Chem.  Have a nice day.  *
        *                                                           *
        *************************************************************


0 sent ACK to 0 
now end server 0 ... 
cleanup process ... done
remove work dirs ./qchem2787036.0 -- ./qchem2787036.0
rm -rf ./qchem2787036.0
rm -rf ./qchem2787036
