You are running Q-Chem version: 5.4.0

#
# job setting
#
local host:  exp-6-47
current dir: /home/rramji/project-csd799/aromodel/pndit-qchem/methylated-rotation-run
input file:  Dimethyl_Naphthalene_Dicarboximide_Phi_25_Theta_190_Thiophene_Hydrogenated_Improper.qcin
output file: 
nprocs     : 1
nthreads   : 64
#
# qchem installation setting
#
QC:          /cm/shared/apps/spack/cpu/opt/spack/linux-centos8-zen2/gcc-10.2.0/qchem-5.4-akfmr7b3t57bfs6qan3padb2wnb2i7cl
QCAUX:       /cm/shared/apps/spack/cpu/opt/spack/linux-centos8-zen2/gcc-10.2.0/qchem-5.4-akfmr7b3t57bfs6qan3padb2wnb2i7cl/qcaux
QCPROG:      /cm/shared/apps/spack/cpu/opt/spack/linux-centos8-zen2/gcc-10.2.0/qchem-5.4-akfmr7b3t57bfs6qan3padb2wnb2i7cl/exe/qcprog.exe
QCPROG_S:    /cm/shared/apps/spack/cpu/opt/spack/linux-centos8-zen2/gcc-10.2.0/qchem-5.4-akfmr7b3t57bfs6qan3padb2wnb2i7cl/exe/qcprog.exe_s
PARALLEL:    -DPARALLEL
QCMPI:       mpich
#
# qchem directory setting
#
qcrun:       qchem2755548
QCSCRATCH:   .
QCLOCALSCR:  
QCTMPDIR:    .
QCFILEPREF:  ./qchem2755548
QCSAVEDIR:   
workdirs:    ./qchem2755548
workdir0:    ./qchem2755548
partmpdirs =  
#
# parallel setting
#
QCRSH:           ssh
QCMPI:           mpich
QCMPIRUN:        /cm/shared/apps/spack/cpu/opt/spack/linux-centos8-zen2/gcc-10.2.0/qchem-5.4-akfmr7b3t57bfs6qan3padb2wnb2i7cl/bin/mpi/mpirun_qchem
QCMACHINEFILE:   ./qchem2755548/hostfile
exp-6-47

#
# env setting
#
exported envs:   QC QCAUX QCSCRATCH QCRUNNAME QCFILEPREF QCPROG QCPROG_S GUIFILE

Running Job 1 of 1 Dimethyl_Naphthalene_Dicarboximide_Phi_25_Theta_190_Thiophene_Hydrogenated_Improper.qcin
qchem Dimethyl_Naphthalene_Dicarboximide_Phi_25_Theta_190_Thiophene_Hydrogenated_Improper.qcin_2755548.0 ./qchem2755548/ 1
/cm/shared/apps/spack/cpu/opt/spack/linux-centos8-zen2/gcc-10.2.0/qchem-5.4-akfmr7b3t57bfs6qan3padb2wnb2i7cl/bin/mpi/mpirun_qchem -machinefile ./qchem2755548/hostfile -np 1 /cm/shared/apps/spack/cpu/opt/spack/linux-centos8-zen2/gcc-10.2.0/qchem-5.4-akfmr7b3t57bfs6qan3padb2wnb2i7cl/exe/qcprog.exe Dimethyl_Naphthalene_Dicarboximide_Phi_25_Theta_190_Thiophene_Hydrogenated_Improper.qcin_2755548.0 ./qchem2755548/

Process 0 of 1 is on exp-6-47 - thread support 0
initial socket setup ...start
initial socket setup ...done 
now start server 0 ... 
                  Welcome to Q-Chem
     A Quantum Leap Into The Future Of Chemistry


 Q-Chem 5.4, Q-Chem, Inc., Pleasanton, CA (2021)

 License issued to: University of California, San Diego (site)

 E. Epifanovsky,  A. T. B. Gilbert,  Xintian Feng,  Joonho Lee,  Yuezhi Mao,  
 N. Mardirossian,  P. Pokhilko,  A. White,  M. Wormit,  M. P. Coons,  
 A. L. Dempwolff,  Zhengting Gan,  D. Hait,  P. R. Horn,  L. D. Jacobson,  
 I. Kaliman,  J. Kussmann,  A. W. Lange,  Ka Un Lao,  D. S. Levine,  Jie Liu,  
 S. C. McKenzie,  A. F. Morrison,  K. Nanda,  F. Plasser,  D. R. Rehn,  
 M. L. Vidal,  Zhi-Qiang You,  Ying Zhu,  B. Alam,  B. Albrecht,  
 A. Aldossary,  E. Alguire,  J. H. Andersen,  D. Barton,  K. Begam,  A. Behn,  
 Y. A. Bernard,  E. J. Berquist,  H. Burton,  A. Carreras,  K. Carter-Fenk,  
 R. Chakraborty,  A. D. Chien,  K. D. Closser,  V. Cofer-Shabica,  
 S. Dasgupta,  Jia Deng,  M. de Wergifosse,  M. Diedenhofen,  Hainam Do,  
 S. Ehlert,  Po-Tung Fang,  S. Fatehi,  Qingguo Feng,  J. Gayvert,  
 Qinghui Ge,  G. Gidofalvi,  M. Goldey,  J. Gomes,  C. Gonzalez-Espinoza,  
 S. Gulania,  A. Gunina,  M. W. D. Hanson-Heine,  P. H. P. Harbach,  
 A. W. Hauser,  M. F. Herbst,  M. Hernandez Vera,  M. Hodecker,  
 Z. C. Holden,  S. Houck,  Xunkun Huang,  Kerwin Hui,  B. C. Huynh,  
 M. Ivanov,  Hyunjun Ji,  Hanjie Jiang,  B. Kaduk,  S. Kaehler,  
 K. Khistyaev,  Jaehoon Kim,  P. Klunzinger,  Z. Koczor-Benda,  
 Joong Hoon Koh,  D. Kosenkov,  L. Koulias,  T. Kowalczyk,  C. M. Krauter,  
 K. Kue,  A. Kunitsa,  T. Kus,  A. Landau,  K. V. Lawler,  D. Lefrancois,  
 S. Lehtola,  Rain Li,  Yi-Pei Li,  Jiashu Liang,  M. Liebenthal,  
 Hung-Hsuan Lin,  You-Sheng Lin,  Fenglai Liu,  Kuan-Yu Liu,  
 M. Loipersberger,  A. Luenser,  A. Manjanath,  P. Manohar,  E. Mansoor,  
 S. F. Manzer,  Shan-Ping Mao,  A. V. Marenich,  T. Markovich,  S. Mason,  
 S. A. Maurer,  P. F. McLaughlin,  M. F. S. J. Menger,  J.-M. Mewes,  
 S. A. Mewes,  P. Morgante,  J. W. Mullinax,  T. S. Nguyen-Beck,  
 K. J. Oosterbaan,  G. Paran,  Alexander C. Paul,  Suranjan K. Paul,  
 F. Pavosevic,  Zheng Pei,  S. Prager,  E. I. Proynov,  E. Ramos,  B. Rana,  
 A. E. Rask,  A. Rettig,  R. M. Richard,  F. Rob,  E. Rossomme,  T. Scheele,  
 M. Scheurer,  M. Schneider,  N. Sergueev,  S. M. Sharada,  W. Skomorowski,  
 D. W. Small,  C. J. Stein,  Yu-Chuan Su,  E. J. Sundstrom,  Zhen Tao,  
 J. Thirman,  T. Tsuchimochi,  N. M. Tubman,  S. P. Veccham,  O. Vydrov,  
 J. Wenzel,  J. Witte,  A. Yamada,  Kun Yao,  S. Yeganeh,  S. R. Yost,  
 A. Zech,  Igor Ying Zhang,  Xing Zhang,  Yu Zhang,  D. Zuev,  
 A. Aspuru-Guzik,  A. T. Bell,  N. A. Besley,  K. B. Bravaya,  B. R. Brooks,  
 D. Casanova,  Jeng-Da Chai,  S. Coriani,  C. J. Cramer,  
 A. E. DePrince, III,  R. A. DiStasio Jr.,  A. Dreuw,  B. D. Dunietz,  
 T. R. Furlani,  W. A. Goddard III,  S. Grimme,  S. Hammes-Schiffer,  
 T. Head-Gordon,  W. J. Hehre,  Chao-Ping Hsu,  T.-C. Jagau,  Yousung Jung,  
 A. Klamt,  Jing Kong,  D. S. Lambrecht,  WanZhen Liang,  N. J. Mayhall,  
 C. W. McCurdy,  J. B. Neaton,  C. Ochsenfeld,  J. A. Parkhill,  R. Peverati,  
 V. A. Rassolov,  Yihan Shao,  L. V. Slipchenko,  T. Stauch,  R. P. Steele,  
 J. E. Subotnik,  A. J. W. Thom,  A. Tkatchenko,  D. G. Truhlar,  
 T. Van Voorhis,  T. A. Wesolowski,  K. B. Whaley,  H. L. Woodcock III,  
 P. M. Zimmerman,  S. Faraji,  P. M. W. Gill,  M. Head-Gordon,  
 J. M. Herbert,  A. I. Krylov

 Contributors to earlier versions of Q-Chem not listed above: 
 R. D. Adamson,  B. Austin,  R. Baer,  J. Baker,  G. J. O. Beran,  
 K. Brandhorst,  S. T. Brown,  E. F. C. Byrd,  A. K. Chakraborty,  
 G. K. L. Chan,  Chun-Min Chang,  Yunqing Chen,  C.-L. Cheng,  
 Siu Hung Chien,  D. M. Chipman,  D. L. Crittenden,  H. Dachsel,  
 R. J. Doerksen,  A. D. Dutoi,  R. G. Edgar,  J. Fosso-Tande,  
 L. Fusti-Molnar,  D. Ghosh,  A. Ghysels,  A. Golubeva-Zadorozhnaya,  
 J. Gonthier,  M. S. Gordon,  S. R. Gwaltney,  G. Hawkins,  J. E. Herr,  
 A. Heyden,  S. Hirata,  E. G. Hohenstein,  G. Kedziora,  F. J. Keil,  
 C. Kelley,  Jihan Kim,  R. A. King,  R. Z. Khaliullin,  P. P. Korambath,  
 W. Kurlancheek,  A. Laurent,  A. M. Lee,  M. S. Lee,  S. V. Levchenko,  
 Ching Yeh Lin,  D. Liotard,  E. Livshits,  R. C. Lochan,  I. Lotan,  
 L. A. Martinez-Martinez,  P. E. Maslen,  N. Nair,  D. P. O'Neill,  
 D. Neuhauser,  E. Neuscamman,  C. M. Oana,  R. Olivares-Amaya,  R. Olson,  
 T. M. Perrine,  B. Peters,  P. A. Pieniazek,  A. Prociuk,  Y. M. Rhee,  
 J. Ritchie,  M. A. Rohrdanz,  E. Rosta,  N. J. Russ,  H. F. Schaefer III,  
 M. W. Schmidt,  N. E. Schultz,  S. Sharma,  N. Shenvi,  C. D. Sherrill,  
 A. C. Simmonett,  A. Sodt,  T. Stein,  D. Stuck,  K. S. Thanthiriwatte,  
 V. Vanovschi,  L. Vogt,  Tao Wang,  A. Warshel,  M. A. Watson,  
 C. F. Williams,  Q. Wu,  X. Xu,  Jun Yang,  W. Zhang,  Yan Zhao

 Please cite Q-Chem as follows:
 Y. Shao et al., Mol. Phys. 113, 184-215 (2015)
 DOI: 10.1080/00268976.2014.952696

 Q-Chem 5.4.0 for Intel X86 EM64T Linux

 Parts of Q-Chem use Armadillo 9.800.1 (Horizon Scraper).
 http://arma.sourceforge.net/

 Q-Chem begins on Wed Dec 27 10:04:06 2023  

 Host: 
0

     Scratch files written to ./qchem2755548//
 May1621 |scratch|qcdevops|jenkins|workspace|build_RNUM    
 Parallel job on  1  processors
 Processing $rem in /cm/shared/apps/spack/cpu/opt/spack/linux-centos8-zen2/gcc-10.2.0/qchem-5.4-akfmr7b3t57bfs6qan3padb2wnb2i7cl/config/preferences:
 Processing $rem in /home/rramji/.qchemrc:
 Symmetry turned off for PCM/SM12/SMD calculation
 Core orbitals will be frozen

 Checking the input file for inconsistencies... 	...done.

 Q-Chem warning in module forms1/BasisType.C, line 2236:

 You are not using the predefined 5D/6D in this basis set.


--------------------------------------------------------------
User input:
--------------------------------------------------------------
$molecule
0 1
C	-0.213733	-0.350804	-0.212630
S	0.121267	0.368096	1.367870
C	0.813367	1.852396	0.692270
C	0.207867	0.553796	-1.198030
C	0.765767	1.750296	-0.706130
H	0.108267	0.340196	-2.272530
H	1.137967	2.548796	-1.365230
C	-0.213733	-1.829004	-0.212630
H	-1.277233	-1.829604	-0.400730
H	-0.042333	-2.268304	-1.184230
H	-0.354733	-2.540004	0.588070
H	1.185467	2.650596	1.343370
$end

$rem
JOBTYPE		SP
EXCHANGE	HF
CORRELATION	pRIMP2
BASIS		cc-pvtz
METHOD		rimp2
AUX_BASIS	rimp2-cc-pvtz
SOLVENT_METHOD	PCM
PURECART	11111
SYMMETRY	false
MEM_TOTAL	110000
SCF_CONVERGENCE = 6
THRESH=10
GUI = 2
$end



$solvent
dielectric 4.90
$end
--------------------------------------------------------------
 ----------------------------------------------------------------
             Standard Nuclear Orientation (Angstroms)
    I     Atom           X                Y                Z
 ----------------------------------------------------------------
    1      C      -0.2137330000    -0.3508040000    -0.2126300000
    2      S       0.1212670000     0.3680960000     1.3678700000
    3      C       0.8133670000     1.8523960000     0.6922700000
    4      C       0.2078670000     0.5537960000    -1.1980300000
    5      C       0.7657670000     1.7502960000    -0.7061300000
    6      H       0.1082670000     0.3401960000    -2.2725300000
    7      H       1.1379670000     2.5487960000    -1.3652300000
    8      C      -0.2137330000    -1.8290040000    -0.2126300000
    9      H      -1.2772330000    -1.8296040000    -0.4007300000
   10      H      -0.0423330000    -2.2683040000    -1.1842300000
   11      H      -0.3547330000    -2.5400040000     0.5880700000
   12      H       1.1854670000     2.6505960000     1.3433700000
 ----------------------------------------------------------------
 Nuclear Repulsion Energy =         270.74855989 hartrees
 There are       26 alpha and       26 beta electrons
 Requested basis set is cc-pVTZ
 There are 98 shells and 268 basis functions

 Total QAlloc Memory Limit 110000 MB
 Mega-Array Size       188 MB
 MEM_STATIC part       192 MB
 Discretize the solute cavity surface with Lebedev spheres
	Using 110 Lebedev grid points for each H atom
	Using 194 Lebedev grid points for other atoms
	Atomic van der Waals radii will be scaled by 1.20
 Remove points where switching function is < 1.0e-08
 Keep 887 surface tesserae and discard 937 interior tesserae
 Molecular Surface Area = 137.964 Angst**2

                       Distance Matrix (Angstroms)
             C (  1)   S (  2)   C (  3)   C (  4)   C (  5)   H (  6)
   S (  2)  1.768339
   C (  3)  2.593814  1.771605
   C (  4)  1.402519  2.574068  2.371967
   C (  5)  2.370144  2.574361  1.402930  1.408840
   H (  6)  2.196441  3.640530  3.402051  1.100043  2.207781
   H (  7)  3.400479  3.641286  2.196280  2.207502  1.100249  2.600267
   C (  8)  1.478200  2.727170  3.927656  2.612756  3.743575  3.008704
   H (  9)  1.831192  3.148592  4.372915  2.919213  4.133135  3.182967
   H ( 10)  2.156430  3.672953  4.607998  2.833203  4.126833  2.830433
   H ( 11)  2.335294  3.048231  4.546261  3.616389  4.619215  4.085701
   H ( 12)  3.658866  2.518517  1.095223  3.436712  2.277529  4.424143
             H (  7)   C (  8)   H (  9)   H ( 10)   H ( 11)
   C (  8)  4.724480
   H (  9)  5.092528  1.080007
   H ( 10)  4.962894  1.079986  1.526862
   H ( 11)  5.651497  1.080057  1.527547  1.820017
   H ( 12)  2.710929  4.944261  5.401756  5.664965  5.466720
 
 Requested basis set is rimp2-cc-pVTZ
 There are 207 shells and 707 basis functions
 A cutoff of  1.0D-10 yielded   4378 shell pairs
 There are     32866 function pairs (     42493 Cartesian)
 Smallest overlap matrix eigenvalue = 1.47E-04

 Scale SEOQF with 1.000000e+00/1.000000e-01/1.000000e-01

 Standard Electronic Orientation quadrupole field applied
 Nucleus-field energy     =     0.0000000053 hartrees
 Guess from superposition of atomic densities
 Warning:  Energy on first SCF cycle will be non-variational
 SAD guess density has 52.000000 electrons

 -----------------------------------------------------------------------
  General SCF calculation program by
  Eric Jon Sundstrom, Paul Horn, Yuezhi Mao, Dmitri Zuev, Alec White,
  David Stuck, Shaama M.S., Shane Yost, Joonho Lee, David Small,
  Daniel Levine, Susi Lehtola, Hugh Burton, Evgeny Epifanovsky,
  Bang C. Huynh
 -----------------------------------------------------------------------
 Hartree-Fock
 using 64 threads for integral computing
 -------------------------------------------------------
 OpenMP Integral computing Module                
 Release: version 1.0, May 2013, Q-Chem Inc. Pittsburgh 
 -------------------------------------------------------
 A restricted SCF calculation will be
 performed using DIIS
 SCF converges when DIIS error is below 1.0e-06
 ---------------------------------------
  Cycle       Energy         DIIS error
 ---------------------------------------
    1    -592.5771503767      3.22e-02  
    2    -590.2869978341      2.17e-03  
    3    -590.3475040444      8.17e-04  
    4    -590.3545526600      3.93e-04  
    5    -590.3565158162      7.25e-05  
    6    -590.3566421778      3.15e-05  
    7    -590.3566731332      1.47e-05  
    8    -590.3566827024      5.85e-06  
    9    -590.3566843497      2.05e-06  
   10    -590.3566845157      6.53e-07  Convergence criterion met
 ---------------------------------------
 SCF time:   CPU 501.20s  wall 9.00s 

************** Final PCM Free Energy Summary **************
 G_electrostatic  =      -0.00599743 hartree =      -3.76344471 kcal/mol
 G_cavitation     =       0.00000000 hartree =       0.00000000 kcal/mol
 G_dispersion     =       0.00000000 hartree =       0.00000000 kcal/mol
 G_repulsion      =       0.00000000 hartree =       0.00000000 kcal/mol
 --------------------------------------------------
 Non-electrostatic Free Energy =       0.00000000 hartree =       0.00000000 kcal/mol
 Total                         =      -0.00599743 hartree =      -3.76344471 kcal/mol
 --------------------------------------------------
 SCF Energy (H0 + V/2)                       =    -590.35668452 
 Solute Internal Energy (H0)                 =    -590.35068708 
 Total Free Energy (H0 + V/2 + non-elec)     =    -590.35668452 hartree
                                             = -370454.41080174 kcal/mol
***********************************************************

 SCF   energy in the final basis set =     -590.3566845157
 Total energy in the final basis set =     -590.3566845157


 --------------------------------------------------------------
  Generalized many-body perturbation theory program
  by Joonho Lee, Fazle Rob, Xintian Feng, Evgeny Epifanovsky

 No regularization used 
 (reg. param. = 0.0000e+00)
  (P|Q)^-1/2 Time:  CPU 5.87 s  wall 0.10 s

 In RI-MP2 calculation: 
 # of frozen core orbitals: 10

 Components of the RIMP2 correlation energy:
        aaaa    correlation energy =        -0.1257691895 a.u.
        abab    correlation energy =        -0.7529250100 a.u.
        bbbb    correlation energy =        -0.1257691895 a.u.
        non-Brillouin singles      =        -0.0000000000 a.u.
        total same-spin energy     =        -0.2515383789 a.u.
        total opposite-spin energy =        -0.7529250100 a.u.

 Total  RIMP2   correlation energy =        -1.0044633889 a.u.
        RIMP2         total energy =      -591.3611479046 a.u.

 RI-MP2 Energy Time:  CPU 26.27 s  wall 0.45 s
 
 --------------------------------------------------------------
 
                    Orbital Energies (a.u.)
 --------------------------------------------------------------
 
 Alpha MOs
 -- Occupied --
-91.9761 -11.2854 -11.2659 -11.2431 -11.2361 -11.2236  -8.9762  -6.6571
 -6.6565  -6.6560  -1.1574  -1.0386  -0.9717  -0.9187  -0.7551  -0.7222
 -0.6698  -0.5966  -0.5623  -0.5555  -0.5508  -0.4974  -0.4650  -0.4513
 -0.3455  -0.2966
 -- Virtual --
  0.1007   0.1481   0.1603   0.1819   0.1892   0.1922   0.2180   0.2218
  0.2301   0.2377   0.3094   0.3303   0.3568   0.3601   0.3934   0.4101
  0.4316   0.4479   0.4537   0.4848   0.4850   0.5127   0.5275   0.5337
  0.5502   0.5593   0.5688   0.5798   0.5872   0.6154   0.6173   0.6268
  0.6322   0.6368   0.6492   0.6573   0.6747   0.7101   0.7451   0.7600
  0.7796   0.8095   0.8343   0.8497   0.8689   0.8849   0.8998   0.9297
  0.9403   0.9802   1.0266   1.0356   1.0671   1.0737   1.0924   1.0962
  1.1292   1.1533   1.1702   1.1901   1.2192   1.2248   1.2443   1.2630
  1.2940   1.3308   1.3371   1.3637   1.3851   1.4080   1.4153   1.4338
  1.4597   1.4872   1.4908   1.5072   1.5208   1.5516   1.5754   1.5895
  1.6071   1.6301   1.6418   1.6706   1.7390   1.7551   1.7665   1.7882
  1.8301   1.8863   1.9078   1.9198   1.9586   2.0165   2.0343   2.1005
  2.1346   2.1694   2.2023   2.2241   2.2367   2.2623   2.2997   2.3866
  2.4269   2.4648   2.4919   2.5247   2.5530   2.5983   2.6134   2.6732
  2.7024   2.7217   2.7245   2.7558   2.7615   2.7867   2.8176   2.8370
  2.8447   2.8834   2.9177   2.9728   3.0012   3.0213   3.0310   3.0619
  3.0842   3.0907   3.1122   3.1392   3.1586   3.1999   3.2095   3.2482
  3.2524   3.2670   3.2904   3.3114   3.3200   3.3457   3.3517   3.3862
  3.3939   3.4178   3.4227   3.4526   3.4632   3.4739   3.4947   3.5032
  3.5159   3.5328   3.5548   3.5615   3.5942   3.6165   3.6251   3.6504
  3.6587   3.6891   3.7195   3.7283   3.7486   3.7939   3.8139   3.8514
  3.8699   3.8996   3.9206   3.9264   3.9387   3.9586   3.9701   3.9802
  3.9951   4.0120   4.0872   4.1080   4.1478   4.1690   4.1996   4.2056
  4.2298   4.2499   4.2718   4.2941   4.3196   4.3608   4.3737   4.3924
  4.4289   4.4536   4.4771   4.4928   4.5445   4.5613   4.5972   4.6313
  4.6741   4.7043   4.7263   4.7482   4.7889   4.8068   4.8426   4.9211
  4.9456   5.0026   5.0259   5.0363   5.0875   5.1382   5.1651   5.1738
  5.2082   5.2985   5.3494   5.4166   5.4248   5.4926   5.5207   5.5982
  5.6434   5.6929   5.7670   5.8117   5.9112   5.9736   5.9765   6.0438
  6.1086   6.3260   6.4329   6.4493   6.6574   9.4191  11.3115  12.7145
 13.8567  14.2024
 --------------------------------------------------------------
 
          Ground-State Mulliken Net Atomic Charges

     Atom                 Charge (a.u.)
  ----------------------------------------
      1 C                     0.013214
      2 S                    -0.000223
      3 C                    -0.239984
      4 C                    -0.232354
      5 C                    -0.185458
      6 H                     0.181207
      7 H                     0.186760
      8 C                    -0.368622
      9 H                     0.133542
     10 H                     0.137829
     11 H                     0.170480
     12 H                     0.203609
  ----------------------------------------
  Sum of atomic charges =     0.000000

 -----------------------------------------------------------------
                    Cartesian Multipole Moments
 -----------------------------------------------------------------
    Charge (ESU x 10^10)
                -0.0000
    Dipole Moment (Debye)
         X      -0.2012      Y      -0.6694      Z      -1.2305
       Tot       1.4151
    Quadrupole Moments (Debye-Ang)
        XX     -46.4912     XY       4.9002     YY     -37.7246
        XZ       0.2638     YZ       0.7363     ZZ     -41.5970
    Octopole Moments (Debye-Ang^2)
       XXX     -31.2780    XXY     -14.1593    XYY      -3.7802
       YYY     -41.8604    XXZ      -6.3362    XYZ       1.7590
       YYZ      -3.5811    XZZ      -6.5537    YZZ     -10.3460
       ZZZ     -28.5816
    Hexadecapole Moments (Debye-Ang^3)
      XXXX    -127.7233   XXXY     -76.4845   XXYY     -99.6041
      XYYY     -41.9670   YYYY    -464.1845   XXXZ      -4.0779
      XXYZ      -5.6530   XYYZ       0.3808   YYYZ     -15.8776
      XXZZ     -75.1621   XYZZ     -14.1097   YYZZ    -116.9825
      XZZZ      -2.6625   YZZZ     -15.0221   ZZZZ    -307.5510
 -----------------------------------------------------------------
 Total job time:  10.88s(wall), 577.94s(cpu) 
 Wed Dec 27 10:04:17 2023

        *************************************************************
        *                                                           *
        *  Thank you very much for using Q-Chem.  Have a nice day.  *
        *                                                           *
        *************************************************************


0 sent ACK to 0 
now end server 0 ... 
cleanup process ... done
remove work dirs ./qchem2755548.0 -- ./qchem2755548.0
rm -rf ./qchem2755548.0
rm -rf ./qchem2755548
