You are running Q-Chem version: 5.4.0

#
# job setting
#
local host:  exp-3-56
current dir: /home/rramji/project-csd799/aromodel/pndit-qchem/methylated-rotation-run
input file:  Dimethyl_Naphthalene_Dicarboximide_Phi_0_Theta_260_Thiophene_Hydrogenated_Improper.qcin
output file: 
nprocs     : 1
nthreads   : 64
#
# qchem installation setting
#
QC:          /cm/shared/apps/spack/cpu/opt/spack/linux-centos8-zen2/gcc-10.2.0/qchem-5.4-akfmr7b3t57bfs6qan3padb2wnb2i7cl
QCAUX:       /cm/shared/apps/spack/cpu/opt/spack/linux-centos8-zen2/gcc-10.2.0/qchem-5.4-akfmr7b3t57bfs6qan3padb2wnb2i7cl/qcaux
QCPROG:      /cm/shared/apps/spack/cpu/opt/spack/linux-centos8-zen2/gcc-10.2.0/qchem-5.4-akfmr7b3t57bfs6qan3padb2wnb2i7cl/exe/qcprog.exe
QCPROG_S:    /cm/shared/apps/spack/cpu/opt/spack/linux-centos8-zen2/gcc-10.2.0/qchem-5.4-akfmr7b3t57bfs6qan3padb2wnb2i7cl/exe/qcprog.exe_s
PARALLEL:    -DPARALLEL
QCMPI:       mpich
#
# qchem directory setting
#
qcrun:       qchem2759011
QCSCRATCH:   .
QCLOCALSCR:  
QCTMPDIR:    .
QCFILEPREF:  ./qchem2759011
QCSAVEDIR:   
workdirs:    ./qchem2759011
workdir0:    ./qchem2759011
partmpdirs =  
#
# parallel setting
#
QCRSH:           ssh
QCMPI:           mpich
QCMPIRUN:        /cm/shared/apps/spack/cpu/opt/spack/linux-centos8-zen2/gcc-10.2.0/qchem-5.4-akfmr7b3t57bfs6qan3padb2wnb2i7cl/bin/mpi/mpirun_qchem
QCMACHINEFILE:   ./qchem2759011/hostfile
exp-3-56

#
# env setting
#
exported envs:   QC QCAUX QCSCRATCH QCRUNNAME QCFILEPREF QCPROG QCPROG_S GUIFILE

Running Job 1 of 1 Dimethyl_Naphthalene_Dicarboximide_Phi_0_Theta_260_Thiophene_Hydrogenated_Improper.qcin
qchem Dimethyl_Naphthalene_Dicarboximide_Phi_0_Theta_260_Thiophene_Hydrogenated_Improper.qcin_2759011.0 ./qchem2759011/ 1
/cm/shared/apps/spack/cpu/opt/spack/linux-centos8-zen2/gcc-10.2.0/qchem-5.4-akfmr7b3t57bfs6qan3padb2wnb2i7cl/bin/mpi/mpirun_qchem -machinefile ./qchem2759011/hostfile -np 1 /cm/shared/apps/spack/cpu/opt/spack/linux-centos8-zen2/gcc-10.2.0/qchem-5.4-akfmr7b3t57bfs6qan3padb2wnb2i7cl/exe/qcprog.exe Dimethyl_Naphthalene_Dicarboximide_Phi_0_Theta_260_Thiophene_Hydrogenated_Improper.qcin_2759011.0 ./qchem2759011/

Process 0 of 1 is on exp-3-56 - thread support 0
initial socket setup ...start
initial socket setup ...done 
now start server 0 ... 
                  Welcome to Q-Chem
     A Quantum Leap Into The Future Of Chemistry


 Q-Chem 5.4, Q-Chem, Inc., Pleasanton, CA (2021)

 License issued to: University of California, San Diego (site)

 E. Epifanovsky,  A. T. B. Gilbert,  Xintian Feng,  Joonho Lee,  Yuezhi Mao,  
 N. Mardirossian,  P. Pokhilko,  A. White,  M. Wormit,  M. P. Coons,  
 A. L. Dempwolff,  Zhengting Gan,  D. Hait,  P. R. Horn,  L. D. Jacobson,  
 I. Kaliman,  J. Kussmann,  A. W. Lange,  Ka Un Lao,  D. S. Levine,  Jie Liu,  
 S. C. McKenzie,  A. F. Morrison,  K. Nanda,  F. Plasser,  D. R. Rehn,  
 M. L. Vidal,  Zhi-Qiang You,  Ying Zhu,  B. Alam,  B. Albrecht,  
 A. Aldossary,  E. Alguire,  J. H. Andersen,  D. Barton,  K. Begam,  A. Behn,  
 Y. A. Bernard,  E. J. Berquist,  H. Burton,  A. Carreras,  K. Carter-Fenk,  
 R. Chakraborty,  A. D. Chien,  K. D. Closser,  V. Cofer-Shabica,  
 S. Dasgupta,  Jia Deng,  M. de Wergifosse,  M. Diedenhofen,  Hainam Do,  
 S. Ehlert,  Po-Tung Fang,  S. Fatehi,  Qingguo Feng,  J. Gayvert,  
 Qinghui Ge,  G. Gidofalvi,  M. Goldey,  J. Gomes,  C. Gonzalez-Espinoza,  
 S. Gulania,  A. Gunina,  M. W. D. Hanson-Heine,  P. H. P. Harbach,  
 A. W. Hauser,  M. F. Herbst,  M. Hernandez Vera,  M. Hodecker,  
 Z. C. Holden,  S. Houck,  Xunkun Huang,  Kerwin Hui,  B. C. Huynh,  
 M. Ivanov,  Hyunjun Ji,  Hanjie Jiang,  B. Kaduk,  S. Kaehler,  
 K. Khistyaev,  Jaehoon Kim,  P. Klunzinger,  Z. Koczor-Benda,  
 Joong Hoon Koh,  D. Kosenkov,  L. Koulias,  T. Kowalczyk,  C. M. Krauter,  
 K. Kue,  A. Kunitsa,  T. Kus,  A. Landau,  K. V. Lawler,  D. Lefrancois,  
 S. Lehtola,  Rain Li,  Yi-Pei Li,  Jiashu Liang,  M. Liebenthal,  
 Hung-Hsuan Lin,  You-Sheng Lin,  Fenglai Liu,  Kuan-Yu Liu,  
 M. Loipersberger,  A. Luenser,  A. Manjanath,  P. Manohar,  E. Mansoor,  
 S. F. Manzer,  Shan-Ping Mao,  A. V. Marenich,  T. Markovich,  S. Mason,  
 S. A. Maurer,  P. F. McLaughlin,  M. F. S. J. Menger,  J.-M. Mewes,  
 S. A. Mewes,  P. Morgante,  J. W. Mullinax,  T. S. Nguyen-Beck,  
 K. J. Oosterbaan,  G. Paran,  Alexander C. Paul,  Suranjan K. Paul,  
 F. Pavosevic,  Zheng Pei,  S. Prager,  E. I. Proynov,  E. Ramos,  B. Rana,  
 A. E. Rask,  A. Rettig,  R. M. Richard,  F. Rob,  E. Rossomme,  T. Scheele,  
 M. Scheurer,  M. Schneider,  N. Sergueev,  S. M. Sharada,  W. Skomorowski,  
 D. W. Small,  C. J. Stein,  Yu-Chuan Su,  E. J. Sundstrom,  Zhen Tao,  
 J. Thirman,  T. Tsuchimochi,  N. M. Tubman,  S. P. Veccham,  O. Vydrov,  
 J. Wenzel,  J. Witte,  A. Yamada,  Kun Yao,  S. Yeganeh,  S. R. Yost,  
 A. Zech,  Igor Ying Zhang,  Xing Zhang,  Yu Zhang,  D. Zuev,  
 A. Aspuru-Guzik,  A. T. Bell,  N. A. Besley,  K. B. Bravaya,  B. R. Brooks,  
 D. Casanova,  Jeng-Da Chai,  S. Coriani,  C. J. Cramer,  
 A. E. DePrince, III,  R. A. DiStasio Jr.,  A. Dreuw,  B. D. Dunietz,  
 T. R. Furlani,  W. A. Goddard III,  S. Grimme,  S. Hammes-Schiffer,  
 T. Head-Gordon,  W. J. Hehre,  Chao-Ping Hsu,  T.-C. Jagau,  Yousung Jung,  
 A. Klamt,  Jing Kong,  D. S. Lambrecht,  WanZhen Liang,  N. J. Mayhall,  
 C. W. McCurdy,  J. B. Neaton,  C. Ochsenfeld,  J. A. Parkhill,  R. Peverati,  
 V. A. Rassolov,  Yihan Shao,  L. V. Slipchenko,  T. Stauch,  R. P. Steele,  
 J. E. Subotnik,  A. J. W. Thom,  A. Tkatchenko,  D. G. Truhlar,  
 T. Van Voorhis,  T. A. Wesolowski,  K. B. Whaley,  H. L. Woodcock III,  
 P. M. Zimmerman,  S. Faraji,  P. M. W. Gill,  M. Head-Gordon,  
 J. M. Herbert,  A. I. Krylov

 Contributors to earlier versions of Q-Chem not listed above: 
 R. D. Adamson,  B. Austin,  R. Baer,  J. Baker,  G. J. O. Beran,  
 K. Brandhorst,  S. T. Brown,  E. F. C. Byrd,  A. K. Chakraborty,  
 G. K. L. Chan,  Chun-Min Chang,  Yunqing Chen,  C.-L. Cheng,  
 Siu Hung Chien,  D. M. Chipman,  D. L. Crittenden,  H. Dachsel,  
 R. J. Doerksen,  A. D. Dutoi,  R. G. Edgar,  J. Fosso-Tande,  
 L. Fusti-Molnar,  D. Ghosh,  A. Ghysels,  A. Golubeva-Zadorozhnaya,  
 J. Gonthier,  M. S. Gordon,  S. R. Gwaltney,  G. Hawkins,  J. E. Herr,  
 A. Heyden,  S. Hirata,  E. G. Hohenstein,  G. Kedziora,  F. J. Keil,  
 C. Kelley,  Jihan Kim,  R. A. King,  R. Z. Khaliullin,  P. P. Korambath,  
 W. Kurlancheek,  A. Laurent,  A. M. Lee,  M. S. Lee,  S. V. Levchenko,  
 Ching Yeh Lin,  D. Liotard,  E. Livshits,  R. C. Lochan,  I. Lotan,  
 L. A. Martinez-Martinez,  P. E. Maslen,  N. Nair,  D. P. O'Neill,  
 D. Neuhauser,  E. Neuscamman,  C. M. Oana,  R. Olivares-Amaya,  R. Olson,  
 T. M. Perrine,  B. Peters,  P. A. Pieniazek,  A. Prociuk,  Y. M. Rhee,  
 J. Ritchie,  M. A. Rohrdanz,  E. Rosta,  N. J. Russ,  H. F. Schaefer III,  
 M. W. Schmidt,  N. E. Schultz,  S. Sharma,  N. Shenvi,  C. D. Sherrill,  
 A. C. Simmonett,  A. Sodt,  T. Stein,  D. Stuck,  K. S. Thanthiriwatte,  
 V. Vanovschi,  L. Vogt,  Tao Wang,  A. Warshel,  M. A. Watson,  
 C. F. Williams,  Q. Wu,  X. Xu,  Jun Yang,  W. Zhang,  Yan Zhao

 Please cite Q-Chem as follows:
 Y. Shao et al., Mol. Phys. 113, 184-215 (2015)
 DOI: 10.1080/00268976.2014.952696

 Q-Chem 5.4.0 for Intel X86 EM64T Linux

 Parts of Q-Chem use Armadillo 9.800.1 (Horizon Scraper).
 http://arma.sourceforge.net/

 Q-Chem begins on Wed Dec 27 10:06:16 2023  

 Host: 
0

     Scratch files written to ./qchem2759011//
 May1621 |scratch|qcdevops|jenkins|workspace|build_RNUM    
 Parallel job on  1  processors
 Processing $rem in /cm/shared/apps/spack/cpu/opt/spack/linux-centos8-zen2/gcc-10.2.0/qchem-5.4-akfmr7b3t57bfs6qan3padb2wnb2i7cl/config/preferences:
 Processing $rem in /home/rramji/.qchemrc:
 Symmetry turned off for PCM/SM12/SMD calculation
 Core orbitals will be frozen

 Checking the input file for inconsistencies... 	...done.

 Q-Chem warning in module forms1/BasisType.C, line 2236:

 You are not using the predefined 5D/6D in this basis set.


--------------------------------------------------------------
User input:
--------------------------------------------------------------
$molecule
0 1
C	0.000161	-0.399361	-0.208858
S	-0.000039	0.393839	1.371642
C	-0.000039	2.031539	0.696042
C	-0.000039	0.598639	-1.194258
C	-0.000139	1.918839	-0.702358
H	0.000061	0.362939	-2.268758
H	-0.000139	2.799839	-1.361458
C	0.000161	-1.877561	-0.208858
H	-0.186839	-1.878161	-1.272558
H	0.971761	-2.316861	-0.380158
H	-0.800439	-2.588561	-0.067558
H	-0.000139	2.912239	1.347142
$end

$rem
JOBTYPE		SP
EXCHANGE	HF
CORRELATION	pRIMP2
BASIS		cc-pvtz
METHOD		rimp2
AUX_BASIS	rimp2-cc-pvtz
SOLVENT_METHOD	PCM
PURECART	11111
SYMMETRY	false
MEM_TOTAL	110000
SCF_CONVERGENCE = 6
THRESH=10
GUI = 2
$end



$solvent
dielectric 4.90
$end
--------------------------------------------------------------
 ----------------------------------------------------------------
             Standard Nuclear Orientation (Angstroms)
    I     Atom           X                Y                Z
 ----------------------------------------------------------------
    1      C       0.0001610000    -0.3993610000    -0.2088580000
    2      S      -0.0000390000     0.3938390000     1.3716420000
    3      C      -0.0000390000     2.0315390000     0.6960420000
    4      C      -0.0000390000     0.5986390000    -1.1942580000
    5      C      -0.0001390000     1.9188390000    -0.7023580000
    6      H       0.0000610000     0.3629390000    -2.2687580000
    7      H      -0.0001390000     2.7998390000    -1.3614580000
    8      C       0.0001610000    -1.8775610000    -0.2088580000
    9      H      -0.1868390000    -1.8781610000    -1.2725580000
   10      H       0.9717610000    -2.3168610000    -0.3801580000
   11      H      -0.8004390000    -2.5885610000    -0.0675580000
   12      H      -0.0001390000     2.9122390000     1.3471420000
 ----------------------------------------------------------------
 Nuclear Repulsion Energy =         269.85375159 hartrees
 There are       26 alpha and       26 beta electrons
 Requested basis set is cc-pVTZ
 There are 98 shells and 268 basis functions

 Total QAlloc Memory Limit 110000 MB
 Mega-Array Size       188 MB
 MEM_STATIC part       192 MB
 Discretize the solute cavity surface with Lebedev spheres
	Using 110 Lebedev grid points for each H atom
	Using 194 Lebedev grid points for other atoms
	Atomic van der Waals radii will be scaled by 1.20
 Remove points where switching function is < 1.0e-08
 Keep 889 surface tesserae and discard 935 interior tesserae
 Molecular Surface Area = 138.223 Angst**2

                       Distance Matrix (Angstroms)
             C (  1)   S (  2)   C (  3)   C (  4)   C (  5)   H (  6)
   S (  2)  1.768374
   C (  3)  2.593862  1.771580
   C (  4)  1.402504  2.574060  2.372011
   C (  5)  2.370146  2.574316  1.402934  1.408863
   H (  6)  2.196426  3.640531  3.402097  1.100048  2.207812
   H (  7)  3.400495  3.641246  2.196268  2.207541  1.100261  2.600322
   C (  8)  1.478200  2.767172  4.012469  2.665067  3.828341  3.043522
   H (  9)  1.831195  3.491228  4.381328  2.485068  3.844112  2.459649
   H ( 10)  2.156422  3.370622  4.583796  3.179197  4.357701  3.419406
   H ( 11)  2.335278  3.406853  4.750689  3.473951  4.621699  3.767948
   H ( 12)  3.658938  2.518519  1.095246  3.436780  2.277563  4.424213
             H (  7)   C (  8)   H (  9)   H ( 10)   H ( 11)
   C (  8)  4.817319
   H (  9)  4.682568  1.080013
   H ( 10)  5.299826  1.079970  1.526823
   H ( 11)  5.599063  1.080022  1.527481  1.819954
   H ( 12)  2.710931  5.036201  5.463114  5.592105  5.735909
 
 Requested basis set is rimp2-cc-pVTZ
 There are 207 shells and 707 basis functions
 A cutoff of  1.0D-10 yielded   4374 shell pairs
 There are     32782 function pairs (     42378 Cartesian)
 Smallest overlap matrix eigenvalue = 1.19E-04

 Scale SEOQF with 1.000000e+00/1.000000e-01/1.000000e-01

 Standard Electronic Orientation quadrupole field applied
 Nucleus-field energy     =     0.0000000022 hartrees
 Guess from superposition of atomic densities
 Warning:  Energy on first SCF cycle will be non-variational
 SAD guess density has 52.000000 electrons

 -----------------------------------------------------------------------
  General SCF calculation program by
  Eric Jon Sundstrom, Paul Horn, Yuezhi Mao, Dmitri Zuev, Alec White,
  David Stuck, Shaama M.S., Shane Yost, Joonho Lee, David Small,
  Daniel Levine, Susi Lehtola, Hugh Burton, Evgeny Epifanovsky,
  Bang C. Huynh
 -----------------------------------------------------------------------
 Hartree-Fock
 using 64 threads for integral computing
 -------------------------------------------------------
 OpenMP Integral computing Module                
 Release: version 1.0, May 2013, Q-Chem Inc. Pittsburgh 
 -------------------------------------------------------
 A restricted SCF calculation will be
 performed using DIIS
 SCF converges when DIIS error is below 1.0e-06
 ---------------------------------------
  Cycle       Energy         DIIS error
 ---------------------------------------
    1    -592.5708789203      3.22e-02  
    2    -590.3051669638      2.15e-03  
    3    -590.3650639232      7.70e-04  
    4    -590.3716040328      3.77e-04  
    5    -590.3733752940      6.96e-05  
    6    -590.3734956099      3.00e-05  
    7    -590.3735252313      1.46e-05  
    8    -590.3735348563      5.59e-06  
    9    -590.3735363895      1.97e-06  
   10    -590.3735365163      5.75e-07  Convergence criterion met
 ---------------------------------------
 SCF time:   CPU 487.30s  wall 8.00s 

************** Final PCM Free Energy Summary **************
 G_electrostatic  =      -0.00576677 hartree =      -3.61870070 kcal/mol
 G_cavitation     =       0.00000000 hartree =       0.00000000 kcal/mol
 G_dispersion     =       0.00000000 hartree =       0.00000000 kcal/mol
 G_repulsion      =       0.00000000 hartree =       0.00000000 kcal/mol
 --------------------------------------------------
 Non-electrostatic Free Energy =       0.00000000 hartree =       0.00000000 kcal/mol
 Total                         =      -0.00576677 hartree =      -3.61870070 kcal/mol
 --------------------------------------------------
 SCF Energy (H0 + V/2)                       =    -590.37353652 
 Solute Internal Energy (H0)                 =    -590.36776975 
 Total Free Energy (H0 + V/2 + non-elec)     =    -590.37353652 hartree
                                             = -370464.98559174 kcal/mol
***********************************************************

 SCF   energy in the final basis set =     -590.3735365163
 Total energy in the final basis set =     -590.3735365163


 --------------------------------------------------------------
  Generalized many-body perturbation theory program
  by Joonho Lee, Fazle Rob, Xintian Feng, Evgeny Epifanovsky

 No regularization used 
 (reg. param. = 0.0000e+00)
  (P|Q)^-1/2 Time:  CPU 5.50 s  wall 0.09 s

 In RI-MP2 calculation: 
 # of frozen core orbitals: 10

 Components of the RIMP2 correlation energy:
        aaaa    correlation energy =        -0.1254509393 a.u.
        abab    correlation energy =        -0.7512117819 a.u.
        bbbb    correlation energy =        -0.1254509393 a.u.
        non-Brillouin singles      =        -0.0000000000 a.u.
        total same-spin energy     =        -0.2509018785 a.u.
        total opposite-spin energy =        -0.7512117819 a.u.

 Total  RIMP2   correlation energy =        -1.0021136604 a.u.
        RIMP2         total energy =      -591.3756501767 a.u.

 RI-MP2 Energy Time:  CPU 23.95 s  wall 0.41 s
 
 --------------------------------------------------------------
 
                    Orbital Energies (a.u.)
 --------------------------------------------------------------
 
 Alpha MOs
 -- Occupied --
-91.9748 -11.2857 -11.2684 -11.2430 -11.2410 -11.2237  -8.9749  -6.6558
 -6.6552  -6.6548  -1.1569  -1.0381  -0.9728  -0.9194  -0.7543  -0.7243
 -0.6726  -0.5975  -0.5705  -0.5604  -0.5396  -0.4997  -0.4675  -0.4370
 -0.3450  -0.3123
 -- Virtual --
  0.1055   0.1479   0.1601   0.1770   0.1928   0.1958   0.2083   0.2304
  0.2382   0.2529   0.3102   0.3385   0.3651   0.3756   0.3908   0.3955
  0.4165   0.4519   0.4555   0.4670   0.4964   0.5144   0.5323   0.5371
  0.5401   0.5660   0.5678   0.5770   0.5991   0.6106   0.6158   0.6236
  0.6355   0.6540   0.6633   0.6693   0.6861   0.7153   0.7193   0.7493
  0.7851   0.7941   0.8240   0.8673   0.8700   0.8855   0.9121   0.9247
  0.9684   0.9813   0.9922   1.0181   1.0635   1.0742   1.1002   1.1122
  1.1536   1.1656   1.1714   1.1946   1.2155   1.2201   1.2372   1.2653
  1.2930   1.3225   1.3260   1.3401   1.3796   1.4066   1.4228   1.4516
  1.4773   1.4904   1.5080   1.5356   1.5426   1.5500   1.5635   1.5738
  1.6011   1.6253   1.6575   1.6826   1.7102   1.7318   1.7730   1.8110
  1.8173   1.8862   1.9005   1.9249   1.9330   1.9826   2.0566   2.0870
  2.1495   2.1740   2.1885   2.2193   2.2488   2.2921   2.3302   2.4178
  2.4248   2.4670   2.5041   2.5111   2.5770   2.5957   2.6235   2.6601
  2.6704   2.7114   2.7187   2.7305   2.7428   2.7800   2.8124   2.8489
  2.8665   2.8955   2.9209   2.9331   2.9737   3.0172   3.0210   3.0556
  3.0718   3.0911   3.1196   3.1583   3.1685   3.2160   3.2194   3.2441
  3.2488   3.2746   3.3029   3.3047   3.3313   3.3422   3.3603   3.3804
  3.3895   3.4019   3.4384   3.4474   3.4528   3.4704   3.4829   3.4908
  3.5108   3.5157   3.5462   3.5919   3.6037   3.6262   3.6468   3.6666
  3.6796   3.6891   3.7148   3.7344   3.7436   3.7756   3.8004   3.8291
  3.8595   3.8715   3.9007   3.9335   3.9382   3.9541   3.9588   3.9706
  3.9788   4.0460   4.0508   4.0810   4.1188   4.1548   4.1758   4.1877
  4.2118   4.2281   4.2509   4.2852   4.3006   4.3651   4.3784   4.4118
  4.4193   4.4450   4.4673   4.5079   4.5558   4.5840   4.6297   4.6646
  4.6780   4.6912   4.7158   4.7847   4.7941   4.8223   4.8443   4.8820
  4.9662   4.9781   5.0161   5.0507   5.0735   5.1223   5.1816   5.2174
  5.2245   5.2881   5.3657   5.4078   5.4194   5.4910   5.5341   5.5940
  5.6397   5.7291   5.8059   5.8308   5.8837   5.9322   6.0116   6.0652
  6.1076   6.2934   6.4263   6.4702   6.6682   9.4217  11.2743  12.7897
 13.9969  14.2670
 --------------------------------------------------------------
 
          Ground-State Mulliken Net Atomic Charges

     Atom                 Charge (a.u.)
  ----------------------------------------
      1 C                     0.035002
      2 S                    -0.008107
      3 C                    -0.229560
      4 C                    -0.221569
      5 C                    -0.201517
      6 H                     0.183278
      7 H                     0.186720
      8 C                    -0.355224
      9 H                     0.118808
     10 H                     0.128906
     11 H                     0.159088
     12 H                     0.204176
  ----------------------------------------
  Sum of atomic charges =     0.000000

 -----------------------------------------------------------------
                    Cartesian Multipole Moments
 -----------------------------------------------------------------
    Charge (ESU x 10^10)
                -0.0000
    Dipole Moment (Debye)
         X      -0.1019      Y      -0.3523      Z      -1.7827
       Tot       1.8201
    Quadrupole Moments (Debye-Ang)
        XX     -47.4765     XY       0.4626     YY     -35.9822
        XZ      -0.1152     YZ       2.0688     ZZ     -42.1195
    Octopole Moments (Debye-Ang^2)
       XXX       0.2179    XXY     -23.3164    XYY      -1.7162
       YYY     -40.6798    XXZ      -7.1529    XYZ       0.3085
       YYZ      -5.8229    XZZ       0.0188    YZZ      -9.5782
       ZZZ     -27.6155
    Hexadecapole Moments (Debye-Ang^3)
      XXXX     -65.2698   XXXY      -0.4821   XXYY    -111.0394
      XYYY       5.5849   YYYY    -499.6927   XXXZ      -0.2946
      XXYZ      -7.1092   XYYZ      -0.7491   YYYZ      -7.5932
      XXZZ     -70.1615   XYZZ      -0.1869   YYZZ    -128.9034
      XZZZ       0.3706   YZZZ     -20.0798   ZZZZ    -308.8983
 -----------------------------------------------------------------
 Total job time:  10.82s(wall), 543.83s(cpu) 
 Wed Dec 27 10:06:27 2023

        *************************************************************
        *                                                           *
        *  Thank you very much for using Q-Chem.  Have a nice day.  *
        *                                                           *
        *************************************************************


0 sent ACK to 0 
now end server 0 ... 
cleanup process ... done
remove work dirs ./qchem2759011.0 -- ./qchem2759011.0
rm -rf ./qchem2759011.0
rm -rf ./qchem2759011
