You are running Q-Chem version: 5.4.0

#
# job setting
#
local host:  exp-3-56
current dir: /home/rramji/project-csd799/aromodel/pndit-qchem/methylated-rotation-run
input file:  Dimethyl_Naphthalene_Dicarboximide_Phi_0_Theta_110_Thiophene_Hydrogenated_Improper.qcin
output file: 
nprocs     : 1
nthreads   : 64
#
# qchem installation setting
#
QC:          /cm/shared/apps/spack/cpu/opt/spack/linux-centos8-zen2/gcc-10.2.0/qchem-5.4-akfmr7b3t57bfs6qan3padb2wnb2i7cl
QCAUX:       /cm/shared/apps/spack/cpu/opt/spack/linux-centos8-zen2/gcc-10.2.0/qchem-5.4-akfmr7b3t57bfs6qan3padb2wnb2i7cl/qcaux
QCPROG:      /cm/shared/apps/spack/cpu/opt/spack/linux-centos8-zen2/gcc-10.2.0/qchem-5.4-akfmr7b3t57bfs6qan3padb2wnb2i7cl/exe/qcprog.exe
QCPROG_S:    /cm/shared/apps/spack/cpu/opt/spack/linux-centos8-zen2/gcc-10.2.0/qchem-5.4-akfmr7b3t57bfs6qan3padb2wnb2i7cl/exe/qcprog.exe_s
PARALLEL:    -DPARALLEL
QCMPI:       mpich
#
# qchem directory setting
#
qcrun:       qchem2756362
QCSCRATCH:   .
QCLOCALSCR:  
QCTMPDIR:    .
QCFILEPREF:  ./qchem2756362
QCSAVEDIR:   
workdirs:    ./qchem2756362
workdir0:    ./qchem2756362
partmpdirs =  
#
# parallel setting
#
QCRSH:           ssh
QCMPI:           mpich
QCMPIRUN:        /cm/shared/apps/spack/cpu/opt/spack/linux-centos8-zen2/gcc-10.2.0/qchem-5.4-akfmr7b3t57bfs6qan3padb2wnb2i7cl/bin/mpi/mpirun_qchem
QCMACHINEFILE:   ./qchem2756362/hostfile
exp-3-56

#
# env setting
#
exported envs:   QC QCAUX QCSCRATCH QCRUNNAME QCFILEPREF QCPROG QCPROG_S GUIFILE

Running Job 1 of 1 Dimethyl_Naphthalene_Dicarboximide_Phi_0_Theta_110_Thiophene_Hydrogenated_Improper.qcin
qchem Dimethyl_Naphthalene_Dicarboximide_Phi_0_Theta_110_Thiophene_Hydrogenated_Improper.qcin_2756362.0 ./qchem2756362/ 1
/cm/shared/apps/spack/cpu/opt/spack/linux-centos8-zen2/gcc-10.2.0/qchem-5.4-akfmr7b3t57bfs6qan3padb2wnb2i7cl/bin/mpi/mpirun_qchem -machinefile ./qchem2756362/hostfile -np 1 /cm/shared/apps/spack/cpu/opt/spack/linux-centos8-zen2/gcc-10.2.0/qchem-5.4-akfmr7b3t57bfs6qan3padb2wnb2i7cl/exe/qcprog.exe Dimethyl_Naphthalene_Dicarboximide_Phi_0_Theta_110_Thiophene_Hydrogenated_Improper.qcin_2756362.0 ./qchem2756362/

Process 0 of 1 is on exp-3-56 - thread support 0
initial socket setup ...start
initial socket setup ...done 
now start server 0 ... 
                  Welcome to Q-Chem
     A Quantum Leap Into The Future Of Chemistry


 Q-Chem 5.4, Q-Chem, Inc., Pleasanton, CA (2021)

 License issued to: University of California, San Diego (site)

 E. Epifanovsky,  A. T. B. Gilbert,  Xintian Feng,  Joonho Lee,  Yuezhi Mao,  
 N. Mardirossian,  P. Pokhilko,  A. White,  M. Wormit,  M. P. Coons,  
 A. L. Dempwolff,  Zhengting Gan,  D. Hait,  P. R. Horn,  L. D. Jacobson,  
 I. Kaliman,  J. Kussmann,  A. W. Lange,  Ka Un Lao,  D. S. Levine,  Jie Liu,  
 S. C. McKenzie,  A. F. Morrison,  K. Nanda,  F. Plasser,  D. R. Rehn,  
 M. L. Vidal,  Zhi-Qiang You,  Ying Zhu,  B. Alam,  B. Albrecht,  
 A. Aldossary,  E. Alguire,  J. H. Andersen,  D. Barton,  K. Begam,  A. Behn,  
 Y. A. Bernard,  E. J. Berquist,  H. Burton,  A. Carreras,  K. Carter-Fenk,  
 R. Chakraborty,  A. D. Chien,  K. D. Closser,  V. Cofer-Shabica,  
 S. Dasgupta,  Jia Deng,  M. de Wergifosse,  M. Diedenhofen,  Hainam Do,  
 S. Ehlert,  Po-Tung Fang,  S. Fatehi,  Qingguo Feng,  J. Gayvert,  
 Qinghui Ge,  G. Gidofalvi,  M. Goldey,  J. Gomes,  C. Gonzalez-Espinoza,  
 S. Gulania,  A. Gunina,  M. W. D. Hanson-Heine,  P. H. P. Harbach,  
 A. W. Hauser,  M. F. Herbst,  M. Hernandez Vera,  M. Hodecker,  
 Z. C. Holden,  S. Houck,  Xunkun Huang,  Kerwin Hui,  B. C. Huynh,  
 M. Ivanov,  Hyunjun Ji,  Hanjie Jiang,  B. Kaduk,  S. Kaehler,  
 K. Khistyaev,  Jaehoon Kim,  P. Klunzinger,  Z. Koczor-Benda,  
 Joong Hoon Koh,  D. Kosenkov,  L. Koulias,  T. Kowalczyk,  C. M. Krauter,  
 K. Kue,  A. Kunitsa,  T. Kus,  A. Landau,  K. V. Lawler,  D. Lefrancois,  
 S. Lehtola,  Rain Li,  Yi-Pei Li,  Jiashu Liang,  M. Liebenthal,  
 Hung-Hsuan Lin,  You-Sheng Lin,  Fenglai Liu,  Kuan-Yu Liu,  
 M. Loipersberger,  A. Luenser,  A. Manjanath,  P. Manohar,  E. Mansoor,  
 S. F. Manzer,  Shan-Ping Mao,  A. V. Marenich,  T. Markovich,  S. Mason,  
 S. A. Maurer,  P. F. McLaughlin,  M. F. S. J. Menger,  J.-M. Mewes,  
 S. A. Mewes,  P. Morgante,  J. W. Mullinax,  T. S. Nguyen-Beck,  
 K. J. Oosterbaan,  G. Paran,  Alexander C. Paul,  Suranjan K. Paul,  
 F. Pavosevic,  Zheng Pei,  S. Prager,  E. I. Proynov,  E. Ramos,  B. Rana,  
 A. E. Rask,  A. Rettig,  R. M. Richard,  F. Rob,  E. Rossomme,  T. Scheele,  
 M. Scheurer,  M. Schneider,  N. Sergueev,  S. M. Sharada,  W. Skomorowski,  
 D. W. Small,  C. J. Stein,  Yu-Chuan Su,  E. J. Sundstrom,  Zhen Tao,  
 J. Thirman,  T. Tsuchimochi,  N. M. Tubman,  S. P. Veccham,  O. Vydrov,  
 J. Wenzel,  J. Witte,  A. Yamada,  Kun Yao,  S. Yeganeh,  S. R. Yost,  
 A. Zech,  Igor Ying Zhang,  Xing Zhang,  Yu Zhang,  D. Zuev,  
 A. Aspuru-Guzik,  A. T. Bell,  N. A. Besley,  K. B. Bravaya,  B. R. Brooks,  
 D. Casanova,  Jeng-Da Chai,  S. Coriani,  C. J. Cramer,  
 A. E. DePrince, III,  R. A. DiStasio Jr.,  A. Dreuw,  B. D. Dunietz,  
 T. R. Furlani,  W. A. Goddard III,  S. Grimme,  S. Hammes-Schiffer,  
 T. Head-Gordon,  W. J. Hehre,  Chao-Ping Hsu,  T.-C. Jagau,  Yousung Jung,  
 A. Klamt,  Jing Kong,  D. S. Lambrecht,  WanZhen Liang,  N. J. Mayhall,  
 C. W. McCurdy,  J. B. Neaton,  C. Ochsenfeld,  J. A. Parkhill,  R. Peverati,  
 V. A. Rassolov,  Yihan Shao,  L. V. Slipchenko,  T. Stauch,  R. P. Steele,  
 J. E. Subotnik,  A. J. W. Thom,  A. Tkatchenko,  D. G. Truhlar,  
 T. Van Voorhis,  T. A. Wesolowski,  K. B. Whaley,  H. L. Woodcock III,  
 P. M. Zimmerman,  S. Faraji,  P. M. W. Gill,  M. Head-Gordon,  
 J. M. Herbert,  A. I. Krylov

 Contributors to earlier versions of Q-Chem not listed above: 
 R. D. Adamson,  B. Austin,  R. Baer,  J. Baker,  G. J. O. Beran,  
 K. Brandhorst,  S. T. Brown,  E. F. C. Byrd,  A. K. Chakraborty,  
 G. K. L. Chan,  Chun-Min Chang,  Yunqing Chen,  C.-L. Cheng,  
 Siu Hung Chien,  D. M. Chipman,  D. L. Crittenden,  H. Dachsel,  
 R. J. Doerksen,  A. D. Dutoi,  R. G. Edgar,  J. Fosso-Tande,  
 L. Fusti-Molnar,  D. Ghosh,  A. Ghysels,  A. Golubeva-Zadorozhnaya,  
 J. Gonthier,  M. S. Gordon,  S. R. Gwaltney,  G. Hawkins,  J. E. Herr,  
 A. Heyden,  S. Hirata,  E. G. Hohenstein,  G. Kedziora,  F. J. Keil,  
 C. Kelley,  Jihan Kim,  R. A. King,  R. Z. Khaliullin,  P. P. Korambath,  
 W. Kurlancheek,  A. Laurent,  A. M. Lee,  M. S. Lee,  S. V. Levchenko,  
 Ching Yeh Lin,  D. Liotard,  E. Livshits,  R. C. Lochan,  I. Lotan,  
 L. A. Martinez-Martinez,  P. E. Maslen,  N. Nair,  D. P. O'Neill,  
 D. Neuhauser,  E. Neuscamman,  C. M. Oana,  R. Olivares-Amaya,  R. Olson,  
 T. M. Perrine,  B. Peters,  P. A. Pieniazek,  A. Prociuk,  Y. M. Rhee,  
 J. Ritchie,  M. A. Rohrdanz,  E. Rosta,  N. J. Russ,  H. F. Schaefer III,  
 M. W. Schmidt,  N. E. Schultz,  S. Sharma,  N. Shenvi,  C. D. Sherrill,  
 A. C. Simmonett,  A. Sodt,  T. Stein,  D. Stuck,  K. S. Thanthiriwatte,  
 V. Vanovschi,  L. Vogt,  Tao Wang,  A. Warshel,  M. A. Watson,  
 C. F. Williams,  Q. Wu,  X. Xu,  Jun Yang,  W. Zhang,  Yan Zhao

 Please cite Q-Chem as follows:
 Y. Shao et al., Mol. Phys. 113, 184-215 (2015)
 DOI: 10.1080/00268976.2014.952696

 Q-Chem 5.4.0 for Intel X86 EM64T Linux

 Parts of Q-Chem use Armadillo 9.800.1 (Horizon Scraper).
 http://arma.sourceforge.net/

 Q-Chem begins on Wed Dec 27 10:02:37 2023  

 Host: 
0

     Scratch files written to ./qchem2756362//
 May1621 |scratch|qcdevops|jenkins|workspace|build_RNUM    
 Parallel job on  1  processors
 Processing $rem in /cm/shared/apps/spack/cpu/opt/spack/linux-centos8-zen2/gcc-10.2.0/qchem-5.4-akfmr7b3t57bfs6qan3padb2wnb2i7cl/config/preferences:
 Processing $rem in /home/rramji/.qchemrc:
 Symmetry turned off for PCM/SM12/SMD calculation
 Core orbitals will be frozen

 Checking the input file for inconsistencies... 	...done.

 Q-Chem warning in module forms1/BasisType.C, line 2236:

 You are not using the predefined 5D/6D in this basis set.


--------------------------------------------------------------
User input:
--------------------------------------------------------------
$molecule
0 1
C	0.002816	-0.399361	-0.219377
S	0.002616	0.393839	1.361123
C	0.002616	2.031539	0.685523
C	0.002616	0.598639	-1.204777
C	0.002516	1.918839	-0.712877
H	0.002716	0.362939	-2.279277
H	0.002516	2.799839	-1.371977
C	0.002816	-1.877561	-0.219377
H	-0.367084	-1.878161	0.795323
H	-0.924284	-2.316861	-0.556877
H	0.766816	-2.588561	0.058523
H	0.002516	2.912239	1.336623
$end

$rem
JOBTYPE		SP
EXCHANGE	HF
CORRELATION	pRIMP2
BASIS		cc-pvtz
METHOD		rimp2
AUX_BASIS	rimp2-cc-pvtz
SOLVENT_METHOD	PCM
PURECART	11111
SYMMETRY	false
MEM_TOTAL	110000
SCF_CONVERGENCE = 6
THRESH=10
GUI = 2
$end



$solvent
dielectric 4.90
$end
--------------------------------------------------------------
 ----------------------------------------------------------------
             Standard Nuclear Orientation (Angstroms)
    I     Atom           X                Y                Z
 ----------------------------------------------------------------
    1      C       0.0028160000    -0.3993610000    -0.2193770000
    2      S       0.0026160000     0.3938390000     1.3611230000
    3      C       0.0026160000     2.0315390000     0.6855230000
    4      C       0.0026160000     0.5986390000    -1.2047770000
    5      C       0.0025160000     1.9188390000    -0.7128770000
    6      H       0.0027160000     0.3629390000    -2.2792770000
    7      H       0.0025160000     2.7998390000    -1.3719770000
    8      C       0.0028160000    -1.8775610000    -0.2193770000
    9      H      -0.3670840000    -1.8781610000     0.7953230000
   10      H      -0.9242840000    -2.3168610000    -0.5568770000
   11      H       0.7668160000    -2.5885610000     0.0585230000
   12      H       0.0025160000     2.9122390000     1.3366230000
 ----------------------------------------------------------------
 Nuclear Repulsion Energy =         270.66999927 hartrees
 There are       26 alpha and       26 beta electrons
 Requested basis set is cc-pVTZ
 There are 98 shells and 268 basis functions

 Total QAlloc Memory Limit 110000 MB
 Mega-Array Size       188 MB
 MEM_STATIC part       192 MB
 Discretize the solute cavity surface with Lebedev spheres
	Using 110 Lebedev grid points for each H atom
	Using 194 Lebedev grid points for other atoms
	Atomic van der Waals radii will be scaled by 1.20
 Remove points where switching function is < 1.0e-08
 Keep 889 surface tesserae and discard 935 interior tesserae
 Molecular Surface Area = 137.822 Angst**2

                       Distance Matrix (Angstroms)
             C (  1)   S (  2)   C (  3)   C (  4)   C (  5)   H (  6)
   S (  2)  1.768374
   C (  3)  2.593862  1.771580
   C (  4)  1.402504  2.574060  2.372011
   C (  5)  2.370146  2.574316  1.402934  1.408863
   H (  6)  2.196426  3.640531  3.402097  1.100048  2.207812
   H (  7)  3.400495  3.641246  2.196268  2.207541  1.100261  2.600322
   C (  8)  1.478200  2.767172  4.012469  2.665067  3.828341  3.043522
   H (  9)  1.831199  2.370399  3.928675  3.204936  4.102253  3.822623
   H ( 10)  2.156438  3.447573  4.616415  3.127149  4.338715  3.317728
   H ( 11)  2.335278  3.342974  4.724665  3.512573  4.636364  3.841941
   H ( 12)  3.658938  2.518519  1.095246  3.436780  2.277563  4.424213
             H (  7)   C (  8)   H (  9)   H ( 10)   H ( 11)
   C (  8)  4.817319
   H (  9)  5.168895  1.080020
   H ( 10)  5.263456  1.080002  1.526884
   H ( 11)  5.627196  1.080021  1.527505  1.819988
   H ( 12)  2.710931  5.036201  4.835033  5.638066  5.698815
 
 Requested basis set is rimp2-cc-pVTZ
 There are 207 shells and 707 basis functions
 A cutoff of  1.0D-10 yielded   4369 shell pairs
 There are     32707 function pairs (     42266 Cartesian)
 Smallest overlap matrix eigenvalue = 1.17E-04

 Scale SEOQF with 1.000000e+00/1.000000e-01/1.000000e-01

 Standard Electronic Orientation quadrupole field applied
 Nucleus-field energy     =     0.0000000023 hartrees
 Guess from superposition of atomic densities
 Warning:  Energy on first SCF cycle will be non-variational
 SAD guess density has 52.000000 electrons

 -----------------------------------------------------------------------
  General SCF calculation program by
  Eric Jon Sundstrom, Paul Horn, Yuezhi Mao, Dmitri Zuev, Alec White,
  David Stuck, Shaama M.S., Shane Yost, Joonho Lee, David Small,
  Daniel Levine, Susi Lehtola, Hugh Burton, Evgeny Epifanovsky,
  Bang C. Huynh
 -----------------------------------------------------------------------
 Hartree-Fock
 using 64 threads for integral computing
 -------------------------------------------------------
 OpenMP Integral computing Module                
 Release: version 1.0, May 2013, Q-Chem Inc. Pittsburgh 
 -------------------------------------------------------
 A restricted SCF calculation will be
 performed using DIIS
 SCF converges when DIIS error is below 1.0e-06
 ---------------------------------------
  Cycle       Energy         DIIS error
 ---------------------------------------
    1    -592.5889927506      3.22e-02  
    2    -590.3007883399      2.18e-03  
    3    -590.3618167927      8.16e-04  
    4    -590.3689052844      3.87e-04  
    5    -590.3708373551      7.15e-05  
    6    -590.3709648972      3.13e-05  
    7    -590.3709964412      1.46e-05  
    8    -590.3710059909      5.78e-06  
    9    -590.3710074728      2.02e-06  
   10    -590.3710076183      5.90e-07  Convergence criterion met
 ---------------------------------------
 SCF time:   CPU 476.59s  wall 9.00s 

************** Final PCM Free Energy Summary **************
 G_electrostatic  =      -0.00534910 hartree =      -3.35661235 kcal/mol
 G_cavitation     =       0.00000000 hartree =       0.00000000 kcal/mol
 G_dispersion     =       0.00000000 hartree =       0.00000000 kcal/mol
 G_repulsion      =       0.00000000 hartree =       0.00000000 kcal/mol
 --------------------------------------------------
 Non-electrostatic Free Energy =       0.00000000 hartree =       0.00000000 kcal/mol
 Total                         =      -0.00534910 hartree =      -3.35661235 kcal/mol
 --------------------------------------------------
 SCF Energy (H0 + V/2)                       =    -590.37100762 
 Solute Internal Energy (H0)                 =    -590.36565852 
 Total Free Energy (H0 + V/2 + non-elec)     =    -590.37100762 hartree
                                             = -370463.39868429 kcal/mol
***********************************************************

 SCF   energy in the final basis set =     -590.3710076183
 Total energy in the final basis set =     -590.3710076183


 --------------------------------------------------------------
  Generalized many-body perturbation theory program
  by Joonho Lee, Fazle Rob, Xintian Feng, Evgeny Epifanovsky

 No regularization used 
 (reg. param. = 0.0000e+00)
  (P|Q)^-1/2 Time:  CPU 5.25 s  wall 0.09 s

 In RI-MP2 calculation: 
 # of frozen core orbitals: 10

 Components of the RIMP2 correlation energy:
        aaaa    correlation energy =        -0.1253185543 a.u.
        abab    correlation energy =        -0.7511175221 a.u.
        bbbb    correlation energy =        -0.1253185543 a.u.
        non-Brillouin singles      =        -0.0000000000 a.u.
        total same-spin energy     =        -0.2506371086 a.u.
        total opposite-spin energy =        -0.7511175221 a.u.

 Total  RIMP2   correlation energy =        -1.0017546307 a.u.
        RIMP2         total energy =      -591.3727622490 a.u.

 RI-MP2 Energy Time:  CPU 23.54 s  wall 0.40 s
 
 --------------------------------------------------------------
 
                    Orbital Energies (a.u.)
 --------------------------------------------------------------
 
 Alpha MOs
 -- Occupied --
-91.9800 -11.2838 -11.2689 -11.2431 -11.2363 -11.2240  -8.9800  -6.6608
 -6.6603  -6.6597  -1.1579  -1.0399  -0.9731  -0.9186  -0.7585  -0.7204
 -0.6716  -0.5973  -0.5692  -0.5620  -0.5366  -0.4993  -0.4635  -0.4503
 -0.3465  -0.3108
 -- Virtual --
  0.1040   0.1455   0.1605   0.1762   0.1914   0.1968   0.2073   0.2302
  0.2368   0.2746   0.3027   0.3161   0.3643   0.3758   0.3890   0.3988
  0.4225   0.4498   0.4567   0.4691   0.4981   0.5127   0.5313   0.5369
  0.5535   0.5648   0.5726   0.5758   0.6043   0.6049   0.6163   0.6249
  0.6288   0.6499   0.6515   0.6569   0.6948   0.7152   0.7264   0.7545
  0.7827   0.8051   0.8216   0.8660   0.8724   0.8901   0.8979   0.9317
  0.9669   0.9833   0.9958   1.0060   1.0618   1.0729   1.1032   1.1200
  1.1209   1.1616   1.1714   1.2127   1.2231   1.2303   1.2398   1.2605
  1.2769   1.3113   1.3319   1.3560   1.3919   1.4115   1.4297   1.4386
  1.4799   1.4856   1.4958   1.5294   1.5545   1.5565   1.5740   1.5868
  1.6044   1.6257   1.6482   1.6747   1.7032   1.7385   1.7759   1.8194
  1.8331   1.8783   1.9142   1.9290   1.9516   1.9669   2.0549   2.0962
  2.1529   2.1757   2.2138   2.2198   2.2476   2.2919   2.3341   2.4210
  2.4254   2.4700   2.4991   2.5133   2.5644   2.5897   2.6099   2.6526
  2.6763   2.7220   2.7338   2.7396   2.7544   2.7865   2.7993   2.8396
  2.8736   2.8930   2.9222   2.9503   2.9983   3.0153   3.0275   3.0593
  3.0905   3.1171   3.1302   3.1438   3.1598   3.2052   3.2164   3.2424
  3.2470   3.2801   3.2999   3.3046   3.3221   3.3349   3.3509   3.3595
  3.3927   3.4191   3.4401   3.4529   3.4543   3.4676   3.4970   3.5018
  3.5093   3.5150   3.5488   3.5728   3.6057   3.6199   3.6238   3.6756
  3.6894   3.7052   3.7180   3.7409   3.7641   3.8010   3.8226   3.8357
  3.8500   3.8816   3.9076   3.9195   3.9362   3.9550   3.9665   3.9738
  4.0170   4.0365   4.0446   4.1114   4.1259   4.1398   4.1646   4.1906
  4.2096   4.2345   4.2591   4.2841   4.2959   4.3438   4.3955   4.4094
  4.4205   4.4492   4.4749   4.5009   4.5381   4.5438   4.6089   4.6255
  4.6869   4.6931   4.7051   4.7251   4.7862   4.8100   4.8519   4.9224
  4.9702   5.0156   5.0362   5.0463   5.1195   5.1324   5.1802   5.1942
  5.2577   5.2887   5.3521   5.4091   5.4298   5.4880   5.5341   5.5911
  5.6374   5.7148   5.7868   5.8218   5.8879   5.9506   6.0081   6.0651
  6.1080   6.3060   6.4387   6.4525   6.6759   9.4063  11.2675  12.7927
 14.0265  14.2314
 --------------------------------------------------------------
 
          Ground-State Mulliken Net Atomic Charges

     Atom                 Charge (a.u.)
  ----------------------------------------
      1 C                     0.024839
      2 S                    -0.003923
      3 C                    -0.235031
      4 C                    -0.216053
      5 C                    -0.191347
      6 H                     0.184996
      7 H                     0.185930
      8 C                    -0.347504
      9 H                     0.112333
     10 H                     0.129594
     11 H                     0.150258
     12 H                     0.205907
  ----------------------------------------
  Sum of atomic charges =     0.000000

 -----------------------------------------------------------------
                    Cartesian Multipole Moments
 -----------------------------------------------------------------
    Charge (ESU x 10^10)
                -0.0000
    Dipole Moment (Debye)
         X      -0.2364      Y      -0.2466      Z      -0.4752
       Tot       0.5852
    Quadrupole Moments (Debye-Ang)
        XX     -47.5527     XY       0.3108     YY     -36.0501
        XZ       0.3160     YZ      -0.4176     ZZ     -42.3533
    Octopole Moments (Debye-Ang^2)
       XXX       0.2175    XXY     -22.9759    XYY       0.2703
       YYY     -40.1256    XXZ      -7.6288    XYZ      -0.9274
       YYZ      -0.8002    XZZ       0.0408    YZZ      -8.5194
       ZZZ     -28.7397
    Hexadecapole Moments (Debye-Ang^3)
      XXXX     -65.4840   XXXY      -0.9086   XXYY    -111.9429
      XYYY      -3.5126   YYYY    -500.6748   XXXZ       0.1402
      XXYZ      -5.2408   XYYZ       2.3139   YYYZ     -12.9572
      XXZZ     -69.2065   XYZZ      -0.1364   YYZZ    -129.6586
      XZZZ      -0.8201   YZZZ     -13.4144   ZZZZ    -303.6713
 -----------------------------------------------------------------
 Total job time:  9.98s(wall), 539.99s(cpu) 
 Wed Dec 27 10:02:47 2023

        *************************************************************
        *                                                           *
        *  Thank you very much for using Q-Chem.  Have a nice day.  *
        *                                                           *
        *************************************************************


0 sent ACK to 0 
now end server 0 ... 
cleanup process ... done
remove work dirs ./qchem2756362.0 -- ./qchem2756362.0
rm -rf ./qchem2756362.0
rm -rf ./qchem2756362
