You are running Q-Chem version: 5.4.0

#
# job setting
#
local host:  exp-13-43
current dir: /home/rramji/project-csd799/aromodel/pndit-qchem/methylated-rotation-run
input file:  Dimethyl_Naphthalene_Dicarboximide_Phi_5_Theta_20_Thiophene_Hydrogenated_Improper.qcin
output file: 
nprocs     : 1
nthreads   : 64
#
# qchem installation setting
#
QC:          /cm/shared/apps/spack/cpu/opt/spack/linux-centos8-zen2/gcc-10.2.0/qchem-5.4-akfmr7b3t57bfs6qan3padb2wnb2i7cl
QCAUX:       /cm/shared/apps/spack/cpu/opt/spack/linux-centos8-zen2/gcc-10.2.0/qchem-5.4-akfmr7b3t57bfs6qan3padb2wnb2i7cl/qcaux
QCPROG:      /cm/shared/apps/spack/cpu/opt/spack/linux-centos8-zen2/gcc-10.2.0/qchem-5.4-akfmr7b3t57bfs6qan3padb2wnb2i7cl/exe/qcprog.exe
QCPROG_S:    /cm/shared/apps/spack/cpu/opt/spack/linux-centos8-zen2/gcc-10.2.0/qchem-5.4-akfmr7b3t57bfs6qan3padb2wnb2i7cl/exe/qcprog.exe_s
PARALLEL:    -DPARALLEL
QCMPI:       mpich
#
# qchem directory setting
#
qcrun:       qchem647503
QCSCRATCH:   .
QCLOCALSCR:  
QCTMPDIR:    .
QCFILEPREF:  ./qchem647503
QCSAVEDIR:   
workdirs:    ./qchem647503
workdir0:    ./qchem647503
partmpdirs =  
#
# parallel setting
#
QCRSH:           ssh
QCMPI:           mpich
QCMPIRUN:        /cm/shared/apps/spack/cpu/opt/spack/linux-centos8-zen2/gcc-10.2.0/qchem-5.4-akfmr7b3t57bfs6qan3padb2wnb2i7cl/bin/mpi/mpirun_qchem
QCMACHINEFILE:   ./qchem647503/hostfile
exp-13-43

#
# env setting
#
exported envs:   QC QCAUX QCSCRATCH QCRUNNAME QCFILEPREF QCPROG QCPROG_S GUIFILE

Running Job 1 of 1 Dimethyl_Naphthalene_Dicarboximide_Phi_5_Theta_20_Thiophene_Hydrogenated_Improper.qcin
qchem Dimethyl_Naphthalene_Dicarboximide_Phi_5_Theta_20_Thiophene_Hydrogenated_Improper.qcin_647503.0 ./qchem647503/ 1
/cm/shared/apps/spack/cpu/opt/spack/linux-centos8-zen2/gcc-10.2.0/qchem-5.4-akfmr7b3t57bfs6qan3padb2wnb2i7cl/bin/mpi/mpirun_qchem -machinefile ./qchem647503/hostfile -np 1 /cm/shared/apps/spack/cpu/opt/spack/linux-centos8-zen2/gcc-10.2.0/qchem-5.4-akfmr7b3t57bfs6qan3padb2wnb2i7cl/exe/qcprog.exe Dimethyl_Naphthalene_Dicarboximide_Phi_5_Theta_20_Thiophene_Hydrogenated_Improper.qcin_647503.0 ./qchem647503/

Process 0 of 1 is on exp-13-43 - thread support 0
initial socket setup ...start
initial socket setup ...done 
now start server 0 ... 
                  Welcome to Q-Chem
     A Quantum Leap Into The Future Of Chemistry


 Q-Chem 5.4, Q-Chem, Inc., Pleasanton, CA (2021)

 License issued to: University of California, San Diego (site)

 E. Epifanovsky,  A. T. B. Gilbert,  Xintian Feng,  Joonho Lee,  Yuezhi Mao,  
 N. Mardirossian,  P. Pokhilko,  A. White,  M. Wormit,  M. P. Coons,  
 A. L. Dempwolff,  Zhengting Gan,  D. Hait,  P. R. Horn,  L. D. Jacobson,  
 I. Kaliman,  J. Kussmann,  A. W. Lange,  Ka Un Lao,  D. S. Levine,  Jie Liu,  
 S. C. McKenzie,  A. F. Morrison,  K. Nanda,  F. Plasser,  D. R. Rehn,  
 M. L. Vidal,  Zhi-Qiang You,  Ying Zhu,  B. Alam,  B. Albrecht,  
 A. Aldossary,  E. Alguire,  J. H. Andersen,  D. Barton,  K. Begam,  A. Behn,  
 Y. A. Bernard,  E. J. Berquist,  H. Burton,  A. Carreras,  K. Carter-Fenk,  
 R. Chakraborty,  A. D. Chien,  K. D. Closser,  V. Cofer-Shabica,  
 S. Dasgupta,  Jia Deng,  M. de Wergifosse,  M. Diedenhofen,  Hainam Do,  
 S. Ehlert,  Po-Tung Fang,  S. Fatehi,  Qingguo Feng,  J. Gayvert,  
 Qinghui Ge,  G. Gidofalvi,  M. Goldey,  J. Gomes,  C. Gonzalez-Espinoza,  
 S. Gulania,  A. Gunina,  M. W. D. Hanson-Heine,  P. H. P. Harbach,  
 A. W. Hauser,  M. F. Herbst,  M. Hernandez Vera,  M. Hodecker,  
 Z. C. Holden,  S. Houck,  Xunkun Huang,  Kerwin Hui,  B. C. Huynh,  
 M. Ivanov,  Hyunjun Ji,  Hanjie Jiang,  B. Kaduk,  S. Kaehler,  
 K. Khistyaev,  Jaehoon Kim,  P. Klunzinger,  Z. Koczor-Benda,  
 Joong Hoon Koh,  D. Kosenkov,  L. Koulias,  T. Kowalczyk,  C. M. Krauter,  
 K. Kue,  A. Kunitsa,  T. Kus,  A. Landau,  K. V. Lawler,  D. Lefrancois,  
 S. Lehtola,  Rain Li,  Yi-Pei Li,  Jiashu Liang,  M. Liebenthal,  
 Hung-Hsuan Lin,  You-Sheng Lin,  Fenglai Liu,  Kuan-Yu Liu,  
 M. Loipersberger,  A. Luenser,  A. Manjanath,  P. Manohar,  E. Mansoor,  
 S. F. Manzer,  Shan-Ping Mao,  A. V. Marenich,  T. Markovich,  S. Mason,  
 S. A. Maurer,  P. F. McLaughlin,  M. F. S. J. Menger,  J.-M. Mewes,  
 S. A. Mewes,  P. Morgante,  J. W. Mullinax,  T. S. Nguyen-Beck,  
 K. J. Oosterbaan,  G. Paran,  Alexander C. Paul,  Suranjan K. Paul,  
 F. Pavosevic,  Zheng Pei,  S. Prager,  E. I. Proynov,  E. Ramos,  B. Rana,  
 A. E. Rask,  A. Rettig,  R. M. Richard,  F. Rob,  E. Rossomme,  T. Scheele,  
 M. Scheurer,  M. Schneider,  N. Sergueev,  S. M. Sharada,  W. Skomorowski,  
 D. W. Small,  C. J. Stein,  Yu-Chuan Su,  E. J. Sundstrom,  Zhen Tao,  
 J. Thirman,  T. Tsuchimochi,  N. M. Tubman,  S. P. Veccham,  O. Vydrov,  
 J. Wenzel,  J. Witte,  A. Yamada,  Kun Yao,  S. Yeganeh,  S. R. Yost,  
 A. Zech,  Igor Ying Zhang,  Xing Zhang,  Yu Zhang,  D. Zuev,  
 A. Aspuru-Guzik,  A. T. Bell,  N. A. Besley,  K. B. Bravaya,  B. R. Brooks,  
 D. Casanova,  Jeng-Da Chai,  S. Coriani,  C. J. Cramer,  
 A. E. DePrince, III,  R. A. DiStasio Jr.,  A. Dreuw,  B. D. Dunietz,  
 T. R. Furlani,  W. A. Goddard III,  S. Grimme,  S. Hammes-Schiffer,  
 T. Head-Gordon,  W. J. Hehre,  Chao-Ping Hsu,  T.-C. Jagau,  Yousung Jung,  
 A. Klamt,  Jing Kong,  D. S. Lambrecht,  WanZhen Liang,  N. J. Mayhall,  
 C. W. McCurdy,  J. B. Neaton,  C. Ochsenfeld,  J. A. Parkhill,  R. Peverati,  
 V. A. Rassolov,  Yihan Shao,  L. V. Slipchenko,  T. Stauch,  R. P. Steele,  
 J. E. Subotnik,  A. J. W. Thom,  A. Tkatchenko,  D. G. Truhlar,  
 T. Van Voorhis,  T. A. Wesolowski,  K. B. Whaley,  H. L. Woodcock III,  
 P. M. Zimmerman,  S. Faraji,  P. M. W. Gill,  M. Head-Gordon,  
 J. M. Herbert,  A. I. Krylov

 Contributors to earlier versions of Q-Chem not listed above: 
 R. D. Adamson,  B. Austin,  R. Baer,  J. Baker,  G. J. O. Beran,  
 K. Brandhorst,  S. T. Brown,  E. F. C. Byrd,  A. K. Chakraborty,  
 G. K. L. Chan,  Chun-Min Chang,  Yunqing Chen,  C.-L. Cheng,  
 Siu Hung Chien,  D. M. Chipman,  D. L. Crittenden,  H. Dachsel,  
 R. J. Doerksen,  A. D. Dutoi,  R. G. Edgar,  J. Fosso-Tande,  
 L. Fusti-Molnar,  D. Ghosh,  A. Ghysels,  A. Golubeva-Zadorozhnaya,  
 J. Gonthier,  M. S. Gordon,  S. R. Gwaltney,  G. Hawkins,  J. E. Herr,  
 A. Heyden,  S. Hirata,  E. G. Hohenstein,  G. Kedziora,  F. J. Keil,  
 C. Kelley,  Jihan Kim,  R. A. King,  R. Z. Khaliullin,  P. P. Korambath,  
 W. Kurlancheek,  A. Laurent,  A. M. Lee,  M. S. Lee,  S. V. Levchenko,  
 Ching Yeh Lin,  D. Liotard,  E. Livshits,  R. C. Lochan,  I. Lotan,  
 L. A. Martinez-Martinez,  P. E. Maslen,  N. Nair,  D. P. O'Neill,  
 D. Neuhauser,  E. Neuscamman,  C. M. Oana,  R. Olivares-Amaya,  R. Olson,  
 T. M. Perrine,  B. Peters,  P. A. Pieniazek,  A. Prociuk,  Y. M. Rhee,  
 J. Ritchie,  M. A. Rohrdanz,  E. Rosta,  N. J. Russ,  H. F. Schaefer III,  
 M. W. Schmidt,  N. E. Schultz,  S. Sharma,  N. Shenvi,  C. D. Sherrill,  
 A. C. Simmonett,  A. Sodt,  T. Stein,  D. Stuck,  K. S. Thanthiriwatte,  
 V. Vanovschi,  L. Vogt,  Tao Wang,  A. Warshel,  M. A. Watson,  
 C. F. Williams,  Q. Wu,  X. Xu,  Jun Yang,  W. Zhang,  Yan Zhao

 Please cite Q-Chem as follows:
 Y. Shao et al., Mol. Phys. 113, 184-215 (2015)
 DOI: 10.1080/00268976.2014.952696

 Q-Chem 5.4.0 for Intel X86 EM64T Linux

 Parts of Q-Chem use Armadillo 9.800.1 (Horizon Scraper).
 http://arma.sourceforge.net/

 Q-Chem begins on Wed Dec 27 10:00:07 2023  

 Host: 
0

     Scratch files written to ./qchem647503//
 May1621 |scratch|qcdevops|jenkins|workspace|build_RNUM    
 Parallel job on  1  processors
 Processing $rem in /cm/shared/apps/spack/cpu/opt/spack/linux-centos8-zen2/gcc-10.2.0/qchem-5.4-akfmr7b3t57bfs6qan3padb2wnb2i7cl/config/preferences:
 Processing $rem in /home/rramji/.qchemrc:
 Symmetry turned off for PCM/SM12/SMD calculation
 Core orbitals will be frozen

 Checking the input file for inconsistencies... 	...done.

 Q-Chem warning in module forms1/BasisType.C, line 2236:

 You are not using the predefined 5D/6D in this basis set.


--------------------------------------------------------------
User input:
--------------------------------------------------------------
$molecule
0 1
C	-0.050007	-0.397395	-0.217210
S	0.018893	0.392805	1.363290
C	0.161593	2.024305	0.687690
C	0.036793	0.596805	-1.202610
C	0.151793	1.912005	-0.710710
H	0.016293	0.362105	-2.277110
H	0.228493	2.789605	-1.369810
C	-0.050007	-1.875595	-0.217210
H	0.964693	-1.876195	0.152690
H	-0.387507	-2.314895	0.709890
H	0.227893	-2.586595	-0.981210
H	0.238293	2.901605	1.338790
$end

$rem
JOBTYPE		SP
EXCHANGE	HF
CORRELATION	pRIMP2
BASIS		cc-pvtz
METHOD		rimp2
AUX_BASIS	rimp2-cc-pvtz
SOLVENT_METHOD	PCM
PURECART	11111
SYMMETRY	false
MEM_TOTAL	110000
SCF_CONVERGENCE = 6
THRESH=10
GUI = 2
$end



$solvent
dielectric 4.90
$end
--------------------------------------------------------------
 ----------------------------------------------------------------
             Standard Nuclear Orientation (Angstroms)
    I     Atom           X                Y                Z
 ----------------------------------------------------------------
    1      C      -0.0500070000    -0.3973950000    -0.2172100000
    2      S       0.0188930000     0.3928050000     1.3632900000
    3      C       0.1615930000     2.0243050000     0.6876900000
    4      C       0.0367930000     0.5968050000    -1.2026100000
    5      C       0.1517930000     1.9120050000    -0.7107100000
    6      H       0.0162930000     0.3621050000    -2.2771100000
    7      H       0.2284930000     2.7896050000    -1.3698100000
    8      C      -0.0500070000    -1.8755950000    -0.2172100000
    9      H       0.9646930000    -1.8761950000     0.1526900000
   10      H      -0.3875070000    -2.3148950000     0.7098900000
   11      H       0.2278930000    -2.5865950000    -0.9812100000
   12      H       0.2382930000     2.9016050000     1.3387900000
 ----------------------------------------------------------------
 Nuclear Repulsion Energy =         270.55252777 hartrees
 There are       26 alpha and       26 beta electrons
 Requested basis set is cc-pVTZ
 There are 98 shells and 268 basis functions

 Total QAlloc Memory Limit 110000 MB
 Mega-Array Size       188 MB
 MEM_STATIC part       192 MB
 Discretize the solute cavity surface with Lebedev spheres
	Using 110 Lebedev grid points for each H atom
	Using 194 Lebedev grid points for other atoms
	Atomic van der Waals radii will be scaled by 1.20
 Remove points where switching function is < 1.0e-08
 Keep 900 surface tesserae and discard 924 interior tesserae
 Molecular Surface Area = 138.371 Angst**2

                       Distance Matrix (Angstroms)
             C (  1)   S (  2)   C (  3)   C (  4)   C (  5)   H (  6)
   S (  2)  1.768373
   C (  3)  2.593887  1.771607
   C (  4)  1.402491  2.574059  2.372038
   C (  5)  2.370146  2.574317  1.402936  1.408880
   H (  6)  2.196457  3.640530  3.402067  1.100025  2.207750
   H (  7)  3.400444  3.641211  2.196239  2.207505  1.100217  2.600188
   C (  8)  1.478200  2.765568  4.009094  2.662951  3.824942  3.042184
   H (  9)  1.831199  2.740155  4.018096  2.968765  3.969474  3.437059
   H ( 10)  2.156438  2.814912  4.373861  3.509371  4.491729  4.031321
   H ( 11)  2.335278  3.796997  4.904082  3.196807  4.507368  3.227842
   H ( 12)  3.658914  2.518494  1.095203  3.436775  2.277551  4.424147
             H (  7)   C (  8)   H (  9)   H ( 10)   H ( 11)
   C (  8)  4.813537
   H (  9)  4.962830  1.080020
   H ( 10)  5.546217  1.080002  1.526884
   H ( 11)  5.390226  1.080021  1.527505  1.819988
   H ( 12)  2.710932  5.032484  4.976129  5.291409  5.958427
 
 Requested basis set is rimp2-cc-pVTZ
 There are 207 shells and 707 basis functions
 A cutoff of  1.0D-10 yielded   4362 shell pairs
 There are     32690 function pairs (     42252 Cartesian)
 Smallest overlap matrix eigenvalue = 1.06E-04

 Scale SEOQF with 1.000000e+00/1.000000e-01/1.000000e-01

 Standard Electronic Orientation quadrupole field applied
 Nucleus-field energy     =     0.0000000022 hartrees
 Guess from superposition of atomic densities
 Warning:  Energy on first SCF cycle will be non-variational
 SAD guess density has 52.000000 electrons

 -----------------------------------------------------------------------
  General SCF calculation program by
  Eric Jon Sundstrom, Paul Horn, Yuezhi Mao, Dmitri Zuev, Alec White,
  David Stuck, Shaama M.S., Shane Yost, Joonho Lee, David Small,
  Daniel Levine, Susi Lehtola, Hugh Burton, Evgeny Epifanovsky,
  Bang C. Huynh
 -----------------------------------------------------------------------
 Hartree-Fock
 using 64 threads for integral computing
 -------------------------------------------------------
 OpenMP Integral computing Module                
 Release: version 1.0, May 2013, Q-Chem Inc. Pittsburgh 
 -------------------------------------------------------
 A restricted SCF calculation will be
 performed using DIIS
 SCF converges when DIIS error is below 1.0e-06
 ---------------------------------------
  Cycle       Energy         DIIS error
 ---------------------------------------
    1    -592.5763429289      3.22e-02  
    2    -590.3029770662      2.22e-03  
    3    -590.3643446784      8.73e-04  
    4    -590.3720139556      4.08e-04  
    5    -590.3741418342      7.01e-05  
    6    -590.3742687618      3.23e-05  
    7    -590.3742993866      1.42e-05  
    8    -590.3743088797      5.70e-06  
    9    -590.3743102785      1.85e-06  
   10    -590.3743104064      6.42e-07  Convergence criterion met
 ---------------------------------------
 SCF time:   CPU 482.30s  wall 8.00s 

************** Final PCM Free Energy Summary **************
 G_electrostatic  =      -0.00596146 hartree =      -3.74087280 kcal/mol
 G_cavitation     =       0.00000000 hartree =       0.00000000 kcal/mol
 G_dispersion     =       0.00000000 hartree =       0.00000000 kcal/mol
 G_repulsion      =       0.00000000 hartree =       0.00000000 kcal/mol
 --------------------------------------------------
 Non-electrostatic Free Energy =       0.00000000 hartree =       0.00000000 kcal/mol
 Total                         =      -0.00596146 hartree =      -3.74087280 kcal/mol
 --------------------------------------------------
 SCF Energy (H0 + V/2)                       =    -590.37431041 
 Solute Internal Energy (H0)                 =    -590.36834895 
 Total Free Energy (H0 + V/2 + non-elec)     =    -590.37431041 hartree
                                             = -370465.47121513 kcal/mol
***********************************************************

 SCF   energy in the final basis set =     -590.3743104064
 Total energy in the final basis set =     -590.3743104064


 --------------------------------------------------------------
  Generalized many-body perturbation theory program
  by Joonho Lee, Fazle Rob, Xintian Feng, Evgeny Epifanovsky

 No regularization used 
 (reg. param. = 0.0000e+00)
  (P|Q)^-1/2 Time:  CPU 5.22 s  wall 0.09 s

 In RI-MP2 calculation: 
 # of frozen core orbitals: 10

 Components of the RIMP2 correlation energy:
        aaaa    correlation energy =        -0.1248337952 a.u.
        abab    correlation energy =        -0.7497585856 a.u.
        bbbb    correlation energy =        -0.1248337952 a.u.
        non-Brillouin singles      =        -0.0000000000 a.u.
        total same-spin energy     =        -0.2496675905 a.u.
        total opposite-spin energy =        -0.7497585856 a.u.

 Total  RIMP2   correlation energy =        -0.9994261761 a.u.
        RIMP2         total energy =      -591.3737365825 a.u.

 RI-MP2 Energy Time:  CPU 23.30 s  wall 0.42 s
 
 --------------------------------------------------------------
 
                    Orbital Energies (a.u.)
 --------------------------------------------------------------
 
 Alpha MOs
 -- Occupied --
-91.9789 -11.2913 -11.2635 -11.2427 -11.2307 -11.2284  -8.9788  -6.6598
 -6.6593  -6.6587  -1.1575  -1.0413  -0.9713  -0.9194  -0.7554  -0.7213
 -0.6715  -0.5973  -0.5658  -0.5602  -0.5377  -0.4984  -0.4767  -0.4564
 -0.3470  -0.2990
 -- Virtual --
  0.1108   0.1459   0.1605   0.1809   0.1893   0.2074   0.2099   0.2171
  0.2269   0.2517   0.3120   0.3421   0.3453   0.3660   0.3863   0.4198
  0.4252   0.4416   0.4564   0.4842   0.5008   0.5083   0.5256   0.5436
  0.5474   0.5550   0.5750   0.5840   0.5959   0.6080   0.6176   0.6212
  0.6274   0.6415   0.6498   0.6587   0.7032   0.7081   0.7424   0.7782
  0.7867   0.8040   0.8407   0.8503   0.8754   0.8841   0.8994   0.9376
  0.9589   0.9790   0.9935   1.0319   1.0641   1.0896   1.1011   1.1101
  1.1252   1.1610   1.1721   1.1748   1.2176   1.2308   1.2511   1.2612
  1.2806   1.3002   1.3425   1.3524   1.3991   1.4209   1.4359   1.4397
  1.4805   1.4929   1.5106   1.5209   1.5378   1.5544   1.5578   1.5819
  1.5987   1.6316   1.6478   1.6904   1.7074   1.7512   1.7607   1.7891
  1.8372   1.8884   1.9086   1.9299   1.9401   2.0165   2.0673   2.0816
  2.1504   2.1700   2.2259   2.2340   2.2569   2.2904   2.3288   2.4096
  2.4355   2.4430   2.4578   2.5347   2.5378   2.5982   2.6421   2.6533
  2.6845   2.7290   2.7342   2.7451   2.7566   2.7755   2.8065   2.8404
  2.8699   2.8878   2.9267   2.9557   2.9793   3.0184   3.0363   3.0464
  3.0610   3.0948   3.1134   3.1536   3.1704   3.2063   3.2142   3.2388
  3.2540   3.2769   3.2968   3.3028   3.3144   3.3448   3.3874   3.3918
  3.4059   3.4291   3.4340   3.4454   3.4588   3.4639   3.4782   3.4965
  3.5096   3.5158   3.5418   3.5537   3.5940   3.6126   3.6194   3.6529
  3.6871   3.7052   3.7264   3.7588   3.7623   3.7881   3.8172   3.8289
  3.8540   3.8845   3.9109   3.9243   3.9615   3.9646   3.9719   3.9873
  3.9989   4.0264   4.0750   4.0927   4.1280   4.1523   4.1638   4.1952
  4.2327   4.2533   4.2758   4.2856   4.3033   4.3515   4.3838   4.4020
  4.4072   4.4685   4.4882   4.5008   4.5423   4.5677   4.5837   4.6310
  4.6697   4.6978   4.7445   4.7585   4.8071   4.8159   4.8334   4.8486
  4.9504   5.0073   5.0287   5.0321   5.0710   5.1427   5.1779   5.1971
  5.2181   5.3015   5.3621   5.4318   5.4682   5.4958   5.5405   5.6028
  5.6261   5.6804   5.7923   5.8242   5.8580   5.9942   6.0317   6.0892
  6.1394   6.3389   6.4138   6.4839   6.7490   9.3827  11.3010  12.8511
 13.9062  14.3489
 --------------------------------------------------------------
 
          Ground-State Mulliken Net Atomic Charges

     Atom                 Charge (a.u.)
  ----------------------------------------
      1 C                     0.023926
      2 S                    -0.004784
      3 C                    -0.247590
      4 C                    -0.243487
      5 C                    -0.183989
      6 H                     0.183143
      7 H                     0.185234
      8 C                    -0.360109
      9 H                     0.138622
     10 H                     0.136759
     11 H                     0.167416
     12 H                     0.204860
  ----------------------------------------
  Sum of atomic charges =     0.000000

 -----------------------------------------------------------------
                    Cartesian Multipole Moments
 -----------------------------------------------------------------
    Charge (ESU x 10^10)
                -0.0000
    Dipole Moment (Debye)
         X       0.7776      Y      -0.7904      Z      -0.8100
       Tot       1.3731
    Quadrupole Moments (Debye-Ang)
        XX     -48.2021     XY      -0.6549     YY     -35.8783
        XZ      -0.3679     YZ       0.5982     ZZ     -41.9266
    Octopole Moments (Debye-Ang^2)
       XXX      -7.4978    XXY     -21.2290    XYY       2.9023
       YYY     -43.2841    XXZ      -7.2432    XYZ       1.5177
       YYZ      -4.3296    XZZ      -1.5805    YZZ     -11.3282
       ZZZ     -28.3992
    Hexadecapole Moments (Debye-Ang^3)
      XXXX     -67.3732   XXXY     -15.4698   XXYY    -116.6906
      XYYY     -12.6837   YYYY    -497.1026   XXXZ       0.0530
      XXYZ      -6.2783   XYYZ      -2.5770   YYYZ      -5.9589
      XXZZ     -69.9395   XYZZ      -2.3375   YYZZ    -122.4423
      XZZZ      -0.1889   YZZZ     -13.6004   ZZZZ    -306.5411
 -----------------------------------------------------------------
 Total job time:  10.31s(wall), 550.28s(cpu) 
 Wed Dec 27 10:00:18 2023

        *************************************************************
        *                                                           *
        *  Thank you very much for using Q-Chem.  Have a nice day.  *
        *                                                           *
        *************************************************************


0 sent ACK to 0 
now end server 0 ... 
cleanup process ... done
remove work dirs ./qchem647503.0 -- ./qchem647503.0
rm -rf ./qchem647503.0
rm -rf ./qchem647503
