You are running Q-Chem version: 5.4.0

#
# job setting
#
local host:  exp-4-24
current dir: /home/rramji/project-csd799/aromodel/pndit-qchem/methylated-rotation-run
input file:  Dimethyl_Naphthalene_Dicarboximide_Phi_10_Theta_270_Thiophene_Hydrogenated_Improper.qcin
output file: 
nprocs     : 1
nthreads   : 64
#
# qchem installation setting
#
QC:          /cm/shared/apps/spack/cpu/opt/spack/linux-centos8-zen2/gcc-10.2.0/qchem-5.4-akfmr7b3t57bfs6qan3padb2wnb2i7cl
QCAUX:       /cm/shared/apps/spack/cpu/opt/spack/linux-centos8-zen2/gcc-10.2.0/qchem-5.4-akfmr7b3t57bfs6qan3padb2wnb2i7cl/qcaux
QCPROG:      /cm/shared/apps/spack/cpu/opt/spack/linux-centos8-zen2/gcc-10.2.0/qchem-5.4-akfmr7b3t57bfs6qan3padb2wnb2i7cl/exe/qcprog.exe
QCPROG_S:    /cm/shared/apps/spack/cpu/opt/spack/linux-centos8-zen2/gcc-10.2.0/qchem-5.4-akfmr7b3t57bfs6qan3padb2wnb2i7cl/exe/qcprog.exe_s
PARALLEL:    -DPARALLEL
QCMPI:       mpich
#
# qchem directory setting
#
qcrun:       qchem2968245
QCSCRATCH:   .
QCLOCALSCR:  
QCTMPDIR:    .
QCFILEPREF:  ./qchem2968245
QCSAVEDIR:   
workdirs:    ./qchem2968245
workdir0:    ./qchem2968245
partmpdirs =  
#
# parallel setting
#
QCRSH:           ssh
QCMPI:           mpich
QCMPIRUN:        /cm/shared/apps/spack/cpu/opt/spack/linux-centos8-zen2/gcc-10.2.0/qchem-5.4-akfmr7b3t57bfs6qan3padb2wnb2i7cl/bin/mpi/mpirun_qchem
QCMACHINEFILE:   ./qchem2968245/hostfile
exp-4-24

#
# env setting
#
exported envs:   QC QCAUX QCSCRATCH QCRUNNAME QCFILEPREF QCPROG QCPROG_S GUIFILE

Running Job 1 of 1 Dimethyl_Naphthalene_Dicarboximide_Phi_10_Theta_270_Thiophene_Hydrogenated_Improper.qcin
qchem Dimethyl_Naphthalene_Dicarboximide_Phi_10_Theta_270_Thiophene_Hydrogenated_Improper.qcin_2968245.0 ./qchem2968245/ 1
/cm/shared/apps/spack/cpu/opt/spack/linux-centos8-zen2/gcc-10.2.0/qchem-5.4-akfmr7b3t57bfs6qan3padb2wnb2i7cl/bin/mpi/mpirun_qchem -machinefile ./qchem2968245/hostfile -np 1 /cm/shared/apps/spack/cpu/opt/spack/linux-centos8-zen2/gcc-10.2.0/qchem-5.4-akfmr7b3t57bfs6qan3padb2wnb2i7cl/exe/qcprog.exe Dimethyl_Naphthalene_Dicarboximide_Phi_10_Theta_270_Thiophene_Hydrogenated_Improper.qcin_2968245.0 ./qchem2968245/

Process 0 of 1 is on exp-4-24 - thread support 0
initial socket setup ...start
initial socket setup ...done 
now start server 0 ... 
                  Welcome to Q-Chem
     A Quantum Leap Into The Future Of Chemistry


 Q-Chem 5.4, Q-Chem, Inc., Pleasanton, CA (2021)

 License issued to: University of California, San Diego (site)

 E. Epifanovsky,  A. T. B. Gilbert,  Xintian Feng,  Joonho Lee,  Yuezhi Mao,  
 N. Mardirossian,  P. Pokhilko,  A. White,  M. Wormit,  M. P. Coons,  
 A. L. Dempwolff,  Zhengting Gan,  D. Hait,  P. R. Horn,  L. D. Jacobson,  
 I. Kaliman,  J. Kussmann,  A. W. Lange,  Ka Un Lao,  D. S. Levine,  Jie Liu,  
 S. C. McKenzie,  A. F. Morrison,  K. Nanda,  F. Plasser,  D. R. Rehn,  
 M. L. Vidal,  Zhi-Qiang You,  Ying Zhu,  B. Alam,  B. Albrecht,  
 A. Aldossary,  E. Alguire,  J. H. Andersen,  D. Barton,  K. Begam,  A. Behn,  
 Y. A. Bernard,  E. J. Berquist,  H. Burton,  A. Carreras,  K. Carter-Fenk,  
 R. Chakraborty,  A. D. Chien,  K. D. Closser,  V. Cofer-Shabica,  
 S. Dasgupta,  Jia Deng,  M. de Wergifosse,  M. Diedenhofen,  Hainam Do,  
 S. Ehlert,  Po-Tung Fang,  S. Fatehi,  Qingguo Feng,  J. Gayvert,  
 Qinghui Ge,  G. Gidofalvi,  M. Goldey,  J. Gomes,  C. Gonzalez-Espinoza,  
 S. Gulania,  A. Gunina,  M. W. D. Hanson-Heine,  P. H. P. Harbach,  
 A. W. Hauser,  M. F. Herbst,  M. Hernandez Vera,  M. Hodecker,  
 Z. C. Holden,  S. Houck,  Xunkun Huang,  Kerwin Hui,  B. C. Huynh,  
 M. Ivanov,  Hyunjun Ji,  Hanjie Jiang,  B. Kaduk,  S. Kaehler,  
 K. Khistyaev,  Jaehoon Kim,  P. Klunzinger,  Z. Koczor-Benda,  
 Joong Hoon Koh,  D. Kosenkov,  L. Koulias,  T. Kowalczyk,  C. M. Krauter,  
 K. Kue,  A. Kunitsa,  T. Kus,  A. Landau,  K. V. Lawler,  D. Lefrancois,  
 S. Lehtola,  Rain Li,  Yi-Pei Li,  Jiashu Liang,  M. Liebenthal,  
 Hung-Hsuan Lin,  You-Sheng Lin,  Fenglai Liu,  Kuan-Yu Liu,  
 M. Loipersberger,  A. Luenser,  A. Manjanath,  P. Manohar,  E. Mansoor,  
 S. F. Manzer,  Shan-Ping Mao,  A. V. Marenich,  T. Markovich,  S. Mason,  
 S. A. Maurer,  P. F. McLaughlin,  M. F. S. J. Menger,  J.-M. Mewes,  
 S. A. Mewes,  P. Morgante,  J. W. Mullinax,  T. S. Nguyen-Beck,  
 K. J. Oosterbaan,  G. Paran,  Alexander C. Paul,  Suranjan K. Paul,  
 F. Pavosevic,  Zheng Pei,  S. Prager,  E. I. Proynov,  E. Ramos,  B. Rana,  
 A. E. Rask,  A. Rettig,  R. M. Richard,  F. Rob,  E. Rossomme,  T. Scheele,  
 M. Scheurer,  M. Schneider,  N. Sergueev,  S. M. Sharada,  W. Skomorowski,  
 D. W. Small,  C. J. Stein,  Yu-Chuan Su,  E. J. Sundstrom,  Zhen Tao,  
 J. Thirman,  T. Tsuchimochi,  N. M. Tubman,  S. P. Veccham,  O. Vydrov,  
 J. Wenzel,  J. Witte,  A. Yamada,  Kun Yao,  S. Yeganeh,  S. R. Yost,  
 A. Zech,  Igor Ying Zhang,  Xing Zhang,  Yu Zhang,  D. Zuev,  
 A. Aspuru-Guzik,  A. T. Bell,  N. A. Besley,  K. B. Bravaya,  B. R. Brooks,  
 D. Casanova,  Jeng-Da Chai,  S. Coriani,  C. J. Cramer,  
 A. E. DePrince, III,  R. A. DiStasio Jr.,  A. Dreuw,  B. D. Dunietz,  
 T. R. Furlani,  W. A. Goddard III,  S. Grimme,  S. Hammes-Schiffer,  
 T. Head-Gordon,  W. J. Hehre,  Chao-Ping Hsu,  T.-C. Jagau,  Yousung Jung,  
 A. Klamt,  Jing Kong,  D. S. Lambrecht,  WanZhen Liang,  N. J. Mayhall,  
 C. W. McCurdy,  J. B. Neaton,  C. Ochsenfeld,  J. A. Parkhill,  R. Peverati,  
 V. A. Rassolov,  Yihan Shao,  L. V. Slipchenko,  T. Stauch,  R. P. Steele,  
 J. E. Subotnik,  A. J. W. Thom,  A. Tkatchenko,  D. G. Truhlar,  
 T. Van Voorhis,  T. A. Wesolowski,  K. B. Whaley,  H. L. Woodcock III,  
 P. M. Zimmerman,  S. Faraji,  P. M. W. Gill,  M. Head-Gordon,  
 J. M. Herbert,  A. I. Krylov

 Contributors to earlier versions of Q-Chem not listed above: 
 R. D. Adamson,  B. Austin,  R. Baer,  J. Baker,  G. J. O. Beran,  
 K. Brandhorst,  S. T. Brown,  E. F. C. Byrd,  A. K. Chakraborty,  
 G. K. L. Chan,  Chun-Min Chang,  Yunqing Chen,  C.-L. Cheng,  
 Siu Hung Chien,  D. M. Chipman,  D. L. Crittenden,  H. Dachsel,  
 R. J. Doerksen,  A. D. Dutoi,  R. G. Edgar,  J. Fosso-Tande,  
 L. Fusti-Molnar,  D. Ghosh,  A. Ghysels,  A. Golubeva-Zadorozhnaya,  
 J. Gonthier,  M. S. Gordon,  S. R. Gwaltney,  G. Hawkins,  J. E. Herr,  
 A. Heyden,  S. Hirata,  E. G. Hohenstein,  G. Kedziora,  F. J. Keil,  
 C. Kelley,  Jihan Kim,  R. A. King,  R. Z. Khaliullin,  P. P. Korambath,  
 W. Kurlancheek,  A. Laurent,  A. M. Lee,  M. S. Lee,  S. V. Levchenko,  
 Ching Yeh Lin,  D. Liotard,  E. Livshits,  R. C. Lochan,  I. Lotan,  
 L. A. Martinez-Martinez,  P. E. Maslen,  N. Nair,  D. P. O'Neill,  
 D. Neuhauser,  E. Neuscamman,  C. M. Oana,  R. Olivares-Amaya,  R. Olson,  
 T. M. Perrine,  B. Peters,  P. A. Pieniazek,  A. Prociuk,  Y. M. Rhee,  
 J. Ritchie,  M. A. Rohrdanz,  E. Rosta,  N. J. Russ,  H. F. Schaefer III,  
 M. W. Schmidt,  N. E. Schultz,  S. Sharma,  N. Shenvi,  C. D. Sherrill,  
 A. C. Simmonett,  A. Sodt,  T. Stein,  D. Stuck,  K. S. Thanthiriwatte,  
 V. Vanovschi,  L. Vogt,  Tao Wang,  A. Warshel,  M. A. Watson,  
 C. F. Williams,  Q. Wu,  X. Xu,  Jun Yang,  W. Zhang,  Yan Zhao

 Please cite Q-Chem as follows:
 Y. Shao et al., Mol. Phys. 113, 184-215 (2015)
 DOI: 10.1080/00268976.2014.952696

 Q-Chem 5.4.0 for Intel X86 EM64T Linux

 Parts of Q-Chem use Armadillo 9.800.1 (Horizon Scraper).
 http://arma.sourceforge.net/

 Q-Chem begins on Wed Dec 27 10:08:29 2023  

 Host: 
0

     Scratch files written to ./qchem2968245//
 May1621 |scratch|qcdevops|jenkins|workspace|build_RNUM    
 Parallel job on  1  processors
 Processing $rem in /cm/shared/apps/spack/cpu/opt/spack/linux-centos8-zen2/gcc-10.2.0/qchem-5.4-akfmr7b3t57bfs6qan3padb2wnb2i7cl/config/preferences:
 Processing $rem in /home/rramji/.qchemrc:
 Symmetry turned off for PCM/SM12/SMD calculation
 Core orbitals will be frozen

 Checking the input file for inconsistencies... 	...done.

 Q-Chem warning in module forms1/BasisType.C, line 2236:

 You are not using the predefined 5D/6D in this basis set.


--------------------------------------------------------------
User input:
--------------------------------------------------------------
$molecule
0 1
C	-0.090841	-0.391505	-0.208929
S	0.046659	0.389695	1.371571
C	0.331059	2.002495	0.695971
C	0.082259	0.591395	-1.194329
C	0.311459	1.891595	-0.702429
H	0.041359	0.359295	-2.268829
H	0.464359	2.759095	-1.361529
C	-0.090841	-1.869705	-0.208929
H	-0.090341	-1.870305	-1.288929
H	0.895759	-2.309005	-0.208929
H	-0.903841	-2.580705	-0.208829
H	0.483859	2.869795	1.347071
$end

$rem
JOBTYPE		SP
EXCHANGE	HF
CORRELATION	pRIMP2
BASIS		cc-pvtz
METHOD		rimp2
AUX_BASIS	rimp2-cc-pvtz
SOLVENT_METHOD	PCM
PURECART	11111
SYMMETRY	false
MEM_TOTAL	110000
SCF_CONVERGENCE = 6
THRESH=10
GUI = 2
$end



$solvent
dielectric 4.90
$end
--------------------------------------------------------------
 ----------------------------------------------------------------
             Standard Nuclear Orientation (Angstroms)
    I     Atom           X                Y                Z
 ----------------------------------------------------------------
    1      C      -0.0908410000    -0.3915050000    -0.2089290000
    2      S       0.0466590000     0.3896950000     1.3715710000
    3      C       0.3310590000     2.0024950000     0.6959710000
    4      C       0.0822590000     0.5913950000    -1.1943290000
    5      C       0.3114590000     1.8915950000    -0.7024290000
    6      H       0.0413590000     0.3592950000    -2.2688290000
    7      H       0.4643590000     2.7590950000    -1.3615290000
    8      C      -0.0908410000    -1.8697050000    -0.2089290000
    9      H      -0.0903410000    -1.8703050000    -1.2889290000
   10      H       0.8957590000    -2.3090050000    -0.2089290000
   11      H      -0.9038410000    -2.5807050000    -0.2088290000
   12      H       0.4838590000     2.8697950000     1.3470710000
 ----------------------------------------------------------------
 Nuclear Repulsion Energy =         270.03689162 hartrees
 There are       26 alpha and       26 beta electrons
 Requested basis set is cc-pVTZ
 There are 98 shells and 268 basis functions

 Total QAlloc Memory Limit 110000 MB
 Mega-Array Size       188 MB
 MEM_STATIC part       192 MB
 Discretize the solute cavity surface with Lebedev spheres
	Using 110 Lebedev grid points for each H atom
	Using 194 Lebedev grid points for other atoms
	Atomic van der Waals radii will be scaled by 1.20
 Remove points where switching function is < 1.0e-08
 Keep 879 surface tesserae and discard 945 interior tesserae
 Molecular Surface Area = 137.874 Angst**2

                       Distance Matrix (Angstroms)
             C (  1)   S (  2)   C (  3)   C (  4)   C (  5)   H (  6)
   S (  2)  1.768378
   C (  3)  2.593854  1.771565
   C (  4)  1.402522  2.574062  2.371990
   C (  5)  2.370218  2.574354  1.402927  1.408907
   H (  6)  2.196444  3.640531  3.402069  1.100042  2.207828
   H (  7)  3.400443  3.641204  2.196251  2.207460  1.100158  2.600224
   C (  8)  1.478200  2.760756  3.998847  2.656688  3.814809  3.037944
   H (  9)  1.831188  3.493512  4.372183  2.469556  3.828488  2.438989
   H ( 10)  2.156429  3.240669  4.441482  3.169403  4.269659  3.477501
   H ( 11)  2.335287  3.496340  4.832118  3.464942  4.660693  3.712223
   H ( 12)  3.658892  2.518460  1.095212  3.436729  2.277509  4.424155
             H (  7)   C (  8)   H (  9)   H ( 10)   H ( 11)
   C (  8)  4.802346
   H (  9)  4.663079  1.080000
   H ( 10)  5.215384  1.079983  1.526843
   H ( 11)  5.631532  1.080042  1.527438  1.819995
   H ( 12)  2.710931  5.021382  5.454058  5.423169  5.835622
 
 Requested basis set is rimp2-cc-pVTZ
 There are 207 shells and 707 basis functions
 A cutoff of  1.0D-10 yielded   4372 shell pairs
 There are     32838 function pairs (     42490 Cartesian)
 Smallest overlap matrix eigenvalue = 1.25E-04

 Scale SEOQF with 1.000000e+00/1.000000e-01/1.000000e-01

 Standard Electronic Orientation quadrupole field applied
 Nucleus-field energy     =     0.0000000027 hartrees
 Guess from superposition of atomic densities
 Warning:  Energy on first SCF cycle will be non-variational
 SAD guess density has 52.000000 electrons

 -----------------------------------------------------------------------
  General SCF calculation program by
  Eric Jon Sundstrom, Paul Horn, Yuezhi Mao, Dmitri Zuev, Alec White,
  David Stuck, Shaama M.S., Shane Yost, Joonho Lee, David Small,
  Daniel Levine, Susi Lehtola, Hugh Burton, Evgeny Epifanovsky,
  Bang C. Huynh
 -----------------------------------------------------------------------
 Hartree-Fock
 using 64 threads for integral computing
 -------------------------------------------------------
 OpenMP Integral computing Module                
 Release: version 1.0, May 2013, Q-Chem Inc. Pittsburgh 
 -------------------------------------------------------
 A restricted SCF calculation will be
 performed using DIIS
 SCF converges when DIIS error is below 1.0e-06
 ---------------------------------------
  Cycle       Energy         DIIS error
 ---------------------------------------
    1    -592.5737271000      3.22e-02  
    2    -590.3041726954      2.14e-03  
    3    -590.3640853692      7.68e-04  
    4    -590.3706088912      3.75e-04  
    5    -590.3723634393      6.97e-05  
    6    -590.3724842553      2.98e-05  
    7    -590.3725142333      1.47e-05  
    8    -590.3725239660      5.61e-06  
    9    -590.3725255295      2.00e-06  
   10    -590.3725256615      5.81e-07  Convergence criterion met
 ---------------------------------------
 SCF time:   CPU 501.58s  wall 9.00s 

************** Final PCM Free Energy Summary **************
 G_electrostatic  =      -0.00571668 hartree =      -3.58726853 kcal/mol
 G_cavitation     =       0.00000000 hartree =       0.00000000 kcal/mol
 G_dispersion     =       0.00000000 hartree =       0.00000000 kcal/mol
 G_repulsion      =       0.00000000 hartree =       0.00000000 kcal/mol
 --------------------------------------------------
 Non-electrostatic Free Energy =       0.00000000 hartree =       0.00000000 kcal/mol
 Total                         =      -0.00571668 hartree =      -3.58726853 kcal/mol
 --------------------------------------------------
 SCF Energy (H0 + V/2)                       =    -590.37252566 
 Solute Internal Energy (H0)                 =    -590.36680899 
 Total Free Energy (H0 + V/2 + non-elec)     =    -590.37252566 hartree
                                             = -370464.35127075 kcal/mol
***********************************************************

 SCF   energy in the final basis set =     -590.3725256615
 Total energy in the final basis set =     -590.3725256615


 --------------------------------------------------------------
  Generalized many-body perturbation theory program
  by Joonho Lee, Fazle Rob, Xintian Feng, Evgeny Epifanovsky

 No regularization used 
 (reg. param. = 0.0000e+00)
  (P|Q)^-1/2 Time:  CPU 6.50 s  wall 0.11 s

 In RI-MP2 calculation: 
 # of frozen core orbitals: 10

 Components of the RIMP2 correlation energy:
        aaaa    correlation energy =        -0.1254871343 a.u.
        abab    correlation energy =        -0.7514015783 a.u.
        bbbb    correlation energy =        -0.1254871343 a.u.
        non-Brillouin singles      =        -0.0000000000 a.u.
        total same-spin energy     =        -0.2509742686 a.u.
        total opposite-spin energy =        -0.7514015783 a.u.

 Total  RIMP2   correlation energy =        -1.0023758468 a.u.
        RIMP2         total energy =      -591.3749015083 a.u.

 RI-MP2 Energy Time:  CPU 26.65 s  wall 0.46 s
 
 --------------------------------------------------------------
 
                    Orbital Energies (a.u.)
 --------------------------------------------------------------
 
 Alpha MOs
 -- Occupied --
-91.9746 -11.2848 -11.2692 -11.2430 -11.2415 -11.2235  -8.9748  -6.6556
 -6.6551  -6.6546  -1.1572  -1.0379  -0.9730  -0.9189  -0.7546  -0.7244
 -0.6725  -0.5974  -0.5711  -0.5598  -0.5388  -0.5002  -0.4674  -0.4363
 -0.3449  -0.3130
 -- Virtual --
  0.1031   0.1488   0.1603   0.1768   0.1929   0.1972   0.2071   0.2305
  0.2387   0.2533   0.3106   0.3390   0.3671   0.3746   0.3907   0.3952
  0.4168   0.4523   0.4578   0.4615   0.4913   0.5137   0.5295   0.5362
  0.5381   0.5630   0.5673   0.5775   0.5995   0.6101   0.6164   0.6236
  0.6365   0.6520   0.6636   0.6707   0.6800   0.7160   0.7291   0.7472
  0.7866   0.7931   0.8232   0.8647   0.8750   0.8876   0.9081   0.9188
  0.9626   0.9802   1.0024   1.0079   1.0642   1.0704   1.1070   1.1271
  1.1417   1.1620   1.1716   1.1958   1.2154   1.2279   1.2444   1.2591
  1.2894   1.3194   1.3261   1.3364   1.3767   1.4022   1.4266   1.4494
  1.4684   1.4926   1.5054   1.5341   1.5422   1.5536   1.5657   1.5702
  1.5947   1.6255   1.6574   1.6878   1.7052   1.7366   1.7590   1.8067
  1.8194   1.8973   1.9002   1.9220   1.9376   1.9866   2.0512   2.0873
  2.1412   2.1722   2.1776   2.2183   2.2488   2.2851   2.3318   2.4160
  2.4279   2.4651   2.5007   2.5106   2.5724   2.6001   2.6295   2.6492
  2.6861   2.7133   2.7236   2.7302   2.7502   2.7897   2.8205   2.8486
  2.8749   2.8901   2.9213   2.9307   2.9676   3.0139   3.0187   3.0582
  3.0735   3.1002   3.1239   3.1616   3.1767   3.2048   3.2182   3.2361
  3.2618   3.2711   3.3063   3.3083   3.3231   3.3342   3.3554   3.3759
  3.3943   3.4280   3.4334   3.4382   3.4534   3.4660   3.4915   3.4992
  3.5112   3.5188   3.5460   3.5956   3.5980   3.6318   3.6415   3.6664
  3.6849   3.6871   3.7181   3.7368   3.7480   3.7508   3.8027   3.8273
  3.8428   3.8729   3.9062   3.9221   3.9372   3.9598   3.9624   3.9721
  3.9996   4.0316   4.0416   4.0871   4.1173   4.1594   4.1683   4.1835
  4.2229   4.2259   4.2497   4.2893   4.2952   4.3651   4.3804   4.4176
  4.4222   4.4443   4.4711   4.4987   4.5641   4.5850   4.6254   4.6666
  4.6787   4.6939   4.7181   4.7759   4.7931   4.8206   4.8376   4.8728
  4.9655   4.9844   5.0185   5.0515   5.0735   5.1247   5.1815   5.2181
  5.2215   5.2866   5.3704   5.4120   5.4172   5.4896   5.5297   5.5990
  5.6313   5.7303   5.8025   5.8386   5.8817   5.9388   6.0038   6.0627
  6.0975   6.2889   6.4139   6.4668   6.6624   9.4088  11.2878  12.7657
 13.9752  14.2494
 --------------------------------------------------------------
 
          Ground-State Mulliken Net Atomic Charges

     Atom                 Charge (a.u.)
  ----------------------------------------
      1 C                     0.033111
      2 S                    -0.008746
      3 C                    -0.226843
      4 C                    -0.222301
      5 C                    -0.200895
      6 H                     0.183178
      7 H                     0.187042
      8 C                    -0.356311
      9 H                     0.117361
     10 H                     0.131925
     11 H                     0.158150
     12 H                     0.204328
  ----------------------------------------
  Sum of atomic charges =     0.000000

 -----------------------------------------------------------------
                    Cartesian Multipole Moments
 -----------------------------------------------------------------
    Charge (ESU x 10^10)
                -0.0000
    Dipole Moment (Debye)
         X       0.2569      Y      -0.3182      Z      -1.7879
       Tot       1.8340
    Quadrupole Moments (Debye-Ang)
        XX     -47.1922     XY       1.7458     YY     -36.2845
        XZ       0.1610     YZ       2.1094     ZZ     -42.1221
    Octopole Moments (Debye-Ang^2)
       XXX     -13.8821    XXY     -22.0874    XYY      -0.8723
       YYY     -40.3892    XXZ      -6.9814    XYZ       0.5314
       YYZ      -6.0766    XZZ      -2.8716    YZZ      -9.2516
       ZZZ     -27.6863
    Hexadecapole Moments (Debye-Ang^3)
      XXXX     -75.7708   XXXY     -34.5347   XXYY    -107.1899
      XYYY     -11.9331   YYYY    -494.4655   XXXZ      -1.8798
      XXYZ      -6.8260   XYYZ       1.5936   YYYZ      -6.8423
      XXZZ     -71.0286   XYZZ      -5.6588   YYZZ    -127.9354
      XZZZ      -0.9558   YZZZ     -20.0587   ZZZZ    -308.6470
 -----------------------------------------------------------------
 Total job time:  10.86s(wall), 570.99s(cpu) 
 Wed Dec 27 10:08:40 2023

        *************************************************************
        *                                                           *
        *  Thank you very much for using Q-Chem.  Have a nice day.  *
        *                                                           *
        *************************************************************


0 sent ACK to 0 
now end server 0 ... 
cleanup process ... done
remove work dirs ./qchem2968245.0 -- ./qchem2968245.0
rm -rf ./qchem2968245.0
rm -rf ./qchem2968245
