You are running Q-Chem version: 5.4.0

#
# job setting
#
local host:  exp-6-47
current dir: /home/rramji/project-csd799/aromodel/pndit-qchem/methylated-rotation-run
input file:  Dimethyl_Naphthalene_Dicarboximide_Phi_25_Theta_280_Thiophene_Hydrogenated_Improper.qcin
output file: 
nprocs     : 1
nthreads   : 64
#
# qchem installation setting
#
QC:          /cm/shared/apps/spack/cpu/opt/spack/linux-centos8-zen2/gcc-10.2.0/qchem-5.4-akfmr7b3t57bfs6qan3padb2wnb2i7cl
QCAUX:       /cm/shared/apps/spack/cpu/opt/spack/linux-centos8-zen2/gcc-10.2.0/qchem-5.4-akfmr7b3t57bfs6qan3padb2wnb2i7cl/qcaux
QCPROG:      /cm/shared/apps/spack/cpu/opt/spack/linux-centos8-zen2/gcc-10.2.0/qchem-5.4-akfmr7b3t57bfs6qan3padb2wnb2i7cl/exe/qcprog.exe
QCPROG_S:    /cm/shared/apps/spack/cpu/opt/spack/linux-centos8-zen2/gcc-10.2.0/qchem-5.4-akfmr7b3t57bfs6qan3padb2wnb2i7cl/exe/qcprog.exe_s
PARALLEL:    -DPARALLEL
QCMPI:       mpich
#
# qchem directory setting
#
qcrun:       qchem2758347
QCSCRATCH:   .
QCLOCALSCR:  
QCTMPDIR:    .
QCFILEPREF:  ./qchem2758347
QCSAVEDIR:   
workdirs:    ./qchem2758347
workdir0:    ./qchem2758347
partmpdirs =  
#
# parallel setting
#
QCRSH:           ssh
QCMPI:           mpich
QCMPIRUN:        /cm/shared/apps/spack/cpu/opt/spack/linux-centos8-zen2/gcc-10.2.0/qchem-5.4-akfmr7b3t57bfs6qan3padb2wnb2i7cl/bin/mpi/mpirun_qchem
QCMACHINEFILE:   ./qchem2758347/hostfile
exp-6-47

#
# env setting
#
exported envs:   QC QCAUX QCSCRATCH QCRUNNAME QCFILEPREF QCPROG QCPROG_S GUIFILE

Running Job 1 of 1 Dimethyl_Naphthalene_Dicarboximide_Phi_25_Theta_280_Thiophene_Hydrogenated_Improper.qcin
qchem Dimethyl_Naphthalene_Dicarboximide_Phi_25_Theta_280_Thiophene_Hydrogenated_Improper.qcin_2758347.0 ./qchem2758347/ 1
/cm/shared/apps/spack/cpu/opt/spack/linux-centos8-zen2/gcc-10.2.0/qchem-5.4-akfmr7b3t57bfs6qan3padb2wnb2i7cl/bin/mpi/mpirun_qchem -machinefile ./qchem2758347/hostfile -np 1 /cm/shared/apps/spack/cpu/opt/spack/linux-centos8-zen2/gcc-10.2.0/qchem-5.4-akfmr7b3t57bfs6qan3padb2wnb2i7cl/exe/qcprog.exe Dimethyl_Naphthalene_Dicarboximide_Phi_25_Theta_280_Thiophene_Hydrogenated_Improper.qcin_2758347.0 ./qchem2758347/

Process 0 of 1 is on exp-6-47 - thread support 0
initial socket setup ...start
initial socket setup ...done 
now start server 0 ... 
                  Welcome to Q-Chem
     A Quantum Leap Into The Future Of Chemistry


 Q-Chem 5.4, Q-Chem, Inc., Pleasanton, CA (2021)

 License issued to: University of California, San Diego (site)

 E. Epifanovsky,  A. T. B. Gilbert,  Xintian Feng,  Joonho Lee,  Yuezhi Mao,  
 N. Mardirossian,  P. Pokhilko,  A. White,  M. Wormit,  M. P. Coons,  
 A. L. Dempwolff,  Zhengting Gan,  D. Hait,  P. R. Horn,  L. D. Jacobson,  
 I. Kaliman,  J. Kussmann,  A. W. Lange,  Ka Un Lao,  D. S. Levine,  Jie Liu,  
 S. C. McKenzie,  A. F. Morrison,  K. Nanda,  F. Plasser,  D. R. Rehn,  
 M. L. Vidal,  Zhi-Qiang You,  Ying Zhu,  B. Alam,  B. Albrecht,  
 A. Aldossary,  E. Alguire,  J. H. Andersen,  D. Barton,  K. Begam,  A. Behn,  
 Y. A. Bernard,  E. J. Berquist,  H. Burton,  A. Carreras,  K. Carter-Fenk,  
 R. Chakraborty,  A. D. Chien,  K. D. Closser,  V. Cofer-Shabica,  
 S. Dasgupta,  Jia Deng,  M. de Wergifosse,  M. Diedenhofen,  Hainam Do,  
 S. Ehlert,  Po-Tung Fang,  S. Fatehi,  Qingguo Feng,  J. Gayvert,  
 Qinghui Ge,  G. Gidofalvi,  M. Goldey,  J. Gomes,  C. Gonzalez-Espinoza,  
 S. Gulania,  A. Gunina,  M. W. D. Hanson-Heine,  P. H. P. Harbach,  
 A. W. Hauser,  M. F. Herbst,  M. Hernandez Vera,  M. Hodecker,  
 Z. C. Holden,  S. Houck,  Xunkun Huang,  Kerwin Hui,  B. C. Huynh,  
 M. Ivanov,  Hyunjun Ji,  Hanjie Jiang,  B. Kaduk,  S. Kaehler,  
 K. Khistyaev,  Jaehoon Kim,  P. Klunzinger,  Z. Koczor-Benda,  
 Joong Hoon Koh,  D. Kosenkov,  L. Koulias,  T. Kowalczyk,  C. M. Krauter,  
 K. Kue,  A. Kunitsa,  T. Kus,  A. Landau,  K. V. Lawler,  D. Lefrancois,  
 S. Lehtola,  Rain Li,  Yi-Pei Li,  Jiashu Liang,  M. Liebenthal,  
 Hung-Hsuan Lin,  You-Sheng Lin,  Fenglai Liu,  Kuan-Yu Liu,  
 M. Loipersberger,  A. Luenser,  A. Manjanath,  P. Manohar,  E. Mansoor,  
 S. F. Manzer,  Shan-Ping Mao,  A. V. Marenich,  T. Markovich,  S. Mason,  
 S. A. Maurer,  P. F. McLaughlin,  M. F. S. J. Menger,  J.-M. Mewes,  
 S. A. Mewes,  P. Morgante,  J. W. Mullinax,  T. S. Nguyen-Beck,  
 K. J. Oosterbaan,  G. Paran,  Alexander C. Paul,  Suranjan K. Paul,  
 F. Pavosevic,  Zheng Pei,  S. Prager,  E. I. Proynov,  E. Ramos,  B. Rana,  
 A. E. Rask,  A. Rettig,  R. M. Richard,  F. Rob,  E. Rossomme,  T. Scheele,  
 M. Scheurer,  M. Schneider,  N. Sergueev,  S. M. Sharada,  W. Skomorowski,  
 D. W. Small,  C. J. Stein,  Yu-Chuan Su,  E. J. Sundstrom,  Zhen Tao,  
 J. Thirman,  T. Tsuchimochi,  N. M. Tubman,  S. P. Veccham,  O. Vydrov,  
 J. Wenzel,  J. Witte,  A. Yamada,  Kun Yao,  S. Yeganeh,  S. R. Yost,  
 A. Zech,  Igor Ying Zhang,  Xing Zhang,  Yu Zhang,  D. Zuev,  
 A. Aspuru-Guzik,  A. T. Bell,  N. A. Besley,  K. B. Bravaya,  B. R. Brooks,  
 D. Casanova,  Jeng-Da Chai,  S. Coriani,  C. J. Cramer,  
 A. E. DePrince, III,  R. A. DiStasio Jr.,  A. Dreuw,  B. D. Dunietz,  
 T. R. Furlani,  W. A. Goddard III,  S. Grimme,  S. Hammes-Schiffer,  
 T. Head-Gordon,  W. J. Hehre,  Chao-Ping Hsu,  T.-C. Jagau,  Yousung Jung,  
 A. Klamt,  Jing Kong,  D. S. Lambrecht,  WanZhen Liang,  N. J. Mayhall,  
 C. W. McCurdy,  J. B. Neaton,  C. Ochsenfeld,  J. A. Parkhill,  R. Peverati,  
 V. A. Rassolov,  Yihan Shao,  L. V. Slipchenko,  T. Stauch,  R. P. Steele,  
 J. E. Subotnik,  A. J. W. Thom,  A. Tkatchenko,  D. G. Truhlar,  
 T. Van Voorhis,  T. A. Wesolowski,  K. B. Whaley,  H. L. Woodcock III,  
 P. M. Zimmerman,  S. Faraji,  P. M. W. Gill,  M. Head-Gordon,  
 J. M. Herbert,  A. I. Krylov

 Contributors to earlier versions of Q-Chem not listed above: 
 R. D. Adamson,  B. Austin,  R. Baer,  J. Baker,  G. J. O. Beran,  
 K. Brandhorst,  S. T. Brown,  E. F. C. Byrd,  A. K. Chakraborty,  
 G. K. L. Chan,  Chun-Min Chang,  Yunqing Chen,  C.-L. Cheng,  
 Siu Hung Chien,  D. M. Chipman,  D. L. Crittenden,  H. Dachsel,  
 R. J. Doerksen,  A. D. Dutoi,  R. G. Edgar,  J. Fosso-Tande,  
 L. Fusti-Molnar,  D. Ghosh,  A. Ghysels,  A. Golubeva-Zadorozhnaya,  
 J. Gonthier,  M. S. Gordon,  S. R. Gwaltney,  G. Hawkins,  J. E. Herr,  
 A. Heyden,  S. Hirata,  E. G. Hohenstein,  G. Kedziora,  F. J. Keil,  
 C. Kelley,  Jihan Kim,  R. A. King,  R. Z. Khaliullin,  P. P. Korambath,  
 W. Kurlancheek,  A. Laurent,  A. M. Lee,  M. S. Lee,  S. V. Levchenko,  
 Ching Yeh Lin,  D. Liotard,  E. Livshits,  R. C. Lochan,  I. Lotan,  
 L. A. Martinez-Martinez,  P. E. Maslen,  N. Nair,  D. P. O'Neill,  
 D. Neuhauser,  E. Neuscamman,  C. M. Oana,  R. Olivares-Amaya,  R. Olson,  
 T. M. Perrine,  B. Peters,  P. A. Pieniazek,  A. Prociuk,  Y. M. Rhee,  
 J. Ritchie,  M. A. Rohrdanz,  E. Rosta,  N. J. Russ,  H. F. Schaefer III,  
 M. W. Schmidt,  N. E. Schultz,  S. Sharma,  N. Shenvi,  C. D. Sherrill,  
 A. C. Simmonett,  A. Sodt,  T. Stein,  D. Stuck,  K. S. Thanthiriwatte,  
 V. Vanovschi,  L. Vogt,  Tao Wang,  A. Warshel,  M. A. Watson,  
 C. F. Williams,  Q. Wu,  X. Xu,  Jun Yang,  W. Zhang,  Yan Zhao

 Please cite Q-Chem as follows:
 Y. Shao et al., Mol. Phys. 113, 184-215 (2015)
 DOI: 10.1080/00268976.2014.952696

 Q-Chem 5.4.0 for Intel X86 EM64T Linux

 Parts of Q-Chem use Armadillo 9.800.1 (Horizon Scraper).
 http://arma.sourceforge.net/

 Q-Chem begins on Wed Dec 27 10:06:07 2023  

 Host: 
0

     Scratch files written to ./qchem2758347//
 May1621 |scratch|qcdevops|jenkins|workspace|build_RNUM    
 Parallel job on  1  processors
 Processing $rem in /cm/shared/apps/spack/cpu/opt/spack/linux-centos8-zen2/gcc-10.2.0/qchem-5.4-akfmr7b3t57bfs6qan3padb2wnb2i7cl/config/preferences:
 Processing $rem in /home/rramji/.qchemrc:
 Symmetry turned off for PCM/SM12/SMD calculation
 Core orbitals will be frozen

 Checking the input file for inconsistencies... 	...done.

 Q-Chem warning in module forms1/BasisType.C, line 2236:

 You are not using the predefined 5D/6D in this basis set.


--------------------------------------------------------------
User input:
--------------------------------------------------------------
$molecule
0 1
C	-0.220880	-0.350804	-0.209169
S	0.114120	0.368096	1.371331
C	0.806220	1.852396	0.695731
C	0.200720	0.553796	-1.194569
C	0.758620	1.750296	-0.702669
H	0.101120	0.340196	-2.269069
H	1.130820	2.548796	-1.361769
C	-0.220880	-1.829004	-0.209169
H	-0.032780	-1.829604	-1.272669
H	0.750720	-2.268304	-0.037769
H	-1.021580	-2.540004	-0.350169
H	1.178320	2.650596	1.346831
$end

$rem
JOBTYPE		SP
EXCHANGE	HF
CORRELATION	pRIMP2
BASIS		cc-pvtz
METHOD		rimp2
AUX_BASIS	rimp2-cc-pvtz
SOLVENT_METHOD	PCM
PURECART	11111
SYMMETRY	false
MEM_TOTAL	110000
SCF_CONVERGENCE = 6
THRESH=10
GUI = 2
$end



$solvent
dielectric 4.90
$end
--------------------------------------------------------------
 ----------------------------------------------------------------
             Standard Nuclear Orientation (Angstroms)
    I     Atom           X                Y                Z
 ----------------------------------------------------------------
    1      C      -0.2208800000    -0.3508040000    -0.2091690000
    2      S       0.1141200000     0.3680960000     1.3713310000
    3      C       0.8062200000     1.8523960000     0.6957310000
    4      C       0.2007200000     0.5537960000    -1.1945690000
    5      C       0.7586200000     1.7502960000    -0.7026690000
    6      H       0.1011200000     0.3401960000    -2.2690690000
    7      H       1.1308200000     2.5487960000    -1.3617690000
    8      C      -0.2208800000    -1.8290040000    -0.2091690000
    9      H      -0.0327800000    -1.8296040000    -1.2726690000
   10      H       0.7507200000    -2.2683040000    -0.0377690000
   11      H      -1.0215800000    -2.5400040000    -0.3501690000
   12      H       1.1783200000     2.6505960000     1.3468310000
 ----------------------------------------------------------------
 Nuclear Repulsion Energy =         270.95699863 hartrees
 There are       26 alpha and       26 beta electrons
 Requested basis set is cc-pVTZ
 There are 98 shells and 268 basis functions

 Total QAlloc Memory Limit 110000 MB
 Mega-Array Size       188 MB
 MEM_STATIC part       192 MB
 Discretize the solute cavity surface with Lebedev spheres
	Using 110 Lebedev grid points for each H atom
	Using 194 Lebedev grid points for other atoms
	Atomic van der Waals radii will be scaled by 1.20
 Remove points where switching function is < 1.0e-08
 Keep 884 surface tesserae and discard 940 interior tesserae
 Molecular Surface Area = 137.668 Angst**2

                       Distance Matrix (Angstroms)
             C (  1)   S (  2)   C (  3)   C (  4)   C (  5)   H (  6)
   S (  2)  1.768339
   C (  3)  2.593814  1.771605
   C (  4)  1.402519  2.574068  2.371967
   C (  5)  2.370144  2.574361  1.402930  1.408840
   H (  6)  2.196441  3.640530  3.402051  1.100043  2.207781
   H (  7)  3.400479  3.641286  2.196280  2.207502  1.100249  2.600267
   C (  8)  1.478200  2.727170  3.927656  2.612756  3.743575  3.008704
   H (  9)  1.831192  3.441250  4.258596  2.396084  3.710377  2.391396
   H ( 10)  2.156430  3.056375  4.185842  3.099183  4.073242  3.493559
   H ( 11)  2.335294  3.565168  4.871133  3.432000  4.658330  3.638432
   H ( 12)  3.658866  2.518517  1.095223  3.436712  2.277529  4.424143
             H (  7)   C (  8)   H (  9)   H ( 10)   H ( 11)
   C (  8)  4.724480
   H (  9)  4.531257  1.080007
   H ( 10)  5.010180  1.079986  1.526862
   H ( 11)  5.617121  1.080057  1.527547  1.820017
   H ( 12)  2.710929  4.944261  5.329234  5.127917  5.887419
 
 Requested basis set is rimp2-cc-pVTZ
 There are 207 shells and 707 basis functions
 A cutoff of  1.0D-10 yielded   4383 shell pairs
 There are     32913 function pairs (     42575 Cartesian)
 Smallest overlap matrix eigenvalue = 1.53E-04

 Scale SEOQF with 1.000000e+00/1.000000e-01/1.000000e-01

 Standard Electronic Orientation quadrupole field applied
 Nucleus-field energy     =     0.0000000052 hartrees
 Guess from superposition of atomic densities
 Warning:  Energy on first SCF cycle will be non-variational
 SAD guess density has 52.000000 electrons

 -----------------------------------------------------------------------
  General SCF calculation program by
  Eric Jon Sundstrom, Paul Horn, Yuezhi Mao, Dmitri Zuev, Alec White,
  David Stuck, Shaama M.S., Shane Yost, Joonho Lee, David Small,
  Daniel Levine, Susi Lehtola, Hugh Burton, Evgeny Epifanovsky,
  Bang C. Huynh
 -----------------------------------------------------------------------
 Hartree-Fock
 using 64 threads for integral computing
 -------------------------------------------------------
 OpenMP Integral computing Module                
 Release: version 1.0, May 2013, Q-Chem Inc. Pittsburgh 
 -------------------------------------------------------
 A restricted SCF calculation will be
 performed using DIIS
 SCF converges when DIIS error is below 1.0e-06
 ---------------------------------------
  Cycle       Energy         DIIS error
 ---------------------------------------
    1    -592.5883737767      3.23e-02  
    2    -590.2946354468      2.14e-03  
    3    -590.3546654574      7.60e-04  
    4    -590.3611674486      3.67e-04  
    5    -590.3628669778      7.03e-05  
    6    -590.3629902088      2.96e-05  
    7    -590.3630218771      1.52e-05  
    8    -590.3630321031      5.81e-06  
    9    -590.3630338602      2.25e-06  
   10    -590.3630340269      6.46e-07  Convergence criterion met
 ---------------------------------------
 SCF time:   CPU 481.23s  wall 8.00s 

************** Final PCM Free Energy Summary **************
 G_electrostatic  =      -0.00557687 hartree =      -3.49954018 kcal/mol
 G_cavitation     =       0.00000000 hartree =       0.00000000 kcal/mol
 G_dispersion     =       0.00000000 hartree =       0.00000000 kcal/mol
 G_repulsion      =       0.00000000 hartree =       0.00000000 kcal/mol
 --------------------------------------------------
 Non-electrostatic Free Energy =       0.00000000 hartree =       0.00000000 kcal/mol
 Total                         =      -0.00557687 hartree =      -3.49954018 kcal/mol
 --------------------------------------------------
 SCF Energy (H0 + V/2)                       =    -590.36303403 
 Solute Internal Energy (H0)                 =    -590.35745715 
 Total Free Energy (H0 + V/2 + non-elec)     =    -590.36303403 hartree
                                             = -370458.39518016 kcal/mol
***********************************************************

 SCF   energy in the final basis set =     -590.3630340269
 Total energy in the final basis set =     -590.3630340269


 --------------------------------------------------------------
  Generalized many-body perturbation theory program
  by Joonho Lee, Fazle Rob, Xintian Feng, Evgeny Epifanovsky

 No regularization used 
 (reg. param. = 0.0000e+00)
  (P|Q)^-1/2 Time:  CPU 5.54 s  wall 0.09 s

 In RI-MP2 calculation: 
 # of frozen core orbitals: 10

 Components of the RIMP2 correlation energy:
        aaaa    correlation energy =        -0.1258258260 a.u.
        abab    correlation energy =        -0.7527786057 a.u.
        bbbb    correlation energy =        -0.1258258260 a.u.
        non-Brillouin singles      =        -0.0000000000 a.u.
        total same-spin energy     =        -0.2516516520 a.u.
        total opposite-spin energy =        -0.7527786057 a.u.

 Total  RIMP2   correlation energy =        -1.0044302577 a.u.
        RIMP2         total energy =      -591.3674642846 a.u.

 RI-MP2 Energy Time:  CPU 24.32 s  wall 0.42 s
 
 --------------------------------------------------------------
 
                    Orbital Energies (a.u.)
 --------------------------------------------------------------
 
 Alpha MOs
 -- Occupied --
-91.9747 -11.2810 -11.2717 -11.2435 -11.2424 -11.2219  -8.9749  -6.6558
 -6.6552  -6.6547  -1.1588  -1.0374  -0.9737  -0.9166  -0.7556  -0.7249
 -0.6720  -0.5968  -0.5717  -0.5582  -0.5397  -0.4960  -0.4677  -0.4366
 -0.3442  -0.3124
 -- Virtual --
  0.0938   0.1517   0.1609   0.1771   0.1920   0.1960   0.2083   0.2284
  0.2376   0.2543   0.3078   0.3393   0.3645   0.3732   0.3855   0.4009
  0.4215   0.4473   0.4564   0.4715   0.4761   0.5128   0.5237   0.5306
  0.5373   0.5529   0.5636   0.5753   0.6017   0.6075   0.6162   0.6224
  0.6344   0.6438   0.6608   0.6715   0.6761   0.7114   0.7375   0.7536
  0.7882   0.7963   0.8237   0.8428   0.8652   0.8840   0.8896   0.9248
  0.9523   0.9910   1.0093   1.0162   1.0646   1.0774   1.1140   1.1216
  1.1587   1.1632   1.1763   1.2043   1.2096   1.2282   1.2517   1.2697
  1.2820   1.3183   1.3244   1.3364   1.3715   1.3927   1.4141   1.4501
  1.4619   1.4954   1.5019   1.5197   1.5371   1.5440   1.5690   1.5815
  1.5944   1.6284   1.6468   1.6798   1.6888   1.7277   1.7656   1.8097
  1.8135   1.8908   1.9113   1.9146   1.9439   1.9929   2.0288   2.0961
  2.1307   2.1592   2.1793   2.2178   2.2477   2.2694   2.3261   2.4110
  2.4299   2.4615   2.4898   2.5111   2.5719   2.6005   2.6308   2.6569
  2.6929   2.7166   2.7277   2.7496   2.7549   2.8086   2.8294   2.8589
  2.8787   2.9104   2.9145   2.9454   2.9546   3.0015   3.0254   3.0602
  3.0815   3.0953   3.1311   3.1549   3.1723   3.1940   3.2111   3.2281
  3.2602   3.2718   3.2856   3.3115   3.3193   3.3392   3.3551   3.3647
  3.4083   3.4120   3.4536   3.4538   3.4606   3.4809   3.5046   3.5062
  3.5134   3.5423   3.5555   3.5870   3.5916   3.6192   3.6410   3.6673
  3.6791   3.7026   3.7116   3.7236   3.7537   3.7625   3.8105   3.8257
  3.8376   3.8826   3.8916   3.9085   3.9461   3.9579   3.9688   3.9712
  4.0131   4.0317   4.0513   4.1067   4.1236   4.1518   4.1652   4.1884
  4.2232   4.2407   4.2612   4.2887   4.3020   4.3617   4.3821   4.4148
  4.4353   4.4606   4.4691   4.4895   4.5680   4.5884   4.6197   4.6617
  4.6903   4.7093   4.7175   4.7635   4.7826   4.8081   4.8233   4.8792
  4.9402   5.0029   5.0237   5.0414   5.0766   5.1365   5.1754   5.2003
  5.2101   5.2868   5.3671   5.4087   5.4259   5.4866   5.5285   5.5917
  5.6240   5.7399   5.7561   5.8047   5.9103   5.9262   5.9879   6.0446
  6.0844   6.2932   6.3990   6.4503   6.6333   9.4109  11.3576  12.7094
 13.9238  14.1099
 --------------------------------------------------------------
 
          Ground-State Mulliken Net Atomic Charges

     Atom                 Charge (a.u.)
  ----------------------------------------
      1 C                     0.016920
      2 S                    -0.005661
      3 C                    -0.221157
      4 C                    -0.217569
      5 C                    -0.197672
      6 H                     0.181606
      7 H                     0.187741
      8 C                    -0.358161
      9 H                     0.119149
     10 H                     0.137955
     11 H                     0.152622
     12 H                     0.204228
  ----------------------------------------
  Sum of atomic charges =     0.000000

 -----------------------------------------------------------------
                    Cartesian Multipole Moments
 -----------------------------------------------------------------
    Charge (ESU x 10^10)
                -0.0000
    Dipole Moment (Debye)
         X       0.7814      Y      -0.2511      Z      -1.7674
       Tot       1.9487
    Quadrupole Moments (Debye-Ang)
        XX     -46.0096     XY       3.4197     YY     -37.8380
        XZ       0.5135     YZ       2.0385     ZZ     -41.9720
    Octopole Moments (Debye-Ang^2)
       XXX     -32.0516    XXY     -15.7014    XYY      -1.5614
       YYY     -38.9137    XXZ      -6.3187    XYZ       0.9990
       YYZ      -6.4535    XZZ      -6.9182    YZZ      -8.0521
       ZZZ     -27.9280
    Hexadecapole Moments (Debye-Ang^3)
      XXXX    -125.2412   XXXY     -71.6130   XXYY     -93.3320
      XYYY     -40.9837   YYYY    -465.5037   XXXZ      -3.6977
      XXYZ      -5.1474   XYYZ       3.9963   YYYZ      -7.3877
      XXZZ     -74.5763   XYZZ     -12.8765   YYZZ    -122.4943
      XZZZ      -2.7394   YZZZ     -19.4889   ZZZZ    -307.9461
 -----------------------------------------------------------------
 Total job time:  10.54s(wall), 548.15s(cpu) 
 Wed Dec 27 10:06:18 2023

        *************************************************************
        *                                                           *
        *  Thank you very much for using Q-Chem.  Have a nice day.  *
        *                                                           *
        *************************************************************


0 sent ACK to 0 
now end server 0 ... 
cleanup process ... done
remove work dirs ./qchem2758347.0 -- ./qchem2758347.0
rm -rf ./qchem2758347.0
rm -rf ./qchem2758347
