You are running Q-Chem version: 5.4.0

#
# job setting
#
local host:  exp-6-47
current dir: /home/rramji/project-csd799/aromodel/pndit-qchem/methylated-rotation-run
input file:  Dimethyl_Naphthalene_Dicarboximide_Phi_25_Theta_100_Thiophene_Hydrogenated_Improper.qcin
output file: 
nprocs     : 1
nthreads   : 64
#
# qchem installation setting
#
QC:          /cm/shared/apps/spack/cpu/opt/spack/linux-centos8-zen2/gcc-10.2.0/qchem-5.4-akfmr7b3t57bfs6qan3padb2wnb2i7cl
QCAUX:       /cm/shared/apps/spack/cpu/opt/spack/linux-centos8-zen2/gcc-10.2.0/qchem-5.4-akfmr7b3t57bfs6qan3padb2wnb2i7cl/qcaux
QCPROG:      /cm/shared/apps/spack/cpu/opt/spack/linux-centos8-zen2/gcc-10.2.0/qchem-5.4-akfmr7b3t57bfs6qan3padb2wnb2i7cl/exe/qcprog.exe
QCPROG_S:    /cm/shared/apps/spack/cpu/opt/spack/linux-centos8-zen2/gcc-10.2.0/qchem-5.4-akfmr7b3t57bfs6qan3padb2wnb2i7cl/exe/qcprog.exe_s
PARALLEL:    -DPARALLEL
QCMPI:       mpich
#
# qchem directory setting
#
qcrun:       qchem2752584
QCSCRATCH:   .
QCLOCALSCR:  
QCTMPDIR:    .
QCFILEPREF:  ./qchem2752584
QCSAVEDIR:   
workdirs:    ./qchem2752584
workdir0:    ./qchem2752584
partmpdirs =  
#
# parallel setting
#
QCRSH:           ssh
QCMPI:           mpich
QCMPIRUN:        /cm/shared/apps/spack/cpu/opt/spack/linux-centos8-zen2/gcc-10.2.0/qchem-5.4-akfmr7b3t57bfs6qan3padb2wnb2i7cl/bin/mpi/mpirun_qchem
QCMACHINEFILE:   ./qchem2752584/hostfile
exp-6-47

#
# env setting
#
exported envs:   QC QCAUX QCSCRATCH QCRUNNAME QCFILEPREF QCPROG QCPROG_S GUIFILE

Running Job 1 of 1 Dimethyl_Naphthalene_Dicarboximide_Phi_25_Theta_100_Thiophene_Hydrogenated_Improper.qcin
qchem Dimethyl_Naphthalene_Dicarboximide_Phi_25_Theta_100_Thiophene_Hydrogenated_Improper.qcin_2752584.0 ./qchem2752584/ 1
/cm/shared/apps/spack/cpu/opt/spack/linux-centos8-zen2/gcc-10.2.0/qchem-5.4-akfmr7b3t57bfs6qan3padb2wnb2i7cl/bin/mpi/mpirun_qchem -machinefile ./qchem2752584/hostfile -np 1 /cm/shared/apps/spack/cpu/opt/spack/linux-centos8-zen2/gcc-10.2.0/qchem-5.4-akfmr7b3t57bfs6qan3padb2wnb2i7cl/exe/qcprog.exe Dimethyl_Naphthalene_Dicarboximide_Phi_25_Theta_100_Thiophene_Hydrogenated_Improper.qcin_2752584.0 ./qchem2752584/

Process 0 of 1 is on exp-6-47 - thread support 0
initial socket setup ...start
initial socket setup ...done 
now start server 0 ... 
                  Welcome to Q-Chem
     A Quantum Leap Into The Future Of Chemistry


 Q-Chem 5.4, Q-Chem, Inc., Pleasanton, CA (2021)

 License issued to: University of California, San Diego (site)

 E. Epifanovsky,  A. T. B. Gilbert,  Xintian Feng,  Joonho Lee,  Yuezhi Mao,  
 N. Mardirossian,  P. Pokhilko,  A. White,  M. Wormit,  M. P. Coons,  
 A. L. Dempwolff,  Zhengting Gan,  D. Hait,  P. R. Horn,  L. D. Jacobson,  
 I. Kaliman,  J. Kussmann,  A. W. Lange,  Ka Un Lao,  D. S. Levine,  Jie Liu,  
 S. C. McKenzie,  A. F. Morrison,  K. Nanda,  F. Plasser,  D. R. Rehn,  
 M. L. Vidal,  Zhi-Qiang You,  Ying Zhu,  B. Alam,  B. Albrecht,  
 A. Aldossary,  E. Alguire,  J. H. Andersen,  D. Barton,  K. Begam,  A. Behn,  
 Y. A. Bernard,  E. J. Berquist,  H. Burton,  A. Carreras,  K. Carter-Fenk,  
 R. Chakraborty,  A. D. Chien,  K. D. Closser,  V. Cofer-Shabica,  
 S. Dasgupta,  Jia Deng,  M. de Wergifosse,  M. Diedenhofen,  Hainam Do,  
 S. Ehlert,  Po-Tung Fang,  S. Fatehi,  Qingguo Feng,  J. Gayvert,  
 Qinghui Ge,  G. Gidofalvi,  M. Goldey,  J. Gomes,  C. Gonzalez-Espinoza,  
 S. Gulania,  A. Gunina,  M. W. D. Hanson-Heine,  P. H. P. Harbach,  
 A. W. Hauser,  M. F. Herbst,  M. Hernandez Vera,  M. Hodecker,  
 Z. C. Holden,  S. Houck,  Xunkun Huang,  Kerwin Hui,  B. C. Huynh,  
 M. Ivanov,  Hyunjun Ji,  Hanjie Jiang,  B. Kaduk,  S. Kaehler,  
 K. Khistyaev,  Jaehoon Kim,  P. Klunzinger,  Z. Koczor-Benda,  
 Joong Hoon Koh,  D. Kosenkov,  L. Koulias,  T. Kowalczyk,  C. M. Krauter,  
 K. Kue,  A. Kunitsa,  T. Kus,  A. Landau,  K. V. Lawler,  D. Lefrancois,  
 S. Lehtola,  Rain Li,  Yi-Pei Li,  Jiashu Liang,  M. Liebenthal,  
 Hung-Hsuan Lin,  You-Sheng Lin,  Fenglai Liu,  Kuan-Yu Liu,  
 M. Loipersberger,  A. Luenser,  A. Manjanath,  P. Manohar,  E. Mansoor,  
 S. F. Manzer,  Shan-Ping Mao,  A. V. Marenich,  T. Markovich,  S. Mason,  
 S. A. Maurer,  P. F. McLaughlin,  M. F. S. J. Menger,  J.-M. Mewes,  
 S. A. Mewes,  P. Morgante,  J. W. Mullinax,  T. S. Nguyen-Beck,  
 K. J. Oosterbaan,  G. Paran,  Alexander C. Paul,  Suranjan K. Paul,  
 F. Pavosevic,  Zheng Pei,  S. Prager,  E. I. Proynov,  E. Ramos,  B. Rana,  
 A. E. Rask,  A. Rettig,  R. M. Richard,  F. Rob,  E. Rossomme,  T. Scheele,  
 M. Scheurer,  M. Schneider,  N. Sergueev,  S. M. Sharada,  W. Skomorowski,  
 D. W. Small,  C. J. Stein,  Yu-Chuan Su,  E. J. Sundstrom,  Zhen Tao,  
 J. Thirman,  T. Tsuchimochi,  N. M. Tubman,  S. P. Veccham,  O. Vydrov,  
 J. Wenzel,  J. Witte,  A. Yamada,  Kun Yao,  S. Yeganeh,  S. R. Yost,  
 A. Zech,  Igor Ying Zhang,  Xing Zhang,  Yu Zhang,  D. Zuev,  
 A. Aspuru-Guzik,  A. T. Bell,  N. A. Besley,  K. B. Bravaya,  B. R. Brooks,  
 D. Casanova,  Jeng-Da Chai,  S. Coriani,  C. J. Cramer,  
 A. E. DePrince, III,  R. A. DiStasio Jr.,  A. Dreuw,  B. D. Dunietz,  
 T. R. Furlani,  W. A. Goddard III,  S. Grimme,  S. Hammes-Schiffer,  
 T. Head-Gordon,  W. J. Hehre,  Chao-Ping Hsu,  T.-C. Jagau,  Yousung Jung,  
 A. Klamt,  Jing Kong,  D. S. Lambrecht,  WanZhen Liang,  N. J. Mayhall,  
 C. W. McCurdy,  J. B. Neaton,  C. Ochsenfeld,  J. A. Parkhill,  R. Peverati,  
 V. A. Rassolov,  Yihan Shao,  L. V. Slipchenko,  T. Stauch,  R. P. Steele,  
 J. E. Subotnik,  A. J. W. Thom,  A. Tkatchenko,  D. G. Truhlar,  
 T. Van Voorhis,  T. A. Wesolowski,  K. B. Whaley,  H. L. Woodcock III,  
 P. M. Zimmerman,  S. Faraji,  P. M. W. Gill,  M. Head-Gordon,  
 J. M. Herbert,  A. I. Krylov

 Contributors to earlier versions of Q-Chem not listed above: 
 R. D. Adamson,  B. Austin,  R. Baer,  J. Baker,  G. J. O. Beran,  
 K. Brandhorst,  S. T. Brown,  E. F. C. Byrd,  A. K. Chakraborty,  
 G. K. L. Chan,  Chun-Min Chang,  Yunqing Chen,  C.-L. Cheng,  
 Siu Hung Chien,  D. M. Chipman,  D. L. Crittenden,  H. Dachsel,  
 R. J. Doerksen,  A. D. Dutoi,  R. G. Edgar,  J. Fosso-Tande,  
 L. Fusti-Molnar,  D. Ghosh,  A. Ghysels,  A. Golubeva-Zadorozhnaya,  
 J. Gonthier,  M. S. Gordon,  S. R. Gwaltney,  G. Hawkins,  J. E. Herr,  
 A. Heyden,  S. Hirata,  E. G. Hohenstein,  G. Kedziora,  F. J. Keil,  
 C. Kelley,  Jihan Kim,  R. A. King,  R. Z. Khaliullin,  P. P. Korambath,  
 W. Kurlancheek,  A. Laurent,  A. M. Lee,  M. S. Lee,  S. V. Levchenko,  
 Ching Yeh Lin,  D. Liotard,  E. Livshits,  R. C. Lochan,  I. Lotan,  
 L. A. Martinez-Martinez,  P. E. Maslen,  N. Nair,  D. P. O'Neill,  
 D. Neuhauser,  E. Neuscamman,  C. M. Oana,  R. Olivares-Amaya,  R. Olson,  
 T. M. Perrine,  B. Peters,  P. A. Pieniazek,  A. Prociuk,  Y. M. Rhee,  
 J. Ritchie,  M. A. Rohrdanz,  E. Rosta,  N. J. Russ,  H. F. Schaefer III,  
 M. W. Schmidt,  N. E. Schultz,  S. Sharma,  N. Shenvi,  C. D. Sherrill,  
 A. C. Simmonett,  A. Sodt,  T. Stein,  D. Stuck,  K. S. Thanthiriwatte,  
 V. Vanovschi,  L. Vogt,  Tao Wang,  A. Warshel,  M. A. Watson,  
 C. F. Williams,  Q. Wu,  X. Xu,  Jun Yang,  W. Zhang,  Yan Zhao

 Please cite Q-Chem as follows:
 Y. Shao et al., Mol. Phys. 113, 184-215 (2015)
 DOI: 10.1080/00268976.2014.952696

 Q-Chem 5.4.0 for Intel X86 EM64T Linux

 Parts of Q-Chem use Armadillo 9.800.1 (Horizon Scraper).
 http://arma.sourceforge.net/

 Q-Chem begins on Wed Dec 27 10:02:08 2023  

 Host: 
0

     Scratch files written to ./qchem2752584//
 May1621 |scratch|qcdevops|jenkins|workspace|build_RNUM    
 Parallel job on  1  processors
 Processing $rem in /cm/shared/apps/spack/cpu/opt/spack/linux-centos8-zen2/gcc-10.2.0/qchem-5.4-akfmr7b3t57bfs6qan3padb2wnb2i7cl/config/preferences:
 Processing $rem in /home/rramji/.qchemrc:
 Symmetry turned off for PCM/SM12/SMD calculation
 Core orbitals will be frozen

 Checking the input file for inconsistencies... 	...done.

 Q-Chem warning in module forms1/BasisType.C, line 2236:

 You are not using the predefined 5D/6D in this basis set.


--------------------------------------------------------------
User input:
--------------------------------------------------------------
$molecule
0 1
C	-0.217194	-0.350804	-0.219778
S	0.117806	0.368096	1.360722
C	0.809906	1.852396	0.685122
C	0.204406	0.553796	-1.205178
C	0.762306	1.750296	-0.713278
H	0.104806	0.340196	-2.279678
H	1.134506	2.548796	-1.372378
C	-0.217194	-1.829004	-0.219778
H	-0.405294	-1.829604	0.843722
H	-1.188794	-2.268304	-0.391178
H	0.583506	-2.540004	-0.078778
H	1.182006	2.650596	1.336222
$end

$rem
JOBTYPE		SP
EXCHANGE	HF
CORRELATION	pRIMP2
BASIS		cc-pvtz
METHOD		rimp2
AUX_BASIS	rimp2-cc-pvtz
SOLVENT_METHOD	PCM
PURECART	11111
SYMMETRY	false
MEM_TOTAL	110000
SCF_CONVERGENCE = 6
THRESH=10
GUI = 2
$end



$solvent
dielectric 4.90
$end
--------------------------------------------------------------
 ----------------------------------------------------------------
             Standard Nuclear Orientation (Angstroms)
    I     Atom           X                Y                Z
 ----------------------------------------------------------------
    1      C      -0.2171940000    -0.3508040000    -0.2197780000
    2      S       0.1178060000     0.3680960000     1.3607220000
    3      C       0.8099060000     1.8523960000     0.6851220000
    4      C       0.2044060000     0.5537960000    -1.2051780000
    5      C       0.7623060000     1.7502960000    -0.7132780000
    6      H       0.1048060000     0.3401960000    -2.2796780000
    7      H       1.1345060000     2.5487960000    -1.3723780000
    8      C      -0.2171940000    -1.8290040000    -0.2197780000
    9      H      -0.4052940000    -1.8296040000     0.8437220000
   10      H      -1.1887940000    -2.2683040000    -0.3911780000
   11      H       0.5835060000    -2.5400040000    -0.0787780000
   12      H       1.1820060000     2.6505960000     1.3362220000
 ----------------------------------------------------------------
 Nuclear Repulsion Energy =         271.57239398 hartrees
 There are       26 alpha and       26 beta electrons
 Requested basis set is cc-pVTZ
 There are 98 shells and 268 basis functions

 Total QAlloc Memory Limit 110000 MB
 Mega-Array Size       188 MB
 MEM_STATIC part       192 MB
 Discretize the solute cavity surface with Lebedev spheres
	Using 110 Lebedev grid points for each H atom
	Using 194 Lebedev grid points for other atoms
	Atomic van der Waals radii will be scaled by 1.20
 Remove points where switching function is < 1.0e-08
 Keep 880 surface tesserae and discard 944 interior tesserae
 Molecular Surface Area = 137.137 Angst**2

                       Distance Matrix (Angstroms)
             C (  1)   S (  2)   C (  3)   C (  4)   C (  5)   H (  6)
   S (  2)  1.768339
   C (  3)  2.593814  1.771605
   C (  4)  1.402519  2.574068  2.371967
   C (  5)  2.370144  2.574361  1.402930  1.408840
   H (  6)  2.196441  3.640530  3.402051  1.100043  2.207781
   H (  7)  3.400479  3.641286  2.196280  2.207502  1.100249  2.600267
   C (  8)  1.478200  2.727170  3.927656  2.612756  3.743575  3.008704
   H (  9)  1.831192  2.317500  3.880591  3.201612  4.074705  3.837168
   H ( 10)  2.156430  3.424465  4.704614  3.250823  4.478804  3.470462
   H ( 11)  2.335294  3.278122  4.464076  3.314226  4.340649  3.656319
   H ( 12)  3.658866  2.518517  1.095223  3.436712  2.277529  4.424143
             H (  7)   C (  8)   H (  9)   H ( 10)   H ( 11)
   C (  8)  4.724480
   H (  9)  5.143196  1.080007
   H ( 10)  5.437364  1.079986  1.526862
   H ( 11)  5.279478  1.080057  1.527547  1.820017
   H ( 12)  2.710929  4.944261  4.778522  5.727144  5.413202
 
 Requested basis set is rimp2-cc-pVTZ
 There are 207 shells and 707 basis functions
 A cutoff of  1.0D-10 yielded   4384 shell pairs
 There are     32866 function pairs (     42492 Cartesian)
 Smallest overlap matrix eigenvalue = 1.54E-04

 Scale SEOQF with 1.000000e+00/1.000000e-01/1.000000e-01

 Standard Electronic Orientation quadrupole field applied
 Nucleus-field energy     =     0.0000000054 hartrees
 Guess from superposition of atomic densities
 Warning:  Energy on first SCF cycle will be non-variational
 SAD guess density has 52.000000 electrons

 -----------------------------------------------------------------------
  General SCF calculation program by
  Eric Jon Sundstrom, Paul Horn, Yuezhi Mao, Dmitri Zuev, Alec White,
  David Stuck, Shaama M.S., Shane Yost, Joonho Lee, David Small,
  Daniel Levine, Susi Lehtola, Hugh Burton, Evgeny Epifanovsky,
  Bang C. Huynh
 -----------------------------------------------------------------------
 Hartree-Fock
 using 64 threads for integral computing
 -------------------------------------------------------
 OpenMP Integral computing Module                
 Release: version 1.0, May 2013, Q-Chem Inc. Pittsburgh 
 -------------------------------------------------------
 A restricted SCF calculation will be
 performed using DIIS
 SCF converges when DIIS error is below 1.0e-06
 ---------------------------------------
  Cycle       Energy         DIIS error
 ---------------------------------------
    1    -592.6044831741      3.23e-02  
    2    -590.2871024181      2.17e-03  
    3    -590.3480583231      7.92e-04  
    4    -590.3550005029      3.72e-04  
    5    -590.3568256382      7.15e-05  
    6    -590.3569589475      3.01e-05  
    7    -590.3569932861      1.50e-05  
    8    -590.3570033875      5.78e-06  
    9    -590.3570050143      2.44e-06  
   10    -590.3570052022      6.87e-07  Convergence criterion met
 ---------------------------------------
 SCF time:   CPU 484.72s  wall 9.00s 

************** Final PCM Free Energy Summary **************
 G_electrostatic  =      -0.00510250 hartree =      -3.20186635 kcal/mol
 G_cavitation     =       0.00000000 hartree =       0.00000000 kcal/mol
 G_dispersion     =       0.00000000 hartree =       0.00000000 kcal/mol
 G_repulsion      =       0.00000000 hartree =       0.00000000 kcal/mol
 --------------------------------------------------
 Non-electrostatic Free Energy =       0.00000000 hartree =       0.00000000 kcal/mol
 Total                         =      -0.00510250 hartree =      -3.20186635 kcal/mol
 --------------------------------------------------
 SCF Energy (H0 + V/2)                       =    -590.35700520 
 Solute Internal Energy (H0)                 =    -590.35190270 
 Total Free Energy (H0 + V/2 + non-elec)     =    -590.35700520 hartree
                                             = -370454.61203556 kcal/mol
***********************************************************

 SCF   energy in the final basis set =     -590.3570052022
 Total energy in the final basis set =     -590.3570052022


 --------------------------------------------------------------
  Generalized many-body perturbation theory program
  by Joonho Lee, Fazle Rob, Xintian Feng, Evgeny Epifanovsky

 No regularization used 
 (reg. param. = 0.0000e+00)
  (P|Q)^-1/2 Time:  CPU 5.38 s  wall 0.09 s

 In RI-MP2 calculation: 
 # of frozen core orbitals: 10

 Components of the RIMP2 correlation energy:
        aaaa    correlation energy =        -0.1258774326 a.u.
        abab    correlation energy =        -0.7532810113 a.u.
        bbbb    correlation energy =        -0.1258774326 a.u.
        non-Brillouin singles      =        -0.0000000000 a.u.
        total same-spin energy     =        -0.2517548653 a.u.
        total opposite-spin energy =        -0.7532810113 a.u.

 Total  RIMP2   correlation energy =        -1.0050358765 a.u.
        RIMP2         total energy =      -591.3620410787 a.u.

 RI-MP2 Energy Time:  CPU 23.56 s  wall 0.43 s
 
 --------------------------------------------------------------
 
                    Orbital Energies (a.u.)
 --------------------------------------------------------------
 
 Alpha MOs
 -- Occupied --
-91.9799 -11.2757 -11.2741 -11.2434 -11.2401 -11.2207  -8.9800  -6.6608
 -6.6602  -6.6597  -1.1595  -1.0385  -0.9744  -0.9164  -0.7603  -0.7210
 -0.6716  -0.5949  -0.5695  -0.5623  -0.5396  -0.4902  -0.4624  -0.4474
 -0.3458  -0.3126
 -- Virtual --
  0.0916   0.1468   0.1608   0.1764   0.1918   0.1954   0.2069   0.2253
  0.2339   0.2847   0.3002   0.3096   0.3677   0.3719   0.3885   0.4012
  0.4299   0.4494   0.4561   0.4731   0.4846   0.5112   0.5294   0.5339
  0.5398   0.5596   0.5670   0.5831   0.6048   0.6068   0.6136   0.6220
  0.6285   0.6494   0.6512   0.6606   0.6823   0.7049   0.7363   0.7565
  0.7772   0.7900   0.8269   0.8535   0.8723   0.8825   0.8926   0.9239
  0.9439   0.9892   0.9893   1.0297   1.0645   1.0728   1.1167   1.1299
  1.1303   1.1561   1.1680   1.2073   1.2309   1.2348   1.2422   1.2527
  1.2859   1.3081   1.3289   1.3431   1.3783   1.3959   1.4275   1.4355
  1.4732   1.4866   1.4995   1.5247   1.5481   1.5504   1.5779   1.5881
  1.6026   1.6287   1.6451   1.6676   1.6976   1.7305   1.7571   1.8228
  1.8389   1.8983   1.9100   1.9389   1.9453   1.9728   2.0412   2.0978
  2.1361   2.1777   2.1846   2.2210   2.2441   2.2731   2.3336   2.4239
  2.4330   2.4675   2.4848   2.5169   2.5918   2.5935   2.6078   2.6605
  2.6959   2.7185   2.7275   2.7312   2.7470   2.7855   2.8156   2.8370
  2.8650   2.8964   2.9141   2.9591   2.9867   3.0128   3.0239   3.0592
  3.0803   3.1098   3.1354   3.1431   3.1649   3.1971   3.2032   3.2297
  3.2578   3.2720   3.2804   3.3007   3.3193   3.3485   3.3626   3.3713
  3.3905   3.4291   3.4390   3.4433   3.4578   3.4661   3.4923   3.5078
  3.5136   3.5420   3.5438   3.5840   3.5870   3.6189   3.6465   3.6583
  3.6907   3.6981   3.7298   3.7401   3.7723   3.8028   3.8196   3.8582
  3.8724   3.8788   3.8905   3.9286   3.9533   3.9589   3.9760   3.9868
  4.0025   4.0233   4.0710   4.0966   4.1266   4.1613   4.1735   4.2044
  4.2052   4.2383   4.2625   4.2861   4.3182   4.3405   4.3810   4.4272
  4.4302   4.4438   4.4739   4.4865   4.5278   4.5479   4.6182   4.6657
  4.6729   4.6863   4.6987   4.7277   4.7954   4.8108   4.8395   4.8866
  4.9465   5.0059   5.0219   5.0284   5.0955   5.1404   5.1744   5.2062
  5.2347   5.2857   5.3583   5.4094   5.4479   5.4894   5.5333   5.6016
  5.6358   5.7029   5.7604   5.7881   5.8848   5.9438   5.9887   6.0563
  6.0967   6.3115   6.4169   6.4536   6.6524   9.3718  11.3424  12.7306
 14.0154  14.0674
 --------------------------------------------------------------
 
          Ground-State Mulliken Net Atomic Charges

     Atom                 Charge (a.u.)
  ----------------------------------------
      1 C                    -0.007863
      2 S                    -0.001743
      3 C                    -0.222745
      4 C                    -0.206373
      5 C                    -0.189540
      6 H                     0.184341
      7 H                     0.186485
      8 C                    -0.337298
      9 H                     0.109340
     10 H                     0.123863
     11 H                     0.154888
     12 H                     0.206643
  ----------------------------------------
  Sum of atomic charges =     0.000000

 -----------------------------------------------------------------
                    Cartesian Multipole Moments
 -----------------------------------------------------------------
    Charge (ESU x 10^10)
                -0.0000
    Dipole Moment (Debye)
         X       0.5945      Y      -0.0047      Z      -0.4816
       Tot       0.7651
    Quadrupole Moments (Debye-Ang)
        XX     -45.8966     XY       3.5312     YY     -37.8897
        XZ       0.3393     YZ      -0.3959     ZZ     -42.2289
    Octopole Moments (Debye-Ang^2)
       XXX     -31.7092    XXY     -15.2993    XYY       0.0690
       YYY     -37.9731    XXZ      -6.8319    XYZ       1.5899
       YYZ      -1.3453    XZZ      -6.4326    YZZ      -6.6238
       ZZZ     -29.1620
    Hexadecapole Moments (Debye-Ang^3)
      XXXX    -126.1564   XXXY     -72.1937   XXYY     -94.1647
      XYYY     -49.1453   YYYY    -466.1038   XXXZ      -2.7831
      XXYZ      -3.2013   XYYZ       2.9638   YYYZ     -12.6305
      XXZZ     -74.0762   XYZZ     -13.9574   YYZZ    -124.0919
      XZZZ      -1.9375   YZZZ     -13.0725   ZZZZ    -302.1813
 -----------------------------------------------------------------
 Total job time:  9.97s(wall), 541.54s(cpu) 
 Wed Dec 27 10:02:18 2023

        *************************************************************
        *                                                           *
        *  Thank you very much for using Q-Chem.  Have a nice day.  *
        *                                                           *
        *************************************************************


0 sent ACK to 0 
now end server 0 ... 
cleanup process ... done
remove work dirs ./qchem2752584.0 -- ./qchem2752584.0
rm -rf ./qchem2752584.0
rm -rf ./qchem2752584
