You are running Q-Chem version: 5.4.0

#
# job setting
#
local host:  exp-6-47
current dir: /home/rramji/project-csd799/aromodel/pndit-qchem/methylated-rotation-run
input file:  Dimethyl_Naphthalene_Dicarboximide_Phi_30_Theta_300_Thiophene_Hydrogenated_Improper.qcin
output file: 
nprocs     : 1
nthreads   : 64
#
# qchem installation setting
#
QC:          /cm/shared/apps/spack/cpu/opt/spack/linux-centos8-zen2/gcc-10.2.0/qchem-5.4-akfmr7b3t57bfs6qan3padb2wnb2i7cl
QCAUX:       /cm/shared/apps/spack/cpu/opt/spack/linux-centos8-zen2/gcc-10.2.0/qchem-5.4-akfmr7b3t57bfs6qan3padb2wnb2i7cl/qcaux
QCPROG:      /cm/shared/apps/spack/cpu/opt/spack/linux-centos8-zen2/gcc-10.2.0/qchem-5.4-akfmr7b3t57bfs6qan3padb2wnb2i7cl/exe/qcprog.exe
QCPROG_S:    /cm/shared/apps/spack/cpu/opt/spack/linux-centos8-zen2/gcc-10.2.0/qchem-5.4-akfmr7b3t57bfs6qan3padb2wnb2i7cl/exe/qcprog.exe_s
PARALLEL:    -DPARALLEL
QCMPI:       mpich
#
# qchem directory setting
#
qcrun:       qchem2759030
QCSCRATCH:   .
QCLOCALSCR:  
QCTMPDIR:    .
QCFILEPREF:  ./qchem2759030
QCSAVEDIR:   
workdirs:    ./qchem2759030
workdir0:    ./qchem2759030
partmpdirs =  
#
# parallel setting
#
QCRSH:           ssh
QCMPI:           mpich
QCMPIRUN:        /cm/shared/apps/spack/cpu/opt/spack/linux-centos8-zen2/gcc-10.2.0/qchem-5.4-akfmr7b3t57bfs6qan3padb2wnb2i7cl/bin/mpi/mpirun_qchem
QCMACHINEFILE:   ./qchem2759030/hostfile
exp-6-47

#
# env setting
#
exported envs:   QC QCAUX QCSCRATCH QCRUNNAME QCFILEPREF QCPROG QCPROG_S GUIFILE

Running Job 1 of 1 Dimethyl_Naphthalene_Dicarboximide_Phi_30_Theta_300_Thiophene_Hydrogenated_Improper.qcin
qchem Dimethyl_Naphthalene_Dicarboximide_Phi_30_Theta_300_Thiophene_Hydrogenated_Improper.qcin_2759030.0 ./qchem2759030/ 1
/cm/shared/apps/spack/cpu/opt/spack/linux-centos8-zen2/gcc-10.2.0/qchem-5.4-akfmr7b3t57bfs6qan3padb2wnb2i7cl/bin/mpi/mpirun_qchem -machinefile ./qchem2759030/hostfile -np 1 /cm/shared/apps/spack/cpu/opt/spack/linux-centos8-zen2/gcc-10.2.0/qchem-5.4-akfmr7b3t57bfs6qan3padb2wnb2i7cl/exe/qcprog.exe Dimethyl_Naphthalene_Dicarboximide_Phi_30_Theta_300_Thiophene_Hydrogenated_Improper.qcin_2759030.0 ./qchem2759030/

Process 0 of 1 is on exp-6-47 - thread support 0
initial socket setup ...start
initial socket setup ...done 
now start server 0 ... 
                  Welcome to Q-Chem
     A Quantum Leap Into The Future Of Chemistry


 Q-Chem 5.4, Q-Chem, Inc., Pleasanton, CA (2021)

 License issued to: University of California, San Diego (site)

 E. Epifanovsky,  A. T. B. Gilbert,  Xintian Feng,  Joonho Lee,  Yuezhi Mao,  
 N. Mardirossian,  P. Pokhilko,  A. White,  M. Wormit,  M. P. Coons,  
 A. L. Dempwolff,  Zhengting Gan,  D. Hait,  P. R. Horn,  L. D. Jacobson,  
 I. Kaliman,  J. Kussmann,  A. W. Lange,  Ka Un Lao,  D. S. Levine,  Jie Liu,  
 S. C. McKenzie,  A. F. Morrison,  K. Nanda,  F. Plasser,  D. R. Rehn,  
 M. L. Vidal,  Zhi-Qiang You,  Ying Zhu,  B. Alam,  B. Albrecht,  
 A. Aldossary,  E. Alguire,  J. H. Andersen,  D. Barton,  K. Begam,  A. Behn,  
 Y. A. Bernard,  E. J. Berquist,  H. Burton,  A. Carreras,  K. Carter-Fenk,  
 R. Chakraborty,  A. D. Chien,  K. D. Closser,  V. Cofer-Shabica,  
 S. Dasgupta,  Jia Deng,  M. de Wergifosse,  M. Diedenhofen,  Hainam Do,  
 S. Ehlert,  Po-Tung Fang,  S. Fatehi,  Qingguo Feng,  J. Gayvert,  
 Qinghui Ge,  G. Gidofalvi,  M. Goldey,  J. Gomes,  C. Gonzalez-Espinoza,  
 S. Gulania,  A. Gunina,  M. W. D. Hanson-Heine,  P. H. P. Harbach,  
 A. W. Hauser,  M. F. Herbst,  M. Hernandez Vera,  M. Hodecker,  
 Z. C. Holden,  S. Houck,  Xunkun Huang,  Kerwin Hui,  B. C. Huynh,  
 M. Ivanov,  Hyunjun Ji,  Hanjie Jiang,  B. Kaduk,  S. Kaehler,  
 K. Khistyaev,  Jaehoon Kim,  P. Klunzinger,  Z. Koczor-Benda,  
 Joong Hoon Koh,  D. Kosenkov,  L. Koulias,  T. Kowalczyk,  C. M. Krauter,  
 K. Kue,  A. Kunitsa,  T. Kus,  A. Landau,  K. V. Lawler,  D. Lefrancois,  
 S. Lehtola,  Rain Li,  Yi-Pei Li,  Jiashu Liang,  M. Liebenthal,  
 Hung-Hsuan Lin,  You-Sheng Lin,  Fenglai Liu,  Kuan-Yu Liu,  
 M. Loipersberger,  A. Luenser,  A. Manjanath,  P. Manohar,  E. Mansoor,  
 S. F. Manzer,  Shan-Ping Mao,  A. V. Marenich,  T. Markovich,  S. Mason,  
 S. A. Maurer,  P. F. McLaughlin,  M. F. S. J. Menger,  J.-M. Mewes,  
 S. A. Mewes,  P. Morgante,  J. W. Mullinax,  T. S. Nguyen-Beck,  
 K. J. Oosterbaan,  G. Paran,  Alexander C. Paul,  Suranjan K. Paul,  
 F. Pavosevic,  Zheng Pei,  S. Prager,  E. I. Proynov,  E. Ramos,  B. Rana,  
 A. E. Rask,  A. Rettig,  R. M. Richard,  F. Rob,  E. Rossomme,  T. Scheele,  
 M. Scheurer,  M. Schneider,  N. Sergueev,  S. M. Sharada,  W. Skomorowski,  
 D. W. Small,  C. J. Stein,  Yu-Chuan Su,  E. J. Sundstrom,  Zhen Tao,  
 J. Thirman,  T. Tsuchimochi,  N. M. Tubman,  S. P. Veccham,  O. Vydrov,  
 J. Wenzel,  J. Witte,  A. Yamada,  Kun Yao,  S. Yeganeh,  S. R. Yost,  
 A. Zech,  Igor Ying Zhang,  Xing Zhang,  Yu Zhang,  D. Zuev,  
 A. Aspuru-Guzik,  A. T. Bell,  N. A. Besley,  K. B. Bravaya,  B. R. Brooks,  
 D. Casanova,  Jeng-Da Chai,  S. Coriani,  C. J. Cramer,  
 A. E. DePrince, III,  R. A. DiStasio Jr.,  A. Dreuw,  B. D. Dunietz,  
 T. R. Furlani,  W. A. Goddard III,  S. Grimme,  S. Hammes-Schiffer,  
 T. Head-Gordon,  W. J. Hehre,  Chao-Ping Hsu,  T.-C. Jagau,  Yousung Jung,  
 A. Klamt,  Jing Kong,  D. S. Lambrecht,  WanZhen Liang,  N. J. Mayhall,  
 C. W. McCurdy,  J. B. Neaton,  C. Ochsenfeld,  J. A. Parkhill,  R. Peverati,  
 V. A. Rassolov,  Yihan Shao,  L. V. Slipchenko,  T. Stauch,  R. P. Steele,  
 J. E. Subotnik,  A. J. W. Thom,  A. Tkatchenko,  D. G. Truhlar,  
 T. Van Voorhis,  T. A. Wesolowski,  K. B. Whaley,  H. L. Woodcock III,  
 P. M. Zimmerman,  S. Faraji,  P. M. W. Gill,  M. Head-Gordon,  
 J. M. Herbert,  A. I. Krylov

 Contributors to earlier versions of Q-Chem not listed above: 
 R. D. Adamson,  B. Austin,  R. Baer,  J. Baker,  G. J. O. Beran,  
 K. Brandhorst,  S. T. Brown,  E. F. C. Byrd,  A. K. Chakraborty,  
 G. K. L. Chan,  Chun-Min Chang,  Yunqing Chen,  C.-L. Cheng,  
 Siu Hung Chien,  D. M. Chipman,  D. L. Crittenden,  H. Dachsel,  
 R. J. Doerksen,  A. D. Dutoi,  R. G. Edgar,  J. Fosso-Tande,  
 L. Fusti-Molnar,  D. Ghosh,  A. Ghysels,  A. Golubeva-Zadorozhnaya,  
 J. Gonthier,  M. S. Gordon,  S. R. Gwaltney,  G. Hawkins,  J. E. Herr,  
 A. Heyden,  S. Hirata,  E. G. Hohenstein,  G. Kedziora,  F. J. Keil,  
 C. Kelley,  Jihan Kim,  R. A. King,  R. Z. Khaliullin,  P. P. Korambath,  
 W. Kurlancheek,  A. Laurent,  A. M. Lee,  M. S. Lee,  S. V. Levchenko,  
 Ching Yeh Lin,  D. Liotard,  E. Livshits,  R. C. Lochan,  I. Lotan,  
 L. A. Martinez-Martinez,  P. E. Maslen,  N. Nair,  D. P. O'Neill,  
 D. Neuhauser,  E. Neuscamman,  C. M. Oana,  R. Olivares-Amaya,  R. Olson,  
 T. M. Perrine,  B. Peters,  P. A. Pieniazek,  A. Prociuk,  Y. M. Rhee,  
 J. Ritchie,  M. A. Rohrdanz,  E. Rosta,  N. J. Russ,  H. F. Schaefer III,  
 M. W. Schmidt,  N. E. Schultz,  S. Sharma,  N. Shenvi,  C. D. Sherrill,  
 A. C. Simmonett,  A. Sodt,  T. Stein,  D. Stuck,  K. S. Thanthiriwatte,  
 V. Vanovschi,  L. Vogt,  Tao Wang,  A. Warshel,  M. A. Watson,  
 C. F. Williams,  Q. Wu,  X. Xu,  Jun Yang,  W. Zhang,  Yan Zhao

 Please cite Q-Chem as follows:
 Y. Shao et al., Mol. Phys. 113, 184-215 (2015)
 DOI: 10.1080/00268976.2014.952696

 Q-Chem 5.4.0 for Intel X86 EM64T Linux

 Parts of Q-Chem use Armadillo 9.800.1 (Horizon Scraper).
 http://arma.sourceforge.net/

 Q-Chem begins on Wed Dec 27 10:06:33 2023  

 Host: 
0

     Scratch files written to ./qchem2759030//
 May1621 |scratch|qcdevops|jenkins|workspace|build_RNUM    
 Parallel job on  1  processors
 Processing $rem in /cm/shared/apps/spack/cpu/opt/spack/linux-centos8-zen2/gcc-10.2.0/qchem-5.4-akfmr7b3t57bfs6qan3padb2wnb2i7cl/config/preferences:
 Processing $rem in /home/rramji/.qchemrc:
 Symmetry turned off for PCM/SM12/SMD calculation
 Core orbitals will be frozen

 Checking the input file for inconsistencies... 	...done.

 Q-Chem warning in module forms1/BasisType.C, line 2236:

 You are not using the predefined 5D/6D in this basis set.


--------------------------------------------------------------
User input:
--------------------------------------------------------------
$molecule
0 1
C	-0.262707	-0.329934	-0.210119
S	0.133693	0.357066	1.370381
C	0.952493	1.775366	0.694781
C	0.236093	0.534466	-1.195519
C	0.896193	1.677866	-0.703619
H	0.118293	0.330366	-2.270019
H	1.336593	2.440766	-1.362719
C	-0.262707	-1.808134	-0.210119
H	0.277793	-1.808734	-1.145119
H	0.591693	-2.247434	0.283181
H	-0.966807	-2.519134	-0.616519
H	1.392793	2.538166	1.345881
$end

$rem
JOBTYPE		SP
EXCHANGE	HF
CORRELATION	pRIMP2
BASIS		cc-pvtz
METHOD		rimp2
AUX_BASIS	rimp2-cc-pvtz
SOLVENT_METHOD	PCM
PURECART	11111
SYMMETRY	false
MEM_TOTAL	110000
SCF_CONVERGENCE = 6
THRESH=10
GUI = 2
$end



$solvent
dielectric 4.90
$end
--------------------------------------------------------------
 ----------------------------------------------------------------
             Standard Nuclear Orientation (Angstroms)
    I     Atom           X                Y                Z
 ----------------------------------------------------------------
    1      C      -0.2627070000    -0.3299340000    -0.2101190000
    2      S       0.1336930000     0.3570660000     1.3703810000
    3      C       0.9524930000     1.7753660000     0.6947810000
    4      C       0.2360930000     0.5344660000    -1.1955190000
    5      C       0.8961930000     1.6778660000    -0.7036190000
    6      H       0.1182930000     0.3303660000    -2.2700190000
    7      H       1.3365930000     2.4407660000    -1.3627190000
    8      C      -0.2627070000    -1.8081340000    -0.2101190000
    9      H       0.2777930000    -1.8087340000    -1.1451190000
   10      H       0.5916930000    -2.2474340000     0.2831810000
   11      H      -0.9668070000    -2.5191340000    -0.6165190000
   12      H       1.3927930000     2.5381660000     1.3458810000
 ----------------------------------------------------------------
 Nuclear Repulsion Energy =         271.61147434 hartrees
 There are       26 alpha and       26 beta electrons
 Requested basis set is cc-pVTZ
 There are 98 shells and 268 basis functions

 Total QAlloc Memory Limit 110000 MB
 Mega-Array Size       188 MB
 MEM_STATIC part       192 MB
 Discretize the solute cavity surface with Lebedev spheres
	Using 110 Lebedev grid points for each H atom
	Using 194 Lebedev grid points for other atoms
	Atomic van der Waals radii will be scaled by 1.20
 Remove points where switching function is < 1.0e-08
 Keep 878 surface tesserae and discard 946 interior tesserae
 Molecular Surface Area = 137.266 Angst**2

                       Distance Matrix (Angstroms)
             C (  1)   S (  2)   C (  3)   C (  4)   C (  5)   H (  6)
   S (  2)  1.768356
   C (  3)  2.593809  1.771565
   C (  4)  1.402498  2.574063  2.371981
   C (  5)  2.370201  2.574373  1.402925  1.408922
   H (  6)  2.196439  3.640530  3.402051  1.100038  2.207826
   H (  7)  3.400445  3.641237  2.196269  2.207495  1.100173  2.600238
   C (  8)  1.478200  2.709835  3.890633  2.589901  3.706587  2.993582
   H (  9)  1.831178  3.322528  4.084878  2.344113  3.568434  2.422104
   H ( 10)  2.156421  2.859229  4.059866  3.170485  4.058876  3.658960
   H ( 11)  2.335276  3.664887  4.883232  3.332669  4.592730  3.468595
   H ( 12)  3.658936  2.518557  1.095290  3.436784  2.277538  4.424191
             H (  7)   C (  8)   H (  9)   H ( 10)   H ( 11)
   C (  8)  4.683951
   H (  9)  4.384821  1.079984
   H ( 10)  5.024249  1.079967  1.526772
   H ( 11)  5.519336  1.080018  1.527454  1.819946
   H ( 12)  2.710933  4.904298  5.132626  4.967198  5.915658
 
 Requested basis set is rimp2-cc-pVTZ
 There are 207 shells and 707 basis functions
 A cutoff of  1.0D-10 yielded   4400 shell pairs
 There are     33076 function pairs (     42782 Cartesian)
 Smallest overlap matrix eigenvalue = 1.60E-04

 Scale SEOQF with 1.000000e+00/1.000000e-01/1.000000e-01

 Standard Electronic Orientation quadrupole field applied
 Nucleus-field energy     =     0.0000000063 hartrees
 Guess from superposition of atomic densities
 Warning:  Energy on first SCF cycle will be non-variational
 SAD guess density has 52.000000 electrons

 -----------------------------------------------------------------------
  General SCF calculation program by
  Eric Jon Sundstrom, Paul Horn, Yuezhi Mao, Dmitri Zuev, Alec White,
  David Stuck, Shaama M.S., Shane Yost, Joonho Lee, David Small,
  Daniel Levine, Susi Lehtola, Hugh Burton, Evgeny Epifanovsky,
  Bang C. Huynh
 -----------------------------------------------------------------------
 Hartree-Fock
 using 64 threads for integral computing
 -------------------------------------------------------
 OpenMP Integral computing Module                
 Release: version 1.0, May 2013, Q-Chem Inc. Pittsburgh 
 -------------------------------------------------------
 A restricted SCF calculation will be
 performed using DIIS
 SCF converges when DIIS error is below 1.0e-06
 ---------------------------------------
  Cycle       Energy         DIIS error
 ---------------------------------------
    1    -592.5995104779      3.23e-02  
    2    -590.2871860135      2.16e-03  
    3    -590.3475851625      7.75e-04  
    4    -590.3542420180      3.72e-04  
    5    -590.3559986501      7.14e-05  
    6    -590.3561231821      3.03e-05  
    7    -590.3561556502      1.54e-05  
    8    -590.3561661766      6.04e-06  
    9    -590.3561680755      2.36e-06  
   10    -590.3561682734      6.91e-07  Convergence criterion met
 ---------------------------------------
 SCF time:   CPU 475.48s  wall 9.00s 

************** Final PCM Free Energy Summary **************
 G_electrostatic  =      -0.00551944 hartree =      -3.46350008 kcal/mol
 G_cavitation     =       0.00000000 hartree =       0.00000000 kcal/mol
 G_dispersion     =       0.00000000 hartree =       0.00000000 kcal/mol
 G_repulsion      =       0.00000000 hartree =       0.00000000 kcal/mol
 --------------------------------------------------
 Non-electrostatic Free Energy =       0.00000000 hartree =       0.00000000 kcal/mol
 Total                         =      -0.00551944 hartree =      -3.46350008 kcal/mol
 --------------------------------------------------
 SCF Energy (H0 + V/2)                       =    -590.35616827 
 Solute Internal Energy (H0)                 =    -590.35064883 
 Total Free Energy (H0 + V/2 + non-elec)     =    -590.35616827 hartree
                                             = -370454.08685484 kcal/mol
***********************************************************

 SCF   energy in the final basis set =     -590.3561682734
 Total energy in the final basis set =     -590.3561682734


 --------------------------------------------------------------
  Generalized many-body perturbation theory program
  by Joonho Lee, Fazle Rob, Xintian Feng, Evgeny Epifanovsky

 No regularization used 
 (reg. param. = 0.0000e+00)
  (P|Q)^-1/2 Time:  CPU 5.27 s  wall 0.08 s

 In RI-MP2 calculation: 
 # of frozen core orbitals: 10

 Components of the RIMP2 correlation energy:
        aaaa    correlation energy =        -0.1260149792 a.u.
        abab    correlation energy =        -0.7535214661 a.u.
        bbbb    correlation energy =        -0.1260149792 a.u.
        non-Brillouin singles      =        -0.0000000000 a.u.
        total same-spin energy     =        -0.2520299584 a.u.
        total opposite-spin energy =        -0.7535214661 a.u.

 Total  RIMP2   correlation energy =        -1.0055514244 a.u.
        RIMP2         total energy =      -591.3617196978 a.u.

 RI-MP2 Energy Time:  CPU 23.99 s  wall 0.42 s
 
 --------------------------------------------------------------
 
                    Orbital Energies (a.u.)
 --------------------------------------------------------------
 
 Alpha MOs
 -- Occupied --
-91.9765 -11.2806 -11.2710 -11.2431 -11.2406 -11.2211  -8.9765  -6.6574
 -6.6568  -6.6563  -1.1598  -1.0376  -0.9739  -0.9149  -0.7560  -0.7247
 -0.6715  -0.5967  -0.5701  -0.5559  -0.5429  -0.4908  -0.4690  -0.4433
 -0.3437  -0.3076
 -- Virtual --
  0.0906   0.1534   0.1612   0.1787   0.1890   0.1936   0.2150   0.2265
  0.2338   0.2528   0.3087   0.3356   0.3531   0.3758   0.3845   0.4027
  0.4255   0.4484   0.4563   0.4709   0.4834   0.5110   0.5263   0.5322
  0.5336   0.5525   0.5565   0.5731   0.6034   0.6102   0.6172   0.6175
  0.6323   0.6456   0.6542   0.6735   0.6860   0.7039   0.7206   0.7584
  0.7835   0.8046   0.8189   0.8340   0.8546   0.8802   0.8947   0.9166
  0.9444   0.9796   1.0204   1.0428   1.0729   1.0809   1.1090   1.1462
  1.1579   1.1677   1.1885   1.2035   1.2180   1.2234   1.2479   1.2644
  1.2931   1.3198   1.3305   1.3336   1.3707   1.4025   1.4065   1.4498
  1.4674   1.4886   1.4963   1.5110   1.5371   1.5455   1.5619   1.5950
  1.6010   1.6222   1.6346   1.6720   1.6808   1.7202   1.7769   1.8093
  1.8283   1.8958   1.9059   1.9103   1.9460   1.9980   2.0220   2.1057
  2.1335   2.1630   2.1827   2.2235   2.2464   2.2677   2.3174   2.4120
  2.4265   2.4592   2.4781   2.5171   2.5934   2.5948   2.6170   2.6648
  2.6785   2.7168   2.7255   2.7394   2.7536   2.8017   2.8446   2.8484
  2.8645   2.9012   2.9208   2.9506   2.9765   3.0095   3.0266   3.0538
  3.0729   3.1011   3.1277   3.1488   3.1784   3.1965   3.2087   3.2345
  3.2486   3.2715   3.2820   3.3128   3.3213   3.3412   3.3501   3.3743
  3.3898   3.4077   3.4459   3.4517   3.4609   3.4817   3.5051   3.5134
  3.5197   3.5497   3.5595   3.5877   3.5946   3.6090   3.6411   3.6700
  3.6874   3.6992   3.7015   3.7251   3.7685   3.7791   3.7969   3.8449
  3.8473   3.8987   3.9027   3.9099   3.9437   3.9586   3.9691   3.9909
  4.0147   4.0446   4.0542   4.1161   4.1202   4.1583   4.1703   4.2067
  4.2393   4.2587   4.2634   4.2894   4.3161   4.3596   4.3867   4.4057
  4.4156   4.4509   4.4776   4.4890   4.5701   4.6009   4.6100   4.6716
  4.6858   4.7076   4.7289   4.7519   4.7880   4.8135   4.8190   4.9034
  4.9197   4.9998   5.0214   5.0299   5.0895   5.1514   5.1730   5.1961
  5.2134   5.2909   5.3532   5.4003   5.4351   5.4904   5.5273   5.5749
  5.6231   5.7239   5.7701   5.8181   5.8918   5.9049   5.9786   6.0466
  6.0863   6.3068   6.3947   6.4470   6.6069   9.4265  11.4117  12.7146
 13.9513  13.9872
 --------------------------------------------------------------
 
          Ground-State Mulliken Net Atomic Charges

     Atom                 Charge (a.u.)
  ----------------------------------------
      1 C                     0.007236
      2 S                    -0.001643
      3 C                    -0.221225
      4 C                    -0.210678
      5 C                    -0.198761
      6 H                     0.180307
      7 H                     0.187366
      8 C                    -0.365347
      9 H                     0.130889
     10 H                     0.139536
     11 H                     0.148618
     12 H                     0.203702
  ----------------------------------------
  Sum of atomic charges =     0.000000

 -----------------------------------------------------------------
                    Cartesian Multipole Moments
 -----------------------------------------------------------------
    Charge (ESU x 10^10)
                 0.0000
    Dipole Moment (Debye)
         X       1.1157      Y      -0.3344      Z      -1.6739
       Tot       2.0392
    Quadrupole Moments (Debye-Ang)
        XX     -45.7492     XY       3.3436     YY     -38.6983
        XZ       0.7003     YZ       1.9399     ZZ     -41.7056
    Octopole Moments (Debye-Ang^2)
       XXX     -37.0771    XXY     -12.2564    XYY      -1.8073
       YYY     -38.1900    XXZ      -6.0694    XYZ       0.6583
       YYZ      -6.7567    XZZ      -8.2917    YZZ      -8.0943
       ZZZ     -28.1253
    Hexadecapole Moments (Debye-Ang^3)
      XXXX    -147.4500   XXXY     -78.0841   XXYY     -90.4720
      XYYY     -52.8249   YYYY    -450.5326   XXXZ      -4.0065
      XXYZ      -4.3519   XYYZ       5.6158   YYYZ      -7.1880
      XXZZ     -75.6782   XYZZ     -14.3473   YYZZ    -118.2886
      XZZZ      -3.2286   YZZZ     -17.9562   ZZZZ    -307.4502
 -----------------------------------------------------------------
 Total job time:  10.17s(wall), 545.08s(cpu) 
 Wed Dec 27 10:06:43 2023

        *************************************************************
        *                                                           *
        *  Thank you very much for using Q-Chem.  Have a nice day.  *
        *                                                           *
        *************************************************************


0 sent ACK to 0 
now end server 0 ... 
cleanup process ... done
remove work dirs ./qchem2759030.0 -- ./qchem2759030.0
rm -rf ./qchem2759030.0
rm -rf ./qchem2759030
