You are running Q-Chem version: 5.4.0

#
# job setting
#
local host:  exp-4-24
current dir: /home/rramji/project-csd799/aromodel/pndit-qchem/methylated-rotation-run
input file:  Dimethyl_Naphthalene_Dicarboximide_Phi_10_Theta_70_Thiophene_Hydrogenated_Improper.qcin
output file: 
nprocs     : 1
nthreads   : 64
#
# qchem installation setting
#
QC:          /cm/shared/apps/spack/cpu/opt/spack/linux-centos8-zen2/gcc-10.2.0/qchem-5.4-akfmr7b3t57bfs6qan3padb2wnb2i7cl
QCAUX:       /cm/shared/apps/spack/cpu/opt/spack/linux-centos8-zen2/gcc-10.2.0/qchem-5.4-akfmr7b3t57bfs6qan3padb2wnb2i7cl/qcaux
QCPROG:      /cm/shared/apps/spack/cpu/opt/spack/linux-centos8-zen2/gcc-10.2.0/qchem-5.4-akfmr7b3t57bfs6qan3padb2wnb2i7cl/exe/qcprog.exe
QCPROG_S:    /cm/shared/apps/spack/cpu/opt/spack/linux-centos8-zen2/gcc-10.2.0/qchem-5.4-akfmr7b3t57bfs6qan3padb2wnb2i7cl/exe/qcprog.exe_s
PARALLEL:    -DPARALLEL
QCMPI:       mpich
#
# qchem directory setting
#
qcrun:       qchem2964160
QCSCRATCH:   .
QCLOCALSCR:  
QCTMPDIR:    .
QCFILEPREF:  ./qchem2964160
QCSAVEDIR:   
workdirs:    ./qchem2964160
workdir0:    ./qchem2964160
partmpdirs =  
#
# parallel setting
#
QCRSH:           ssh
QCMPI:           mpich
QCMPIRUN:        /cm/shared/apps/spack/cpu/opt/spack/linux-centos8-zen2/gcc-10.2.0/qchem-5.4-akfmr7b3t57bfs6qan3padb2wnb2i7cl/bin/mpi/mpirun_qchem
QCMACHINEFILE:   ./qchem2964160/hostfile
exp-4-24

#
# env setting
#
exported envs:   QC QCAUX QCSCRATCH QCRUNNAME QCFILEPREF QCPROG QCPROG_S GUIFILE

Running Job 1 of 1 Dimethyl_Naphthalene_Dicarboximide_Phi_10_Theta_70_Thiophene_Hydrogenated_Improper.qcin
qchem Dimethyl_Naphthalene_Dicarboximide_Phi_10_Theta_70_Thiophene_Hydrogenated_Improper.qcin_2964160.0 ./qchem2964160/ 1
/cm/shared/apps/spack/cpu/opt/spack/linux-centos8-zen2/gcc-10.2.0/qchem-5.4-akfmr7b3t57bfs6qan3padb2wnb2i7cl/bin/mpi/mpirun_qchem -machinefile ./qchem2964160/hostfile -np 1 /cm/shared/apps/spack/cpu/opt/spack/linux-centos8-zen2/gcc-10.2.0/qchem-5.4-akfmr7b3t57bfs6qan3padb2wnb2i7cl/exe/qcprog.exe Dimethyl_Naphthalene_Dicarboximide_Phi_10_Theta_70_Thiophene_Hydrogenated_Improper.qcin_2964160.0 ./qchem2964160/

Process 0 of 1 is on exp-4-24 - thread support 0
initial socket setup ...start
initial socket setup ...done 
now start server 0 ... 
                  Welcome to Q-Chem
     A Quantum Leap Into The Future Of Chemistry


 Q-Chem 5.4, Q-Chem, Inc., Pleasanton, CA (2021)

 License issued to: University of California, San Diego (site)

 E. Epifanovsky,  A. T. B. Gilbert,  Xintian Feng,  Joonho Lee,  Yuezhi Mao,  
 N. Mardirossian,  P. Pokhilko,  A. White,  M. Wormit,  M. P. Coons,  
 A. L. Dempwolff,  Zhengting Gan,  D. Hait,  P. R. Horn,  L. D. Jacobson,  
 I. Kaliman,  J. Kussmann,  A. W. Lange,  Ka Un Lao,  D. S. Levine,  Jie Liu,  
 S. C. McKenzie,  A. F. Morrison,  K. Nanda,  F. Plasser,  D. R. Rehn,  
 M. L. Vidal,  Zhi-Qiang You,  Ying Zhu,  B. Alam,  B. Albrecht,  
 A. Aldossary,  E. Alguire,  J. H. Andersen,  D. Barton,  K. Begam,  A. Behn,  
 Y. A. Bernard,  E. J. Berquist,  H. Burton,  A. Carreras,  K. Carter-Fenk,  
 R. Chakraborty,  A. D. Chien,  K. D. Closser,  V. Cofer-Shabica,  
 S. Dasgupta,  Jia Deng,  M. de Wergifosse,  M. Diedenhofen,  Hainam Do,  
 S. Ehlert,  Po-Tung Fang,  S. Fatehi,  Qingguo Feng,  J. Gayvert,  
 Qinghui Ge,  G. Gidofalvi,  M. Goldey,  J. Gomes,  C. Gonzalez-Espinoza,  
 S. Gulania,  A. Gunina,  M. W. D. Hanson-Heine,  P. H. P. Harbach,  
 A. W. Hauser,  M. F. Herbst,  M. Hernandez Vera,  M. Hodecker,  
 Z. C. Holden,  S. Houck,  Xunkun Huang,  Kerwin Hui,  B. C. Huynh,  
 M. Ivanov,  Hyunjun Ji,  Hanjie Jiang,  B. Kaduk,  S. Kaehler,  
 K. Khistyaev,  Jaehoon Kim,  P. Klunzinger,  Z. Koczor-Benda,  
 Joong Hoon Koh,  D. Kosenkov,  L. Koulias,  T. Kowalczyk,  C. M. Krauter,  
 K. Kue,  A. Kunitsa,  T. Kus,  A. Landau,  K. V. Lawler,  D. Lefrancois,  
 S. Lehtola,  Rain Li,  Yi-Pei Li,  Jiashu Liang,  M. Liebenthal,  
 Hung-Hsuan Lin,  You-Sheng Lin,  Fenglai Liu,  Kuan-Yu Liu,  
 M. Loipersberger,  A. Luenser,  A. Manjanath,  P. Manohar,  E. Mansoor,  
 S. F. Manzer,  Shan-Ping Mao,  A. V. Marenich,  T. Markovich,  S. Mason,  
 S. A. Maurer,  P. F. McLaughlin,  M. F. S. J. Menger,  J.-M. Mewes,  
 S. A. Mewes,  P. Morgante,  J. W. Mullinax,  T. S. Nguyen-Beck,  
 K. J. Oosterbaan,  G. Paran,  Alexander C. Paul,  Suranjan K. Paul,  
 F. Pavosevic,  Zheng Pei,  S. Prager,  E. I. Proynov,  E. Ramos,  B. Rana,  
 A. E. Rask,  A. Rettig,  R. M. Richard,  F. Rob,  E. Rossomme,  T. Scheele,  
 M. Scheurer,  M. Schneider,  N. Sergueev,  S. M. Sharada,  W. Skomorowski,  
 D. W. Small,  C. J. Stein,  Yu-Chuan Su,  E. J. Sundstrom,  Zhen Tao,  
 J. Thirman,  T. Tsuchimochi,  N. M. Tubman,  S. P. Veccham,  O. Vydrov,  
 J. Wenzel,  J. Witte,  A. Yamada,  Kun Yao,  S. Yeganeh,  S. R. Yost,  
 A. Zech,  Igor Ying Zhang,  Xing Zhang,  Yu Zhang,  D. Zuev,  
 A. Aspuru-Guzik,  A. T. Bell,  N. A. Besley,  K. B. Bravaya,  B. R. Brooks,  
 D. Casanova,  Jeng-Da Chai,  S. Coriani,  C. J. Cramer,  
 A. E. DePrince, III,  R. A. DiStasio Jr.,  A. Dreuw,  B. D. Dunietz,  
 T. R. Furlani,  W. A. Goddard III,  S. Grimme,  S. Hammes-Schiffer,  
 T. Head-Gordon,  W. J. Hehre,  Chao-Ping Hsu,  T.-C. Jagau,  Yousung Jung,  
 A. Klamt,  Jing Kong,  D. S. Lambrecht,  WanZhen Liang,  N. J. Mayhall,  
 C. W. McCurdy,  J. B. Neaton,  C. Ochsenfeld,  J. A. Parkhill,  R. Peverati,  
 V. A. Rassolov,  Yihan Shao,  L. V. Slipchenko,  T. Stauch,  R. P. Steele,  
 J. E. Subotnik,  A. J. W. Thom,  A. Tkatchenko,  D. G. Truhlar,  
 T. Van Voorhis,  T. A. Wesolowski,  K. B. Whaley,  H. L. Woodcock III,  
 P. M. Zimmerman,  S. Faraji,  P. M. W. Gill,  M. Head-Gordon,  
 J. M. Herbert,  A. I. Krylov

 Contributors to earlier versions of Q-Chem not listed above: 
 R. D. Adamson,  B. Austin,  R. Baer,  J. Baker,  G. J. O. Beran,  
 K. Brandhorst,  S. T. Brown,  E. F. C. Byrd,  A. K. Chakraborty,  
 G. K. L. Chan,  Chun-Min Chang,  Yunqing Chen,  C.-L. Cheng,  
 Siu Hung Chien,  D. M. Chipman,  D. L. Crittenden,  H. Dachsel,  
 R. J. Doerksen,  A. D. Dutoi,  R. G. Edgar,  J. Fosso-Tande,  
 L. Fusti-Molnar,  D. Ghosh,  A. Ghysels,  A. Golubeva-Zadorozhnaya,  
 J. Gonthier,  M. S. Gordon,  S. R. Gwaltney,  G. Hawkins,  J. E. Herr,  
 A. Heyden,  S. Hirata,  E. G. Hohenstein,  G. Kedziora,  F. J. Keil,  
 C. Kelley,  Jihan Kim,  R. A. King,  R. Z. Khaliullin,  P. P. Korambath,  
 W. Kurlancheek,  A. Laurent,  A. M. Lee,  M. S. Lee,  S. V. Levchenko,  
 Ching Yeh Lin,  D. Liotard,  E. Livshits,  R. C. Lochan,  I. Lotan,  
 L. A. Martinez-Martinez,  P. E. Maslen,  N. Nair,  D. P. O'Neill,  
 D. Neuhauser,  E. Neuscamman,  C. M. Oana,  R. Olivares-Amaya,  R. Olson,  
 T. M. Perrine,  B. Peters,  P. A. Pieniazek,  A. Prociuk,  Y. M. Rhee,  
 J. Ritchie,  M. A. Rohrdanz,  E. Rosta,  N. J. Russ,  H. F. Schaefer III,  
 M. W. Schmidt,  N. E. Schultz,  S. Sharma,  N. Shenvi,  C. D. Sherrill,  
 A. C. Simmonett,  A. Sodt,  T. Stein,  D. Stuck,  K. S. Thanthiriwatte,  
 V. Vanovschi,  L. Vogt,  Tao Wang,  A. Warshel,  M. A. Watson,  
 C. F. Williams,  Q. Wu,  X. Xu,  Jun Yang,  W. Zhang,  Yan Zhao

 Please cite Q-Chem as follows:
 Y. Shao et al., Mol. Phys. 113, 184-215 (2015)
 DOI: 10.1080/00268976.2014.952696

 Q-Chem 5.4.0 for Intel X86 EM64T Linux

 Parts of Q-Chem use Armadillo 9.800.1 (Horizon Scraper).
 http://arma.sourceforge.net/

 Q-Chem begins on Wed Dec 27 10:01:21 2023  

 Host: 
0

     Scratch files written to ./qchem2964160//
 May1621 |scratch|qcdevops|jenkins|workspace|build_RNUM    
 Parallel job on  1  processors
 Processing $rem in /cm/shared/apps/spack/cpu/opt/spack/linux-centos8-zen2/gcc-10.2.0/qchem-5.4-akfmr7b3t57bfs6qan3padb2wnb2i7cl/config/preferences:
 Processing $rem in /home/rramji/.qchemrc:
 Symmetry turned off for PCM/SM12/SMD calculation
 Core orbitals will be frozen

 Checking the input file for inconsistencies... 	...done.

 Q-Chem warning in module forms1/BasisType.C, line 2236:

 You are not using the predefined 5D/6D in this basis set.


--------------------------------------------------------------
User input:
--------------------------------------------------------------
$molecule
0 1
C	-0.091004	-0.391505	-0.219989
S	0.046496	0.389695	1.360511
C	0.330896	2.002495	0.684911
C	0.082096	0.591395	-1.205389
C	0.311296	1.891595	-0.713489
H	0.041196	0.359295	-2.279889
H	0.464196	2.759095	-1.372589
C	-0.091004	-1.869705	-0.219989
H	0.277896	-1.870305	0.795011
H	-1.018104	-2.309005	0.117411
H	0.672896	-2.580705	-0.498189
H	0.483696	2.869795	1.336011
$end

$rem
JOBTYPE		SP
EXCHANGE	HF
CORRELATION	pRIMP2
BASIS		cc-pvtz
METHOD		rimp2
AUX_BASIS	rimp2-cc-pvtz
SOLVENT_METHOD	PCM
PURECART	11111
SYMMETRY	false
MEM_TOTAL	110000
SCF_CONVERGENCE = 6
THRESH=10
GUI = 2
$end



$solvent
dielectric 4.90
$end
--------------------------------------------------------------
 ----------------------------------------------------------------
             Standard Nuclear Orientation (Angstroms)
    I     Atom           X                Y                Z
 ----------------------------------------------------------------
    1      C      -0.0910040000    -0.3915050000    -0.2199890000
    2      S       0.0464960000     0.3896950000     1.3605110000
    3      C       0.3308960000     2.0024950000     0.6849110000
    4      C       0.0820960000     0.5913950000    -1.2053890000
    5      C       0.3112960000     1.8915950000    -0.7134890000
    6      H       0.0411960000     0.3592950000    -2.2798890000
    7      H       0.4641960000     2.7590950000    -1.3725890000
    8      C      -0.0910040000    -1.8697050000    -0.2199890000
    9      H       0.2778960000    -1.8703050000     0.7950110000
   10      H      -1.0181040000    -2.3090050000     0.1174110000
   11      H       0.6728960000    -2.5807050000    -0.4981890000
   12      H       0.4836960000     2.8697950000     1.3360110000
 ----------------------------------------------------------------
 Nuclear Repulsion Energy =         270.90889316 hartrees
 There are       26 alpha and       26 beta electrons
 Requested basis set is cc-pVTZ
 There are 98 shells and 268 basis functions

 Total QAlloc Memory Limit 110000 MB
 Mega-Array Size       188 MB
 MEM_STATIC part       192 MB
 Discretize the solute cavity surface with Lebedev spheres
	Using 110 Lebedev grid points for each H atom
	Using 194 Lebedev grid points for other atoms
	Atomic van der Waals radii will be scaled by 1.20
 Remove points where switching function is < 1.0e-08
 Keep 884 surface tesserae and discard 940 interior tesserae
 Molecular Surface Area = 137.644 Angst**2

                       Distance Matrix (Angstroms)
             C (  1)   S (  2)   C (  3)   C (  4)   C (  5)   H (  6)
   S (  2)  1.768378
   C (  3)  2.593854  1.771565
   C (  4)  1.402522  2.574062  2.371990
   C (  5)  2.370218  2.574354  1.402927  1.408907
   H (  6)  2.196444  3.640531  3.402069  1.100042  2.207828
   H (  7)  3.400443  3.641204  2.196251  2.207460  1.100158  2.600224
   C (  8)  1.478200  2.760756  3.998847  2.656688  3.814809  3.037944
   H (  9)  1.831164  2.341140  3.874727  3.178035  4.053218  3.805542
   H ( 10)  2.156423  3.156209  4.553119  3.372323  4.483608  3.740186
   H ( 11)  2.335281  3.559553  4.745778  3.303240  4.492057  3.495297
   H ( 12)  3.658892  2.518460  1.095212  3.436729  2.277509  4.424155
             H (  7)   C (  8)   H (  9)   H ( 10)   H ( 11)
   C (  8)  4.802346
   H (  9)  5.115129  1.079960
   H ( 10)  5.486616  1.079971  1.526832
   H ( 11)  5.414942  1.080028  1.527436  1.819963
   H ( 12)  2.710931  5.021382  4.775310  5.528142  5.753958
 
 Requested basis set is rimp2-cc-pVTZ
 There are 207 shells and 707 basis functions
 A cutoff of  1.0D-10 yielded   4373 shell pairs
 There are     32783 function pairs (     42396 Cartesian)
 Smallest overlap matrix eigenvalue = 1.21E-04

 Scale SEOQF with 1.000000e+00/1.000000e-01/1.000000e-01

 Standard Electronic Orientation quadrupole field applied
 Nucleus-field energy     =     0.0000000028 hartrees
 Guess from superposition of atomic densities
 Warning:  Energy on first SCF cycle will be non-variational
 SAD guess density has 52.000000 electrons

 -----------------------------------------------------------------------
  General SCF calculation program by
  Eric Jon Sundstrom, Paul Horn, Yuezhi Mao, Dmitri Zuev, Alec White,
  David Stuck, Shaama M.S., Shane Yost, Joonho Lee, David Small,
  Daniel Levine, Susi Lehtola, Hugh Burton, Evgeny Epifanovsky,
  Bang C. Huynh
 -----------------------------------------------------------------------
 Hartree-Fock
 using 64 threads for integral computing
 -------------------------------------------------------
 OpenMP Integral computing Module                
 Release: version 1.0, May 2013, Q-Chem Inc. Pittsburgh 
 -------------------------------------------------------
 A restricted SCF calculation will be
 performed using DIIS
 SCF converges when DIIS error is below 1.0e-06
 ---------------------------------------
  Cycle       Energy         DIIS error
 ---------------------------------------
    1    -592.5940136276      3.23e-02  
    2    -590.2978379336      2.19e-03  
    3    -590.3590186262      8.22e-04  
    4    -590.3661778943      3.88e-04  
    5    -590.3681233628      7.17e-05  
    6    -590.3682524693      3.14e-05  
    7    -590.3682847765      1.47e-05  
    8    -590.3682945287      5.86e-06  
    9    -590.3682960419      2.04e-06  
   10    -590.3682961941      5.91e-07  Convergence criterion met
 ---------------------------------------
 SCF time:   CPU 488.51s  wall 9.00s 

************** Final PCM Free Energy Summary **************
 G_electrostatic  =      -0.00531722 hartree =      -3.33660605 kcal/mol
 G_cavitation     =       0.00000000 hartree =       0.00000000 kcal/mol
 G_dispersion     =       0.00000000 hartree =       0.00000000 kcal/mol
 G_repulsion      =       0.00000000 hartree =       0.00000000 kcal/mol
 --------------------------------------------------
 Non-electrostatic Free Energy =       0.00000000 hartree =       0.00000000 kcal/mol
 Total                         =      -0.00531722 hartree =      -3.33660605 kcal/mol
 --------------------------------------------------
 SCF Energy (H0 + V/2)                       =    -590.36829619 
 Solute Internal Energy (H0)                 =    -590.36297897 
 Total Free Energy (H0 + V/2 + non-elec)     =    -590.36829619 hartree
                                             = -370461.69723995 kcal/mol
***********************************************************

 SCF   energy in the final basis set =     -590.3682961941
 Total energy in the final basis set =     -590.3682961941


 --------------------------------------------------------------
  Generalized many-body perturbation theory program
  by Joonho Lee, Fazle Rob, Xintian Feng, Evgeny Epifanovsky

 No regularization used 
 (reg. param. = 0.0000e+00)
  (P|Q)^-1/2 Time:  CPU 6.94 s  wall 0.11 s

 In RI-MP2 calculation: 
 # of frozen core orbitals: 10

 Components of the RIMP2 correlation energy:
        aaaa    correlation energy =        -0.1253348058 a.u.
        abab    correlation energy =        -0.7513253306 a.u.
        bbbb    correlation energy =        -0.1253348058 a.u.
        non-Brillouin singles      =        -0.0000000000 a.u.
        total same-spin energy     =        -0.2506696115 a.u.
        total opposite-spin energy =        -0.7513253306 a.u.

 Total  RIMP2   correlation energy =        -1.0019949422 a.u.
        RIMP2         total energy =      -591.3702911363 a.u.

 RI-MP2 Energy Time:  CPU 27.76 s  wall 0.48 s
 
 --------------------------------------------------------------
 
                    Orbital Energies (a.u.)
 --------------------------------------------------------------
 
 Alpha MOs
 -- Occupied --
-91.9799 -11.2831 -11.2695 -11.2429 -11.2362 -11.2232  -8.9799  -6.6608
 -6.6602  -6.6597  -1.1583  -1.0399  -0.9731  -0.9180  -0.7586  -0.7205
 -0.6719  -0.5964  -0.5689  -0.5631  -0.5344  -0.5006  -0.4632  -0.4511
 -0.3463  -0.3100
 -- Virtual --
  0.1026   0.1463   0.1611   0.1744   0.1919   0.1981   0.2092   0.2259
  0.2376   0.2702   0.3034   0.3163   0.3632   0.3733   0.3948   0.4057
  0.4261   0.4530   0.4581   0.4670   0.4952   0.5056   0.5287   0.5349
  0.5515   0.5634   0.5692   0.5714   0.6063   0.6079   0.6172   0.6229
  0.6301   0.6435   0.6506   0.6589   0.6919   0.7229   0.7362   0.7537
  0.7822   0.8007   0.8244   0.8560   0.8714   0.8839   0.9007   0.9277
  0.9651   0.9690   0.9895   1.0177   1.0583   1.0795   1.1112   1.1186
  1.1366   1.1624   1.1732   1.2024   1.2202   1.2365   1.2501   1.2574
  1.2912   1.3002   1.3443   1.3618   1.4003   1.4098   1.4182   1.4327
  1.4739   1.4820   1.5000   1.5276   1.5464   1.5564   1.5721   1.5792
  1.5987   1.6363   1.6452   1.6648   1.7047   1.7408   1.7656   1.8247
  1.8310   1.8886   1.9199   1.9225   1.9563   1.9801   2.0513   2.1005
  2.1480   2.1759   2.2122   2.2162   2.2522   2.2834   2.3413   2.4136
  2.4274   2.4609   2.4933   2.5110   2.5600   2.5954   2.6042   2.6586
  2.6967   2.7200   2.7310   2.7364   2.7513   2.7781   2.7845   2.8304
  2.8863   2.8976   2.9036   2.9788   2.9971   3.0186   3.0288   3.0404
  3.0652   3.1196   3.1322   3.1498   3.1627   3.2014   3.2124   3.2454
  3.2629   3.2858   3.2972   3.3112   3.3195   3.3405   3.3581   3.3822
  3.3891   3.4074   3.4468   3.4484   3.4517   3.4650   3.4955   3.5057
  3.5124   3.5223   3.5492   3.5742   3.6032   3.6183   3.6468   3.6707
  3.6751   3.6976   3.7276   3.7441   3.7747   3.8033   3.8122   3.8304
  3.8506   3.8876   3.9125   3.9292   3.9335   3.9479   3.9562   3.9781
  3.9985   4.0351   4.0654   4.1060   4.1223   4.1566   4.1636   4.1786
  4.2108   4.2296   4.2545   4.2916   4.3095   4.3277   4.3908   4.3976
  4.4358   4.4529   4.4696   4.5059   4.5293   4.5443   4.6279   4.6401
  4.6639   4.6807   4.6943   4.7420   4.8065   4.8112   4.8496   4.9074
  4.9264   5.0080   5.0266   5.0473   5.0661   5.1580   5.1902   5.2157
  5.2418   5.2999   5.3624   5.4214   5.4590   5.4974   5.5437   5.5913
  5.6383   5.6995   5.8031   5.8185   5.8695   5.8887   6.0062   6.0735
  6.1362   6.3123   6.4353   6.4477   6.6956   9.3667  11.2859  12.7870
 13.9750  14.2486
 --------------------------------------------------------------
 
          Ground-State Mulliken Net Atomic Charges

     Atom                 Charge (a.u.)
  ----------------------------------------
      1 C                     0.022238
      2 S                    -0.004947
      3 C                    -0.233489
      4 C                    -0.220518
      5 C                    -0.188799
      6 H                     0.185209
      7 H                     0.185897
      8 C                    -0.350787
      9 H                     0.115682
     10 H                     0.128116
     11 H                     0.155216
     12 H                     0.206184
  ----------------------------------------
  Sum of atomic charges =     0.000000

 -----------------------------------------------------------------
                    Cartesian Multipole Moments
 -----------------------------------------------------------------
    Charge (ESU x 10^10)
                -0.0000
    Dipole Moment (Debye)
         X       0.4529      Y      -0.2407      Z      -0.4556
       Tot       0.6860
    Quadrupole Moments (Debye-Ang)
        XX     -47.3235     XY       0.8730     YY     -36.3640
        XZ      -0.2116     YZ      -0.2850     ZZ     -42.3410
    Octopole Moments (Debye-Ang^2)
       XXX     -14.2191    XXY     -21.5768    XYY       2.4576
       YYY     -40.0864    XXZ      -7.2759    XYZ       1.7520
       YYZ      -1.6643    XZZ      -2.6198    YZZ      -8.2891
       ZZZ     -28.9023
    Hexadecapole Moments (Debye-Ang^3)
      XXXX     -75.9716   XXXY     -33.6826   XXYY    -108.6029
      XYYY     -22.3523   YYYY    -495.5774   XXXZ      -1.6562
      XXYZ      -5.3458   XYYZ      -1.5782   YYYZ      -9.6867
      XXZZ     -70.0260   XYZZ      -6.0109   YYZZ    -128.3778
      XZZZ       0.2461   YZZZ     -13.0877   ZZZZ    -303.2273
 -----------------------------------------------------------------
 Total job time:  42.42s(wall), 560.47s(cpu) 
 Wed Dec 27 10:02:04 2023

        *************************************************************
        *                                                           *
        *  Thank you very much for using Q-Chem.  Have a nice day.  *
        *                                                           *
        *************************************************************


0 sent ACK to 0 
now end server 0 ... 
cleanup process ... done
remove work dirs ./qchem2964160.0 -- ./qchem2964160.0
rm -rf ./qchem2964160.0
rm -rf ./qchem2964160
