You are running Q-Chem version: 5.4.0

#
# job setting
#
local host:  exp-13-43
current dir: /home/rramji/project-csd799/aromodel/pndit-qchem/methylated-rotation-run
input file:  Dimethyl_Naphthalene_Dicarboximide_Phi_5_Theta_320_Thiophene_Hydrogenated_Improper.qcin
output file: 
nprocs     : 1
nthreads   : 64
#
# qchem installation setting
#
QC:          /cm/shared/apps/spack/cpu/opt/spack/linux-centos8-zen2/gcc-10.2.0/qchem-5.4-akfmr7b3t57bfs6qan3padb2wnb2i7cl
QCAUX:       /cm/shared/apps/spack/cpu/opt/spack/linux-centos8-zen2/gcc-10.2.0/qchem-5.4-akfmr7b3t57bfs6qan3padb2wnb2i7cl/qcaux
QCPROG:      /cm/shared/apps/spack/cpu/opt/spack/linux-centos8-zen2/gcc-10.2.0/qchem-5.4-akfmr7b3t57bfs6qan3padb2wnb2i7cl/exe/qcprog.exe
QCPROG_S:    /cm/shared/apps/spack/cpu/opt/spack/linux-centos8-zen2/gcc-10.2.0/qchem-5.4-akfmr7b3t57bfs6qan3padb2wnb2i7cl/exe/qcprog.exe_s
PARALLEL:    -DPARALLEL
QCMPI:       mpich
#
# qchem directory setting
#
qcrun:       qchem656846
QCSCRATCH:   .
QCLOCALSCR:  
QCTMPDIR:    .
QCFILEPREF:  ./qchem656846
QCSAVEDIR:   
workdirs:    ./qchem656846
workdir0:    ./qchem656846
partmpdirs =  
#
# parallel setting
#
QCRSH:           ssh
QCMPI:           mpich
QCMPIRUN:        /cm/shared/apps/spack/cpu/opt/spack/linux-centos8-zen2/gcc-10.2.0/qchem-5.4-akfmr7b3t57bfs6qan3padb2wnb2i7cl/bin/mpi/mpirun_qchem
QCMACHINEFILE:   ./qchem656846/hostfile
exp-13-43

#
# env setting
#
exported envs:   QC QCAUX QCSCRATCH QCRUNNAME QCFILEPREF QCPROG QCPROG_S GUIFILE

Running Job 1 of 1 Dimethyl_Naphthalene_Dicarboximide_Phi_5_Theta_320_Thiophene_Hydrogenated_Improper.qcin
qchem Dimethyl_Naphthalene_Dicarboximide_Phi_5_Theta_320_Thiophene_Hydrogenated_Improper.qcin_656846.0 ./qchem656846/ 1
/cm/shared/apps/spack/cpu/opt/spack/linux-centos8-zen2/gcc-10.2.0/qchem-5.4-akfmr7b3t57bfs6qan3padb2wnb2i7cl/bin/mpi/mpirun_qchem -machinefile ./qchem656846/hostfile -np 1 /cm/shared/apps/spack/cpu/opt/spack/linux-centos8-zen2/gcc-10.2.0/qchem-5.4-akfmr7b3t57bfs6qan3padb2wnb2i7cl/exe/qcprog.exe Dimethyl_Naphthalene_Dicarboximide_Phi_5_Theta_320_Thiophene_Hydrogenated_Improper.qcin_656846.0 ./qchem656846/

Process 0 of 1 is on exp-13-43 - thread support 0
initial socket setup ...start
initial socket setup ...done 
now start server 0 ... 
                  Welcome to Q-Chem
     A Quantum Leap Into The Future Of Chemistry


 Q-Chem 5.4, Q-Chem, Inc., Pleasanton, CA (2021)

 License issued to: University of California, San Diego (site)

 E. Epifanovsky,  A. T. B. Gilbert,  Xintian Feng,  Joonho Lee,  Yuezhi Mao,  
 N. Mardirossian,  P. Pokhilko,  A. White,  M. Wormit,  M. P. Coons,  
 A. L. Dempwolff,  Zhengting Gan,  D. Hait,  P. R. Horn,  L. D. Jacobson,  
 I. Kaliman,  J. Kussmann,  A. W. Lange,  Ka Un Lao,  D. S. Levine,  Jie Liu,  
 S. C. McKenzie,  A. F. Morrison,  K. Nanda,  F. Plasser,  D. R. Rehn,  
 M. L. Vidal,  Zhi-Qiang You,  Ying Zhu,  B. Alam,  B. Albrecht,  
 A. Aldossary,  E. Alguire,  J. H. Andersen,  D. Barton,  K. Begam,  A. Behn,  
 Y. A. Bernard,  E. J. Berquist,  H. Burton,  A. Carreras,  K. Carter-Fenk,  
 R. Chakraborty,  A. D. Chien,  K. D. Closser,  V. Cofer-Shabica,  
 S. Dasgupta,  Jia Deng,  M. de Wergifosse,  M. Diedenhofen,  Hainam Do,  
 S. Ehlert,  Po-Tung Fang,  S. Fatehi,  Qingguo Feng,  J. Gayvert,  
 Qinghui Ge,  G. Gidofalvi,  M. Goldey,  J. Gomes,  C. Gonzalez-Espinoza,  
 S. Gulania,  A. Gunina,  M. W. D. Hanson-Heine,  P. H. P. Harbach,  
 A. W. Hauser,  M. F. Herbst,  M. Hernandez Vera,  M. Hodecker,  
 Z. C. Holden,  S. Houck,  Xunkun Huang,  Kerwin Hui,  B. C. Huynh,  
 M. Ivanov,  Hyunjun Ji,  Hanjie Jiang,  B. Kaduk,  S. Kaehler,  
 K. Khistyaev,  Jaehoon Kim,  P. Klunzinger,  Z. Koczor-Benda,  
 Joong Hoon Koh,  D. Kosenkov,  L. Koulias,  T. Kowalczyk,  C. M. Krauter,  
 K. Kue,  A. Kunitsa,  T. Kus,  A. Landau,  K. V. Lawler,  D. Lefrancois,  
 S. Lehtola,  Rain Li,  Yi-Pei Li,  Jiashu Liang,  M. Liebenthal,  
 Hung-Hsuan Lin,  You-Sheng Lin,  Fenglai Liu,  Kuan-Yu Liu,  
 M. Loipersberger,  A. Luenser,  A. Manjanath,  P. Manohar,  E. Mansoor,  
 S. F. Manzer,  Shan-Ping Mao,  A. V. Marenich,  T. Markovich,  S. Mason,  
 S. A. Maurer,  P. F. McLaughlin,  M. F. S. J. Menger,  J.-M. Mewes,  
 S. A. Mewes,  P. Morgante,  J. W. Mullinax,  T. S. Nguyen-Beck,  
 K. J. Oosterbaan,  G. Paran,  Alexander C. Paul,  Suranjan K. Paul,  
 F. Pavosevic,  Zheng Pei,  S. Prager,  E. I. Proynov,  E. Ramos,  B. Rana,  
 A. E. Rask,  A. Rettig,  R. M. Richard,  F. Rob,  E. Rossomme,  T. Scheele,  
 M. Scheurer,  M. Schneider,  N. Sergueev,  S. M. Sharada,  W. Skomorowski,  
 D. W. Small,  C. J. Stein,  Yu-Chuan Su,  E. J. Sundstrom,  Zhen Tao,  
 J. Thirman,  T. Tsuchimochi,  N. M. Tubman,  S. P. Veccham,  O. Vydrov,  
 J. Wenzel,  J. Witte,  A. Yamada,  Kun Yao,  S. Yeganeh,  S. R. Yost,  
 A. Zech,  Igor Ying Zhang,  Xing Zhang,  Yu Zhang,  D. Zuev,  
 A. Aspuru-Guzik,  A. T. Bell,  N. A. Besley,  K. B. Bravaya,  B. R. Brooks,  
 D. Casanova,  Jeng-Da Chai,  S. Coriani,  C. J. Cramer,  
 A. E. DePrince, III,  R. A. DiStasio Jr.,  A. Dreuw,  B. D. Dunietz,  
 T. R. Furlani,  W. A. Goddard III,  S. Grimme,  S. Hammes-Schiffer,  
 T. Head-Gordon,  W. J. Hehre,  Chao-Ping Hsu,  T.-C. Jagau,  Yousung Jung,  
 A. Klamt,  Jing Kong,  D. S. Lambrecht,  WanZhen Liang,  N. J. Mayhall,  
 C. W. McCurdy,  J. B. Neaton,  C. Ochsenfeld,  J. A. Parkhill,  R. Peverati,  
 V. A. Rassolov,  Yihan Shao,  L. V. Slipchenko,  T. Stauch,  R. P. Steele,  
 J. E. Subotnik,  A. J. W. Thom,  A. Tkatchenko,  D. G. Truhlar,  
 T. Van Voorhis,  T. A. Wesolowski,  K. B. Whaley,  H. L. Woodcock III,  
 P. M. Zimmerman,  S. Faraji,  P. M. W. Gill,  M. Head-Gordon,  
 J. M. Herbert,  A. I. Krylov

 Contributors to earlier versions of Q-Chem not listed above: 
 R. D. Adamson,  B. Austin,  R. Baer,  J. Baker,  G. J. O. Beran,  
 K. Brandhorst,  S. T. Brown,  E. F. C. Byrd,  A. K. Chakraborty,  
 G. K. L. Chan,  Chun-Min Chang,  Yunqing Chen,  C.-L. Cheng,  
 Siu Hung Chien,  D. M. Chipman,  D. L. Crittenden,  H. Dachsel,  
 R. J. Doerksen,  A. D. Dutoi,  R. G. Edgar,  J. Fosso-Tande,  
 L. Fusti-Molnar,  D. Ghosh,  A. Ghysels,  A. Golubeva-Zadorozhnaya,  
 J. Gonthier,  M. S. Gordon,  S. R. Gwaltney,  G. Hawkins,  J. E. Herr,  
 A. Heyden,  S. Hirata,  E. G. Hohenstein,  G. Kedziora,  F. J. Keil,  
 C. Kelley,  Jihan Kim,  R. A. King,  R. Z. Khaliullin,  P. P. Korambath,  
 W. Kurlancheek,  A. Laurent,  A. M. Lee,  M. S. Lee,  S. V. Levchenko,  
 Ching Yeh Lin,  D. Liotard,  E. Livshits,  R. C. Lochan,  I. Lotan,  
 L. A. Martinez-Martinez,  P. E. Maslen,  N. Nair,  D. P. O'Neill,  
 D. Neuhauser,  E. Neuscamman,  C. M. Oana,  R. Olivares-Amaya,  R. Olson,  
 T. M. Perrine,  B. Peters,  P. A. Pieniazek,  A. Prociuk,  Y. M. Rhee,  
 J. Ritchie,  M. A. Rohrdanz,  E. Rosta,  N. J. Russ,  H. F. Schaefer III,  
 M. W. Schmidt,  N. E. Schultz,  S. Sharma,  N. Shenvi,  C. D. Sherrill,  
 A. C. Simmonett,  A. Sodt,  T. Stein,  D. Stuck,  K. S. Thanthiriwatte,  
 V. Vanovschi,  L. Vogt,  Tao Wang,  A. Warshel,  M. A. Watson,  
 C. F. Williams,  Q. Wu,  X. Xu,  Jun Yang,  W. Zhang,  Yan Zhao

 Please cite Q-Chem as follows:
 Y. Shao et al., Mol. Phys. 113, 184-215 (2015)
 DOI: 10.1080/00268976.2014.952696

 Q-Chem 5.4.0 for Intel X86 EM64T Linux

 Parts of Q-Chem use Armadillo 9.800.1 (Horizon Scraper).
 http://arma.sourceforge.net/

 Q-Chem begins on Wed Dec 27 10:06:45 2023  

 Host: 
0

     Scratch files written to ./qchem656846//
 May1621 |scratch|qcdevops|jenkins|workspace|build_RNUM    
 Parallel job on  1  processors
 Processing $rem in /cm/shared/apps/spack/cpu/opt/spack/linux-centos8-zen2/gcc-10.2.0/qchem-5.4-akfmr7b3t57bfs6qan3padb2wnb2i7cl/config/preferences:
 Processing $rem in /home/rramji/.qchemrc:
 Symmetry turned off for PCM/SM12/SMD calculation
 Core orbitals will be frozen

 Checking the input file for inconsistencies... 	...done.

 Q-Chem warning in module forms1/BasisType.C, line 2236:

 You are not using the predefined 5D/6D in this basis set.


--------------------------------------------------------------
User input:
--------------------------------------------------------------
$molecule
0 1
C	-0.049926	-0.397395	-0.211595
S	0.018974	0.392805	1.368905
C	0.161674	2.024305	0.693305
C	0.036874	0.596805	-1.196995
C	0.151874	1.912005	-0.705095
H	0.016374	0.362105	-2.271495
H	0.228574	2.789605	-1.364195
C	-0.049926	-1.875595	-0.211595
H	0.777774	-1.876195	-0.905395
H	0.584274	-2.314895	0.544205
H	-0.572626	-2.586595	-0.834295
H	0.238374	2.901605	1.344405
$end

$rem
JOBTYPE		SP
EXCHANGE	HF
CORRELATION	pRIMP2
BASIS		cc-pvtz
METHOD		rimp2
AUX_BASIS	rimp2-cc-pvtz
SOLVENT_METHOD	PCM
PURECART	11111
SYMMETRY	false
MEM_TOTAL	110000
SCF_CONVERGENCE = 6
THRESH=10
GUI = 2
$end



$solvent
dielectric 4.90
$end
--------------------------------------------------------------
 ----------------------------------------------------------------
             Standard Nuclear Orientation (Angstroms)
    I     Atom           X                Y                Z
 ----------------------------------------------------------------
    1      C      -0.0499260000    -0.3973950000    -0.2115950000
    2      S       0.0189740000     0.3928050000     1.3689050000
    3      C       0.1616740000     2.0243050000     0.6933050000
    4      C       0.0368740000     0.5968050000    -1.1969950000
    5      C       0.1518740000     1.9120050000    -0.7050950000
    6      H       0.0163740000     0.3621050000    -2.2714950000
    7      H       0.2285740000     2.7896050000    -1.3641950000
    8      C      -0.0499260000    -1.8755950000    -0.2115950000
    9      H       0.7777740000    -1.8761950000    -0.9053950000
   10      H       0.5842740000    -2.3148950000     0.5442050000
   11      H      -0.5726260000    -2.5865950000    -0.8342950000
   12      H       0.2383740000     2.9016050000     1.3444050000
 ----------------------------------------------------------------
 Nuclear Repulsion Energy =         270.15277337 hartrees
 There are       26 alpha and       26 beta electrons
 Requested basis set is cc-pVTZ
 There are 98 shells and 268 basis functions

 Total QAlloc Memory Limit 110000 MB
 Mega-Array Size       188 MB
 MEM_STATIC part       192 MB
 Discretize the solute cavity surface with Lebedev spheres
	Using 110 Lebedev grid points for each H atom
	Using 194 Lebedev grid points for other atoms
	Atomic van der Waals radii will be scaled by 1.20
 Remove points where switching function is < 1.0e-08
 Keep 898 surface tesserae and discard 926 interior tesserae
 Molecular Surface Area = 138.328 Angst**2

                       Distance Matrix (Angstroms)
             C (  1)   S (  2)   C (  3)   C (  4)   C (  5)   H (  6)
   S (  2)  1.768373
   C (  3)  2.593887  1.771607
   C (  4)  1.402491  2.574059  2.372038
   C (  5)  2.370146  2.574317  1.402936  1.408880
   H (  6)  2.196457  3.640530  3.402067  1.100025  2.207750
   H (  7)  3.400444  3.641211  2.196239  2.207505  1.100217  2.600188
   C (  8)  1.478200  2.765568  4.009094  2.662951  3.824942  3.042184
   H (  9)  1.831200  3.300997  4.260202  2.598017  3.844780  2.730558
   H ( 10)  2.156444  2.886405  4.362279  3.436484  4.428815  3.926450
   H ( 11)  2.335287  3.752453  4.912551  3.261453  4.558398  3.332761
   H ( 12)  3.658914  2.518494  1.095203  3.436775  2.277551  4.424147
             H (  7)   C (  8)   H (  9)   H ( 10)   H ( 11)
   C (  8)  4.813537
   H (  9)  4.720361  1.080021
   H ( 10)  5.461175  1.080013  1.526840
   H ( 11)  5.461341  1.080042  1.527515  1.820028
   H ( 12)  2.710932  5.032484  5.308477  5.288841  5.960268
 
 Requested basis set is rimp2-cc-pVTZ
 There are 207 shells and 707 basis functions
 A cutoff of  1.0D-10 yielded   4369 shell pairs
 There are     32767 function pairs (     42363 Cartesian)
 Smallest overlap matrix eigenvalue = 1.17E-04

 Scale SEOQF with 1.000000e+00/1.000000e-01/1.000000e-01

 Standard Electronic Orientation quadrupole field applied
 Nucleus-field energy     =     0.0000000022 hartrees
 Guess from superposition of atomic densities
 Warning:  Energy on first SCF cycle will be non-variational
 SAD guess density has 52.000000 electrons

 -----------------------------------------------------------------------
  General SCF calculation program by
  Eric Jon Sundstrom, Paul Horn, Yuezhi Mao, Dmitri Zuev, Alec White,
  David Stuck, Shaama M.S., Shane Yost, Joonho Lee, David Small,
  Daniel Levine, Susi Lehtola, Hugh Burton, Evgeny Epifanovsky,
  Bang C. Huynh
 -----------------------------------------------------------------------
 Hartree-Fock
 using 64 threads for integral computing
 -------------------------------------------------------
 OpenMP Integral computing Module                
 Release: version 1.0, May 2013, Q-Chem Inc. Pittsburgh 
 -------------------------------------------------------
 A restricted SCF calculation will be
 performed using DIIS
 SCF converges when DIIS error is below 1.0e-06
 ---------------------------------------
  Cycle       Energy         DIIS error
 ---------------------------------------
    1    -592.5717979334      3.22e-02  
    2    -590.3034670463      2.18e-03  
    3    -590.3640782860      8.26e-04  
    4    -590.3711573377      3.98e-04  
    5    -590.3731386857      6.95e-05  
    6    -590.3732580032      3.12e-05  
    7    -590.3732865923      1.41e-05  
    8    -590.3732957220      5.61e-06  
    9    -590.3732971676      1.88e-06  
   10    -590.3732972995      5.99e-07  Convergence criterion met
 ---------------------------------------
 SCF time:   CPU 484.11s  wall 8.00s 

************** Final PCM Free Energy Summary **************
 G_electrostatic  =      -0.00589355 hartree =      -3.69825861 kcal/mol
 G_cavitation     =       0.00000000 hartree =       0.00000000 kcal/mol
 G_dispersion     =       0.00000000 hartree =       0.00000000 kcal/mol
 G_repulsion      =       0.00000000 hartree =       0.00000000 kcal/mol
 --------------------------------------------------
 Non-electrostatic Free Energy =       0.00000000 hartree =       0.00000000 kcal/mol
 Total                         =      -0.00589355 hartree =      -3.69825861 kcal/mol
 --------------------------------------------------
 SCF Energy (H0 + V/2)                       =    -590.37329730 
 Solute Internal Energy (H0)                 =    -590.36740375 
 Total Free Energy (H0 + V/2 + non-elec)     =    -590.37329730 hartree
                                             = -370464.83548093 kcal/mol
***********************************************************

 SCF   energy in the final basis set =     -590.3732972995
 Total energy in the final basis set =     -590.3732972995


 --------------------------------------------------------------
  Generalized many-body perturbation theory program
  by Joonho Lee, Fazle Rob, Xintian Feng, Evgeny Epifanovsky

 No regularization used 
 (reg. param. = 0.0000e+00)
  (P|Q)^-1/2 Time:  CPU 8.45 s  wall 0.14 s

 In RI-MP2 calculation: 
 # of frozen core orbitals: 10

 Components of the RIMP2 correlation energy:
        aaaa    correlation energy =        -0.1252720334 a.u.
        abab    correlation energy =        -0.7506529398 a.u.
        bbbb    correlation energy =        -0.1252720334 a.u.
        non-Brillouin singles      =        -0.0000000000 a.u.
        total same-spin energy     =        -0.2505440668 a.u.
        total opposite-spin energy =        -0.7506529398 a.u.

 Total  RIMP2   correlation energy =        -1.0011970066 a.u.
        RIMP2         total energy =      -591.3744943061 a.u.

 RI-MP2 Energy Time:  CPU 26.19 s  wall 0.47 s
 
 --------------------------------------------------------------
 
                    Orbital Energies (a.u.)
 --------------------------------------------------------------
 
 Alpha MOs
 -- Occupied --
-91.9782 -11.2894 -11.2639 -11.2430 -11.2341 -11.2260  -8.9780  -6.6589
 -6.6584  -6.6578  -1.1569  -1.0394  -0.9719  -0.9192  -0.7542  -0.7231
 -0.6718  -0.5974  -0.5669  -0.5561  -0.5435  -0.4986  -0.4702  -0.4507
 -0.3456  -0.3028
 -- Virtual --
  0.1090   0.1479   0.1603   0.1793   0.1850   0.1925   0.2180   0.2260
  0.2401   0.2495   0.3150   0.3281   0.3556   0.3676   0.3871   0.4063
  0.4230   0.4465   0.4640   0.4871   0.4962   0.5123   0.5276   0.5345
  0.5451   0.5482   0.5697   0.5838   0.5931   0.6112   0.6151   0.6194
  0.6358   0.6453   0.6541   0.6544   0.7054   0.7092   0.7317   0.7710
  0.7832   0.8076   0.8309   0.8592   0.8777   0.8873   0.8988   0.9106
  0.9511   0.9772   1.0088   1.0253   1.0619   1.0761   1.0940   1.1223
  1.1510   1.1691   1.1717   1.1878   1.2146   1.2327   1.2400   1.2663
  1.2817   1.3183   1.3406   1.3460   1.3915   1.4014   1.4262   1.4503
  1.4728   1.4950   1.5106   1.5280   1.5361   1.5493   1.5672   1.5796
  1.5916   1.6236   1.6452   1.6776   1.7227   1.7389   1.7651   1.7956
  1.8314   1.8893   1.9086   1.9309   1.9396   1.9854   2.0563   2.0784
  2.1576   2.1713   2.2100   2.2274   2.2598   2.2851   2.3241   2.4193
  2.4269   2.4568   2.4907   2.5252   2.5706   2.5940   2.6393   2.6458
  2.7057   2.7087   2.7195   2.7454   2.7607   2.7778   2.7939   2.8205
  2.8740   2.8907   2.9176   2.9515   2.9762   3.0143   3.0228   3.0430
  3.0473   3.0818   3.1167   3.1361   3.1749   3.2051   3.2328   3.2482
  3.2599   3.2708   3.2961   3.3130   3.3258   3.3416   3.3514   3.3848
  3.3955   3.4268   3.4408   3.4539   3.4694   3.4776   3.4953   3.5115
  3.5134   3.5265   3.5509   3.5665   3.5847   3.6212   3.6335   3.6693
  3.6770   3.6943   3.7196   3.7329   3.7616   3.7716   3.7816   3.8383
  3.8540   3.8816   3.8975   3.9148   3.9345   3.9515   3.9710   3.9847
  4.0206   4.0428   4.0686   4.1001   4.1187   4.1626   4.1657   4.1984
  4.2249   4.2460   4.2786   4.2962   4.3136   4.3455   4.3676   4.3888
  4.4084   4.4664   4.4881   4.4982   4.5436   4.5734   4.6041   4.6498
  4.6545   4.6967   4.7291   4.7743   4.7886   4.8076   4.8618   4.8848
  4.9414   4.9920   5.0185   5.0360   5.0788   5.1452   5.1722   5.1973
  5.2160   5.3074   5.3569   5.4295   5.4551   5.4927   5.5337   5.5712
  5.6351   5.7215   5.7888   5.8144   5.8740   5.9466   6.0140   6.0856
  6.1371   6.3338   6.4156   6.4794   6.6999   9.3672  11.3203  12.8715
 13.9452  14.2384
 --------------------------------------------------------------
 
          Ground-State Mulliken Net Atomic Charges

     Atom                 Charge (a.u.)
  ----------------------------------------
      1 C                     0.036360
      2 S                    -0.002353
      3 C                    -0.242514
      4 C                    -0.237255
      5 C                    -0.190374
      6 H                     0.181268
      7 H                     0.185593
      8 C                    -0.364368
      9 H                     0.134241
     10 H                     0.138282
     11 H                     0.157681
     12 H                     0.203440
  ----------------------------------------
  Sum of atomic charges =     0.000000

 -----------------------------------------------------------------
                    Cartesian Multipole Moments
 -----------------------------------------------------------------
    Charge (ESU x 10^10)
                -0.0000
    Dipole Moment (Debye)
         X       0.6611      Y      -0.6610      Z      -1.5187
       Tot       1.7834
    Quadrupole Moments (Debye-Ang)
        XX     -47.9588     XY      -0.2733     YY     -36.1236
        XZ       0.3066     YZ       1.8784     ZZ     -41.7548
    Octopole Moments (Debye-Ang^2)
       XXX      -7.6318    XXY     -21.7784    XYY       1.3646
       YYY     -42.2956    XXZ      -7.0855    XYZ      -0.7935
       YYZ      -6.5449    XZZ      -1.6931    YZZ     -11.2416
       ZZZ     -27.8094
    Hexadecapole Moments (Debye-Ang^3)
      XXXX     -68.1288   XXXY     -15.5915   XXYY    -114.8023
      XYYY      -8.0025   YYYY    -499.1114   XXXZ      -0.9946
      XXYZ      -7.1999   XYYZ       3.9316   YYYZ      -4.8267
      XXZZ     -69.5215   XYZZ      -1.8762   YYZZ    -124.0279
      XZZZ      -0.3623   YZZZ     -16.7899   ZZZZ    -308.5503
 -----------------------------------------------------------------
 Total job time:  10.15s(wall), 547.00s(cpu) 
 Wed Dec 27 10:06:56 2023

        *************************************************************
        *                                                           *
        *  Thank you very much for using Q-Chem.  Have a nice day.  *
        *                                                           *
        *************************************************************


0 sent ACK to 0 
now end server 0 ... 
cleanup process ... done
remove work dirs ./qchem656846.0 -- ./qchem656846.0
rm -rf ./qchem656846.0
rm -rf ./qchem656846
