You are running Q-Chem version: 5.4.0

#
# job setting
#
local host:  exp-9-19
current dir: /expanse/lustre/projects/csd626/rramji/aromodel/impropers-p3ht/Improper_Bend_Test
input file:  Thiophene_Improper_Bend_Methyl_Phi_0.qcin
output file: 
nprocs     : 1
nthreads   : 64
#
# qchem installation setting
#
QC:          /cm/shared/apps/spack/cpu/opt/spack/linux-centos8-zen2/gcc-10.2.0/qchem-5.4-akfmr7b3t57bfs6qan3padb2wnb2i7cl
QCAUX:       /cm/shared/apps/spack/cpu/opt/spack/linux-centos8-zen2/gcc-10.2.0/qchem-5.4-akfmr7b3t57bfs6qan3padb2wnb2i7cl/qcaux
QCPROG:      /cm/shared/apps/spack/cpu/opt/spack/linux-centos8-zen2/gcc-10.2.0/qchem-5.4-akfmr7b3t57bfs6qan3padb2wnb2i7cl/exe/qcprog.exe
QCPROG_S:    /cm/shared/apps/spack/cpu/opt/spack/linux-centos8-zen2/gcc-10.2.0/qchem-5.4-akfmr7b3t57bfs6qan3padb2wnb2i7cl/exe/qcprog.exe_s
PARALLEL:    -DPARALLEL
QCMPI:       mpich
#
# qchem directory setting
#
qcrun:       qchem3598428
QCSCRATCH:   .
QCLOCALSCR:  
QCTMPDIR:    .
QCFILEPREF:  ./qchem3598428
QCSAVEDIR:   
workdirs:    ./qchem3598428
workdir0:    ./qchem3598428
partmpdirs =  
#
# parallel setting
#
QCRSH:           ssh
QCMPI:           mpich
QCMPIRUN:        /cm/shared/apps/spack/cpu/opt/spack/linux-centos8-zen2/gcc-10.2.0/qchem-5.4-akfmr7b3t57bfs6qan3padb2wnb2i7cl/bin/mpi/mpirun_qchem
QCMACHINEFILE:   ./qchem3598428/hostfile
exp-9-19

#
# env setting
#
exported envs:   QC QCAUX QCSCRATCH QCRUNNAME QCFILEPREF QCPROG QCPROG_S GUIFILE

Running Job 1 of 1 Thiophene_Improper_Bend_Methyl_Phi_0.qcin
qchem Thiophene_Improper_Bend_Methyl_Phi_0.qcin_3598428.0 ./qchem3598428/ 1
/cm/shared/apps/spack/cpu/opt/spack/linux-centos8-zen2/gcc-10.2.0/qchem-5.4-akfmr7b3t57bfs6qan3padb2wnb2i7cl/bin/mpi/mpirun_qchem -machinefile ./qchem3598428/hostfile -np 1 /cm/shared/apps/spack/cpu/opt/spack/linux-centos8-zen2/gcc-10.2.0/qchem-5.4-akfmr7b3t57bfs6qan3padb2wnb2i7cl/exe/qcprog.exe Thiophene_Improper_Bend_Methyl_Phi_0.qcin_3598428.0 ./qchem3598428/

Process 0 of 1 is on exp-9-19 - thread support 0
initial socket setup ...start
initial socket setup ...done 
now start server 0 ... 
                  Welcome to Q-Chem
     A Quantum Leap Into The Future Of Chemistry


 Q-Chem 5.4, Q-Chem, Inc., Pleasanton, CA (2021)

 License issued to: University of California, San Diego (site)

 E. Epifanovsky,  A. T. B. Gilbert,  Xintian Feng,  Joonho Lee,  Yuezhi Mao,  
 N. Mardirossian,  P. Pokhilko,  A. White,  M. Wormit,  M. P. Coons,  
 A. L. Dempwolff,  Zhengting Gan,  D. Hait,  P. R. Horn,  L. D. Jacobson,  
 I. Kaliman,  J. Kussmann,  A. W. Lange,  Ka Un Lao,  D. S. Levine,  Jie Liu,  
 S. C. McKenzie,  A. F. Morrison,  K. Nanda,  F. Plasser,  D. R. Rehn,  
 M. L. Vidal,  Zhi-Qiang You,  Ying Zhu,  B. Alam,  B. Albrecht,  
 A. Aldossary,  E. Alguire,  J. H. Andersen,  D. Barton,  K. Begam,  A. Behn,  
 Y. A. Bernard,  E. J. Berquist,  H. Burton,  A. Carreras,  K. Carter-Fenk,  
 R. Chakraborty,  A. D. Chien,  K. D. Closser,  V. Cofer-Shabica,  
 S. Dasgupta,  Jia Deng,  M. de Wergifosse,  M. Diedenhofen,  Hainam Do,  
 S. Ehlert,  Po-Tung Fang,  S. Fatehi,  Qingguo Feng,  J. Gayvert,  
 Qinghui Ge,  G. Gidofalvi,  M. Goldey,  J. Gomes,  C. Gonzalez-Espinoza,  
 S. Gulania,  A. Gunina,  M. W. D. Hanson-Heine,  P. H. P. Harbach,  
 A. W. Hauser,  M. F. Herbst,  M. Hernandez Vera,  M. Hodecker,  
 Z. C. Holden,  S. Houck,  Xunkun Huang,  Kerwin Hui,  B. C. Huynh,  
 M. Ivanov,  Hyunjun Ji,  Hanjie Jiang,  B. Kaduk,  S. Kaehler,  
 K. Khistyaev,  Jaehoon Kim,  P. Klunzinger,  Z. Koczor-Benda,  
 Joong Hoon Koh,  D. Kosenkov,  L. Koulias,  T. Kowalczyk,  C. M. Krauter,  
 K. Kue,  A. Kunitsa,  T. Kus,  A. Landau,  K. V. Lawler,  D. Lefrancois,  
 S. Lehtola,  Rain Li,  Yi-Pei Li,  Jiashu Liang,  M. Liebenthal,  
 Hung-Hsuan Lin,  You-Sheng Lin,  Fenglai Liu,  Kuan-Yu Liu,  
 M. Loipersberger,  A. Luenser,  A. Manjanath,  P. Manohar,  E. Mansoor,  
 S. F. Manzer,  Shan-Ping Mao,  A. V. Marenich,  T. Markovich,  S. Mason,  
 S. A. Maurer,  P. F. McLaughlin,  M. F. S. J. Menger,  J.-M. Mewes,  
 S. A. Mewes,  P. Morgante,  J. W. Mullinax,  T. S. Nguyen-Beck,  
 K. J. Oosterbaan,  G. Paran,  Alexander C. Paul,  Suranjan K. Paul,  
 F. Pavosevic,  Zheng Pei,  S. Prager,  E. I. Proynov,  E. Ramos,  B. Rana,  
 A. E. Rask,  A. Rettig,  R. M. Richard,  F. Rob,  E. Rossomme,  T. Scheele,  
 M. Scheurer,  M. Schneider,  N. Sergueev,  S. M. Sharada,  W. Skomorowski,  
 D. W. Small,  C. J. Stein,  Yu-Chuan Su,  E. J. Sundstrom,  Zhen Tao,  
 J. Thirman,  T. Tsuchimochi,  N. M. Tubman,  S. P. Veccham,  O. Vydrov,  
 J. Wenzel,  J. Witte,  A. Yamada,  Kun Yao,  S. Yeganeh,  S. R. Yost,  
 A. Zech,  Igor Ying Zhang,  Xing Zhang,  Yu Zhang,  D. Zuev,  
 A. Aspuru-Guzik,  A. T. Bell,  N. A. Besley,  K. B. Bravaya,  B. R. Brooks,  
 D. Casanova,  Jeng-Da Chai,  S. Coriani,  C. J. Cramer,  
 A. E. DePrince, III,  R. A. DiStasio Jr.,  A. Dreuw,  B. D. Dunietz,  
 T. R. Furlani,  W. A. Goddard III,  S. Grimme,  S. Hammes-Schiffer,  
 T. Head-Gordon,  W. J. Hehre,  Chao-Ping Hsu,  T.-C. Jagau,  Yousung Jung,  
 A. Klamt,  Jing Kong,  D. S. Lambrecht,  WanZhen Liang,  N. J. Mayhall,  
 C. W. McCurdy,  J. B. Neaton,  C. Ochsenfeld,  J. A. Parkhill,  R. Peverati,  
 V. A. Rassolov,  Yihan Shao,  L. V. Slipchenko,  T. Stauch,  R. P. Steele,  
 J. E. Subotnik,  A. J. W. Thom,  A. Tkatchenko,  D. G. Truhlar,  
 T. Van Voorhis,  T. A. Wesolowski,  K. B. Whaley,  H. L. Woodcock III,  
 P. M. Zimmerman,  S. Faraji,  P. M. W. Gill,  M. Head-Gordon,  
 J. M. Herbert,  A. I. Krylov

 Contributors to earlier versions of Q-Chem not listed above: 
 R. D. Adamson,  B. Austin,  R. Baer,  J. Baker,  G. J. O. Beran,  
 K. Brandhorst,  S. T. Brown,  E. F. C. Byrd,  A. K. Chakraborty,  
 G. K. L. Chan,  Chun-Min Chang,  Yunqing Chen,  C.-L. Cheng,  
 Siu Hung Chien,  D. M. Chipman,  D. L. Crittenden,  H. Dachsel,  
 R. J. Doerksen,  A. D. Dutoi,  R. G. Edgar,  J. Fosso-Tande,  
 L. Fusti-Molnar,  D. Ghosh,  A. Ghysels,  A. Golubeva-Zadorozhnaya,  
 J. Gonthier,  M. S. Gordon,  S. R. Gwaltney,  G. Hawkins,  J. E. Herr,  
 A. Heyden,  S. Hirata,  E. G. Hohenstein,  G. Kedziora,  F. J. Keil,  
 C. Kelley,  Jihan Kim,  R. A. King,  R. Z. Khaliullin,  P. P. Korambath,  
 W. Kurlancheek,  A. Laurent,  A. M. Lee,  M. S. Lee,  S. V. Levchenko,  
 Ching Yeh Lin,  D. Liotard,  E. Livshits,  R. C. Lochan,  I. Lotan,  
 L. A. Martinez-Martinez,  P. E. Maslen,  N. Nair,  D. P. O'Neill,  
 D. Neuhauser,  E. Neuscamman,  C. M. Oana,  R. Olivares-Amaya,  R. Olson,  
 T. M. Perrine,  B. Peters,  P. A. Pieniazek,  A. Prociuk,  Y. M. Rhee,  
 J. Ritchie,  M. A. Rohrdanz,  E. Rosta,  N. J. Russ,  H. F. Schaefer III,  
 M. W. Schmidt,  N. E. Schultz,  S. Sharma,  N. Shenvi,  C. D. Sherrill,  
 A. C. Simmonett,  A. Sodt,  T. Stein,  D. Stuck,  K. S. Thanthiriwatte,  
 V. Vanovschi,  L. Vogt,  Tao Wang,  A. Warshel,  M. A. Watson,  
 C. F. Williams,  Q. Wu,  X. Xu,  Jun Yang,  W. Zhang,  Yan Zhao

 Please cite Q-Chem as follows:
 Y. Shao et al., Mol. Phys. 113, 184-215 (2015)
 DOI: 10.1080/00268976.2014.952696

 Q-Chem 5.4.0 for Intel X86 EM64T Linux

 Parts of Q-Chem use Armadillo 9.800.1 (Horizon Scraper).
 http://arma.sourceforge.net/

 Q-Chem begins on Fri Mar  1 09:56:20 2024  

 Host: 
0

     Scratch files written to ./qchem3598428//
 May1621 |scratch|qcdevops|jenkins|workspace|build_RNUM    
 Parallel job on  1  processors
 Processing $rem in /cm/shared/apps/spack/cpu/opt/spack/linux-centos8-zen2/gcc-10.2.0/qchem-5.4-akfmr7b3t57bfs6qan3padb2wnb2i7cl/config/preferences:
 Processing $rem in /home/rramji/.qchemrc:
 Symmetry turned off for PCM/SM12/SMD calculation
 Core orbitals will be frozen

 Checking the input file for inconsistencies... 	...done.

 Q-Chem warning in module forms1/BasisType.C, line 2236:

 You are not using the predefined 5D/6D in this basis set.


--------------------------------------------------------------
User input:
--------------------------------------------------------------
$molecule
0 1
C	0.000077	0.399302	0.214478
S	-0.000124	-0.393869	-1.366052
C	-0.000151	-2.031583	-0.690433
C	-0.000091	-0.598688	1.199878
C	-0.000190	-1.918929	0.708006
H	-0.000068	-0.363041	2.274412
H	-0.000262	-2.799862	1.367071
C	0.000077	1.877518	0.214478
H	-1.008190	2.264555	0.214478
H	0.504210	2.264555	-0.658707
H	0.504210	2.264555	1.087663
H	-0.000234	-2.912264	-1.341547
$end

$rem
JOBTYPE		SP
EXCHANGE	HF
CORRELATION	pRIMP2
BASIS		cc-pvtz
METHOD		rimp2
AUX_BASIS	rimp2-cc-pvtz
SOLVENT_METHOD	PCM
PURECART	11111
SYMMETRY	false
MEM_TOTAL	110000
SCF_CONVERGENCE = 6
THRESH=10
GUI = 2
$end



$solvent
dielectric 4.90
$end
--------------------------------------------------------------
 ----------------------------------------------------------------
             Standard Nuclear Orientation (Angstroms)
    I     Atom           X                Y                Z
 ----------------------------------------------------------------
    1      C       0.0000770000     0.3993020000     0.2144780000
    2      S      -0.0001240000    -0.3938690000    -1.3660520000
    3      C      -0.0001510000    -2.0315830000    -0.6904330000
    4      C      -0.0000910000    -0.5986880000     1.1998780000
    5      C      -0.0001900000    -1.9189290000     0.7080060000
    6      H      -0.0000680000    -0.3630410000     2.2744120000
    7      H      -0.0002620000    -2.7998620000     1.3670710000
    8      C       0.0000770000     1.8775180000     0.2144780000
    9      H      -1.0081900000     2.2645550000     0.2144780000
   10      H       0.5042100000     2.2645550000    -0.6587070000
   11      H       0.5042100000     2.2645550000     1.0876630000
   12      H      -0.0002340000    -2.9122640000    -1.3415470000
 ----------------------------------------------------------------
 Nuclear Repulsion Energy =         269.98978773 hartrees
 There are       26 alpha and       26 beta electrons
 Requested basis set is cc-pVTZ
 There are 98 shells and 268 basis functions

 Total QAlloc Memory Limit 110000 MB
 Mega-Array Size       188 MB
 MEM_STATIC part       192 MB
 Discretize the solute cavity surface with Lebedev spheres
	Using 110 Lebedev grid points for each H atom
	Using 194 Lebedev grid points for other atoms
	Atomic van der Waals radii will be scaled by 1.20
 Remove points where switching function is < 1.0e-08
 Keep 902 surface tesserae and discard 922 interior tesserae
 Molecular Surface Area = 138.585 Angst**2

                       Distance Matrix (Angstroms)
             C (  1)   S (  2)   C (  3)   C (  4)   C (  5)   H (  6)
   S (  2)  1.768388
   C (  3)  2.593852  1.771600
   C (  4)  1.402497  2.574092  2.372017
   C (  5)  2.370182  2.574398  1.402969  1.408891
   H (  6)  2.196473  3.640595  3.402108  1.100069  2.207808
   H (  7)  3.400459  3.641259  2.196264  2.207515  1.100186  2.600262
   C (  8)  1.478216  2.767178  4.012472  2.665072  3.828391  3.043589
   H (  9)  2.120323  3.252920  4.504643  3.191463  4.331417  3.487678
   H ( 10)  2.120323  2.796767  4.325759  3.450626  4.429883  3.970106
   H ( 11)  2.120323  3.652710  4.676837  2.909480  4.230851  2.926932
   H ( 12)  3.658918  2.518514  1.095239  3.436783  2.277582  4.424217
             H (  7)   C (  8)   H (  9)   H ( 10)   H ( 11)
   C (  8)  4.817297
   H (  9)  5.290814  1.080000
   H ( 10)  5.477827  1.080000  1.746369
   H ( 11)  5.097144  1.080000  1.746369  1.746370
   H ( 12)  2.710949  5.036192  5.498786  5.245969  5.740643
 
 Requested basis set is rimp2-cc-pVTZ
 There are 207 shells and 707 basis functions
 A cutoff of  1.0D-10 yielded   4365 shell pairs
 There are     32723 function pairs (     42289 Cartesian)
 Smallest overlap matrix eigenvalue = 1.14E-04

 Scale SEOQF with 1.000000e+00/1.000000e-01/1.000000e-01

 Standard Electronic Orientation quadrupole field applied
 Nucleus-field energy     =     0.0000000021 hartrees
 Guess from superposition of atomic densities
 Warning:  Energy on first SCF cycle will be non-variational
 SAD guess density has 52.000000 electrons

 -----------------------------------------------------------------------
  General SCF calculation program by
  Eric Jon Sundstrom, Paul Horn, Yuezhi Mao, Dmitri Zuev, Alec White,
  David Stuck, Shaama M.S., Shane Yost, Joonho Lee, David Small,
  Daniel Levine, Susi Lehtola, Hugh Burton, Evgeny Epifanovsky,
  Bang C. Huynh
 -----------------------------------------------------------------------
 Hartree-Fock
 using 64 threads for integral computing
 -------------------------------------------------------
 OpenMP Integral computing Module                
 Release: version 1.0, May 2013, Q-Chem Inc. Pittsburgh 
 -------------------------------------------------------
 A restricted SCF calculation will be
 performed using DIIS
 SCF converges when DIIS error is below 1.0e-06
 ---------------------------------------
  Cycle       Energy         DIIS error
 ---------------------------------------
    1    -592.5185315939      3.20e-02  
    2    -590.3531963090      2.16e-03  
    3    -590.4134161297      7.88e-04  
    4    -590.4201332362      3.87e-04  
    5    -590.4219891972      6.61e-05  
    6    -590.4221063573      2.85e-05  
    7    -590.4221341678      1.38e-05  
    8    -590.4221427222      5.50e-06  
    9    -590.4221440882      1.78e-06  
   10    -590.4221441940      5.65e-07  Convergence criterion met
 ---------------------------------------
 SCF time:   CPU 505.24s  wall 9.00s 

************** Final PCM Free Energy Summary **************
 G_electrostatic  =      -0.00525745 hartree =      -3.29910267 kcal/mol
 G_cavitation     =       0.00000000 hartree =       0.00000000 kcal/mol
 G_dispersion     =       0.00000000 hartree =       0.00000000 kcal/mol
 G_repulsion      =       0.00000000 hartree =       0.00000000 kcal/mol
 --------------------------------------------------
 Non-electrostatic Free Energy =       0.00000000 hartree =       0.00000000 kcal/mol
 Total                         =      -0.00525745 hartree =      -3.29910267 kcal/mol
 --------------------------------------------------
 SCF Energy (H0 + V/2)                       =    -590.42214419 
 Solute Internal Energy (H0)                 =    -590.41688674 
 Total Free Energy (H0 + V/2 + non-elec)     =    -590.42214419 hartree
                                             = -370495.48736985 kcal/mol
***********************************************************

 SCF   energy in the final basis set =     -590.4221441940
 Total energy in the final basis set =     -590.4221441940


 --------------------------------------------------------------
  Generalized many-body perturbation theory program
  by Joonho Lee, Fazle Rob, Xintian Feng, Evgeny Epifanovsky

 No regularization used 
 (reg. param. = 0.0000e+00)
  (P|Q)^-1/2 Time:  CPU 8.59 s  wall 0.14 s

 In RI-MP2 calculation: 
 # of frozen core orbitals: 10

 Components of the RIMP2 correlation energy:
        aaaa    correlation energy =        -0.1236828969 a.u.
        abab    correlation energy =        -0.7462338352 a.u.
        bbbb    correlation energy =        -0.1236828969 a.u.
        non-Brillouin singles      =        -0.0000000000 a.u.
        total same-spin energy     =        -0.2473657938 a.u.
        total opposite-spin energy =        -0.7462338352 a.u.

 Total  RIMP2   correlation energy =        -0.9935996290 a.u.
        RIMP2         total energy =      -591.4157438230 a.u.

 RI-MP2 Energy Time:  CPU 33.88 s  wall 0.62 s
 
 --------------------------------------------------------------
 
                    Orbital Energies (a.u.)
 --------------------------------------------------------------
 
 Alpha MOs
 -- Occupied --
-91.9780 -11.2780 -11.2663 -11.2425 -11.2357 -11.2266  -8.9778  -6.6587
 -6.6582  -6.6577  -1.1549  -1.0298  -0.9715  -0.9133  -0.7543  -0.7175
 -0.6673  -0.5882  -0.5872  -0.5569  -0.5413  -0.4971  -0.4880  -0.4542
 -0.3455  -0.3082
 -- Virtual --
  0.1083   0.1489   0.1603   0.1823   0.1888   0.1979   0.2178   0.2293
  0.2409   0.2460   0.3066   0.3404   0.3655   0.3724   0.3898   0.4016
  0.4249   0.4372   0.4581   0.4724   0.4965   0.5064   0.5241   0.5342
  0.5503   0.5531   0.5722   0.5823   0.6018   0.6094   0.6162   0.6286
  0.6403   0.6454   0.6485   0.6576   0.6722   0.7084   0.7341   0.7812
  0.7855   0.8001   0.8543   0.8605   0.8737   0.8809   0.8966   0.9099
  0.9641   0.9813   0.9980   1.0414   1.0651   1.0836   1.0900   1.0975
  1.1542   1.1651   1.1815   1.1933   1.2239   1.2359   1.2478   1.2658
  1.2821   1.3117   1.3305   1.3542   1.3780   1.4030   1.4295   1.4436
  1.4710   1.4817   1.4986   1.5266   1.5404   1.5565   1.5636   1.5642
  1.6230   1.6366   1.6458   1.6768   1.7050   1.7348   1.7454   1.7962
  1.8325   1.8819   1.8887   1.9219   1.9289   1.9945   2.0583   2.0836
  2.1500   2.1742   2.1799   2.2227   2.2522   2.2756   2.3317   2.4050
  2.4132   2.4599   2.4683   2.5120   2.5473   2.5784   2.6062   2.6373
  2.6483   2.6908   2.7298   2.7384   2.7483   2.7723   2.8065   2.8286
  2.8816   2.8987   2.9404   2.9905   3.0042   3.0181   3.0219   3.0821
  3.0938   3.1306   3.1415   3.1702   3.2011   3.2210   3.2247   3.2416
  3.2511   3.2695   3.2868   3.3028   3.3160   3.3416   3.3546   3.3777
  3.3989   3.4342   3.4366   3.4450   3.4563   3.4669   3.4752   3.4912
  3.5118   3.5177   3.5298   3.5685   3.6034   3.6216   3.6486   3.6611
  3.6780   3.6882   3.7093   3.7343   3.7430   3.7878   3.8160   3.8185
  3.8630   3.8762   3.8945   3.9036   3.9440   3.9552   3.9886   4.0192
  4.0234   4.0657   4.1058   4.1259   4.1493   4.1742   4.1867   4.2035
  4.2361   4.2428   4.2491   4.2696   4.3076   4.3213   4.3793   4.3945
  4.4213   4.4347   4.4495   4.4636   4.5037   4.5314   4.6181   4.6229
  4.6305   4.6754   4.6849   4.7298   4.7715   4.8098   4.8327   4.8631
  4.9562   4.9954   5.0038   5.0175   5.1348   5.1642   5.1747   5.2508
  5.2789   5.3285   5.3437   5.4261   5.4667   5.5074   5.5356   5.5558
  5.5949   5.6043   5.6892   5.7254   5.7773   5.8432   6.0167   6.0358
  6.0898   6.2582   6.2767   6.4374   6.6668   9.2449  11.2507  12.8035
 14.0144  14.5907
 --------------------------------------------------------------
 
          Ground-State Mulliken Net Atomic Charges

     Atom                 Charge (a.u.)
  ----------------------------------------
      1 C                     0.012860
      2 S                    -0.006696
      3 C                    -0.239497
      4 C                    -0.236185
      5 C                    -0.188562
      6 H                     0.184423
      7 H                     0.185656
      8 C                    -0.266574
      9 H                     0.117935
     10 H                     0.114942
     11 H                     0.117158
     12 H                     0.204539
  ----------------------------------------
  Sum of atomic charges =     0.000000

 -----------------------------------------------------------------
                    Cartesian Multipole Moments
 -----------------------------------------------------------------
    Charge (ESU x 10^10)
                -0.0000
    Dipole Moment (Debye)
         X      -0.0129      Y       0.4679      Z       1.0921
       Tot       1.1882
    Quadrupole Moments (Debye-Ang)
        XX     -47.6783     XY       0.0346     YY     -36.4527
        XZ      -0.0153     YZ       0.8411     ZZ     -41.7872
    Octopole Moments (Debye-Ang^2)
       XXX      -0.6689    XXY      22.7647    XYY       0.1478
       YYY      39.0771    XXZ       7.3109    XYZ      -0.0090
       YYZ       3.6084    XZZ       0.6455    YZZ      10.9275
       ZZZ      28.5061
    Hexadecapole Moments (Debye-Ang^3)
      XXXX     -65.3503   XXXY      -1.5479   XXYY    -113.5698
      XYYY       0.3598   YYYY    -509.6454   XXXZ      -0.1726
      XXYZ      -6.4105   XYYZ      -0.0545   YYYZ      -9.9727
      XXZZ     -69.5949   XYZZ       1.6081   YYZZ    -124.8861
      XZZZ       0.3644   YZZZ     -15.2389   ZZZZ    -307.0228
 -----------------------------------------------------------------
 Total job time:  13.40s(wall), 601.63s(cpu) 
 Fri Mar  1 09:56:33 2024

        *************************************************************
        *                                                           *
        *  Thank you very much for using Q-Chem.  Have a nice day.  *
        *                                                           *
        *************************************************************


0 sent ACK to 0 
now end server 0 ... 
cleanup process ... done
remove work dirs ./qchem3598428.0 -- ./qchem3598428.0
rm -rf ./qchem3598428.0
rm -rf ./qchem3598428
