You are running Q-Chem version: 5.4.0

#
# job setting
#
local host:  exp-9-19
current dir: /expanse/lustre/projects/csd626/rramji/aromodel/impropers-p3ht/Improper_Bend_Test
input file:  Thiophene_Improper_Bend_Methyl_Phi_30.qcin
output file: 
nprocs     : 1
nthreads   : 64
#
# qchem installation setting
#
QC:          /cm/shared/apps/spack/cpu/opt/spack/linux-centos8-zen2/gcc-10.2.0/qchem-5.4-akfmr7b3t57bfs6qan3padb2wnb2i7cl
QCAUX:       /cm/shared/apps/spack/cpu/opt/spack/linux-centos8-zen2/gcc-10.2.0/qchem-5.4-akfmr7b3t57bfs6qan3padb2wnb2i7cl/qcaux
QCPROG:      /cm/shared/apps/spack/cpu/opt/spack/linux-centos8-zen2/gcc-10.2.0/qchem-5.4-akfmr7b3t57bfs6qan3padb2wnb2i7cl/exe/qcprog.exe
QCPROG_S:    /cm/shared/apps/spack/cpu/opt/spack/linux-centos8-zen2/gcc-10.2.0/qchem-5.4-akfmr7b3t57bfs6qan3padb2wnb2i7cl/exe/qcprog.exe_s
PARALLEL:    -DPARALLEL
QCMPI:       mpich
#
# qchem directory setting
#
qcrun:       qchem3599399
QCSCRATCH:   .
QCLOCALSCR:  
QCTMPDIR:    .
QCFILEPREF:  ./qchem3599399
QCSAVEDIR:   
workdirs:    ./qchem3599399
workdir0:    ./qchem3599399
partmpdirs =  
#
# parallel setting
#
QCRSH:           ssh
QCMPI:           mpich
QCMPIRUN:        /cm/shared/apps/spack/cpu/opt/spack/linux-centos8-zen2/gcc-10.2.0/qchem-5.4-akfmr7b3t57bfs6qan3padb2wnb2i7cl/bin/mpi/mpirun_qchem
QCMACHINEFILE:   ./qchem3599399/hostfile
exp-9-19

#
# env setting
#
exported envs:   QC QCAUX QCSCRATCH QCRUNNAME QCFILEPREF QCPROG QCPROG_S GUIFILE

Running Job 1 of 1 Thiophene_Improper_Bend_Methyl_Phi_30.qcin
qchem Thiophene_Improper_Bend_Methyl_Phi_30.qcin_3599399.0 ./qchem3599399/ 1
/cm/shared/apps/spack/cpu/opt/spack/linux-centos8-zen2/gcc-10.2.0/qchem-5.4-akfmr7b3t57bfs6qan3padb2wnb2i7cl/bin/mpi/mpirun_qchem -machinefile ./qchem3599399/hostfile -np 1 /cm/shared/apps/spack/cpu/opt/spack/linux-centos8-zen2/gcc-10.2.0/qchem-5.4-akfmr7b3t57bfs6qan3padb2wnb2i7cl/exe/qcprog.exe Thiophene_Improper_Bend_Methyl_Phi_30.qcin_3599399.0 ./qchem3599399/

Process 0 of 1 is on exp-9-19 - thread support 0
initial socket setup ...start
initial socket setup ...done 
now start server 0 ... 
                  Welcome to Q-Chem
     A Quantum Leap Into The Future Of Chemistry


 Q-Chem 5.4, Q-Chem, Inc., Pleasanton, CA (2021)

 License issued to: University of California, San Diego (site)

 E. Epifanovsky,  A. T. B. Gilbert,  Xintian Feng,  Joonho Lee,  Yuezhi Mao,  
 N. Mardirossian,  P. Pokhilko,  A. White,  M. Wormit,  M. P. Coons,  
 A. L. Dempwolff,  Zhengting Gan,  D. Hait,  P. R. Horn,  L. D. Jacobson,  
 I. Kaliman,  J. Kussmann,  A. W. Lange,  Ka Un Lao,  D. S. Levine,  Jie Liu,  
 S. C. McKenzie,  A. F. Morrison,  K. Nanda,  F. Plasser,  D. R. Rehn,  
 M. L. Vidal,  Zhi-Qiang You,  Ying Zhu,  B. Alam,  B. Albrecht,  
 A. Aldossary,  E. Alguire,  J. H. Andersen,  D. Barton,  K. Begam,  A. Behn,  
 Y. A. Bernard,  E. J. Berquist,  H. Burton,  A. Carreras,  K. Carter-Fenk,  
 R. Chakraborty,  A. D. Chien,  K. D. Closser,  V. Cofer-Shabica,  
 S. Dasgupta,  Jia Deng,  M. de Wergifosse,  M. Diedenhofen,  Hainam Do,  
 S. Ehlert,  Po-Tung Fang,  S. Fatehi,  Qingguo Feng,  J. Gayvert,  
 Qinghui Ge,  G. Gidofalvi,  M. Goldey,  J. Gomes,  C. Gonzalez-Espinoza,  
 S. Gulania,  A. Gunina,  M. W. D. Hanson-Heine,  P. H. P. Harbach,  
 A. W. Hauser,  M. F. Herbst,  M. Hernandez Vera,  M. Hodecker,  
 Z. C. Holden,  S. Houck,  Xunkun Huang,  Kerwin Hui,  B. C. Huynh,  
 M. Ivanov,  Hyunjun Ji,  Hanjie Jiang,  B. Kaduk,  S. Kaehler,  
 K. Khistyaev,  Jaehoon Kim,  P. Klunzinger,  Z. Koczor-Benda,  
 Joong Hoon Koh,  D. Kosenkov,  L. Koulias,  T. Kowalczyk,  C. M. Krauter,  
 K. Kue,  A. Kunitsa,  T. Kus,  A. Landau,  K. V. Lawler,  D. Lefrancois,  
 S. Lehtola,  Rain Li,  Yi-Pei Li,  Jiashu Liang,  M. Liebenthal,  
 Hung-Hsuan Lin,  You-Sheng Lin,  Fenglai Liu,  Kuan-Yu Liu,  
 M. Loipersberger,  A. Luenser,  A. Manjanath,  P. Manohar,  E. Mansoor,  
 S. F. Manzer,  Shan-Ping Mao,  A. V. Marenich,  T. Markovich,  S. Mason,  
 S. A. Maurer,  P. F. McLaughlin,  M. F. S. J. Menger,  J.-M. Mewes,  
 S. A. Mewes,  P. Morgante,  J. W. Mullinax,  T. S. Nguyen-Beck,  
 K. J. Oosterbaan,  G. Paran,  Alexander C. Paul,  Suranjan K. Paul,  
 F. Pavosevic,  Zheng Pei,  S. Prager,  E. I. Proynov,  E. Ramos,  B. Rana,  
 A. E. Rask,  A. Rettig,  R. M. Richard,  F. Rob,  E. Rossomme,  T. Scheele,  
 M. Scheurer,  M. Schneider,  N. Sergueev,  S. M. Sharada,  W. Skomorowski,  
 D. W. Small,  C. J. Stein,  Yu-Chuan Su,  E. J. Sundstrom,  Zhen Tao,  
 J. Thirman,  T. Tsuchimochi,  N. M. Tubman,  S. P. Veccham,  O. Vydrov,  
 J. Wenzel,  J. Witte,  A. Yamada,  Kun Yao,  S. Yeganeh,  S. R. Yost,  
 A. Zech,  Igor Ying Zhang,  Xing Zhang,  Yu Zhang,  D. Zuev,  
 A. Aspuru-Guzik,  A. T. Bell,  N. A. Besley,  K. B. Bravaya,  B. R. Brooks,  
 D. Casanova,  Jeng-Da Chai,  S. Coriani,  C. J. Cramer,  
 A. E. DePrince, III,  R. A. DiStasio Jr.,  A. Dreuw,  B. D. Dunietz,  
 T. R. Furlani,  W. A. Goddard III,  S. Grimme,  S. Hammes-Schiffer,  
 T. Head-Gordon,  W. J. Hehre,  Chao-Ping Hsu,  T.-C. Jagau,  Yousung Jung,  
 A. Klamt,  Jing Kong,  D. S. Lambrecht,  WanZhen Liang,  N. J. Mayhall,  
 C. W. McCurdy,  J. B. Neaton,  C. Ochsenfeld,  J. A. Parkhill,  R. Peverati,  
 V. A. Rassolov,  Yihan Shao,  L. V. Slipchenko,  T. Stauch,  R. P. Steele,  
 J. E. Subotnik,  A. J. W. Thom,  A. Tkatchenko,  D. G. Truhlar,  
 T. Van Voorhis,  T. A. Wesolowski,  K. B. Whaley,  H. L. Woodcock III,  
 P. M. Zimmerman,  S. Faraji,  P. M. W. Gill,  M. Head-Gordon,  
 J. M. Herbert,  A. I. Krylov

 Contributors to earlier versions of Q-Chem not listed above: 
 R. D. Adamson,  B. Austin,  R. Baer,  J. Baker,  G. J. O. Beran,  
 K. Brandhorst,  S. T. Brown,  E. F. C. Byrd,  A. K. Chakraborty,  
 G. K. L. Chan,  Chun-Min Chang,  Yunqing Chen,  C.-L. Cheng,  
 Siu Hung Chien,  D. M. Chipman,  D. L. Crittenden,  H. Dachsel,  
 R. J. Doerksen,  A. D. Dutoi,  R. G. Edgar,  J. Fosso-Tande,  
 L. Fusti-Molnar,  D. Ghosh,  A. Ghysels,  A. Golubeva-Zadorozhnaya,  
 J. Gonthier,  M. S. Gordon,  S. R. Gwaltney,  G. Hawkins,  J. E. Herr,  
 A. Heyden,  S. Hirata,  E. G. Hohenstein,  G. Kedziora,  F. J. Keil,  
 C. Kelley,  Jihan Kim,  R. A. King,  R. Z. Khaliullin,  P. P. Korambath,  
 W. Kurlancheek,  A. Laurent,  A. M. Lee,  M. S. Lee,  S. V. Levchenko,  
 Ching Yeh Lin,  D. Liotard,  E. Livshits,  R. C. Lochan,  I. Lotan,  
 L. A. Martinez-Martinez,  P. E. Maslen,  N. Nair,  D. P. O'Neill,  
 D. Neuhauser,  E. Neuscamman,  C. M. Oana,  R. Olivares-Amaya,  R. Olson,  
 T. M. Perrine,  B. Peters,  P. A. Pieniazek,  A. Prociuk,  Y. M. Rhee,  
 J. Ritchie,  M. A. Rohrdanz,  E. Rosta,  N. J. Russ,  H. F. Schaefer III,  
 M. W. Schmidt,  N. E. Schultz,  S. Sharma,  N. Shenvi,  C. D. Sherrill,  
 A. C. Simmonett,  A. Sodt,  T. Stein,  D. Stuck,  K. S. Thanthiriwatte,  
 V. Vanovschi,  L. Vogt,  Tao Wang,  A. Warshel,  M. A. Watson,  
 C. F. Williams,  Q. Wu,  X. Xu,  Jun Yang,  W. Zhang,  Yan Zhao

 Please cite Q-Chem as follows:
 Y. Shao et al., Mol. Phys. 113, 184-215 (2015)
 DOI: 10.1080/00268976.2014.952696

 Q-Chem 5.4.0 for Intel X86 EM64T Linux

 Parts of Q-Chem use Armadillo 9.800.1 (Horizon Scraper).
 http://arma.sourceforge.net/

 Q-Chem begins on Fri Mar  1 09:57:46 2024  

 Host: 
0

     Scratch files written to ./qchem3599399//
 May1621 |scratch|qcdevops|jenkins|workspace|build_RNUM    
 Parallel job on  1  processors
 Processing $rem in /cm/shared/apps/spack/cpu/opt/spack/linux-centos8-zen2/gcc-10.2.0/qchem-5.4-akfmr7b3t57bfs6qan3padb2wnb2i7cl/config/preferences:
 Processing $rem in /home/rramji/.qchemrc:
 Symmetry turned off for PCM/SM12/SMD calculation
 Core orbitals will be frozen

 Checking the input file for inconsistencies... 	...done.

 Q-Chem warning in module forms1/BasisType.C, line 2236:

 You are not using the predefined 5D/6D in this basis set.


--------------------------------------------------------------
User input:
--------------------------------------------------------------
$molecule
0 1
C	0.059660	0.415268	0.214478
S	0.059459	-0.377903	-1.366052
C	0.059432	-2.015617	-0.690433
C	0.059492	-0.582722	1.199878
C	0.059393	-1.902963	0.708006
H	0.059515	-0.347075	2.274412
H	0.059321	-2.783896	1.367071
C	-0.679448	1.695441	0.214478
H	-1.746151	1.526491	0.214478
H	-0.436374	2.282692	-0.658707
H	-0.436374	2.282692	1.087663
H	0.059349	-2.896298	-1.341547
$end

$rem
JOBTYPE		SP
EXCHANGE	HF
CORRELATION	pRIMP2
BASIS		cc-pvtz
METHOD		rimp2
AUX_BASIS	rimp2-cc-pvtz
SOLVENT_METHOD	PCM
PURECART	11111
SYMMETRY	false
MEM_TOTAL	110000
SCF_CONVERGENCE = 6
THRESH=10
GUI = 2
$end



$solvent
dielectric 4.90
$end
--------------------------------------------------------------
 ----------------------------------------------------------------
             Standard Nuclear Orientation (Angstroms)
    I     Atom           X                Y                Z
 ----------------------------------------------------------------
    1      C       0.0596600000     0.4152680000     0.2144780000
    2      S       0.0594590000    -0.3779030000    -1.3660520000
    3      C       0.0594320000    -2.0156170000    -0.6904330000
    4      C       0.0594920000    -0.5827220000     1.1998780000
    5      C       0.0593930000    -1.9029630000     0.7080060000
    6      H       0.0595150000    -0.3470750000     2.2744120000
    7      H       0.0593210000    -2.7838960000     1.3670710000
    8      C      -0.6794480000     1.6954410000     0.2144780000
    9      H      -1.7461510000     1.5264910000     0.2144780000
   10      H      -0.4363740000     2.2826920000    -0.6587070000
   11      H      -0.4363740000     2.2826920000     1.0876630000
   12      H       0.0593490000    -2.8962980000    -1.3415470000
 ----------------------------------------------------------------
 Nuclear Repulsion Energy =         271.37394510 hartrees
 There are       26 alpha and       26 beta electrons
 Requested basis set is cc-pVTZ
 There are 98 shells and 268 basis functions

 Total QAlloc Memory Limit 110000 MB
 Mega-Array Size       188 MB
 MEM_STATIC part       192 MB
 Discretize the solute cavity surface with Lebedev spheres
	Using 110 Lebedev grid points for each H atom
	Using 194 Lebedev grid points for other atoms
	Atomic van der Waals radii will be scaled by 1.20
 Remove points where switching function is < 1.0e-08
 Keep 880 surface tesserae and discard 944 interior tesserae
 Molecular Surface Area = 137.596 Angst**2

                       Distance Matrix (Angstroms)
             C (  1)   S (  2)   C (  3)   C (  4)   C (  5)   H (  6)
   S (  2)  1.768388
   C (  3)  2.593852  1.771600
   C (  4)  1.402497  2.574092  2.372017
   C (  5)  2.370182  2.574398  1.402969  1.408891
   H (  6)  2.196473  3.640595  3.402108  1.100069  2.207808
   H (  7)  3.400459  3.641259  2.196264  2.207515  1.100186  2.600262
   C (  8)  1.478216  2.709763  3.890599  2.589802  3.706476  2.993537
   H (  9)  2.120323  3.063498  4.077441  2.946208  3.907008  3.318736
   H ( 10)  2.120324  2.797312  4.326926  3.451205  4.430959  3.970487
   H ( 11)  2.120324  3.653127  4.677917  2.910167  4.231977  2.927448
   H ( 12)  3.658918  2.518514  1.095239  3.436783  2.277582  4.424217
             H (  7)   C (  8)   H (  9)   H ( 10)   H ( 11)
   C (  8)  4.683878
   H (  9)  4.813277  1.080000
   H ( 10)  5.479033  1.080000  1.746370
   H ( 11)  5.098441  1.080000  1.746370  1.746370
   H ( 12)  2.710949  4.904192  5.024152  5.247280  5.741841
 
 Requested basis set is rimp2-cc-pVTZ
 There are 207 shells and 707 basis functions
 A cutoff of  1.0D-10 yielded   4393 shell pairs
 There are     32999 function pairs (     42670 Cartesian)
 Smallest overlap matrix eigenvalue = 1.57E-04

 Scale SEOQF with 1.000000e-01/1.000000e-01/1.000000e-01

 Standard Electronic Orientation quadrupole field applied
 Nucleus-field energy     =     0.0000000013 hartrees
 Guess from superposition of atomic densities
 Warning:  Energy on first SCF cycle will be non-variational
 SAD guess density has 52.000000 electrons

 -----------------------------------------------------------------------
  General SCF calculation program by
  Eric Jon Sundstrom, Paul Horn, Yuezhi Mao, Dmitri Zuev, Alec White,
  David Stuck, Shaama M.S., Shane Yost, Joonho Lee, David Small,
  Daniel Levine, Susi Lehtola, Hugh Burton, Evgeny Epifanovsky,
  Bang C. Huynh
 -----------------------------------------------------------------------
 Hartree-Fock
 using 64 threads for integral computing
 -------------------------------------------------------
 OpenMP Integral computing Module                
 Release: version 1.0, May 2013, Q-Chem Inc. Pittsburgh 
 -------------------------------------------------------
 A restricted SCF calculation will be
 performed using DIIS
 SCF converges when DIIS error is below 1.0e-06
 ---------------------------------------
  Cycle       Energy         DIIS error
 ---------------------------------------
    1    -592.5372914166      3.21e-02  
    2    -590.3380401597      2.15e-03  
    3    -590.3980734576      7.60e-04  
    4    -590.4045965499      3.70e-04  
    5    -590.4063180099      6.64e-05  
    6    -590.4064378429      2.70e-05  
    7    -590.4064678951      1.37e-05  
    8    -590.4064765174      5.30e-06  
    9    -590.4064779390      2.10e-06  
   10    -590.4064780694      6.04e-07  Convergence criterion met
 ---------------------------------------
 SCF time:   CPU 482.10s  wall 9.00s 

************** Final PCM Free Energy Summary **************
 G_electrostatic  =      -0.00501490 hartree =      -3.14690030 kcal/mol
 G_cavitation     =       0.00000000 hartree =       0.00000000 kcal/mol
 G_dispersion     =       0.00000000 hartree =       0.00000000 kcal/mol
 G_repulsion      =       0.00000000 hartree =       0.00000000 kcal/mol
 --------------------------------------------------
 Non-electrostatic Free Energy =       0.00000000 hartree =       0.00000000 kcal/mol
 Total                         =      -0.00501490 hartree =      -3.14690030 kcal/mol
 --------------------------------------------------
 SCF Energy (H0 + V/2)                       =    -590.40647807 
 Solute Internal Energy (H0)                 =    -590.40146316 
 Total Free Energy (H0 + V/2 + non-elec)     =    -590.40647807 hartree
                                             = -370485.65672829 kcal/mol
***********************************************************

 SCF   energy in the final basis set =     -590.4064780694
 Total energy in the final basis set =     -590.4064780694


 --------------------------------------------------------------
  Generalized many-body perturbation theory program
  by Joonho Lee, Fazle Rob, Xintian Feng, Evgeny Epifanovsky

 No regularization used 
 (reg. param. = 0.0000e+00)
  (P|Q)^-1/2 Time:  CPU 6.06 s  wall 0.10 s

 In RI-MP2 calculation: 
 # of frozen core orbitals: 10

 Components of the RIMP2 correlation energy:
        aaaa    correlation energy =        -0.1243393977 a.u.
        abab    correlation energy =        -0.7488301681 a.u.
        bbbb    correlation energy =        -0.1243393977 a.u.
        non-Brillouin singles      =        -0.0000000000 a.u.
        total same-spin energy     =        -0.2486787954 a.u.
        total opposite-spin energy =        -0.7488301681 a.u.

 Total  RIMP2   correlation energy =        -0.9975089635 a.u.
        RIMP2         total energy =      -591.4039870329 a.u.

 RI-MP2 Energy Time:  CPU 25.06 s  wall 0.43 s
 
 --------------------------------------------------------------
 
                    Orbital Energies (a.u.)
 --------------------------------------------------------------
 
 Alpha MOs
 -- Occupied --
-91.9772 -11.2721 -11.2700 -11.2433 -11.2398 -11.2242  -8.9773  -6.6581
 -6.6576  -6.6571  -1.1573  -1.0290  -0.9729  -0.9097  -0.7561  -0.7187
 -0.6673  -0.5867  -0.5860  -0.5578  -0.5418  -0.4953  -0.4814  -0.4532
 -0.3455  -0.3084
 -- Virtual --
  0.0918   0.1523   0.1598   0.1821   0.1863   0.1977   0.2182   0.2265
  0.2398   0.2554   0.3028   0.3404   0.3620   0.3843   0.3869   0.3952
  0.4124   0.4468   0.4551   0.4681   0.4786   0.4999   0.5309   0.5381
  0.5452   0.5640   0.5651   0.5810   0.6051   0.6101   0.6109   0.6212
  0.6293   0.6385   0.6492   0.6667   0.6697   0.7050   0.7354   0.7432
  0.7874   0.7921   0.8193   0.8519   0.8749   0.8776   0.9087   0.9162
  0.9605   0.9970   1.0144   1.0488   1.0652   1.0831   1.0889   1.1147
  1.1396   1.1623   1.1714   1.2020   1.2221   1.2274   1.2400   1.2875
  1.2973   1.3173   1.3286   1.3481   1.3712   1.3878   1.4270   1.4532
  1.4607   1.4827   1.4953   1.5236   1.5268   1.5411   1.5543   1.5741
  1.6073   1.6233   1.6557   1.6688   1.6987   1.7418   1.7637   1.7930
  1.8373   1.8796   1.8988   1.9091   1.9511   1.9981   2.0143   2.1007
  2.1073   2.1541   2.1730   2.2190   2.2520   2.2673   2.3349   2.3821
  2.4275   2.4555   2.4681   2.5075   2.5324   2.5935   2.5992   2.6526
  2.6660   2.6824   2.7280   2.7436   2.7478   2.7869   2.8077   2.8286
  2.8730   2.9142   2.9584   2.9829   3.0041   3.0226   3.0454   3.0944
  3.1018   3.1284   3.1372   3.1494   3.1834   3.2029   3.2180   3.2387
  3.2515   3.2736   3.2795   3.2993   3.3210   3.3264   3.3537   3.4045
  3.4129   3.4254   3.4287   3.4408   3.4619   3.4716   3.4915   3.4985
  3.5176   3.5266   3.5420   3.5669   3.6074   3.6206   3.6415   3.6771
  3.6829   3.7047   3.7346   3.7386   3.7512   3.7922   3.8009   3.8238
  3.8478   3.8818   3.9054   3.9407   3.9530   3.9645   3.9749   4.0086
  4.0122   4.0637   4.1021   4.1381   4.1404   4.1639   4.1950   4.2165
  4.2221   4.2516   4.2607   4.2971   4.3193   4.3281   4.3782   4.4089
  4.4166   4.4409   4.4589   4.4848   4.5044   4.5233   4.5951   4.6300
  4.6612   4.6675   4.6991   4.7353   4.7562   4.7938   4.8300   4.8351
  4.9083   4.9429   5.0179   5.0249   5.1255   5.1601   5.1746   5.2209
  5.2849   5.3150   5.3437   5.4421   5.4779   5.4837   5.5254   5.5590
  5.5696   5.6320   5.6876   5.7279   5.7818   5.8585   5.9354   5.9932
  6.0758   6.2674   6.2849   6.4176   6.6199   9.2647  11.2894  12.7005
 14.0110  14.5537
 --------------------------------------------------------------
 
          Ground-State Mulliken Net Atomic Charges

     Atom                 Charge (a.u.)
  ----------------------------------------
      1 C                    -0.020892
      2 S                    -0.003012
      3 C                    -0.222848
      4 C                    -0.214568
      5 C                    -0.189877
      6 H                     0.183564
      7 H                     0.186699
      8 C                    -0.274120
      9 H                     0.123560
     10 H                     0.112792
     11 H                     0.113801
     12 H                     0.204902
  ----------------------------------------
  Sum of atomic charges =     0.000000

 -----------------------------------------------------------------
                    Cartesian Multipole Moments
 -----------------------------------------------------------------
    Charge (ESU x 10^10)
                 0.0000
    Dipole Moment (Debye)
         X      -0.8009      Y      -0.1682      Z       1.1186
       Tot       1.3860
    Quadrupole Moments (Debye-Ang)
        XX     -47.3566     XY      -0.8390     YY     -37.0982
        XZ      -0.1428     YZ       0.8465     ZZ     -41.6314
    Octopole Moments (Debye-Ang^2)
       XXX       6.5042    XXY      22.6357    XYY       2.4140
       YYY      38.4297    XXZ       7.3934    XYZ      -0.1125
       YYZ       2.9215    XZZ       3.2866    YZZ      11.6460
       ZZZ      28.8823
    Hexadecapole Moments (Debye-Ang^3)
      XXXX     -85.9857   XXXY      32.5565   XXYY    -113.3297
      XYYY      33.2492   YYYY    -474.9632   XXXZ       4.4286
      XXYZ      -6.0534   XYYZ       1.3538   YYYZ      -7.9556
      XXZZ     -74.0468   XYZZ      10.9607   YYZZ    -118.2110
      XZZZ       5.7654   YZZZ     -13.9859   ZZZZ    -306.2635
 -----------------------------------------------------------------
 Total job time:  10.37s(wall), 551.69s(cpu) 
 Fri Mar  1 09:57:57 2024

        *************************************************************
        *                                                           *
        *  Thank you very much for using Q-Chem.  Have a nice day.  *
        *                                                           *
        *************************************************************


0 sent ACK to 0 
now end server 0 ... 
cleanup process ... done
remove work dirs ./qchem3599399.0 -- ./qchem3599399.0
rm -rf ./qchem3599399.0
rm -rf ./qchem3599399
