You are running Q-Chem version: 5.4.0

#
# job setting
#
local host:  exp-9-19
current dir: /expanse/lustre/projects/csd626/rramji/aromodel/impropers-p3ht/Improper_Bend_Test
input file:  Thiophene_Improper_Bend_Methyl_Phi_25.qcin
output file: 
nprocs     : 1
nthreads   : 64
#
# qchem installation setting
#
QC:          /cm/shared/apps/spack/cpu/opt/spack/linux-centos8-zen2/gcc-10.2.0/qchem-5.4-akfmr7b3t57bfs6qan3padb2wnb2i7cl
QCAUX:       /cm/shared/apps/spack/cpu/opt/spack/linux-centos8-zen2/gcc-10.2.0/qchem-5.4-akfmr7b3t57bfs6qan3padb2wnb2i7cl/qcaux
QCPROG:      /cm/shared/apps/spack/cpu/opt/spack/linux-centos8-zen2/gcc-10.2.0/qchem-5.4-akfmr7b3t57bfs6qan3padb2wnb2i7cl/exe/qcprog.exe
QCPROG_S:    /cm/shared/apps/spack/cpu/opt/spack/linux-centos8-zen2/gcc-10.2.0/qchem-5.4-akfmr7b3t57bfs6qan3padb2wnb2i7cl/exe/qcprog.exe_s
PARALLEL:    -DPARALLEL
QCMPI:       mpich
#
# qchem directory setting
#
qcrun:       qchem3599247
QCSCRATCH:   .
QCLOCALSCR:  
QCTMPDIR:    .
QCFILEPREF:  ./qchem3599247
QCSAVEDIR:   
workdirs:    ./qchem3599247
workdir0:    ./qchem3599247
partmpdirs =  
#
# parallel setting
#
QCRSH:           ssh
QCMPI:           mpich
QCMPIRUN:        /cm/shared/apps/spack/cpu/opt/spack/linux-centos8-zen2/gcc-10.2.0/qchem-5.4-akfmr7b3t57bfs6qan3padb2wnb2i7cl/bin/mpi/mpirun_qchem
QCMACHINEFILE:   ./qchem3599247/hostfile
exp-9-19

#
# env setting
#
exported envs:   QC QCAUX QCSCRATCH QCRUNNAME QCFILEPREF QCPROG QCPROG_S GUIFILE

Running Job 1 of 1 Thiophene_Improper_Bend_Methyl_Phi_25.qcin
qchem Thiophene_Improper_Bend_Methyl_Phi_25.qcin_3599247.0 ./qchem3599247/ 1
/cm/shared/apps/spack/cpu/opt/spack/linux-centos8-zen2/gcc-10.2.0/qchem-5.4-akfmr7b3t57bfs6qan3padb2wnb2i7cl/bin/mpi/mpirun_qchem -machinefile ./qchem3599247/hostfile -np 1 /cm/shared/apps/spack/cpu/opt/spack/linux-centos8-zen2/gcc-10.2.0/qchem-5.4-akfmr7b3t57bfs6qan3padb2wnb2i7cl/exe/qcprog.exe Thiophene_Improper_Bend_Methyl_Phi_25.qcin_3599247.0 ./qchem3599247/

Process 0 of 1 is on exp-9-19 - thread support 0
initial socket setup ...start
initial socket setup ...done 
now start server 0 ... 
                  Welcome to Q-Chem
     A Quantum Leap Into The Future Of Chemistry


 Q-Chem 5.4, Q-Chem, Inc., Pleasanton, CA (2021)

 License issued to: University of California, San Diego (site)

 E. Epifanovsky,  A. T. B. Gilbert,  Xintian Feng,  Joonho Lee,  Yuezhi Mao,  
 N. Mardirossian,  P. Pokhilko,  A. White,  M. Wormit,  M. P. Coons,  
 A. L. Dempwolff,  Zhengting Gan,  D. Hait,  P. R. Horn,  L. D. Jacobson,  
 I. Kaliman,  J. Kussmann,  A. W. Lange,  Ka Un Lao,  D. S. Levine,  Jie Liu,  
 S. C. McKenzie,  A. F. Morrison,  K. Nanda,  F. Plasser,  D. R. Rehn,  
 M. L. Vidal,  Zhi-Qiang You,  Ying Zhu,  B. Alam,  B. Albrecht,  
 A. Aldossary,  E. Alguire,  J. H. Andersen,  D. Barton,  K. Begam,  A. Behn,  
 Y. A. Bernard,  E. J. Berquist,  H. Burton,  A. Carreras,  K. Carter-Fenk,  
 R. Chakraborty,  A. D. Chien,  K. D. Closser,  V. Cofer-Shabica,  
 S. Dasgupta,  Jia Deng,  M. de Wergifosse,  M. Diedenhofen,  Hainam Do,  
 S. Ehlert,  Po-Tung Fang,  S. Fatehi,  Qingguo Feng,  J. Gayvert,  
 Qinghui Ge,  G. Gidofalvi,  M. Goldey,  J. Gomes,  C. Gonzalez-Espinoza,  
 S. Gulania,  A. Gunina,  M. W. D. Hanson-Heine,  P. H. P. Harbach,  
 A. W. Hauser,  M. F. Herbst,  M. Hernandez Vera,  M. Hodecker,  
 Z. C. Holden,  S. Houck,  Xunkun Huang,  Kerwin Hui,  B. C. Huynh,  
 M. Ivanov,  Hyunjun Ji,  Hanjie Jiang,  B. Kaduk,  S. Kaehler,  
 K. Khistyaev,  Jaehoon Kim,  P. Klunzinger,  Z. Koczor-Benda,  
 Joong Hoon Koh,  D. Kosenkov,  L. Koulias,  T. Kowalczyk,  C. M. Krauter,  
 K. Kue,  A. Kunitsa,  T. Kus,  A. Landau,  K. V. Lawler,  D. Lefrancois,  
 S. Lehtola,  Rain Li,  Yi-Pei Li,  Jiashu Liang,  M. Liebenthal,  
 Hung-Hsuan Lin,  You-Sheng Lin,  Fenglai Liu,  Kuan-Yu Liu,  
 M. Loipersberger,  A. Luenser,  A. Manjanath,  P. Manohar,  E. Mansoor,  
 S. F. Manzer,  Shan-Ping Mao,  A. V. Marenich,  T. Markovich,  S. Mason,  
 S. A. Maurer,  P. F. McLaughlin,  M. F. S. J. Menger,  J.-M. Mewes,  
 S. A. Mewes,  P. Morgante,  J. W. Mullinax,  T. S. Nguyen-Beck,  
 K. J. Oosterbaan,  G. Paran,  Alexander C. Paul,  Suranjan K. Paul,  
 F. Pavosevic,  Zheng Pei,  S. Prager,  E. I. Proynov,  E. Ramos,  B. Rana,  
 A. E. Rask,  A. Rettig,  R. M. Richard,  F. Rob,  E. Rossomme,  T. Scheele,  
 M. Scheurer,  M. Schneider,  N. Sergueev,  S. M. Sharada,  W. Skomorowski,  
 D. W. Small,  C. J. Stein,  Yu-Chuan Su,  E. J. Sundstrom,  Zhen Tao,  
 J. Thirman,  T. Tsuchimochi,  N. M. Tubman,  S. P. Veccham,  O. Vydrov,  
 J. Wenzel,  J. Witte,  A. Yamada,  Kun Yao,  S. Yeganeh,  S. R. Yost,  
 A. Zech,  Igor Ying Zhang,  Xing Zhang,  Yu Zhang,  D. Zuev,  
 A. Aspuru-Guzik,  A. T. Bell,  N. A. Besley,  K. B. Bravaya,  B. R. Brooks,  
 D. Casanova,  Jeng-Da Chai,  S. Coriani,  C. J. Cramer,  
 A. E. DePrince, III,  R. A. DiStasio Jr.,  A. Dreuw,  B. D. Dunietz,  
 T. R. Furlani,  W. A. Goddard III,  S. Grimme,  S. Hammes-Schiffer,  
 T. Head-Gordon,  W. J. Hehre,  Chao-Ping Hsu,  T.-C. Jagau,  Yousung Jung,  
 A. Klamt,  Jing Kong,  D. S. Lambrecht,  WanZhen Liang,  N. J. Mayhall,  
 C. W. McCurdy,  J. B. Neaton,  C. Ochsenfeld,  J. A. Parkhill,  R. Peverati,  
 V. A. Rassolov,  Yihan Shao,  L. V. Slipchenko,  T. Stauch,  R. P. Steele,  
 J. E. Subotnik,  A. J. W. Thom,  A. Tkatchenko,  D. G. Truhlar,  
 T. Van Voorhis,  T. A. Wesolowski,  K. B. Whaley,  H. L. Woodcock III,  
 P. M. Zimmerman,  S. Faraji,  P. M. W. Gill,  M. Head-Gordon,  
 J. M. Herbert,  A. I. Krylov

 Contributors to earlier versions of Q-Chem not listed above: 
 R. D. Adamson,  B. Austin,  R. Baer,  J. Baker,  G. J. O. Beran,  
 K. Brandhorst,  S. T. Brown,  E. F. C. Byrd,  A. K. Chakraborty,  
 G. K. L. Chan,  Chun-Min Chang,  Yunqing Chen,  C.-L. Cheng,  
 Siu Hung Chien,  D. M. Chipman,  D. L. Crittenden,  H. Dachsel,  
 R. J. Doerksen,  A. D. Dutoi,  R. G. Edgar,  J. Fosso-Tande,  
 L. Fusti-Molnar,  D. Ghosh,  A. Ghysels,  A. Golubeva-Zadorozhnaya,  
 J. Gonthier,  M. S. Gordon,  S. R. Gwaltney,  G. Hawkins,  J. E. Herr,  
 A. Heyden,  S. Hirata,  E. G. Hohenstein,  G. Kedziora,  F. J. Keil,  
 C. Kelley,  Jihan Kim,  R. A. King,  R. Z. Khaliullin,  P. P. Korambath,  
 W. Kurlancheek,  A. Laurent,  A. M. Lee,  M. S. Lee,  S. V. Levchenko,  
 Ching Yeh Lin,  D. Liotard,  E. Livshits,  R. C. Lochan,  I. Lotan,  
 L. A. Martinez-Martinez,  P. E. Maslen,  N. Nair,  D. P. O'Neill,  
 D. Neuhauser,  E. Neuscamman,  C. M. Oana,  R. Olivares-Amaya,  R. Olson,  
 T. M. Perrine,  B. Peters,  P. A. Pieniazek,  A. Prociuk,  Y. M. Rhee,  
 J. Ritchie,  M. A. Rohrdanz,  E. Rosta,  N. J. Russ,  H. F. Schaefer III,  
 M. W. Schmidt,  N. E. Schultz,  S. Sharma,  N. Shenvi,  C. D. Sherrill,  
 A. C. Simmonett,  A. Sodt,  T. Stein,  D. Stuck,  K. S. Thanthiriwatte,  
 V. Vanovschi,  L. Vogt,  Tao Wang,  A. Warshel,  M. A. Watson,  
 C. F. Williams,  Q. Wu,  X. Xu,  Jun Yang,  W. Zhang,  Yan Zhao

 Please cite Q-Chem as follows:
 Y. Shao et al., Mol. Phys. 113, 184-215 (2015)
 DOI: 10.1080/00268976.2014.952696

 Q-Chem 5.4.0 for Intel X86 EM64T Linux

 Parts of Q-Chem use Armadillo 9.800.1 (Horizon Scraper).
 http://arma.sourceforge.net/

 Q-Chem begins on Fri Mar  1 09:57:32 2024  

 Host: 
0

     Scratch files written to ./qchem3599247//
 May1621 |scratch|qcdevops|jenkins|workspace|build_RNUM    
 Parallel job on  1  processors
 Processing $rem in /cm/shared/apps/spack/cpu/opt/spack/linux-centos8-zen2/gcc-10.2.0/qchem-5.4-akfmr7b3t57bfs6qan3padb2wnb2i7cl/config/preferences:
 Processing $rem in /home/rramji/.qchemrc:
 Symmetry turned off for PCM/SM12/SMD calculation
 Core orbitals will be frozen

 Checking the input file for inconsistencies... 	...done.

 Q-Chem warning in module forms1/BasisType.C, line 2236:

 You are not using the predefined 5D/6D in this basis set.


--------------------------------------------------------------
User input:
--------------------------------------------------------------
$molecule
0 1
C	0.050439	0.410467	0.214478
S	0.050238	-0.382704	-1.366052
C	0.050211	-2.020418	-0.690433
C	0.050271	-0.587523	1.199878
C	0.050172	-1.907764	0.708006
H	0.050294	-0.351876	2.274412
H	0.050100	-2.788697	1.367071
C	-0.574282	1.750186	0.214478
H	-1.651651	1.674849	0.214478
H	-0.280951	2.314017	-0.658707
H	-0.280951	2.314017	1.087663
H	0.050128	-2.901099	-1.341547
$end

$rem
JOBTYPE		SP
EXCHANGE	HF
CORRELATION	pRIMP2
BASIS		cc-pvtz
METHOD		rimp2
AUX_BASIS	rimp2-cc-pvtz
SOLVENT_METHOD	PCM
PURECART	11111
SYMMETRY	false
MEM_TOTAL	110000
SCF_CONVERGENCE = 6
THRESH=10
GUI = 2
$end



$solvent
dielectric 4.90
$end
--------------------------------------------------------------
 ----------------------------------------------------------------
             Standard Nuclear Orientation (Angstroms)
    I     Atom           X                Y                Z
 ----------------------------------------------------------------
    1      C       0.0504390000     0.4104670000     0.2144780000
    2      S       0.0502380000    -0.3827040000    -1.3660520000
    3      C       0.0502110000    -2.0204180000    -0.6904330000
    4      C       0.0502710000    -0.5875230000     1.1998780000
    5      C       0.0501720000    -1.9077640000     0.7080060000
    6      H       0.0502940000    -0.3518760000     2.2744120000
    7      H       0.0501000000    -2.7886970000     1.3670710000
    8      C      -0.5742820000     1.7501860000     0.2144780000
    9      H      -1.6516510000     1.6748490000     0.2144780000
   10      H      -0.2809510000     2.3140170000    -0.6587070000
   11      H      -0.2809510000     2.3140170000     1.0876630000
   12      H       0.0501280000    -2.9010990000    -1.3415470000
 ----------------------------------------------------------------
 Nuclear Repulsion Energy =         270.94349396 hartrees
 There are       26 alpha and       26 beta electrons
 Requested basis set is cc-pVTZ
 There are 98 shells and 268 basis functions

 Total QAlloc Memory Limit 110000 MB
 Mega-Array Size       188 MB
 MEM_STATIC part       192 MB
 Discretize the solute cavity surface with Lebedev spheres
	Using 110 Lebedev grid points for each H atom
	Using 194 Lebedev grid points for other atoms
	Atomic van der Waals radii will be scaled by 1.20
 Remove points where switching function is < 1.0e-08
 Keep 888 surface tesserae and discard 936 interior tesserae
 Molecular Surface Area = 137.940 Angst**2

                       Distance Matrix (Angstroms)
             C (  1)   S (  2)   C (  3)   C (  4)   C (  5)   H (  6)
   S (  2)  1.768388
   C (  3)  2.593852  1.771600
   C (  4)  1.402497  2.574092  2.372017
   C (  5)  2.370182  2.574398  1.402969  1.408891
   H (  6)  2.196473  3.640595  3.402108  1.100069  2.207808
   H (  7)  3.400459  3.641259  2.196264  2.207515  1.100186  2.600262
   C (  8)  1.478216  2.727145  3.927634  2.612654  3.743543  3.008669
   H (  9)  2.120324  3.102906  4.167757  2.997646  3.996860  3.353738
   H ( 10)  2.120324  2.807548  4.347183  3.461644  4.449829  3.977423
   H ( 11)  2.120324  3.660971  4.696661  2.922539  4.251731  2.936849
   H ( 12)  3.658918  2.518514  1.095239  3.436783  2.277582  4.424217
             H (  7)   C (  8)   H (  9)   H ( 10)   H ( 11)
   C (  8)  4.724382
   H (  9)  4.914028  1.080000
   H ( 10)  5.500096  1.080000  1.746369
   H ( 11)  5.121070  1.080000  1.746369  1.746370
   H ( 12)  2.710949  4.944245  5.124116  5.270040  5.762648
 
 Requested basis set is rimp2-cc-pVTZ
 There are 207 shells and 707 basis functions
 A cutoff of  1.0D-10 yielded   4380 shell pairs
 There are     32896 function pairs (     42537 Cartesian)
 Smallest overlap matrix eigenvalue = 1.49E-04

 Scale SEOQF with 1.000000e-01/1.000000e-01/1.000000e-01

 Standard Electronic Orientation quadrupole field applied
 Nucleus-field energy     =     0.0000000014 hartrees
 Guess from superposition of atomic densities
 Warning:  Energy on first SCF cycle will be non-variational
 SAD guess density has 52.000000 electrons

 -----------------------------------------------------------------------
  General SCF calculation program by
  Eric Jon Sundstrom, Paul Horn, Yuezhi Mao, Dmitri Zuev, Alec White,
  David Stuck, Shaama M.S., Shane Yost, Joonho Lee, David Small,
  Daniel Levine, Susi Lehtola, Hugh Burton, Evgeny Epifanovsky,
  Bang C. Huynh
 -----------------------------------------------------------------------
 Hartree-Fock
 using 64 threads for integral computing
 -------------------------------------------------------
 OpenMP Integral computing Module                
 Release: version 1.0, May 2013, Q-Chem Inc. Pittsburgh 
 -------------------------------------------------------
 A restricted SCF calculation will be
 performed using DIIS
 SCF converges when DIIS error is below 1.0e-06
 ---------------------------------------
  Cycle       Energy         DIIS error
 ---------------------------------------
    1    -592.5309525190      3.20e-02  
    2    -590.3429243301      2.15e-03  
    3    -590.4029918806      7.67e-04  
    4    -590.4095562239      3.75e-04  
    5    -590.4113129425      6.64e-05  
    6    -590.4114315167      2.75e-05  
    7    -590.4114606511      1.39e-05  
    8    -590.4114692532      5.48e-06  
    9    -590.4114706986      2.00e-06  
   10    -590.4114708242      5.82e-07  Convergence criterion met
 ---------------------------------------
 SCF time:   CPU 491.46s  wall 9.00s 

************** Final PCM Free Energy Summary **************
 G_electrostatic  =      -0.00506245 hartree =      -3.17673724 kcal/mol
 G_cavitation     =       0.00000000 hartree =       0.00000000 kcal/mol
 G_dispersion     =       0.00000000 hartree =       0.00000000 kcal/mol
 G_repulsion      =       0.00000000 hartree =       0.00000000 kcal/mol
 --------------------------------------------------
 Non-electrostatic Free Energy =       0.00000000 hartree =       0.00000000 kcal/mol
 Total                         =      -0.00506245 hartree =      -3.17673724 kcal/mol
 --------------------------------------------------
 SCF Energy (H0 + V/2)                       =    -590.41147082 
 Solute Internal Energy (H0)                 =    -590.40640837 
 Total Free Energy (H0 + V/2 + non-elec)     =    -590.41147082 hartree
                                             = -370488.78972923 kcal/mol
***********************************************************

 SCF   energy in the final basis set =     -590.4114708242
 Total energy in the final basis set =     -590.4114708242


 --------------------------------------------------------------
  Generalized many-body perturbation theory program
  by Joonho Lee, Fazle Rob, Xintian Feng, Evgeny Epifanovsky

 No regularization used 
 (reg. param. = 0.0000e+00)
  (P|Q)^-1/2 Time:  CPU 6.12 s  wall 0.10 s

 In RI-MP2 calculation: 
 # of frozen core orbitals: 10

 Components of the RIMP2 correlation energy:
        aaaa    correlation energy =        -0.1241432389 a.u.
        abab    correlation energy =        -0.7480574615 a.u.
        bbbb    correlation energy =        -0.1241432389 a.u.
        non-Brillouin singles      =        -0.0000000000 a.u.
        total same-spin energy     =        -0.2482864778 a.u.
        total opposite-spin energy =        -0.7480574615 a.u.

 Total  RIMP2   correlation energy =        -0.9963439393 a.u.
        RIMP2         total energy =      -591.4078147635 a.u.

 RI-MP2 Energy Time:  CPU 24.82 s  wall 0.43 s
 
 --------------------------------------------------------------
 
                    Orbital Energies (a.u.)
 --------------------------------------------------------------
 
 Alpha MOs
 -- Occupied --
-91.9775 -11.2725 -11.2703 -11.2431 -11.2385 -11.2249  -8.9775  -6.6583
 -6.6578  -6.6573  -1.1565  -1.0292  -0.9725  -0.9108  -0.7556  -0.7183
 -0.6673  -0.5870  -0.5865  -0.5575  -0.5418  -0.4957  -0.4836  -0.4535
 -0.3456  -0.3083
 -- Virtual --
  0.0963   0.1513   0.1600   0.1822   0.1866   0.1977   0.2185   0.2268
  0.2404   0.2542   0.3045   0.3407   0.3638   0.3819   0.3855   0.3939
  0.4152   0.4449   0.4559   0.4688   0.4831   0.5015   0.5311   0.5372
  0.5449   0.5635   0.5661   0.5795   0.6073   0.6093   0.6126   0.6216
  0.6322   0.6396   0.6492   0.6661   0.6680   0.7051   0.7349   0.7499
  0.7882   0.7939   0.8215   0.8548   0.8764   0.8793   0.9080   0.9134
  0.9597   0.9948   1.0123   1.0479   1.0650   1.0814   1.0903   1.1090
  1.1386   1.1632   1.1716   1.1994   1.2220   1.2313   1.2378   1.2826
  1.2995   1.3183   1.3290   1.3438   1.3709   1.3880   1.4214   1.4531
  1.4610   1.4831   1.4962   1.5252   1.5297   1.5457   1.5588   1.5753
  1.6073   1.6243   1.6551   1.6700   1.7035   1.7377   1.7673   1.7862
  1.8368   1.8816   1.9003   1.9104   1.9499   2.0048   2.0182   2.0942
  2.1100   2.1553   2.1740   2.2210   2.2534   2.2718   2.3379   2.3872
  2.4284   2.4580   2.4689   2.5105   2.5298   2.5943   2.5969   2.6531
  2.6645   2.6793   2.7301   2.7402   2.7459   2.7850   2.8066   2.8166
  2.8742   2.9126   2.9548   2.9825   3.0094   3.0207   3.0425   3.0893
  3.1024   3.1231   3.1383   3.1491   3.1904   3.2050   3.2216   3.2415
  3.2509   3.2750   3.2808   3.2977   3.3236   3.3330   3.3521   3.4036
  3.4114   3.4263   3.4312   3.4402   3.4608   3.4732   3.4934   3.4985
  3.5101   3.5220   3.5488   3.5706   3.5941   3.6236   3.6425   3.6730
  3.6801   3.7013   3.7337   3.7365   3.7487   3.7862   3.8006   3.8229
  3.8486   3.8743   3.8994   3.9419   3.9563   3.9654   3.9714   3.9997
  4.0059   4.0638   4.1047   4.1355   4.1445   4.1655   4.1859   4.2170
  4.2206   4.2501   4.2599   4.2904   4.3203   4.3271   4.3803   4.4043
  4.4147   4.4382   4.4574   4.4855   4.4981   4.5215   4.5988   4.6298
  4.6616   4.6698   4.6945   4.7355   4.7586   4.7922   4.8264   4.8424
  4.9214   4.9550   5.0082   5.0216   5.1289   5.1616   5.1699   5.2242
  5.2847   5.3193   5.3435   5.4358   5.4743   5.4929   5.5262   5.5528
  5.5671   5.6298   5.6899   5.7281   5.7846   5.8609   5.9558   6.0006
  6.0789   6.2657   6.2823   6.4226   6.6334   9.2479  11.2751  12.7208
 14.0212  14.5636
 --------------------------------------------------------------
 
          Ground-State Mulliken Net Atomic Charges

     Atom                 Charge (a.u.)
  ----------------------------------------
      1 C                    -0.010440
      2 S                    -0.003965
      3 C                    -0.228624
      4 C                    -0.224336
      5 C                    -0.187521
      6 H                     0.183624
      7 H                     0.186584
      8 C                    -0.272100
      9 H                     0.123327
     10 H                     0.113613
     11 H                     0.115071
     12 H                     0.204767
  ----------------------------------------
  Sum of atomic charges =     0.000000

 -----------------------------------------------------------------
                    Cartesian Multipole Moments
 -----------------------------------------------------------------
    Charge (ESU x 10^10)
                -0.0000
    Dipole Moment (Debye)
         X      -0.6902      Y       0.0220      Z       1.1117
       Tot       1.3087
    Quadrupole Moments (Debye-Ang)
        XX     -47.4271     XY      -0.7561     YY     -36.9240
        XZ      -0.1264     YZ       0.8459     ZZ     -41.6884
    Octopole Moments (Debye-Ang^2)
       XXX       5.2884    XXY      22.6503    XYY       1.9493
       YYY      38.5810    XXZ       7.3775    XYZ      -0.1108
       YYZ       3.1351    XZZ       2.8733    YZZ      11.4597
       ZZZ      28.7573
    Hexadecapole Moments (Debye-Ang^3)
      XXXX     -79.4727   XXXY      27.6559   XXYY    -113.7349
      XYYY      28.9090   YYYY    -485.1083   XXXZ       3.6872
      XXYZ      -6.1586   XYYZ       1.1242   YYYZ      -8.5928
      XXZZ     -72.9519   XYZZ       9.8001   YYZZ    -119.9632
      XZZZ       4.9065   YZZZ     -14.3367   ZZZZ    -306.5235
 -----------------------------------------------------------------
 Total job time:  11.06s(wall), 564.67s(cpu) 
 Fri Mar  1 09:57:43 2024

        *************************************************************
        *                                                           *
        *  Thank you very much for using Q-Chem.  Have a nice day.  *
        *                                                           *
        *************************************************************


0 sent ACK to 0 
now end server 0 ... 
cleanup process ... done
remove work dirs ./qchem3599247.0 -- ./qchem3599247.0
rm -rf ./qchem3599247.0
rm -rf ./qchem3599247
