You are running Q-Chem version: 5.4.0

#
# job setting
#
local host:  exp-8-21
current dir: /expanse/lustre/projects/csd626/rramji/aromodel/PNDIT/Hydrogenated_Rotation_Test
input file:  Dimethyl_Naphthalene_Dicarboximide_Phi_25_Theta_330_Thiophene_Hydrogenated.qcin
output file: 
nprocs     : 1
nthreads   : 64
#
# qchem installation setting
#
QC:          /cm/shared/apps/spack/cpu/opt/spack/linux-centos8-zen2/gcc-10.2.0/qchem-5.4-akfmr7b3t57bfs6qan3padb2wnb2i7cl
QCAUX:       /cm/shared/apps/spack/cpu/opt/spack/linux-centos8-zen2/gcc-10.2.0/qchem-5.4-akfmr7b3t57bfs6qan3padb2wnb2i7cl/qcaux
QCPROG:      /cm/shared/apps/spack/cpu/opt/spack/linux-centos8-zen2/gcc-10.2.0/qchem-5.4-akfmr7b3t57bfs6qan3padb2wnb2i7cl/exe/qcprog.exe
QCPROG_S:    /cm/shared/apps/spack/cpu/opt/spack/linux-centos8-zen2/gcc-10.2.0/qchem-5.4-akfmr7b3t57bfs6qan3padb2wnb2i7cl/exe/qcprog.exe_s
PARALLEL:    -DPARALLEL
QCMPI:       mpich
#
# qchem directory setting
#
qcrun:       qchem2013459
QCSCRATCH:   .
QCLOCALSCR:  
QCTMPDIR:    .
QCFILEPREF:  ./qchem2013459
QCSAVEDIR:   
workdirs:    ./qchem2013459
workdir0:    ./qchem2013459
partmpdirs =  
#
# parallel setting
#
QCRSH:           ssh
QCMPI:           mpich
QCMPIRUN:        /cm/shared/apps/spack/cpu/opt/spack/linux-centos8-zen2/gcc-10.2.0/qchem-5.4-akfmr7b3t57bfs6qan3padb2wnb2i7cl/bin/mpi/mpirun_qchem
QCMACHINEFILE:   ./qchem2013459/hostfile
exp-8-21

#
# env setting
#
exported envs:   QC QCAUX QCSCRATCH QCRUNNAME QCFILEPREF QCPROG QCPROG_S GUIFILE

Running Job 1 of 1 Dimethyl_Naphthalene_Dicarboximide_Phi_25_Theta_330_Thiophene_Hydrogenated.qcin
qchem Dimethyl_Naphthalene_Dicarboximide_Phi_25_Theta_330_Thiophene_Hydrogenated.qcin_2013459.0 ./qchem2013459/ 1
/cm/shared/apps/spack/cpu/opt/spack/linux-centos8-zen2/gcc-10.2.0/qchem-5.4-akfmr7b3t57bfs6qan3padb2wnb2i7cl/bin/mpi/mpirun_qchem -machinefile ./qchem2013459/hostfile -np 1 /cm/shared/apps/spack/cpu/opt/spack/linux-centos8-zen2/gcc-10.2.0/qchem-5.4-akfmr7b3t57bfs6qan3padb2wnb2i7cl/exe/qcprog.exe Dimethyl_Naphthalene_Dicarboximide_Phi_25_Theta_330_Thiophene_Hydrogenated.qcin_2013459.0 ./qchem2013459/

Process 0 of 1 is on exp-8-21 - thread support 0
initial socket setup ...start
initial socket setup ...done 
now start server 0 ... 
                  Welcome to Q-Chem
     A Quantum Leap Into The Future Of Chemistry


 Q-Chem 5.4, Q-Chem, Inc., Pleasanton, CA (2021)

 License issued to: University of California, San Diego (site)

 E. Epifanovsky,  A. T. B. Gilbert,  Xintian Feng,  Joonho Lee,  Yuezhi Mao,  
 N. Mardirossian,  P. Pokhilko,  A. White,  M. Wormit,  M. P. Coons,  
 A. L. Dempwolff,  Zhengting Gan,  D. Hait,  P. R. Horn,  L. D. Jacobson,  
 I. Kaliman,  J. Kussmann,  A. W. Lange,  Ka Un Lao,  D. S. Levine,  Jie Liu,  
 S. C. McKenzie,  A. F. Morrison,  K. Nanda,  F. Plasser,  D. R. Rehn,  
 M. L. Vidal,  Zhi-Qiang You,  Ying Zhu,  B. Alam,  B. Albrecht,  
 A. Aldossary,  E. Alguire,  J. H. Andersen,  D. Barton,  K. Begam,  A. Behn,  
 Y. A. Bernard,  E. J. Berquist,  H. Burton,  A. Carreras,  K. Carter-Fenk,  
 R. Chakraborty,  A. D. Chien,  K. D. Closser,  V. Cofer-Shabica,  
 S. Dasgupta,  Jia Deng,  M. de Wergifosse,  M. Diedenhofen,  Hainam Do,  
 S. Ehlert,  Po-Tung Fang,  S. Fatehi,  Qingguo Feng,  J. Gayvert,  
 Qinghui Ge,  G. Gidofalvi,  M. Goldey,  J. Gomes,  C. Gonzalez-Espinoza,  
 S. Gulania,  A. Gunina,  M. W. D. Hanson-Heine,  P. H. P. Harbach,  
 A. W. Hauser,  M. F. Herbst,  M. Hernandez Vera,  M. Hodecker,  
 Z. C. Holden,  S. Houck,  Xunkun Huang,  Kerwin Hui,  B. C. Huynh,  
 M. Ivanov,  Hyunjun Ji,  Hanjie Jiang,  B. Kaduk,  S. Kaehler,  
 K. Khistyaev,  Jaehoon Kim,  P. Klunzinger,  Z. Koczor-Benda,  
 Joong Hoon Koh,  D. Kosenkov,  L. Koulias,  T. Kowalczyk,  C. M. Krauter,  
 K. Kue,  A. Kunitsa,  T. Kus,  A. Landau,  K. V. Lawler,  D. Lefrancois,  
 S. Lehtola,  Rain Li,  Yi-Pei Li,  Jiashu Liang,  M. Liebenthal,  
 Hung-Hsuan Lin,  You-Sheng Lin,  Fenglai Liu,  Kuan-Yu Liu,  
 M. Loipersberger,  A. Luenser,  A. Manjanath,  P. Manohar,  E. Mansoor,  
 S. F. Manzer,  Shan-Ping Mao,  A. V. Marenich,  T. Markovich,  S. Mason,  
 S. A. Maurer,  P. F. McLaughlin,  M. F. S. J. Menger,  J.-M. Mewes,  
 S. A. Mewes,  P. Morgante,  J. W. Mullinax,  T. S. Nguyen-Beck,  
 K. J. Oosterbaan,  G. Paran,  Alexander C. Paul,  Suranjan K. Paul,  
 F. Pavosevic,  Zheng Pei,  S. Prager,  E. I. Proynov,  E. Ramos,  B. Rana,  
 A. E. Rask,  A. Rettig,  R. M. Richard,  F. Rob,  E. Rossomme,  T. Scheele,  
 M. Scheurer,  M. Schneider,  N. Sergueev,  S. M. Sharada,  W. Skomorowski,  
 D. W. Small,  C. J. Stein,  Yu-Chuan Su,  E. J. Sundstrom,  Zhen Tao,  
 J. Thirman,  T. Tsuchimochi,  N. M. Tubman,  S. P. Veccham,  O. Vydrov,  
 J. Wenzel,  J. Witte,  A. Yamada,  Kun Yao,  S. Yeganeh,  S. R. Yost,  
 A. Zech,  Igor Ying Zhang,  Xing Zhang,  Yu Zhang,  D. Zuev,  
 A. Aspuru-Guzik,  A. T. Bell,  N. A. Besley,  K. B. Bravaya,  B. R. Brooks,  
 D. Casanova,  Jeng-Da Chai,  S. Coriani,  C. J. Cramer,  
 A. E. DePrince, III,  R. A. DiStasio Jr.,  A. Dreuw,  B. D. Dunietz,  
 T. R. Furlani,  W. A. Goddard III,  S. Grimme,  S. Hammes-Schiffer,  
 T. Head-Gordon,  W. J. Hehre,  Chao-Ping Hsu,  T.-C. Jagau,  Yousung Jung,  
 A. Klamt,  Jing Kong,  D. S. Lambrecht,  WanZhen Liang,  N. J. Mayhall,  
 C. W. McCurdy,  J. B. Neaton,  C. Ochsenfeld,  J. A. Parkhill,  R. Peverati,  
 V. A. Rassolov,  Yihan Shao,  L. V. Slipchenko,  T. Stauch,  R. P. Steele,  
 J. E. Subotnik,  A. J. W. Thom,  A. Tkatchenko,  D. G. Truhlar,  
 T. Van Voorhis,  T. A. Wesolowski,  K. B. Whaley,  H. L. Woodcock III,  
 P. M. Zimmerman,  S. Faraji,  P. M. W. Gill,  M. Head-Gordon,  
 J. M. Herbert,  A. I. Krylov

 Contributors to earlier versions of Q-Chem not listed above: 
 R. D. Adamson,  B. Austin,  R. Baer,  J. Baker,  G. J. O. Beran,  
 K. Brandhorst,  S. T. Brown,  E. F. C. Byrd,  A. K. Chakraborty,  
 G. K. L. Chan,  Chun-Min Chang,  Yunqing Chen,  C.-L. Cheng,  
 Siu Hung Chien,  D. M. Chipman,  D. L. Crittenden,  H. Dachsel,  
 R. J. Doerksen,  A. D. Dutoi,  R. G. Edgar,  J. Fosso-Tande,  
 L. Fusti-Molnar,  D. Ghosh,  A. Ghysels,  A. Golubeva-Zadorozhnaya,  
 J. Gonthier,  M. S. Gordon,  S. R. Gwaltney,  G. Hawkins,  J. E. Herr,  
 A. Heyden,  S. Hirata,  E. G. Hohenstein,  G. Kedziora,  F. J. Keil,  
 C. Kelley,  Jihan Kim,  R. A. King,  R. Z. Khaliullin,  P. P. Korambath,  
 W. Kurlancheek,  A. Laurent,  A. M. Lee,  M. S. Lee,  S. V. Levchenko,  
 Ching Yeh Lin,  D. Liotard,  E. Livshits,  R. C. Lochan,  I. Lotan,  
 L. A. Martinez-Martinez,  P. E. Maslen,  N. Nair,  D. P. O'Neill,  
 D. Neuhauser,  E. Neuscamman,  C. M. Oana,  R. Olivares-Amaya,  R. Olson,  
 T. M. Perrine,  B. Peters,  P. A. Pieniazek,  A. Prociuk,  Y. M. Rhee,  
 J. Ritchie,  M. A. Rohrdanz,  E. Rosta,  N. J. Russ,  H. F. Schaefer III,  
 M. W. Schmidt,  N. E. Schultz,  S. Sharma,  N. Shenvi,  C. D. Sherrill,  
 A. C. Simmonett,  A. Sodt,  T. Stein,  D. Stuck,  K. S. Thanthiriwatte,  
 V. Vanovschi,  L. Vogt,  Tao Wang,  A. Warshel,  M. A. Watson,  
 C. F. Williams,  Q. Wu,  X. Xu,  Jun Yang,  W. Zhang,  Yan Zhao

 Please cite Q-Chem as follows:
 Y. Shao et al., Mol. Phys. 113, 184-215 (2015)
 DOI: 10.1080/00268976.2014.952696

 Q-Chem 5.4.0 for Intel X86 EM64T Linux

 Parts of Q-Chem use Armadillo 9.800.1 (Horizon Scraper).
 http://arma.sourceforge.net/

 Q-Chem begins on Wed Sep 27 00:43:06 2023  

 Host: 
0

     Scratch files written to ./qchem2013459//
 May1621 |scratch|qcdevops|jenkins|workspace|build_RNUM    
 Parallel job on  1  processors
 Processing $rem in /cm/shared/apps/spack/cpu/opt/spack/linux-centos8-zen2/gcc-10.2.0/qchem-5.4-akfmr7b3t57bfs6qan3padb2wnb2i7cl/config/preferences:
 Processing $rem in /home/rramji/.qchemrc:
 Symmetry turned off for PCM/SM12/SMD calculation
 Core orbitals will be frozen

 Checking the input file for inconsistencies... 	...done.

 Q-Chem warning in module forms1/BasisType.C, line 2236:

 You are not using the predefined 5D/6D in this basis set.


--------------------------------------------------------------
User input:
--------------------------------------------------------------
$molecule
0 1
C	-0.129743	-6.741404	-0.221766
C	-0.782726	-6.155638	-1.352515
C	0.411926	-5.791452	0.717339
C	-0.921816	-4.803786	-1.593885
H	-1.221908	-6.821518	-2.112819
C	0.266682	-4.378638	0.464360
C	-0.398255	-3.838032	-0.688053
C	0.789694	-3.413062	1.369108
C	-0.542349	-2.426473	-0.939002
C	0.652589	-2.059348	1.130409
C	-0.000000	-1.478216	-0.000000
H	1.092453	-1.394783	1.891446
C	1.131595	-6.187987	1.967519
C	1.504912	-3.798164	2.608118
N	1.625174	-5.170003	2.819813
C	-1.639129	-4.424987	-2.836188
C	-1.263477	-2.036627	-2.189558
N	-1.756898	-3.049156	-3.042237
O	1.324787	-7.353131	2.307845
O	1.967354	-2.986854	3.407213
O	-2.095892	-5.248946	-3.625890
O	-1.468685	-0.878829	-2.547850
C	2.330564	-5.563799	4.043674
H	2.352178	-6.664085	4.083407
H	1.807263	-5.147101	4.925490
H	3.356568	-5.148785	4.031877
C	-2.452080	-2.587487	-4.247206
H	-2.774302	-3.483329	-4.803187
H	-1.773301	-1.964972	-4.860536
H	-3.321351	-1.962932	-3.966607
C	0.000000	0.000000	0.000000
S	0.335026	0.718942	1.580530
C	1.027130	2.203226	0.904911
C	0.421617	0.904557	-0.985400
C	0.979485	2.101144	-0.493528
H	0.322049	0.690978	-2.059934
H	1.351718	2.899571	-1.152593
H	1.399246	3.001430	1.556025
H	0.701693	-7.361589	-0.578191
H	-0.854838	-7.361192	0.319578
H	0.935572	-1.478831	-0.539540
$end

$rem
JOBTYPE		SP
EXCHANGE	HF
CORRELATION	pRIMP2
BASIS		cc-pvtz
METHOD		rimp2
AUX_BASIS	rimp2-cc-pvtz
SOLVENT_METHOD	PCM
PURECART	11111
SYMMETRY	false
MEM_TOTAL	110000
SCF_CONVERGENCE = 6
THRESH=10
GUI = 2
$end



$solvent
dielectric 4.90
$end
--------------------------------------------------------------
 ----------------------------------------------------------------
             Standard Nuclear Orientation (Angstroms)
    I     Atom           X                Y                Z
 ----------------------------------------------------------------
    1      C      -0.1297430000    -6.7414040000    -0.2217660000
    2      C      -0.7827260000    -6.1556380000    -1.3525150000
    3      C       0.4119260000    -5.7914520000     0.7173390000
    4      C      -0.9218160000    -4.8037860000    -1.5938850000
    5      H      -1.2219080000    -6.8215180000    -2.1128190000
    6      C       0.2666820000    -4.3786380000     0.4643600000
    7      C      -0.3982550000    -3.8380320000    -0.6880530000
    8      C       0.7896940000    -3.4130620000     1.3691080000
    9      C      -0.5423490000    -2.4264730000    -0.9390020000
   10      C       0.6525890000    -2.0593480000     1.1304090000
   11      C       0.0000000000    -1.4782160000     0.0000000000
   12      H       1.0924530000    -1.3947830000     1.8914460000
   13      C       1.1315950000    -6.1879870000     1.9675190000
   14      C       1.5049120000    -3.7981640000     2.6081180000
   15      N       1.6251740000    -5.1700030000     2.8198130000
   16      C      -1.6391290000    -4.4249870000    -2.8361880000
   17      C      -1.2634770000    -2.0366270000    -2.1895580000
   18      N      -1.7568980000    -3.0491560000    -3.0422370000
   19      O       1.3247870000    -7.3531310000     2.3078450000
   20      O       1.9673540000    -2.9868540000     3.4072130000
   21      O      -2.0958920000    -5.2489460000    -3.6258900000
   22      O      -1.4686850000    -0.8788290000    -2.5478500000
   23      C       2.3305640000    -5.5637990000     4.0436740000
   24      H       2.3521780000    -6.6640850000     4.0834070000
   25      H       1.8072630000    -5.1471010000     4.9254900000
   26      H       3.3565680000    -5.1487850000     4.0318770000
   27      C      -2.4520800000    -2.5874870000    -4.2472060000
   28      H      -2.7743020000    -3.4833290000    -4.8031870000
   29      H      -1.7733010000    -1.9649720000    -4.8605360000
   30      H      -3.3213510000    -1.9629320000    -3.9666070000
   31      C       0.0000000000     0.0000000000     0.0000000000
   32      S       0.3350260000     0.7189420000     1.5805300000
   33      C       1.0271300000     2.2032260000     0.9049110000
   34      C       0.4216170000     0.9045570000    -0.9854000000
   35      C       0.9794850000     2.1011440000    -0.4935280000
   36      H       0.3220490000     0.6909780000    -2.0599340000
   37      H       1.3517180000     2.8995710000    -1.1525930000
   38      H       1.3992460000     3.0014300000     1.5560250000
   39      H       0.7016930000    -7.3615890000    -0.5781910000
   40      H      -0.8548380000    -7.3611920000     0.3195780000
   41      H       0.9355720000    -1.4788310000    -0.5395400000
 ----------------------------------------------------------------
 Nuclear Repulsion Energy =        2556.01871596 hartrees
 There are       98 alpha and       98 beta electrons
 Requested basis set is cc-pVTZ
 There are 356 shells and 1010 basis functions

 Total QAlloc Memory Limit 110000 MB
 Mega-Array Size       188 MB
 MEM_STATIC part       192 MB
 Discretize the solute cavity surface with Lebedev spheres
	Using 110 Lebedev grid points for each H atom
	Using 194 Lebedev grid points for other atoms
	Atomic van der Waals radii will be scaled by 1.20
 Remove points where switching function is < 1.0e-08
 Keep 2584 surface tesserae and discard 4194 interior tesserae
 Molecular Surface Area = 365.993 Angst**2
 Requested basis set is rimp2-cc-pVTZ
 There are 770 shells and 2648 basis functions
 A cutoff of  1.0D-10 yielded  34213 shell pairs
 There are    258931 function pairs (    335193 Cartesian)
 Smallest overlap matrix eigenvalue = 8.86E-06

 Q-Chem warning in module stvman/mkSTV.C, line 323:

 Overlap eigenvalue is smaller than square root of threshold
 Use THRESH >= 12 to get rid of this warning


 Scale SEOQF with 1.000000e-01/1.000000e-02/1.000000e-01

 Standard Electronic Orientation quadrupole field applied
 Nucleus-field energy     =    -0.0000000728 hartrees
 Guess from superposition of atomic densities
 Warning:  Energy on first SCF cycle will be non-variational
 SAD guess density has 196.000000 electrons

 -----------------------------------------------------------------------
  General SCF calculation program by
  Eric Jon Sundstrom, Paul Horn, Yuezhi Mao, Dmitri Zuev, Alec White,
  David Stuck, Shaama M.S., Shane Yost, Joonho Lee, David Small,
  Daniel Levine, Susi Lehtola, Hugh Burton, Evgeny Epifanovsky,
  Bang C. Huynh
 -----------------------------------------------------------------------
 Hartree-Fock
 using 64 threads for integral computing
 -------------------------------------------------------
 OpenMP Integral computing Module                
 Release: version 1.0, May 2013, Q-Chem Inc. Pittsburgh 
 -------------------------------------------------------
 A restricted SCF calculation will be
 performed using DIIS
 SCF converges when DIIS error is below 1.0e-06
 ---------------------------------------
  Cycle       Energy         DIIS error
 ---------------------------------------
    1   -1583.1743776899      1.87e-02  
    2   -1571.1507085894      2.03e-03  
    3   -1571.4918443471      1.55e-03  
    4   -1571.7127499129      2.53e-04  
    5   -1571.7266156547      7.82e-05  
    6   -1571.7280493906      3.02e-05  
    7   -1571.7284771352      1.55e-05  
    8   -1571.7285923079      6.18e-06  
    9   -1571.7286119735      2.87e-06  
   10   -1571.7286158028      1.21e-06  
   11   -1571.7286169990      5.80e-07  Convergence criterion met
 ---------------------------------------
 SCF time:   CPU 6850.22s  wall 256.00s 

************** Final PCM Free Energy Summary **************
 G_electrostatic  =      -0.02901276 hartree =     -18.20577886 kcal/mol
 G_cavitation     =       0.00000000 hartree =       0.00000000 kcal/mol
 G_dispersion     =       0.00000000 hartree =       0.00000000 kcal/mol
 G_repulsion      =       0.00000000 hartree =       0.00000000 kcal/mol
 --------------------------------------------------
 Non-electrostatic Free Energy =       0.00000000 hartree =       0.00000000 kcal/mol
 Total                         =      -0.02901276 hartree =     -18.20577886 kcal/mol
 --------------------------------------------------
 SCF Energy (H0 + V/2)                       =   -1571.72861700 
 Solute Internal Energy (H0)                 =   -1571.69960424 
 Total Free Energy (H0 + V/2 + non-elec)     =   -1571.72861700 hartree
                                             = -986274.59300859 kcal/mol
***********************************************************

 SCF   energy in the final basis set =    -1571.7286169990
 Total energy in the final basis set =    -1571.7286169990


 --------------------------------------------------------------
  Generalized many-body perturbation theory program
  by Joonho Lee, Fazle Rob, Xintian Feng, Evgeny Epifanovsky

 No regularization used 
 (reg. param. = 0.0000e+00)
  (P|Q)^-1/2 Time:  CPU 116.58 s  wall 1.89 s

 In RI-MP2 calculation: 
 # of frozen core orbitals: 31

 Components of the RIMP2 correlation energy:
        aaaa    correlation energy =        -0.6163260726 a.u.
        abab    correlation energy =        -3.4279586674 a.u.
        bbbb    correlation energy =        -0.6163260726 a.u.
        non-Brillouin singles      =        -0.0000000000 a.u.
        total same-spin energy     =        -1.2326521452 a.u.
        total opposite-spin energy =        -3.4279586674 a.u.

 Total  RIMP2   correlation energy =        -4.6606108126 a.u.
        RIMP2         total energy =     -1576.3892278116 a.u.

 RI-MP2 Energy Time:  CPU 2066.44 s  wall 33.44 s
 
 --------------------------------------------------------------
 
                    Orbital Energies (a.u.)
 --------------------------------------------------------------
 
 Alpha MOs
 -- Occupied --
-91.9908 -20.5535 -20.5449 -20.5412 -20.5404 -15.6278 -15.6211 -11.3949
-11.3856 -11.3831 -11.3789 -11.3086 -11.3058 -11.3049 -11.3042 -11.2976
-11.2968 -11.2911 -11.2802 -11.2684 -11.2682 -11.2647 -11.2635 -11.2592
-11.2526 -11.2503 -11.2487  -8.9910  -6.6718  -6.6713  -6.6707  -1.4210
 -1.4119  -1.3982  -1.3911  -1.2630  -1.2553  -1.2315  -1.1891  -1.1515
 -1.1141  -1.0865  -1.0474  -0.9962  -0.9881  -0.9863  -0.9552  -0.9493
 -0.8971  -0.8888  -0.8769  -0.8598  -0.7958  -0.7801  -0.7711  -0.7598
 -0.7396  -0.7164  -0.7017  -0.6920  -0.6832  -0.6721  -0.6673  -0.6573
 -0.6476  -0.6464  -0.6371  -0.6318  -0.6308  -0.6281  -0.6226  -0.6046
 -0.5901  -0.5741  -0.5660  -0.5611  -0.5579  -0.5519  -0.5503  -0.5496
 -0.5476  -0.5433  -0.5182  -0.5134  -0.5094  -0.4860  -0.4760  -0.4640
 -0.4574  -0.4516  -0.4427  -0.4347  -0.4141  -0.4075  -0.3543  -0.3520
 -0.3321  -0.2794
 -- Virtual --
  0.0131   0.0411   0.0852   0.0922   0.1411   0.1501   0.1555   0.1590
  0.1637   0.1710   0.1781   0.1828   0.1894   0.1957   0.2033   0.2109
  0.2122   0.2199   0.2243   0.2284   0.2316   0.2345   0.2420   0.2466
  0.2647   0.2704   0.3029   0.3066   0.3151   0.3207   0.3270   0.3297
  0.3380   0.3411   0.3420   0.3474   0.3538   0.3554   0.3638   0.3667
  0.3719   0.3783   0.3836   0.3895   0.3904   0.3972   0.4041   0.4082
  0.4200   0.4218   0.4272   0.4345   0.4415   0.4425   0.4453   0.4501
  0.4582   0.4607   0.4618   0.4718   0.4733   0.4830   0.4866   0.4929
  0.4961   0.5026   0.5068   0.5084   0.5160   0.5201   0.5230   0.5258
  0.5289   0.5378   0.5439   0.5472   0.5552   0.5588   0.5617   0.5659
  0.5757   0.5782   0.5796   0.5836   0.5859   0.5921   0.5955   0.5989
  0.6032   0.6066   0.6081   0.6091   0.6139   0.6178   0.6215   0.6303
  0.6316   0.6335   0.6357   0.6388   0.6433   0.6487   0.6526   0.6554
  0.6625   0.6653   0.6719   0.6736   0.6917   0.6946   0.6985   0.7023
  0.7038   0.7104   0.7174   0.7349   0.7381   0.7429   0.7528   0.7577
  0.7628   0.7657   0.7673   0.7785   0.7804   0.7886   0.7905   0.8006
  0.8070   0.8118   0.8220   0.8256   0.8306   0.8354   0.8444   0.8482
  0.8525   0.8577   0.8606   0.8696   0.8727   0.8751   0.8789   0.8803
  0.8875   0.8963   0.9038   0.9138   0.9181   0.9216   0.9274   0.9287
  0.9379   0.9391   0.9411   0.9519   0.9584   0.9657   0.9700   0.9724
  0.9781   0.9869   0.9966   0.9989   1.0048   1.0086   1.0107   1.0223
  1.0239   1.0297   1.0349   1.0479   1.0515   1.0535   1.0597   1.0619
  1.0657   1.0723   1.0738   1.0782   1.0846   1.0904   1.0958   1.1040
  1.1115   1.1192   1.1225   1.1281   1.1317   1.1326   1.1383   1.1406
  1.1464   1.1552   1.1581   1.1639   1.1664   1.1745   1.1808   1.1862
  1.1921   1.1955   1.2015   1.2061   1.2092   1.2147   1.2223   1.2265
  1.2303   1.2369   1.2412   1.2454   1.2508   1.2608   1.2651   1.2720
  1.2758   1.2856   1.2947   1.3050   1.3071   1.3290   1.3310   1.3388
  1.3414   1.3513   1.3524   1.3607   1.3689   1.3799   1.3842   1.3883
  1.3900   1.3994   1.4012   1.4075   1.4106   1.4179   1.4233   1.4424
  1.4478   1.4518   1.4617   1.4664   1.4758   1.4797   1.4901   1.4930
  1.4998   1.5024   1.5141   1.5167   1.5204   1.5298   1.5329   1.5399
  1.5460   1.5488   1.5556   1.5626   1.5648   1.5712   1.5756   1.5780
  1.5861   1.5967   1.6002   1.6071   1.6111   1.6286   1.6399   1.6453
  1.6512   1.6608   1.6637   1.6829   1.6849   1.6912   1.6930   1.7013
  1.7100   1.7169   1.7258   1.7312   1.7362   1.7473   1.7486   1.7585
  1.7623   1.7717   1.7776   1.7860   1.7931   1.7973   1.8003   1.8083
  1.8171   1.8283   1.8426   1.8440   1.8475   1.8608   1.8625   1.8694
  1.8760   1.8784   1.8924   1.8973   1.9050   1.9173   1.9340   1.9545
  1.9593   1.9637   1.9763   1.9781   1.9903   2.0032   2.0113   2.0314
  2.0351   2.0407   2.0476   2.0668   2.0744   2.1000   2.1140   2.1181
  2.1335   2.1513   2.1597   2.1652   2.1800   2.1920   2.2071   2.2176
  2.2250   2.2371   2.2469   2.2679   2.2827   2.2921   2.3074   2.3080
  2.3187   2.3239   2.3295   2.3361   2.3587   2.3621   2.3653   2.3861
  2.4097   2.4199   2.4260   2.4341   2.4536   2.4578   2.4620   2.4727
  2.4840   2.4928   2.5033   2.5127   2.5268   2.5323   2.5398   2.5549
  2.5600   2.5677   2.5826   2.5890   2.5942   2.5973   2.6079   2.6127
  2.6218   2.6366   2.6402   2.6480   2.6547   2.6671   2.6763   2.6791
  2.6925   2.6940   2.7006   2.7108   2.7205   2.7251   2.7275   2.7300
  2.7422   2.7529   2.7614   2.7630   2.7655   2.7743   2.7816   2.7943
  2.8146   2.8195   2.8400   2.8494   2.8499   2.8538   2.8627   2.8696
  2.8766   2.8799   2.8827   2.8960   2.9000   2.9070   2.9084   2.9099
  2.9208   2.9235   2.9298   2.9418   2.9471   2.9523   2.9607   2.9726
  2.9779   2.9846   2.9938   3.0043   3.0075   3.0092   3.0253   3.0317
  3.0354   3.0417   3.0471   3.0508   3.0723   3.0762   3.0827   3.0889
  3.0959   3.0991   3.1026   3.1077   3.1085   3.1157   3.1199   3.1267
  3.1354   3.1427   3.1449   3.1529   3.1575   3.1629   3.1666   3.1780
  3.1814   3.1867   3.1947   3.2014   3.2074   3.2116   3.2162   3.2271
  3.2286   3.2393   3.2438   3.2483   3.2543   3.2574   3.2594   3.2633
  3.2663   3.2717   3.2738   3.2810   3.2854   3.3047   3.3058   3.3080
  3.3101   3.3135   3.3157   3.3239   3.3273   3.3330   3.3382   3.3399
  3.3418   3.3475   3.3514   3.3575   3.3622   3.3658   3.3698   3.3750
  3.3788   3.3842   3.3849   3.3913   3.3956   3.3990   3.4082   3.4147
  3.4191   3.4228   3.4295   3.4311   3.4367   3.4406   3.4452   3.4497
  3.4562   3.4624   3.4685   3.4711   3.4716   3.4751   3.4838   3.4889
  3.4950   3.5002   3.5038   3.5072   3.5119   3.5194   3.5270   3.5274
  3.5366   3.5410   3.5418   3.5526   3.5566   3.5668   3.5695   3.5793
  3.5841   3.5872   3.5923   3.6088   3.6143   3.6165   3.6203   3.6259
  3.6304   3.6344   3.6364   3.6396   3.6419   3.6486   3.6545   3.6584
  3.6656   3.6701   3.6785   3.6909   3.6928   3.7022   3.7054   3.7135
  3.7230   3.7302   3.7324   3.7360   3.7412   3.7478   3.7516   3.7558
  3.7606   3.7668   3.7720   3.7746   3.7796   3.7889   3.7941   3.8005
  3.8119   3.8145   3.8184   3.8200   3.8279   3.8375   3.8397   3.8442
  3.8552   3.8614   3.8694   3.8766   3.8832   3.8895   3.8995   3.9065
  3.9118   3.9161   3.9264   3.9328   3.9423   3.9501   3.9529   3.9562
  3.9631   3.9667   3.9712   3.9741   3.9865   3.9911   3.9931   4.0152
  4.0255   4.0259   4.0348   4.0437   4.0491   4.0531   4.0576   4.0704
  4.0876   4.1037   4.1138   4.1248   4.1301   4.1337   4.1400   4.1442
  4.1487   4.1557   4.1625   4.1703   4.1733   4.1807   4.1885   4.1923
  4.2109   4.2270   4.2333   4.2420   4.2493   4.2533   4.2586   4.2700
  4.2739   4.2769   4.2824   4.2908   4.2979   4.3012   4.3055   4.3087
  4.3119   4.3186   4.3217   4.3284   4.3384   4.3429   4.3460   4.3558
  4.3620   4.3653   4.3687   4.3732   4.3757   4.3842   4.3892   4.3944
  4.4039   4.4084   4.4127   4.4217   4.4340   4.4409   4.4450   4.4648
  4.4713   4.4850   4.4879   4.4954   4.5021   4.5156   4.5219   4.5321
  4.5369   4.5434   4.5499   4.5613   4.5685   4.5795   4.5871   4.5907
  4.5945   4.6015   4.6045   4.6105   4.6164   4.6217   4.6306   4.6396
  4.6537   4.6558   4.6736   4.6769   4.6967   4.7037   4.7055   4.7140
  4.7254   4.7269   4.7504   4.7574   4.7662   4.7835   4.7936   4.8001
  4.8166   4.8283   4.8382   4.8555   4.8564   4.8680   4.8783   4.8815
  4.8890   4.8995   4.9070   4.9321   4.9422   4.9523   4.9572   4.9773
  4.9946   4.9974   5.0243   5.0255   5.0327   5.0447   5.0519   5.0567
  5.0799   5.0885   5.1128   5.1155   5.1215   5.1252   5.1333   5.1426
  5.1491   5.1548   5.1775   5.1808   5.1927   5.2015   5.2190   5.2363
  5.2616   5.2655   5.2729   5.2859   5.2963   5.3139   5.3236   5.3298
  5.3353   5.3393   5.3558   5.3648   5.3781   5.3902   5.4029   5.4155
  5.4351   5.4453   5.4765   5.4853   5.4939   5.5111   5.5140   5.5172
  5.5186   5.5351   5.5433   5.5504   5.5539   5.5599   5.5657   5.5676
  5.5778   5.5861   5.5931   5.6027   5.6104   5.6184   5.6246   5.6317
  5.6447   5.6499   5.6615   5.6621   5.6666   5.6720   5.6908   5.6944
  5.7002   5.7081   5.7180   5.7383   5.7475   5.7585   5.7710   5.7769
  5.7853   5.7900   5.8204   5.8382   5.8443   5.8602   5.8870   5.9075
  5.9428   5.9628   5.9705   5.9899   6.0106   6.0270   6.0411   6.0452
  6.0509   6.0857   6.0926   6.1118   6.1231   6.1414   6.1503   6.1862
  6.2021   6.2195   6.2252   6.2257   6.2412   6.2640   6.2727   6.2833
  6.3091   6.3168   6.3237   6.3494   6.3675   6.3871   6.4187   6.4853
  6.5223   6.5336   6.5736   6.5829   6.6023   6.6173   6.6332   6.6584
  6.6735   6.6755   6.8481   6.8506   6.8902   6.9025   6.9059   6.9243
  6.9275   6.9531   7.1018   7.1080   7.1484   7.1913   7.1993   7.2353
  7.3473   7.3520   7.3576   7.3620   7.4761   7.5420   7.5715   7.5832
  7.5912   7.5995   7.6548   7.6869   7.6926   7.7153   8.9017   9.9775
 10.3576  11.3015  11.5256  11.7781  12.0152  12.1292  12.4187  12.4704
 12.9736  13.2316  13.3770  13.5745  13.7801  13.9271  14.0724  14.2866
 14.3194  14.3667  14.5240  14.6537  15.0095  15.6201  15.8130  16.3387
 --------------------------------------------------------------
 
          Ground-State Mulliken Net Atomic Charges

     Atom                 Charge (a.u.)
  ----------------------------------------
      1 C                    -0.084554
      2 C                    -0.031220
      3 C                    -0.109825
      4 C                    -0.123367
      5 H                     0.198896
      6 C                     0.021479
      7 C                     0.119830
      8 C                    -0.056504
      9 C                    -0.189393
     10 C                    -0.172111
     11 C                     0.171083
     12 H                     0.189409
     13 C                     0.341251
     14 C                     0.346419
     15 N                    -0.089683
     16 C                     0.357119
     17 C                     0.355744
     18 N                    -0.090233
     19 O                    -0.495147
     20 O                    -0.507802
     21 O                    -0.501161
     22 O                    -0.475486
     23 C                    -0.205027
     24 H                     0.139416
     25 H                     0.109367
     26 H                     0.109026
     27 C                    -0.198032
     28 H                     0.133777
     29 H                     0.110813
     30 H                     0.112365
     31 C                     0.011137
     32 S                     0.004480
     33 C                    -0.201214
     34 C                    -0.161041
     35 C                    -0.229816
     36 H                     0.194746
     37 H                     0.190803
     38 H                     0.212970
     39 H                     0.137368
     40 H                     0.137647
     41 H                     0.216474
  ----------------------------------------
  Sum of atomic charges =     0.000000

 -----------------------------------------------------------------
                    Cartesian Multipole Moments
 -----------------------------------------------------------------
    Charge (ESU x 10^10)
                 0.0000
    Dipole Moment (Debye)
         X       1.1028      Y       1.9494      Z      -2.2481
       Tot       3.1734
    Quadrupole Moments (Debye-Ang)
        XX    -168.8990     XY       7.4261     YY    -180.1715
        XZ     -14.2092     YZ       9.0938     ZZ    -180.9873
    Octopole Moments (Debye-Ang^2)
       XXX     -38.5083    XXY     501.7862    XYY     -27.9745
       YYY    1693.2222    XXZ      -2.7544    XYZ      62.6035
       YYZ     -52.9936    XZZ      -7.0767    YZZ     577.6440
       ZZZ     -12.1120
    Hexadecapole Moments (Debye-Ang^3)
      XXXX   -1757.4024   XXXY      44.6848   XXYY   -3084.5555
      XYYY     530.2346   YYYY  -18036.8722   XXXZ   -1309.5371
      XXYZ      26.5842   XYYZ    -800.8978   YYYZ     999.3951
      XXZZ   -1163.5938   XYZZ     -81.2341   YYZZ   -4033.4240
      XZZZ   -1400.2265   YZZZ      72.5452   ZZZZ   -5014.0974
 -----------------------------------------------------------------
 Total job time:  292.65s(wall), 9018.58s(cpu) 
 Wed Sep 27 00:47:58 2023

        *************************************************************
        *                                                           *
        *  Thank you very much for using Q-Chem.  Have a nice day.  *
        *                                                           *
        *************************************************************


0 sent ACK to 0 
now end server 0 ... 
cleanup process ... done
remove work dirs ./qchem2013459.0 -- ./qchem2013459.0
rm -rf ./qchem2013459.0
rm -rf ./qchem2013459
