You are running Q-Chem version: 5.4.0

#
# job setting
#
local host:  exp-3-09
current dir: /expanse/lustre/projects/csd626/rramji/aromodel/PNDIT/Hydrogenated_Rotation_Test
input file:  Dimethyl_Naphthalene_Dicarboximide_Phi_60_Theta_100_Thiophene_Hydrogenated.qcin
output file: 
nprocs     : 1
nthreads   : 64
#
# qchem installation setting
#
QC:          /cm/shared/apps/spack/cpu/opt/spack/linux-centos8-zen2/gcc-10.2.0/qchem-5.4-akfmr7b3t57bfs6qan3padb2wnb2i7cl
QCAUX:       /cm/shared/apps/spack/cpu/opt/spack/linux-centos8-zen2/gcc-10.2.0/qchem-5.4-akfmr7b3t57bfs6qan3padb2wnb2i7cl/qcaux
QCPROG:      /cm/shared/apps/spack/cpu/opt/spack/linux-centos8-zen2/gcc-10.2.0/qchem-5.4-akfmr7b3t57bfs6qan3padb2wnb2i7cl/exe/qcprog.exe
QCPROG_S:    /cm/shared/apps/spack/cpu/opt/spack/linux-centos8-zen2/gcc-10.2.0/qchem-5.4-akfmr7b3t57bfs6qan3padb2wnb2i7cl/exe/qcprog.exe_s
PARALLEL:    -DPARALLEL
QCMPI:       mpich
#
# qchem directory setting
#
qcrun:       qchem3332534
QCSCRATCH:   .
QCLOCALSCR:  
QCTMPDIR:    .
QCFILEPREF:  ./qchem3332534
QCSAVEDIR:   
workdirs:    ./qchem3332534
workdir0:    ./qchem3332534
partmpdirs =  
#
# parallel setting
#
QCRSH:           ssh
QCMPI:           mpich
QCMPIRUN:        /cm/shared/apps/spack/cpu/opt/spack/linux-centos8-zen2/gcc-10.2.0/qchem-5.4-akfmr7b3t57bfs6qan3padb2wnb2i7cl/bin/mpi/mpirun_qchem
QCMACHINEFILE:   ./qchem3332534/hostfile
exp-3-09

#
# env setting
#
exported envs:   QC QCAUX QCSCRATCH QCRUNNAME QCFILEPREF QCPROG QCPROG_S GUIFILE

Running Job 1 of 1 Dimethyl_Naphthalene_Dicarboximide_Phi_60_Theta_100_Thiophene_Hydrogenated.qcin
qchem Dimethyl_Naphthalene_Dicarboximide_Phi_60_Theta_100_Thiophene_Hydrogenated.qcin_3332534.0 ./qchem3332534/ 1
/cm/shared/apps/spack/cpu/opt/spack/linux-centos8-zen2/gcc-10.2.0/qchem-5.4-akfmr7b3t57bfs6qan3padb2wnb2i7cl/bin/mpi/mpirun_qchem -machinefile ./qchem3332534/hostfile -np 1 /cm/shared/apps/spack/cpu/opt/spack/linux-centos8-zen2/gcc-10.2.0/qchem-5.4-akfmr7b3t57bfs6qan3padb2wnb2i7cl/exe/qcprog.exe Dimethyl_Naphthalene_Dicarboximide_Phi_60_Theta_100_Thiophene_Hydrogenated.qcin_3332534.0 ./qchem3332534/

Process 0 of 1 is on exp-3-09 - thread support 0
initial socket setup ...start
initial socket setup ...done 
now start server 0 ... 
                  Welcome to Q-Chem
     A Quantum Leap Into The Future Of Chemistry


 Q-Chem 5.4, Q-Chem, Inc., Pleasanton, CA (2021)

 License issued to: University of California, San Diego (site)

 E. Epifanovsky,  A. T. B. Gilbert,  Xintian Feng,  Joonho Lee,  Yuezhi Mao,  
 N. Mardirossian,  P. Pokhilko,  A. White,  M. Wormit,  M. P. Coons,  
 A. L. Dempwolff,  Zhengting Gan,  D. Hait,  P. R. Horn,  L. D. Jacobson,  
 I. Kaliman,  J. Kussmann,  A. W. Lange,  Ka Un Lao,  D. S. Levine,  Jie Liu,  
 S. C. McKenzie,  A. F. Morrison,  K. Nanda,  F. Plasser,  D. R. Rehn,  
 M. L. Vidal,  Zhi-Qiang You,  Ying Zhu,  B. Alam,  B. Albrecht,  
 A. Aldossary,  E. Alguire,  J. H. Andersen,  D. Barton,  K. Begam,  A. Behn,  
 Y. A. Bernard,  E. J. Berquist,  H. Burton,  A. Carreras,  K. Carter-Fenk,  
 R. Chakraborty,  A. D. Chien,  K. D. Closser,  V. Cofer-Shabica,  
 S. Dasgupta,  Jia Deng,  M. de Wergifosse,  M. Diedenhofen,  Hainam Do,  
 S. Ehlert,  Po-Tung Fang,  S. Fatehi,  Qingguo Feng,  J. Gayvert,  
 Qinghui Ge,  G. Gidofalvi,  M. Goldey,  J. Gomes,  C. Gonzalez-Espinoza,  
 S. Gulania,  A. Gunina,  M. W. D. Hanson-Heine,  P. H. P. Harbach,  
 A. W. Hauser,  M. F. Herbst,  M. Hernandez Vera,  M. Hodecker,  
 Z. C. Holden,  S. Houck,  Xunkun Huang,  Kerwin Hui,  B. C. Huynh,  
 M. Ivanov,  Hyunjun Ji,  Hanjie Jiang,  B. Kaduk,  S. Kaehler,  
 K. Khistyaev,  Jaehoon Kim,  P. Klunzinger,  Z. Koczor-Benda,  
 Joong Hoon Koh,  D. Kosenkov,  L. Koulias,  T. Kowalczyk,  C. M. Krauter,  
 K. Kue,  A. Kunitsa,  T. Kus,  A. Landau,  K. V. Lawler,  D. Lefrancois,  
 S. Lehtola,  Rain Li,  Yi-Pei Li,  Jiashu Liang,  M. Liebenthal,  
 Hung-Hsuan Lin,  You-Sheng Lin,  Fenglai Liu,  Kuan-Yu Liu,  
 M. Loipersberger,  A. Luenser,  A. Manjanath,  P. Manohar,  E. Mansoor,  
 S. F. Manzer,  Shan-Ping Mao,  A. V. Marenich,  T. Markovich,  S. Mason,  
 S. A. Maurer,  P. F. McLaughlin,  M. F. S. J. Menger,  J.-M. Mewes,  
 S. A. Mewes,  P. Morgante,  J. W. Mullinax,  T. S. Nguyen-Beck,  
 K. J. Oosterbaan,  G. Paran,  Alexander C. Paul,  Suranjan K. Paul,  
 F. Pavosevic,  Zheng Pei,  S. Prager,  E. I. Proynov,  E. Ramos,  B. Rana,  
 A. E. Rask,  A. Rettig,  R. M. Richard,  F. Rob,  E. Rossomme,  T. Scheele,  
 M. Scheurer,  M. Schneider,  N. Sergueev,  S. M. Sharada,  W. Skomorowski,  
 D. W. Small,  C. J. Stein,  Yu-Chuan Su,  E. J. Sundstrom,  Zhen Tao,  
 J. Thirman,  T. Tsuchimochi,  N. M. Tubman,  S. P. Veccham,  O. Vydrov,  
 J. Wenzel,  J. Witte,  A. Yamada,  Kun Yao,  S. Yeganeh,  S. R. Yost,  
 A. Zech,  Igor Ying Zhang,  Xing Zhang,  Yu Zhang,  D. Zuev,  
 A. Aspuru-Guzik,  A. T. Bell,  N. A. Besley,  K. B. Bravaya,  B. R. Brooks,  
 D. Casanova,  Jeng-Da Chai,  S. Coriani,  C. J. Cramer,  
 A. E. DePrince, III,  R. A. DiStasio Jr.,  A. Dreuw,  B. D. Dunietz,  
 T. R. Furlani,  W. A. Goddard III,  S. Grimme,  S. Hammes-Schiffer,  
 T. Head-Gordon,  W. J. Hehre,  Chao-Ping Hsu,  T.-C. Jagau,  Yousung Jung,  
 A. Klamt,  Jing Kong,  D. S. Lambrecht,  WanZhen Liang,  N. J. Mayhall,  
 C. W. McCurdy,  J. B. Neaton,  C. Ochsenfeld,  J. A. Parkhill,  R. Peverati,  
 V. A. Rassolov,  Yihan Shao,  L. V. Slipchenko,  T. Stauch,  R. P. Steele,  
 J. E. Subotnik,  A. J. W. Thom,  A. Tkatchenko,  D. G. Truhlar,  
 T. Van Voorhis,  T. A. Wesolowski,  K. B. Whaley,  H. L. Woodcock III,  
 P. M. Zimmerman,  S. Faraji,  P. M. W. Gill,  M. Head-Gordon,  
 J. M. Herbert,  A. I. Krylov

 Contributors to earlier versions of Q-Chem not listed above: 
 R. D. Adamson,  B. Austin,  R. Baer,  J. Baker,  G. J. O. Beran,  
 K. Brandhorst,  S. T. Brown,  E. F. C. Byrd,  A. K. Chakraborty,  
 G. K. L. Chan,  Chun-Min Chang,  Yunqing Chen,  C.-L. Cheng,  
 Siu Hung Chien,  D. M. Chipman,  D. L. Crittenden,  H. Dachsel,  
 R. J. Doerksen,  A. D. Dutoi,  R. G. Edgar,  J. Fosso-Tande,  
 L. Fusti-Molnar,  D. Ghosh,  A. Ghysels,  A. Golubeva-Zadorozhnaya,  
 J. Gonthier,  M. S. Gordon,  S. R. Gwaltney,  G. Hawkins,  J. E. Herr,  
 A. Heyden,  S. Hirata,  E. G. Hohenstein,  G. Kedziora,  F. J. Keil,  
 C. Kelley,  Jihan Kim,  R. A. King,  R. Z. Khaliullin,  P. P. Korambath,  
 W. Kurlancheek,  A. Laurent,  A. M. Lee,  M. S. Lee,  S. V. Levchenko,  
 Ching Yeh Lin,  D. Liotard,  E. Livshits,  R. C. Lochan,  I. Lotan,  
 L. A. Martinez-Martinez,  P. E. Maslen,  N. Nair,  D. P. O'Neill,  
 D. Neuhauser,  E. Neuscamman,  C. M. Oana,  R. Olivares-Amaya,  R. Olson,  
 T. M. Perrine,  B. Peters,  P. A. Pieniazek,  A. Prociuk,  Y. M. Rhee,  
 J. Ritchie,  M. A. Rohrdanz,  E. Rosta,  N. J. Russ,  H. F. Schaefer III,  
 M. W. Schmidt,  N. E. Schultz,  S. Sharma,  N. Shenvi,  C. D. Sherrill,  
 A. C. Simmonett,  A. Sodt,  T. Stein,  D. Stuck,  K. S. Thanthiriwatte,  
 V. Vanovschi,  L. Vogt,  Tao Wang,  A. Warshel,  M. A. Watson,  
 C. F. Williams,  Q. Wu,  X. Xu,  Jun Yang,  W. Zhang,  Yan Zhao

 Please cite Q-Chem as follows:
 Y. Shao et al., Mol. Phys. 113, 184-215 (2015)
 DOI: 10.1080/00268976.2014.952696

 Q-Chem 5.4.0 for Intel X86 EM64T Linux

 Parts of Q-Chem use Armadillo 9.800.1 (Horizon Scraper).
 http://arma.sourceforge.net/

 Q-Chem begins on Sun Sep 24 15:58:28 2023  

 Host: 
0

     Scratch files written to ./qchem3332534//
 May1621 |scratch|qcdevops|jenkins|workspace|build_RNUM    
 Parallel job on  1  processors
 Processing $rem in /cm/shared/apps/spack/cpu/opt/spack/linux-centos8-zen2/gcc-10.2.0/qchem-5.4-akfmr7b3t57bfs6qan3padb2wnb2i7cl/config/preferences:
 Processing $rem in /home/rramji/.qchemrc:
 Symmetry turned off for PCM/SM12/SMD calculation
 Core orbitals will be frozen

 Checking the input file for inconsistencies... 	...done.

 Q-Chem warning in module forms1/BasisType.C, line 2236:

 You are not using the predefined 5D/6D in this basis set.


--------------------------------------------------------------
User input:
--------------------------------------------------------------
$molecule
0 1
C	0.253280	-6.741404	0.043160
C	1.539213	-6.155638	0.269777
C	-0.814295	-5.791452	-0.145543
C	1.813519	-4.803786	0.318377
H	2.403941	-6.821518	0.422058
C	-0.527140	-4.378638	-0.094194
C	0.783072	-3.838032	0.137191
C	-1.556403	-3.413062	-0.275104
C	1.067932	-2.426473	0.188116
C	-1.285420	-2.059348	-0.226701
C	-0.000000	-1.478216	-0.000000
H	-2.151147	-1.394783	-0.378931
C	-2.234582	-6.187987	-0.397845
C	-2.965273	-3.798164	-0.523637
N	-3.204744	-5.170003	-0.567586
C	3.226257	-4.424987	0.567421
C	2.489446	-2.036627	0.439541
N	3.459801	-3.049156	0.609650
O	-2.619468	-7.353131	-0.468608
O	-3.874668	-2.986854	-0.683034
O	4.124806	-5.248946	0.725131
O	2.895819	-0.878829	0.512648
C	-4.595691	-5.563799	-0.813908
H	-4.640022	-6.664085	-0.822891
H	-4.934830	-5.147101	-1.781600
H	-5.246157	-5.148785	-0.020360
C	4.829716	-2.587487	0.851649
H	5.462742	-3.483329	0.962191
H	4.863242	-1.964972	1.765865
H	5.173521	-1.962932	0.005383
C	0.000000	0.000000	0.000000
S	0.686805	0.396760	1.580530
C	2.105095	1.215640	0.904911
C	0.864201	0.499140	-0.985400
C	2.007514	1.159347	-0.493528
H	0.660136	0.381296	-2.059934
H	2.770388	1.599875	-1.152593
H	2.867745	1.656053	1.556025
H	-0.008120	-7.361589	0.909181
H	0.304668	-7.361192	-0.860264
H	-0.188062	-1.478831	1.063500
$end

$rem
JOBTYPE		SP
EXCHANGE	HF
CORRELATION	pRIMP2
BASIS		cc-pvtz
METHOD		rimp2
AUX_BASIS	rimp2-cc-pvtz
SOLVENT_METHOD	PCM
PURECART	11111
SYMMETRY	false
MEM_TOTAL	110000
SCF_CONVERGENCE = 6
THRESH=10
GUI = 2
$end



$solvent
dielectric 4.90
$end
--------------------------------------------------------------
 ----------------------------------------------------------------
             Standard Nuclear Orientation (Angstroms)
    I     Atom           X                Y                Z
 ----------------------------------------------------------------
    1      C       0.2532800000    -6.7414040000     0.0431600000
    2      C       1.5392130000    -6.1556380000     0.2697770000
    3      C      -0.8142950000    -5.7914520000    -0.1455430000
    4      C       1.8135190000    -4.8037860000     0.3183770000
    5      H       2.4039410000    -6.8215180000     0.4220580000
    6      C      -0.5271400000    -4.3786380000    -0.0941940000
    7      C       0.7830720000    -3.8380320000     0.1371910000
    8      C      -1.5564030000    -3.4130620000    -0.2751040000
    9      C       1.0679320000    -2.4264730000     0.1881160000
   10      C      -1.2854200000    -2.0593480000    -0.2267010000
   11      C       0.0000000000    -1.4782160000     0.0000000000
   12      H      -2.1511470000    -1.3947830000    -0.3789310000
   13      C      -2.2345820000    -6.1879870000    -0.3978450000
   14      C      -2.9652730000    -3.7981640000    -0.5236370000
   15      N      -3.2047440000    -5.1700030000    -0.5675860000
   16      C       3.2262570000    -4.4249870000     0.5674210000
   17      C       2.4894460000    -2.0366270000     0.4395410000
   18      N       3.4598010000    -3.0491560000     0.6096500000
   19      O      -2.6194680000    -7.3531310000    -0.4686080000
   20      O      -3.8746680000    -2.9868540000    -0.6830340000
   21      O       4.1248060000    -5.2489460000     0.7251310000
   22      O       2.8958190000    -0.8788290000     0.5126480000
   23      C      -4.5956910000    -5.5637990000    -0.8139080000
   24      H      -4.6400220000    -6.6640850000    -0.8228910000
   25      H      -4.9348300000    -5.1471010000    -1.7816000000
   26      H      -5.2461570000    -5.1487850000    -0.0203600000
   27      C       4.8297160000    -2.5874870000     0.8516490000
   28      H       5.4627420000    -3.4833290000     0.9621910000
   29      H       4.8632420000    -1.9649720000     1.7658650000
   30      H       5.1735210000    -1.9629320000     0.0053830000
   31      C       0.0000000000     0.0000000000     0.0000000000
   32      S       0.6868050000     0.3967600000     1.5805300000
   33      C       2.1050950000     1.2156400000     0.9049110000
   34      C       0.8642010000     0.4991400000    -0.9854000000
   35      C       2.0075140000     1.1593470000    -0.4935280000
   36      H       0.6601360000     0.3812960000    -2.0599340000
   37      H       2.7703880000     1.5998750000    -1.1525930000
   38      H       2.8677450000     1.6560530000     1.5560250000
   39      H      -0.0081200000    -7.3615890000     0.9091810000
   40      H       0.3046680000    -7.3611920000    -0.8602640000
   41      H      -0.1880620000    -1.4788310000     1.0635000000
 ----------------------------------------------------------------
 Nuclear Repulsion Energy =        2616.07167754 hartrees
 There are       98 alpha and       98 beta electrons
 Requested basis set is cc-pVTZ
 There are 356 shells and 1010 basis functions

 Total QAlloc Memory Limit 110000 MB
 Mega-Array Size       188 MB
 MEM_STATIC part       192 MB
 Discretize the solute cavity surface with Lebedev spheres
	Using 110 Lebedev grid points for each H atom
	Using 194 Lebedev grid points for other atoms
	Atomic van der Waals radii will be scaled by 1.20
 Remove points where switching function is < 1.0e-08
 Keep 2560 surface tesserae and discard 4218 interior tesserae
 Molecular Surface Area = 354.222 Angst**2
 Requested basis set is rimp2-cc-pVTZ
 There are 770 shells and 2648 basis functions
 A cutoff of  1.0D-10 yielded  35486 shell pairs
 There are    269322 function pairs (    348872 Cartesian)
 Smallest overlap matrix eigenvalue = 8.93E-06

 Q-Chem warning in module stvman/mkSTV.C, line 323:

 Overlap eigenvalue is smaller than square root of threshold
 Use THRESH >= 12 to get rid of this warning


 Scale SEOQF with 1.000000e-02/1.000000e-02/1.000000e-01

 Standard Electronic Orientation quadrupole field applied
 Nucleus-field energy     =     0.0000000160 hartrees
 Guess from superposition of atomic densities
 Warning:  Energy on first SCF cycle will be non-variational
 SAD guess density has 196.000000 electrons

 -----------------------------------------------------------------------
  General SCF calculation program by
  Eric Jon Sundstrom, Paul Horn, Yuezhi Mao, Dmitri Zuev, Alec White,
  David Stuck, Shaama M.S., Shane Yost, Joonho Lee, David Small,
  Daniel Levine, Susi Lehtola, Hugh Burton, Evgeny Epifanovsky,
  Bang C. Huynh
 -----------------------------------------------------------------------
 Hartree-Fock
 using 64 threads for integral computing
 -------------------------------------------------------
 OpenMP Integral computing Module                
 Release: version 1.0, May 2013, Q-Chem Inc. Pittsburgh 
 -------------------------------------------------------
 A restricted SCF calculation will be
 performed using DIIS
 SCF converges when DIIS error is below 1.0e-06
 ---------------------------------------
  Cycle       Energy         DIIS error
 ---------------------------------------
    1   -1583.3449420166      1.87e-02  
    2   -1571.0652492008      2.02e-03  
    3   -1571.4010499235      1.54e-03  
    4   -1571.6185566612      2.60e-04  
    5   -1571.6331235847      8.66e-05  
    6   -1571.6347919329      3.32e-05  
    7   -1571.6353306852      1.81e-05  
    8   -1571.6354932102      7.62e-06  
    9   -1571.6355259508      3.65e-06  
   10   -1571.6355335825      1.59e-06  
   11   -1571.6355354513      7.64e-07  Convergence criterion met
 ---------------------------------------
 SCF time:   CPU 8074.81s  wall 413.00s 

************** Final PCM Free Energy Summary **************
 G_electrostatic  =      -0.02771037 hartree =     -17.38851672 kcal/mol
 G_cavitation     =       0.00000000 hartree =       0.00000000 kcal/mol
 G_dispersion     =       0.00000000 hartree =       0.00000000 kcal/mol
 G_repulsion      =       0.00000000 hartree =       0.00000000 kcal/mol
 --------------------------------------------------
 Non-electrostatic Free Energy =       0.00000000 hartree =       0.00000000 kcal/mol
 Total                         =      -0.02771037 hartree =     -17.38851672 kcal/mol
 --------------------------------------------------
 SCF Energy (H0 + V/2)                       =   -1571.63553545 
 Solute Internal Energy (H0)                 =   -1571.60782509 
 Total Free Energy (H0 + V/2 + non-elec)     =   -1571.63553545 hartree
                                             = -986216.18345586 kcal/mol
***********************************************************

 SCF   energy in the final basis set =    -1571.6355354513
 Total energy in the final basis set =    -1571.6355354513


 --------------------------------------------------------------
  Generalized many-body perturbation theory program
  by Joonho Lee, Fazle Rob, Xintian Feng, Evgeny Epifanovsky

 No regularization used 
 (reg. param. = 0.0000e+00)
  (P|Q)^-1/2 Time:  CPU 626.42 s  wall 10.33 s

 In RI-MP2 calculation: 
 # of frozen core orbitals: 31

 Components of the RIMP2 correlation energy:
        aaaa    correlation energy =        -0.6206071581 a.u.
        abab    correlation energy =        -3.4382648771 a.u.
        bbbb    correlation energy =        -0.6206071581 a.u.
        non-Brillouin singles      =        -0.0000000000 a.u.
        total same-spin energy     =        -1.2412143163 a.u.
        total opposite-spin energy =        -3.4382648771 a.u.

 Total  RIMP2   correlation energy =        -4.6794791933 a.u.
        RIMP2         total energy =     -1576.3150146447 a.u.

 RI-MP2 Energy Time:  CPU 2448.25 s  wall 39.85 s
 
 --------------------------------------------------------------
 
                    Orbital Energies (a.u.)
 --------------------------------------------------------------
 
 Alpha MOs
 -- Occupied --
-91.9781 -20.5437 -20.5431 -20.5371 -20.5355 -15.6262 -15.6175 -11.3907
-11.3840 -11.3791 -11.3738 -11.3059 -11.3050 -11.3009 -11.2990 -11.2985
-11.2947 -11.2759 -11.2699 -11.2662 -11.2638 -11.2623 -11.2572 -11.2547
-11.2499 -11.2490 -11.2376  -8.9797  -6.6604  -6.6596  -6.6593  -1.4210
 -1.4080  -1.3979  -1.3871  -1.2621  -1.2516  -1.2275  -1.1880  -1.1491
 -1.1092  -1.0812  -1.0425  -0.9921  -0.9887  -0.9860  -0.9528  -0.9506
 -0.8940  -0.8780  -0.8742  -0.8557  -0.7863  -0.7774  -0.7726  -0.7669
 -0.7359  -0.7164  -0.7021  -0.6910  -0.6775  -0.6665  -0.6653  -0.6550
 -0.6470  -0.6423  -0.6334  -0.6288  -0.6281  -0.6268  -0.6209  -0.6003
 -0.5821  -0.5755  -0.5655  -0.5616  -0.5536  -0.5516  -0.5489  -0.5467
 -0.5450  -0.5417  -0.5150  -0.5067  -0.4942  -0.4763  -0.4688  -0.4641
 -0.4513  -0.4391  -0.4311  -0.4216  -0.4155  -0.4043  -0.3490  -0.3453
 -0.3180  -0.2826
 -- Virtual --
  0.0160   0.0483   0.0551   0.0955   0.1376   0.1434   0.1513   0.1634
  0.1685   0.1716   0.1767   0.1837   0.1888   0.1898   0.2000   0.2032
  0.2063   0.2210   0.2272   0.2294   0.2343   0.2349   0.2376   0.2429
  0.2655   0.2709   0.2841   0.3042   0.3101   0.3190   0.3228   0.3241
  0.3298   0.3391   0.3435   0.3520   0.3549   0.3590   0.3603   0.3645
  0.3714   0.3755   0.3811   0.3847   0.3903   0.3937   0.4022   0.4055
  0.4129   0.4221   0.4283   0.4308   0.4327   0.4417   0.4451   0.4500
  0.4554   0.4596   0.4608   0.4700   0.4712   0.4808   0.4929   0.4947
  0.4989   0.5050   0.5085   0.5157   0.5215   0.5228   0.5300   0.5317
  0.5381   0.5409   0.5439   0.5520   0.5560   0.5626   0.5664   0.5681
  0.5715   0.5805   0.5811   0.5861   0.5915   0.5946   0.5973   0.6021
  0.6061   0.6093   0.6120   0.6128   0.6181   0.6203   0.6234   0.6321
  0.6352   0.6356   0.6391   0.6438   0.6454   0.6526   0.6544   0.6592
  0.6633   0.6731   0.6807   0.6852   0.6956   0.6972   0.7026   0.7057
  0.7104   0.7249   0.7279   0.7348   0.7406   0.7493   0.7569   0.7618
  0.7653   0.7719   0.7777   0.7822   0.7868   0.7940   0.8030   0.8087
  0.8132   0.8237   0.8267   0.8337   0.8384   0.8459   0.8494   0.8536
  0.8567   0.8615   0.8670   0.8695   0.8731   0.8823   0.8872   0.8970
  0.9044   0.9082   0.9131   0.9192   0.9205   0.9306   0.9337   0.9357
  0.9413   0.9483   0.9571   0.9651   0.9715   0.9769   0.9840   0.9886
  0.9953   0.9987   1.0033   1.0101   1.0190   1.0249   1.0287   1.0325
  1.0358   1.0414   1.0476   1.0535   1.0608   1.0633   1.0682   1.0713
  1.0735   1.0776   1.0849   1.0906   1.0986   1.1009   1.1086   1.1160
  1.1249   1.1251   1.1326   1.1364   1.1396   1.1470   1.1484   1.1508
  1.1588   1.1667   1.1780   1.1832   1.1855   1.1888   1.1985   1.2051
  1.2061   1.2087   1.2116   1.2193   1.2241   1.2317   1.2365   1.2388
  1.2409   1.2446   1.2539   1.2589   1.2607   1.2689   1.2755   1.2847
  1.2893   1.3081   1.3143   1.3255   1.3277   1.3358   1.3384   1.3497
  1.3532   1.3583   1.3615   1.3722   1.3782   1.3888   1.3894   1.3917
  1.3956   1.4014   1.4119   1.4141   1.4223   1.4372   1.4458   1.4516
  1.4539   1.4612   1.4746   1.4786   1.4857   1.4978   1.5020   1.5048
  1.5079   1.5139   1.5206   1.5212   1.5308   1.5355   1.5369   1.5434
  1.5490   1.5519   1.5597   1.5636   1.5688   1.5697   1.5777   1.5842
  1.5850   1.5972   1.6094   1.6159   1.6283   1.6368   1.6489   1.6527
  1.6569   1.6626   1.6733   1.6786   1.6846   1.6897   1.6948   1.7120
  1.7135   1.7263   1.7304   1.7345   1.7394   1.7515   1.7616   1.7644
  1.7717   1.7785   1.7814   1.7925   1.8019   1.8064   1.8080   1.8179
  1.8265   1.8337   1.8429   1.8484   1.8609   1.8665   1.8696   1.8769
  1.8805   1.8825   1.8933   1.8969   1.9180   1.9291   1.9479   1.9564
  1.9648   1.9716   1.9737   1.9773   1.9889   1.9994   2.0039   2.0277
  2.0377   2.0419   2.0592   2.0794   2.0988   2.1085   2.1112   2.1315
  2.1427   2.1503   2.1577   2.1642   2.1957   2.2061   2.2132   2.2255
  2.2352   2.2537   2.2611   2.2767   2.2896   2.2956   2.3024   2.3153
  2.3232   2.3276   2.3408   2.3479   2.3531   2.3716   2.3796   2.3933
  2.4213   2.4337   2.4438   2.4557   2.4601   2.4654   2.4718   2.4799
  2.4913   2.5038   2.5120   2.5155   2.5193   2.5425   2.5639   2.5672
  2.5851   2.5912   2.5940   2.6000   2.6162   2.6208   2.6277   2.6349
  2.6418   2.6438   2.6572   2.6698   2.6755   2.6796   2.6912   2.6919
  2.6945   2.7028   2.7135   2.7190   2.7270   2.7353   2.7420   2.7533
  2.7549   2.7632   2.7660   2.7724   2.7817   2.7970   2.8053   2.8180
  2.8267   2.8415   2.8460   2.8536   2.8637   2.8739   2.8762   2.8830
  2.8871   2.8926   2.9012   2.9063   2.9135   2.9166   2.9243   2.9304
  2.9337   2.9400   2.9492   2.9516   2.9612   2.9651   2.9763   2.9821
  2.9891   2.9927   3.0069   3.0172   3.0207   3.0240   3.0358   3.0425
  3.0471   3.0509   3.0553   3.0614   3.0693   3.0793   3.0823   3.0956
  3.1022   3.1043   3.1087   3.1106   3.1208   3.1262   3.1288   3.1371
  3.1413   3.1462   3.1573   3.1628   3.1684   3.1727   3.1767   3.1854
  3.1911   3.2005   3.2082   3.2137   3.2176   3.2256   3.2336   3.2363
  3.2424   3.2436   3.2476   3.2542   3.2570   3.2669   3.2693   3.2704
  3.2783   3.2810   3.2819   3.2984   3.3022   3.3038   3.3107   3.3181
  3.3227   3.3259   3.3275   3.3320   3.3331   3.3419   3.3433   3.3471
  3.3515   3.3524   3.3599   3.3691   3.3708   3.3746   3.3773   3.3846
  3.3911   3.3946   3.3984   3.4043   3.4100   3.4131   3.4141   3.4207
  3.4256   3.4298   3.4336   3.4375   3.4473   3.4495   3.4541   3.4622
  3.4642   3.4704   3.4727   3.4755   3.4788   3.4884   3.4990   3.5029
  3.5057   3.5131   3.5186   3.5291   3.5314   3.5325   3.5364   3.5461
  3.5579   3.5586   3.5655   3.5752   3.5794   3.5814   3.5897   3.5951
  3.5991   3.6024   3.6053   3.6175   3.6196   3.6278   3.6312   3.6384
  3.6435   3.6500   3.6527   3.6583   3.6604   3.6628   3.6693   3.6814
  3.6880   3.6883   3.6924   3.7003   3.7084   3.7120   3.7167   3.7286
  3.7371   3.7442   3.7484   3.7519   3.7557   3.7596   3.7682   3.7715
  3.7719   3.7756   3.7810   3.7920   3.7949   3.8013   3.8056   3.8146
  3.8164   3.8244   3.8286   3.8340   3.8380   3.8435   3.8535   3.8550
  3.8608   3.8687   3.8783   3.8881   3.8953   3.9003   3.9121   3.9187
  3.9247   3.9318   3.9370   3.9466   3.9539   3.9572   3.9599   3.9667
  3.9731   3.9784   3.9897   3.9909   4.0000   4.0067   4.0130   4.0222
  4.0261   4.0354   4.0412   4.0548   4.0621   4.0661   4.0833   4.0991
  4.1087   4.1199   4.1245   4.1325   4.1391   4.1438   4.1471   4.1564
  4.1632   4.1712   4.1745   4.1867   4.1939   4.1973   4.2106   4.2279
  4.2371   4.2407   4.2442   4.2535   4.2583   4.2651   4.2695   4.2719
  4.2847   4.2895   4.2921   4.2999   4.3012   4.3124   4.3158   4.3177
  4.3194   4.3285   4.3307   4.3346   4.3394   4.3488   4.3528   4.3638
  4.3685   4.3703   4.3743   4.3792   4.3810   4.3888   4.3947   4.4002
  4.4080   4.4164   4.4210   4.4297   4.4368   4.4430   4.4595   4.4706
  4.4832   4.4982   4.4996   4.5030   4.5126   4.5187   4.5252   4.5369
  4.5446   4.5529   4.5575   4.5625   4.5732   4.5785   4.5858   4.5937
  4.5958   4.6080   4.6211   4.6228   4.6256   4.6352   4.6449   4.6522
  4.6571   4.6680   4.6717   4.6811   4.7005   4.7035   4.7166   4.7287
  4.7392   4.7408   4.7564   4.7685   4.7837   4.7962   4.8045   4.8152
  4.8277   4.8298   4.8344   4.8478   4.8562   4.8707   4.8745   4.8826
  4.8916   4.9034   4.9169   4.9298   4.9444   4.9574   4.9754   4.9815
  4.9964   5.0174   5.0253   5.0300   5.0377   5.0472   5.0534   5.0841
  5.0860   5.1091   5.1117   5.1208   5.1275   5.1340   5.1377   5.1456
  5.1593   5.1755   5.1785   5.1873   5.1926   5.2028   5.2229   5.2300
  5.2667   5.2755   5.2890   5.2953   5.2988   5.3181   5.3253   5.3325
  5.3347   5.3557   5.3702   5.3809   5.3834   5.3983   5.4071   5.4186
  5.4415   5.4609   5.4782   5.4948   5.4992   5.5096   5.5151   5.5170
  5.5199   5.5320   5.5450   5.5579   5.5617   5.5692   5.5709   5.5787
  5.5867   5.5901   5.5950   5.6123   5.6137   5.6252   5.6307   5.6478
  5.6521   5.6589   5.6634   5.6697   5.6722   5.6756   5.6892   5.6982
  5.7044   5.7090   5.7258   5.7343   5.7566   5.7639   5.7708   5.7760
  5.7893   5.7938   5.8227   5.8336   5.8481   5.8814   5.8916   5.9380
  5.9482   5.9618   5.9781   5.9966   6.0065   6.0417   6.0447   6.0496
  6.0515   6.0681   6.1163   6.1271   6.1320   6.1591   6.1676   6.1904
  6.1992   6.2233   6.2266   6.2281   6.2555   6.2693   6.2768   6.2860
  6.3156   6.3220   6.3269   6.3548   6.3717   6.3945   6.4038   6.4953
  6.5248   6.5397   6.5665   6.5861   6.6015   6.6078   6.6272   6.6678
  6.6725   6.6822   6.8539   6.8660   6.8978   6.9061   6.9093   6.9318
  6.9363   7.0277   7.1073   7.1269   7.1529   7.2036   7.2065   7.2458
  7.3503   7.3552   7.3630   7.4004   7.4807   7.5502   7.5752   7.5869
  7.5968   7.6574   7.6745   7.6919   7.7074   7.7726   8.8528  10.1638
 10.4736  11.4079  11.6484  11.8096  12.0053  12.4019  12.4590  12.5112
 13.1209  13.2042  13.4693  13.5572  13.8504  13.9589  14.0981  14.2821
 14.3237  14.4011  14.5440  14.6694  15.0491  15.6096  15.8455  16.3275
 --------------------------------------------------------------
 
          Ground-State Mulliken Net Atomic Charges

     Atom                 Charge (a.u.)
  ----------------------------------------
      1 C                    -0.084309
      2 C                    -0.033960
      3 C                    -0.123478
      4 C                    -0.114396
      5 H                     0.197370
      6 C                     0.016915
      7 C                     0.114473
      8 C                    -0.091010
      9 C                    -0.195405
     10 C                    -0.158917
     11 C                     0.212034
     12 H                     0.192118
     13 C                     0.340331
     14 C                     0.345966
     15 N                    -0.088561
     16 C                     0.352344
     17 C                     0.391770
     18 N                    -0.088042
     19 O                    -0.500704
     20 O                    -0.512242
     21 O                    -0.503439
     22 O                    -0.471472
     23 C                    -0.205921
     24 H                     0.138694
     25 H                     0.108081
     26 H                     0.108274
     27 C                    -0.197596
     28 H                     0.134874
     29 H                     0.109404
     30 H                     0.109752
     31 C                    -0.169116
     32 S                    -0.023825
     33 C                    -0.049143
     34 C                    -0.104781
     35 C                    -0.195176
     36 H                     0.192096
     37 H                     0.178124
     38 H                     0.208342
     39 H                     0.135442
     40 H                     0.135546
     41 H                     0.189543
  ----------------------------------------
  Sum of atomic charges =     0.000000

 -----------------------------------------------------------------
                    Cartesian Multipole Moments
 -----------------------------------------------------------------
    Charge (ESU x 10^10)
                 0.0000
    Dipole Moment (Debye)
         X       5.1700      Y       2.8677      Z       0.1034
       Tot       5.9130
    Quadrupole Moments (Debye-Ang)
        XX    -184.3138     XY      -4.5060     YY    -194.0795
        XZ      -3.8506     YZ      -2.3988     ZZ    -156.9395
    Octopole Moments (Debye-Ang^2)
       XXX    -132.5957    XXY     644.4326    XYY      19.8521
       YYY    1775.8315    XXZ      -9.7854    XYZ      30.4453
       YYZ      -2.9641    XZZ     -44.5527    YZZ     494.3591
       ZZZ     -64.4680
    Hexadecapole Moments (Debye-Ang^3)
      XXXX   -6519.6563   XXXY    -134.3337   XXYY   -4465.2518
      XYYY   -1323.9306   YYYY  -18125.5963   XXXZ    -584.7184
      XXYZ      37.6642   XYYZ    -332.4878   YYYZ    -243.9182
      XXZZ   -1121.8464   XYZZ    -137.0314   YYZZ   -2679.1661
      XZZZ    -529.6810   YZZZ     -90.0848   ZZZZ    -642.4078
 -----------------------------------------------------------------
 Total job time:  465.35s(wall), 11071.84s(cpu) 
 Sun Sep 24 16:06:13 2023

        *************************************************************
        *                                                           *
        *  Thank you very much for using Q-Chem.  Have a nice day.  *
        *                                                           *
        *************************************************************


0 sent ACK to 0 
now end server 0 ... 
cleanup process ... done
remove work dirs ./qchem3332534.0 -- ./qchem3332534.0
rm -rf ./qchem3332534.0
rm -rf ./qchem3332534
