You are running Q-Chem version: 5.4.0

#
# job setting
#
local host:  exp-8-21
current dir: /expanse/lustre/projects/csd626/rramji/aromodel/PNDIT/Hydrogenated_Rotation_Test
input file:  Dimethyl_Naphthalene_Dicarboximide_Phi_25_Theta_220_Thiophene_Hydrogenated.qcin
output file: 
nprocs     : 1
nthreads   : 64
#
# qchem installation setting
#
QC:          /cm/shared/apps/spack/cpu/opt/spack/linux-centos8-zen2/gcc-10.2.0/qchem-5.4-akfmr7b3t57bfs6qan3padb2wnb2i7cl
QCAUX:       /cm/shared/apps/spack/cpu/opt/spack/linux-centos8-zen2/gcc-10.2.0/qchem-5.4-akfmr7b3t57bfs6qan3padb2wnb2i7cl/qcaux
QCPROG:      /cm/shared/apps/spack/cpu/opt/spack/linux-centos8-zen2/gcc-10.2.0/qchem-5.4-akfmr7b3t57bfs6qan3padb2wnb2i7cl/exe/qcprog.exe
QCPROG_S:    /cm/shared/apps/spack/cpu/opt/spack/linux-centos8-zen2/gcc-10.2.0/qchem-5.4-akfmr7b3t57bfs6qan3padb2wnb2i7cl/exe/qcprog.exe_s
PARALLEL:    -DPARALLEL
QCMPI:       mpich
#
# qchem directory setting
#
qcrun:       qchem2004233
QCSCRATCH:   .
QCLOCALSCR:  
QCTMPDIR:    .
QCFILEPREF:  ./qchem2004233
QCSAVEDIR:   
workdirs:    ./qchem2004233
workdir0:    ./qchem2004233
partmpdirs =  
#
# parallel setting
#
QCRSH:           ssh
QCMPI:           mpich
QCMPIRUN:        /cm/shared/apps/spack/cpu/opt/spack/linux-centos8-zen2/gcc-10.2.0/qchem-5.4-akfmr7b3t57bfs6qan3padb2wnb2i7cl/bin/mpi/mpirun_qchem
QCMACHINEFILE:   ./qchem2004233/hostfile
exp-8-21

#
# env setting
#
exported envs:   QC QCAUX QCSCRATCH QCRUNNAME QCFILEPREF QCPROG QCPROG_S GUIFILE

Running Job 1 of 1 Dimethyl_Naphthalene_Dicarboximide_Phi_25_Theta_220_Thiophene_Hydrogenated.qcin
qchem Dimethyl_Naphthalene_Dicarboximide_Phi_25_Theta_220_Thiophene_Hydrogenated.qcin_2004233.0 ./qchem2004233/ 1
/cm/shared/apps/spack/cpu/opt/spack/linux-centos8-zen2/gcc-10.2.0/qchem-5.4-akfmr7b3t57bfs6qan3padb2wnb2i7cl/bin/mpi/mpirun_qchem -machinefile ./qchem2004233/hostfile -np 1 /cm/shared/apps/spack/cpu/opt/spack/linux-centos8-zen2/gcc-10.2.0/qchem-5.4-akfmr7b3t57bfs6qan3padb2wnb2i7cl/exe/qcprog.exe Dimethyl_Naphthalene_Dicarboximide_Phi_25_Theta_220_Thiophene_Hydrogenated.qcin_2004233.0 ./qchem2004233/

Process 0 of 1 is on exp-8-21 - thread support 0
initial socket setup ...start
initial socket setup ...done 
now start server 0 ... 
                  Welcome to Q-Chem
     A Quantum Leap Into The Future Of Chemistry


 Q-Chem 5.4, Q-Chem, Inc., Pleasanton, CA (2021)

 License issued to: University of California, San Diego (site)

 E. Epifanovsky,  A. T. B. Gilbert,  Xintian Feng,  Joonho Lee,  Yuezhi Mao,  
 N. Mardirossian,  P. Pokhilko,  A. White,  M. Wormit,  M. P. Coons,  
 A. L. Dempwolff,  Zhengting Gan,  D. Hait,  P. R. Horn,  L. D. Jacobson,  
 I. Kaliman,  J. Kussmann,  A. W. Lange,  Ka Un Lao,  D. S. Levine,  Jie Liu,  
 S. C. McKenzie,  A. F. Morrison,  K. Nanda,  F. Plasser,  D. R. Rehn,  
 M. L. Vidal,  Zhi-Qiang You,  Ying Zhu,  B. Alam,  B. Albrecht,  
 A. Aldossary,  E. Alguire,  J. H. Andersen,  D. Barton,  K. Begam,  A. Behn,  
 Y. A. Bernard,  E. J. Berquist,  H. Burton,  A. Carreras,  K. Carter-Fenk,  
 R. Chakraborty,  A. D. Chien,  K. D. Closser,  V. Cofer-Shabica,  
 S. Dasgupta,  Jia Deng,  M. de Wergifosse,  M. Diedenhofen,  Hainam Do,  
 S. Ehlert,  Po-Tung Fang,  S. Fatehi,  Qingguo Feng,  J. Gayvert,  
 Qinghui Ge,  G. Gidofalvi,  M. Goldey,  J. Gomes,  C. Gonzalez-Espinoza,  
 S. Gulania,  A. Gunina,  M. W. D. Hanson-Heine,  P. H. P. Harbach,  
 A. W. Hauser,  M. F. Herbst,  M. Hernandez Vera,  M. Hodecker,  
 Z. C. Holden,  S. Houck,  Xunkun Huang,  Kerwin Hui,  B. C. Huynh,  
 M. Ivanov,  Hyunjun Ji,  Hanjie Jiang,  B. Kaduk,  S. Kaehler,  
 K. Khistyaev,  Jaehoon Kim,  P. Klunzinger,  Z. Koczor-Benda,  
 Joong Hoon Koh,  D. Kosenkov,  L. Koulias,  T. Kowalczyk,  C. M. Krauter,  
 K. Kue,  A. Kunitsa,  T. Kus,  A. Landau,  K. V. Lawler,  D. Lefrancois,  
 S. Lehtola,  Rain Li,  Yi-Pei Li,  Jiashu Liang,  M. Liebenthal,  
 Hung-Hsuan Lin,  You-Sheng Lin,  Fenglai Liu,  Kuan-Yu Liu,  
 M. Loipersberger,  A. Luenser,  A. Manjanath,  P. Manohar,  E. Mansoor,  
 S. F. Manzer,  Shan-Ping Mao,  A. V. Marenich,  T. Markovich,  S. Mason,  
 S. A. Maurer,  P. F. McLaughlin,  M. F. S. J. Menger,  J.-M. Mewes,  
 S. A. Mewes,  P. Morgante,  J. W. Mullinax,  T. S. Nguyen-Beck,  
 K. J. Oosterbaan,  G. Paran,  Alexander C. Paul,  Suranjan K. Paul,  
 F. Pavosevic,  Zheng Pei,  S. Prager,  E. I. Proynov,  E. Ramos,  B. Rana,  
 A. E. Rask,  A. Rettig,  R. M. Richard,  F. Rob,  E. Rossomme,  T. Scheele,  
 M. Scheurer,  M. Schneider,  N. Sergueev,  S. M. Sharada,  W. Skomorowski,  
 D. W. Small,  C. J. Stein,  Yu-Chuan Su,  E. J. Sundstrom,  Zhen Tao,  
 J. Thirman,  T. Tsuchimochi,  N. M. Tubman,  S. P. Veccham,  O. Vydrov,  
 J. Wenzel,  J. Witte,  A. Yamada,  Kun Yao,  S. Yeganeh,  S. R. Yost,  
 A. Zech,  Igor Ying Zhang,  Xing Zhang,  Yu Zhang,  D. Zuev,  
 A. Aspuru-Guzik,  A. T. Bell,  N. A. Besley,  K. B. Bravaya,  B. R. Brooks,  
 D. Casanova,  Jeng-Da Chai,  S. Coriani,  C. J. Cramer,  
 A. E. DePrince, III,  R. A. DiStasio Jr.,  A. Dreuw,  B. D. Dunietz,  
 T. R. Furlani,  W. A. Goddard III,  S. Grimme,  S. Hammes-Schiffer,  
 T. Head-Gordon,  W. J. Hehre,  Chao-Ping Hsu,  T.-C. Jagau,  Yousung Jung,  
 A. Klamt,  Jing Kong,  D. S. Lambrecht,  WanZhen Liang,  N. J. Mayhall,  
 C. W. McCurdy,  J. B. Neaton,  C. Ochsenfeld,  J. A. Parkhill,  R. Peverati,  
 V. A. Rassolov,  Yihan Shao,  L. V. Slipchenko,  T. Stauch,  R. P. Steele,  
 J. E. Subotnik,  A. J. W. Thom,  A. Tkatchenko,  D. G. Truhlar,  
 T. Van Voorhis,  T. A. Wesolowski,  K. B. Whaley,  H. L. Woodcock III,  
 P. M. Zimmerman,  S. Faraji,  P. M. W. Gill,  M. Head-Gordon,  
 J. M. Herbert,  A. I. Krylov

 Contributors to earlier versions of Q-Chem not listed above: 
 R. D. Adamson,  B. Austin,  R. Baer,  J. Baker,  G. J. O. Beran,  
 K. Brandhorst,  S. T. Brown,  E. F. C. Byrd,  A. K. Chakraborty,  
 G. K. L. Chan,  Chun-Min Chang,  Yunqing Chen,  C.-L. Cheng,  
 Siu Hung Chien,  D. M. Chipman,  D. L. Crittenden,  H. Dachsel,  
 R. J. Doerksen,  A. D. Dutoi,  R. G. Edgar,  J. Fosso-Tande,  
 L. Fusti-Molnar,  D. Ghosh,  A. Ghysels,  A. Golubeva-Zadorozhnaya,  
 J. Gonthier,  M. S. Gordon,  S. R. Gwaltney,  G. Hawkins,  J. E. Herr,  
 A. Heyden,  S. Hirata,  E. G. Hohenstein,  G. Kedziora,  F. J. Keil,  
 C. Kelley,  Jihan Kim,  R. A. King,  R. Z. Khaliullin,  P. P. Korambath,  
 W. Kurlancheek,  A. Laurent,  A. M. Lee,  M. S. Lee,  S. V. Levchenko,  
 Ching Yeh Lin,  D. Liotard,  E. Livshits,  R. C. Lochan,  I. Lotan,  
 L. A. Martinez-Martinez,  P. E. Maslen,  N. Nair,  D. P. O'Neill,  
 D. Neuhauser,  E. Neuscamman,  C. M. Oana,  R. Olivares-Amaya,  R. Olson,  
 T. M. Perrine,  B. Peters,  P. A. Pieniazek,  A. Prociuk,  Y. M. Rhee,  
 J. Ritchie,  M. A. Rohrdanz,  E. Rosta,  N. J. Russ,  H. F. Schaefer III,  
 M. W. Schmidt,  N. E. Schultz,  S. Sharma,  N. Shenvi,  C. D. Sherrill,  
 A. C. Simmonett,  A. Sodt,  T. Stein,  D. Stuck,  K. S. Thanthiriwatte,  
 V. Vanovschi,  L. Vogt,  Tao Wang,  A. Warshel,  M. A. Watson,  
 C. F. Williams,  Q. Wu,  X. Xu,  Jun Yang,  W. Zhang,  Yan Zhao

 Please cite Q-Chem as follows:
 Y. Shao et al., Mol. Phys. 113, 184-215 (2015)
 DOI: 10.1080/00268976.2014.952696

 Q-Chem 5.4.0 for Intel X86 EM64T Linux

 Parts of Q-Chem use Armadillo 9.800.1 (Horizon Scraper).
 http://arma.sourceforge.net/

 Q-Chem begins on Tue Sep 26 23:48:15 2023  

 Host: 
0

     Scratch files written to ./qchem2004233//
 May1621 |scratch|qcdevops|jenkins|workspace|build_RNUM    
 Parallel job on  1  processors
 Processing $rem in /cm/shared/apps/spack/cpu/opt/spack/linux-centos8-zen2/gcc-10.2.0/qchem-5.4-akfmr7b3t57bfs6qan3padb2wnb2i7cl/config/preferences:
 Processing $rem in /home/rramji/.qchemrc:
 Symmetry turned off for PCM/SM12/SMD calculation
 Core orbitals will be frozen

 Checking the input file for inconsistencies... 	...done.

 Q-Chem warning in module forms1/BasisType.C, line 2236:

 You are not using the predefined 5D/6D in this basis set.


--------------------------------------------------------------
User input:
--------------------------------------------------------------
$molecule
0 1
C	-0.164018	-6.741404	0.197767
C	-1.003240	-6.155638	1.198109
C	0.533192	-5.791452	-0.632428
C	-1.182482	-4.803786	1.411364
H	-1.567483	-6.821518	1.870845
C	0.345145	-4.378638	-0.409419
C	-0.510347	-3.838032	0.609565
C	1.016449	-3.413062	-1.210332
C	-0.696879	-2.426473	0.830799
C	0.839039	-2.059348	-0.999856
C	-0.000000	-1.478216	-0.000000
H	1.403737	-1.394783	-1.673483
C	1.461835	-6.187987	-1.736282
C	1.936119	-3.798164	-2.306183
N	2.093916	-5.170003	-2.491597
C	-2.104529	-4.424987	2.510310
C	-1.625377	-2.036627	1.936153
N	-2.257873	-3.049156	2.691451
O	1.715561	-7.353131	-2.034222
O	2.528858	-2.986854	-3.014044
O	-2.690385	-5.248946	3.209622
O	-1.891876	-0.878829	2.251529
C	3.002711	-5.563799	-3.573032
H	3.032655	-6.664085	-3.606932
H	4.010326	-5.147101	-3.382888
H	2.640711	-5.148785	-4.533125
C	-3.152408	-2.587487	3.756832
H	-3.564653	-3.483329	4.249778
H	-3.960905	-1.964972	3.328759
H	-2.591422	-1.962932	4.477709
C	0.000000	0.000000	0.000000
S	0.335026	0.718942	1.580530
C	1.027130	2.203226	0.904911
C	0.421617	0.904557	-0.985400
C	0.979485	2.101144	-0.493528
H	0.322049	0.690978	-2.059934
H	1.351718	2.899571	-1.152593
H	1.399246	3.001430	1.556025
H	-0.783314	-7.361589	-0.461623
H	0.592677	-7.361192	0.693983
H	-0.826987	-1.478831	-0.694617
$end

$rem
JOBTYPE		SP
EXCHANGE	HF
CORRELATION	pRIMP2
BASIS		cc-pvtz
METHOD		rimp2
AUX_BASIS	rimp2-cc-pvtz
SOLVENT_METHOD	PCM
PURECART	11111
SYMMETRY	false
MEM_TOTAL	110000
SCF_CONVERGENCE = 6
THRESH=10
GUI = 2
$end



$solvent
dielectric 4.90
$end
--------------------------------------------------------------
 ----------------------------------------------------------------
             Standard Nuclear Orientation (Angstroms)
    I     Atom           X                Y                Z
 ----------------------------------------------------------------
    1      C      -0.1640180000    -6.7414040000     0.1977670000
    2      C      -1.0032400000    -6.1556380000     1.1981090000
    3      C       0.5331920000    -5.7914520000    -0.6324280000
    4      C      -1.1824820000    -4.8037860000     1.4113640000
    5      H      -1.5674830000    -6.8215180000     1.8708450000
    6      C       0.3451450000    -4.3786380000    -0.4094190000
    7      C      -0.5103470000    -3.8380320000     0.6095650000
    8      C       1.0164490000    -3.4130620000    -1.2103320000
    9      C      -0.6968790000    -2.4264730000     0.8307990000
   10      C       0.8390390000    -2.0593480000    -0.9998560000
   11      C       0.0000000000    -1.4782160000     0.0000000000
   12      H       1.4037370000    -1.3947830000    -1.6734830000
   13      C       1.4618350000    -6.1879870000    -1.7362820000
   14      C       1.9361190000    -3.7981640000    -2.3061830000
   15      N       2.0939160000    -5.1700030000    -2.4915970000
   16      C      -2.1045290000    -4.4249870000     2.5103100000
   17      C      -1.6253770000    -2.0366270000     1.9361530000
   18      N      -2.2578730000    -3.0491560000     2.6914510000
   19      O       1.7155610000    -7.3531310000    -2.0342220000
   20      O       2.5288580000    -2.9868540000    -3.0140440000
   21      O      -2.6903850000    -5.2489460000     3.2096220000
   22      O      -1.8918760000    -0.8788290000     2.2515290000
   23      C       3.0027110000    -5.5637990000    -3.5730320000
   24      H       3.0326550000    -6.6640850000    -3.6069320000
   25      H       4.0103260000    -5.1471010000    -3.3828880000
   26      H       2.6407110000    -5.1487850000    -4.5331250000
   27      C      -3.1524080000    -2.5874870000     3.7568320000
   28      H      -3.5646530000    -3.4833290000     4.2497780000
   29      H      -3.9609050000    -1.9649720000     3.3287590000
   30      H      -2.5914220000    -1.9629320000     4.4777090000
   31      C       0.0000000000     0.0000000000     0.0000000000
   32      S       0.3350260000     0.7189420000     1.5805300000
   33      C       1.0271300000     2.2032260000     0.9049110000
   34      C       0.4216170000     0.9045570000    -0.9854000000
   35      C       0.9794850000     2.1011440000    -0.4935280000
   36      H       0.3220490000     0.6909780000    -2.0599340000
   37      H       1.3517180000     2.8995710000    -1.1525930000
   38      H       1.3992460000     3.0014300000     1.5560250000
   39      H      -0.7833140000    -7.3615890000    -0.4616230000
   40      H       0.5926770000    -7.3611920000     0.6939830000
   41      H      -0.8269870000    -1.4788310000    -0.6946170000
 ----------------------------------------------------------------
 Nuclear Repulsion Energy =        2560.92823798 hartrees
 There are       98 alpha and       98 beta electrons
 Requested basis set is cc-pVTZ
 There are 356 shells and 1010 basis functions

 Total QAlloc Memory Limit 110000 MB
 Mega-Array Size       188 MB
 MEM_STATIC part       192 MB
 Discretize the solute cavity surface with Lebedev spheres
	Using 110 Lebedev grid points for each H atom
	Using 194 Lebedev grid points for other atoms
	Atomic van der Waals radii will be scaled by 1.20
 Remove points where switching function is < 1.0e-08
 Keep 2583 surface tesserae and discard 4195 interior tesserae
 Molecular Surface Area = 365.241 Angst**2
 Requested basis set is rimp2-cc-pVTZ
 There are 770 shells and 2648 basis functions
 A cutoff of  1.0D-10 yielded  34144 shell pairs
 There are    258034 function pairs (    333933 Cartesian)
 Smallest overlap matrix eigenvalue = 8.93E-06

 Q-Chem warning in module stvman/mkSTV.C, line 323:

 Overlap eigenvalue is smaller than square root of threshold
 Use THRESH >= 12 to get rid of this warning


 Scale SEOQF with 1.000000e-01/1.000000e-02/1.000000e-01

 Standard Electronic Orientation quadrupole field applied
 Nucleus-field energy     =    -0.0000000435 hartrees
 Guess from superposition of atomic densities
 Warning:  Energy on first SCF cycle will be non-variational
 SAD guess density has 196.000000 electrons

 -----------------------------------------------------------------------
  General SCF calculation program by
  Eric Jon Sundstrom, Paul Horn, Yuezhi Mao, Dmitri Zuev, Alec White,
  David Stuck, Shaama M.S., Shane Yost, Joonho Lee, David Small,
  Daniel Levine, Susi Lehtola, Hugh Burton, Evgeny Epifanovsky,
  Bang C. Huynh
 -----------------------------------------------------------------------
 Hartree-Fock
 using 64 threads for integral computing
 -------------------------------------------------------
 OpenMP Integral computing Module                
 Release: version 1.0, May 2013, Q-Chem Inc. Pittsburgh 
 -------------------------------------------------------
 A restricted SCF calculation will be
 performed using DIIS
 SCF converges when DIIS error is below 1.0e-06
 ---------------------------------------
  Cycle       Energy         DIIS error
 ---------------------------------------
    1   -1583.1268904460      1.86e-02  
    2   -1571.1549356650      2.03e-03  
    3   -1571.4941527017      1.55e-03  
    4   -1571.7152875559      2.53e-04  
    5   -1571.7290397608      7.77e-05  
    6   -1571.7304458424      2.99e-05  
    7   -1571.7308627201      1.55e-05  
    8   -1571.7309771049      6.30e-06  
    9   -1571.7309970057      2.93e-06  
   10   -1571.7310010576      1.21e-06  
   11   -1571.7310022435      5.75e-07  Convergence criterion met
 ---------------------------------------
 SCF time:   CPU 6737.74s  wall 253.00s 

************** Final PCM Free Energy Summary **************
 G_electrostatic  =      -0.03056518 hartree =     -19.17994160 kcal/mol
 G_cavitation     =       0.00000000 hartree =       0.00000000 kcal/mol
 G_dispersion     =       0.00000000 hartree =       0.00000000 kcal/mol
 G_repulsion      =       0.00000000 hartree =       0.00000000 kcal/mol
 --------------------------------------------------
 Non-electrostatic Free Energy =       0.00000000 hartree =       0.00000000 kcal/mol
 Total                         =      -0.03056518 hartree =     -19.17994160 kcal/mol
 --------------------------------------------------
 SCF Energy (H0 + V/2)                       =   -1571.73100224 
 Solute Internal Energy (H0)                 =   -1571.70043706 
 Total Free Energy (H0 + V/2 + non-elec)     =   -1571.73100224 hartree
                                             = -986276.08977214 kcal/mol
***********************************************************

 SCF   energy in the final basis set =    -1571.7310022435
 Total energy in the final basis set =    -1571.7310022435


 --------------------------------------------------------------
  Generalized many-body perturbation theory program
  by Joonho Lee, Fazle Rob, Xintian Feng, Evgeny Epifanovsky

 No regularization used 
 (reg. param. = 0.0000e+00)
  (P|Q)^-1/2 Time:  CPU 98.24 s  wall 2.17 s

 In RI-MP2 calculation: 
 # of frozen core orbitals: 31

 Components of the RIMP2 correlation energy:
        aaaa    correlation energy =        -0.6163701100 a.u.
        abab    correlation energy =        -3.4283478001 a.u.
        bbbb    correlation energy =        -0.6163701100 a.u.
        non-Brillouin singles      =        -0.0000000000 a.u.
        total same-spin energy     =        -1.2327402200 a.u.
        total opposite-spin energy =        -3.4283478001 a.u.

 Total  RIMP2   correlation energy =        -4.6610880201 a.u.
        RIMP2         total energy =     -1576.3920902636 a.u.

 RI-MP2 Energy Time:  CPU 1954.70 s  wall 32.12 s
 
 --------------------------------------------------------------
 
                    Orbital Energies (a.u.)
 --------------------------------------------------------------
 
 Alpha MOs
 -- Occupied --
-91.9823 -20.5532 -20.5448 -20.5414 -20.5406 -15.6276 -15.6214 -11.3948
-11.3856 -11.3833 -11.3793 -11.3098 -11.3090 -11.3063 -11.3048 -11.2972
-11.2942 -11.2900 -11.2782 -11.2686 -11.2686 -11.2644 -11.2631 -11.2596
-11.2563 -11.2528 -11.2480  -8.9821  -6.6628  -6.6621  -6.6616  -1.4214
 -1.4122  -1.3984  -1.3914  -1.2630  -1.2555  -1.2305  -1.1868  -1.1511
 -1.1145  -1.0863  -1.0473  -0.9952  -0.9882  -0.9822  -0.9553  -0.9500
 -0.8968  -0.8886  -0.8773  -0.8603  -0.7931  -0.7776  -0.7721  -0.7625
 -0.7366  -0.7171  -0.7032  -0.6919  -0.6818  -0.6740  -0.6672  -0.6575
 -0.6476  -0.6455  -0.6369  -0.6328  -0.6310  -0.6287  -0.6212  -0.6054
 -0.5858  -0.5748  -0.5665  -0.5623  -0.5586  -0.5518  -0.5510  -0.5479
 -0.5475  -0.5441  -0.5228  -0.5117  -0.5093  -0.4823  -0.4741  -0.4596
 -0.4563  -0.4483  -0.4422  -0.4345  -0.4131  -0.4076  -0.3542  -0.3480
 -0.3301  -0.2814
 -- Virtual --
  0.0126   0.0428   0.0873   0.0948   0.1370   0.1500   0.1565   0.1603
  0.1633   0.1725   0.1772   0.1819   0.1827   0.1898   0.2017   0.2045
  0.2166   0.2211   0.2266   0.2293   0.2304   0.2343   0.2436   0.2498
  0.2666   0.2699   0.3030   0.3077   0.3148   0.3203   0.3228   0.3292
  0.3328   0.3421   0.3452   0.3494   0.3533   0.3630   0.3660   0.3700
  0.3746   0.3755   0.3860   0.3868   0.3906   0.3947   0.3970   0.4103
  0.4164   0.4205   0.4277   0.4328   0.4349   0.4441   0.4458   0.4514
  0.4521   0.4620   0.4630   0.4729   0.4739   0.4834   0.4887   0.4936
  0.4960   0.5021   0.5057   0.5096   0.5151   0.5191   0.5250   0.5285
  0.5324   0.5352   0.5469   0.5517   0.5552   0.5620   0.5643   0.5664
  0.5700   0.5756   0.5778   0.5838   0.5883   0.5944   0.5970   0.5997
  0.6013   0.6061   0.6079   0.6088   0.6126   0.6179   0.6206   0.6237
  0.6249   0.6292   0.6335   0.6363   0.6369   0.6384   0.6509   0.6537
  0.6587   0.6663   0.6758   0.6826   0.6887   0.6921   0.6960   0.6999
  0.7089   0.7189   0.7244   0.7332   0.7357   0.7418   0.7548   0.7573
  0.7632   0.7662   0.7714   0.7755   0.7800   0.7927   0.8021   0.8069
  0.8097   0.8138   0.8179   0.8212   0.8309   0.8413   0.8421   0.8490
  0.8493   0.8577   0.8627   0.8651   0.8718   0.8737   0.8790   0.8892
  0.8906   0.8955   0.9019   0.9073   0.9118   0.9233   0.9281   0.9286
  0.9330   0.9362   0.9437   0.9536   0.9626   0.9657   0.9752   0.9793
  0.9838   0.9893   0.9918   0.9981   1.0009   1.0079   1.0117   1.0169
  1.0286   1.0309   1.0366   1.0396   1.0450   1.0558   1.0599   1.0615
  1.0656   1.0725   1.0802   1.0833   1.0870   1.0933   1.0996   1.1015
  1.1062   1.1212   1.1238   1.1261   1.1271   1.1317   1.1402   1.1467
  1.1499   1.1565   1.1622   1.1674   1.1721   1.1738   1.1776   1.1873
  1.1908   1.1938   1.2035   1.2056   1.2127   1.2150   1.2169   1.2271
  1.2327   1.2368   1.2377   1.2421   1.2515   1.2635   1.2677   1.2786
  1.2845   1.2861   1.3020   1.3042   1.3103   1.3198   1.3315   1.3390
  1.3418   1.3474   1.3589   1.3626   1.3713   1.3772   1.3807   1.3870
  1.3902   1.3935   1.4028   1.4085   1.4156   1.4183   1.4349   1.4431
  1.4446   1.4603   1.4627   1.4678   1.4736   1.4763   1.4901   1.4935
  1.5008   1.5026   1.5098   1.5161   1.5241   1.5259   1.5328   1.5404
  1.5410   1.5471   1.5536   1.5579   1.5637   1.5694   1.5707   1.5789
  1.5840   1.5966   1.6026   1.6090   1.6138   1.6286   1.6341   1.6423
  1.6469   1.6518   1.6660   1.6751   1.6831   1.6869   1.6907   1.6952
  1.7025   1.7109   1.7220   1.7258   1.7311   1.7383   1.7509   1.7550
  1.7619   1.7673   1.7806   1.7829   1.7896   1.8033   1.8052   1.8168
  1.8231   1.8272   1.8405   1.8456   1.8499   1.8640   1.8695   1.8705
  1.8760   1.8851   1.8904   1.8981   1.8997   1.9255   1.9395   1.9458
  1.9617   1.9660   1.9770   1.9857   1.9933   1.9976   2.0193   2.0293
  2.0350   2.0415   2.0497   2.0655   2.0903   2.0964   2.1055   2.1332
  2.1393   2.1490   2.1579   2.1622   2.1839   2.1870   2.2070   2.2247
  2.2332   2.2378   2.2614   2.2691   2.2815   2.2871   2.2975   2.3069
  2.3137   2.3210   2.3365   2.3386   2.3513   2.3628   2.3720   2.3882
  2.3984   2.4203   2.4314   2.4433   2.4513   2.4600   2.4661   2.4682
  2.4777   2.4955   2.4976   2.5048   2.5103   2.5215   2.5381   2.5574
  2.5618   2.5668   2.5722   2.5866   2.5967   2.6026   2.6085   2.6162
  2.6238   2.6249   2.6406   2.6444   2.6571   2.6583   2.6642   2.6684
  2.6849   2.6891   2.6907   2.7053   2.7192   2.7213   2.7290   2.7364
  2.7446   2.7494   2.7579   2.7621   2.7701   2.7743   2.7782   2.7854
  2.8059   2.8228   2.8316   2.8439   2.8501   2.8572   2.8680   2.8706
  2.8768   2.8811   2.8860   2.8939   2.8949   2.9010   2.9050   2.9139
  2.9192   2.9270   2.9358   2.9437   2.9469   2.9625   2.9680   2.9694
  2.9774   2.9862   2.9933   2.9979   3.0048   3.0180   3.0222   3.0269
  3.0322   3.0401   3.0468   3.0516   3.0644   3.0651   3.0760   3.0842
  3.0883   3.1011   3.1020   3.1060   3.1086   3.1120   3.1169   3.1202
  3.1207   3.1362   3.1395   3.1524   3.1550   3.1600   3.1615   3.1719
  3.1781   3.1811   3.1950   3.1979   3.2063   3.2161   3.2215   3.2238
  3.2310   3.2357   3.2366   3.2450   3.2478   3.2572   3.2601   3.2640
  3.2663   3.2705   3.2752   3.2815   3.2851   3.2924   3.3028   3.3070
  3.3105   3.3119   3.3186   3.3228   3.3253   3.3313   3.3326   3.3433
  3.3449   3.3516   3.3521   3.3544   3.3577   3.3691   3.3716   3.3759
  3.3792   3.3875   3.3902   3.3962   3.3991   3.4031   3.4039   3.4101
  3.4163   3.4190   3.4260   3.4292   3.4359   3.4398   3.4420   3.4442
  3.4513   3.4570   3.4650   3.4706   3.4746   3.4792   3.4839   3.4852
  3.4959   3.4981   3.5077   3.5133   3.5148   3.5186   3.5225   3.5274
  3.5313   3.5343   3.5422   3.5525   3.5595   3.5722   3.5769   3.5779
  3.5858   3.5899   3.5973   3.6103   3.6137   3.6158   3.6191   3.6262
  3.6294   3.6343   3.6395   3.6408   3.6489   3.6535   3.6588   3.6626
  3.6665   3.6706   3.6845   3.6864   3.6914   3.6947   3.7028   3.7085
  3.7152   3.7228   3.7326   3.7379   3.7406   3.7482   3.7504   3.7572
  3.7641   3.7685   3.7731   3.7734   3.7846   3.7905   3.7983   3.8004
  3.8021   3.8143   3.8188   3.8214   3.8298   3.8345   3.8381   3.8438
  3.8541   3.8678   3.8720   3.8762   3.8773   3.8812   3.8877   3.9036
  3.9134   3.9162   3.9240   3.9337   3.9433   3.9482   3.9505   3.9554
  3.9593   3.9708   3.9730   3.9774   3.9841   3.9929   4.0029   4.0083
  4.0161   4.0265   4.0321   4.0440   4.0485   4.0560   4.0661   4.0737
  4.0889   4.1023   4.1044   4.1182   4.1250   4.1272   4.1388   4.1447
  4.1529   4.1536   4.1587   4.1689   4.1769   4.1789   4.1882   4.2078
  4.2093   4.2230   4.2310   4.2348   4.2451   4.2534   4.2572   4.2636
  4.2653   4.2690   4.2825   4.2849   4.2959   4.2990   4.3026   4.3042
  4.3174   4.3199   4.3273   4.3329   4.3401   4.3430   4.3452   4.3535
  4.3597   4.3686   4.3705   4.3738   4.3770   4.3836   4.3902   4.3961
  4.3988   4.4086   4.4107   4.4214   4.4236   4.4389   4.4463   4.4634
  4.4667   4.4774   4.4899   4.4948   4.5103   4.5153   4.5215   4.5247
  4.5292   4.5393   4.5436   4.5567   4.5629   4.5749   4.5835   4.5888
  4.5909   4.5980   4.6045   4.6181   4.6206   4.6247   4.6321   4.6388
  4.6463   4.6607   4.6661   4.6722   4.6919   4.6979   4.7018   4.7108
  4.7245   4.7323   4.7409   4.7693   4.7785   4.7803   4.7862   4.7937
  4.8107   4.8199   4.8338   4.8390   4.8526   4.8566   4.8699   4.8814
  4.8891   4.8991   4.9067   4.9197   4.9330   4.9499   4.9551   4.9744
  4.9839   5.0011   5.0133   5.0236   5.0315   5.0398   5.0480   5.0567
  5.0737   5.0968   5.1084   5.1158   5.1217   5.1248   5.1341   5.1380
  5.1479   5.1524   5.1667   5.1812   5.1885   5.2029   5.2187   5.2210
  5.2516   5.2624   5.2724   5.2860   5.2971   5.3070   5.3113   5.3239
  5.3297   5.3329   5.3440   5.3723   5.3787   5.3855   5.4040   5.4169
  5.4342   5.4440   5.4540   5.4858   5.4999   5.5097   5.5144   5.5159
  5.5169   5.5228   5.5442   5.5538   5.5576   5.5625   5.5668   5.5767
  5.5809   5.5815   5.5863   5.6052   5.6084   5.6161   5.6250   5.6364
  5.6422   5.6505   5.6569   5.6626   5.6663   5.6677   5.6936   5.6940
  5.6989   5.7092   5.7345   5.7408   5.7486   5.7567   5.7666   5.7719
  5.7843   5.7909   5.8070   5.8300   5.8395   5.8544   5.8807   5.9148
  5.9459   5.9496   5.9700   5.9922   6.0227   6.0342   6.0386   6.0409
  6.0453   6.0540   6.0933   6.1114   6.1230   6.1390   6.1557   6.1859
  6.1946   6.2195   6.2204   6.2254   6.2418   6.2524   6.2752   6.2831
  6.3026   6.3117   6.3238   6.3469   6.3653   6.3796   6.4263   6.4832
  6.5181   6.5307   6.5737   6.5828   6.5964   6.6155   6.6296   6.6585
  6.6743   6.7040   6.8463   6.8506   6.8894   6.9027   6.9060   6.9262
  6.9275   6.9571   7.1028   7.1089   7.1497   7.1937   7.1991   7.2358
  7.3474   7.3519   7.3578   7.3618   7.4757   7.5422   7.5713   7.5832
  7.5905   7.5993   7.6546   7.6866   7.6945   7.7153   8.8688  10.0767
 10.3120  11.2856  11.5210  11.7628  12.0086  12.1792  12.4270  12.4630
 12.9279  13.2345  13.3237  13.5667  13.7833  13.9248  14.0629  14.3028
 14.3561  14.3995  14.5072  14.6799  14.9887  15.6237  15.7990  16.3150
 --------------------------------------------------------------
 
          Ground-State Mulliken Net Atomic Charges

     Atom                 Charge (a.u.)
  ----------------------------------------
      1 C                    -0.084640
      2 C                    -0.030114
      3 C                    -0.110404
      4 C                    -0.125293
      5 H                     0.199257
      6 C                     0.025410
      7 C                     0.122076
      8 C                    -0.094489
      9 C                    -0.169529
     10 C                    -0.154110
     11 C                     0.205557
     12 H                     0.195422
     13 C                     0.341569
     14 C                     0.348705
     15 N                    -0.089778
     16 C                     0.357053
     17 C                     0.355193
     18 N                    -0.090801
     19 O                    -0.495229
     20 O                    -0.508766
     21 O                    -0.501104
     22 O                    -0.472930
     23 C                    -0.204963
     24 H                     0.139583
     25 H                     0.109312
     26 H                     0.108791
     27 C                    -0.197435
     28 H                     0.133519
     29 H                     0.111753
     30 H                     0.112179
     31 C                    -0.005763
     32 S                     0.053155
     33 C                    -0.224587
     34 C                    -0.238904
     35 C                    -0.193453
     36 H                     0.188046
     37 H                     0.190256
     38 H                     0.208385
     39 H                     0.137495
     40 H                     0.138057
     41 H                     0.211516
  ----------------------------------------
  Sum of atomic charges =     0.000000

 -----------------------------------------------------------------
                    Cartesian Multipole Moments
 -----------------------------------------------------------------
    Charge (ESU x 10^10)
                 0.0000
    Dipole Moment (Debye)
         X      -0.7188      Y       1.8379      Z      -0.5575
       Tot       2.0507
    Quadrupole Moments (Debye-Ang)
        XX    -174.3184     XY      11.0469     YY    -180.1631
        XZ      16.3599     YZ      -5.6702     ZZ    -175.5190
    Octopole Moments (Debye-Ang^2)
       XXX     -31.1756    XXY     524.5040    XYY     -38.3801
       YYY    1689.6153    XXZ     -28.0519    XYZ     -65.2498
       YYZ      24.7817    XZZ      -6.3828    YZZ     554.9043
       ZZZ     -87.9711
    Hexadecapole Moments (Debye-Ang^3)
      XXXX   -2742.9342   XXXY      55.1681   XXYY   -3388.7200
      XYYY     710.8679   YYYY  -18022.4142   XXXZ    1479.5365
      XXYZ      -3.0841   XYYZ     914.8602   YYYZ    -937.4810
      XXZZ   -1187.0484   XYZZ     -61.5782   YYZZ   -3730.2182
      XZZZ    1517.7899   YZZZ    -182.9006   ZZZZ   -3980.2058
 -----------------------------------------------------------------
 Total job time:  294.76s(wall), 9165.58s(cpu) 
 Tue Sep 26 23:53:10 2023

        *************************************************************
        *                                                           *
        *  Thank you very much for using Q-Chem.  Have a nice day.  *
        *                                                           *
        *************************************************************


0 sent ACK to 0 
now end server 0 ... 
cleanup process ... done
remove work dirs ./qchem2004233.0 -- ./qchem2004233.0
rm -rf ./qchem2004233.0
rm -rf ./qchem2004233
