You are running Q-Chem version: 5.4.0

#
# job setting
#
local host:  exp-2-44
current dir: /expanse/lustre/projects/csd626/rramji/aromodel/PNDIT/Hydrogenated_Rotation_Test
input file:  Dimethyl_Naphthalene_Dicarboximide_Phi_30_Theta_280_Thiophene_Hydrogenated.qcin
output file: 
nprocs     : 1
nthreads   : 64
#
# qchem installation setting
#
QC:          /cm/shared/apps/spack/cpu/opt/spack/linux-centos8-zen2/gcc-10.2.0/qchem-5.4-akfmr7b3t57bfs6qan3padb2wnb2i7cl
QCAUX:       /cm/shared/apps/spack/cpu/opt/spack/linux-centos8-zen2/gcc-10.2.0/qchem-5.4-akfmr7b3t57bfs6qan3padb2wnb2i7cl/qcaux
QCPROG:      /cm/shared/apps/spack/cpu/opt/spack/linux-centos8-zen2/gcc-10.2.0/qchem-5.4-akfmr7b3t57bfs6qan3padb2wnb2i7cl/exe/qcprog.exe
QCPROG_S:    /cm/shared/apps/spack/cpu/opt/spack/linux-centos8-zen2/gcc-10.2.0/qchem-5.4-akfmr7b3t57bfs6qan3padb2wnb2i7cl/exe/qcprog.exe_s
PARALLEL:    -DPARALLEL
QCMPI:       mpich
#
# qchem directory setting
#
qcrun:       qchem2338866
QCSCRATCH:   .
QCLOCALSCR:  
QCTMPDIR:    .
QCFILEPREF:  ./qchem2338866
QCSAVEDIR:   
workdirs:    ./qchem2338866
workdir0:    ./qchem2338866
partmpdirs =  
#
# parallel setting
#
QCRSH:           ssh
QCMPI:           mpich
QCMPIRUN:        /cm/shared/apps/spack/cpu/opt/spack/linux-centos8-zen2/gcc-10.2.0/qchem-5.4-akfmr7b3t57bfs6qan3padb2wnb2i7cl/bin/mpi/mpirun_qchem
QCMACHINEFILE:   ./qchem2338866/hostfile
exp-2-44

#
# env setting
#
exported envs:   QC QCAUX QCSCRATCH QCRUNNAME QCFILEPREF QCPROG QCPROG_S GUIFILE

Running Job 1 of 1 Dimethyl_Naphthalene_Dicarboximide_Phi_30_Theta_280_Thiophene_Hydrogenated.qcin
qchem Dimethyl_Naphthalene_Dicarboximide_Phi_30_Theta_280_Thiophene_Hydrogenated.qcin_2338866.0 ./qchem2338866/ 1
/cm/shared/apps/spack/cpu/opt/spack/linux-centos8-zen2/gcc-10.2.0/qchem-5.4-akfmr7b3t57bfs6qan3padb2wnb2i7cl/bin/mpi/mpirun_qchem -machinefile ./qchem2338866/hostfile -np 1 /cm/shared/apps/spack/cpu/opt/spack/linux-centos8-zen2/gcc-10.2.0/qchem-5.4-akfmr7b3t57bfs6qan3padb2wnb2i7cl/exe/qcprog.exe Dimethyl_Naphthalene_Dicarboximide_Phi_30_Theta_280_Thiophene_Hydrogenated.qcin_2338866.0 ./qchem2338866/

Process 0 of 1 is on exp-2-44 - thread support 0
initial socket setup ...start
initial socket setup ...done 
now start server 0 ... 
                  Welcome to Q-Chem
     A Quantum Leap Into The Future Of Chemistry


 Q-Chem 5.4, Q-Chem, Inc., Pleasanton, CA (2021)

 License issued to: University of California, San Diego (site)

 E. Epifanovsky,  A. T. B. Gilbert,  Xintian Feng,  Joonho Lee,  Yuezhi Mao,  
 N. Mardirossian,  P. Pokhilko,  A. White,  M. Wormit,  M. P. Coons,  
 A. L. Dempwolff,  Zhengting Gan,  D. Hait,  P. R. Horn,  L. D. Jacobson,  
 I. Kaliman,  J. Kussmann,  A. W. Lange,  Ka Un Lao,  D. S. Levine,  Jie Liu,  
 S. C. McKenzie,  A. F. Morrison,  K. Nanda,  F. Plasser,  D. R. Rehn,  
 M. L. Vidal,  Zhi-Qiang You,  Ying Zhu,  B. Alam,  B. Albrecht,  
 A. Aldossary,  E. Alguire,  J. H. Andersen,  D. Barton,  K. Begam,  A. Behn,  
 Y. A. Bernard,  E. J. Berquist,  H. Burton,  A. Carreras,  K. Carter-Fenk,  
 R. Chakraborty,  A. D. Chien,  K. D. Closser,  V. Cofer-Shabica,  
 S. Dasgupta,  Jia Deng,  M. de Wergifosse,  M. Diedenhofen,  Hainam Do,  
 S. Ehlert,  Po-Tung Fang,  S. Fatehi,  Qingguo Feng,  J. Gayvert,  
 Qinghui Ge,  G. Gidofalvi,  M. Goldey,  J. Gomes,  C. Gonzalez-Espinoza,  
 S. Gulania,  A. Gunina,  M. W. D. Hanson-Heine,  P. H. P. Harbach,  
 A. W. Hauser,  M. F. Herbst,  M. Hernandez Vera,  M. Hodecker,  
 Z. C. Holden,  S. Houck,  Xunkun Huang,  Kerwin Hui,  B. C. Huynh,  
 M. Ivanov,  Hyunjun Ji,  Hanjie Jiang,  B. Kaduk,  S. Kaehler,  
 K. Khistyaev,  Jaehoon Kim,  P. Klunzinger,  Z. Koczor-Benda,  
 Joong Hoon Koh,  D. Kosenkov,  L. Koulias,  T. Kowalczyk,  C. M. Krauter,  
 K. Kue,  A. Kunitsa,  T. Kus,  A. Landau,  K. V. Lawler,  D. Lefrancois,  
 S. Lehtola,  Rain Li,  Yi-Pei Li,  Jiashu Liang,  M. Liebenthal,  
 Hung-Hsuan Lin,  You-Sheng Lin,  Fenglai Liu,  Kuan-Yu Liu,  
 M. Loipersberger,  A. Luenser,  A. Manjanath,  P. Manohar,  E. Mansoor,  
 S. F. Manzer,  Shan-Ping Mao,  A. V. Marenich,  T. Markovich,  S. Mason,  
 S. A. Maurer,  P. F. McLaughlin,  M. F. S. J. Menger,  J.-M. Mewes,  
 S. A. Mewes,  P. Morgante,  J. W. Mullinax,  T. S. Nguyen-Beck,  
 K. J. Oosterbaan,  G. Paran,  Alexander C. Paul,  Suranjan K. Paul,  
 F. Pavosevic,  Zheng Pei,  S. Prager,  E. I. Proynov,  E. Ramos,  B. Rana,  
 A. E. Rask,  A. Rettig,  R. M. Richard,  F. Rob,  E. Rossomme,  T. Scheele,  
 M. Scheurer,  M. Schneider,  N. Sergueev,  S. M. Sharada,  W. Skomorowski,  
 D. W. Small,  C. J. Stein,  Yu-Chuan Su,  E. J. Sundstrom,  Zhen Tao,  
 J. Thirman,  T. Tsuchimochi,  N. M. Tubman,  S. P. Veccham,  O. Vydrov,  
 J. Wenzel,  J. Witte,  A. Yamada,  Kun Yao,  S. Yeganeh,  S. R. Yost,  
 A. Zech,  Igor Ying Zhang,  Xing Zhang,  Yu Zhang,  D. Zuev,  
 A. Aspuru-Guzik,  A. T. Bell,  N. A. Besley,  K. B. Bravaya,  B. R. Brooks,  
 D. Casanova,  Jeng-Da Chai,  S. Coriani,  C. J. Cramer,  
 A. E. DePrince, III,  R. A. DiStasio Jr.,  A. Dreuw,  B. D. Dunietz,  
 T. R. Furlani,  W. A. Goddard III,  S. Grimme,  S. Hammes-Schiffer,  
 T. Head-Gordon,  W. J. Hehre,  Chao-Ping Hsu,  T.-C. Jagau,  Yousung Jung,  
 A. Klamt,  Jing Kong,  D. S. Lambrecht,  WanZhen Liang,  N. J. Mayhall,  
 C. W. McCurdy,  J. B. Neaton,  C. Ochsenfeld,  J. A. Parkhill,  R. Peverati,  
 V. A. Rassolov,  Yihan Shao,  L. V. Slipchenko,  T. Stauch,  R. P. Steele,  
 J. E. Subotnik,  A. J. W. Thom,  A. Tkatchenko,  D. G. Truhlar,  
 T. Van Voorhis,  T. A. Wesolowski,  K. B. Whaley,  H. L. Woodcock III,  
 P. M. Zimmerman,  S. Faraji,  P. M. W. Gill,  M. Head-Gordon,  
 J. M. Herbert,  A. I. Krylov

 Contributors to earlier versions of Q-Chem not listed above: 
 R. D. Adamson,  B. Austin,  R. Baer,  J. Baker,  G. J. O. Beran,  
 K. Brandhorst,  S. T. Brown,  E. F. C. Byrd,  A. K. Chakraborty,  
 G. K. L. Chan,  Chun-Min Chang,  Yunqing Chen,  C.-L. Cheng,  
 Siu Hung Chien,  D. M. Chipman,  D. L. Crittenden,  H. Dachsel,  
 R. J. Doerksen,  A. D. Dutoi,  R. G. Edgar,  J. Fosso-Tande,  
 L. Fusti-Molnar,  D. Ghosh,  A. Ghysels,  A. Golubeva-Zadorozhnaya,  
 J. Gonthier,  M. S. Gordon,  S. R. Gwaltney,  G. Hawkins,  J. E. Herr,  
 A. Heyden,  S. Hirata,  E. G. Hohenstein,  G. Kedziora,  F. J. Keil,  
 C. Kelley,  Jihan Kim,  R. A. King,  R. Z. Khaliullin,  P. P. Korambath,  
 W. Kurlancheek,  A. Laurent,  A. M. Lee,  M. S. Lee,  S. V. Levchenko,  
 Ching Yeh Lin,  D. Liotard,  E. Livshits,  R. C. Lochan,  I. Lotan,  
 L. A. Martinez-Martinez,  P. E. Maslen,  N. Nair,  D. P. O'Neill,  
 D. Neuhauser,  E. Neuscamman,  C. M. Oana,  R. Olivares-Amaya,  R. Olson,  
 T. M. Perrine,  B. Peters,  P. A. Pieniazek,  A. Prociuk,  Y. M. Rhee,  
 J. Ritchie,  M. A. Rohrdanz,  E. Rosta,  N. J. Russ,  H. F. Schaefer III,  
 M. W. Schmidt,  N. E. Schultz,  S. Sharma,  N. Shenvi,  C. D. Sherrill,  
 A. C. Simmonett,  A. Sodt,  T. Stein,  D. Stuck,  K. S. Thanthiriwatte,  
 V. Vanovschi,  L. Vogt,  Tao Wang,  A. Warshel,  M. A. Watson,  
 C. F. Williams,  Q. Wu,  X. Xu,  Jun Yang,  W. Zhang,  Yan Zhao

 Please cite Q-Chem as follows:
 Y. Shao et al., Mol. Phys. 113, 184-215 (2015)
 DOI: 10.1080/00268976.2014.952696

 Q-Chem 5.4.0 for Intel X86 EM64T Linux

 Parts of Q-Chem use Armadillo 9.800.1 (Horizon Scraper).
 http://arma.sourceforge.net/

 Q-Chem begins on Sun Sep 24 17:19:40 2023  

 Host: 
0

     Scratch files written to ./qchem2338866//
 May1621 |scratch|qcdevops|jenkins|workspace|build_RNUM    
 Parallel job on  1  processors
 Processing $rem in /cm/shared/apps/spack/cpu/opt/spack/linux-centos8-zen2/gcc-10.2.0/qchem-5.4-akfmr7b3t57bfs6qan3padb2wnb2i7cl/config/preferences:
 Processing $rem in /home/rramji/.qchemrc:
 Symmetry turned off for PCM/SM12/SMD calculation
 Core orbitals will be frozen

 Checking the input file for inconsistencies... 	...done.

 Q-Chem warning in module forms1/BasisType.C, line 2236:

 You are not using the predefined 5D/6D in this basis set.


--------------------------------------------------------------
User input:
--------------------------------------------------------------
$molecule
0 1
C	-0.253280	-6.741404	-0.043160
C	-1.539213	-6.155638	-0.269777
C	0.814295	-5.791452	0.145543
C	-1.813519	-4.803786	-0.318377
H	-2.403941	-6.821518	-0.422058
C	0.527140	-4.378638	0.094194
C	-0.783072	-3.838032	-0.137191
C	1.556403	-3.413062	0.275104
C	-1.067932	-2.426473	-0.188116
C	1.285420	-2.059348	0.226701
C	0.000000	-1.478216	0.000000
H	2.151147	-1.394783	0.378931
C	2.234582	-6.187987	0.397845
C	2.965273	-3.798164	0.523637
N	3.204744	-5.170003	0.567586
C	-3.226257	-4.424987	-0.567421
C	-2.489446	-2.036627	-0.439541
N	-3.459801	-3.049156	-0.609650
O	2.619468	-7.353131	0.468608
O	3.874668	-2.986854	0.683034
O	-4.124806	-5.248946	-0.725131
O	-2.895819	-0.878829	-0.512648
C	4.595691	-5.563799	0.813908
H	4.640022	-6.664085	0.822891
H	4.934830	-5.147101	1.781600
H	5.246157	-5.148785	0.020360
C	-4.829716	-2.587487	-0.851649
H	-5.462742	-3.483329	-0.962191
H	-4.863242	-1.964972	-1.765865
H	-5.173521	-1.962932	-0.005383
C	0.000000	0.000000	0.000000
S	0.396411	0.687007	1.580530
C	1.215245	2.105322	0.904911
C	0.498850	0.864369	-0.985400
C	1.158885	2.007781	-0.493528
H	0.381046	0.660280	-2.059934
H	1.599289	2.770727	-1.152593
H	1.655514	2.868056	1.556025
H	0.008120	-7.361589	-0.909181
H	-0.304668	-7.361192	0.860264
H	0.188062	-1.478831	-1.063500
$end

$rem
JOBTYPE		SP
EXCHANGE	HF
CORRELATION	pRIMP2
BASIS		cc-pvtz
METHOD		rimp2
AUX_BASIS	rimp2-cc-pvtz
SOLVENT_METHOD	PCM
PURECART	11111
SYMMETRY	false
MEM_TOTAL	110000
SCF_CONVERGENCE = 6
THRESH=10
GUI = 2
$end



$solvent
dielectric 4.90
$end
--------------------------------------------------------------
 ----------------------------------------------------------------
             Standard Nuclear Orientation (Angstroms)
    I     Atom           X                Y                Z
 ----------------------------------------------------------------
    1      C      -0.2532800000    -6.7414040000    -0.0431600000
    2      C      -1.5392130000    -6.1556380000    -0.2697770000
    3      C       0.8142950000    -5.7914520000     0.1455430000
    4      C      -1.8135190000    -4.8037860000    -0.3183770000
    5      H      -2.4039410000    -6.8215180000    -0.4220580000
    6      C       0.5271400000    -4.3786380000     0.0941940000
    7      C      -0.7830720000    -3.8380320000    -0.1371910000
    8      C       1.5564030000    -3.4130620000     0.2751040000
    9      C      -1.0679320000    -2.4264730000    -0.1881160000
   10      C       1.2854200000    -2.0593480000     0.2267010000
   11      C       0.0000000000    -1.4782160000     0.0000000000
   12      H       2.1511470000    -1.3947830000     0.3789310000
   13      C       2.2345820000    -6.1879870000     0.3978450000
   14      C       2.9652730000    -3.7981640000     0.5236370000
   15      N       3.2047440000    -5.1700030000     0.5675860000
   16      C      -3.2262570000    -4.4249870000    -0.5674210000
   17      C      -2.4894460000    -2.0366270000    -0.4395410000
   18      N      -3.4598010000    -3.0491560000    -0.6096500000
   19      O       2.6194680000    -7.3531310000     0.4686080000
   20      O       3.8746680000    -2.9868540000     0.6830340000
   21      O      -4.1248060000    -5.2489460000    -0.7251310000
   22      O      -2.8958190000    -0.8788290000    -0.5126480000
   23      C       4.5956910000    -5.5637990000     0.8139080000
   24      H       4.6400220000    -6.6640850000     0.8228910000
   25      H       4.9348300000    -5.1471010000     1.7816000000
   26      H       5.2461570000    -5.1487850000     0.0203600000
   27      C      -4.8297160000    -2.5874870000    -0.8516490000
   28      H      -5.4627420000    -3.4833290000    -0.9621910000
   29      H      -4.8632420000    -1.9649720000    -1.7658650000
   30      H      -5.1735210000    -1.9629320000    -0.0053830000
   31      C       0.0000000000     0.0000000000     0.0000000000
   32      S       0.3964110000     0.6870070000     1.5805300000
   33      C       1.2152450000     2.1053220000     0.9049110000
   34      C       0.4988500000     0.8643690000    -0.9854000000
   35      C       1.1588850000     2.0077810000    -0.4935280000
   36      H       0.3810460000     0.6602800000    -2.0599340000
   37      H       1.5992890000     2.7707270000    -1.1525930000
   38      H       1.6555140000     2.8680560000     1.5560250000
   39      H       0.0081200000    -7.3615890000    -0.9091810000
   40      H      -0.3046680000    -7.3611920000     0.8602640000
   41      H       0.1880620000    -1.4788310000    -1.0635000000
 ----------------------------------------------------------------
 Nuclear Repulsion Energy =        2552.16478275 hartrees
 There are       98 alpha and       98 beta electrons
 Requested basis set is cc-pVTZ
 There are 356 shells and 1010 basis functions

 Total QAlloc Memory Limit 110000 MB
 Mega-Array Size       188 MB
 MEM_STATIC part       192 MB
 Discretize the solute cavity surface with Lebedev spheres
	Using 110 Lebedev grid points for each H atom
	Using 194 Lebedev grid points for other atoms
	Atomic van der Waals radii will be scaled by 1.20
 Remove points where switching function is < 1.0e-08
 Keep 2654 surface tesserae and discard 4124 interior tesserae
 Molecular Surface Area = 370.631 Angst**2
 Requested basis set is rimp2-cc-pVTZ
 There are 770 shells and 2648 basis functions
 A cutoff of  1.0D-10 yielded  34038 shell pairs
 There are    257180 function pairs (    332733 Cartesian)
 Smallest overlap matrix eigenvalue = 8.80E-06

 Q-Chem warning in module stvman/mkSTV.C, line 323:

 Overlap eigenvalue is smaller than square root of threshold
 Use THRESH >= 12 to get rid of this warning


 Scale SEOQF with 1.000000e-02/1.000000e-02/1.000000e-01

 Standard Electronic Orientation quadrupole field applied
 Nucleus-field energy     =     0.0000000162 hartrees
 Guess from superposition of atomic densities
 Warning:  Energy on first SCF cycle will be non-variational
 SAD guess density has 196.000000 electrons

 -----------------------------------------------------------------------
  General SCF calculation program by
  Eric Jon Sundstrom, Paul Horn, Yuezhi Mao, Dmitri Zuev, Alec White,
  David Stuck, Shaama M.S., Shane Yost, Joonho Lee, David Small,
  Daniel Levine, Susi Lehtola, Hugh Burton, Evgeny Epifanovsky,
  Bang C. Huynh
 -----------------------------------------------------------------------
 Hartree-Fock
 using 64 threads for integral computing
 -------------------------------------------------------
 OpenMP Integral computing Module                
 Release: version 1.0, May 2013, Q-Chem Inc. Pittsburgh 
 -------------------------------------------------------
 A restricted SCF calculation will be
 performed using DIIS
 SCF converges when DIIS error is below 1.0e-06
 ---------------------------------------
  Cycle       Energy         DIIS error
 ---------------------------------------
    1   -1583.1147199185      1.86e-02  
    2   -1571.1628060394      2.02e-03  
    3   -1571.5010621582      1.55e-03  
    4   -1571.7206723081      2.52e-04  
    5   -1571.7343608042      7.70e-05  
    6   -1571.7357369556      2.95e-05  
    7   -1571.7361402605      1.51e-05  
    8   -1571.7362489427      6.15e-06  
    9   -1571.7362674086      2.80e-06  
   10   -1571.7362710248      1.18e-06  
   11   -1571.7362720986      5.44e-07  Convergence criterion met
 ---------------------------------------
 SCF time:   CPU 6987.32s  wall 264.00s 

************** Final PCM Free Energy Summary **************
 G_electrostatic  =      -0.03153516 hartree =     -19.78860913 kcal/mol
 G_cavitation     =       0.00000000 hartree =       0.00000000 kcal/mol
 G_dispersion     =       0.00000000 hartree =       0.00000000 kcal/mol
 G_repulsion      =       0.00000000 hartree =       0.00000000 kcal/mol
 --------------------------------------------------
 Non-electrostatic Free Energy =       0.00000000 hartree =       0.00000000 kcal/mol
 Total                         =      -0.03153516 hartree =     -19.78860913 kcal/mol
 --------------------------------------------------
 SCF Energy (H0 + V/2)                       =   -1571.73627210 
 Solute Internal Energy (H0)                 =   -1571.70473694 
 Total Free Energy (H0 + V/2 + non-elec)     =   -1571.73627210 hartree
                                             = -986279.39665611 kcal/mol
***********************************************************

 SCF   energy in the final basis set =    -1571.7362720986
 Total energy in the final basis set =    -1571.7362720986


 --------------------------------------------------------------
  Generalized many-body perturbation theory program
  by Joonho Lee, Fazle Rob, Xintian Feng, Evgeny Epifanovsky

 No regularization used 
 (reg. param. = 0.0000e+00)
  (P|Q)^-1/2 Time:  CPU 132.21 s  wall 2.14 s

 In RI-MP2 calculation: 
 # of frozen core orbitals: 31

 Components of the RIMP2 correlation energy:
        aaaa    correlation energy =        -0.6153304092 a.u.
        abab    correlation energy =        -3.4268751234 a.u.
        bbbb    correlation energy =        -0.6153304092 a.u.
        non-Brillouin singles      =        -0.0000000000 a.u.
        total same-spin energy     =        -1.2306608183 a.u.
        total opposite-spin energy =        -3.4268751234 a.u.

 Total  RIMP2   correlation energy =        -4.6575359417 a.u.
        RIMP2         total energy =     -1576.3938080404 a.u.

 RI-MP2 Energy Time:  CPU 2019.13 s  wall 32.94 s
 
 --------------------------------------------------------------
 
                    Orbital Energies (a.u.)
 --------------------------------------------------------------
 
 Alpha MOs
 -- Occupied --
-91.9890 -20.5526 -20.5441 -20.5415 -20.5405 -15.6266 -15.6211 -11.3931
-11.3847 -11.3833 -11.3792 -11.3087 -11.3063 -11.3042 -11.3034 -11.2953
-11.2941 -11.2880 -11.2864 -11.2685 -11.2673 -11.2648 -11.2626 -11.2606
-11.2593 -11.2528 -11.2522  -8.9889  -6.6697  -6.6692  -6.6686  -1.4192
 -1.4121  -1.3969  -1.3913  -1.2617  -1.2553  -1.2299  -1.1884  -1.1528
 -1.1136  -1.0855  -1.0460  -0.9967  -0.9876  -0.9873  -0.9550  -0.9502
 -0.8963  -0.8871  -0.8758  -0.8588  -0.7951  -0.7774  -0.7702  -0.7634
 -0.7426  -0.7172  -0.7042  -0.6914  -0.6818  -0.6714  -0.6662  -0.6570
 -0.6466  -0.6434  -0.6354  -0.6332  -0.6305  -0.6272  -0.6215  -0.6045
 -0.5841  -0.5762  -0.5690  -0.5612  -0.5565  -0.5510  -0.5505  -0.5479
 -0.5473  -0.5433  -0.5210  -0.5133  -0.5064  -0.4831  -0.4753  -0.4630
 -0.4585  -0.4510  -0.4426  -0.4342  -0.4132  -0.4072  -0.3598  -0.3483
 -0.3294  -0.2890
 -- Virtual --
  0.0155   0.0434   0.0799   0.0919   0.1381   0.1500   0.1533   0.1605
  0.1638   0.1723   0.1782   0.1836   0.1843   0.1891   0.1986   0.2008
  0.2050   0.2217   0.2267   0.2287   0.2302   0.2307   0.2324   0.2372
  0.2656   0.2688   0.2945   0.3030   0.3124   0.3184   0.3213   0.3238
  0.3287   0.3401   0.3458   0.3482   0.3551   0.3605   0.3642   0.3664
  0.3721   0.3755   0.3833   0.3841   0.3880   0.3966   0.4005   0.4060
  0.4079   0.4205   0.4243   0.4331   0.4373   0.4419   0.4447   0.4469
  0.4491   0.4553   0.4604   0.4648   0.4681   0.4777   0.4857   0.4885
  0.4919   0.4995   0.5028   0.5104   0.5144   0.5191   0.5263   0.5279
  0.5304   0.5415   0.5460   0.5494   0.5552   0.5562   0.5587   0.5658
  0.5706   0.5713   0.5780   0.5805   0.5888   0.5911   0.5942   0.5953
  0.5987   0.6040   0.6080   0.6109   0.6138   0.6177   0.6232   0.6266
  0.6281   0.6328   0.6353   0.6368   0.6417   0.6455   0.6457   0.6487
  0.6534   0.6596   0.6666   0.6754   0.6798   0.6894   0.6920   0.7002
  0.7028   0.7132   0.7240   0.7296   0.7350   0.7360   0.7480   0.7592
  0.7632   0.7687   0.7705   0.7755   0.7809   0.7858   0.7889   0.7927
  0.7976   0.8029   0.8149   0.8245   0.8352   0.8394   0.8447   0.8461
  0.8509   0.8535   0.8586   0.8635   0.8683   0.8724   0.8757   0.8826
  0.8897   0.8961   0.8985   0.9057   0.9120   0.9218   0.9267   0.9312
  0.9338   0.9391   0.9423   0.9492   0.9609   0.9675   0.9732   0.9748
  0.9766   0.9817   0.9931   0.9944   1.0010   1.0061   1.0106   1.0137
  1.0238   1.0258   1.0342   1.0427   1.0502   1.0546   1.0603   1.0629
  1.0663   1.0702   1.0745   1.0752   1.0875   1.0899   1.0911   1.1064
  1.1096   1.1125   1.1199   1.1267   1.1333   1.1346   1.1397   1.1457
  1.1496   1.1540   1.1627   1.1657   1.1700   1.1726   1.1813   1.1823
  1.1853   1.1977   1.2005   1.2044   1.2084   1.2122   1.2155   1.2264
  1.2312   1.2376   1.2423   1.2514   1.2523   1.2618   1.2665   1.2708
  1.2819   1.2893   1.2998   1.3002   1.3099   1.3236   1.3330   1.3378
  1.3413   1.3502   1.3538   1.3643   1.3703   1.3708   1.3801   1.3888
  1.3896   1.3923   1.3992   1.4068   1.4163   1.4273   1.4367   1.4441
  1.4458   1.4617   1.4690   1.4752   1.4784   1.4843   1.4891   1.4961
  1.5010   1.5039   1.5097   1.5180   1.5263   1.5282   1.5327   1.5399
  1.5442   1.5466   1.5511   1.5550   1.5602   1.5679   1.5711   1.5730
  1.5855   1.5913   1.5997   1.6133   1.6158   1.6235   1.6306   1.6364
  1.6444   1.6487   1.6595   1.6612   1.6777   1.6842   1.6885   1.6914
  1.6995   1.7105   1.7156   1.7180   1.7386   1.7462   1.7513   1.7526
  1.7633   1.7677   1.7772   1.7801   1.7874   1.8007   1.8040   1.8165
  1.8217   1.8233   1.8353   1.8472   1.8488   1.8583   1.8690   1.8712
  1.8744   1.8798   1.8883   1.8914   1.9113   1.9186   1.9312   1.9409
  1.9440   1.9610   1.9697   1.9810   1.9864   1.9975   2.0132   2.0210
  2.0280   2.0316   2.0461   2.0574   2.0855   2.0959   2.1100   2.1163
  2.1352   2.1413   2.1445   2.1561   2.1761   2.1900   2.1996   2.2106
  2.2219   2.2296   2.2449   2.2704   2.2847   2.2936   2.2964   2.3051
  2.3101   2.3272   2.3339   2.3381   2.3563   2.3695   2.3713   2.3865
  2.3974   2.4182   2.4379   2.4401   2.4422   2.4568   2.4596   2.4682
  2.4748   2.4754   2.4838   2.5022   2.5058   2.5320   2.5347   2.5533
  2.5596   2.5646   2.5805   2.5859   2.5908   2.6005   2.6113   2.6133
  2.6226   2.6347   2.6367   2.6429   2.6492   2.6611   2.6738   2.6808
  2.6834   2.6908   2.6958   2.7097   2.7168   2.7187   2.7281   2.7389
  2.7476   2.7516   2.7558   2.7617   2.7745   2.7840   2.7933   2.8023
  2.8147   2.8317   2.8358   2.8393   2.8468   2.8557   2.8595   2.8699
  2.8708   2.8762   2.8839   2.8857   2.8949   2.8977   2.9082   2.9128
  2.9228   2.9268   2.9279   2.9379   2.9519   2.9608   2.9645   2.9759
  2.9821   2.9876   2.9887   2.9991   3.0028   3.0120   3.0177   3.0227
  3.0298   3.0390   3.0445   3.0502   3.0587   3.0698   3.0780   3.0816
  3.0941   3.0965   3.1025   3.1054   3.1085   3.1109   3.1199   3.1227
  3.1343   3.1351   3.1457   3.1519   3.1564   3.1652   3.1710   3.1728
  3.1792   3.1896   3.1944   3.1983   3.2065   3.2116   3.2148   3.2265
  3.2321   3.2358   3.2395   3.2417   3.2492   3.2559   3.2584   3.2651
  3.2661   3.2757   3.2773   3.2825   3.2962   3.2978   3.3049   3.3068
  3.3105   3.3187   3.3193   3.3257   3.3279   3.3312   3.3373   3.3409
  3.3435   3.3471   3.3523   3.3548   3.3631   3.3651   3.3710   3.3753
  3.3784   3.3835   3.3861   3.3931   3.3974   3.3993   3.4077   3.4135
  3.4173   3.4261   3.4285   3.4297   3.4320   3.4394   3.4418   3.4481
  3.4561   3.4615   3.4666   3.4700   3.4749   3.4786   3.4839   3.4870
  3.4936   3.5017   3.5055   3.5096   3.5164   3.5205   3.5231   3.5248
  3.5330   3.5351   3.5464   3.5522   3.5591   3.5623   3.5808   3.5835
  3.5878   3.5942   3.6035   3.6055   3.6106   3.6134   3.6196   3.6292
  3.6317   3.6333   3.6345   3.6357   3.6427   3.6487   3.6525   3.6614
  3.6660   3.6751   3.6807   3.6876   3.6948   3.7033   3.7084   3.7191
  3.7225   3.7299   3.7341   3.7384   3.7419   3.7484   3.7509   3.7554
  3.7604   3.7669   3.7732   3.7826   3.7867   3.7941   3.7988   3.8030
  3.8081   3.8108   3.8159   3.8166   3.8216   3.8297   3.8383   3.8465
  3.8493   3.8519   3.8597   3.8653   3.8730   3.8828   3.8945   3.9052
  3.9099   3.9202   3.9243   3.9359   3.9374   3.9462   3.9488   3.9510
  3.9611   3.9640   3.9654   3.9715   3.9764   3.9829   3.9955   4.0090
  4.0141   4.0253   4.0317   4.0351   4.0404   4.0593   4.0639   4.0678
  4.0850   4.0982   4.1022   4.1139   4.1183   4.1248   4.1347   4.1407
  4.1461   4.1611   4.1650   4.1713   4.1751   4.1800   4.1888   4.2025
  4.2082   4.2215   4.2334   4.2389   4.2408   4.2443   4.2572   4.2613
  4.2667   4.2698   4.2834   4.2874   4.2960   4.3013   4.3059   4.3086
  4.3106   4.3153   4.3226   4.3320   4.3376   4.3409   4.3455   4.3481
  4.3589   4.3658   4.3695   4.3705   4.3765   4.3856   4.3883   4.3920
  4.3978   4.4058   4.4131   4.4223   4.4292   4.4314   4.4468   4.4501
  4.4699   4.4733   4.4879   4.4926   4.5101   4.5136   4.5201   4.5226
  4.5326   4.5376   4.5447   4.5584   4.5692   4.5757   4.5837   4.5859
  4.5897   4.5972   4.6028   4.6042   4.6126   4.6219   4.6336   4.6461
  4.6547   4.6598   4.6674   4.6766   4.6808   4.6990   4.7033   4.7117
  4.7318   4.7359   4.7418   4.7479   4.7687   4.7841   4.7927   4.8015
  4.8051   4.8272   4.8389   4.8443   4.8473   4.8573   4.8710   4.8809
  4.8835   4.8951   4.9025   4.9245   4.9328   4.9419   4.9553   4.9758
  4.9957   5.0028   5.0077   5.0210   5.0273   5.0313   5.0519   5.0633
  5.0705   5.0987   5.1137   5.1181   5.1220   5.1275   5.1290   5.1417
  5.1447   5.1567   5.1638   5.1705   5.1888   5.2056   5.2102   5.2275
  5.2499   5.2629   5.2708   5.2835   5.2889   5.3094   5.3193   5.3284
  5.3316   5.3403   5.3484   5.3570   5.3791   5.3954   5.4037   5.4157
  5.4245   5.4477   5.4726   5.4826   5.4898   5.5006   5.5137   5.5149
  5.5175   5.5264   5.5380   5.5513   5.5573   5.5615   5.5663   5.5738
  5.5796   5.5824   5.5861   5.6095   5.6121   5.6147   5.6237   5.6400
  5.6429   5.6509   5.6597   5.6630   5.6666   5.6736   5.6931   5.6949
  5.6994   5.7069   5.7325   5.7379   5.7441   5.7587   5.7698   5.7765
  5.7819   5.7881   5.8088   5.8306   5.8334   5.8468   5.8981   5.9057
  5.9215   5.9536   5.9627   5.9908   5.9983   6.0195   6.0309   6.0388
  6.0417   6.0484   6.0930   6.1116   6.1232   6.1338   6.1449   6.1833
  6.1928   6.2192   6.2204   6.2256   6.2407   6.2534   6.2649   6.2838
  6.3089   6.3099   6.3242   6.3479   6.3654   6.3825   6.4024   6.4830
  6.5171   6.5330   6.5745   6.5829   6.5995   6.6159   6.6190   6.6596
  6.6745   6.6763   6.8418   6.8499   6.8880   6.9015   6.9046   6.9198
  6.9264   6.9301   7.0994   7.1080   7.1467   7.1911   7.1982   7.2346
  7.3471   7.3515   7.3553   7.3595   7.4748   7.5413   7.5692   7.5813
  7.5848   7.5954   7.6536   7.6720   7.6915   7.7127   8.7980   9.9870
 10.3157  11.3336  11.4790  11.7641  12.0054  12.1130  12.4128  12.4675
 12.8893  13.1966  13.3301  13.5572  13.7494  13.9209  14.0991  14.2923
 14.3186  14.3638  14.4712  14.5806  14.9890  15.6115  15.7898  16.3389
 --------------------------------------------------------------
 
          Ground-State Mulliken Net Atomic Charges

     Atom                 Charge (a.u.)
  ----------------------------------------
      1 C                    -0.084982
      2 C                    -0.033510
      3 C                    -0.111139
      4 C                    -0.120186
      5 H                     0.198186
      6 C                     0.019123
      7 C                     0.119050
      8 C                    -0.102047
      9 C                    -0.182051
     10 C                    -0.095245
     11 C                     0.136012
     12 H                     0.202195
     13 C                     0.343994
     14 C                     0.343266
     15 N                    -0.089930
     16 C                     0.357148
     17 C                     0.349366
     18 N                    -0.092413
     19 O                    -0.494536
     20 O                    -0.507039
     21 O                    -0.501743
     22 O                    -0.470990
     23 C                    -0.204961
     24 H                     0.139516
     25 H                     0.109247
     26 H                     0.108856
     27 C                    -0.197245
     28 H                     0.133073
     29 H                     0.110980
     30 H                     0.112071
     31 C                     0.035313
     32 S                     0.010439
     33 C                    -0.202671
     34 C                    -0.206019
     35 C                    -0.195603
     36 H                     0.184270
     37 H                     0.194026
     38 H                     0.211352
     39 H                     0.136971
     40 H                     0.137276
     41 H                     0.200584
  ----------------------------------------
  Sum of atomic charges =     0.000000

 -----------------------------------------------------------------
                    Cartesian Multipole Moments
 -----------------------------------------------------------------
    Charge (ESU x 10^10)
                 0.0000
    Dipole Moment (Debye)
         X       0.4202      Y       2.3573      Z      -1.9650
       Tot       3.0976
    Quadrupole Moments (Debye-Ang)
        XX    -192.3059     XY      13.2370     YY    -181.1702
        XZ      -5.3475     YZ       3.3484     ZZ    -157.1114
    Octopole Moments (Debye-Ang^2)
       XXX     -22.7320    XXY     607.6319    XYY     -51.1167
       YYY    1701.9154    XXZ     -11.4100    XYZ      27.1567
       YYZ     -20.6836    XZZ      -2.3358    YZZ     480.2500
       ZZZ     -46.7990
    Hexadecapole Moments (Debye-Ang^3)
      XXXX   -6310.4096   XXXY     -56.4373   XXYY   -4415.9870
      XYYY    1079.2259   YYYY  -18040.9867   XXXZ    -586.9727
      XXYZ     -44.6645   XYYZ    -317.0783   YYYZ     178.6905
      XXZZ   -1099.3915   XYZZ      92.7659   YYZZ   -2694.7863
      XZZZ    -515.1086   YZZZ      27.9835   ZZZZ    -641.0787
 -----------------------------------------------------------------
 Total job time:  302.55s(wall), 9230.61s(cpu) 
 Sun Sep 24 17:24:43 2023

        *************************************************************
        *                                                           *
        *  Thank you very much for using Q-Chem.  Have a nice day.  *
        *                                                           *
        *************************************************************


0 sent ACK to 0 
now end server 0 ... 
cleanup process ... done
remove work dirs ./qchem2338866.0 -- ./qchem2338866.0
rm -rf ./qchem2338866.0
rm -rf ./qchem2338866
