You are running Q-Chem version: 5.4.0

#
# job setting
#
local host:  exp-4-53
current dir: /expanse/lustre/projects/csd626/rramji/aromodel/PNDIT/Hydrogenated_Rotation_Test
input file:  Dimethyl_Naphthalene_Dicarboximide_Phi_15_Theta_270_Thiophene_Hydrogenated.qcin
output file: 
nprocs     : 1
nthreads   : 64
#
# qchem installation setting
#
QC:          /cm/shared/apps/spack/cpu/opt/spack/linux-centos8-zen2/gcc-10.2.0/qchem-5.4-akfmr7b3t57bfs6qan3padb2wnb2i7cl
QCAUX:       /cm/shared/apps/spack/cpu/opt/spack/linux-centos8-zen2/gcc-10.2.0/qchem-5.4-akfmr7b3t57bfs6qan3padb2wnb2i7cl/qcaux
QCPROG:      /cm/shared/apps/spack/cpu/opt/spack/linux-centos8-zen2/gcc-10.2.0/qchem-5.4-akfmr7b3t57bfs6qan3padb2wnb2i7cl/exe/qcprog.exe
QCPROG_S:    /cm/shared/apps/spack/cpu/opt/spack/linux-centos8-zen2/gcc-10.2.0/qchem-5.4-akfmr7b3t57bfs6qan3padb2wnb2i7cl/exe/qcprog.exe_s
PARALLEL:    -DPARALLEL
QCMPI:       mpich
#
# qchem directory setting
#
qcrun:       qchem1610273
QCSCRATCH:   .
QCLOCALSCR:  
QCTMPDIR:    .
QCFILEPREF:  ./qchem1610273
QCSAVEDIR:   
workdirs:    ./qchem1610273
workdir0:    ./qchem1610273
partmpdirs =  
#
# parallel setting
#
QCRSH:           ssh
QCMPI:           mpich
QCMPIRUN:        /cm/shared/apps/spack/cpu/opt/spack/linux-centos8-zen2/gcc-10.2.0/qchem-5.4-akfmr7b3t57bfs6qan3padb2wnb2i7cl/bin/mpi/mpirun_qchem
QCMACHINEFILE:   ./qchem1610273/hostfile
exp-4-53

#
# env setting
#
exported envs:   QC QCAUX QCSCRATCH QCRUNNAME QCFILEPREF QCPROG QCPROG_S GUIFILE

Running Job 1 of 1 Dimethyl_Naphthalene_Dicarboximide_Phi_15_Theta_270_Thiophene_Hydrogenated.qcin
qchem Dimethyl_Naphthalene_Dicarboximide_Phi_15_Theta_270_Thiophene_Hydrogenated.qcin_1610273.0 ./qchem1610273/ 1
/cm/shared/apps/spack/cpu/opt/spack/linux-centos8-zen2/gcc-10.2.0/qchem-5.4-akfmr7b3t57bfs6qan3padb2wnb2i7cl/bin/mpi/mpirun_qchem -machinefile ./qchem1610273/hostfile -np 1 /cm/shared/apps/spack/cpu/opt/spack/linux-centos8-zen2/gcc-10.2.0/qchem-5.4-akfmr7b3t57bfs6qan3padb2wnb2i7cl/exe/qcprog.exe Dimethyl_Naphthalene_Dicarboximide_Phi_15_Theta_270_Thiophene_Hydrogenated.qcin_1610273.0 ./qchem1610273/

Process 0 of 1 is on exp-4-53 - thread support 0
initial socket setup ...start
initial socket setup ...done 
now start server 0 ... 
                  Welcome to Q-Chem
     A Quantum Leap Into The Future Of Chemistry


 Q-Chem 5.4, Q-Chem, Inc., Pleasanton, CA (2021)

 License issued to: University of California, San Diego (site)

 E. Epifanovsky,  A. T. B. Gilbert,  Xintian Feng,  Joonho Lee,  Yuezhi Mao,  
 N. Mardirossian,  P. Pokhilko,  A. White,  M. Wormit,  M. P. Coons,  
 A. L. Dempwolff,  Zhengting Gan,  D. Hait,  P. R. Horn,  L. D. Jacobson,  
 I. Kaliman,  J. Kussmann,  A. W. Lange,  Ka Un Lao,  D. S. Levine,  Jie Liu,  
 S. C. McKenzie,  A. F. Morrison,  K. Nanda,  F. Plasser,  D. R. Rehn,  
 M. L. Vidal,  Zhi-Qiang You,  Ying Zhu,  B. Alam,  B. Albrecht,  
 A. Aldossary,  E. Alguire,  J. H. Andersen,  D. Barton,  K. Begam,  A. Behn,  
 Y. A. Bernard,  E. J. Berquist,  H. Burton,  A. Carreras,  K. Carter-Fenk,  
 R. Chakraborty,  A. D. Chien,  K. D. Closser,  V. Cofer-Shabica,  
 S. Dasgupta,  Jia Deng,  M. de Wergifosse,  M. Diedenhofen,  Hainam Do,  
 S. Ehlert,  Po-Tung Fang,  S. Fatehi,  Qingguo Feng,  J. Gayvert,  
 Qinghui Ge,  G. Gidofalvi,  M. Goldey,  J. Gomes,  C. Gonzalez-Espinoza,  
 S. Gulania,  A. Gunina,  M. W. D. Hanson-Heine,  P. H. P. Harbach,  
 A. W. Hauser,  M. F. Herbst,  M. Hernandez Vera,  M. Hodecker,  
 Z. C. Holden,  S. Houck,  Xunkun Huang,  Kerwin Hui,  B. C. Huynh,  
 M. Ivanov,  Hyunjun Ji,  Hanjie Jiang,  B. Kaduk,  S. Kaehler,  
 K. Khistyaev,  Jaehoon Kim,  P. Klunzinger,  Z. Koczor-Benda,  
 Joong Hoon Koh,  D. Kosenkov,  L. Koulias,  T. Kowalczyk,  C. M. Krauter,  
 K. Kue,  A. Kunitsa,  T. Kus,  A. Landau,  K. V. Lawler,  D. Lefrancois,  
 S. Lehtola,  Rain Li,  Yi-Pei Li,  Jiashu Liang,  M. Liebenthal,  
 Hung-Hsuan Lin,  You-Sheng Lin,  Fenglai Liu,  Kuan-Yu Liu,  
 M. Loipersberger,  A. Luenser,  A. Manjanath,  P. Manohar,  E. Mansoor,  
 S. F. Manzer,  Shan-Ping Mao,  A. V. Marenich,  T. Markovich,  S. Mason,  
 S. A. Maurer,  P. F. McLaughlin,  M. F. S. J. Menger,  J.-M. Mewes,  
 S. A. Mewes,  P. Morgante,  J. W. Mullinax,  T. S. Nguyen-Beck,  
 K. J. Oosterbaan,  G. Paran,  Alexander C. Paul,  Suranjan K. Paul,  
 F. Pavosevic,  Zheng Pei,  S. Prager,  E. I. Proynov,  E. Ramos,  B. Rana,  
 A. E. Rask,  A. Rettig,  R. M. Richard,  F. Rob,  E. Rossomme,  T. Scheele,  
 M. Scheurer,  M. Schneider,  N. Sergueev,  S. M. Sharada,  W. Skomorowski,  
 D. W. Small,  C. J. Stein,  Yu-Chuan Su,  E. J. Sundstrom,  Zhen Tao,  
 J. Thirman,  T. Tsuchimochi,  N. M. Tubman,  S. P. Veccham,  O. Vydrov,  
 J. Wenzel,  J. Witte,  A. Yamada,  Kun Yao,  S. Yeganeh,  S. R. Yost,  
 A. Zech,  Igor Ying Zhang,  Xing Zhang,  Yu Zhang,  D. Zuev,  
 A. Aspuru-Guzik,  A. T. Bell,  N. A. Besley,  K. B. Bravaya,  B. R. Brooks,  
 D. Casanova,  Jeng-Da Chai,  S. Coriani,  C. J. Cramer,  
 A. E. DePrince, III,  R. A. DiStasio Jr.,  A. Dreuw,  B. D. Dunietz,  
 T. R. Furlani,  W. A. Goddard III,  S. Grimme,  S. Hammes-Schiffer,  
 T. Head-Gordon,  W. J. Hehre,  Chao-Ping Hsu,  T.-C. Jagau,  Yousung Jung,  
 A. Klamt,  Jing Kong,  D. S. Lambrecht,  WanZhen Liang,  N. J. Mayhall,  
 C. W. McCurdy,  J. B. Neaton,  C. Ochsenfeld,  J. A. Parkhill,  R. Peverati,  
 V. A. Rassolov,  Yihan Shao,  L. V. Slipchenko,  T. Stauch,  R. P. Steele,  
 J. E. Subotnik,  A. J. W. Thom,  A. Tkatchenko,  D. G. Truhlar,  
 T. Van Voorhis,  T. A. Wesolowski,  K. B. Whaley,  H. L. Woodcock III,  
 P. M. Zimmerman,  S. Faraji,  P. M. W. Gill,  M. Head-Gordon,  
 J. M. Herbert,  A. I. Krylov

 Contributors to earlier versions of Q-Chem not listed above: 
 R. D. Adamson,  B. Austin,  R. Baer,  J. Baker,  G. J. O. Beran,  
 K. Brandhorst,  S. T. Brown,  E. F. C. Byrd,  A. K. Chakraborty,  
 G. K. L. Chan,  Chun-Min Chang,  Yunqing Chen,  C.-L. Cheng,  
 Siu Hung Chien,  D. M. Chipman,  D. L. Crittenden,  H. Dachsel,  
 R. J. Doerksen,  A. D. Dutoi,  R. G. Edgar,  J. Fosso-Tande,  
 L. Fusti-Molnar,  D. Ghosh,  A. Ghysels,  A. Golubeva-Zadorozhnaya,  
 J. Gonthier,  M. S. Gordon,  S. R. Gwaltney,  G. Hawkins,  J. E. Herr,  
 A. Heyden,  S. Hirata,  E. G. Hohenstein,  G. Kedziora,  F. J. Keil,  
 C. Kelley,  Jihan Kim,  R. A. King,  R. Z. Khaliullin,  P. P. Korambath,  
 W. Kurlancheek,  A. Laurent,  A. M. Lee,  M. S. Lee,  S. V. Levchenko,  
 Ching Yeh Lin,  D. Liotard,  E. Livshits,  R. C. Lochan,  I. Lotan,  
 L. A. Martinez-Martinez,  P. E. Maslen,  N. Nair,  D. P. O'Neill,  
 D. Neuhauser,  E. Neuscamman,  C. M. Oana,  R. Olivares-Amaya,  R. Olson,  
 T. M. Perrine,  B. Peters,  P. A. Pieniazek,  A. Prociuk,  Y. M. Rhee,  
 J. Ritchie,  M. A. Rohrdanz,  E. Rosta,  N. J. Russ,  H. F. Schaefer III,  
 M. W. Schmidt,  N. E. Schultz,  S. Sharma,  N. Shenvi,  C. D. Sherrill,  
 A. C. Simmonett,  A. Sodt,  T. Stein,  D. Stuck,  K. S. Thanthiriwatte,  
 V. Vanovschi,  L. Vogt,  Tao Wang,  A. Warshel,  M. A. Watson,  
 C. F. Williams,  Q. Wu,  X. Xu,  Jun Yang,  W. Zhang,  Yan Zhao

 Please cite Q-Chem as follows:
 Y. Shao et al., Mol. Phys. 113, 184-215 (2015)
 DOI: 10.1080/00268976.2014.952696

 Q-Chem 5.4.0 for Intel X86 EM64T Linux

 Parts of Q-Chem use Armadillo 9.800.1 (Horizon Scraper).
 http://arma.sourceforge.net/

 Q-Chem begins on Wed Sep 27 00:12:22 2023  

 Host: 
0

     Scratch files written to ./qchem1610273//
 May1621 |scratch|qcdevops|jenkins|workspace|build_RNUM    
 Parallel job on  1  processors
 Processing $rem in /cm/shared/apps/spack/cpu/opt/spack/linux-centos8-zen2/gcc-10.2.0/qchem-5.4-akfmr7b3t57bfs6qan3padb2wnb2i7cl/config/preferences:
 Processing $rem in /home/rramji/.qchemrc:
 Symmetry turned off for PCM/SM12/SMD calculation
 Core orbitals will be frozen

 Checking the input file for inconsistencies... 	...done.

 Q-Chem warning in module forms1/BasisType.C, line 2236:

 You are not using the predefined 5D/6D in this basis set.


--------------------------------------------------------------
User input:
--------------------------------------------------------------
$molecule
0 1
C	-0.256927	-6.741404	0.001478
C	-1.562675	-6.155638	0.001603
C	0.827197	-5.791452	0.001931
C	-1.841253	-4.803786	0.001374
H	-2.440709	-6.821518	0.001794
C	0.535488	-4.378638	0.001227
C	-0.794999	-3.838032	0.000872
C	1.580529	-3.413062	0.000658
C	-1.084374	-2.426473	0.000186
C	1.305258	-2.059348	0.000046
C	0.000000	-1.478216	0.000000
H	2.184267	-1.394783	-0.000369
C	2.269719	-6.187987	0.003770
C	3.011152	-3.798164	0.000767
N	3.254617	-5.170003	0.002465
C	-3.275775	-4.424987	0.001433
C	-2.527951	-2.036627	-0.000576
N	-3.513104	-3.049156	0.000400
O	2.661046	-7.353131	0.006623
O	3.934410	-2.986854	-0.000172
O	-4.188059	-5.248946	0.002151
O	-2.940845	-0.878829	-0.002006
C	4.667206	-5.563799	0.003509
H	4.712423	-6.664085	0.004658
H	5.169231	-5.147101	0.897610
H	5.169992	-5.148785	-0.890935
C	-4.904229	-2.587487	-0.000039
H	-5.546833	-3.483329	0.001022
H	-5.095998	-1.964972	-0.894545
H	-5.095858	-1.962932	0.893071
C	0.000000	0.000000	0.000000
S	0.205093	0.766196	1.580530
C	0.628939	2.348114	0.904911
C	0.258137	0.964028	-0.985400
C	0.599745	2.239309	-0.493528
H	0.197169	0.736404	-2.059934
H	0.827678	3.090243	-1.152593
H	0.856796	3.198808	1.556025
H	-0.149881	-7.361589	-0.896779
H	-0.150656	-7.361192	0.900100
H	0.000531	-1.478831	-1.080000
$end

$rem
JOBTYPE		SP
EXCHANGE	HF
CORRELATION	pRIMP2
BASIS		cc-pvtz
METHOD		rimp2
AUX_BASIS	rimp2-cc-pvtz
SOLVENT_METHOD	PCM
PURECART	11111
SYMMETRY	false
MEM_TOTAL	110000
SCF_CONVERGENCE = 6
THRESH=10
GUI = 2
$end



$solvent
dielectric 4.90
$end
--------------------------------------------------------------
 ----------------------------------------------------------------
             Standard Nuclear Orientation (Angstroms)
    I     Atom           X                Y                Z
 ----------------------------------------------------------------
    1      C      -0.2569270000    -6.7414040000     0.0014780000
    2      C      -1.5626750000    -6.1556380000     0.0016030000
    3      C       0.8271970000    -5.7914520000     0.0019310000
    4      C      -1.8412530000    -4.8037860000     0.0013740000
    5      H      -2.4407090000    -6.8215180000     0.0017940000
    6      C       0.5354880000    -4.3786380000     0.0012270000
    7      C      -0.7949990000    -3.8380320000     0.0008720000
    8      C       1.5805290000    -3.4130620000     0.0006580000
    9      C      -1.0843740000    -2.4264730000     0.0001860000
   10      C       1.3052580000    -2.0593480000     0.0000460000
   11      C       0.0000000000    -1.4782160000     0.0000000000
   12      H       2.1842670000    -1.3947830000    -0.0003690000
   13      C       2.2697190000    -6.1879870000     0.0037700000
   14      C       3.0111520000    -3.7981640000     0.0007670000
   15      N       3.2546170000    -5.1700030000     0.0024650000
   16      C      -3.2757750000    -4.4249870000     0.0014330000
   17      C      -2.5279510000    -2.0366270000    -0.0005760000
   18      N      -3.5131040000    -3.0491560000     0.0004000000
   19      O       2.6610460000    -7.3531310000     0.0066230000
   20      O       3.9344100000    -2.9868540000    -0.0001720000
   21      O      -4.1880590000    -5.2489460000     0.0021510000
   22      O      -2.9408450000    -0.8788290000    -0.0020060000
   23      C       4.6672060000    -5.5637990000     0.0035090000
   24      H       4.7124230000    -6.6640850000     0.0046580000
   25      H       5.1692310000    -5.1471010000     0.8976100000
   26      H       5.1699920000    -5.1487850000    -0.8909350000
   27      C      -4.9042290000    -2.5874870000    -0.0000390000
   28      H      -5.5468330000    -3.4833290000     0.0010220000
   29      H      -5.0959980000    -1.9649720000    -0.8945450000
   30      H      -5.0958580000    -1.9629320000     0.8930710000
   31      C       0.0000000000     0.0000000000     0.0000000000
   32      S       0.2050930000     0.7661960000     1.5805300000
   33      C       0.6289390000     2.3481140000     0.9049110000
   34      C       0.2581370000     0.9640280000    -0.9854000000
   35      C       0.5997450000     2.2393090000    -0.4935280000
   36      H       0.1971690000     0.7364040000    -2.0599340000
   37      H       0.8276780000     3.0902430000    -1.1525930000
   38      H       0.8567960000     3.1988080000     1.5560250000
   39      H      -0.1498810000    -7.3615890000    -0.8967790000
   40      H      -0.1506560000    -7.3611920000     0.9001000000
   41      H       0.0005310000    -1.4788310000    -1.0800000000
 ----------------------------------------------------------------
 Nuclear Repulsion Energy =        2546.48216129 hartrees
 There are       98 alpha and       98 beta electrons
 Requested basis set is cc-pVTZ
 There are 356 shells and 1010 basis functions

 Total QAlloc Memory Limit 110000 MB
 Mega-Array Size       188 MB
 MEM_STATIC part       192 MB
 Discretize the solute cavity surface with Lebedev spheres
	Using 110 Lebedev grid points for each H atom
	Using 194 Lebedev grid points for other atoms
	Atomic van der Waals radii will be scaled by 1.20
 Remove points where switching function is < 1.0e-08
 Keep 2614 surface tesserae and discard 4164 interior tesserae
 Molecular Surface Area = 375.272 Angst**2
 Requested basis set is rimp2-cc-pVTZ
 There are 770 shells and 2648 basis functions
 A cutoff of  1.0D-10 yielded  33957 shell pairs
 There are    256589 function pairs (    332038 Cartesian)
 Smallest overlap matrix eigenvalue = 8.85E-06

 Q-Chem warning in module stvman/mkSTV.C, line 323:

 Overlap eigenvalue is smaller than square root of threshold
 Use THRESH >= 12 to get rid of this warning


 Scale SEOQF with 1.000000e-02/1.000000e-02/1.000000e-01

 Standard Electronic Orientation quadrupole field applied
 Nucleus-field energy     =     0.0000000205 hartrees
 Guess from superposition of atomic densities
 Warning:  Energy on first SCF cycle will be non-variational
 SAD guess density has 196.000000 electrons

 -----------------------------------------------------------------------
  General SCF calculation program by
  Eric Jon Sundstrom, Paul Horn, Yuezhi Mao, Dmitri Zuev, Alec White,
  David Stuck, Shaama M.S., Shane Yost, Joonho Lee, David Small,
  Daniel Levine, Susi Lehtola, Hugh Burton, Evgeny Epifanovsky,
  Bang C. Huynh
 -----------------------------------------------------------------------
 Hartree-Fock
 using 64 threads for integral computing
 -------------------------------------------------------
 OpenMP Integral computing Module                
 Release: version 1.0, May 2013, Q-Chem Inc. Pittsburgh 
 -------------------------------------------------------
 A restricted SCF calculation will be
 performed using DIIS
 SCF converges when DIIS error is below 1.0e-06
 ---------------------------------------
  Cycle       Energy         DIIS error
 ---------------------------------------
    1   -1583.0865503816      1.86e-02  
    2   -1571.1731698924      2.03e-03  
    3   -1571.5118364705      1.55e-03  
    4   -1571.7325595317      2.52e-04  
    5   -1571.7461656247      7.68e-05  
    6   -1571.7475237824      2.93e-05  
    7   -1571.7479170351      1.51e-05  
    8   -1571.7480228333      6.05e-06  
    9   -1571.7480405797      2.78e-06  
   10   -1571.7480440107      1.16e-06  
   11   -1571.7480450443      5.42e-07  Convergence criterion met
 ---------------------------------------
 SCF time:   CPU 6681.29s  wall 262.00s 

************** Final PCM Free Energy Summary **************
 G_electrostatic  =      -0.03189675 hartree =     -20.01551075 kcal/mol
 G_cavitation     =       0.00000000 hartree =       0.00000000 kcal/mol
 G_dispersion     =       0.00000000 hartree =       0.00000000 kcal/mol
 G_repulsion      =       0.00000000 hartree =       0.00000000 kcal/mol
 --------------------------------------------------
 Non-electrostatic Free Energy =       0.00000000 hartree =       0.00000000 kcal/mol
 Total                         =      -0.03189675 hartree =     -20.01551075 kcal/mol
 --------------------------------------------------
 SCF Energy (H0 + V/2)                       =   -1571.74804504 
 Solute Internal Energy (H0)                 =   -1571.71614830 
 Total Free Energy (H0 + V/2 + non-elec)     =   -1571.74804504 hartree
                                             = -986286.78429104 kcal/mol
***********************************************************

 SCF   energy in the final basis set =    -1571.7480450443
 Total energy in the final basis set =    -1571.7480450443


 --------------------------------------------------------------
  Generalized many-body perturbation theory program
  by Joonho Lee, Fazle Rob, Xintian Feng, Evgeny Epifanovsky

 No regularization used 
 (reg. param. = 0.0000e+00)
  (P|Q)^-1/2 Time:  CPU 163.10 s  wall 2.60 s

 In RI-MP2 calculation: 
 # of frozen core orbitals: 31

 Components of the RIMP2 correlation energy:
        aaaa    correlation energy =        -0.6146735514 a.u.
        abab    correlation energy =        -3.4248439867 a.u.
        bbbb    correlation energy =        -0.6146735514 a.u.
        non-Brillouin singles      =        -0.0000000000 a.u.
        total same-spin energy     =        -1.2293471029 a.u.
        total opposite-spin energy =        -3.4248439867 a.u.

 Total  RIMP2   correlation energy =        -4.6541910895 a.u.
        RIMP2         total energy =     -1576.4022361338 a.u.

 RI-MP2 Energy Time:  CPU 1952.65 s  wall 34.25 s
 
 --------------------------------------------------------------
 
                    Orbital Energies (a.u.)
 --------------------------------------------------------------
 
 Alpha MOs
 -- Occupied --
-91.9878 -20.5525 -20.5443 -20.5420 -20.5408 -15.6268 -15.6215 -11.3934
-11.3850 -11.3839 -11.3795 -11.3094 -11.3080 -11.3049 -11.3046 -11.2976
-11.2962 -11.2897 -11.2824 -11.2695 -11.2679 -11.2652 -11.2626 -11.2595
-11.2584 -11.2528 -11.2514  -8.9876  -6.6684  -6.6679  -6.6674  -1.4194
 -1.4125  -1.3971  -1.3916  -1.2620  -1.2556  -1.2298  -1.1868  -1.1529
 -1.1142  -1.0864  -1.0466  -0.9957  -0.9877  -0.9853  -0.9552  -0.9511
 -0.8966  -0.8877  -0.8765  -0.8598  -0.7951  -0.7771  -0.7707  -0.7626
 -0.7428  -0.7174  -0.7045  -0.6918  -0.6811  -0.6719  -0.6666  -0.6573
 -0.6471  -0.6439  -0.6360  -0.6332  -0.6309  -0.6277  -0.6219  -0.6046
 -0.5846  -0.5758  -0.5676  -0.5614  -0.5571  -0.5513  -0.5506  -0.5481
 -0.5468  -0.5436  -0.5203  -0.5160  -0.5086  -0.4826  -0.4753  -0.4619
 -0.4584  -0.4513  -0.4430  -0.4347  -0.4133  -0.4075  -0.3573  -0.3501
 -0.3282  -0.2906
 -- Virtual --
  0.0147   0.0430   0.0889   0.0933   0.1366   0.1498   0.1537   0.1605
  0.1637   0.1730   0.1783   0.1830   0.1856   0.1878   0.1982   0.1983
  0.2048   0.2217   0.2275   0.2295   0.2308   0.2317   0.2329   0.2371
  0.2655   0.2687   0.2906   0.3027   0.3135   0.3198   0.3207   0.3238
  0.3284   0.3397   0.3471   0.3504   0.3559   0.3619   0.3660   0.3716
  0.3722   0.3780   0.3820   0.3823   0.3876   0.3933   0.3984   0.4056
  0.4094   0.4197   0.4242   0.4317   0.4369   0.4390   0.4449   0.4468
  0.4495   0.4550   0.4588   0.4665   0.4679   0.4724   0.4803   0.4910
  0.4924   0.4988   0.5018   0.5079   0.5148   0.5209   0.5264   0.5308
  0.5320   0.5399   0.5473   0.5479   0.5512   0.5575   0.5583   0.5660
  0.5690   0.5731   0.5783   0.5799   0.5886   0.5904   0.5933   0.5974
  0.6001   0.6042   0.6076   0.6112   0.6132   0.6170   0.6228   0.6259
  0.6275   0.6341   0.6351   0.6365   0.6374   0.6416   0.6487   0.6504
  0.6562   0.6585   0.6620   0.6748   0.6800   0.6900   0.6936   0.6994
  0.7022   0.7119   0.7266   0.7299   0.7327   0.7360   0.7527   0.7592
  0.7625   0.7656   0.7698   0.7776   0.7798   0.7859   0.7898   0.7951
  0.8021   0.8059   0.8147   0.8255   0.8268   0.8347   0.8414   0.8450
  0.8507   0.8535   0.8572   0.8649   0.8700   0.8731   0.8781   0.8817
  0.8865   0.8959   0.9025   0.9067   0.9131   0.9164   0.9262   0.9291
  0.9329   0.9427   0.9448   0.9538   0.9604   0.9672   0.9702   0.9730
  0.9747   0.9803   0.9912   0.9953   1.0000   1.0071   1.0113   1.0176
  1.0200   1.0283   1.0324   1.0413   1.0448   1.0505   1.0591   1.0629
  1.0673   1.0681   1.0717   1.0770   1.0865   1.0890   1.0931   1.1007
  1.1052   1.1148   1.1200   1.1259   1.1304   1.1315   1.1409   1.1437
  1.1520   1.1565   1.1619   1.1637   1.1675   1.1723   1.1804   1.1840
  1.1890   1.1970   1.2020   1.2039   1.2105   1.2111   1.2209   1.2276
  1.2287   1.2321   1.2398   1.2438   1.2524   1.2571   1.2623   1.2712
  1.2849   1.2862   1.2985   1.3023   1.3093   1.3227   1.3317   1.3347
  1.3418   1.3494   1.3551   1.3624   1.3675   1.3747   1.3757   1.3880
  1.3893   1.3943   1.3968   1.4058   1.4097   1.4233   1.4342   1.4397
  1.4454   1.4634   1.4689   1.4760   1.4781   1.4806   1.4873   1.4970
  1.5013   1.5039   1.5077   1.5137   1.5264   1.5308   1.5331   1.5388
  1.5414   1.5446   1.5517   1.5558   1.5644   1.5675   1.5719   1.5727
  1.5793   1.5877   1.5949   1.6072   1.6175   1.6248   1.6356   1.6371
  1.6432   1.6540   1.6549   1.6727   1.6754   1.6873   1.6899   1.6952
  1.7002   1.7117   1.7131   1.7293   1.7351   1.7441   1.7526   1.7563
  1.7621   1.7718   1.7733   1.7781   1.7839   1.7964   1.8021   1.8138
  1.8212   1.8304   1.8408   1.8457   1.8478   1.8625   1.8665   1.8718
  1.8746   1.8771   1.8883   1.8977   1.9056   1.9268   1.9342   1.9357
  1.9422   1.9603   1.9685   1.9752   1.9879   1.9945   2.0105   2.0185
  2.0296   2.0418   2.0477   2.0669   2.0882   2.0963   2.1099   2.1228
  2.1312   2.1381   2.1496   2.1632   2.1699   2.1871   2.1984   2.2155
  2.2232   2.2272   2.2425   2.2608   2.2845   2.2909   2.2940   2.3008
  2.3113   2.3233   2.3339   2.3363   2.3516   2.3690   2.3705   2.3890
  2.3999   2.4156   2.4324   2.4409   2.4491   2.4562   2.4600   2.4619
  2.4739   2.4872   2.4931   2.5006   2.5058   2.5290   2.5366   2.5464
  2.5600   2.5610   2.5759   2.5827   2.5853   2.5915   2.6042   2.6117
  2.6250   2.6349   2.6373   2.6409   2.6511   2.6589   2.6671   2.6797
  2.6829   2.6873   2.6928   2.7086   2.7159   2.7177   2.7260   2.7379
  2.7514   2.7521   2.7539   2.7574   2.7669   2.7746   2.7870   2.7885
  2.8173   2.8264   2.8336   2.8392   2.8436   2.8531   2.8579   2.8642
  2.8710   2.8782   2.8816   2.8914   2.8945   2.9025   2.9057   2.9153
  2.9227   2.9231   2.9286   2.9369   2.9464   2.9590   2.9659   2.9768
  2.9811   2.9885   2.9890   2.9968   3.0042   3.0129   3.0182   3.0236
  3.0310   3.0360   3.0444   3.0534   3.0623   3.0718   3.0814   3.0839
  3.0911   3.0999   3.1030   3.1065   3.1089   3.1163   3.1172   3.1287
  3.1336   3.1380   3.1496   3.1531   3.1579   3.1651   3.1672   3.1735
  3.1800   3.1912   3.1932   3.2009   3.2053   3.2079   3.2146   3.2234
  3.2309   3.2319   3.2371   3.2421   3.2481   3.2545   3.2591   3.2646
  3.2695   3.2726   3.2785   3.2889   3.2922   3.2993   3.3015   3.3054
  3.3102   3.3136   3.3214   3.3233   3.3278   3.3313   3.3324   3.3390
  3.3426   3.3458   3.3499   3.3578   3.3636   3.3673   3.3704   3.3718
  3.3790   3.3817   3.3860   3.3914   3.3953   3.3991   3.4016   3.4103
  3.4190   3.4222   3.4265   3.4306   3.4327   3.4397   3.4432   3.4511
  3.4552   3.4587   3.4674   3.4724   3.4734   3.4802   3.4840   3.4900
  3.4932   3.4974   3.5047   3.5087   3.5148   3.5171   3.5209   3.5257
  3.5301   3.5334   3.5385   3.5458   3.5621   3.5652   3.5725   3.5840
  3.5889   3.5948   3.5993   3.6004   3.6112   3.6154   3.6234   3.6255
  3.6291   3.6332   3.6366   3.6425   3.6474   3.6492   3.6580   3.6613
  3.6687   3.6740   3.6790   3.6916   3.6947   3.7029   3.7076   3.7087
  3.7183   3.7228   3.7304   3.7347   3.7423   3.7442   3.7486   3.7497
  3.7603   3.7647   3.7678   3.7760   3.7792   3.7860   3.7930   3.7984
  3.8045   3.8123   3.8153   3.8176   3.8232   3.8296   3.8363   3.8452
  3.8499   3.8556   3.8635   3.8670   3.8753   3.8922   3.8957   3.8993
  3.9056   3.9166   3.9233   3.9338   3.9402   3.9444   3.9479   3.9565
  3.9585   3.9631   3.9645   3.9730   3.9761   3.9781   3.9967   4.0068
  4.0138   4.0225   4.0282   4.0365   4.0397   4.0593   4.0656   4.0758
  4.0855   4.0934   4.1050   4.1120   4.1143   4.1251   4.1338   4.1372
  4.1426   4.1559   4.1638   4.1701   4.1727   4.1815   4.1835   4.1955
  4.2115   4.2167   4.2322   4.2371   4.2408   4.2463   4.2555   4.2580
  4.2683   4.2747   4.2759   4.2870   4.2935   4.2942   4.3032   4.3076
  4.3120   4.3134   4.3225   4.3268   4.3385   4.3399   4.3456   4.3514
  4.3569   4.3648   4.3694   4.3700   4.3760   4.3881   4.3911   4.3948
  4.3990   4.4043   4.4104   4.4178   4.4230   4.4350   4.4473   4.4485
  4.4659   4.4749   4.4878   4.4937   4.5087   4.5115   4.5198   4.5221
  4.5292   4.5369   4.5449   4.5579   4.5659   4.5750   4.5822   4.5871
  4.5928   4.5979   4.5996   4.6071   4.6139   4.6218   4.6300   4.6415
  4.6474   4.6587   4.6631   4.6741   4.6814   4.6948   4.7033   4.7095
  4.7267   4.7345   4.7377   4.7491   4.7678   4.7837   4.7864   4.8019
  4.8117   4.8300   4.8364   4.8404   4.8493   4.8587   4.8729   4.8825
  4.8858   4.8934   4.9095   4.9194   4.9247   4.9468   4.9519   4.9761
  4.9925   4.9991   5.0028   5.0201   5.0209   5.0308   5.0498   5.0615
  5.0724   5.0962   5.1047   5.1160   5.1217   5.1230   5.1271   5.1399
  5.1431   5.1575   5.1673   5.1732   5.1907   5.2082   5.2116   5.2250
  5.2512   5.2628   5.2704   5.2844   5.2891   5.2993   5.3182   5.3285
  5.3315   5.3403   5.3468   5.3539   5.3781   5.3884   5.4036   5.4150
  5.4266   5.4472   5.4687   5.4846   5.4922   5.5013   5.5142   5.5148
  5.5177   5.5256   5.5374   5.5524   5.5574   5.5609   5.5632   5.5682
  5.5790   5.5858   5.5870   5.6081   5.6101   5.6171   5.6240   5.6370
  5.6457   5.6511   5.6592   5.6633   5.6663   5.6742   5.6928   5.6942
  5.7005   5.7031   5.7289   5.7391   5.7428   5.7581   5.7701   5.7808
  5.7833   5.7869   5.8059   5.8319   5.8377   5.8453   5.8886   5.9116
  5.9324   5.9563   5.9617   5.9923   6.0120   6.0254   6.0314   6.0414
  6.0471   6.0688   6.0958   6.1114   6.1231   6.1346   6.1456   6.1837
  6.1961   6.2193   6.2223   6.2254   6.2411   6.2549   6.2627   6.2831
  6.3092   6.3120   6.3239   6.3487   6.3638   6.3827   6.4210   6.4824
  6.5155   6.5331   6.5747   6.5825   6.6034   6.6159   6.6475   6.6595
  6.6740   6.6818   6.8417   6.8500   6.8871   6.9014   6.9043   6.9189
  6.9261   6.9299   7.0992   7.1077   7.1469   7.1911   7.1986   7.2342
  7.3469   7.3512   7.3551   7.3592   7.4743   7.5418   7.5688   7.5811
  7.5847   7.5947   7.6531   7.6704   7.6907   7.7119   8.8198  10.0158
 10.3109  11.3320  11.4883  11.7509  12.0224  12.0588  12.4103  12.4666
 12.8992  13.1933  13.3231  13.5557  13.7582  13.9208  14.0919  14.2893
 14.3260  14.3602  14.4882  14.5724  14.9867  15.6103  15.7904  16.3502
 --------------------------------------------------------------
 
          Ground-State Mulliken Net Atomic Charges

     Atom                 Charge (a.u.)
  ----------------------------------------
      1 C                    -0.084404
      2 C                    -0.031790
      3 C                    -0.110978
      4 C                    -0.120847
      5 H                     0.198754
      6 C                     0.016749
      7 C                     0.121107
      8 C                    -0.087134
      9 C                    -0.178861
     10 C                    -0.100413
     11 C                     0.154189
     12 H                     0.198491
     13 C                     0.343708
     14 C                     0.345416
     15 N                    -0.090238
     16 C                     0.357278
     17 C                     0.345638
     18 N                    -0.093349
     19 O                    -0.494019
     20 O                    -0.506756
     21 O                    -0.501502
     22 O                    -0.471750
     23 C                    -0.204755
     24 H                     0.139507
     25 H                     0.109410
     26 H                     0.108949
     27 C                    -0.196875
     28 H                     0.133222
     29 H                     0.111122
     30 H                     0.112118
     31 C                     0.017698
     32 S                     0.012642
     33 C                    -0.210138
     34 C                    -0.204590
     35 C                    -0.200447
     36 H                     0.185248
     37 H                     0.192759
     38 H                     0.210552
     39 H                     0.137508
     40 H                     0.137824
     41 H                     0.198956
  ----------------------------------------
  Sum of atomic charges =     0.000000

 -----------------------------------------------------------------
                    Cartesian Multipole Moments
 -----------------------------------------------------------------
    Charge (ESU x 10^10)
                 0.0000
    Dipole Moment (Debye)
         X      -0.3255      Y       2.1526      Z      -1.8502
       Tot       2.8571
    Quadrupole Moments (Debye-Ang)
        XX    -195.2528     XY      11.4284     YY    -177.9680
        XZ       0.1886     YZ       1.9078     ZZ    -156.2984
    Octopole Moments (Debye-Ang^2)
       XXX      10.1829    XXY     598.2294    XYY     -46.5340
       YYY    1688.0252    XXZ     -15.9681    XYZ       1.8383
       YYZ     -11.9536    XZZ       6.0866    YZZ     472.0404
       ZZZ     -54.9486
    Hexadecapole Moments (Debye-Ang^3)
      XXXX   -6408.0444   XXXY     -29.6684   XXYY   -4489.5755
      XYYY    1136.0095   YYYY  -18034.1574   XXXZ     -14.1053
      XXYZ     -16.1524   XYYZ       0.9844   YYYZ     -23.0955
      XXZZ   -1077.8188   XYZZ     113.9808   YYZZ   -2646.2905
      XZZZ     -11.7462   YZZZ     -39.9286   ZZZZ    -468.1953
 -----------------------------------------------------------------
 Total job time:  303.25s(wall), 8884.34s(cpu) 
 Wed Sep 27 00:17:25 2023

        *************************************************************
        *                                                           *
        *  Thank you very much for using Q-Chem.  Have a nice day.  *
        *                                                           *
        *************************************************************


0 sent ACK to 0 
now end server 0 ... 
cleanup process ... done
remove work dirs ./qchem1610273.0 -- ./qchem1610273.0
rm -rf ./qchem1610273.0
rm -rf ./qchem1610273
