You are running Q-Chem version: 5.4.0

#
# job setting
#
local host:  exp-3-02
current dir: /expanse/lustre/projects/csd626/rramji/aromodel/PNDIT/Hydrogenated_Rotation_Test
input file:  Dimethyl_Naphthalene_Dicarboximide_Phi_40_Theta_270_Thiophene_Hydrogenated.qcin
output file: 
nprocs     : 1
nthreads   : 64
#
# qchem installation setting
#
QC:          /cm/shared/apps/spack/cpu/opt/spack/linux-centos8-zen2/gcc-10.2.0/qchem-5.4-akfmr7b3t57bfs6qan3padb2wnb2i7cl
QCAUX:       /cm/shared/apps/spack/cpu/opt/spack/linux-centos8-zen2/gcc-10.2.0/qchem-5.4-akfmr7b3t57bfs6qan3padb2wnb2i7cl/qcaux
QCPROG:      /cm/shared/apps/spack/cpu/opt/spack/linux-centos8-zen2/gcc-10.2.0/qchem-5.4-akfmr7b3t57bfs6qan3padb2wnb2i7cl/exe/qcprog.exe
QCPROG_S:    /cm/shared/apps/spack/cpu/opt/spack/linux-centos8-zen2/gcc-10.2.0/qchem-5.4-akfmr7b3t57bfs6qan3padb2wnb2i7cl/exe/qcprog.exe_s
PARALLEL:    -DPARALLEL
QCMPI:       mpich
#
# qchem directory setting
#
qcrun:       qchem1091479
QCSCRATCH:   .
QCLOCALSCR:  
QCTMPDIR:    .
QCFILEPREF:  ./qchem1091479
QCSAVEDIR:   
workdirs:    ./qchem1091479
workdir0:    ./qchem1091479
partmpdirs =  
#
# parallel setting
#
QCRSH:           ssh
QCMPI:           mpich
QCMPIRUN:        /cm/shared/apps/spack/cpu/opt/spack/linux-centos8-zen2/gcc-10.2.0/qchem-5.4-akfmr7b3t57bfs6qan3padb2wnb2i7cl/bin/mpi/mpirun_qchem
QCMACHINEFILE:   ./qchem1091479/hostfile
exp-3-02

#
# env setting
#
exported envs:   QC QCAUX QCSCRATCH QCRUNNAME QCFILEPREF QCPROG QCPROG_S GUIFILE

Running Job 1 of 1 Dimethyl_Naphthalene_Dicarboximide_Phi_40_Theta_270_Thiophene_Hydrogenated.qcin
qchem Dimethyl_Naphthalene_Dicarboximide_Phi_40_Theta_270_Thiophene_Hydrogenated.qcin_1091479.0 ./qchem1091479/ 1
/cm/shared/apps/spack/cpu/opt/spack/linux-centos8-zen2/gcc-10.2.0/qchem-5.4-akfmr7b3t57bfs6qan3padb2wnb2i7cl/bin/mpi/mpirun_qchem -machinefile ./qchem1091479/hostfile -np 1 /cm/shared/apps/spack/cpu/opt/spack/linux-centos8-zen2/gcc-10.2.0/qchem-5.4-akfmr7b3t57bfs6qan3padb2wnb2i7cl/exe/qcprog.exe Dimethyl_Naphthalene_Dicarboximide_Phi_40_Theta_270_Thiophene_Hydrogenated.qcin_1091479.0 ./qchem1091479/

Process 0 of 1 is on exp-3-02 - thread support 0
initial socket setup ...start
initial socket setup ...done 
now start server 0 ... 
                  Welcome to Q-Chem
     A Quantum Leap Into The Future Of Chemistry


 Q-Chem 5.4, Q-Chem, Inc., Pleasanton, CA (2021)

 License issued to: University of California, San Diego (site)

 E. Epifanovsky,  A. T. B. Gilbert,  Xintian Feng,  Joonho Lee,  Yuezhi Mao,  
 N. Mardirossian,  P. Pokhilko,  A. White,  M. Wormit,  M. P. Coons,  
 A. L. Dempwolff,  Zhengting Gan,  D. Hait,  P. R. Horn,  L. D. Jacobson,  
 I. Kaliman,  J. Kussmann,  A. W. Lange,  Ka Un Lao,  D. S. Levine,  Jie Liu,  
 S. C. McKenzie,  A. F. Morrison,  K. Nanda,  F. Plasser,  D. R. Rehn,  
 M. L. Vidal,  Zhi-Qiang You,  Ying Zhu,  B. Alam,  B. Albrecht,  
 A. Aldossary,  E. Alguire,  J. H. Andersen,  D. Barton,  K. Begam,  A. Behn,  
 Y. A. Bernard,  E. J. Berquist,  H. Burton,  A. Carreras,  K. Carter-Fenk,  
 R. Chakraborty,  A. D. Chien,  K. D. Closser,  V. Cofer-Shabica,  
 S. Dasgupta,  Jia Deng,  M. de Wergifosse,  M. Diedenhofen,  Hainam Do,  
 S. Ehlert,  Po-Tung Fang,  S. Fatehi,  Qingguo Feng,  J. Gayvert,  
 Qinghui Ge,  G. Gidofalvi,  M. Goldey,  J. Gomes,  C. Gonzalez-Espinoza,  
 S. Gulania,  A. Gunina,  M. W. D. Hanson-Heine,  P. H. P. Harbach,  
 A. W. Hauser,  M. F. Herbst,  M. Hernandez Vera,  M. Hodecker,  
 Z. C. Holden,  S. Houck,  Xunkun Huang,  Kerwin Hui,  B. C. Huynh,  
 M. Ivanov,  Hyunjun Ji,  Hanjie Jiang,  B. Kaduk,  S. Kaehler,  
 K. Khistyaev,  Jaehoon Kim,  P. Klunzinger,  Z. Koczor-Benda,  
 Joong Hoon Koh,  D. Kosenkov,  L. Koulias,  T. Kowalczyk,  C. M. Krauter,  
 K. Kue,  A. Kunitsa,  T. Kus,  A. Landau,  K. V. Lawler,  D. Lefrancois,  
 S. Lehtola,  Rain Li,  Yi-Pei Li,  Jiashu Liang,  M. Liebenthal,  
 Hung-Hsuan Lin,  You-Sheng Lin,  Fenglai Liu,  Kuan-Yu Liu,  
 M. Loipersberger,  A. Luenser,  A. Manjanath,  P. Manohar,  E. Mansoor,  
 S. F. Manzer,  Shan-Ping Mao,  A. V. Marenich,  T. Markovich,  S. Mason,  
 S. A. Maurer,  P. F. McLaughlin,  M. F. S. J. Menger,  J.-M. Mewes,  
 S. A. Mewes,  P. Morgante,  J. W. Mullinax,  T. S. Nguyen-Beck,  
 K. J. Oosterbaan,  G. Paran,  Alexander C. Paul,  Suranjan K. Paul,  
 F. Pavosevic,  Zheng Pei,  S. Prager,  E. I. Proynov,  E. Ramos,  B. Rana,  
 A. E. Rask,  A. Rettig,  R. M. Richard,  F. Rob,  E. Rossomme,  T. Scheele,  
 M. Scheurer,  M. Schneider,  N. Sergueev,  S. M. Sharada,  W. Skomorowski,  
 D. W. Small,  C. J. Stein,  Yu-Chuan Su,  E. J. Sundstrom,  Zhen Tao,  
 J. Thirman,  T. Tsuchimochi,  N. M. Tubman,  S. P. Veccham,  O. Vydrov,  
 J. Wenzel,  J. Witte,  A. Yamada,  Kun Yao,  S. Yeganeh,  S. R. Yost,  
 A. Zech,  Igor Ying Zhang,  Xing Zhang,  Yu Zhang,  D. Zuev,  
 A. Aspuru-Guzik,  A. T. Bell,  N. A. Besley,  K. B. Bravaya,  B. R. Brooks,  
 D. Casanova,  Jeng-Da Chai,  S. Coriani,  C. J. Cramer,  
 A. E. DePrince, III,  R. A. DiStasio Jr.,  A. Dreuw,  B. D. Dunietz,  
 T. R. Furlani,  W. A. Goddard III,  S. Grimme,  S. Hammes-Schiffer,  
 T. Head-Gordon,  W. J. Hehre,  Chao-Ping Hsu,  T.-C. Jagau,  Yousung Jung,  
 A. Klamt,  Jing Kong,  D. S. Lambrecht,  WanZhen Liang,  N. J. Mayhall,  
 C. W. McCurdy,  J. B. Neaton,  C. Ochsenfeld,  J. A. Parkhill,  R. Peverati,  
 V. A. Rassolov,  Yihan Shao,  L. V. Slipchenko,  T. Stauch,  R. P. Steele,  
 J. E. Subotnik,  A. J. W. Thom,  A. Tkatchenko,  D. G. Truhlar,  
 T. Van Voorhis,  T. A. Wesolowski,  K. B. Whaley,  H. L. Woodcock III,  
 P. M. Zimmerman,  S. Faraji,  P. M. W. Gill,  M. Head-Gordon,  
 J. M. Herbert,  A. I. Krylov

 Contributors to earlier versions of Q-Chem not listed above: 
 R. D. Adamson,  B. Austin,  R. Baer,  J. Baker,  G. J. O. Beran,  
 K. Brandhorst,  S. T. Brown,  E. F. C. Byrd,  A. K. Chakraborty,  
 G. K. L. Chan,  Chun-Min Chang,  Yunqing Chen,  C.-L. Cheng,  
 Siu Hung Chien,  D. M. Chipman,  D. L. Crittenden,  H. Dachsel,  
 R. J. Doerksen,  A. D. Dutoi,  R. G. Edgar,  J. Fosso-Tande,  
 L. Fusti-Molnar,  D. Ghosh,  A. Ghysels,  A. Golubeva-Zadorozhnaya,  
 J. Gonthier,  M. S. Gordon,  S. R. Gwaltney,  G. Hawkins,  J. E. Herr,  
 A. Heyden,  S. Hirata,  E. G. Hohenstein,  G. Kedziora,  F. J. Keil,  
 C. Kelley,  Jihan Kim,  R. A. King,  R. Z. Khaliullin,  P. P. Korambath,  
 W. Kurlancheek,  A. Laurent,  A. M. Lee,  M. S. Lee,  S. V. Levchenko,  
 Ching Yeh Lin,  D. Liotard,  E. Livshits,  R. C. Lochan,  I. Lotan,  
 L. A. Martinez-Martinez,  P. E. Maslen,  N. Nair,  D. P. O'Neill,  
 D. Neuhauser,  E. Neuscamman,  C. M. Oana,  R. Olivares-Amaya,  R. Olson,  
 T. M. Perrine,  B. Peters,  P. A. Pieniazek,  A. Prociuk,  Y. M. Rhee,  
 J. Ritchie,  M. A. Rohrdanz,  E. Rosta,  N. J. Russ,  H. F. Schaefer III,  
 M. W. Schmidt,  N. E. Schultz,  S. Sharma,  N. Shenvi,  C. D. Sherrill,  
 A. C. Simmonett,  A. Sodt,  T. Stein,  D. Stuck,  K. S. Thanthiriwatte,  
 V. Vanovschi,  L. Vogt,  Tao Wang,  A. Warshel,  M. A. Watson,  
 C. F. Williams,  Q. Wu,  X. Xu,  Jun Yang,  W. Zhang,  Yan Zhao

 Please cite Q-Chem as follows:
 Y. Shao et al., Mol. Phys. 113, 184-215 (2015)
 DOI: 10.1080/00268976.2014.952696

 Q-Chem 5.4.0 for Intel X86 EM64T Linux

 Parts of Q-Chem use Armadillo 9.800.1 (Horizon Scraper).
 http://arma.sourceforge.net/

 Q-Chem begins on Sun Sep 24 17:24:07 2023  

 Host: 
0

     Scratch files written to ./qchem1091479//
 May1621 |scratch|qcdevops|jenkins|workspace|build_RNUM    
 Parallel job on  1  processors
 Processing $rem in /cm/shared/apps/spack/cpu/opt/spack/linux-centos8-zen2/gcc-10.2.0/qchem-5.4-akfmr7b3t57bfs6qan3padb2wnb2i7cl/config/preferences:
 Processing $rem in /home/rramji/.qchemrc:
 Symmetry turned off for PCM/SM12/SMD calculation
 Core orbitals will be frozen

 Checking the input file for inconsistencies... 	...done.

 Q-Chem warning in module forms1/BasisType.C, line 2236:

 You are not using the predefined 5D/6D in this basis set.


--------------------------------------------------------------
User input:
--------------------------------------------------------------
$molecule
0 1
C	-0.256927	-6.741404	0.001478
C	-1.562675	-6.155638	0.001603
C	0.827197	-5.791452	0.001931
C	-1.841253	-4.803786	0.001374
H	-2.440709	-6.821518	0.001794
C	0.535488	-4.378638	0.001227
C	-0.794999	-3.838032	0.000872
C	1.580529	-3.413062	0.000658
C	-1.084374	-2.426473	0.000186
C	1.305258	-2.059348	0.000046
C	0.000000	-1.478216	0.000000
H	2.184267	-1.394783	-0.000369
C	2.269719	-6.187987	0.003770
C	3.011152	-3.798164	0.000767
N	3.254617	-5.170003	0.002465
C	-3.275775	-4.424987	0.001433
C	-2.527951	-2.036627	-0.000576
N	-3.513104	-3.049156	0.000400
O	2.661046	-7.353131	0.006623
O	3.934410	-2.986854	-0.000172
O	-4.188059	-5.248946	0.002151
O	-2.940845	-0.878829	-0.002006
C	4.667206	-5.563799	0.003509
H	4.712423	-6.664085	0.004658
H	5.169231	-5.147101	0.897610
H	5.169992	-5.148785	-0.890935
C	-4.904229	-2.587487	-0.000039
H	-5.546833	-3.483329	0.001022
H	-5.095998	-1.964972	-0.894545
H	-5.095858	-1.962932	0.893071
C	0.000000	0.000000	0.000000
S	0.509686	0.607733	1.580530
C	1.562368	1.862312	0.904911
C	0.641367	0.764613	-0.985400
C	1.489926	1.776040	-0.493528
H	0.489914	0.584081	-2.059934
H	2.056124	2.450920	-1.152593
H	2.128395	2.537007	1.556025
H	-0.149881	-7.361589	-0.896779
H	-0.150656	-7.361192	0.900100
H	0.000531	-1.478831	-1.080000
$end

$rem
JOBTYPE		SP
EXCHANGE	HF
CORRELATION	pRIMP2
BASIS		cc-pvtz
METHOD		rimp2
AUX_BASIS	rimp2-cc-pvtz
SOLVENT_METHOD	PCM
PURECART	11111
SYMMETRY	false
MEM_TOTAL	110000
SCF_CONVERGENCE = 6
THRESH=10
GUI = 2
$end



$solvent
dielectric 4.90
$end
--------------------------------------------------------------
 ----------------------------------------------------------------
             Standard Nuclear Orientation (Angstroms)
    I     Atom           X                Y                Z
 ----------------------------------------------------------------
    1      C      -0.2569270000    -6.7414040000     0.0014780000
    2      C      -1.5626750000    -6.1556380000     0.0016030000
    3      C       0.8271970000    -5.7914520000     0.0019310000
    4      C      -1.8412530000    -4.8037860000     0.0013740000
    5      H      -2.4407090000    -6.8215180000     0.0017940000
    6      C       0.5354880000    -4.3786380000     0.0012270000
    7      C      -0.7949990000    -3.8380320000     0.0008720000
    8      C       1.5805290000    -3.4130620000     0.0006580000
    9      C      -1.0843740000    -2.4264730000     0.0001860000
   10      C       1.3052580000    -2.0593480000     0.0000460000
   11      C       0.0000000000    -1.4782160000     0.0000000000
   12      H       2.1842670000    -1.3947830000    -0.0003690000
   13      C       2.2697190000    -6.1879870000     0.0037700000
   14      C       3.0111520000    -3.7981640000     0.0007670000
   15      N       3.2546170000    -5.1700030000     0.0024650000
   16      C      -3.2757750000    -4.4249870000     0.0014330000
   17      C      -2.5279510000    -2.0366270000    -0.0005760000
   18      N      -3.5131040000    -3.0491560000     0.0004000000
   19      O       2.6610460000    -7.3531310000     0.0066230000
   20      O       3.9344100000    -2.9868540000    -0.0001720000
   21      O      -4.1880590000    -5.2489460000     0.0021510000
   22      O      -2.9408450000    -0.8788290000    -0.0020060000
   23      C       4.6672060000    -5.5637990000     0.0035090000
   24      H       4.7124230000    -6.6640850000     0.0046580000
   25      H       5.1692310000    -5.1471010000     0.8976100000
   26      H       5.1699920000    -5.1487850000    -0.8909350000
   27      C      -4.9042290000    -2.5874870000    -0.0000390000
   28      H      -5.5468330000    -3.4833290000     0.0010220000
   29      H      -5.0959980000    -1.9649720000    -0.8945450000
   30      H      -5.0958580000    -1.9629320000     0.8930710000
   31      C       0.0000000000     0.0000000000     0.0000000000
   32      S       0.5096860000     0.6077330000     1.5805300000
   33      C       1.5623680000     1.8623120000     0.9049110000
   34      C       0.6413670000     0.7646130000    -0.9854000000
   35      C       1.4899260000     1.7760400000    -0.4935280000
   36      H       0.4899140000     0.5840810000    -2.0599340000
   37      H       2.0561240000     2.4509200000    -1.1525930000
   38      H       2.1283950000     2.5370070000     1.5560250000
   39      H      -0.1498810000    -7.3615890000    -0.8967790000
   40      H      -0.1506560000    -7.3611920000     0.9001000000
   41      H       0.0005310000    -1.4788310000    -1.0800000000
 ----------------------------------------------------------------
 Nuclear Repulsion Energy =        2559.42034134 hartrees
 There are       98 alpha and       98 beta electrons
 Requested basis set is cc-pVTZ
 There are 356 shells and 1010 basis functions

 Total QAlloc Memory Limit 110000 MB
 Mega-Array Size       188 MB
 MEM_STATIC part       192 MB
 Discretize the solute cavity surface with Lebedev spheres
	Using 110 Lebedev grid points for each H atom
	Using 194 Lebedev grid points for other atoms
	Atomic van der Waals radii will be scaled by 1.20
 Remove points where switching function is < 1.0e-08
 Keep 2587 surface tesserae and discard 4191 interior tesserae
 Molecular Surface Area = 372.641 Angst**2
 Requested basis set is rimp2-cc-pVTZ
 There are 770 shells and 2648 basis functions
 A cutoff of  1.0D-10 yielded  34270 shell pairs
 There are    258908 function pairs (    335013 Cartesian)
 Smallest overlap matrix eigenvalue = 8.74E-06

 Q-Chem warning in module stvman/mkSTV.C, line 323:

 Overlap eigenvalue is smaller than square root of threshold
 Use THRESH >= 12 to get rid of this warning


 Scale SEOQF with 1.000000e-02/1.000000e-02/1.000000e-01

 Standard Electronic Orientation quadrupole field applied
 Nucleus-field energy     =     0.0000000204 hartrees
 Guess from superposition of atomic densities
 Warning:  Energy on first SCF cycle will be non-variational
 SAD guess density has 196.000000 electrons

 -----------------------------------------------------------------------
  General SCF calculation program by
  Eric Jon Sundstrom, Paul Horn, Yuezhi Mao, Dmitri Zuev, Alec White,
  David Stuck, Shaama M.S., Shane Yost, Joonho Lee, David Small,
  Daniel Levine, Susi Lehtola, Hugh Burton, Evgeny Epifanovsky,
  Bang C. Huynh
 -----------------------------------------------------------------------
 Hartree-Fock
 using 64 threads for integral computing
 -------------------------------------------------------
 OpenMP Integral computing Module                
 Release: version 1.0, May 2013, Q-Chem Inc. Pittsburgh 
 -------------------------------------------------------
 A restricted SCF calculation will be
 performed using DIIS
 SCF converges when DIIS error is below 1.0e-06
 ---------------------------------------
  Cycle       Energy         DIIS error
 ---------------------------------------
    1   -1583.1370534250      1.86e-02  
    2   -1571.1538670674      2.02e-03  
    3   -1571.4918662857      1.54e-03  
    4   -1571.7095171481      2.53e-04  
    5   -1571.7232243141      7.71e-05  
    6   -1571.7246039928      2.94e-05  
    7   -1571.7250112042      1.51e-05  
    8   -1571.7251207339      6.19e-06  
    9   -1571.7251394735      2.81e-06  
   10   -1571.7251432031      1.20e-06  
   11   -1571.7251443081      5.41e-07  Convergence criterion met
 ---------------------------------------
 SCF time:   CPU 6799.36s  wall 284.00s 

************** Final PCM Free Energy Summary **************
 G_electrostatic  =      -0.03170990 hartree =     -19.89826301 kcal/mol
 G_cavitation     =       0.00000000 hartree =       0.00000000 kcal/mol
 G_dispersion     =       0.00000000 hartree =       0.00000000 kcal/mol
 G_repulsion      =       0.00000000 hartree =       0.00000000 kcal/mol
 --------------------------------------------------
 Non-electrostatic Free Energy =       0.00000000 hartree =       0.00000000 kcal/mol
 Total                         =      -0.03170990 hartree =     -19.89826301 kcal/mol
 --------------------------------------------------
 SCF Energy (H0 + V/2)                       =   -1571.72514431 
 Solute Internal Energy (H0)                 =   -1571.69343441 
 Total Free Energy (H0 + V/2 + non-elec)     =   -1571.72514431 hartree
                                             = -986272.41386217 kcal/mol
***********************************************************

 SCF   energy in the final basis set =    -1571.7251443081
 Total energy in the final basis set =    -1571.7251443081


 --------------------------------------------------------------
  Generalized many-body perturbation theory program
  by Joonho Lee, Fazle Rob, Xintian Feng, Evgeny Epifanovsky

 No regularization used 
 (reg. param. = 0.0000e+00)
  (P|Q)^-1/2 Time:  CPU 165.13 s  wall 3.03 s

 In RI-MP2 calculation: 
 # of frozen core orbitals: 31

 Components of the RIMP2 correlation energy:
        aaaa    correlation energy =        -0.6159312739 a.u.
        abab    correlation energy =        -3.4287081987 a.u.
        bbbb    correlation energy =        -0.6159312739 a.u.
        non-Brillouin singles      =        -0.0000000000 a.u.
        total same-spin energy     =        -1.2318625478 a.u.
        total opposite-spin energy =        -3.4287081987 a.u.

 Total  RIMP2   correlation energy =        -4.6605707464 a.u.
        RIMP2         total energy =     -1576.3857150545 a.u.

 RI-MP2 Energy Time:  CPU 2768.60 s  wall 45.69 s
 
 --------------------------------------------------------------
 
                    Orbital Energies (a.u.)
 --------------------------------------------------------------
 
 Alpha MOs
 -- Occupied --
-91.9889 -20.5521 -20.5437 -20.5411 -20.5402 -15.6262 -15.6208 -11.3926
-11.3843 -11.3829 -11.3788 -11.3076 -11.3051 -11.3036 -11.3022 -11.2945
-11.2916 -11.2890 -11.2864 -11.2677 -11.2667 -11.2645 -11.2639 -11.2623
-11.2592 -11.2541 -11.2516  -8.9890  -6.6698  -6.6691  -6.6687  -1.4188
 -1.4118  -1.3965  -1.3909  -1.2613  -1.2549  -1.2299  -1.1897  -1.1527
 -1.1128  -1.0847  -1.0453  -0.9977  -0.9893  -0.9870  -0.9547  -0.9495
 -0.8958  -0.8863  -0.8751  -0.8579  -0.7946  -0.7770  -0.7698  -0.7648
 -0.7426  -0.7168  -0.7041  -0.6909  -0.6820  -0.6711  -0.6659  -0.6567
 -0.6462  -0.6429  -0.6352  -0.6331  -0.6300  -0.6266  -0.6209  -0.6044
 -0.5832  -0.5769  -0.5707  -0.5608  -0.5563  -0.5508  -0.5503  -0.5476
 -0.5467  -0.5430  -0.5224  -0.5110  -0.5036  -0.4825  -0.4748  -0.4618
 -0.4583  -0.4506  -0.4422  -0.4336  -0.4128  -0.4069  -0.3610  -0.3474
 -0.3304  -0.2885
 -- Virtual --
  0.0162   0.0441   0.0704   0.0923   0.1396   0.1502   0.1522   0.1609
  0.1639   0.1724   0.1785   0.1815   0.1852   0.1878   0.1990   0.2018
  0.2053   0.2212   0.2265   0.2294   0.2307   0.2312   0.2326   0.2375
  0.2661   0.2691   0.2953   0.3034   0.3108   0.3170   0.3208   0.3247
  0.3305   0.3402   0.3447   0.3493   0.3554   0.3625   0.3636   0.3654
  0.3722   0.3759   0.3807   0.3833   0.3894   0.3998   0.4003   0.4058
  0.4071   0.4222   0.4235   0.4317   0.4350   0.4427   0.4449   0.4488
  0.4493   0.4566   0.4610   0.4634   0.4713   0.4774   0.4843   0.4857
  0.4928   0.4993   0.5054   0.5089   0.5127   0.5166   0.5226   0.5293
  0.5340   0.5412   0.5432   0.5508   0.5549   0.5567   0.5606   0.5681
  0.5712   0.5725   0.5784   0.5806   0.5867   0.5910   0.5944   0.5952
  0.6001   0.6049   0.6085   0.6095   0.6176   0.6192   0.6234   0.6260
  0.6309   0.6345   0.6360   0.6373   0.6423   0.6473   0.6484   0.6504
  0.6556   0.6596   0.6719   0.6751   0.6818   0.6871   0.6931   0.7010
  0.7055   0.7123   0.7260   0.7283   0.7366   0.7395   0.7450   0.7589
  0.7636   0.7680   0.7718   0.7729   0.7820   0.7882   0.7917   0.7983
  0.8017   0.8031   0.8159   0.8214   0.8328   0.8367   0.8422   0.8450
  0.8472   0.8508   0.8587   0.8644   0.8711   0.8745   0.8775   0.8841
  0.8889   0.8933   0.9029   0.9083   0.9164   0.9191   0.9269   0.9322
  0.9347   0.9362   0.9432   0.9539   0.9612   0.9699   0.9768   0.9785
  0.9829   0.9875   0.9919   0.9993   1.0050   1.0099   1.0108   1.0146
  1.0247   1.0272   1.0368   1.0441   1.0517   1.0578   1.0618   1.0653
  1.0668   1.0692   1.0741   1.0781   1.0903   1.0905   1.0937   1.1047
  1.1073   1.1158   1.1207   1.1256   1.1340   1.1345   1.1409   1.1481
  1.1522   1.1536   1.1621   1.1676   1.1706   1.1728   1.1781   1.1869
  1.1902   1.1982   1.2011   1.2049   1.2081   1.2141   1.2189   1.2296
  1.2316   1.2388   1.2472   1.2485   1.2553   1.2611   1.2722   1.2766
  1.2827   1.2904   1.3003   1.3110   1.3135   1.3235   1.3320   1.3365
  1.3494   1.3528   1.3560   1.3633   1.3693   1.3766   1.3818   1.3897
  1.3916   1.3973   1.4007   1.4119   1.4192   1.4280   1.4325   1.4419
  1.4475   1.4611   1.4676   1.4756   1.4789   1.4820   1.4901   1.4995
  1.5048   1.5076   1.5109   1.5162   1.5196   1.5274   1.5327   1.5380
  1.5431   1.5462   1.5505   1.5548   1.5598   1.5692   1.5731   1.5774
  1.5870   1.5923   1.5967   1.6067   1.6205   1.6262   1.6334   1.6378
  1.6432   1.6522   1.6581   1.6599   1.6743   1.6842   1.6888   1.6898
  1.6980   1.7009   1.7163   1.7192   1.7399   1.7507   1.7533   1.7538
  1.7625   1.7698   1.7805   1.7841   1.7920   1.8040   1.8084   1.8199
  1.8261   1.8319   1.8383   1.8465   1.8507   1.8639   1.8673   1.8708
  1.8717   1.8810   1.8849   1.8922   1.9001   1.9215   1.9304   1.9473
  1.9541   1.9646   1.9725   1.9800   1.9828   1.9996   2.0046   2.0156
  2.0278   2.0318   2.0449   2.0624   2.0789   2.1008   2.1118   2.1187
  2.1358   2.1384   2.1479   2.1608   2.1706   2.1835   2.2021   2.2127
  2.2169   2.2262   2.2608   2.2661   2.2858   2.2947   2.2962   2.3033
  2.3073   2.3188   2.3304   2.3411   2.3524   2.3672   2.3747   2.3878
  2.4152   2.4246   2.4272   2.4400   2.4422   2.4570   2.4606   2.4703
  2.4767   2.4809   2.4869   2.5028   2.5043   2.5384   2.5449   2.5576
  2.5605   2.5755   2.5811   2.5856   2.5953   2.6030   2.6133   2.6154
  2.6252   2.6344   2.6402   2.6496   2.6540   2.6659   2.6758   2.6821
  2.6844   2.6885   2.6979   2.7061   2.7150   2.7191   2.7368   2.7401
  2.7477   2.7492   2.7598   2.7623   2.7739   2.7785   2.7926   2.8044
  2.8188   2.8329   2.8355   2.8435   2.8525   2.8577   2.8593   2.8724
  2.8786   2.8801   2.8864   2.8912   2.8968   2.9009   2.9078   2.9157
  2.9238   2.9270   2.9361   2.9485   2.9533   2.9574   2.9636   2.9745
  2.9795   2.9833   2.9934   3.0013   3.0033   3.0141   3.0148   3.0236
  3.0318   3.0363   3.0482   3.0493   3.0585   3.0727   3.0745   3.0838
  3.0932   3.0992   3.1031   3.1067   3.1087   3.1113   3.1173   3.1232
  3.1345   3.1392   3.1491   3.1525   3.1574   3.1668   3.1717   3.1766
  3.1831   3.1918   3.1937   3.2010   3.2058   3.2105   3.2179   3.2282
  3.2303   3.2347   3.2420   3.2456   3.2520   3.2577   3.2620   3.2640
  3.2669   3.2712   3.2760   3.2832   3.2950   3.2983   3.3017   3.3083
  3.3114   3.3137   3.3172   3.3189   3.3273   3.3298   3.3371   3.3404
  3.3452   3.3471   3.3526   3.3547   3.3573   3.3647   3.3713   3.3778
  3.3807   3.3818   3.3869   3.3962   3.3993   3.4032   3.4117   3.4147
  3.4166   3.4236   3.4291   3.4306   3.4334   3.4381   3.4414   3.4465
  3.4505   3.4613   3.4661   3.4737   3.4775   3.4800   3.4829   3.4881
  3.4986   3.5007   3.5067   3.5104   3.5154   3.5191   3.5203   3.5237
  3.5293   3.5400   3.5492   3.5586   3.5609   3.5708   3.5826   3.5853
  3.5905   3.5924   3.6019   3.6081   3.6121   3.6151   3.6219   3.6306
  3.6307   3.6341   3.6366   3.6430   3.6450   3.6518   3.6556   3.6601
  3.6665   3.6752   3.6869   3.6909   3.6965   3.7047   3.7098   3.7142
  3.7241   3.7331   3.7345   3.7365   3.7418   3.7497   3.7527   3.7596
  3.7627   3.7672   3.7724   3.7778   3.7916   3.7975   3.8006   3.8071
  3.8127   3.8135   3.8191   3.8224   3.8287   3.8310   3.8409   3.8453
  3.8528   3.8602   3.8634   3.8795   3.8814   3.8860   3.8984   3.9063
  3.9119   3.9216   3.9270   3.9382   3.9407   3.9453   3.9483   3.9507
  3.9608   3.9653   3.9750   3.9771   3.9808   3.9839   4.0004   4.0094
  4.0159   4.0261   4.0362   4.0399   4.0499   4.0632   4.0657   4.0687
  4.0796   4.0949   4.1118   4.1161   4.1233   4.1247   4.1395   4.1434
  4.1482   4.1593   4.1665   4.1743   4.1750   4.1829   4.1932   4.2083
  4.2128   4.2255   4.2322   4.2416   4.2427   4.2471   4.2598   4.2652
  4.2685   4.2728   4.2813   4.2917   4.2975   4.2989   4.3089   4.3101
  4.3162   4.3194   4.3206   4.3324   4.3372   4.3424   4.3461   4.3494
  4.3632   4.3675   4.3698   4.3705   4.3765   4.3836   4.3850   4.3925
  4.3983   4.4057   4.4160   4.4249   4.4302   4.4311   4.4498   4.4533
  4.4662   4.4736   4.4871   4.4975   4.5110   4.5168   4.5222   4.5254
  4.5309   4.5365   4.5446   4.5610   4.5751   4.5791   4.5848   4.5868
  4.5919   4.5968   4.6009   4.6050   4.6142   4.6212   4.6320   4.6423
  4.6528   4.6579   4.6667   4.6792   4.6836   4.6962   4.7073   4.7119
  4.7319   4.7374   4.7407   4.7502   4.7721   4.7845   4.7955   4.8043
  4.8071   4.8208   4.8402   4.8459   4.8495   4.8588   4.8677   4.8811
  4.8842   4.8958   4.9026   4.9208   4.9271   4.9449   4.9670   4.9755
  4.9880   5.0033   5.0102   5.0214   5.0346   5.0416   5.0515   5.0569
  5.0729   5.0984   5.1148   5.1185   5.1218   5.1254   5.1323   5.1401
  5.1455   5.1562   5.1652   5.1723   5.1894   5.2094   5.2184   5.2306
  5.2472   5.2630   5.2752   5.2832   5.2876   5.3072   5.3217   5.3273
  5.3307   5.3371   5.3505   5.3646   5.3800   5.4027   5.4054   5.4169
  5.4261   5.4478   5.4708   5.4742   5.4921   5.5004   5.5146   5.5153
  5.5179   5.5311   5.5401   5.5516   5.5579   5.5616   5.5672   5.5774
  5.5796   5.5862   5.5882   5.6098   5.6119   5.6127   5.6241   5.6446
  5.6487   5.6530   5.6602   5.6648   5.6669   5.6740   5.6931   5.6953
  5.6961   5.7076   5.7271   5.7359   5.7456   5.7601   5.7656   5.7712
  5.7821   5.7879   5.7966   5.8271   5.8321   5.8483   5.8927   5.9031
  5.9200   5.9515   5.9605   5.9861   5.9925   6.0194   6.0315   6.0365
  6.0420   6.0502   6.1043   6.1120   6.1237   6.1316   6.1468   6.1832
  6.1926   6.2194   6.2205   6.2258   6.2406   6.2548   6.2673   6.2845
  6.3106   6.3133   6.3246   6.3479   6.3660   6.3834   6.3949   6.4838
  6.5181   6.5349   6.5744   6.5833   6.5849   6.6121   6.6165   6.6601
  6.6748   6.6813   6.8429   6.8506   6.8891   6.9018   6.9050   6.9211
  6.9269   6.9307   7.1000   7.1081   7.1471   7.1915   7.1988   7.2352
  7.3474   7.3519   7.3557   7.3598   7.4757   7.5421   7.5700   7.5818
  7.5850   7.5960   7.6543   7.6744   7.6925   7.7140   8.8104  10.0280
 10.3177  11.3405  11.4851  11.7747  11.9978  12.2072  12.4249  12.4726
 12.8889  13.1899  13.3458  13.5579  13.7614  13.9227  14.0967  14.2931
 14.3254  14.3643  14.4825  14.5863  15.0001  15.6125  15.7985  16.3492
 --------------------------------------------------------------
 
          Ground-State Mulliken Net Atomic Charges

     Atom                 Charge (a.u.)
  ----------------------------------------
      1 C                    -0.086014
      2 C                    -0.034537
      3 C                    -0.110950
      4 C                    -0.119424
      5 H                     0.197963
      6 C                     0.020054
      7 C                     0.122556
      8 C                    -0.112761
      9 C                    -0.192622
     10 C                    -0.090321
     11 C                     0.137167
     12 H                     0.200648
     13 C                     0.344076
     14 C                     0.342148
     15 N                    -0.089630
     16 C                     0.356046
     17 C                     0.352535
     18 N                    -0.091772
     19 O                    -0.495349
     20 O                    -0.508059
     21 O                    -0.501885
     22 O                    -0.469117
     23 C                    -0.205158
     24 H                     0.139471
     25 H                     0.109144
     26 H                     0.108676
     27 C                    -0.197616
     28 H                     0.133137
     29 H                     0.110965
     30 H                     0.111807
     31 C                     0.025618
     32 S                     0.014450
     33 C                    -0.186240
     34 C                    -0.206605
     35 C                    -0.192901
     36 H                     0.187210
     37 H                     0.194784
     38 H                     0.212491
     39 H                     0.136541
     40 H                     0.136871
     41 H                     0.196602
  ----------------------------------------
  Sum of atomic charges =     0.000000

 -----------------------------------------------------------------
                    Cartesian Multipole Moments
 -----------------------------------------------------------------
    Charge (ESU x 10^10)
                 0.0000
    Dipole Moment (Debye)
         X       0.7012      Y       2.5366      Z      -1.8133
       Tot       3.1960
    Quadrupole Moments (Debye-Ang)
        XX    -191.5389     XY      14.6515     YY    -183.8444
        XZ       0.5680     YZ       1.8746     ZZ    -155.9788
    Octopole Moments (Debye-Ang^2)
       XXX     -36.3781    XXY     623.4677    XYY     -59.3425
       YYY    1716.4020    XXZ     -12.9092    XYZ       4.0923
       YYZ     -13.9845    XZZ      -7.4585    YZZ     480.1300
       ZZZ     -55.0800
    Hexadecapole Moments (Debye-Ang^3)
      XXXX   -6591.0731   XXXY     -62.5909   XXYY   -4468.5506
      XYYY    1077.9484   YYYY  -18033.3626   XXXZ     -26.7961
      XXYZ      -4.8837   XYYZ      -1.1824   YYYZ     -23.0201
      XXZZ   -1094.3530   XYZZ     102.8053   YYZZ   -2631.3705
      XZZZ     -28.1287   YZZZ     -31.7565   ZZZZ    -466.6230
 -----------------------------------------------------------------
 Total job time:  334.84s(wall), 9705.73s(cpu) 
 Sun Sep 24 17:29:42 2023

        *************************************************************
        *                                                           *
        *  Thank you very much for using Q-Chem.  Have a nice day.  *
        *                                                           *
        *************************************************************


0 sent ACK to 0 
now end server 0 ... 
cleanup process ... done
remove work dirs ./qchem1091479.0 -- ./qchem1091479.0
rm -rf ./qchem1091479.0
rm -rf ./qchem1091479
