You are running Q-Chem version: 5.4.0

#
# job setting
#
local host:  exp-4-53
current dir: /expanse/lustre/projects/csd626/rramji/aromodel/PNDIT/Hydrogenated_Rotation_Test
input file:  Dimethyl_Naphthalene_Dicarboximide_Phi_15_Theta_120_Thiophene_Hydrogenated.qcin
output file: 
nprocs     : 1
nthreads   : 64
#
# qchem installation setting
#
QC:          /cm/shared/apps/spack/cpu/opt/spack/linux-centos8-zen2/gcc-10.2.0/qchem-5.4-akfmr7b3t57bfs6qan3padb2wnb2i7cl
QCAUX:       /cm/shared/apps/spack/cpu/opt/spack/linux-centos8-zen2/gcc-10.2.0/qchem-5.4-akfmr7b3t57bfs6qan3padb2wnb2i7cl/qcaux
QCPROG:      /cm/shared/apps/spack/cpu/opt/spack/linux-centos8-zen2/gcc-10.2.0/qchem-5.4-akfmr7b3t57bfs6qan3padb2wnb2i7cl/exe/qcprog.exe
QCPROG_S:    /cm/shared/apps/spack/cpu/opt/spack/linux-centos8-zen2/gcc-10.2.0/qchem-5.4-akfmr7b3t57bfs6qan3padb2wnb2i7cl/exe/qcprog.exe_s
PARALLEL:    -DPARALLEL
QCMPI:       mpich
#
# qchem directory setting
#
qcrun:       qchem1595957
QCSCRATCH:   .
QCLOCALSCR:  
QCTMPDIR:    .
QCFILEPREF:  ./qchem1595957
QCSAVEDIR:   
workdirs:    ./qchem1595957
workdir0:    ./qchem1595957
partmpdirs =  
#
# parallel setting
#
QCRSH:           ssh
QCMPI:           mpich
QCMPIRUN:        /cm/shared/apps/spack/cpu/opt/spack/linux-centos8-zen2/gcc-10.2.0/qchem-5.4-akfmr7b3t57bfs6qan3padb2wnb2i7cl/bin/mpi/mpirun_qchem
QCMACHINEFILE:   ./qchem1595957/hostfile
exp-4-53

#
# env setting
#
exported envs:   QC QCAUX QCSCRATCH QCRUNNAME QCFILEPREF QCPROG QCPROG_S GUIFILE

Running Job 1 of 1 Dimethyl_Naphthalene_Dicarboximide_Phi_15_Theta_120_Thiophene_Hydrogenated.qcin
qchem Dimethyl_Naphthalene_Dicarboximide_Phi_15_Theta_120_Thiophene_Hydrogenated.qcin_1595957.0 ./qchem1595957/ 1
/cm/shared/apps/spack/cpu/opt/spack/linux-centos8-zen2/gcc-10.2.0/qchem-5.4-akfmr7b3t57bfs6qan3padb2wnb2i7cl/bin/mpi/mpirun_qchem -machinefile ./qchem1595957/hostfile -np 1 /cm/shared/apps/spack/cpu/opt/spack/linux-centos8-zen2/gcc-10.2.0/qchem-5.4-akfmr7b3t57bfs6qan3padb2wnb2i7cl/exe/qcprog.exe Dimethyl_Naphthalene_Dicarboximide_Phi_15_Theta_120_Thiophene_Hydrogenated.qcin_1595957.0 ./qchem1595957/

Process 0 of 1 is on exp-4-53 - thread support 0
initial socket setup ...start
initial socket setup ...done 
now start server 0 ... 
                  Welcome to Q-Chem
     A Quantum Leap Into The Future Of Chemistry


 Q-Chem 5.4, Q-Chem, Inc., Pleasanton, CA (2021)

 License issued to: University of California, San Diego (site)

 E. Epifanovsky,  A. T. B. Gilbert,  Xintian Feng,  Joonho Lee,  Yuezhi Mao,  
 N. Mardirossian,  P. Pokhilko,  A. White,  M. Wormit,  M. P. Coons,  
 A. L. Dempwolff,  Zhengting Gan,  D. Hait,  P. R. Horn,  L. D. Jacobson,  
 I. Kaliman,  J. Kussmann,  A. W. Lange,  Ka Un Lao,  D. S. Levine,  Jie Liu,  
 S. C. McKenzie,  A. F. Morrison,  K. Nanda,  F. Plasser,  D. R. Rehn,  
 M. L. Vidal,  Zhi-Qiang You,  Ying Zhu,  B. Alam,  B. Albrecht,  
 A. Aldossary,  E. Alguire,  J. H. Andersen,  D. Barton,  K. Begam,  A. Behn,  
 Y. A. Bernard,  E. J. Berquist,  H. Burton,  A. Carreras,  K. Carter-Fenk,  
 R. Chakraborty,  A. D. Chien,  K. D. Closser,  V. Cofer-Shabica,  
 S. Dasgupta,  Jia Deng,  M. de Wergifosse,  M. Diedenhofen,  Hainam Do,  
 S. Ehlert,  Po-Tung Fang,  S. Fatehi,  Qingguo Feng,  J. Gayvert,  
 Qinghui Ge,  G. Gidofalvi,  M. Goldey,  J. Gomes,  C. Gonzalez-Espinoza,  
 S. Gulania,  A. Gunina,  M. W. D. Hanson-Heine,  P. H. P. Harbach,  
 A. W. Hauser,  M. F. Herbst,  M. Hernandez Vera,  M. Hodecker,  
 Z. C. Holden,  S. Houck,  Xunkun Huang,  Kerwin Hui,  B. C. Huynh,  
 M. Ivanov,  Hyunjun Ji,  Hanjie Jiang,  B. Kaduk,  S. Kaehler,  
 K. Khistyaev,  Jaehoon Kim,  P. Klunzinger,  Z. Koczor-Benda,  
 Joong Hoon Koh,  D. Kosenkov,  L. Koulias,  T. Kowalczyk,  C. M. Krauter,  
 K. Kue,  A. Kunitsa,  T. Kus,  A. Landau,  K. V. Lawler,  D. Lefrancois,  
 S. Lehtola,  Rain Li,  Yi-Pei Li,  Jiashu Liang,  M. Liebenthal,  
 Hung-Hsuan Lin,  You-Sheng Lin,  Fenglai Liu,  Kuan-Yu Liu,  
 M. Loipersberger,  A. Luenser,  A. Manjanath,  P. Manohar,  E. Mansoor,  
 S. F. Manzer,  Shan-Ping Mao,  A. V. Marenich,  T. Markovich,  S. Mason,  
 S. A. Maurer,  P. F. McLaughlin,  M. F. S. J. Menger,  J.-M. Mewes,  
 S. A. Mewes,  P. Morgante,  J. W. Mullinax,  T. S. Nguyen-Beck,  
 K. J. Oosterbaan,  G. Paran,  Alexander C. Paul,  Suranjan K. Paul,  
 F. Pavosevic,  Zheng Pei,  S. Prager,  E. I. Proynov,  E. Ramos,  B. Rana,  
 A. E. Rask,  A. Rettig,  R. M. Richard,  F. Rob,  E. Rossomme,  T. Scheele,  
 M. Scheurer,  M. Schneider,  N. Sergueev,  S. M. Sharada,  W. Skomorowski,  
 D. W. Small,  C. J. Stein,  Yu-Chuan Su,  E. J. Sundstrom,  Zhen Tao,  
 J. Thirman,  T. Tsuchimochi,  N. M. Tubman,  S. P. Veccham,  O. Vydrov,  
 J. Wenzel,  J. Witte,  A. Yamada,  Kun Yao,  S. Yeganeh,  S. R. Yost,  
 A. Zech,  Igor Ying Zhang,  Xing Zhang,  Yu Zhang,  D. Zuev,  
 A. Aspuru-Guzik,  A. T. Bell,  N. A. Besley,  K. B. Bravaya,  B. R. Brooks,  
 D. Casanova,  Jeng-Da Chai,  S. Coriani,  C. J. Cramer,  
 A. E. DePrince, III,  R. A. DiStasio Jr.,  A. Dreuw,  B. D. Dunietz,  
 T. R. Furlani,  W. A. Goddard III,  S. Grimme,  S. Hammes-Schiffer,  
 T. Head-Gordon,  W. J. Hehre,  Chao-Ping Hsu,  T.-C. Jagau,  Yousung Jung,  
 A. Klamt,  Jing Kong,  D. S. Lambrecht,  WanZhen Liang,  N. J. Mayhall,  
 C. W. McCurdy,  J. B. Neaton,  C. Ochsenfeld,  J. A. Parkhill,  R. Peverati,  
 V. A. Rassolov,  Yihan Shao,  L. V. Slipchenko,  T. Stauch,  R. P. Steele,  
 J. E. Subotnik,  A. J. W. Thom,  A. Tkatchenko,  D. G. Truhlar,  
 T. Van Voorhis,  T. A. Wesolowski,  K. B. Whaley,  H. L. Woodcock III,  
 P. M. Zimmerman,  S. Faraji,  P. M. W. Gill,  M. Head-Gordon,  
 J. M. Herbert,  A. I. Krylov

 Contributors to earlier versions of Q-Chem not listed above: 
 R. D. Adamson,  B. Austin,  R. Baer,  J. Baker,  G. J. O. Beran,  
 K. Brandhorst,  S. T. Brown,  E. F. C. Byrd,  A. K. Chakraborty,  
 G. K. L. Chan,  Chun-Min Chang,  Yunqing Chen,  C.-L. Cheng,  
 Siu Hung Chien,  D. M. Chipman,  D. L. Crittenden,  H. Dachsel,  
 R. J. Doerksen,  A. D. Dutoi,  R. G. Edgar,  J. Fosso-Tande,  
 L. Fusti-Molnar,  D. Ghosh,  A. Ghysels,  A. Golubeva-Zadorozhnaya,  
 J. Gonthier,  M. S. Gordon,  S. R. Gwaltney,  G. Hawkins,  J. E. Herr,  
 A. Heyden,  S. Hirata,  E. G. Hohenstein,  G. Kedziora,  F. J. Keil,  
 C. Kelley,  Jihan Kim,  R. A. King,  R. Z. Khaliullin,  P. P. Korambath,  
 W. Kurlancheek,  A. Laurent,  A. M. Lee,  M. S. Lee,  S. V. Levchenko,  
 Ching Yeh Lin,  D. Liotard,  E. Livshits,  R. C. Lochan,  I. Lotan,  
 L. A. Martinez-Martinez,  P. E. Maslen,  N. Nair,  D. P. O'Neill,  
 D. Neuhauser,  E. Neuscamman,  C. M. Oana,  R. Olivares-Amaya,  R. Olson,  
 T. M. Perrine,  B. Peters,  P. A. Pieniazek,  A. Prociuk,  Y. M. Rhee,  
 J. Ritchie,  M. A. Rohrdanz,  E. Rosta,  N. J. Russ,  H. F. Schaefer III,  
 M. W. Schmidt,  N. E. Schultz,  S. Sharma,  N. Shenvi,  C. D. Sherrill,  
 A. C. Simmonett,  A. Sodt,  T. Stein,  D. Stuck,  K. S. Thanthiriwatte,  
 V. Vanovschi,  L. Vogt,  Tao Wang,  A. Warshel,  M. A. Watson,  
 C. F. Williams,  Q. Wu,  X. Xu,  Jun Yang,  W. Zhang,  Yan Zhao

 Please cite Q-Chem as follows:
 Y. Shao et al., Mol. Phys. 113, 184-215 (2015)
 DOI: 10.1080/00268976.2014.952696

 Q-Chem 5.4.0 for Intel X86 EM64T Linux

 Parts of Q-Chem use Armadillo 9.800.1 (Horizon Scraper).
 http://arma.sourceforge.net/

 Q-Chem begins on Tue Sep 26 22:54:23 2023  

 Host: 
0

     Scratch files written to ./qchem1595957//
 May1621 |scratch|qcdevops|jenkins|workspace|build_RNUM    
 Parallel job on  1  processors
 Processing $rem in /cm/shared/apps/spack/cpu/opt/spack/linux-centos8-zen2/gcc-10.2.0/qchem-5.4-akfmr7b3t57bfs6qan3padb2wnb2i7cl/config/preferences:
 Processing $rem in /home/rramji/.qchemrc:
 Symmetry turned off for PCM/SM12/SMD calculation
 Core orbitals will be frozen

 Checking the input file for inconsistencies... 	...done.

 Q-Chem warning in module forms1/BasisType.C, line 2236:

 You are not using the predefined 5D/6D in this basis set.


--------------------------------------------------------------
User input:
--------------------------------------------------------------
$molecule
0 1
C	0.223244	-6.741404	0.127184
C	1.354118	-6.155638	0.779949
C	-0.715408	-5.791452	-0.415271
C	1.595259	-4.803786	0.919437
H	2.114613	-6.821518	1.218801
C	-0.463133	-4.378638	-0.268806
C	0.688925	-3.838032	0.396744
C	-1.368449	-3.413062	-0.790835
C	0.939189	-2.426473	0.542026
C	-1.130363	-2.059348	-0.652669
C	0.000000	-1.478216	0.000000
H	-1.891815	-1.394783	-1.091814
C	-1.963749	-6.187987	-1.138124
C	-2.607351	-3.798164	-1.506241
N	-2.817348	-5.170003	-1.629443
C	2.837621	-4.424987	1.636646
C	2.188982	-2.036627	1.264474
N	3.042637	-3.049156	1.756205
O	-2.301222	-7.353131	-1.336258
O	-3.407386	-2.986854	-1.967056
O	3.628041	-5.248946	2.092167
O	2.545844	-0.878829	1.472160
C	-4.040164	-5.563799	-2.336642
H	-4.078749	-6.664085	-2.360245
H	-4.027880	-5.147101	-3.361968
H	-4.922811	-5.148785	-1.813424
C	4.247167	-2.587487	2.452149
H	4.804209	-3.483329	2.772531
H	3.965991	-1.964972	3.322697
H	4.859678	-1.962932	1.774507
C	0.000000	0.000000	0.000000
S	0.205093	0.766196	1.580530
C	0.628939	2.348114	0.904911
C	0.258137	0.964028	-0.985400
C	0.599745	2.239309	-0.493528
H	0.197169	0.736404	-2.059934
H	0.827678	3.090243	-1.152593
H	0.856796	3.198808	1.556025
H	-0.318588	-7.361589	0.851574
H	0.580522	-7.361192	-0.704181
H	-0.540459	-1.478831	0.935042
$end

$rem
JOBTYPE		SP
EXCHANGE	HF
CORRELATION	pRIMP2
BASIS		cc-pvtz
METHOD		rimp2
AUX_BASIS	rimp2-cc-pvtz
SOLVENT_METHOD	PCM
PURECART	11111
SYMMETRY	false
MEM_TOTAL	110000
SCF_CONVERGENCE = 6
THRESH=10
GUI = 2
$end



$solvent
dielectric 4.90
$end
--------------------------------------------------------------
 ----------------------------------------------------------------
             Standard Nuclear Orientation (Angstroms)
    I     Atom           X                Y                Z
 ----------------------------------------------------------------
    1      C       0.2232440000    -6.7414040000     0.1271840000
    2      C       1.3541180000    -6.1556380000     0.7799490000
    3      C      -0.7154080000    -5.7914520000    -0.4152710000
    4      C       1.5952590000    -4.8037860000     0.9194370000
    5      H       2.1146130000    -6.8215180000     1.2188010000
    6      C      -0.4631330000    -4.3786380000    -0.2688060000
    7      C       0.6889250000    -3.8380320000     0.3967440000
    8      C      -1.3684490000    -3.4130620000    -0.7908350000
    9      C       0.9391890000    -2.4264730000     0.5420260000
   10      C      -1.1303630000    -2.0593480000    -0.6526690000
   11      C       0.0000000000    -1.4782160000     0.0000000000
   12      H      -1.8918150000    -1.3947830000    -1.0918140000
   13      C      -1.9637490000    -6.1879870000    -1.1381240000
   14      C      -2.6073510000    -3.7981640000    -1.5062410000
   15      N      -2.8173480000    -5.1700030000    -1.6294430000
   16      C       2.8376210000    -4.4249870000     1.6366460000
   17      C       2.1889820000    -2.0366270000     1.2644740000
   18      N       3.0426370000    -3.0491560000     1.7562050000
   19      O      -2.3012220000    -7.3531310000    -1.3362580000
   20      O      -3.4073860000    -2.9868540000    -1.9670560000
   21      O       3.6280410000    -5.2489460000     2.0921670000
   22      O       2.5458440000    -0.8788290000     1.4721600000
   23      C      -4.0401640000    -5.5637990000    -2.3366420000
   24      H      -4.0787490000    -6.6640850000    -2.3602450000
   25      H      -4.0278800000    -5.1471010000    -3.3619680000
   26      H      -4.9228110000    -5.1487850000    -1.8134240000
   27      C       4.2471670000    -2.5874870000     2.4521490000
   28      H       4.8042090000    -3.4833290000     2.7725310000
   29      H       3.9659910000    -1.9649720000     3.3226970000
   30      H       4.8596780000    -1.9629320000     1.7745070000
   31      C       0.0000000000     0.0000000000     0.0000000000
   32      S       0.2050930000     0.7661960000     1.5805300000
   33      C       0.6289390000     2.3481140000     0.9049110000
   34      C       0.2581370000     0.9640280000    -0.9854000000
   35      C       0.5997450000     2.2393090000    -0.4935280000
   36      H       0.1971690000     0.7364040000    -2.0599340000
   37      H       0.8276780000     3.0902430000    -1.1525930000
   38      H       0.8567960000     3.1988080000     1.5560250000
   39      H      -0.3185880000    -7.3615890000     0.8515740000
   40      H       0.5805220000    -7.3611920000    -0.7041810000
   41      H      -0.5404590000    -1.4788310000     0.9350420000
 ----------------------------------------------------------------
 Nuclear Repulsion Energy =        2560.17944460 hartrees
 There are       98 alpha and       98 beta electrons
 Requested basis set is cc-pVTZ
 There are 356 shells and 1010 basis functions

 Total QAlloc Memory Limit 110000 MB
 Mega-Array Size       188 MB
 MEM_STATIC part       192 MB
 Discretize the solute cavity surface with Lebedev spheres
	Using 110 Lebedev grid points for each H atom
	Using 194 Lebedev grid points for other atoms
	Atomic van der Waals radii will be scaled by 1.20
 Remove points where switching function is < 1.0e-08
 Keep 2594 surface tesserae and discard 4184 interior tesserae
 Molecular Surface Area = 368.285 Angst**2
 Requested basis set is rimp2-cc-pVTZ
 There are 770 shells and 2648 basis functions
 A cutoff of  1.0D-10 yielded  34226 shell pairs
 There are    258962 function pairs (    335252 Cartesian)
 Smallest overlap matrix eigenvalue = 9.08E-06

 Q-Chem warning in module stvman/mkSTV.C, line 323:

 Overlap eigenvalue is smaller than square root of threshold
 Use THRESH >= 12 to get rid of this warning


 Scale SEOQF with 1.000000e-01/1.000000e-02/1.000000e-01

 Standard Electronic Orientation quadrupole field applied
 Nucleus-field energy     =     0.0000000164 hartrees
 Guess from superposition of atomic densities
 Warning:  Energy on first SCF cycle will be non-variational
 SAD guess density has 196.000000 electrons

 -----------------------------------------------------------------------
  General SCF calculation program by
  Eric Jon Sundstrom, Paul Horn, Yuezhi Mao, Dmitri Zuev, Alec White,
  David Stuck, Shaama M.S., Shane Yost, Joonho Lee, David Small,
  Daniel Levine, Susi Lehtola, Hugh Burton, Evgeny Epifanovsky,
  Bang C. Huynh
 -----------------------------------------------------------------------
 Hartree-Fock
 using 64 threads for integral computing
 -------------------------------------------------------
 OpenMP Integral computing Module                
 Release: version 1.0, May 2013, Q-Chem Inc. Pittsburgh 
 -------------------------------------------------------
 A restricted SCF calculation will be
 performed using DIIS
 SCF converges when DIIS error is below 1.0e-06
 ---------------------------------------
  Cycle       Energy         DIIS error
 ---------------------------------------
    1   -1583.1153872739      1.86e-02  
    2   -1571.1571878891      2.03e-03  
    3   -1571.4959635678      1.55e-03  
    4   -1571.7187978469      2.53e-04  
    5   -1571.7325869349      7.81e-05  
    6   -1571.7340035758      3.01e-05  
    7   -1571.7344249100      1.55e-05  
    8   -1571.7345410430      6.35e-06  
    9   -1571.7345612499      2.96e-06  
   10   -1571.7345653866      1.24e-06  
   11   -1571.7345666397      5.70e-07  Convergence criterion met
 ---------------------------------------
 SCF time:   CPU 6556.07s  wall 261.00s 

************** Final PCM Free Energy Summary **************
 G_electrostatic  =      -0.03016361 hartree =     -18.92795136 kcal/mol
 G_cavitation     =       0.00000000 hartree =       0.00000000 kcal/mol
 G_dispersion     =       0.00000000 hartree =       0.00000000 kcal/mol
 G_repulsion      =       0.00000000 hartree =       0.00000000 kcal/mol
 --------------------------------------------------
 Non-electrostatic Free Energy =       0.00000000 hartree =       0.00000000 kcal/mol
 Total                         =      -0.03016361 hartree =     -18.92795136 kcal/mol
 --------------------------------------------------
 SCF Energy (H0 + V/2)                       =   -1571.73456664 
 Solute Internal Energy (H0)                 =   -1571.70440303 
 Total Free Energy (H0 + V/2 + non-elec)     =   -1571.73456664 hartree
                                             = -986278.32646448 kcal/mol
***********************************************************

 SCF   energy in the final basis set =    -1571.7345666397
 Total energy in the final basis set =    -1571.7345666397


 --------------------------------------------------------------
  Generalized many-body perturbation theory program
  by Joonho Lee, Fazle Rob, Xintian Feng, Evgeny Epifanovsky

 No regularization used 
 (reg. param. = 0.0000e+00)
  (P|Q)^-1/2 Time:  CPU 122.77 s  wall 1.94 s

 In RI-MP2 calculation: 
 # of frozen core orbitals: 31

 Components of the RIMP2 correlation energy:
        aaaa    correlation energy =        -0.6157383096 a.u.
        abab    correlation energy =        -3.4273247958 a.u.
        bbbb    correlation energy =        -0.6157383096 a.u.
        non-Brillouin singles      =        -0.0000000000 a.u.
        total same-spin energy     =        -1.2314766193 a.u.
        total opposite-spin energy =        -3.4273247958 a.u.

 Total  RIMP2   correlation energy =        -4.6588014151 a.u.
        RIMP2         total energy =     -1576.3933680548 a.u.

 RI-MP2 Energy Time:  CPU 1897.80 s  wall 31.98 s
 
 --------------------------------------------------------------
 
                    Orbital Energies (a.u.)
 --------------------------------------------------------------
 
 Alpha MOs
 -- Occupied --
-91.9852 -20.5493 -20.5440 -20.5416 -20.5404 -15.6261 -15.6211 -11.3919
-11.3847 -11.3835 -11.3789 -11.3085 -11.3078 -11.3050 -11.3045 -11.2962
-11.2900 -11.2883 -11.2822 -11.2689 -11.2679 -11.2640 -11.2625 -11.2594
-11.2536 -11.2526 -11.2476  -8.9852  -6.6659  -6.6654  -6.6649  -1.4188
 -1.4121  -1.3967  -1.3913  -1.2615  -1.2553  -1.2292  -1.1854  -1.1511
 -1.1137  -1.0860  -1.0464  -0.9944  -0.9876  -0.9820  -0.9547  -0.9506
 -0.8954  -0.8869  -0.8767  -0.8600  -0.7918  -0.7754  -0.7738  -0.7668
 -0.7345  -0.7173  -0.7032  -0.6907  -0.6779  -0.6698  -0.6674  -0.6569
 -0.6467  -0.6393  -0.6389  -0.6321  -0.6307  -0.6268  -0.6228  -0.6045
 -0.5845  -0.5737  -0.5663  -0.5613  -0.5573  -0.5510  -0.5503  -0.5478
 -0.5469  -0.5433  -0.5173  -0.5143  -0.5089  -0.4818  -0.4734  -0.4636
 -0.4554  -0.4497  -0.4425  -0.4344  -0.4127  -0.4073  -0.3525  -0.3447
 -0.3280  -0.2878
 -- Virtual --
  0.0149   0.0433   0.0902   0.0917   0.1338   0.1496   0.1548   0.1599
  0.1639   0.1716   0.1791   0.1829   0.1845   0.1924   0.1948   0.2039
  0.2111   0.2185   0.2243   0.2290   0.2318   0.2346   0.2372   0.2416
  0.2658   0.2692   0.3028   0.3038   0.3116   0.3177   0.3222   0.3263
  0.3278   0.3396   0.3438   0.3516   0.3557   0.3583   0.3638   0.3659
  0.3718   0.3772   0.3834   0.3862   0.3891   0.3915   0.3996   0.4015
  0.4181   0.4203   0.4314   0.4333   0.4338   0.4410   0.4478   0.4489
  0.4527   0.4557   0.4573   0.4651   0.4757   0.4837   0.4907   0.4946
  0.4974   0.5099   0.5128   0.5148   0.5167   0.5208   0.5231   0.5292
  0.5346   0.5371   0.5457   0.5492   0.5528   0.5585   0.5612   0.5639
  0.5698   0.5730   0.5737   0.5827   0.5896   0.5929   0.5935   0.6022
  0.6037   0.6064   0.6080   0.6097   0.6158   0.6174   0.6218   0.6258
  0.6274   0.6299   0.6351   0.6367   0.6394   0.6423   0.6459   0.6502
  0.6612   0.6642   0.6722   0.6791   0.6865   0.6903   0.6939   0.6989
  0.7066   0.7110   0.7181   0.7278   0.7346   0.7368   0.7440   0.7614
  0.7627   0.7678   0.7745   0.7800   0.7835   0.7907   0.7931   0.7983
  0.8058   0.8086   0.8150   0.8226   0.8281   0.8364   0.8390   0.8442
  0.8483   0.8556   0.8620   0.8653   0.8676   0.8745   0.8762   0.8834
  0.8966   0.9026   0.9045   0.9091   0.9172   0.9215   0.9279   0.9287
  0.9354   0.9444   0.9463   0.9499   0.9534   0.9641   0.9720   0.9782
  0.9796   0.9884   0.9941   0.9985   1.0029   1.0110   1.0121   1.0231
  1.0256   1.0281   1.0382   1.0412   1.0468   1.0521   1.0591   1.0600
  1.0657   1.0701   1.0720   1.0776   1.0841   1.0884   1.1001   1.1035
  1.1091   1.1152   1.1213   1.1302   1.1318   1.1354   1.1356   1.1435
  1.1498   1.1540   1.1563   1.1595   1.1651   1.1699   1.1790   1.1881
  1.1911   1.1954   1.2017   1.2066   1.2094   1.2151   1.2219   1.2266
  1.2342   1.2358   1.2389   1.2423   1.2529   1.2586   1.2624   1.2718
  1.2837   1.2926   1.2949   1.3070   1.3138   1.3225   1.3312   1.3328
  1.3459   1.3499   1.3626   1.3648   1.3684   1.3769   1.3836   1.3856
  1.3877   1.3891   1.4037   1.4066   1.4148   1.4216   1.4232   1.4377
  1.4474   1.4548   1.4613   1.4689   1.4747   1.4875   1.4919   1.4973
  1.4994   1.5037   1.5110   1.5148   1.5226   1.5235   1.5320   1.5351
  1.5443   1.5481   1.5529   1.5574   1.5630   1.5694   1.5722   1.5760
  1.5826   1.5874   1.6031   1.6088   1.6124   1.6271   1.6334   1.6378
  1.6479   1.6531   1.6634   1.6736   1.6806   1.6844   1.6882   1.6976
  1.6986   1.7057   1.7242   1.7277   1.7363   1.7474   1.7485   1.7539
  1.7554   1.7670   1.7760   1.7816   1.7839   1.7913   1.8085   1.8111
  1.8193   1.8239   1.8369   1.8480   1.8529   1.8653   1.8709   1.8730
  1.8738   1.8793   1.8845   1.8951   1.9121   1.9203   1.9284   1.9487
  1.9569   1.9643   1.9740   1.9861   1.9901   1.9989   2.0079   2.0252
  2.0316   2.0378   2.0493   2.0722   2.0918   2.1046   2.1144   2.1271
  2.1299   2.1394   2.1563   2.1620   2.1928   2.1946   2.2025   2.2214
  2.2365   2.2437   2.2500   2.2569   2.2807   2.2913   2.3074   2.3118
  2.3141   2.3185   2.3320   2.3348   2.3612   2.3669   2.3710   2.3880
  2.3973   2.4269   2.4325   2.4420   2.4423   2.4550   2.4592   2.4688
  2.4766   2.4865   2.4909   2.5013   2.5130   2.5201   2.5368   2.5502
  2.5582   2.5681   2.5758   2.5848   2.5915   2.6001   2.6044   2.6248
  2.6260   2.6364   2.6405   2.6495   2.6552   2.6667   2.6728   2.6794
  2.6850   2.6918   2.6935   2.7051   2.7254   2.7275   2.7341   2.7357
  2.7412   2.7501   2.7564   2.7590   2.7696   2.7750   2.7834   2.8033
  2.8103   2.8296   2.8333   2.8428   2.8481   2.8498   2.8568   2.8703
  2.8790   2.8799   2.8836   2.8910   2.8944   2.9061   2.9091   2.9199
  2.9230   2.9253   2.9345   2.9430   2.9460   2.9552   2.9619   2.9738
  2.9803   2.9831   2.9935   3.0024   3.0119   3.0176   3.0206   3.0295
  3.0339   3.0387   3.0464   3.0552   3.0610   3.0734   3.0780   3.0923
  3.0962   3.1011   3.1048   3.1076   3.1100   3.1170   3.1198   3.1290
  3.1349   3.1374   3.1450   3.1518   3.1568   3.1596   3.1696   3.1716
  3.1870   3.1929   3.1965   3.2033   3.2100   3.2117   3.2196   3.2250
  3.2292   3.2312   3.2427   3.2505   3.2553   3.2602   3.2619   3.2690
  3.2741   3.2775   3.2799   3.2825   3.2988   3.2998   3.3052   3.3059
  3.3096   3.3149   3.3205   3.3233   3.3290   3.3335   3.3375   3.3410
  3.3438   3.3498   3.3511   3.3530   3.3585   3.3680   3.3726   3.3752
  3.3808   3.3859   3.3882   3.3898   3.3975   3.3989   3.4069   3.4078
  3.4139   3.4194   3.4211   3.4318   3.4328   3.4402   3.4450   3.4561
  3.4581   3.4606   3.4635   3.4678   3.4715   3.4803   3.4861   3.4884
  3.4937   3.5037   3.5065   3.5083   3.5133   3.5165   3.5215   3.5290
  3.5321   3.5393   3.5420   3.5473   3.5552   3.5595   3.5694   3.5776
  3.5826   3.5896   3.5994   3.6046   3.6076   3.6166   3.6231   3.6254
  3.6267   3.6346   3.6380   3.6445   3.6489   3.6503   3.6542   3.6567
  3.6675   3.6786   3.6811   3.6869   3.6956   3.7025   3.7071   3.7112
  3.7203   3.7288   3.7311   3.7364   3.7392   3.7425   3.7502   3.7534
  3.7598   3.7653   3.7677   3.7705   3.7763   3.7925   3.7975   3.7989
  3.8091   3.8132   3.8144   3.8254   3.8303   3.8320   3.8395   3.8448
  3.8478   3.8535   3.8565   3.8698   3.8834   3.8911   3.8958   3.9028
  3.9076   3.9172   3.9194   3.9312   3.9376   3.9429   3.9496   3.9525
  3.9556   3.9610   3.9671   3.9730   3.9803   3.9881   3.9924   4.0078
  4.0180   4.0238   4.0297   4.0362   4.0488   4.0557   4.0701   4.0827
  4.0873   4.0991   4.1114   4.1193   4.1233   4.1340   4.1396   4.1436
  4.1476   4.1548   4.1631   4.1705   4.1747   4.1824   4.1919   4.2082
  4.2116   4.2192   4.2280   4.2365   4.2424   4.2455   4.2522   4.2643
  4.2675   4.2738   4.2791   4.2813   4.2895   4.2943   4.3008   4.3067
  4.3145   4.3212   4.3221   4.3279   4.3370   4.3404   4.3483   4.3561
  4.3647   4.3686   4.3699   4.3709   4.3766   4.3804   4.3897   4.3937
  4.3977   4.4070   4.4149   4.4228   4.4297   4.4440   4.4446   4.4504
  4.4612   4.4791   4.4939   4.4957   4.4994   4.5161   4.5209   4.5269
  4.5375   4.5407   4.5465   4.5547   4.5578   4.5713   4.5791   4.5838
  4.5895   4.5942   4.5973   4.6129   4.6173   4.6218   4.6252   4.6368
  4.6451   4.6477   4.6669   4.6738   4.6853   4.6908   4.6993   4.7092
  4.7133   4.7242   4.7412   4.7578   4.7742   4.7784   4.7944   4.7958
  4.8125   4.8254   4.8313   4.8457   4.8519   4.8603   4.8760   4.8806
  4.8820   4.8959   4.9123   4.9174   4.9308   4.9454   4.9521   4.9723
  4.9962   5.0062   5.0194   5.0261   5.0367   5.0447   5.0618   5.0654
  5.0709   5.0771   5.1010   5.1057   5.1214   5.1242   5.1315   5.1374
  5.1465   5.1530   5.1726   5.1758   5.1879   5.1950   5.2235   5.2282
  5.2631   5.2705   5.2740   5.2818   5.2880   5.3033   5.3231   5.3290
  5.3320   5.3423   5.3529   5.3717   5.3785   5.3874   5.4039   5.4167
  5.4362   5.4492   5.4721   5.4856   5.4940   5.5004   5.5140   5.5156
  5.5186   5.5399   5.5482   5.5493   5.5596   5.5630   5.5677   5.5718
  5.5804   5.5856   5.5871   5.5998   5.6097   5.6157   5.6200   5.6310
  5.6489   5.6520   5.6606   5.6639   5.6665   5.6692   5.6936   5.6965
  5.7006   5.7065   5.7285   5.7400   5.7567   5.7665   5.7679   5.7744
  5.7852   5.7878   5.7993   5.8311   5.8432   5.8563   5.9022   5.9219
  5.9280   5.9544   5.9774   5.9903   6.0167   6.0263   6.0378   6.0426
  6.0497   6.0764   6.0968   6.1121   6.1234   6.1422   6.1457   6.1901
  6.2013   6.2202   6.2255   6.2265   6.2457   6.2627   6.2695   6.2835
  6.3064   6.3109   6.3242   6.3485   6.3662   6.3847   6.4360   6.4846
  6.5198   6.5326   6.5762   6.5829   6.6042   6.6187   6.6594   6.6623
  6.6714   6.6771   6.8476   6.8500   6.8889   6.9025   6.9062   6.9222
  6.9272   6.9501   7.1025   7.1100   7.1471   7.1932   7.1996   7.2355
  7.3479   7.3523   7.3582   7.3633   7.4760   7.5434   7.5707   7.5836
  7.5914   7.6034   7.6542   7.6822   7.6935   7.7155   8.8276  10.0717
 10.3273  11.3093  11.5105  11.7477  12.0252  12.1034  12.4162  12.4559
 12.8950  13.2064  13.3371  13.5521  13.7739  13.9307  14.1190  14.2735
 14.3134  14.3651  14.5105  14.5393  15.0287  15.6053  15.8286  16.3302
 --------------------------------------------------------------
 
          Ground-State Mulliken Net Atomic Charges

     Atom                 Charge (a.u.)
  ----------------------------------------
      1 C                    -0.084378
      2 C                    -0.030633
      3 C                    -0.110988
      4 C                    -0.121938
      5 H                     0.198688
      6 C                     0.010685
      7 C                     0.119935
      8 C                    -0.090229
      9 C                    -0.185229
     10 C                    -0.139536
     11 C                     0.242573
     12 H                     0.192800
     13 C                     0.343186
     14 C                     0.351110
     15 N                    -0.089992
     16 C                     0.355909
     17 C                     0.371370
     18 N                    -0.090095
     19 O                    -0.494463
     20 O                    -0.507528
     21 O                    -0.501985
     22 O                    -0.467117
     23 C                    -0.204699
     24 H                     0.139443
     25 H                     0.109026
     26 H                     0.109082
     27 C                    -0.197341
     28 H                     0.133150
     29 H                     0.111008
     30 H                     0.111566
     31 C                    -0.077004
     32 S                     0.029578
     33 C                    -0.207973
     34 C                    -0.180438
     35 C                    -0.205448
     36 H                     0.190286
     37 H                     0.189994
     38 H                     0.210909
     39 H                     0.137533
     40 H                     0.137549
     41 H                     0.191632
  ----------------------------------------
  Sum of atomic charges =     0.000000

 -----------------------------------------------------------------
                    Cartesian Multipole Moments
 -----------------------------------------------------------------
    Charge (ESU x 10^10)
                 0.0000
    Dipole Moment (Debye)
         X       1.2019      Y       2.2280      Z       0.3757
       Tot       2.5592
    Quadrupole Moments (Debye-Ang)
        XX    -186.9593     XY      -3.8932     YY    -179.0105
        XZ     -13.6976     YZ      -4.6959     ZZ    -164.2881
    Octopole Moments (Debye-Ang^2)
       XXX     -79.5086    XXY     565.2583    XYY      36.2945
       YYY    1691.1945    XXZ     -24.9780    XYZ      62.7164
       YYZ      14.4687    XZZ     -22.4112    YZZ     506.8960
       ZZZ     -77.9518
    Hexadecapole Moments (Debye-Ang^3)
      XXXX   -4788.3218   XXXY    -178.8344   XXYY   -4031.3723
      XYYY   -1043.7554   YYYY  -18062.1942   XXXZ   -1398.0365
      XXYZ      47.7520   XYYZ    -803.6226   YYYZ    -619.0577
      XXZZ   -1159.0870   XYZZ     -47.4721   YYZZ   -3113.5402
      XZZZ   -1299.2695   YZZZ    -190.2287   ZZZZ   -1929.6232
 -----------------------------------------------------------------
 Total job time:  297.75s(wall), 8607.02s(cpu) 
 Tue Sep 26 22:59:21 2023

        *************************************************************
        *                                                           *
        *  Thank you very much for using Q-Chem.  Have a nice day.  *
        *                                                           *
        *************************************************************


0 sent ACK to 0 
now end server 0 ... 
cleanup process ... done
remove work dirs ./qchem1595957.0 -- ./qchem1595957.0
rm -rf ./qchem1595957.0
rm -rf ./qchem1595957
