You are running Q-Chem version: 5.4.0

#
# job setting
#
local host:  exp-4-53
current dir: /expanse/lustre/projects/csd626/rramji/aromodel/PNDIT/Hydrogenated_Rotation_Test
input file:  Dimethyl_Naphthalene_Dicarboximide_Phi_15_Theta_310_Thiophene_Hydrogenated.qcin
output file: 
nprocs     : 1
nthreads   : 64
#
# qchem installation setting
#
QC:          /cm/shared/apps/spack/cpu/opt/spack/linux-centos8-zen2/gcc-10.2.0/qchem-5.4-akfmr7b3t57bfs6qan3padb2wnb2i7cl
QCAUX:       /cm/shared/apps/spack/cpu/opt/spack/linux-centos8-zen2/gcc-10.2.0/qchem-5.4-akfmr7b3t57bfs6qan3padb2wnb2i7cl/qcaux
QCPROG:      /cm/shared/apps/spack/cpu/opt/spack/linux-centos8-zen2/gcc-10.2.0/qchem-5.4-akfmr7b3t57bfs6qan3padb2wnb2i7cl/exe/qcprog.exe
QCPROG_S:    /cm/shared/apps/spack/cpu/opt/spack/linux-centos8-zen2/gcc-10.2.0/qchem-5.4-akfmr7b3t57bfs6qan3padb2wnb2i7cl/exe/qcprog.exe_s
PARALLEL:    -DPARALLEL
QCMPI:       mpich
#
# qchem directory setting
#
qcrun:       qchem1613419
QCSCRATCH:   .
QCLOCALSCR:  
QCTMPDIR:    .
QCFILEPREF:  ./qchem1613419
QCSAVEDIR:   
workdirs:    ./qchem1613419
workdir0:    ./qchem1613419
partmpdirs =  
#
# parallel setting
#
QCRSH:           ssh
QCMPI:           mpich
QCMPIRUN:        /cm/shared/apps/spack/cpu/opt/spack/linux-centos8-zen2/gcc-10.2.0/qchem-5.4-akfmr7b3t57bfs6qan3padb2wnb2i7cl/bin/mpi/mpirun_qchem
QCMACHINEFILE:   ./qchem1613419/hostfile
exp-4-53

#
# env setting
#
exported envs:   QC QCAUX QCSCRATCH QCRUNNAME QCFILEPREF QCPROG QCPROG_S GUIFILE

Running Job 1 of 1 Dimethyl_Naphthalene_Dicarboximide_Phi_15_Theta_310_Thiophene_Hydrogenated.qcin
qchem Dimethyl_Naphthalene_Dicarboximide_Phi_15_Theta_310_Thiophene_Hydrogenated.qcin_1613419.0 ./qchem1613419/ 1
/cm/shared/apps/spack/cpu/opt/spack/linux-centos8-zen2/gcc-10.2.0/qchem-5.4-akfmr7b3t57bfs6qan3padb2wnb2i7cl/bin/mpi/mpirun_qchem -machinefile ./qchem1613419/hostfile -np 1 /cm/shared/apps/spack/cpu/opt/spack/linux-centos8-zen2/gcc-10.2.0/qchem-5.4-akfmr7b3t57bfs6qan3padb2wnb2i7cl/exe/qcprog.exe Dimethyl_Naphthalene_Dicarboximide_Phi_15_Theta_310_Thiophene_Hydrogenated.qcin_1613419.0 ./qchem1613419/

Process 0 of 1 is on exp-4-53 - thread support 0
initial socket setup ...start
initial socket setup ...done 
now start server 0 ... 
                  Welcome to Q-Chem
     A Quantum Leap Into The Future Of Chemistry


 Q-Chem 5.4, Q-Chem, Inc., Pleasanton, CA (2021)

 License issued to: University of California, San Diego (site)

 E. Epifanovsky,  A. T. B. Gilbert,  Xintian Feng,  Joonho Lee,  Yuezhi Mao,  
 N. Mardirossian,  P. Pokhilko,  A. White,  M. Wormit,  M. P. Coons,  
 A. L. Dempwolff,  Zhengting Gan,  D. Hait,  P. R. Horn,  L. D. Jacobson,  
 I. Kaliman,  J. Kussmann,  A. W. Lange,  Ka Un Lao,  D. S. Levine,  Jie Liu,  
 S. C. McKenzie,  A. F. Morrison,  K. Nanda,  F. Plasser,  D. R. Rehn,  
 M. L. Vidal,  Zhi-Qiang You,  Ying Zhu,  B. Alam,  B. Albrecht,  
 A. Aldossary,  E. Alguire,  J. H. Andersen,  D. Barton,  K. Begam,  A. Behn,  
 Y. A. Bernard,  E. J. Berquist,  H. Burton,  A. Carreras,  K. Carter-Fenk,  
 R. Chakraborty,  A. D. Chien,  K. D. Closser,  V. Cofer-Shabica,  
 S. Dasgupta,  Jia Deng,  M. de Wergifosse,  M. Diedenhofen,  Hainam Do,  
 S. Ehlert,  Po-Tung Fang,  S. Fatehi,  Qingguo Feng,  J. Gayvert,  
 Qinghui Ge,  G. Gidofalvi,  M. Goldey,  J. Gomes,  C. Gonzalez-Espinoza,  
 S. Gulania,  A. Gunina,  M. W. D. Hanson-Heine,  P. H. P. Harbach,  
 A. W. Hauser,  M. F. Herbst,  M. Hernandez Vera,  M. Hodecker,  
 Z. C. Holden,  S. Houck,  Xunkun Huang,  Kerwin Hui,  B. C. Huynh,  
 M. Ivanov,  Hyunjun Ji,  Hanjie Jiang,  B. Kaduk,  S. Kaehler,  
 K. Khistyaev,  Jaehoon Kim,  P. Klunzinger,  Z. Koczor-Benda,  
 Joong Hoon Koh,  D. Kosenkov,  L. Koulias,  T. Kowalczyk,  C. M. Krauter,  
 K. Kue,  A. Kunitsa,  T. Kus,  A. Landau,  K. V. Lawler,  D. Lefrancois,  
 S. Lehtola,  Rain Li,  Yi-Pei Li,  Jiashu Liang,  M. Liebenthal,  
 Hung-Hsuan Lin,  You-Sheng Lin,  Fenglai Liu,  Kuan-Yu Liu,  
 M. Loipersberger,  A. Luenser,  A. Manjanath,  P. Manohar,  E. Mansoor,  
 S. F. Manzer,  Shan-Ping Mao,  A. V. Marenich,  T. Markovich,  S. Mason,  
 S. A. Maurer,  P. F. McLaughlin,  M. F. S. J. Menger,  J.-M. Mewes,  
 S. A. Mewes,  P. Morgante,  J. W. Mullinax,  T. S. Nguyen-Beck,  
 K. J. Oosterbaan,  G. Paran,  Alexander C. Paul,  Suranjan K. Paul,  
 F. Pavosevic,  Zheng Pei,  S. Prager,  E. I. Proynov,  E. Ramos,  B. Rana,  
 A. E. Rask,  A. Rettig,  R. M. Richard,  F. Rob,  E. Rossomme,  T. Scheele,  
 M. Scheurer,  M. Schneider,  N. Sergueev,  S. M. Sharada,  W. Skomorowski,  
 D. W. Small,  C. J. Stein,  Yu-Chuan Su,  E. J. Sundstrom,  Zhen Tao,  
 J. Thirman,  T. Tsuchimochi,  N. M. Tubman,  S. P. Veccham,  O. Vydrov,  
 J. Wenzel,  J. Witte,  A. Yamada,  Kun Yao,  S. Yeganeh,  S. R. Yost,  
 A. Zech,  Igor Ying Zhang,  Xing Zhang,  Yu Zhang,  D. Zuev,  
 A. Aspuru-Guzik,  A. T. Bell,  N. A. Besley,  K. B. Bravaya,  B. R. Brooks,  
 D. Casanova,  Jeng-Da Chai,  S. Coriani,  C. J. Cramer,  
 A. E. DePrince, III,  R. A. DiStasio Jr.,  A. Dreuw,  B. D. Dunietz,  
 T. R. Furlani,  W. A. Goddard III,  S. Grimme,  S. Hammes-Schiffer,  
 T. Head-Gordon,  W. J. Hehre,  Chao-Ping Hsu,  T.-C. Jagau,  Yousung Jung,  
 A. Klamt,  Jing Kong,  D. S. Lambrecht,  WanZhen Liang,  N. J. Mayhall,  
 C. W. McCurdy,  J. B. Neaton,  C. Ochsenfeld,  J. A. Parkhill,  R. Peverati,  
 V. A. Rassolov,  Yihan Shao,  L. V. Slipchenko,  T. Stauch,  R. P. Steele,  
 J. E. Subotnik,  A. J. W. Thom,  A. Tkatchenko,  D. G. Truhlar,  
 T. Van Voorhis,  T. A. Wesolowski,  K. B. Whaley,  H. L. Woodcock III,  
 P. M. Zimmerman,  S. Faraji,  P. M. W. Gill,  M. Head-Gordon,  
 J. M. Herbert,  A. I. Krylov

 Contributors to earlier versions of Q-Chem not listed above: 
 R. D. Adamson,  B. Austin,  R. Baer,  J. Baker,  G. J. O. Beran,  
 K. Brandhorst,  S. T. Brown,  E. F. C. Byrd,  A. K. Chakraborty,  
 G. K. L. Chan,  Chun-Min Chang,  Yunqing Chen,  C.-L. Cheng,  
 Siu Hung Chien,  D. M. Chipman,  D. L. Crittenden,  H. Dachsel,  
 R. J. Doerksen,  A. D. Dutoi,  R. G. Edgar,  J. Fosso-Tande,  
 L. Fusti-Molnar,  D. Ghosh,  A. Ghysels,  A. Golubeva-Zadorozhnaya,  
 J. Gonthier,  M. S. Gordon,  S. R. Gwaltney,  G. Hawkins,  J. E. Herr,  
 A. Heyden,  S. Hirata,  E. G. Hohenstein,  G. Kedziora,  F. J. Keil,  
 C. Kelley,  Jihan Kim,  R. A. King,  R. Z. Khaliullin,  P. P. Korambath,  
 W. Kurlancheek,  A. Laurent,  A. M. Lee,  M. S. Lee,  S. V. Levchenko,  
 Ching Yeh Lin,  D. Liotard,  E. Livshits,  R. C. Lochan,  I. Lotan,  
 L. A. Martinez-Martinez,  P. E. Maslen,  N. Nair,  D. P. O'Neill,  
 D. Neuhauser,  E. Neuscamman,  C. M. Oana,  R. Olivares-Amaya,  R. Olson,  
 T. M. Perrine,  B. Peters,  P. A. Pieniazek,  A. Prociuk,  Y. M. Rhee,  
 J. Ritchie,  M. A. Rohrdanz,  E. Rosta,  N. J. Russ,  H. F. Schaefer III,  
 M. W. Schmidt,  N. E. Schultz,  S. Sharma,  N. Shenvi,  C. D. Sherrill,  
 A. C. Simmonett,  A. Sodt,  T. Stein,  D. Stuck,  K. S. Thanthiriwatte,  
 V. Vanovschi,  L. Vogt,  Tao Wang,  A. Warshel,  M. A. Watson,  
 C. F. Williams,  Q. Wu,  X. Xu,  Jun Yang,  W. Zhang,  Yan Zhao

 Please cite Q-Chem as follows:
 Y. Shao et al., Mol. Phys. 113, 184-215 (2015)
 DOI: 10.1080/00268976.2014.952696

 Q-Chem 5.4.0 for Intel X86 EM64T Linux

 Parts of Q-Chem use Armadillo 9.800.1 (Horizon Scraper).
 http://arma.sourceforge.net/

 Q-Chem begins on Wed Sep 27 00:32:46 2023  

 Host: 
0

     Scratch files written to ./qchem1613419//
 May1621 |scratch|qcdevops|jenkins|workspace|build_RNUM    
 Parallel job on  1  processors
 Processing $rem in /cm/shared/apps/spack/cpu/opt/spack/linux-centos8-zen2/gcc-10.2.0/qchem-5.4-akfmr7b3t57bfs6qan3padb2wnb2i7cl/config/preferences:
 Processing $rem in /home/rramji/.qchemrc:
 Symmetry turned off for PCM/SM12/SMD calculation
 Core orbitals will be frozen

 Checking the input file for inconsistencies... 	...done.

 Q-Chem warning in module forms1/BasisType.C, line 2236:

 You are not using the predefined 5D/6D in this basis set.


--------------------------------------------------------------
User input:
--------------------------------------------------------------
$molecule
0 1
C	-0.197767	-6.741404	-0.164018
C	-1.198109	-6.155638	-1.003240
C	0.632428	-5.791452	0.533192
C	-1.411364	-4.803786	-1.182482
H	-1.870845	-6.821518	-1.567483
C	0.409419	-4.378638	0.345145
C	-0.609565	-3.838032	-0.510347
C	1.210332	-3.413062	1.016449
C	-0.830799	-2.426473	-0.696879
C	0.999856	-2.059348	0.839039
C	0.000000	-1.478216	0.000000
H	1.673483	-1.394783	1.403737
C	1.736282	-6.187987	1.461835
C	2.306183	-3.798164	1.936119
N	2.491597	-5.170003	2.093916
C	-2.510310	-4.424987	-2.104529
C	-1.936153	-2.036627	-1.625377
N	-2.691451	-3.049156	-2.257873
O	2.034222	-7.353131	1.715561
O	3.014044	-2.986854	2.528858
O	-3.209622	-5.248946	-2.690385
O	-2.251529	-0.878829	-1.891876
C	3.573032	-5.563799	3.002711
H	3.606932	-6.664085	3.032655
H	3.382888	-5.147101	4.010326
H	4.533125	-5.148785	2.640711
C	-3.756832	-2.587487	-3.152408
H	-4.249778	-3.483329	-3.564653
H	-3.328759	-1.964972	-3.960905
H	-4.477709	-1.962932	-2.591422
C	0.000000	0.000000	0.000000
S	0.205093	0.766196	1.580530
C	0.628939	2.348114	0.904911
C	0.258137	0.964028	-0.985400
C	0.599745	2.239309	-0.493528
H	0.197169	0.736404	-2.059934
H	0.827678	3.090243	-1.152593
H	0.856796	3.198808	1.556025
H	0.461623	-7.361589	-0.783314
H	-0.693983	-7.361192	0.592677
H	0.694617	-1.478831	-0.826987
$end

$rem
JOBTYPE		SP
EXCHANGE	HF
CORRELATION	pRIMP2
BASIS		cc-pvtz
METHOD		rimp2
AUX_BASIS	rimp2-cc-pvtz
SOLVENT_METHOD	PCM
PURECART	11111
SYMMETRY	false
MEM_TOTAL	110000
SCF_CONVERGENCE = 6
THRESH=10
GUI = 2
$end



$solvent
dielectric 4.90
$end
--------------------------------------------------------------
 ----------------------------------------------------------------
             Standard Nuclear Orientation (Angstroms)
    I     Atom           X                Y                Z
 ----------------------------------------------------------------
    1      C      -0.1977670000    -6.7414040000    -0.1640180000
    2      C      -1.1981090000    -6.1556380000    -1.0032400000
    3      C       0.6324280000    -5.7914520000     0.5331920000
    4      C      -1.4113640000    -4.8037860000    -1.1824820000
    5      H      -1.8708450000    -6.8215180000    -1.5674830000
    6      C       0.4094190000    -4.3786380000     0.3451450000
    7      C      -0.6095650000    -3.8380320000    -0.5103470000
    8      C       1.2103320000    -3.4130620000     1.0164490000
    9      C      -0.8307990000    -2.4264730000    -0.6968790000
   10      C       0.9998560000    -2.0593480000     0.8390390000
   11      C       0.0000000000    -1.4782160000     0.0000000000
   12      H       1.6734830000    -1.3947830000     1.4037370000
   13      C       1.7362820000    -6.1879870000     1.4618350000
   14      C       2.3061830000    -3.7981640000     1.9361190000
   15      N       2.4915970000    -5.1700030000     2.0939160000
   16      C      -2.5103100000    -4.4249870000    -2.1045290000
   17      C      -1.9361530000    -2.0366270000    -1.6253770000
   18      N      -2.6914510000    -3.0491560000    -2.2578730000
   19      O       2.0342220000    -7.3531310000     1.7155610000
   20      O       3.0140440000    -2.9868540000     2.5288580000
   21      O      -3.2096220000    -5.2489460000    -2.6903850000
   22      O      -2.2515290000    -0.8788290000    -1.8918760000
   23      C       3.5730320000    -5.5637990000     3.0027110000
   24      H       3.6069320000    -6.6640850000     3.0326550000
   25      H       3.3828880000    -5.1471010000     4.0103260000
   26      H       4.5331250000    -5.1487850000     2.6407110000
   27      C      -3.7568320000    -2.5874870000    -3.1524080000
   28      H      -4.2497780000    -3.4833290000    -3.5646530000
   29      H      -3.3287590000    -1.9649720000    -3.9609050000
   30      H      -4.4777090000    -1.9629320000    -2.5914220000
   31      C       0.0000000000     0.0000000000     0.0000000000
   32      S       0.2050930000     0.7661960000     1.5805300000
   33      C       0.6289390000     2.3481140000     0.9049110000
   34      C       0.2581370000     0.9640280000    -0.9854000000
   35      C       0.5997450000     2.2393090000    -0.4935280000
   36      H       0.1971690000     0.7364040000    -2.0599340000
   37      H       0.8276780000     3.0902430000    -1.1525930000
   38      H       0.8567960000     3.1988080000     1.5560250000
   39      H       0.4616230000    -7.3615890000    -0.7833140000
   40      H      -0.6939830000    -7.3611920000     0.5926770000
   41      H       0.6946170000    -1.4788310000    -0.8269870000
 ----------------------------------------------------------------
 Nuclear Repulsion Energy =        2548.71464662 hartrees
 There are       98 alpha and       98 beta electrons
 Requested basis set is cc-pVTZ
 There are 356 shells and 1010 basis functions

 Total QAlloc Memory Limit 110000 MB
 Mega-Array Size       188 MB
 MEM_STATIC part       192 MB
 Discretize the solute cavity surface with Lebedev spheres
	Using 110 Lebedev grid points for each H atom
	Using 194 Lebedev grid points for other atoms
	Atomic van der Waals radii will be scaled by 1.20
 Remove points where switching function is < 1.0e-08
 Keep 2595 surface tesserae and discard 4183 interior tesserae
 Molecular Surface Area = 369.223 Angst**2
 Requested basis set is rimp2-cc-pVTZ
 There are 770 shells and 2648 basis functions
 A cutoff of  1.0D-10 yielded  34054 shell pairs
 There are    257674 function pairs (    333589 Cartesian)
 Smallest overlap matrix eigenvalue = 8.99E-06

 Q-Chem warning in module stvman/mkSTV.C, line 323:

 Overlap eigenvalue is smaller than square root of threshold
 Use THRESH >= 12 to get rid of this warning


 Scale SEOQF with 1.000000e-01/1.000000e-02/1.000000e-01

 Standard Electronic Orientation quadrupole field applied
 Nucleus-field energy     =    -0.0000000128 hartrees
 Guess from superposition of atomic densities
 Warning:  Energy on first SCF cycle will be non-variational
 SAD guess density has 196.000000 electrons

 -----------------------------------------------------------------------
  General SCF calculation program by
  Eric Jon Sundstrom, Paul Horn, Yuezhi Mao, Dmitri Zuev, Alec White,
  David Stuck, Shaama M.S., Shane Yost, Joonho Lee, David Small,
  Daniel Levine, Susi Lehtola, Hugh Burton, Evgeny Epifanovsky,
  Bang C. Huynh
 -----------------------------------------------------------------------
 Hartree-Fock
 using 64 threads for integral computing
 -------------------------------------------------------
 OpenMP Integral computing Module                
 Release: version 1.0, May 2013, Q-Chem Inc. Pittsburgh 
 -------------------------------------------------------
 A restricted SCF calculation will be
 performed using DIIS
 SCF converges when DIIS error is below 1.0e-06
 ---------------------------------------
  Cycle       Energy         DIIS error
 ---------------------------------------
    1   -1583.1137804924      1.86e-02  
    2   -1571.1653362706      2.03e-03  
    3   -1571.5050990658      1.55e-03  
    4   -1571.7271979446      2.52e-04  
    5   -1571.7409271430      7.76e-05  
    6   -1571.7423282902      2.99e-05  
    7   -1571.7427411362      1.54e-05  
    8   -1571.7428533693      6.17e-06  
    9   -1571.7428725368      2.85e-06  
   10   -1571.7428762996      1.21e-06  
   11   -1571.7428774552      5.67e-07  Convergence criterion met
 ---------------------------------------
 SCF time:   CPU 6681.66s  wall 283.00s 

************** Final PCM Free Energy Summary **************
 G_electrostatic  =      -0.03031731 hartree =     -19.02440153 kcal/mol
 G_cavitation     =       0.00000000 hartree =       0.00000000 kcal/mol
 G_dispersion     =       0.00000000 hartree =       0.00000000 kcal/mol
 G_repulsion      =       0.00000000 hartree =       0.00000000 kcal/mol
 --------------------------------------------------
 Non-electrostatic Free Energy =       0.00000000 hartree =       0.00000000 kcal/mol
 Total                         =      -0.03031731 hartree =     -19.02440153 kcal/mol
 --------------------------------------------------
 SCF Energy (H0 + V/2)                       =   -1571.74287746 
 Solute Internal Energy (H0)                 =   -1571.71256014 
 Total Free Energy (H0 + V/2 + non-elec)     =   -1571.74287746 hartree
                                             = -986283.54157992 kcal/mol
***********************************************************

 SCF   energy in the final basis set =    -1571.7428774552
 Total energy in the final basis set =    -1571.7428774552


 --------------------------------------------------------------
  Generalized many-body perturbation theory program
  by Joonho Lee, Fazle Rob, Xintian Feng, Evgeny Epifanovsky

 No regularization used 
 (reg. param. = 0.0000e+00)
  (P|Q)^-1/2 Time:  CPU 142.34 s  wall 3.02 s

 In RI-MP2 calculation: 
 # of frozen core orbitals: 31

 Components of the RIMP2 correlation energy:
        aaaa    correlation energy =        -0.6153075007 a.u.
        abab    correlation energy =        -3.4258842825 a.u.
        bbbb    correlation energy =        -0.6153075007 a.u.
        non-Brillouin singles      =        -0.0000000000 a.u.
        total same-spin energy     =        -1.2306150014 a.u.
        total opposite-spin energy =        -3.4258842825 a.u.

 Total  RIMP2   correlation energy =        -4.6564992839 a.u.
        RIMP2         total energy =     -1576.3993767390 a.u.

 RI-MP2 Energy Time:  CPU 2073.95 s  wall 35.71 s
 
 --------------------------------------------------------------
 
                    Orbital Energies (a.u.)
 --------------------------------------------------------------
 
 Alpha MOs
 -- Occupied --
-91.9904 -20.5527 -20.5446 -20.5417 -20.5408 -15.6272 -15.6214 -11.3939
-11.3853 -11.3836 -11.3794 -11.3085 -11.3082 -11.3052 -11.3047 -11.2984
-11.2964 -11.2907 -11.2799 -11.2690 -11.2681 -11.2656 -11.2631 -11.2594
-11.2527 -11.2527 -11.2506  -8.9902  -6.6710  -6.6705  -6.6699  -1.4199
 -1.4123  -1.3975  -1.3915  -1.2624  -1.2556  -1.2307  -1.1875  -1.1521
 -1.1143  -1.0866  -1.0471  -0.9957  -0.9879  -0.9851  -0.9553  -0.9504
 -0.8969  -0.8883  -0.8768  -0.8599  -0.7958  -0.7784  -0.7710  -0.7605
 -0.7412  -0.7166  -0.7032  -0.6918  -0.6818  -0.6719  -0.6668  -0.6574
 -0.6472  -0.6447  -0.6369  -0.6325  -0.6309  -0.6279  -0.6224  -0.6046
 -0.5868  -0.5748  -0.5656  -0.5612  -0.5568  -0.5514  -0.5507  -0.5493
 -0.5478  -0.5436  -0.5180  -0.5157  -0.5105  -0.4846  -0.4759  -0.4652
 -0.4580  -0.4514  -0.4430  -0.4348  -0.4136  -0.4076  -0.3553  -0.3515
 -0.3301  -0.2842
 -- Virtual --
  0.0141   0.0417   0.0903   0.0909   0.1373   0.1499   0.1543   0.1598
  0.1638   0.1716   0.1783   0.1840   0.1881   0.1953   0.2009   0.2049
  0.2082   0.2216   0.2245   0.2280   0.2297   0.2321   0.2347   0.2382
  0.2650   0.2692   0.3002   0.3036   0.3132   0.3209   0.3250   0.3274
  0.3305   0.3393   0.3460   0.3472   0.3534   0.3565   0.3640   0.3671
  0.3717   0.3788   0.3804   0.3881   0.3886   0.3947   0.4017   0.4052
  0.4170   0.4220   0.4278   0.4346   0.4400   0.4436   0.4473   0.4504
  0.4556   0.4591   0.4638   0.4665   0.4734   0.4819   0.4859   0.4905
  0.4922   0.5015   0.5030   0.5105   0.5162   0.5188   0.5247   0.5282
  0.5298   0.5341   0.5436   0.5472   0.5506   0.5585   0.5590   0.5661
  0.5732   0.5766   0.5784   0.5843   0.5866   0.5872   0.5960   0.5990
  0.6035   0.6039   0.6068   0.6085   0.6114   0.6166   0.6225   0.6246
  0.6287   0.6334   0.6348   0.6373   0.6407   0.6436   0.6473   0.6517
  0.6588   0.6606   0.6668   0.6760   0.6826   0.6922   0.6956   0.7032
  0.7050   0.7081   0.7187   0.7281   0.7358   0.7414   0.7465   0.7620
  0.7639   0.7660   0.7730   0.7766   0.7825   0.7871   0.7914   0.7943
  0.8037   0.8120   0.8193   0.8263   0.8296   0.8386   0.8435   0.8448
  0.8524   0.8549   0.8599   0.8633   0.8709   0.8721   0.8768   0.8843
  0.8899   0.8976   0.9024   0.9106   0.9170   0.9223   0.9262   0.9305
  0.9324   0.9410   0.9442   0.9472   0.9636   0.9676   0.9703   0.9753
  0.9796   0.9808   0.9934   0.9987   1.0009   1.0080   1.0114   1.0157
  1.0253   1.0266   1.0347   1.0406   1.0459   1.0558   1.0587   1.0624
  1.0649   1.0691   1.0726   1.0768   1.0887   1.0911   1.0970   1.1037
  1.1067   1.1104   1.1231   1.1256   1.1290   1.1332   1.1380   1.1412
  1.1532   1.1551   1.1567   1.1627   1.1695   1.1745   1.1775   1.1819
  1.1885   1.1939   1.2005   1.2049   1.2099   1.2140   1.2213   1.2275
  1.2291   1.2353   1.2370   1.2434   1.2512   1.2598   1.2653   1.2743
  1.2803   1.2865   1.2869   1.2999   1.3086   1.3208   1.3308   1.3424
  1.3480   1.3521   1.3556   1.3616   1.3676   1.3691   1.3841   1.3866
  1.3887   1.3961   1.3999   1.4011   1.4183   1.4188   1.4238   1.4397
  1.4502   1.4530   1.4639   1.4697   1.4773   1.4854   1.4889   1.4962
  1.5009   1.5085   1.5121   1.5197   1.5210   1.5245   1.5342   1.5372
  1.5454   1.5521   1.5529   1.5566   1.5634   1.5686   1.5708   1.5740
  1.5823   1.5886   1.5938   1.6022   1.6132   1.6273   1.6397   1.6412
  1.6527   1.6540   1.6566   1.6771   1.6854   1.6897   1.6927   1.6957
  1.7062   1.7147   1.7204   1.7281   1.7291   1.7457   1.7489   1.7583
  1.7663   1.7682   1.7791   1.7811   1.7881   1.7984   1.7996   1.8105
  1.8189   1.8230   1.8389   1.8457   1.8475   1.8551   1.8653   1.8688
  1.8742   1.8826   1.8849   1.9005   1.9052   1.9175   1.9299   1.9385
  1.9530   1.9606   1.9652   1.9803   1.9869   1.9936   2.0073   2.0226
  2.0326   2.0349   2.0407   2.0579   2.0882   2.0927   2.1047   2.1177
  2.1332   2.1359   2.1570   2.1602   2.1853   2.2072   2.2100   2.2208
  2.2300   2.2317   2.2597   2.2701   2.2841   2.2927   2.3035   2.3088
  2.3146   2.3291   2.3321   2.3445   2.3526   2.3639   2.3651   2.3841
  2.3872   2.4158   2.4314   2.4375   2.4418   2.4552   2.4593   2.4665
  2.4739   2.4797   2.4822   2.5076   2.5122   2.5220   2.5345   2.5533
  2.5612   2.5672   2.5810   2.5866   2.5967   2.6036   2.6068   2.6151
  2.6238   2.6303   2.6395   2.6432   2.6490   2.6642   2.6754   2.6798
  2.6860   2.6929   2.6966   2.7048   2.7174   2.7202   2.7271   2.7376
  2.7400   2.7477   2.7511   2.7648   2.7669   2.7742   2.7846   2.8032
  2.8152   2.8294   2.8362   2.8388   2.8520   2.8562   2.8610   2.8645
  2.8692   2.8814   2.8869   2.8941   2.8957   2.8989   2.9050   2.9146
  2.9181   2.9223   2.9277   2.9338   2.9440   2.9489   2.9595   2.9731
  2.9808   2.9824   2.9884   3.0010   3.0049   3.0137   3.0254   3.0257
  3.0291   3.0370   3.0404   3.0522   3.0628   3.0744   3.0803   3.0813
  3.0944   3.0966   3.1037   3.1072   3.1083   3.1108   3.1126   3.1241
  3.1361   3.1422   3.1466   3.1552   3.1590   3.1627   3.1649   3.1757
  3.1780   3.1899   3.1978   3.2041   3.2072   3.2110   3.2145   3.2196
  3.2268   3.2367   3.2421   3.2437   3.2466   3.2568   3.2603   3.2648
  3.2697   3.2716   3.2802   3.2875   3.2902   3.2985   3.3027   3.3075
  3.3107   3.3119   3.3218   3.3247   3.3303   3.3322   3.3333   3.3385
  3.3444   3.3478   3.3523   3.3566   3.3644   3.3670   3.3718   3.3774
  3.3789   3.3797   3.3850   3.3885   3.3953   3.3972   3.4006   3.4121
  3.4167   3.4211   3.4223   3.4303   3.4316   3.4370   3.4411   3.4445
  3.4574   3.4616   3.4630   3.4706   3.4784   3.4797   3.4834   3.4860
  3.4891   3.4980   3.5025   3.5112   3.5135   3.5194   3.5222   3.5255
  3.5309   3.5368   3.5433   3.5457   3.5537   3.5588   3.5649   3.5811
  3.5869   3.5924   3.5946   3.5988   3.6086   3.6131   3.6190   3.6249
  3.6266   3.6309   3.6355   3.6385   3.6450   3.6465   3.6507   3.6569
  3.6596   3.6702   3.6754   3.6909   3.6926   3.6977   3.7042   3.7158
  3.7291   3.7295   3.7314   3.7367   3.7424   3.7468   3.7516   3.7521
  3.7570   3.7624   3.7692   3.7771   3.7799   3.7883   3.7972   3.8036
  3.8078   3.8114   3.8151   3.8212   3.8260   3.8367   3.8408   3.8467
  3.8516   3.8547   3.8626   3.8709   3.8740   3.8867   3.8943   3.8981
  3.9103   3.9138   3.9291   3.9301   3.9350   3.9479   3.9524   3.9566
  3.9592   3.9643   3.9652   3.9790   3.9807   3.9854   4.0013   4.0129
  4.0157   4.0186   4.0313   4.0360   4.0447   4.0530   4.0616   4.0791
  4.0811   4.0902   4.1125   4.1187   4.1229   4.1312   4.1380   4.1386
  4.1446   4.1540   4.1616   4.1721   4.1746   4.1767   4.1946   4.1993
  4.2050   4.2134   4.2328   4.2400   4.2423   4.2501   4.2563   4.2686
  4.2749   4.2761   4.2812   4.2835   4.2928   4.2950   4.3038   4.3083
  4.3111   4.3179   4.3251   4.3298   4.3399   4.3450   4.3478   4.3511
  4.3552   4.3628   4.3679   4.3715   4.3759   4.3814   4.3936   4.3953
  4.4030   4.4056   4.4069   4.4203   4.4287   4.4355   4.4476   4.4606
  4.4686   4.4737   4.4862   4.4887   4.4986   4.5122   4.5185   4.5270
  4.5348   4.5432   4.5493   4.5561   4.5661   4.5764   4.5801   4.5896
  4.5948   4.5962   4.6070   4.6087   4.6161   4.6194   4.6269   4.6410
  4.6533   4.6576   4.6643   4.6724   4.6945   4.6986   4.7028   4.7097
  4.7224   4.7278   4.7408   4.7457   4.7661   4.7880   4.7934   4.7949
  4.8151   4.8219   4.8382   4.8427   4.8509   4.8599   4.8772   4.8846
  4.8858   4.8901   4.9072   4.9255   4.9354   4.9457   4.9595   4.9724
  4.9867   4.9987   5.0183   5.0215   5.0298   5.0389   5.0493   5.0583
  5.0671   5.0920   5.1125   5.1183   5.1223   5.1277   5.1321   5.1354
  5.1451   5.1563   5.1722   5.1769   5.1952   5.2028   5.2119   5.2229
  5.2610   5.2662   5.2726   5.2830   5.2968   5.3072   5.3241   5.3298
  5.3325   5.3416   5.3463   5.3654   5.3782   5.3854   5.4027   5.4146
  5.4306   5.4443   5.4822   5.4837   5.4933   5.5074   5.5112   5.5144
  5.5173   5.5267   5.5377   5.5525   5.5553   5.5606   5.5636   5.5673
  5.5790   5.5861   5.5893   5.6049   5.6120   5.6182   5.6209   5.6264
  5.6410   5.6497   5.6599   5.6614   5.6664   5.6714   5.6869   5.6938
  5.6963   5.7047   5.7202   5.7377   5.7440   5.7578   5.7692   5.7786
  5.7848   5.7867   5.8119   5.8329   5.8448   5.8618   5.8841   5.9102
  5.9395   5.9602   5.9770   5.9904   6.0133   6.0287   6.0332   6.0414
  6.0496   6.0669   6.0941   6.1115   6.1229   6.1426   6.1508   6.1852
  6.2014   6.2191   6.2255   6.2258   6.2418   6.2600   6.2643   6.2833
  6.3090   6.3126   6.3236   6.3502   6.3658   6.3852   6.4242   6.4848
  6.5191   6.5306   6.5740   6.5827   6.6039   6.6153   6.6587   6.6589
  6.6705   6.6758   6.8445   6.8501   6.8884   6.9017   6.9048   6.9217
  6.9268   6.9350   7.1026   7.1078   7.1476   7.1918   7.1990   7.2345
  7.3471   7.3517   7.3565   7.3603   7.4749   7.5413   7.5700   7.5827
  7.5881   7.5968   7.6536   7.6756   7.6906   7.7123   8.8369   9.9982
 10.3244  11.3046  11.5156  11.7533  12.0172  12.0573  12.4139  12.4658
 12.9762  13.2228  13.3478  13.5665  13.7826  13.9256  14.0977  14.2770
 14.3124  14.3585  14.5118  14.6040  14.9936  15.6135  15.8028  16.3282
 --------------------------------------------------------------
 
          Ground-State Mulliken Net Atomic Charges

     Atom                 Charge (a.u.)
  ----------------------------------------
      1 C                    -0.084702
      2 C                    -0.031003
      3 C                    -0.111864
      4 C                    -0.124367
      5 H                     0.198796
      6 C                     0.021576
      7 C                     0.114692
      8 C                    -0.083238
      9 C                    -0.172518
     10 C                    -0.140333
     11 C                     0.182760
     12 H                     0.198721
     13 C                     0.342981
     14 C                     0.346915
     15 N                    -0.089968
     16 C                     0.357360
     17 C                     0.344124
     18 N                    -0.090947
     19 O                    -0.494421
     20 O                    -0.506465
     21 O                    -0.501465
     22 O                    -0.471311
     23 C                    -0.204730
     24 H                     0.139468
     25 H                     0.109393
     26 H                     0.108989
     27 C                    -0.197349
     28 H                     0.133396
     29 H                     0.110752
     30 H                     0.112323
     31 C                     0.003555
     32 S                     0.009629
     33 C                    -0.213328
     34 C                    -0.180771
     35 C                    -0.208200
     36 H                     0.184557
     37 H                     0.191199
     38 H                     0.210918
     39 H                     0.137454
     40 H                     0.137683
     41 H                     0.209738
  ----------------------------------------
  Sum of atomic charges =     0.000000

 -----------------------------------------------------------------
                    Cartesian Multipole Moments
 -----------------------------------------------------------------
    Charge (ESU x 10^10)
                 0.0000
    Dipole Moment (Debye)
         X       0.3718      Y       2.0558      Z      -2.2347
       Tot       3.0592
    Quadrupole Moments (Debye-Ang)
        XX    -181.4184     XY       8.4704     YY    -178.6163
        XZ     -16.2721     YZ       7.1852     ZZ    -169.9423
    Octopole Moments (Debye-Ang^2)
       XXX      -3.1180    XXY     540.9172    XYY     -35.7855
       YYY    1689.4498    XXZ      -6.0758    XYZ      69.8148
       YYZ     -40.8674    XZZ       3.7490    YZZ     528.9103
       ZZZ     -23.1555
    Hexadecapole Moments (Debye-Ang^3)
      XXXX   -3750.6954   XXXY      66.9039   XXYY   -3723.7900
      XYYY     862.5755   YYYY  -18052.5900   XXXZ   -1551.3263
      XXYZ     -60.8396   XYYZ    -911.1828   YYYZ     728.5272
      XXZZ   -1182.3628   XYZZ     -23.6560   YYZZ   -3413.7025
      XZZZ   -1512.3889   YZZZ     112.3622   ZZZZ   -2913.8854
 -----------------------------------------------------------------
 Total job time:  323.34s(wall), 8880.45s(cpu) 
 Wed Sep 27 00:38:09 2023

        *************************************************************
        *                                                           *
        *  Thank you very much for using Q-Chem.  Have a nice day.  *
        *                                                           *
        *************************************************************


0 sent ACK to 0 
now end server 0 ... 
cleanup process ... done
remove work dirs ./qchem1613419.0 -- ./qchem1613419.0
rm -rf ./qchem1613419.0
rm -rf ./qchem1613419
