You are running Q-Chem version: 5.4.0

#
# job setting
#
local host:  exp-7-17
current dir: /expanse/lustre/projects/csd626/rramji/aromodel/PNDIT/Hydrogenated_Rotation_Test
input file:  Dimethyl_Naphthalene_Dicarboximide_Phi_5_Theta_170_Thiophene_Hydrogenated.qcin
output file: 
nprocs     : 1
nthreads   : 64
#
# qchem installation setting
#
QC:          /cm/shared/apps/spack/cpu/opt/spack/linux-centos8-zen2/gcc-10.2.0/qchem-5.4-akfmr7b3t57bfs6qan3padb2wnb2i7cl
QCAUX:       /cm/shared/apps/spack/cpu/opt/spack/linux-centos8-zen2/gcc-10.2.0/qchem-5.4-akfmr7b3t57bfs6qan3padb2wnb2i7cl/qcaux
QCPROG:      /cm/shared/apps/spack/cpu/opt/spack/linux-centos8-zen2/gcc-10.2.0/qchem-5.4-akfmr7b3t57bfs6qan3padb2wnb2i7cl/exe/qcprog.exe
QCPROG_S:    /cm/shared/apps/spack/cpu/opt/spack/linux-centos8-zen2/gcc-10.2.0/qchem-5.4-akfmr7b3t57bfs6qan3padb2wnb2i7cl/exe/qcprog.exe_s
PARALLEL:    -DPARALLEL
QCMPI:       mpich
#
# qchem directory setting
#
qcrun:       qchem1314118
QCSCRATCH:   .
QCLOCALSCR:  
QCTMPDIR:    .
QCFILEPREF:  ./qchem1314118
QCSAVEDIR:   
workdirs:    ./qchem1314118
workdir0:    ./qchem1314118
partmpdirs =  
#
# parallel setting
#
QCRSH:           ssh
QCMPI:           mpich
QCMPIRUN:        /cm/shared/apps/spack/cpu/opt/spack/linux-centos8-zen2/gcc-10.2.0/qchem-5.4-akfmr7b3t57bfs6qan3padb2wnb2i7cl/bin/mpi/mpirun_qchem
QCMACHINEFILE:   ./qchem1314118/hostfile
exp-7-17

#
# env setting
#
exported envs:   QC QCAUX QCSCRATCH QCRUNNAME QCFILEPREF QCPROG QCPROG_S GUIFILE

Running Job 1 of 1 Dimethyl_Naphthalene_Dicarboximide_Phi_5_Theta_170_Thiophene_Hydrogenated.qcin
qchem Dimethyl_Naphthalene_Dicarboximide_Phi_5_Theta_170_Thiophene_Hydrogenated.qcin_1314118.0 ./qchem1314118/ 1
/cm/shared/apps/spack/cpu/opt/spack/linux-centos8-zen2/gcc-10.2.0/qchem-5.4-akfmr7b3t57bfs6qan3padb2wnb2i7cl/bin/mpi/mpirun_qchem -machinefile ./qchem1314118/hostfile -np 1 /cm/shared/apps/spack/cpu/opt/spack/linux-centos8-zen2/gcc-10.2.0/qchem-5.4-akfmr7b3t57bfs6qan3padb2wnb2i7cl/exe/qcprog.exe Dimethyl_Naphthalene_Dicarboximide_Phi_5_Theta_170_Thiophene_Hydrogenated.qcin_1314118.0 ./qchem1314118/

Process 0 of 1 is on exp-7-17 - thread support 0
initial socket setup ...start
initial socket setup ...done 
now start server 0 ... 
                  Welcome to Q-Chem
     A Quantum Leap Into The Future Of Chemistry


 Q-Chem 5.4, Q-Chem, Inc., Pleasanton, CA (2021)

 License issued to: University of California, San Diego (site)

 E. Epifanovsky,  A. T. B. Gilbert,  Xintian Feng,  Joonho Lee,  Yuezhi Mao,  
 N. Mardirossian,  P. Pokhilko,  A. White,  M. Wormit,  M. P. Coons,  
 A. L. Dempwolff,  Zhengting Gan,  D. Hait,  P. R. Horn,  L. D. Jacobson,  
 I. Kaliman,  J. Kussmann,  A. W. Lange,  Ka Un Lao,  D. S. Levine,  Jie Liu,  
 S. C. McKenzie,  A. F. Morrison,  K. Nanda,  F. Plasser,  D. R. Rehn,  
 M. L. Vidal,  Zhi-Qiang You,  Ying Zhu,  B. Alam,  B. Albrecht,  
 A. Aldossary,  E. Alguire,  J. H. Andersen,  D. Barton,  K. Begam,  A. Behn,  
 Y. A. Bernard,  E. J. Berquist,  H. Burton,  A. Carreras,  K. Carter-Fenk,  
 R. Chakraborty,  A. D. Chien,  K. D. Closser,  V. Cofer-Shabica,  
 S. Dasgupta,  Jia Deng,  M. de Wergifosse,  M. Diedenhofen,  Hainam Do,  
 S. Ehlert,  Po-Tung Fang,  S. Fatehi,  Qingguo Feng,  J. Gayvert,  
 Qinghui Ge,  G. Gidofalvi,  M. Goldey,  J. Gomes,  C. Gonzalez-Espinoza,  
 S. Gulania,  A. Gunina,  M. W. D. Hanson-Heine,  P. H. P. Harbach,  
 A. W. Hauser,  M. F. Herbst,  M. Hernandez Vera,  M. Hodecker,  
 Z. C. Holden,  S. Houck,  Xunkun Huang,  Kerwin Hui,  B. C. Huynh,  
 M. Ivanov,  Hyunjun Ji,  Hanjie Jiang,  B. Kaduk,  S. Kaehler,  
 K. Khistyaev,  Jaehoon Kim,  P. Klunzinger,  Z. Koczor-Benda,  
 Joong Hoon Koh,  D. Kosenkov,  L. Koulias,  T. Kowalczyk,  C. M. Krauter,  
 K. Kue,  A. Kunitsa,  T. Kus,  A. Landau,  K. V. Lawler,  D. Lefrancois,  
 S. Lehtola,  Rain Li,  Yi-Pei Li,  Jiashu Liang,  M. Liebenthal,  
 Hung-Hsuan Lin,  You-Sheng Lin,  Fenglai Liu,  Kuan-Yu Liu,  
 M. Loipersberger,  A. Luenser,  A. Manjanath,  P. Manohar,  E. Mansoor,  
 S. F. Manzer,  Shan-Ping Mao,  A. V. Marenich,  T. Markovich,  S. Mason,  
 S. A. Maurer,  P. F. McLaughlin,  M. F. S. J. Menger,  J.-M. Mewes,  
 S. A. Mewes,  P. Morgante,  J. W. Mullinax,  T. S. Nguyen-Beck,  
 K. J. Oosterbaan,  G. Paran,  Alexander C. Paul,  Suranjan K. Paul,  
 F. Pavosevic,  Zheng Pei,  S. Prager,  E. I. Proynov,  E. Ramos,  B. Rana,  
 A. E. Rask,  A. Rettig,  R. M. Richard,  F. Rob,  E. Rossomme,  T. Scheele,  
 M. Scheurer,  M. Schneider,  N. Sergueev,  S. M. Sharada,  W. Skomorowski,  
 D. W. Small,  C. J. Stein,  Yu-Chuan Su,  E. J. Sundstrom,  Zhen Tao,  
 J. Thirman,  T. Tsuchimochi,  N. M. Tubman,  S. P. Veccham,  O. Vydrov,  
 J. Wenzel,  J. Witte,  A. Yamada,  Kun Yao,  S. Yeganeh,  S. R. Yost,  
 A. Zech,  Igor Ying Zhang,  Xing Zhang,  Yu Zhang,  D. Zuev,  
 A. Aspuru-Guzik,  A. T. Bell,  N. A. Besley,  K. B. Bravaya,  B. R. Brooks,  
 D. Casanova,  Jeng-Da Chai,  S. Coriani,  C. J. Cramer,  
 A. E. DePrince, III,  R. A. DiStasio Jr.,  A. Dreuw,  B. D. Dunietz,  
 T. R. Furlani,  W. A. Goddard III,  S. Grimme,  S. Hammes-Schiffer,  
 T. Head-Gordon,  W. J. Hehre,  Chao-Ping Hsu,  T.-C. Jagau,  Yousung Jung,  
 A. Klamt,  Jing Kong,  D. S. Lambrecht,  WanZhen Liang,  N. J. Mayhall,  
 C. W. McCurdy,  J. B. Neaton,  C. Ochsenfeld,  J. A. Parkhill,  R. Peverati,  
 V. A. Rassolov,  Yihan Shao,  L. V. Slipchenko,  T. Stauch,  R. P. Steele,  
 J. E. Subotnik,  A. J. W. Thom,  A. Tkatchenko,  D. G. Truhlar,  
 T. Van Voorhis,  T. A. Wesolowski,  K. B. Whaley,  H. L. Woodcock III,  
 P. M. Zimmerman,  S. Faraji,  P. M. W. Gill,  M. Head-Gordon,  
 J. M. Herbert,  A. I. Krylov

 Contributors to earlier versions of Q-Chem not listed above: 
 R. D. Adamson,  B. Austin,  R. Baer,  J. Baker,  G. J. O. Beran,  
 K. Brandhorst,  S. T. Brown,  E. F. C. Byrd,  A. K. Chakraborty,  
 G. K. L. Chan,  Chun-Min Chang,  Yunqing Chen,  C.-L. Cheng,  
 Siu Hung Chien,  D. M. Chipman,  D. L. Crittenden,  H. Dachsel,  
 R. J. Doerksen,  A. D. Dutoi,  R. G. Edgar,  J. Fosso-Tande,  
 L. Fusti-Molnar,  D. Ghosh,  A. Ghysels,  A. Golubeva-Zadorozhnaya,  
 J. Gonthier,  M. S. Gordon,  S. R. Gwaltney,  G. Hawkins,  J. E. Herr,  
 A. Heyden,  S. Hirata,  E. G. Hohenstein,  G. Kedziora,  F. J. Keil,  
 C. Kelley,  Jihan Kim,  R. A. King,  R. Z. Khaliullin,  P. P. Korambath,  
 W. Kurlancheek,  A. Laurent,  A. M. Lee,  M. S. Lee,  S. V. Levchenko,  
 Ching Yeh Lin,  D. Liotard,  E. Livshits,  R. C. Lochan,  I. Lotan,  
 L. A. Martinez-Martinez,  P. E. Maslen,  N. Nair,  D. P. O'Neill,  
 D. Neuhauser,  E. Neuscamman,  C. M. Oana,  R. Olivares-Amaya,  R. Olson,  
 T. M. Perrine,  B. Peters,  P. A. Pieniazek,  A. Prociuk,  Y. M. Rhee,  
 J. Ritchie,  M. A. Rohrdanz,  E. Rosta,  N. J. Russ,  H. F. Schaefer III,  
 M. W. Schmidt,  N. E. Schultz,  S. Sharma,  N. Shenvi,  C. D. Sherrill,  
 A. C. Simmonett,  A. Sodt,  T. Stein,  D. Stuck,  K. S. Thanthiriwatte,  
 V. Vanovschi,  L. Vogt,  Tao Wang,  A. Warshel,  M. A. Watson,  
 C. F. Williams,  Q. Wu,  X. Xu,  Jun Yang,  W. Zhang,  Yan Zhao

 Please cite Q-Chem as follows:
 Y. Shao et al., Mol. Phys. 113, 184-215 (2015)
 DOI: 10.1080/00268976.2014.952696

 Q-Chem 5.4.0 for Intel X86 EM64T Linux

 Parts of Q-Chem use Armadillo 9.800.1 (Horizon Scraper).
 http://arma.sourceforge.net/

 Q-Chem begins on Tue Sep 26 23:16:05 2023  

 Host: 
0

     Scratch files written to ./qchem1314118//
 May1621 |scratch|qcdevops|jenkins|workspace|build_RNUM    
 Parallel job on  1  processors
 Processing $rem in /cm/shared/apps/spack/cpu/opt/spack/linux-centos8-zen2/gcc-10.2.0/qchem-5.4-akfmr7b3t57bfs6qan3padb2wnb2i7cl/config/preferences:
 Processing $rem in /home/rramji/.qchemrc:
 Symmetry turned off for PCM/SM12/SMD calculation
 Core orbitals will be frozen

 Checking the input file for inconsistencies... 	...done.

 Q-Chem warning in module forms1/BasisType.C, line 2236:

 You are not using the predefined 5D/6D in this basis set.


--------------------------------------------------------------
User input:
--------------------------------------------------------------
$molecule
0 1
C	0.046070	-6.741404	0.252767
C	0.272935	-6.155638	1.538656
C	-0.141739	-5.791452	-0.814966
C	0.321083	-4.803786	1.813042
H	0.425592	-6.821518	2.403318
C	-0.091779	-4.378638	-0.527566
C	0.138909	-3.838032	0.782769
C	-0.273808	-3.413062	-1.556632
C	0.188483	-2.426473	1.067868
C	-0.226610	-2.059348	-1.285436
C	0.000000	-1.478216	0.000000
H	-0.379657	-1.394783	-2.151019
C	-0.390420	-6.187987	-2.235891
C	-0.522125	-3.798164	-2.965540
N	-0.562731	-5.170003	-3.205600
C	0.570244	-4.424987	3.225760
C	0.438407	-2.036627	2.489646
N	0.610438	-3.049156	3.459662
O	-0.455563	-7.353131	-2.621768
O	-0.683373	-2.986854	-3.874608
O	0.729367	-5.248946	4.124059
O	0.508697	-0.878829	2.896516
C	-0.806996	-5.563799	-4.596910
H	-0.813717	-6.664085	-4.641640
H	-0.013655	-5.147101	-5.246567
H	-1.775159	-5.148785	-4.936739
C	0.851572	-2.587487	4.829729
H	0.964204	-3.483329	5.462387
H	0.003956	-1.964972	5.173914
H	1.764390	-1.962932	4.863360
C	0.000000	0.000000	0.000000
S	0.068929	0.790170	1.580530
C	0.211639	2.421655	0.904911
C	0.086813	0.994207	-0.985400
C	0.201782	2.309433	-0.493528
H	0.066299	0.759454	-2.059934
H	0.278488	3.187020	-1.152593
H	0.288312	3.298992	1.556025
H	-0.857128	-7.361589	0.303328
H	0.912587	-7.361192	-0.007933
H	-1.063684	-1.478831	0.187017
$end

$rem
JOBTYPE		SP
EXCHANGE	HF
CORRELATION	pRIMP2
BASIS		cc-pvtz
METHOD		rimp2
AUX_BASIS	rimp2-cc-pvtz
SOLVENT_METHOD	PCM
PURECART	11111
SYMMETRY	false
MEM_TOTAL	110000
SCF_CONVERGENCE = 6
THRESH=10
GUI = 2
$end



$solvent
dielectric 4.90
$end
--------------------------------------------------------------
 ----------------------------------------------------------------
             Standard Nuclear Orientation (Angstroms)
    I     Atom           X                Y                Z
 ----------------------------------------------------------------
    1      C       0.0460700000    -6.7414040000     0.2527670000
    2      C       0.2729350000    -6.1556380000     1.5386560000
    3      C      -0.1417390000    -5.7914520000    -0.8149660000
    4      C       0.3210830000    -4.8037860000     1.8130420000
    5      H       0.4255920000    -6.8215180000     2.4033180000
    6      C      -0.0917790000    -4.3786380000    -0.5275660000
    7      C       0.1389090000    -3.8380320000     0.7827690000
    8      C      -0.2738080000    -3.4130620000    -1.5566320000
    9      C       0.1884830000    -2.4264730000     1.0678680000
   10      C      -0.2266100000    -2.0593480000    -1.2854360000
   11      C       0.0000000000    -1.4782160000     0.0000000000
   12      H      -0.3796570000    -1.3947830000    -2.1510190000
   13      C      -0.3904200000    -6.1879870000    -2.2358910000
   14      C      -0.5221250000    -3.7981640000    -2.9655400000
   15      N      -0.5627310000    -5.1700030000    -3.2056000000
   16      C       0.5702440000    -4.4249870000     3.2257600000
   17      C       0.4384070000    -2.0366270000     2.4896460000
   18      N       0.6104380000    -3.0491560000     3.4596620000
   19      O      -0.4555630000    -7.3531310000    -2.6217680000
   20      O      -0.6833730000    -2.9868540000    -3.8746080000
   21      O       0.7293670000    -5.2489460000     4.1240590000
   22      O       0.5086970000    -0.8788290000     2.8965160000
   23      C      -0.8069960000    -5.5637990000    -4.5969100000
   24      H      -0.8137170000    -6.6640850000    -4.6416400000
   25      H      -0.0136550000    -5.1471010000    -5.2465670000
   26      H      -1.7751590000    -5.1487850000    -4.9367390000
   27      C       0.8515720000    -2.5874870000     4.8297290000
   28      H       0.9642040000    -3.4833290000     5.4623870000
   29      H       0.0039560000    -1.9649720000     5.1739140000
   30      H       1.7643900000    -1.9629320000     4.8633600000
   31      C       0.0000000000     0.0000000000     0.0000000000
   32      S       0.0689290000     0.7901700000     1.5805300000
   33      C       0.2116390000     2.4216550000     0.9049110000
   34      C       0.0868130000     0.9942070000    -0.9854000000
   35      C       0.2017820000     2.3094330000    -0.4935280000
   36      H       0.0662990000     0.7594540000    -2.0599340000
   37      H       0.2784880000     3.1870200000    -1.1525930000
   38      H       0.2883120000     3.2989920000     1.5560250000
   39      H      -0.8571280000    -7.3615890000     0.3033280000
   40      H       0.9125870000    -7.3611920000    -0.0079330000
   41      H      -1.0636840000    -1.4788310000     0.1870170000
 ----------------------------------------------------------------
 Nuclear Repulsion Energy =        2569.13467727 hartrees
 There are       98 alpha and       98 beta electrons
 Requested basis set is cc-pVTZ
 There are 356 shells and 1010 basis functions

 Total QAlloc Memory Limit 110000 MB
 Mega-Array Size       188 MB
 MEM_STATIC part       192 MB
 Discretize the solute cavity surface with Lebedev spheres
	Using 110 Lebedev grid points for each H atom
	Using 194 Lebedev grid points for other atoms
	Atomic van der Waals radii will be scaled by 1.20
 Remove points where switching function is < 1.0e-08
 Keep 2624 surface tesserae and discard 4154 interior tesserae
 Molecular Surface Area = 359.365 Angst**2
 Requested basis set is rimp2-cc-pVTZ
 There are 770 shells and 2648 basis functions
 A cutoff of  1.0D-10 yielded  34184 shell pairs
 There are    258584 function pairs (    334573 Cartesian)
 Smallest overlap matrix eigenvalue = 9.07E-06

 Q-Chem warning in module stvman/mkSTV.C, line 323:

 Overlap eigenvalue is smaller than square root of threshold
 Use THRESH >= 12 to get rid of this warning


 Scale SEOQF with 1.000000e-01/1.000000e-02/1.000000e-02

 Standard Electronic Orientation quadrupole field applied
 Nucleus-field energy     =     0.0000000110 hartrees
 Guess from superposition of atomic densities
 Warning:  Energy on first SCF cycle will be non-variational
 SAD guess density has 196.000000 electrons

 -----------------------------------------------------------------------
  General SCF calculation program by
  Eric Jon Sundstrom, Paul Horn, Yuezhi Mao, Dmitri Zuev, Alec White,
  David Stuck, Shaama M.S., Shane Yost, Joonho Lee, David Small,
  Daniel Levine, Susi Lehtola, Hugh Burton, Evgeny Epifanovsky,
  Bang C. Huynh
 -----------------------------------------------------------------------
 Hartree-Fock
 using 64 threads for integral computing
 -------------------------------------------------------
 OpenMP Integral computing Module                
 Release: version 1.0, May 2013, Q-Chem Inc. Pittsburgh 
 -------------------------------------------------------
 A restricted SCF calculation will be
 performed using DIIS
 SCF converges when DIIS error is below 1.0e-06
 ---------------------------------------
  Cycle       Energy         DIIS error
 ---------------------------------------
    1   -1583.2579220537      1.87e-02  
    2   -1571.1162725161      2.03e-03  
    3   -1571.4563952650      1.54e-03  
    4   -1571.6785728564      2.55e-04  
    5   -1571.6924660438      7.88e-05  
    6   -1571.6938848365      3.06e-05  
    7   -1571.6943128286      1.64e-05  
    8   -1571.6944386467      6.54e-06  
    9   -1571.6944618875      3.02e-06  
   10   -1571.6944665527      1.27e-06  
   11   -1571.6944679556      6.00e-07  Convergence criterion met
 ---------------------------------------
 SCF time:   CPU 7048.59s  wall 263.00s 

************** Final PCM Free Energy Summary **************
 G_electrostatic  =      -0.02923558 hartree =     -18.34560268 kcal/mol
 G_cavitation     =       0.00000000 hartree =       0.00000000 kcal/mol
 G_dispersion     =       0.00000000 hartree =       0.00000000 kcal/mol
 G_repulsion      =       0.00000000 hartree =       0.00000000 kcal/mol
 --------------------------------------------------
 Non-electrostatic Free Energy =       0.00000000 hartree =       0.00000000 kcal/mol
 Total                         =      -0.02923558 hartree =     -18.34560268 kcal/mol
 --------------------------------------------------
 SCF Energy (H0 + V/2)                       =   -1571.69446796 
 Solute Internal Energy (H0)                 =   -1571.66523238 
 Total Free Energy (H0 + V/2 + non-elec)     =   -1571.69446796 hartree
                                             = -986253.16416042 kcal/mol
***********************************************************

 SCF   energy in the final basis set =    -1571.6944679556
 Total energy in the final basis set =    -1571.6944679556


 --------------------------------------------------------------
  Generalized many-body perturbation theory program
  by Joonho Lee, Fazle Rob, Xintian Feng, Evgeny Epifanovsky

 No regularization used 
 (reg. param. = 0.0000e+00)
  (P|Q)^-1/2 Time:  CPU 111.21 s  wall 2.44 s

 In RI-MP2 calculation: 
 # of frozen core orbitals: 31

 Components of the RIMP2 correlation energy:
        aaaa    correlation energy =        -0.6182688906 a.u.
        abab    correlation energy =        -3.4318927943 a.u.
        bbbb    correlation energy =        -0.6182688906 a.u.
        non-Brillouin singles      =        -0.0000000000 a.u.
        total same-spin energy     =        -1.2365377813 a.u.
        total opposite-spin energy =        -3.4318927943 a.u.

 Total  RIMP2   correlation energy =        -4.6684305756 a.u.
        RIMP2         total energy =     -1576.3628985312 a.u.

 RI-MP2 Energy Time:  CPU 1977.20 s  wall 32.53 s
 
 --------------------------------------------------------------
 
                    Orbital Energies (a.u.)
 --------------------------------------------------------------
 
 Alpha MOs
 -- Occupied --
-91.9689 -20.5570 -20.5472 -20.5430 -20.5420 -15.6316 -15.6226 -11.4019
-11.3880 -11.3850 -11.3805 -11.3133 -11.3103 -11.3095 -11.3066 -11.2999
-11.2939 -11.2921 -11.2716 -11.2708 -11.2673 -11.2654 -11.2602 -11.2548
-11.2542 -11.2451 -11.2358  -8.9690  -6.6496  -6.6482  -6.6472  -1.4334
 -1.4135  -1.4039  -1.3927  -1.2686  -1.2570  -1.2322  -1.1856  -1.1454
 -1.1165  -1.0870  -1.0500  -0.9949  -0.9899  -0.9743  -0.9570  -0.9476
 -0.8993  -0.8917  -0.8804  -0.8637  -0.7925  -0.7824  -0.7764  -0.7586
 -0.7313  -0.7268  -0.7014  -0.6904  -0.6891  -0.6757  -0.6694  -0.6596
 -0.6521  -0.6461  -0.6386  -0.6339  -0.6335  -0.6327  -0.6240  -0.6066
 -0.5904  -0.5723  -0.5670  -0.5635  -0.5556  -0.5538  -0.5534  -0.5502
 -0.5489  -0.5459  -0.5208  -0.5142  -0.5126  -0.4879  -0.4811  -0.4647
 -0.4566  -0.4452  -0.4386  -0.4203  -0.4089  -0.3875  -0.3560  -0.3338
 -0.3265  -0.2770
 -- Virtual --
  0.0100   0.0397   0.0893   0.1070   0.1407   0.1498   0.1581   0.1595
  0.1632   0.1735   0.1791   0.1828   0.1892   0.1934   0.2029   0.2046
  0.2181   0.2243   0.2284   0.2295   0.2305   0.2358   0.2610   0.2625
  0.2666   0.2754   0.3019   0.3115   0.3177   0.3188   0.3278   0.3328
  0.3401   0.3441   0.3462   0.3505   0.3542   0.3619   0.3642   0.3684
  0.3716   0.3823   0.3870   0.3894   0.3945   0.4023   0.4125   0.4142
  0.4191   0.4256   0.4309   0.4323   0.4406   0.4445   0.4484   0.4523
  0.4561   0.4597   0.4667   0.4725   0.4800   0.4841   0.4903   0.4918
  0.4965   0.5018   0.5096   0.5125   0.5162   0.5192   0.5231   0.5318
  0.5392   0.5442   0.5470   0.5500   0.5537   0.5584   0.5639   0.5683
  0.5703   0.5760   0.5870   0.5884   0.5929   0.5968   0.5996   0.6003
  0.6045   0.6050   0.6089   0.6124   0.6150   0.6166   0.6208   0.6246
  0.6266   0.6289   0.6339   0.6378   0.6406   0.6444   0.6524   0.6614
  0.6712   0.6725   0.6780   0.6832   0.6888   0.6979   0.6997   0.7039
  0.7219   0.7291   0.7355   0.7373   0.7410   0.7476   0.7589   0.7594
  0.7673   0.7709   0.7763   0.7864   0.7932   0.8025   0.8058   0.8111
  0.8152   0.8204   0.8247   0.8315   0.8374   0.8398   0.8458   0.8507
  0.8572   0.8628   0.8688   0.8716   0.8741   0.8781   0.8834   0.8936
  0.8976   0.9051   0.9137   0.9142   0.9193   0.9243   0.9257   0.9294
  0.9350   0.9424   0.9459   0.9571   0.9602   0.9620   0.9671   0.9806
  0.9875   0.9915   0.9977   1.0021   1.0059   1.0109   1.0203   1.0234
  1.0286   1.0314   1.0401   1.0523   1.0587   1.0603   1.0640   1.0680
  1.0718   1.0743   1.0793   1.0838   1.0917   1.0965   1.0989   1.1049
  1.1087   1.1140   1.1231   1.1253   1.1314   1.1326   1.1397   1.1450
  1.1483   1.1613   1.1658   1.1712   1.1741   1.1838   1.1889   1.1904
  1.1948   1.2004   1.2035   1.2057   1.2090   1.2185   1.2283   1.2296
  1.2349   1.2376   1.2464   1.2475   1.2509   1.2612   1.2688   1.2750
  1.2798   1.2851   1.2973   1.3082   1.3140   1.3205   1.3237   1.3371
  1.3427   1.3498   1.3616   1.3696   1.3734   1.3778   1.3808   1.3890
  1.3928   1.3959   1.4056   1.4140   1.4179   1.4282   1.4334   1.4496
  1.4557   1.4639   1.4700   1.4758   1.4785   1.4830   1.4891   1.4979
  1.5061   1.5097   1.5125   1.5178   1.5274   1.5302   1.5359   1.5394
  1.5492   1.5543   1.5587   1.5618   1.5648   1.5714   1.5776   1.5817
  1.5900   1.5918   1.6041   1.6140   1.6258   1.6268   1.6359   1.6531
  1.6546   1.6580   1.6681   1.6741   1.6796   1.6947   1.6960   1.7099
  1.7112   1.7248   1.7271   1.7351   1.7392   1.7453   1.7499   1.7548
  1.7605   1.7648   1.7774   1.7832   1.7936   1.8015   1.8130   1.8156
  1.8245   1.8340   1.8365   1.8534   1.8588   1.8654   1.8671   1.8689
  1.8721   1.8854   1.8919   1.8954   1.9204   1.9241   1.9367   1.9432
  1.9592   1.9689   1.9703   1.9868   1.9893   2.0019   2.0191   2.0287
  2.0383   2.0546   2.0832   2.0959   2.1029   2.1071   2.1266   2.1349
  2.1451   2.1601   2.1736   2.1885   2.1965   2.2199   2.2285   2.2309
  2.2473   2.2530   2.2725   2.2844   2.2886   2.2921   2.3097   2.3186
  2.3256   2.3305   2.3471   2.3571   2.3639   2.3782   2.3864   2.3980
  2.4171   2.4285   2.4414   2.4487   2.4520   2.4639   2.4672   2.4737
  2.4841   2.5002   2.5031   2.5198   2.5378   2.5426   2.5540   2.5580
  2.5621   2.5630   2.5838   2.5845   2.5903   2.6031   2.6129   2.6225
  2.6305   2.6385   2.6417   2.6488   2.6568   2.6617   2.6737   2.6803
  2.6858   2.6921   2.7140   2.7165   2.7222   2.7292   2.7350   2.7394
  2.7411   2.7555   2.7569   2.7632   2.7703   2.7819   2.7890   2.7928
  2.8111   2.8259   2.8296   2.8327   2.8426   2.8603   2.8690   2.8763
  2.8796   2.8827   2.8857   2.8912   2.9041   2.9075   2.9110   2.9161
  2.9185   2.9263   2.9308   2.9463   2.9525   2.9574   2.9661   2.9719
  2.9824   2.9881   2.9901   3.0030   3.0128   3.0173   3.0235   3.0304
  3.0320   3.0412   3.0497   3.0574   3.0582   3.0714   3.0723   3.0776
  3.0975   3.1020   3.1024   3.1068   3.1086   3.1171   3.1181   3.1211
  3.1272   3.1342   3.1513   3.1592   3.1620   3.1666   3.1745   3.1851
  3.1883   3.1932   3.1939   3.2076   3.2126   3.2182   3.2225   3.2280
  3.2339   3.2401   3.2422   3.2480   3.2540   3.2622   3.2646   3.2661
  3.2705   3.2737   3.2839   3.2846   3.2895   3.2970   3.2996   3.3087
  3.3107   3.3163   3.3203   3.3242   3.3292   3.3310   3.3344   3.3356
  3.3416   3.3454   3.3511   3.3522   3.3654   3.3665   3.3693   3.3719
  3.3791   3.3808   3.3834   3.3967   3.3999   3.4060   3.4103   3.4162
  3.4213   3.4254   3.4324   3.4344   3.4381   3.4417   3.4476   3.4534
  3.4599   3.4647   3.4672   3.4729   3.4772   3.4781   3.4836   3.4892
  3.4935   3.5056   3.5132   3.5143   3.5154   3.5202   3.5235   3.5275
  3.5361   3.5420   3.5457   3.5535   3.5574   3.5621   3.5766   3.5857
  3.5868   3.5888   3.5974   3.6006   3.6116   3.6151   3.6282   3.6311
  3.6343   3.6413   3.6424   3.6486   3.6507   3.6548   3.6617   3.6649
  3.6695   3.6817   3.6878   3.6931   3.6937   3.6990   3.7049   3.7155
  3.7240   3.7315   3.7333   3.7393   3.7409   3.7450   3.7503   3.7595
  3.7618   3.7669   3.7682   3.7793   3.7829   3.7895   3.7975   3.8072
  3.8103   3.8155   3.8189   3.8246   3.8292   3.8325   3.8341   3.8401
  3.8512   3.8528   3.8600   3.8680   3.8767   3.8840   3.8860   3.9053
  3.9164   3.9226   3.9242   3.9310   3.9391   3.9473   3.9500   3.9545
  3.9630   3.9706   3.9775   3.9815   3.9952   3.9975   4.0136   4.0185
  4.0230   4.0262   4.0353   4.0454   4.0559   4.0606   4.0649   4.0808
  4.0914   4.1048   4.1123   4.1170   4.1247   4.1347   4.1373   4.1433
  4.1507   4.1592   4.1656   4.1677   4.1762   4.1769   4.1904   4.2061
  4.2099   4.2269   4.2326   4.2383   4.2400   4.2496   4.2511   4.2649
  4.2655   4.2777   4.2843   4.2846   4.2929   4.2954   4.3013   4.3146
  4.3198   4.3229   4.3248   4.3324   4.3359   4.3405   4.3462   4.3621
  4.3659   4.3672   4.3691   4.3722   4.3806   4.3831   4.3923   4.3944
  4.4046   4.4064   4.4191   4.4263   4.4300   4.4408   4.4435   4.4606
  4.4646   4.4769   4.4916   4.4999   4.5121   4.5224   4.5255   4.5341
  4.5370   4.5443   4.5516   4.5638   4.5676   4.5794   4.5841   4.5898
  4.5920   4.5967   4.6054   4.6126   4.6242   4.6256   4.6292   4.6480
  4.6490   4.6596   4.6708   4.6787   4.6955   4.6996   4.7026   4.7099
  4.7148   4.7408   4.7416   4.7722   4.7796   4.7863   4.7931   4.8028
  4.8114   4.8276   4.8391   4.8444   4.8506   4.8623   4.8803   4.8838
  4.8912   4.9160   4.9239   4.9304   4.9383   4.9453   4.9736   4.9757
  4.9929   5.0100   5.0229   5.0257   5.0336   5.0429   5.0537   5.0695
  5.0811   5.0881   5.1011   5.1085   5.1199   5.1306   5.1343   5.1428
  5.1550   5.1714   5.1746   5.1885   5.2005   5.2025   5.2118   5.2275
  5.2595   5.2637   5.2712   5.2836   5.3025   5.3212   5.3256   5.3286
  5.3347   5.3515   5.3680   5.3698   5.3760   5.3831   5.4005   5.4135
  5.4456   5.4501   5.4611   5.4889   5.4940   5.5105   5.5117   5.5162
  5.5284   5.5330   5.5449   5.5547   5.5589   5.5648   5.5674   5.5709
  5.5787   5.5850   5.5911   5.6071   5.6095   5.6208   5.6297   5.6353
  5.6465   5.6505   5.6594   5.6624   5.6651   5.6707   5.6917   5.6939
  5.7005   5.7074   5.7343   5.7438   5.7568   5.7609   5.7662   5.7748
  5.7820   5.7997   5.8169   5.8299   5.8532   5.8642   5.9031   5.9282
  5.9394   5.9577   5.9765   5.9930   6.0268   6.0302   6.0400   6.0525
  6.0812   6.1022   6.1091   6.1150   6.1198   6.1617   6.1820   6.1937
  6.2089   6.2182   6.2247   6.2287   6.2572   6.2756   6.2811   6.2938
  6.3004   6.3178   6.3324   6.3537   6.3694   6.3867   6.4715   6.4930
  6.5230   6.5413   6.5669   6.5811   6.6092   6.6357   6.6540   6.6600
  6.6721   6.7337   6.8503   6.8544   6.8905   6.9005   6.9041   6.9257
  6.9276   6.9693   7.1044   7.1365   7.1611   7.1952   7.2186   7.2958
  7.3448   7.3500   7.3540   7.3585   7.4757   7.5418   7.5708   7.5830
  7.5928   7.6450   7.6546   7.6891   7.7034   7.7554   8.9309  10.1812
 10.3473  11.2666  11.5404  11.7849  12.0879  12.1709  12.4424  12.5169
 12.9472  13.3220  13.3853  13.5837  13.8175  13.9326  14.1079  14.3132
 14.3603  14.4339  14.6084  14.7892  15.0608  15.6417  15.8457  16.3132
 --------------------------------------------------------------
 
          Ground-State Mulliken Net Atomic Charges

     Atom                 Charge (a.u.)
  ----------------------------------------
      1 C                    -0.084436
      2 C                    -0.028410
      3 C                    -0.105870
      4 C                    -0.121638
      5 H                     0.199998
      6 C                     0.025382
      7 C                     0.124280
      8 C                    -0.106031
      9 C                    -0.199662
     10 C                    -0.135441
     11 C                     0.222916
     12 H                     0.194545
     13 C                     0.343013
     14 C                     0.350865
     15 N                    -0.090377
     16 C                     0.359179
     17 C                     0.386939
     18 N                    -0.088259
     19 O                    -0.493171
     20 O                    -0.506969
     21 O                    -0.498867
     22 O                    -0.443170
     23 C                    -0.204695
     24 H                     0.139760
     25 H                     0.109668
     26 H                     0.109390
     27 C                    -0.199173
     28 H                     0.135128
     29 H                     0.112953
     30 H                     0.113554
     31 C                    -0.066917
     32 S                     0.065838
     33 C                    -0.257476
     34 C                    -0.166593
     35 C                    -0.250312
     36 H                     0.180108
     37 H                     0.179042
     38 H                     0.201421
     39 H                     0.138999
     40 H                     0.139319
     41 H                     0.215168
  ----------------------------------------
  Sum of atomic charges =     0.000000

 -----------------------------------------------------------------
                    Cartesian Multipole Moments
 -----------------------------------------------------------------
    Charge (ESU x 10^10)
                 0.0000
    Dipole Moment (Debye)
         X      -0.3795      Y      -0.0586      Z       1.3883
       Tot       1.4405
    Quadrupole Moments (Debye-Ang)
        XX    -163.4870     XY       0.3572     YY    -177.0399
        XZ      -4.8275     YZ      -9.7921     ZZ    -185.0691
    Octopole Moments (Debye-Ang^2)
       XXX     -21.1010    XXY     457.9004    XYY       5.6071
       YYY    1651.5286    XXZ     -31.2177    XYZ      23.2826
       YYZ      37.5938    XZZ      -3.3891    YZZ     594.8141
       ZZZ     -88.7404
    Hexadecapole Moments (Debye-Ang^3)
      XXXX    -373.7374   XXXY     -88.7744   XXYY   -2699.9606
      XYYY    -212.9825   YYYY  -17921.2281   XXXZ    -495.1188
      XXYZ    -134.1173   XYYZ    -310.8043   YYYZ   -1204.2134
      XXZZ   -1083.7175   XYZZ      27.2295   YYZZ   -4425.0888
      XZZZ    -555.7556   YZZZ    -114.7304   ZZZZ   -6382.3493
 -----------------------------------------------------------------
 Total job time:  300.16s(wall), 9194.38s(cpu) 
 Tue Sep 26 23:21:05 2023

        *************************************************************
        *                                                           *
        *  Thank you very much for using Q-Chem.  Have a nice day.  *
        *                                                           *
        *************************************************************


0 sent ACK to 0 
now end server 0 ... 
cleanup process ... done
remove work dirs ./qchem1314118.0 -- ./qchem1314118.0
rm -rf ./qchem1314118.0
rm -rf ./qchem1314118
