You are running Q-Chem version: 5.4.0

#
# job setting
#
local host:  exp-3-09
current dir: /expanse/lustre/projects/csd626/rramji/aromodel/PNDIT/Hydrogenated_Rotation_Test
input file:  Dimethyl_Naphthalene_Dicarboximide_Phi_60_Theta_180_Thiophene_Hydrogenated.qcin
output file: 
nprocs     : 1
nthreads   : 64
#
# qchem installation setting
#
QC:          /cm/shared/apps/spack/cpu/opt/spack/linux-centos8-zen2/gcc-10.2.0/qchem-5.4-akfmr7b3t57bfs6qan3padb2wnb2i7cl
QCAUX:       /cm/shared/apps/spack/cpu/opt/spack/linux-centos8-zen2/gcc-10.2.0/qchem-5.4-akfmr7b3t57bfs6qan3padb2wnb2i7cl/qcaux
QCPROG:      /cm/shared/apps/spack/cpu/opt/spack/linux-centos8-zen2/gcc-10.2.0/qchem-5.4-akfmr7b3t57bfs6qan3padb2wnb2i7cl/exe/qcprog.exe
QCPROG_S:    /cm/shared/apps/spack/cpu/opt/spack/linux-centos8-zen2/gcc-10.2.0/qchem-5.4-akfmr7b3t57bfs6qan3padb2wnb2i7cl/exe/qcprog.exe_s
PARALLEL:    -DPARALLEL
QCMPI:       mpich
#
# qchem directory setting
#
qcrun:       qchem3361965
QCSCRATCH:   .
QCLOCALSCR:  
QCTMPDIR:    .
QCFILEPREF:  ./qchem3361965
QCSAVEDIR:   
workdirs:    ./qchem3361965
workdir0:    ./qchem3361965
partmpdirs =  
#
# parallel setting
#
QCRSH:           ssh
QCMPI:           mpich
QCMPIRUN:        /cm/shared/apps/spack/cpu/opt/spack/linux-centos8-zen2/gcc-10.2.0/qchem-5.4-akfmr7b3t57bfs6qan3padb2wnb2i7cl/bin/mpi/mpirun_qchem
QCMACHINEFILE:   ./qchem3361965/hostfile
exp-3-09

#
# env setting
#
exported envs:   QC QCAUX QCSCRATCH QCRUNNAME QCFILEPREF QCPROG QCPROG_S GUIFILE

Running Job 1 of 1 Dimethyl_Naphthalene_Dicarboximide_Phi_60_Theta_180_Thiophene_Hydrogenated.qcin
qchem Dimethyl_Naphthalene_Dicarboximide_Phi_60_Theta_180_Thiophene_Hydrogenated.qcin_3361965.0 ./qchem3361965/ 1
/cm/shared/apps/spack/cpu/opt/spack/linux-centos8-zen2/gcc-10.2.0/qchem-5.4-akfmr7b3t57bfs6qan3padb2wnb2i7cl/bin/mpi/mpirun_qchem -machinefile ./qchem3361965/hostfile -np 1 /cm/shared/apps/spack/cpu/opt/spack/linux-centos8-zen2/gcc-10.2.0/qchem-5.4-akfmr7b3t57bfs6qan3padb2wnb2i7cl/exe/qcprog.exe Dimethyl_Naphthalene_Dicarboximide_Phi_60_Theta_180_Thiophene_Hydrogenated.qcin_3361965.0 ./qchem3361965/

Process 0 of 1 is on exp-3-09 - thread support 0
initial socket setup ...start
initial socket setup ...done 
now start server 0 ... 
                  Welcome to Q-Chem
     A Quantum Leap Into The Future Of Chemistry


 Q-Chem 5.4, Q-Chem, Inc., Pleasanton, CA (2021)

 License issued to: University of California, San Diego (site)

 E. Epifanovsky,  A. T. B. Gilbert,  Xintian Feng,  Joonho Lee,  Yuezhi Mao,  
 N. Mardirossian,  P. Pokhilko,  A. White,  M. Wormit,  M. P. Coons,  
 A. L. Dempwolff,  Zhengting Gan,  D. Hait,  P. R. Horn,  L. D. Jacobson,  
 I. Kaliman,  J. Kussmann,  A. W. Lange,  Ka Un Lao,  D. S. Levine,  Jie Liu,  
 S. C. McKenzie,  A. F. Morrison,  K. Nanda,  F. Plasser,  D. R. Rehn,  
 M. L. Vidal,  Zhi-Qiang You,  Ying Zhu,  B. Alam,  B. Albrecht,  
 A. Aldossary,  E. Alguire,  J. H. Andersen,  D. Barton,  K. Begam,  A. Behn,  
 Y. A. Bernard,  E. J. Berquist,  H. Burton,  A. Carreras,  K. Carter-Fenk,  
 R. Chakraborty,  A. D. Chien,  K. D. Closser,  V. Cofer-Shabica,  
 S. Dasgupta,  Jia Deng,  M. de Wergifosse,  M. Diedenhofen,  Hainam Do,  
 S. Ehlert,  Po-Tung Fang,  S. Fatehi,  Qingguo Feng,  J. Gayvert,  
 Qinghui Ge,  G. Gidofalvi,  M. Goldey,  J. Gomes,  C. Gonzalez-Espinoza,  
 S. Gulania,  A. Gunina,  M. W. D. Hanson-Heine,  P. H. P. Harbach,  
 A. W. Hauser,  M. F. Herbst,  M. Hernandez Vera,  M. Hodecker,  
 Z. C. Holden,  S. Houck,  Xunkun Huang,  Kerwin Hui,  B. C. Huynh,  
 M. Ivanov,  Hyunjun Ji,  Hanjie Jiang,  B. Kaduk,  S. Kaehler,  
 K. Khistyaev,  Jaehoon Kim,  P. Klunzinger,  Z. Koczor-Benda,  
 Joong Hoon Koh,  D. Kosenkov,  L. Koulias,  T. Kowalczyk,  C. M. Krauter,  
 K. Kue,  A. Kunitsa,  T. Kus,  A. Landau,  K. V. Lawler,  D. Lefrancois,  
 S. Lehtola,  Rain Li,  Yi-Pei Li,  Jiashu Liang,  M. Liebenthal,  
 Hung-Hsuan Lin,  You-Sheng Lin,  Fenglai Liu,  Kuan-Yu Liu,  
 M. Loipersberger,  A. Luenser,  A. Manjanath,  P. Manohar,  E. Mansoor,  
 S. F. Manzer,  Shan-Ping Mao,  A. V. Marenich,  T. Markovich,  S. Mason,  
 S. A. Maurer,  P. F. McLaughlin,  M. F. S. J. Menger,  J.-M. Mewes,  
 S. A. Mewes,  P. Morgante,  J. W. Mullinax,  T. S. Nguyen-Beck,  
 K. J. Oosterbaan,  G. Paran,  Alexander C. Paul,  Suranjan K. Paul,  
 F. Pavosevic,  Zheng Pei,  S. Prager,  E. I. Proynov,  E. Ramos,  B. Rana,  
 A. E. Rask,  A. Rettig,  R. M. Richard,  F. Rob,  E. Rossomme,  T. Scheele,  
 M. Scheurer,  M. Schneider,  N. Sergueev,  S. M. Sharada,  W. Skomorowski,  
 D. W. Small,  C. J. Stein,  Yu-Chuan Su,  E. J. Sundstrom,  Zhen Tao,  
 J. Thirman,  T. Tsuchimochi,  N. M. Tubman,  S. P. Veccham,  O. Vydrov,  
 J. Wenzel,  J. Witte,  A. Yamada,  Kun Yao,  S. Yeganeh,  S. R. Yost,  
 A. Zech,  Igor Ying Zhang,  Xing Zhang,  Yu Zhang,  D. Zuev,  
 A. Aspuru-Guzik,  A. T. Bell,  N. A. Besley,  K. B. Bravaya,  B. R. Brooks,  
 D. Casanova,  Jeng-Da Chai,  S. Coriani,  C. J. Cramer,  
 A. E. DePrince, III,  R. A. DiStasio Jr.,  A. Dreuw,  B. D. Dunietz,  
 T. R. Furlani,  W. A. Goddard III,  S. Grimme,  S. Hammes-Schiffer,  
 T. Head-Gordon,  W. J. Hehre,  Chao-Ping Hsu,  T.-C. Jagau,  Yousung Jung,  
 A. Klamt,  Jing Kong,  D. S. Lambrecht,  WanZhen Liang,  N. J. Mayhall,  
 C. W. McCurdy,  J. B. Neaton,  C. Ochsenfeld,  J. A. Parkhill,  R. Peverati,  
 V. A. Rassolov,  Yihan Shao,  L. V. Slipchenko,  T. Stauch,  R. P. Steele,  
 J. E. Subotnik,  A. J. W. Thom,  A. Tkatchenko,  D. G. Truhlar,  
 T. Van Voorhis,  T. A. Wesolowski,  K. B. Whaley,  H. L. Woodcock III,  
 P. M. Zimmerman,  S. Faraji,  P. M. W. Gill,  M. Head-Gordon,  
 J. M. Herbert,  A. I. Krylov

 Contributors to earlier versions of Q-Chem not listed above: 
 R. D. Adamson,  B. Austin,  R. Baer,  J. Baker,  G. J. O. Beran,  
 K. Brandhorst,  S. T. Brown,  E. F. C. Byrd,  A. K. Chakraborty,  
 G. K. L. Chan,  Chun-Min Chang,  Yunqing Chen,  C.-L. Cheng,  
 Siu Hung Chien,  D. M. Chipman,  D. L. Crittenden,  H. Dachsel,  
 R. J. Doerksen,  A. D. Dutoi,  R. G. Edgar,  J. Fosso-Tande,  
 L. Fusti-Molnar,  D. Ghosh,  A. Ghysels,  A. Golubeva-Zadorozhnaya,  
 J. Gonthier,  M. S. Gordon,  S. R. Gwaltney,  G. Hawkins,  J. E. Herr,  
 A. Heyden,  S. Hirata,  E. G. Hohenstein,  G. Kedziora,  F. J. Keil,  
 C. Kelley,  Jihan Kim,  R. A. King,  R. Z. Khaliullin,  P. P. Korambath,  
 W. Kurlancheek,  A. Laurent,  A. M. Lee,  M. S. Lee,  S. V. Levchenko,  
 Ching Yeh Lin,  D. Liotard,  E. Livshits,  R. C. Lochan,  I. Lotan,  
 L. A. Martinez-Martinez,  P. E. Maslen,  N. Nair,  D. P. O'Neill,  
 D. Neuhauser,  E. Neuscamman,  C. M. Oana,  R. Olivares-Amaya,  R. Olson,  
 T. M. Perrine,  B. Peters,  P. A. Pieniazek,  A. Prociuk,  Y. M. Rhee,  
 J. Ritchie,  M. A. Rohrdanz,  E. Rosta,  N. J. Russ,  H. F. Schaefer III,  
 M. W. Schmidt,  N. E. Schultz,  S. Sharma,  N. Shenvi,  C. D. Sherrill,  
 A. C. Simmonett,  A. Sodt,  T. Stein,  D. Stuck,  K. S. Thanthiriwatte,  
 V. Vanovschi,  L. Vogt,  Tao Wang,  A. Warshel,  M. A. Watson,  
 C. F. Williams,  Q. Wu,  X. Xu,  Jun Yang,  W. Zhang,  Yan Zhao

 Please cite Q-Chem as follows:
 Y. Shao et al., Mol. Phys. 113, 184-215 (2015)
 DOI: 10.1080/00268976.2014.952696

 Q-Chem 5.4.0 for Intel X86 EM64T Linux

 Parts of Q-Chem use Armadillo 9.800.1 (Horizon Scraper).
 http://arma.sourceforge.net/

 Q-Chem begins on Sun Sep 24 16:45:57 2023  

 Host: 
0

     Scratch files written to ./qchem3361965//
 May1621 |scratch|qcdevops|jenkins|workspace|build_RNUM    
 Parallel job on  1  processors
 Processing $rem in /cm/shared/apps/spack/cpu/opt/spack/linux-centos8-zen2/gcc-10.2.0/qchem-5.4-akfmr7b3t57bfs6qan3padb2wnb2i7cl/config/preferences:
 Processing $rem in /home/rramji/.qchemrc:
 Symmetry turned off for PCM/SM12/SMD calculation
 Core orbitals will be frozen

 Checking the input file for inconsistencies... 	...done.

 Q-Chem warning in module forms1/BasisType.C, line 2236:

 You are not using the predefined 5D/6D in this basis set.


--------------------------------------------------------------
User input:
--------------------------------------------------------------
$molecule
0 1
C	0.001478	-6.741404	0.256927
C	0.001603	-6.155638	1.562675
C	0.001931	-5.791452	-0.827197
C	0.001374	-4.803786	1.841253
H	0.001794	-6.821518	2.440709
C	0.001227	-4.378638	-0.535488
C	0.000872	-3.838032	0.794999
C	0.000658	-3.413062	-1.580529
C	0.000186	-2.426473	1.084374
C	0.000046	-2.059348	-1.305258
C	-0.000000	-1.478216	-0.000000
H	-0.000369	-1.394783	-2.184267
C	0.003770	-6.187987	-2.269719
C	0.000767	-3.798164	-3.011152
N	0.002465	-5.170003	-3.254617
C	0.001433	-4.424987	3.275775
C	-0.000576	-2.036627	2.527951
N	0.000400	-3.049156	3.513104
O	0.006623	-7.353131	-2.661046
O	-0.000172	-2.986854	-3.934410
O	0.002151	-5.248946	4.188059
O	-0.002006	-0.878829	2.940845
C	0.003509	-5.563799	-4.667206
H	0.004658	-6.664085	-4.712423
H	0.897610	-5.147101	-5.169231
H	-0.890935	-5.148785	-5.169992
C	-0.000039	-2.587487	4.904229
H	0.001022	-3.483329	5.546833
H	-0.894545	-1.964972	5.095998
H	0.893071	-1.962932	5.095858
C	0.000000	0.000000	0.000000
S	0.686805	0.396760	1.580530
C	2.105095	1.215640	0.904911
C	0.864201	0.499140	-0.985400
C	2.007514	1.159347	-0.493528
H	0.660136	0.381296	-2.059934
H	2.770388	1.599875	-1.152593
H	2.867745	1.656053	1.556025
H	-0.896779	-7.361589	0.149881
H	0.900100	-7.361192	0.150656
H	-1.080000	-1.478831	-0.000531
$end

$rem
JOBTYPE		SP
EXCHANGE	HF
CORRELATION	pRIMP2
BASIS		cc-pvtz
METHOD		rimp2
AUX_BASIS	rimp2-cc-pvtz
SOLVENT_METHOD	PCM
PURECART	11111
SYMMETRY	false
MEM_TOTAL	110000
SCF_CONVERGENCE = 6
THRESH=10
GUI = 2
$end



$solvent
dielectric 4.90
$end
--------------------------------------------------------------
 ----------------------------------------------------------------
             Standard Nuclear Orientation (Angstroms)
    I     Atom           X                Y                Z
 ----------------------------------------------------------------
    1      C       0.0014780000    -6.7414040000     0.2569270000
    2      C       0.0016030000    -6.1556380000     1.5626750000
    3      C       0.0019310000    -5.7914520000    -0.8271970000
    4      C       0.0013740000    -4.8037860000     1.8412530000
    5      H       0.0017940000    -6.8215180000     2.4407090000
    6      C       0.0012270000    -4.3786380000    -0.5354880000
    7      C       0.0008720000    -3.8380320000     0.7949990000
    8      C       0.0006580000    -3.4130620000    -1.5805290000
    9      C       0.0001860000    -2.4264730000     1.0843740000
   10      C       0.0000460000    -2.0593480000    -1.3052580000
   11      C       0.0000000000    -1.4782160000     0.0000000000
   12      H      -0.0003690000    -1.3947830000    -2.1842670000
   13      C       0.0037700000    -6.1879870000    -2.2697190000
   14      C       0.0007670000    -3.7981640000    -3.0111520000
   15      N       0.0024650000    -5.1700030000    -3.2546170000
   16      C       0.0014330000    -4.4249870000     3.2757750000
   17      C      -0.0005760000    -2.0366270000     2.5279510000
   18      N       0.0004000000    -3.0491560000     3.5131040000
   19      O       0.0066230000    -7.3531310000    -2.6610460000
   20      O      -0.0001720000    -2.9868540000    -3.9344100000
   21      O       0.0021510000    -5.2489460000     4.1880590000
   22      O      -0.0020060000    -0.8788290000     2.9408450000
   23      C       0.0035090000    -5.5637990000    -4.6672060000
   24      H       0.0046580000    -6.6640850000    -4.7124230000
   25      H       0.8976100000    -5.1471010000    -5.1692310000
   26      H      -0.8909350000    -5.1487850000    -5.1699920000
   27      C      -0.0000390000    -2.5874870000     4.9042290000
   28      H       0.0010220000    -3.4833290000     5.5468330000
   29      H      -0.8945450000    -1.9649720000     5.0959980000
   30      H       0.8930710000    -1.9629320000     5.0958580000
   31      C       0.0000000000     0.0000000000     0.0000000000
   32      S       0.6868050000     0.3967600000     1.5805300000
   33      C       2.1050950000     1.2156400000     0.9049110000
   34      C       0.8642010000     0.4991400000    -0.9854000000
   35      C       2.0075140000     1.1593470000    -0.4935280000
   36      H       0.6601360000     0.3812960000    -2.0599340000
   37      H       2.7703880000     1.5998750000    -1.1525930000
   38      H       2.8677450000     1.6560530000     1.5560250000
   39      H      -0.8967790000    -7.3615890000     0.1498810000
   40      H       0.9001000000    -7.3611920000     0.1506560000
   41      H      -1.0800000000    -1.4788310000    -0.0005310000
 ----------------------------------------------------------------
 Nuclear Repulsion Energy =        2611.07916060 hartrees
 There are       98 alpha and       98 beta electrons
 Requested basis set is cc-pVTZ
 There are 356 shells and 1010 basis functions

 Total QAlloc Memory Limit 110000 MB
 Mega-Array Size       188 MB
 MEM_STATIC part       192 MB
 Discretize the solute cavity surface with Lebedev spheres
	Using 110 Lebedev grid points for each H atom
	Using 194 Lebedev grid points for other atoms
	Atomic van der Waals radii will be scaled by 1.20
 Remove points where switching function is < 1.0e-08
 Keep 2526 surface tesserae and discard 4252 interior tesserae
 Molecular Surface Area = 356.952 Angst**2
 Requested basis set is rimp2-cc-pVTZ
 There are 770 shells and 2648 basis functions
 A cutoff of  1.0D-10 yielded  35152 shell pairs
 There are    265588 function pairs (    343714 Cartesian)
 Smallest overlap matrix eigenvalue = 8.31E-06

 Q-Chem warning in module stvman/mkSTV.C, line 323:

 Overlap eigenvalue is smaller than square root of threshold
 Use THRESH >= 12 to get rid of this warning


 Scale SEOQF with 1.000000e-01/1.000000e-02/1.000000e-02

 Standard Electronic Orientation quadrupole field applied
 Nucleus-field energy     =     0.0000000114 hartrees
 Guess from superposition of atomic densities
 Warning:  Energy on first SCF cycle will be non-variational
 SAD guess density has 196.000000 electrons

 -----------------------------------------------------------------------
  General SCF calculation program by
  Eric Jon Sundstrom, Paul Horn, Yuezhi Mao, Dmitri Zuev, Alec White,
  David Stuck, Shaama M.S., Shane Yost, Joonho Lee, David Small,
  Daniel Levine, Susi Lehtola, Hugh Burton, Evgeny Epifanovsky,
  Bang C. Huynh
 -----------------------------------------------------------------------
 Hartree-Fock
 using 64 threads for integral computing
 -------------------------------------------------------
 OpenMP Integral computing Module                
 Release: version 1.0, May 2013, Q-Chem Inc. Pittsburgh 
 -------------------------------------------------------
 A restricted SCF calculation will be
 performed using DIIS
 SCF converges when DIIS error is below 1.0e-06
 ---------------------------------------
  Cycle       Energy         DIIS error
 ---------------------------------------
    1   -1583.5180094413      1.88e-02  
    2   -1571.0115546351      1.99e-03  
    3   -1571.3495594285      1.49e-03  
    4   -1571.5567377388      2.60e-04  
    5   -1571.5712572977      8.07e-05  
    6   -1571.5728563415      3.38e-05  
    7   -1571.5734059564      1.78e-05  
    8   -1571.5735869553      8.37e-06  
    9   -1571.5736275968      3.58e-06  
   10   -1571.5736363620      1.66e-06  
   11   -1571.5736387260      7.21e-07  Convergence criterion met
 ---------------------------------------
 SCF time:   CPU 7354.42s  wall 273.00s 

************** Final PCM Free Energy Summary **************
 G_electrostatic  =      -0.02820955 hartree =     -17.70175938 kcal/mol
 G_cavitation     =       0.00000000 hartree =       0.00000000 kcal/mol
 G_dispersion     =       0.00000000 hartree =       0.00000000 kcal/mol
 G_repulsion      =       0.00000000 hartree =       0.00000000 kcal/mol
 --------------------------------------------------
 Non-electrostatic Free Energy =       0.00000000 hartree =       0.00000000 kcal/mol
 Total                         =      -0.02820955 hartree =     -17.70175938 kcal/mol
 --------------------------------------------------
 SCF Energy (H0 + V/2)                       =   -1571.57363873 
 Solute Internal Energy (H0)                 =   -1571.54542918 
 Total Free Energy (H0 + V/2 + non-elec)     =   -1571.57363873 hartree
                                             = -986177.34267449 kcal/mol
***********************************************************

 SCF   energy in the final basis set =    -1571.5736387260
 Total energy in the final basis set =    -1571.5736387260


 --------------------------------------------------------------
  Generalized many-body perturbation theory program
  by Joonho Lee, Fazle Rob, Xintian Feng, Evgeny Epifanovsky

 No regularization used 
 (reg. param. = 0.0000e+00)
  (P|Q)^-1/2 Time:  CPU 283.37 s  wall 4.92 s

 In RI-MP2 calculation: 
 # of frozen core orbitals: 31

 Components of the RIMP2 correlation energy:
        aaaa    correlation energy =        -0.6243660343 a.u.
        abab    correlation energy =        -3.4473096060 a.u.
        bbbb    correlation energy =        -0.6243660343 a.u.
        non-Brillouin singles      =        -0.0000000000 a.u.
        total same-spin energy     =        -1.2487320686 a.u.
        total opposite-spin energy =        -3.4473096060 a.u.

 Total  RIMP2   correlation energy =        -4.6960416746 a.u.
        RIMP2         total energy =     -1576.2696804006 a.u.

 RI-MP2 Energy Time:  CPU 2279.48 s  wall 38.14 s
 
 --------------------------------------------------------------
 
                    Orbital Energies (a.u.)
 --------------------------------------------------------------
 
 Alpha MOs
 -- Occupied --
-91.9704 -20.5670 -20.5471 -20.5381 -20.5376 -15.6343 -15.6192 -11.4058
-11.3879 -11.3799 -11.3765 -11.3090 -11.3079 -11.3041 -11.3029 -11.2976
-11.2802 -11.2742 -11.2687 -11.2668 -11.2628 -11.2628 -11.2605 -11.2583
-11.2522 -11.2512 -11.2377  -8.9713  -6.6517  -6.6494  -6.6483  -1.4490
 -1.4096  -1.4058  -1.3887  -1.2724  -1.2534  -1.2303  -1.1876  -1.1463
 -1.1130  -1.0816  -1.0473  -0.9966  -0.9894  -0.9851  -0.9558  -0.9462
 -0.9003  -0.8875  -0.8790  -0.8609  -0.7905  -0.7842  -0.7771  -0.7627
 -0.7347  -0.7265  -0.7014  -0.6908  -0.6889  -0.6783  -0.6683  -0.6578
 -0.6525  -0.6432  -0.6361  -0.6329  -0.6311  -0.6299  -0.6220  -0.6062
 -0.5934  -0.5770  -0.5693  -0.5643  -0.5615  -0.5584  -0.5534  -0.5478
 -0.5460  -0.5447  -0.5286  -0.5116  -0.5066  -0.4896  -0.4650  -0.4557
 -0.4449  -0.4408  -0.4368  -0.4225  -0.4057  -0.3775  -0.3522  -0.3295
 -0.3127  -0.2688
 -- Virtual --
  0.0112   0.0416   0.0668   0.0919   0.1428   0.1508   0.1568   0.1598
  0.1639   0.1723   0.1761   0.1815   0.1902   0.1917   0.1953   0.2044
  0.2142   0.2231   0.2270   0.2316   0.2350   0.2382   0.2576   0.2625
  0.2648   0.2775   0.2932   0.3038   0.3149   0.3206   0.3261   0.3265
  0.3354   0.3423   0.3485   0.3502   0.3575   0.3602   0.3641   0.3701
  0.3752   0.3785   0.3860   0.3909   0.3923   0.3981   0.3988   0.4085
  0.4169   0.4207   0.4290   0.4333   0.4366   0.4407   0.4459   0.4511
  0.4539   0.4604   0.4670   0.4718   0.4764   0.4845   0.4898   0.4947
  0.5003   0.5019   0.5085   0.5118   0.5153   0.5192   0.5229   0.5333
  0.5368   0.5424   0.5467   0.5487   0.5517   0.5543   0.5602   0.5684
  0.5757   0.5801   0.5829   0.5888   0.5912   0.5979   0.6002   0.6012
  0.6072   0.6088   0.6111   0.6138   0.6186   0.6237   0.6271   0.6319
  0.6335   0.6347   0.6397   0.6439   0.6461   0.6478   0.6526   0.6581
  0.6627   0.6679   0.6781   0.6862   0.6892   0.6956   0.7001   0.7037
  0.7110   0.7150   0.7273   0.7377   0.7421   0.7478   0.7584   0.7628
  0.7641   0.7706   0.7722   0.7792   0.7879   0.7988   0.8066   0.8082
  0.8105   0.8255   0.8265   0.8318   0.8328   0.8455   0.8484   0.8511
  0.8557   0.8645   0.8661   0.8695   0.8710   0.8798   0.8804   0.8910
  0.9006   0.9030   0.9083   0.9134   0.9181   0.9233   0.9272   0.9314
  0.9343   0.9393   0.9527   0.9552   0.9580   0.9741   0.9764   0.9853
  0.9858   0.9917   0.9959   1.0066   1.0128   1.0141   1.0204   1.0264
  1.0311   1.0359   1.0424   1.0473   1.0520   1.0571   1.0647   1.0692
  1.0708   1.0742   1.0852   1.0888   1.0901   1.1027   1.1050   1.1068
  1.1131   1.1210   1.1275   1.1279   1.1321   1.1376   1.1433   1.1488
  1.1527   1.1638   1.1659   1.1720   1.1751   1.1809   1.1887   1.1972
  1.1995   1.2024   1.2073   1.2096   1.2163   1.2227   1.2291   1.2347
  1.2399   1.2418   1.2503   1.2563   1.2589   1.2688   1.2756   1.2807
  1.2928   1.2966   1.3031   1.3202   1.3295   1.3307   1.3367   1.3380
  1.3495   1.3532   1.3600   1.3625   1.3734   1.3803   1.3852   1.3887
  1.3950   1.4005   1.4045   1.4071   1.4161   1.4236   1.4349   1.4448
  1.4527   1.4599   1.4628   1.4709   1.4828   1.4850   1.4903   1.4974
  1.5014   1.5091   1.5108   1.5137   1.5196   1.5279   1.5362   1.5375
  1.5453   1.5530   1.5559   1.5641   1.5681   1.5712   1.5824   1.5854
  1.5913   1.6005   1.6075   1.6127   1.6214   1.6331   1.6422   1.6444
  1.6542   1.6591   1.6734   1.6789   1.6882   1.6942   1.6977   1.6992
  1.7081   1.7165   1.7375   1.7399   1.7431   1.7527   1.7540   1.7555
  1.7623   1.7723   1.7811   1.7939   1.7989   1.8025   1.8145   1.8200
  1.8224   1.8369   1.8488   1.8516   1.8599   1.8642   1.8687   1.8729
  1.8767   1.8948   1.8952   1.9072   1.9245   1.9369   1.9432   1.9533
  1.9651   1.9660   1.9843   1.9993   2.0021   2.0242   2.0302   2.0417
  2.0560   2.0619   2.0741   2.0971   2.1001   2.1198   2.1236   2.1307
  2.1399   2.1605   2.1680   2.1775   2.1989   2.2072   2.2160   2.2328
  2.2497   2.2601   2.2806   2.2920   2.2944   2.3040   2.3140   2.3236
  2.3325   2.3361   2.3420   2.3607   2.3698   2.3753   2.3799   2.4005
  2.4164   2.4406   2.4430   2.4524   2.4575   2.4617   2.4809   2.4846
  2.4968   2.5033   2.5126   2.5246   2.5339   2.5564   2.5625   2.5640
  2.5759   2.5826   2.5866   2.6019   2.6093   2.6130   2.6235   2.6274
  2.6340   2.6411   2.6457   2.6513   2.6645   2.6682   2.6803   2.6867
  2.6930   2.7032   2.7051   2.7159   2.7299   2.7333   2.7392   2.7467
  2.7504   2.7624   2.7658   2.7741   2.7785   2.7965   2.8008   2.8119
  2.8308   2.8370   2.8495   2.8543   2.8584   2.8641   2.8661   2.8756
  2.8837   2.8896   2.9002   2.9063   2.9074   2.9140   2.9152   2.9253
  2.9339   2.9419   2.9440   2.9512   2.9630   2.9710   2.9791   2.9828
  2.9899   2.9985   3.0059   3.0091   3.0171   3.0237   3.0297   3.0336
  3.0436   3.0516   3.0599   3.0649   3.0718   3.0802   3.0814   3.0973
  3.0998   3.1009   3.1081   3.1111   3.1191   3.1199   3.1330   3.1369
  3.1467   3.1505   3.1539   3.1586   3.1608   3.1742   3.1779   3.1866
  3.1911   3.1942   3.2013   3.2044   3.2100   3.2158   3.2228   3.2287
  3.2393   3.2411   3.2445   3.2509   3.2530   3.2587   3.2634   3.2685
  3.2705   3.2767   3.2851   3.2900   3.2949   3.2988   3.3067   3.3101
  3.3122   3.3166   3.3235   3.3283   3.3300   3.3364   3.3370   3.3412
  3.3507   3.3511   3.3545   3.3581   3.3646   3.3694   3.3733   3.3768
  3.3840   3.3860   3.3870   3.3945   3.3996   3.4100   3.4130   3.4176
  3.4222   3.4279   3.4308   3.4380   3.4428   3.4485   3.4530   3.4571
  3.4660   3.4691   3.4706   3.4756   3.4817   3.4896   3.4947   3.5021
  3.5059   3.5112   3.5151   3.5188   3.5248   3.5286   3.5369   3.5434
  3.5440   3.5503   3.5542   3.5611   3.5684   3.5762   3.5827   3.5855
  3.5927   3.6040   3.6108   3.6136   3.6195   3.6206   3.6266   3.6340
  3.6359   3.6426   3.6466   3.6516   3.6552   3.6658   3.6679   3.6751
  3.6812   3.6870   3.6888   3.7005   3.7059   3.7130   3.7244   3.7255
  3.7345   3.7345   3.7397   3.7451   3.7508   3.7528   3.7576   3.7617
  3.7690   3.7724   3.7773   3.7813   3.7923   3.7938   3.8029   3.8107
  3.8136   3.8200   3.8261   3.8302   3.8316   3.8407   3.8438   3.8515
  3.8612   3.8655   3.8762   3.8832   3.8925   3.8957   3.9053   3.9158
  3.9231   3.9280   3.9345   3.9415   3.9484   3.9534   3.9563   3.9641
  3.9677   3.9760   3.9856   3.9955   4.0044   4.0091   4.0141   4.0189
  4.0275   4.0308   4.0393   4.0523   4.0618   4.0712   4.0871   4.0914
  4.0976   4.1024   4.1185   4.1219   4.1309   4.1383   4.1455   4.1500
  4.1567   4.1648   4.1723   4.1753   4.1842   4.1867   4.2060   4.2186
  4.2234   4.2298   4.2404   4.2448   4.2533   4.2610   4.2688   4.2744
  4.2763   4.2834   4.2892   4.2940   4.2977   4.3044   4.3096   4.3186
  4.3267   4.3302   4.3350   4.3436   4.3462   4.3510   4.3547   4.3667
  4.3675   4.3716   4.3781   4.3844   4.3905   4.3921   4.3997   4.4078
  4.4133   4.4247   4.4283   4.4331   4.4377   4.4484   4.4618   4.4674
  4.4800   4.4935   4.4969   4.5055   4.5190   4.5207   4.5388   4.5429
  4.5486   4.5548   4.5640   4.5667   4.5754   4.5828   4.5900   4.5960
  4.6021   4.6090   4.6138   4.6226   4.6282   4.6295   4.6421   4.6474
  4.6566   4.6659   4.6762   4.6826   4.6897   4.7047   4.7094   4.7194
  4.7391   4.7436   4.7562   4.7759   4.7899   4.7931   4.8035   4.8177
  4.8252   4.8365   4.8394   4.8486   4.8632   4.8706   4.8763   4.8868
  4.8908   4.9070   4.9257   4.9410   4.9553   4.9570   4.9850   4.9908
  4.9924   5.0028   5.0143   5.0210   5.0324   5.0453   5.0605   5.0649
  5.0817   5.0977   5.1119   5.1212   5.1264   5.1326   5.1360   5.1396
  5.1507   5.1559   5.1750   5.1856   5.1938   5.2067   5.2132   5.2314
  5.2511   5.2651   5.2787   5.2914   5.3059   5.3082   5.3213   5.3263
  5.3319   5.3399   5.3579   5.3698   5.3798   5.3831   5.4040   5.4170
  5.4328   5.4498   5.4760   5.4915   5.4985   5.5100   5.5107   5.5183
  5.5235   5.5408   5.5419   5.5551   5.5580   5.5673   5.5685   5.5728
  5.5845   5.5889   5.5954   5.6090   5.6121   5.6256   5.6312   5.6448
  5.6501   5.6541   5.6602   5.6679   5.6685   5.6773   5.6951   5.6972
  5.7026   5.7192   5.7205   5.7405   5.7563   5.7622   5.7676   5.7812
  5.7833   5.7954   5.8187   5.8326   5.8502   5.8870   5.9002   5.9092
  5.9432   5.9657   5.9742   5.9871   5.9934   6.0208   6.0411   6.0439
  6.0501   6.0842   6.1091   6.1178   6.1293   6.1419   6.1554   6.1868
  6.1933   6.2198   6.2241   6.2268   6.2532   6.2590   6.2795   6.2855
  6.3113   6.3178   6.3244   6.3508   6.3706   6.4009   6.4125   6.4856
  6.5248   6.5400   6.5661   6.5851   6.5857   6.6058   6.6353   6.6535
  6.6744   6.6760   6.8465   6.8529   6.8921   6.9036   6.9075   6.9232
  6.9302   7.0795   7.1082   7.1374   7.1701   7.1921   7.2243   7.3115
  7.3480   7.3538   7.3615   7.3889   7.4737   7.5434   7.5737   7.5849
  7.5978   7.6548   7.6593   7.6929   7.7057   7.7780   8.9039  10.1198
 10.3388  11.3375  11.5776  11.8091  11.9903  12.2841  12.4470  12.5257
 13.0603  13.2301  13.3876  13.5701  13.8214  13.9364  14.1140  14.2847
 14.3233  14.3710  14.5911  14.6342  15.0064  15.6176  15.8062  16.3372
 --------------------------------------------------------------
 
          Ground-State Mulliken Net Atomic Charges

     Atom                 Charge (a.u.)
  ----------------------------------------
      1 C                    -0.086034
      2 C                    -0.028102
      3 C                    -0.122013
      4 C                    -0.120328
      5 H                     0.198939
      6 C                     0.015171
      7 C                     0.122746
      8 C                    -0.083954
      9 C                    -0.227796
     10 C                    -0.148961
     11 C                     0.196592
     12 H                     0.188428
     13 C                     0.340142
     14 C                     0.345015
     15 N                    -0.088510
     16 C                     0.357448
     17 C                     0.390083
     18 N                    -0.082180
     19 O                    -0.501343
     20 O                    -0.513593
     21 O                    -0.498396
     22 O                    -0.407595
     23 C                    -0.205721
     24 H                     0.139206
     25 H                     0.108449
     26 H                     0.108411
     27 C                    -0.198131
     28 H                     0.136067
     29 H                     0.112792
     30 H                     0.113657
     31 C                    -0.142448
     32 S                     0.085740
     33 C                    -0.195822
     34 C                    -0.110994
     35 C                    -0.263981
     36 H                     0.192510
     37 H                     0.178313
     38 H                     0.200863
     39 H                     0.136080
     40 H                     0.136237
     41 H                     0.223012
  ----------------------------------------
  Sum of atomic charges =     0.000000

 -----------------------------------------------------------------
                    Cartesian Multipole Moments
 -----------------------------------------------------------------
    Charge (ESU x 10^10)
                 0.0000
    Dipole Moment (Debye)
         X       1.0057      Y       1.2976      Z       2.3553
       Tot       2.8710
    Quadrupole Moments (Debye-Ang)
        XX    -155.5747     XY       5.3771     YY    -190.8550
        XZ       1.1777     YZ     -12.8056     ZZ    -184.7709
    Octopole Moments (Debye-Ang^2)
       XXX    -104.8318    XXY     497.0315    XYY     -36.6437
       YYY    1757.6608    XXZ     -24.2106    XYZ       3.2440
       YYZ      47.7387    XZZ     -31.1935    YZZ     623.6437
       ZZZ     -76.6317
    Hexadecapole Moments (Debye-Ang^3)
      XXXX    -548.5976   XXXY     -73.2818   XXYY   -2622.8359
      XYYY    -104.5604   YYYY  -18020.6671   XXXZ     -23.0617
      XXYZ    -126.7802   XYYZ      -6.6509   YYYZ   -1295.2928
      XXZZ   -1112.8877   XYZZ     -25.5471   YYZZ   -4479.8516
      XZZZ     -34.2999   YZZZ    -125.4654   ZZZZ   -6576.9419
 -----------------------------------------------------------------
 Total job time:  371.76s(wall), 10042.83s(cpu) 
 Sun Sep 24 16:52:09 2023

        *************************************************************
        *                                                           *
        *  Thank you very much for using Q-Chem.  Have a nice day.  *
        *                                                           *
        *************************************************************


0 sent ACK to 0 
now end server 0 ... 
cleanup process ... done
remove work dirs ./qchem3361965.0 -- ./qchem3361965.0
rm -rf ./qchem3361965.0
rm -rf ./qchem3361965
