You are running Q-Chem version: 5.4.0

#
# job setting
#
local host:  exp-2-42
current dir: /expanse/lustre/projects/csd626/rramji/aromodel/PNDIT/Hydrogenated_Rotation_Test
input file:  Dimethyl_Naphthalene_Dicarboximide_Phi_20_Theta_220_Thiophene_Hydrogenated.qcin
output file: 
nprocs     : 1
nthreads   : 64
#
# qchem installation setting
#
QC:          /cm/shared/apps/spack/cpu/opt/spack/linux-centos8-zen2/gcc-10.2.0/qchem-5.4-akfmr7b3t57bfs6qan3padb2wnb2i7cl
QCAUX:       /cm/shared/apps/spack/cpu/opt/spack/linux-centos8-zen2/gcc-10.2.0/qchem-5.4-akfmr7b3t57bfs6qan3padb2wnb2i7cl/qcaux
QCPROG:      /cm/shared/apps/spack/cpu/opt/spack/linux-centos8-zen2/gcc-10.2.0/qchem-5.4-akfmr7b3t57bfs6qan3padb2wnb2i7cl/exe/qcprog.exe
QCPROG_S:    /cm/shared/apps/spack/cpu/opt/spack/linux-centos8-zen2/gcc-10.2.0/qchem-5.4-akfmr7b3t57bfs6qan3padb2wnb2i7cl/exe/qcprog.exe_s
PARALLEL:    -DPARALLEL
QCMPI:       mpich
#
# qchem directory setting
#
qcrun:       qchem4103565
QCSCRATCH:   .
QCLOCALSCR:  
QCTMPDIR:    .
QCFILEPREF:  ./qchem4103565
QCSAVEDIR:   
workdirs:    ./qchem4103565
workdir0:    ./qchem4103565
partmpdirs =  
#
# parallel setting
#
QCRSH:           ssh
QCMPI:           mpich
QCMPIRUN:        /cm/shared/apps/spack/cpu/opt/spack/linux-centos8-zen2/gcc-10.2.0/qchem-5.4-akfmr7b3t57bfs6qan3padb2wnb2i7cl/bin/mpi/mpirun_qchem
QCMACHINEFILE:   ./qchem4103565/hostfile
exp-2-42

#
# env setting
#
exported envs:   QC QCAUX QCSCRATCH QCRUNNAME QCFILEPREF QCPROG QCPROG_S GUIFILE

Running Job 1 of 1 Dimethyl_Naphthalene_Dicarboximide_Phi_20_Theta_220_Thiophene_Hydrogenated.qcin
qchem Dimethyl_Naphthalene_Dicarboximide_Phi_20_Theta_220_Thiophene_Hydrogenated.qcin_4103565.0 ./qchem4103565/ 1
/cm/shared/apps/spack/cpu/opt/spack/linux-centos8-zen2/gcc-10.2.0/qchem-5.4-akfmr7b3t57bfs6qan3padb2wnb2i7cl/bin/mpi/mpirun_qchem -machinefile ./qchem4103565/hostfile -np 1 /cm/shared/apps/spack/cpu/opt/spack/linux-centos8-zen2/gcc-10.2.0/qchem-5.4-akfmr7b3t57bfs6qan3padb2wnb2i7cl/exe/qcprog.exe Dimethyl_Naphthalene_Dicarboximide_Phi_20_Theta_220_Thiophene_Hydrogenated.qcin_4103565.0 ./qchem4103565/

Process 0 of 1 is on exp-2-42 - thread support 0
initial socket setup ...start
initial socket setup ...done 
now start server 0 ... 
                  Welcome to Q-Chem
     A Quantum Leap Into The Future Of Chemistry


 Q-Chem 5.4, Q-Chem, Inc., Pleasanton, CA (2021)

 License issued to: University of California, San Diego (site)

 E. Epifanovsky,  A. T. B. Gilbert,  Xintian Feng,  Joonho Lee,  Yuezhi Mao,  
 N. Mardirossian,  P. Pokhilko,  A. White,  M. Wormit,  M. P. Coons,  
 A. L. Dempwolff,  Zhengting Gan,  D. Hait,  P. R. Horn,  L. D. Jacobson,  
 I. Kaliman,  J. Kussmann,  A. W. Lange,  Ka Un Lao,  D. S. Levine,  Jie Liu,  
 S. C. McKenzie,  A. F. Morrison,  K. Nanda,  F. Plasser,  D. R. Rehn,  
 M. L. Vidal,  Zhi-Qiang You,  Ying Zhu,  B. Alam,  B. Albrecht,  
 A. Aldossary,  E. Alguire,  J. H. Andersen,  D. Barton,  K. Begam,  A. Behn,  
 Y. A. Bernard,  E. J. Berquist,  H. Burton,  A. Carreras,  K. Carter-Fenk,  
 R. Chakraborty,  A. D. Chien,  K. D. Closser,  V. Cofer-Shabica,  
 S. Dasgupta,  Jia Deng,  M. de Wergifosse,  M. Diedenhofen,  Hainam Do,  
 S. Ehlert,  Po-Tung Fang,  S. Fatehi,  Qingguo Feng,  J. Gayvert,  
 Qinghui Ge,  G. Gidofalvi,  M. Goldey,  J. Gomes,  C. Gonzalez-Espinoza,  
 S. Gulania,  A. Gunina,  M. W. D. Hanson-Heine,  P. H. P. Harbach,  
 A. W. Hauser,  M. F. Herbst,  M. Hernandez Vera,  M. Hodecker,  
 Z. C. Holden,  S. Houck,  Xunkun Huang,  Kerwin Hui,  B. C. Huynh,  
 M. Ivanov,  Hyunjun Ji,  Hanjie Jiang,  B. Kaduk,  S. Kaehler,  
 K. Khistyaev,  Jaehoon Kim,  P. Klunzinger,  Z. Koczor-Benda,  
 Joong Hoon Koh,  D. Kosenkov,  L. Koulias,  T. Kowalczyk,  C. M. Krauter,  
 K. Kue,  A. Kunitsa,  T. Kus,  A. Landau,  K. V. Lawler,  D. Lefrancois,  
 S. Lehtola,  Rain Li,  Yi-Pei Li,  Jiashu Liang,  M. Liebenthal,  
 Hung-Hsuan Lin,  You-Sheng Lin,  Fenglai Liu,  Kuan-Yu Liu,  
 M. Loipersberger,  A. Luenser,  A. Manjanath,  P. Manohar,  E. Mansoor,  
 S. F. Manzer,  Shan-Ping Mao,  A. V. Marenich,  T. Markovich,  S. Mason,  
 S. A. Maurer,  P. F. McLaughlin,  M. F. S. J. Menger,  J.-M. Mewes,  
 S. A. Mewes,  P. Morgante,  J. W. Mullinax,  T. S. Nguyen-Beck,  
 K. J. Oosterbaan,  G. Paran,  Alexander C. Paul,  Suranjan K. Paul,  
 F. Pavosevic,  Zheng Pei,  S. Prager,  E. I. Proynov,  E. Ramos,  B. Rana,  
 A. E. Rask,  A. Rettig,  R. M. Richard,  F. Rob,  E. Rossomme,  T. Scheele,  
 M. Scheurer,  M. Schneider,  N. Sergueev,  S. M. Sharada,  W. Skomorowski,  
 D. W. Small,  C. J. Stein,  Yu-Chuan Su,  E. J. Sundstrom,  Zhen Tao,  
 J. Thirman,  T. Tsuchimochi,  N. M. Tubman,  S. P. Veccham,  O. Vydrov,  
 J. Wenzel,  J. Witte,  A. Yamada,  Kun Yao,  S. Yeganeh,  S. R. Yost,  
 A. Zech,  Igor Ying Zhang,  Xing Zhang,  Yu Zhang,  D. Zuev,  
 A. Aspuru-Guzik,  A. T. Bell,  N. A. Besley,  K. B. Bravaya,  B. R. Brooks,  
 D. Casanova,  Jeng-Da Chai,  S. Coriani,  C. J. Cramer,  
 A. E. DePrince, III,  R. A. DiStasio Jr.,  A. Dreuw,  B. D. Dunietz,  
 T. R. Furlani,  W. A. Goddard III,  S. Grimme,  S. Hammes-Schiffer,  
 T. Head-Gordon,  W. J. Hehre,  Chao-Ping Hsu,  T.-C. Jagau,  Yousung Jung,  
 A. Klamt,  Jing Kong,  D. S. Lambrecht,  WanZhen Liang,  N. J. Mayhall,  
 C. W. McCurdy,  J. B. Neaton,  C. Ochsenfeld,  J. A. Parkhill,  R. Peverati,  
 V. A. Rassolov,  Yihan Shao,  L. V. Slipchenko,  T. Stauch,  R. P. Steele,  
 J. E. Subotnik,  A. J. W. Thom,  A. Tkatchenko,  D. G. Truhlar,  
 T. Van Voorhis,  T. A. Wesolowski,  K. B. Whaley,  H. L. Woodcock III,  
 P. M. Zimmerman,  S. Faraji,  P. M. W. Gill,  M. Head-Gordon,  
 J. M. Herbert,  A. I. Krylov

 Contributors to earlier versions of Q-Chem not listed above: 
 R. D. Adamson,  B. Austin,  R. Baer,  J. Baker,  G. J. O. Beran,  
 K. Brandhorst,  S. T. Brown,  E. F. C. Byrd,  A. K. Chakraborty,  
 G. K. L. Chan,  Chun-Min Chang,  Yunqing Chen,  C.-L. Cheng,  
 Siu Hung Chien,  D. M. Chipman,  D. L. Crittenden,  H. Dachsel,  
 R. J. Doerksen,  A. D. Dutoi,  R. G. Edgar,  J. Fosso-Tande,  
 L. Fusti-Molnar,  D. Ghosh,  A. Ghysels,  A. Golubeva-Zadorozhnaya,  
 J. Gonthier,  M. S. Gordon,  S. R. Gwaltney,  G. Hawkins,  J. E. Herr,  
 A. Heyden,  S. Hirata,  E. G. Hohenstein,  G. Kedziora,  F. J. Keil,  
 C. Kelley,  Jihan Kim,  R. A. King,  R. Z. Khaliullin,  P. P. Korambath,  
 W. Kurlancheek,  A. Laurent,  A. M. Lee,  M. S. Lee,  S. V. Levchenko,  
 Ching Yeh Lin,  D. Liotard,  E. Livshits,  R. C. Lochan,  I. Lotan,  
 L. A. Martinez-Martinez,  P. E. Maslen,  N. Nair,  D. P. O'Neill,  
 D. Neuhauser,  E. Neuscamman,  C. M. Oana,  R. Olivares-Amaya,  R. Olson,  
 T. M. Perrine,  B. Peters,  P. A. Pieniazek,  A. Prociuk,  Y. M. Rhee,  
 J. Ritchie,  M. A. Rohrdanz,  E. Rosta,  N. J. Russ,  H. F. Schaefer III,  
 M. W. Schmidt,  N. E. Schultz,  S. Sharma,  N. Shenvi,  C. D. Sherrill,  
 A. C. Simmonett,  A. Sodt,  T. Stein,  D. Stuck,  K. S. Thanthiriwatte,  
 V. Vanovschi,  L. Vogt,  Tao Wang,  A. Warshel,  M. A. Watson,  
 C. F. Williams,  Q. Wu,  X. Xu,  Jun Yang,  W. Zhang,  Yan Zhao

 Please cite Q-Chem as follows:
 Y. Shao et al., Mol. Phys. 113, 184-215 (2015)
 DOI: 10.1080/00268976.2014.952696

 Q-Chem 5.4.0 for Intel X86 EM64T Linux

 Parts of Q-Chem use Armadillo 9.800.1 (Horizon Scraper).
 http://arma.sourceforge.net/

 Q-Chem begins on Sun Sep 24 17:13:21 2023  

 Host: 
0

     Scratch files written to ./qchem4103565//
 May1621 |scratch|qcdevops|jenkins|workspace|build_RNUM    
 Parallel job on  1  processors
 Processing $rem in /cm/shared/apps/spack/cpu/opt/spack/linux-centos8-zen2/gcc-10.2.0/qchem-5.4-akfmr7b3t57bfs6qan3padb2wnb2i7cl/config/preferences:
 Processing $rem in /home/rramji/.qchemrc:
 Symmetry turned off for PCM/SM12/SMD calculation
 Core orbitals will be frozen

 Checking the input file for inconsistencies... 	...done.

 Q-Chem warning in module forms1/BasisType.C, line 2236:

 You are not using the predefined 5D/6D in this basis set.


--------------------------------------------------------------
User input:
--------------------------------------------------------------
$molecule
0 1
C	-0.164018	-6.741404	0.197767
C	-1.003240	-6.155638	1.198109
C	0.533192	-5.791452	-0.632428
C	-1.182482	-4.803786	1.411364
H	-1.567483	-6.821518	1.870845
C	0.345145	-4.378638	-0.409419
C	-0.510347	-3.838032	0.609565
C	1.016449	-3.413062	-1.210332
C	-0.696879	-2.426473	0.830799
C	0.839039	-2.059348	-0.999856
C	-0.000000	-1.478216	-0.000000
H	1.403737	-1.394783	-1.673483
C	1.461835	-6.187987	-1.736282
C	1.936119	-3.798164	-2.306183
N	2.093916	-5.170003	-2.491597
C	-2.104529	-4.424987	2.510310
C	-1.625377	-2.036627	1.936153
N	-2.257873	-3.049156	2.691451
O	1.715561	-7.353131	-2.034222
O	2.528858	-2.986854	-3.014044
O	-2.690385	-5.248946	3.209622
O	-1.891876	-0.878829	2.251529
C	3.002711	-5.563799	-3.573032
H	3.032655	-6.664085	-3.606932
H	4.010326	-5.147101	-3.382888
H	2.640711	-5.148785	-4.533125
C	-3.152408	-2.587487	3.756832
H	-3.564653	-3.483329	4.249778
H	-3.960905	-1.964972	3.328759
H	-2.591422	-1.962932	4.477709
C	0.000000	0.000000	0.000000
S	0.271091	0.745405	1.580530
C	0.831198	2.284363	0.904911
C	0.341175	0.937861	-0.985400
C	0.792631	2.178516	-0.493528
H	0.260601	0.716417	-2.059934
H	1.093860	3.006347	-1.152593
H	1.132330	3.111961	1.556025
H	-0.783314	-7.361589	-0.461623
H	0.592677	-7.361192	0.693983
H	-0.826987	-1.478831	-0.694617
$end

$rem
JOBTYPE		SP
EXCHANGE	HF
CORRELATION	pRIMP2
BASIS		cc-pvtz
METHOD		rimp2
AUX_BASIS	rimp2-cc-pvtz
SOLVENT_METHOD	PCM
PURECART	11111
SYMMETRY	false
MEM_TOTAL	110000
SCF_CONVERGENCE = 6
THRESH=10
GUI = 2
$end



$solvent
dielectric 4.90
$end
--------------------------------------------------------------
 ----------------------------------------------------------------
             Standard Nuclear Orientation (Angstroms)
    I     Atom           X                Y                Z
 ----------------------------------------------------------------
    1      C      -0.1640180000    -6.7414040000     0.1977670000
    2      C      -1.0032400000    -6.1556380000     1.1981090000
    3      C       0.5331920000    -5.7914520000    -0.6324280000
    4      C      -1.1824820000    -4.8037860000     1.4113640000
    5      H      -1.5674830000    -6.8215180000     1.8708450000
    6      C       0.3451450000    -4.3786380000    -0.4094190000
    7      C      -0.5103470000    -3.8380320000     0.6095650000
    8      C       1.0164490000    -3.4130620000    -1.2103320000
    9      C      -0.6968790000    -2.4264730000     0.8307990000
   10      C       0.8390390000    -2.0593480000    -0.9998560000
   11      C       0.0000000000    -1.4782160000     0.0000000000
   12      H       1.4037370000    -1.3947830000    -1.6734830000
   13      C       1.4618350000    -6.1879870000    -1.7362820000
   14      C       1.9361190000    -3.7981640000    -2.3061830000
   15      N       2.0939160000    -5.1700030000    -2.4915970000
   16      C      -2.1045290000    -4.4249870000     2.5103100000
   17      C      -1.6253770000    -2.0366270000     1.9361530000
   18      N      -2.2578730000    -3.0491560000     2.6914510000
   19      O       1.7155610000    -7.3531310000    -2.0342220000
   20      O       2.5288580000    -2.9868540000    -3.0140440000
   21      O      -2.6903850000    -5.2489460000     3.2096220000
   22      O      -1.8918760000    -0.8788290000     2.2515290000
   23      C       3.0027110000    -5.5637990000    -3.5730320000
   24      H       3.0326550000    -6.6640850000    -3.6069320000
   25      H       4.0103260000    -5.1471010000    -3.3828880000
   26      H       2.6407110000    -5.1487850000    -4.5331250000
   27      C      -3.1524080000    -2.5874870000     3.7568320000
   28      H      -3.5646530000    -3.4833290000     4.2497780000
   29      H      -3.9609050000    -1.9649720000     3.3287590000
   30      H      -2.5914220000    -1.9629320000     4.4777090000
   31      C       0.0000000000     0.0000000000     0.0000000000
   32      S       0.2710910000     0.7454050000     1.5805300000
   33      C       0.8311980000     2.2843630000     0.9049110000
   34      C       0.3411750000     0.9378610000    -0.9854000000
   35      C       0.7926310000     2.1785160000    -0.4935280000
   36      H       0.2606010000     0.7164170000    -2.0599340000
   37      H       1.0938600000     3.0063470000    -1.1525930000
   38      H       1.1323300000     3.1119610000     1.5560250000
   39      H      -0.7833140000    -7.3615890000    -0.4616230000
   40      H       0.5926770000    -7.3611920000     0.6939830000
   41      H      -0.8269870000    -1.4788310000    -0.6946170000
 ----------------------------------------------------------------
 Nuclear Repulsion Energy =        2559.37095101 hartrees
 There are       98 alpha and       98 beta electrons
 Requested basis set is cc-pVTZ
 There are 356 shells and 1010 basis functions

 Total QAlloc Memory Limit 110000 MB
 Mega-Array Size       188 MB
 MEM_STATIC part       192 MB
 Discretize the solute cavity surface with Lebedev spheres
	Using 110 Lebedev grid points for each H atom
	Using 194 Lebedev grid points for other atoms
	Atomic van der Waals radii will be scaled by 1.20
 Remove points where switching function is < 1.0e-08
 Keep 2586 surface tesserae and discard 4192 interior tesserae
 Molecular Surface Area = 365.269 Angst**2
 Requested basis set is rimp2-cc-pVTZ
 There are 770 shells and 2648 basis functions
 A cutoff of  1.0D-10 yielded  34106 shell pairs
 There are    257818 function pairs (    333670 Cartesian)
 Smallest overlap matrix eigenvalue = 9.03E-06

 Q-Chem warning in module stvman/mkSTV.C, line 323:

 Overlap eigenvalue is smaller than square root of threshold
 Use THRESH >= 12 to get rid of this warning


 Scale SEOQF with 1.000000e-01/1.000000e-02/1.000000e-01

 Standard Electronic Orientation quadrupole field applied
 Nucleus-field energy     =    -0.0000000437 hartrees
 Guess from superposition of atomic densities
 Warning:  Energy on first SCF cycle will be non-variational
 SAD guess density has 196.000000 electrons

 -----------------------------------------------------------------------
  General SCF calculation program by
  Eric Jon Sundstrom, Paul Horn, Yuezhi Mao, Dmitri Zuev, Alec White,
  David Stuck, Shaama M.S., Shane Yost, Joonho Lee, David Small,
  Daniel Levine, Susi Lehtola, Hugh Burton, Evgeny Epifanovsky,
  Bang C. Huynh
 -----------------------------------------------------------------------
 Hartree-Fock
 using 64 threads for integral computing
 -------------------------------------------------------
 OpenMP Integral computing Module                
 Release: version 1.0, May 2013, Q-Chem Inc. Pittsburgh 
 -------------------------------------------------------
 A restricted SCF calculation will be
 performed using DIIS
 SCF converges when DIIS error is below 1.0e-06
 ---------------------------------------
  Cycle       Energy         DIIS error
 ---------------------------------------
    1   -1583.1218035476      1.86e-02  
    2   -1571.1571665092      2.03e-03  
    3   -1571.4964476067      1.55e-03  
    4   -1571.7182679521      2.53e-04  
    5   -1571.7319957088      7.77e-05  
    6   -1571.7333964320      2.98e-05  
    7   -1571.7338097811      1.55e-05  
    8   -1571.7339233927      6.27e-06  
    9   -1571.7339431234      2.93e-06  
   10   -1571.7339471342      1.21e-06  
   11   -1571.7339483183      5.76e-07  Convergence criterion met
 ---------------------------------------
 SCF time:   CPU 6876.19s  wall 281.00s 

************** Final PCM Free Energy Summary **************
 G_electrostatic  =      -0.03052682 hartree =     -19.15586657 kcal/mol
 G_cavitation     =       0.00000000 hartree =       0.00000000 kcal/mol
 G_dispersion     =       0.00000000 hartree =       0.00000000 kcal/mol
 G_repulsion      =       0.00000000 hartree =       0.00000000 kcal/mol
 --------------------------------------------------
 Non-electrostatic Free Energy =       0.00000000 hartree =       0.00000000 kcal/mol
 Total                         =      -0.03052682 hartree =     -19.15586657 kcal/mol
 --------------------------------------------------
 SCF Energy (H0 + V/2)                       =   -1571.73394832 
 Solute Internal Energy (H0)                 =   -1571.70342150 
 Total Free Energy (H0 + V/2 + non-elec)     =   -1571.73394832 hartree
                                             = -986277.93846196 kcal/mol
***********************************************************

 SCF   energy in the final basis set =    -1571.7339483183
 Total energy in the final basis set =    -1571.7339483183


 --------------------------------------------------------------
  Generalized many-body perturbation theory program
  by Joonho Lee, Fazle Rob, Xintian Feng, Evgeny Epifanovsky

 No regularization used 
 (reg. param. = 0.0000e+00)
  (P|Q)^-1/2 Time:  CPU 173.02 s  wall 3.25 s

 In RI-MP2 calculation: 
 # of frozen core orbitals: 31

 Components of the RIMP2 correlation energy:
        aaaa    correlation energy =        -0.6162243095 a.u.
        abab    correlation energy =        -3.4278040931 a.u.
        bbbb    correlation energy =        -0.6162243095 a.u.
        non-Brillouin singles      =        -0.0000000000 a.u.
        total same-spin energy     =        -1.2324486190 a.u.
        total opposite-spin energy =        -3.4278040931 a.u.

 Total  RIMP2   correlation energy =        -4.6602527121 a.u.
        RIMP2         total energy =     -1576.3942010305 a.u.

 RI-MP2 Energy Time:  CPU 2650.73 s  wall 43.96 s
 
 --------------------------------------------------------------
 
                    Orbital Energies (a.u.)
 --------------------------------------------------------------
 
 Alpha MOs
 -- Occupied --
-91.9817 -20.5528 -20.5449 -20.5417 -20.5408 -15.6276 -15.6216 -11.3947
-11.3856 -11.3836 -11.3795 -11.3102 -11.3093 -11.3066 -11.3051 -11.2974
-11.2957 -11.2906 -11.2763 -11.2691 -11.2687 -11.2648 -11.2631 -11.2597
-11.2548 -11.2531 -11.2471  -8.9815  -6.6622  -6.6616  -6.6611  -1.4214
 -1.4124  -1.3985  -1.3916  -1.2630  -1.2557  -1.2306  -1.1865  -1.1508
 -1.1147  -1.0866  -1.0476  -0.9949  -0.9883  -0.9813  -0.9554  -0.9501
 -0.8969  -0.8889  -0.8775  -0.8606  -0.7932  -0.7777  -0.7721  -0.7617
 -0.7368  -0.7173  -0.7031  -0.6918  -0.6817  -0.6742  -0.6673  -0.6577
 -0.6477  -0.6459  -0.6369  -0.6329  -0.6312  -0.6290  -0.6213  -0.6054
 -0.5858  -0.5748  -0.5656  -0.5623  -0.5587  -0.5519  -0.5511  -0.5481
 -0.5477  -0.5442  -0.5218  -0.5123  -0.5100  -0.4827  -0.4747  -0.4598
 -0.4563  -0.4479  -0.4422  -0.4347  -0.4131  -0.4077  -0.3542  -0.3468
 -0.3295  -0.2818
 -- Virtual --
  0.0123   0.0426   0.0890   0.0976   0.1367   0.1499   0.1565   0.1602
  0.1633   0.1724   0.1770   0.1817   0.1827   0.1902   0.2023   0.2046
  0.2159   0.2212   0.2265   0.2292   0.2304   0.2344   0.2435   0.2498
  0.2664   0.2699   0.3028   0.3070   0.3130   0.3209   0.3231   0.3287
  0.3329   0.3431   0.3457   0.3489   0.3535   0.3629   0.3667   0.3700
  0.3742   0.3753   0.3861   0.3866   0.3903   0.3954   0.3960   0.4102
  0.4174   0.4217   0.4282   0.4338   0.4356   0.4439   0.4455   0.4515
  0.4534   0.4620   0.4625   0.4739   0.4753   0.4826   0.4884   0.4933
  0.4967   0.5023   0.5054   0.5099   0.5159   0.5188   0.5253   0.5292
  0.5331   0.5347   0.5466   0.5515   0.5549   0.5623   0.5637   0.5656
  0.5689   0.5751   0.5766   0.5834   0.5878   0.5946   0.5979   0.5992
  0.6017   0.6057   0.6071   0.6089   0.6123   0.6177   0.6213   0.6232
  0.6249   0.6300   0.6331   0.6366   0.6368   0.6381   0.6502   0.6545
  0.6578   0.6654   0.6763   0.6836   0.6880   0.6930   0.6955   0.7002
  0.7081   0.7195   0.7223   0.7332   0.7358   0.7418   0.7533   0.7582
  0.7624   0.7662   0.7716   0.7754   0.7803   0.7948   0.8028   0.8087
  0.8095   0.8151   0.8212   0.8220   0.8307   0.8412   0.8420   0.8489
  0.8490   0.8581   0.8612   0.8651   0.8721   0.8746   0.8784   0.8868
  0.8886   0.8985   0.9041   0.9076   0.9129   0.9227   0.9283   0.9292
  0.9335   0.9369   0.9438   0.9534   0.9608   0.9667   0.9741   0.9792
  0.9830   0.9869   0.9918   0.9986   1.0018   1.0088   1.0136   1.0185
  1.0285   1.0295   1.0379   1.0412   1.0445   1.0569   1.0578   1.0613
  1.0659   1.0724   1.0790   1.0830   1.0871   1.0943   1.0988   1.1012
  1.1076   1.1190   1.1228   1.1263   1.1272   1.1319   1.1402   1.1452
  1.1496   1.1569   1.1601   1.1668   1.1715   1.1757   1.1791   1.1884
  1.1931   1.1937   1.2032   1.2059   1.2125   1.2148   1.2172   1.2291
  1.2327   1.2368   1.2376   1.2424   1.2520   1.2614   1.2656   1.2791
  1.2839   1.2875   1.2982   1.3059   1.3113   1.3210   1.3314   1.3370
  1.3423   1.3461   1.3596   1.3622   1.3700   1.3759   1.3811   1.3869
  1.3886   1.3927   1.4027   1.4074   1.4147   1.4182   1.4354   1.4437
  1.4439   1.4595   1.4620   1.4684   1.4718   1.4761   1.4902   1.4933
  1.5001   1.5030   1.5105   1.5163   1.5242   1.5272   1.5329   1.5402
  1.5425   1.5477   1.5546   1.5581   1.5626   1.5686   1.5712   1.5799
  1.5845   1.5968   1.6041   1.6096   1.6111   1.6285   1.6337   1.6417
  1.6451   1.6516   1.6661   1.6751   1.6829   1.6858   1.6899   1.6962
  1.7027   1.7110   1.7221   1.7275   1.7316   1.7377   1.7507   1.7534
  1.7625   1.7671   1.7812   1.7824   1.7897   1.8033   1.8048   1.8181
  1.8259   1.8271   1.8413   1.8456   1.8511   1.8634   1.8687   1.8701
  1.8746   1.8830   1.8889   1.8977   1.8997   1.9232   1.9352   1.9444
  1.9589   1.9654   1.9758   1.9856   1.9953   1.9979   2.0179   2.0306
  2.0364   2.0417   2.0505   2.0665   2.0891   2.0975   2.1056   2.1359
  2.1384   2.1511   2.1597   2.1626   2.1835   2.1965   2.2037   2.2257
  2.2332   2.2429   2.2610   2.2740   2.2809   2.2866   2.2977   2.3062
  2.3145   2.3230   2.3358   2.3394   2.3538   2.3626   2.3720   2.3880
  2.4017   2.4218   2.4324   2.4430   2.4522   2.4595   2.4670   2.4699
  2.4781   2.4944   2.4966   2.5034   2.5123   2.5179   2.5353   2.5578
  2.5617   2.5675   2.5720   2.5867   2.5958   2.6048   2.6091   2.6173
  2.6256   2.6268   2.6403   2.6446   2.6562   2.6588   2.6635   2.6705
  2.6855   2.6902   2.6905   2.7054   2.7197   2.7206   2.7270   2.7345
  2.7446   2.7504   2.7565   2.7627   2.7682   2.7726   2.7792   2.7875
  2.8054   2.8174   2.8304   2.8422   2.8475   2.8569   2.8672   2.8701
  2.8733   2.8807   2.8866   2.8911   2.8938   2.9015   2.9024   2.9132
  2.9180   2.9255   2.9339   2.9409   2.9466   2.9593   2.9666   2.9693
  2.9777   2.9861   2.9923   2.9964   3.0038   3.0175   3.0247   3.0258
  3.0321   3.0353   3.0440   3.0529   3.0603   3.0653   3.0747   3.0832
  3.0883   3.1011   3.1025   3.1068   3.1085   3.1112   3.1166   3.1206
  3.1224   3.1343   3.1418   3.1526   3.1561   3.1607   3.1631   3.1731
  3.1784   3.1805   3.1964   3.1980   3.2058   3.2179   3.2223   3.2236
  3.2318   3.2337   3.2361   3.2453   3.2473   3.2568   3.2607   3.2643
  3.2679   3.2699   3.2758   3.2818   3.2856   3.2931   3.3035   3.3083
  3.3099   3.3124   3.3193   3.3225   3.3274   3.3309   3.3331   3.3425
  3.3448   3.3505   3.3525   3.3546   3.3568   3.3685   3.3722   3.3751
  3.3787   3.3872   3.3891   3.3966   3.4011   3.4021   3.4029   3.4103
  3.4184   3.4215   3.4260   3.4315   3.4382   3.4399   3.4415   3.4469
  3.4500   3.4565   3.4665   3.4709   3.4747   3.4811   3.4829   3.4865
  3.4952   3.4984   3.5084   3.5132   3.5164   3.5202   3.5223   3.5255
  3.5309   3.5334   3.5416   3.5515   3.5593   3.5712   3.5745   3.5760
  3.5858   3.5882   3.5936   3.6097   3.6107   3.6169   3.6184   3.6248
  3.6288   3.6316   3.6380   3.6412   3.6484   3.6540   3.6569   3.6580
  3.6663   3.6694   3.6828   3.6862   3.6896   3.6912   3.7034   3.7085
  3.7145   3.7233   3.7330   3.7379   3.7397   3.7476   3.7500   3.7556
  3.7645   3.7670   3.7716   3.7729   3.7838   3.7882   3.7939   3.7972
  3.8043   3.8130   3.8175   3.8220   3.8301   3.8341   3.8387   3.8416
  3.8544   3.8673   3.8697   3.8745   3.8801   3.8816   3.8871   3.8986
  3.9138   3.9185   3.9247   3.9330   3.9439   3.9487   3.9503   3.9562
  3.9578   3.9692   3.9733   3.9761   3.9817   3.9921   4.0053   4.0075
  4.0159   4.0290   4.0352   4.0463   4.0491   4.0558   4.0653   4.0726
  4.0908   4.1007   4.1016   4.1171   4.1262   4.1266   4.1379   4.1431
  4.1518   4.1530   4.1581   4.1677   4.1736   4.1785   4.1874   4.2076
  4.2091   4.2210   4.2324   4.2337   4.2448   4.2525   4.2566   4.2623
  4.2631   4.2662   4.2827   4.2842   4.2951   4.2970   4.3014   4.3044
  4.3181   4.3191   4.3270   4.3310   4.3390   4.3436   4.3458   4.3528
  4.3618   4.3682   4.3702   4.3731   4.3758   4.3840   4.3879   4.3963
  4.4001   4.4080   4.4103   4.4203   4.4236   4.4390   4.4463   4.4617
  4.4639   4.4760   4.4901   4.4957   4.5101   4.5155   4.5221   4.5244
  4.5279   4.5369   4.5433   4.5594   4.5611   4.5755   4.5816   4.5876
  4.5907   4.5976   4.6045   4.6178   4.6216   4.6241   4.6327   4.6388
  4.6457   4.6609   4.6673   4.6739   4.6904   4.6990   4.7017   4.7094
  4.7280   4.7326   4.7411   4.7668   4.7761   4.7810   4.7864   4.7948
  4.8091   4.8173   4.8322   4.8391   4.8523   4.8565   4.8701   4.8804
  4.8886   4.9011   4.9096   4.9188   4.9316   4.9503   4.9554   4.9774
  4.9842   5.0021   5.0144   5.0238   5.0309   5.0418   5.0505   5.0540
  5.0723   5.0964   5.1087   5.1111   5.1213   5.1247   5.1342   5.1395
  5.1462   5.1523   5.1679   5.1801   5.1884   5.2023   5.2185   5.2214
  5.2529   5.2623   5.2721   5.2858   5.2980   5.3075   5.3107   5.3233
  5.3295   5.3329   5.3421   5.3705   5.3784   5.3823   5.4039   5.4169
  5.4339   5.4425   5.4542   5.4851   5.4990   5.5100   5.5144   5.5166
  5.5183   5.5200   5.5443   5.5539   5.5580   5.5622   5.5665   5.5751
  5.5793   5.5826   5.5860   5.6065   5.6084   5.6144   5.6238   5.6365
  5.6413   5.6502   5.6567   5.6624   5.6661   5.6673   5.6932   5.6938
  5.6988   5.7089   5.7341   5.7407   5.7474   5.7565   5.7668   5.7717
  5.7842   5.7909   5.8084   5.8299   5.8391   5.8537   5.8812   5.9186
  5.9387   5.9487   5.9701   5.9921   6.0232   6.0334   6.0406   6.0431
  6.0493   6.0626   6.0943   6.1114   6.1228   6.1405   6.1584   6.1857
  6.1952   6.2197   6.2209   6.2253   6.2418   6.2527   6.2744   6.2829
  6.3027   6.3117   6.3238   6.3469   6.3650   6.3778   6.4344   6.4830
  6.5177   6.5300   6.5738   6.5826   6.5988   6.6159   6.6343   6.6584
  6.6742   6.7093   6.8461   6.8506   6.8890   6.9025   6.9060   6.9256
  6.9272   6.9589   7.1028   7.1091   7.1501   7.1943   7.1993   7.2356
  7.3473   7.3518   7.3576   7.3618   7.4755   7.5421   7.5709   7.5831
  7.5907   7.6005   7.6544   7.6862   7.6949   7.7153   8.8681  10.0708
 10.3108  11.2896  11.5208  11.7576  12.0186  12.1476  12.4232  12.4611
 12.9367  13.2404  13.3243  13.5669  13.7843  13.9242  14.0620  14.3020
 14.3571  14.4027  14.5100  14.6997  14.9891  15.6249  15.8018  16.3142
 --------------------------------------------------------------
 
          Ground-State Mulliken Net Atomic Charges

     Atom                 Charge (a.u.)
  ----------------------------------------
      1 C                    -0.084552
      2 C                    -0.029826
      3 C                    -0.110121
      4 C                    -0.125695
      5 H                     0.199403
      6 C                     0.026054
      7 C                     0.122071
      8 C                    -0.094485
      9 C                    -0.167861
     10 C                    -0.152703
     11 C                     0.209913
     12 H                     0.195390
     13 C                     0.341870
     14 C                     0.348510
     15 N                    -0.089860
     16 C                     0.357201
     17 C                     0.355393
     18 N                    -0.091010
     19 O                    -0.494822
     20 O                    -0.508321
     21 O                    -0.501112
     22 O                    -0.472263
     23 C                    -0.204875
     24 H                     0.139594
     25 H                     0.109373
     26 H                     0.108847
     27 C                    -0.197308
     28 H                     0.133515
     29 H                     0.111738
     30 H                     0.112172
     31 C                    -0.011728
     32 S                     0.054207
     33 C                    -0.228089
     34 C                    -0.234016
     35 C                    -0.198492
     36 H                     0.187433
     37 H                     0.189344
     38 H                     0.207977
     39 H                     0.137689
     40 H                     0.138261
     41 H                     0.211184
  ----------------------------------------
  Sum of atomic charges =     0.000000

 -----------------------------------------------------------------
                    Cartesian Multipole Moments
 -----------------------------------------------------------------
    Charge (ESU x 10^10)
                 0.0000
    Dipole Moment (Debye)
         X      -0.9173      Y       1.7080      Z      -0.5295
       Tot       2.0097
    Quadrupole Moments (Debye-Ang)
        XX    -174.9597     XY      10.2495     YY    -179.1885
        XZ      16.2094     YZ      -5.5779     ZZ    -175.4638
    Octopole Moments (Debye-Ang^2)
       XXX     -20.4842    XXY     520.0612    XYY     -36.0234
       YYY    1684.1502    XXZ     -28.5832    XYZ     -65.6227
       YYZ      24.6510    XZZ      -3.4586    YZZ     553.2533
       ZZZ     -87.8541
    Hexadecapole Moments (Debye-Ang^3)
      XXXX   -2709.2808   XXXY      67.0807   XXYY   -3395.4625
      XYYY     721.3649   YYYY  -18017.8521   XXXZ    1482.4154
      XXYZ      -4.5974   XYYZ     913.9431   YYYZ    -934.6919
      XXZZ   -1183.5823   XYZZ     -59.1730   YYZZ   -3731.8177
      XZZZ    1520.6147   YZZZ    -183.4155   ZZZZ   -3979.4017
 -----------------------------------------------------------------
 Total job time:  332.37s(wall), 9746.62s(cpu) 
 Sun Sep 24 17:18:54 2023

        *************************************************************
        *                                                           *
        *  Thank you very much for using Q-Chem.  Have a nice day.  *
        *                                                           *
        *************************************************************


0 sent ACK to 0 
now end server 0 ... 
cleanup process ... done
remove work dirs ./qchem4103565.0 -- ./qchem4103565.0
rm -rf ./qchem4103565.0
rm -rf ./qchem4103565
