You are running Q-Chem version: 5.4.0

#
# job setting
#
local host:  exp-7-17
current dir: /expanse/lustre/projects/csd626/rramji/aromodel/PNDIT/Hydrogenated_Rotation_Test
input file:  Dimethyl_Naphthalene_Dicarboximide_Phi_5_Theta_60_Thiophene_Hydrogenated.qcin
output file: 
nprocs     : 1
nthreads   : 64
#
# qchem installation setting
#
QC:          /cm/shared/apps/spack/cpu/opt/spack/linux-centos8-zen2/gcc-10.2.0/qchem-5.4-akfmr7b3t57bfs6qan3padb2wnb2i7cl
QCAUX:       /cm/shared/apps/spack/cpu/opt/spack/linux-centos8-zen2/gcc-10.2.0/qchem-5.4-akfmr7b3t57bfs6qan3padb2wnb2i7cl/qcaux
QCPROG:      /cm/shared/apps/spack/cpu/opt/spack/linux-centos8-zen2/gcc-10.2.0/qchem-5.4-akfmr7b3t57bfs6qan3padb2wnb2i7cl/exe/qcprog.exe
QCPROG_S:    /cm/shared/apps/spack/cpu/opt/spack/linux-centos8-zen2/gcc-10.2.0/qchem-5.4-akfmr7b3t57bfs6qan3padb2wnb2i7cl/exe/qcprog.exe_s
PARALLEL:    -DPARALLEL
QCMPI:       mpich
#
# qchem directory setting
#
qcrun:       qchem1305442
QCSCRATCH:   .
QCLOCALSCR:  
QCTMPDIR:    .
QCFILEPREF:  ./qchem1305442
QCSAVEDIR:   
workdirs:    ./qchem1305442
workdir0:    ./qchem1305442
partmpdirs =  
#
# parallel setting
#
QCRSH:           ssh
QCMPI:           mpich
QCMPIRUN:        /cm/shared/apps/spack/cpu/opt/spack/linux-centos8-zen2/gcc-10.2.0/qchem-5.4-akfmr7b3t57bfs6qan3padb2wnb2i7cl/bin/mpi/mpirun_qchem
QCMACHINEFILE:   ./qchem1305442/hostfile
exp-7-17

#
# env setting
#
exported envs:   QC QCAUX QCSCRATCH QCRUNNAME QCFILEPREF QCPROG QCPROG_S GUIFILE

Running Job 1 of 1 Dimethyl_Naphthalene_Dicarboximide_Phi_5_Theta_60_Thiophene_Hydrogenated.qcin
qchem Dimethyl_Naphthalene_Dicarboximide_Phi_5_Theta_60_Thiophene_Hydrogenated.qcin_1305442.0 ./qchem1305442/ 1
/cm/shared/apps/spack/cpu/opt/spack/linux-centos8-zen2/gcc-10.2.0/qchem-5.4-akfmr7b3t57bfs6qan3padb2wnb2i7cl/bin/mpi/mpirun_qchem -machinefile ./qchem1305442/hostfile -np 1 /cm/shared/apps/spack/cpu/opt/spack/linux-centos8-zen2/gcc-10.2.0/qchem-5.4-akfmr7b3t57bfs6qan3padb2wnb2i7cl/exe/qcprog.exe Dimethyl_Naphthalene_Dicarboximide_Phi_5_Theta_60_Thiophene_Hydrogenated.qcin_1305442.0 ./qchem1305442/

Process 0 of 1 is on exp-7-17 - thread support 0
initial socket setup ...start
initial socket setup ...done 
now start server 0 ... 
                  Welcome to Q-Chem
     A Quantum Leap Into The Future Of Chemistry


 Q-Chem 5.4, Q-Chem, Inc., Pleasanton, CA (2021)

 License issued to: University of California, San Diego (site)

 E. Epifanovsky,  A. T. B. Gilbert,  Xintian Feng,  Joonho Lee,  Yuezhi Mao,  
 N. Mardirossian,  P. Pokhilko,  A. White,  M. Wormit,  M. P. Coons,  
 A. L. Dempwolff,  Zhengting Gan,  D. Hait,  P. R. Horn,  L. D. Jacobson,  
 I. Kaliman,  J. Kussmann,  A. W. Lange,  Ka Un Lao,  D. S. Levine,  Jie Liu,  
 S. C. McKenzie,  A. F. Morrison,  K. Nanda,  F. Plasser,  D. R. Rehn,  
 M. L. Vidal,  Zhi-Qiang You,  Ying Zhu,  B. Alam,  B. Albrecht,  
 A. Aldossary,  E. Alguire,  J. H. Andersen,  D. Barton,  K. Begam,  A. Behn,  
 Y. A. Bernard,  E. J. Berquist,  H. Burton,  A. Carreras,  K. Carter-Fenk,  
 R. Chakraborty,  A. D. Chien,  K. D. Closser,  V. Cofer-Shabica,  
 S. Dasgupta,  Jia Deng,  M. de Wergifosse,  M. Diedenhofen,  Hainam Do,  
 S. Ehlert,  Po-Tung Fang,  S. Fatehi,  Qingguo Feng,  J. Gayvert,  
 Qinghui Ge,  G. Gidofalvi,  M. Goldey,  J. Gomes,  C. Gonzalez-Espinoza,  
 S. Gulania,  A. Gunina,  M. W. D. Hanson-Heine,  P. H. P. Harbach,  
 A. W. Hauser,  M. F. Herbst,  M. Hernandez Vera,  M. Hodecker,  
 Z. C. Holden,  S. Houck,  Xunkun Huang,  Kerwin Hui,  B. C. Huynh,  
 M. Ivanov,  Hyunjun Ji,  Hanjie Jiang,  B. Kaduk,  S. Kaehler,  
 K. Khistyaev,  Jaehoon Kim,  P. Klunzinger,  Z. Koczor-Benda,  
 Joong Hoon Koh,  D. Kosenkov,  L. Koulias,  T. Kowalczyk,  C. M. Krauter,  
 K. Kue,  A. Kunitsa,  T. Kus,  A. Landau,  K. V. Lawler,  D. Lefrancois,  
 S. Lehtola,  Rain Li,  Yi-Pei Li,  Jiashu Liang,  M. Liebenthal,  
 Hung-Hsuan Lin,  You-Sheng Lin,  Fenglai Liu,  Kuan-Yu Liu,  
 M. Loipersberger,  A. Luenser,  A. Manjanath,  P. Manohar,  E. Mansoor,  
 S. F. Manzer,  Shan-Ping Mao,  A. V. Marenich,  T. Markovich,  S. Mason,  
 S. A. Maurer,  P. F. McLaughlin,  M. F. S. J. Menger,  J.-M. Mewes,  
 S. A. Mewes,  P. Morgante,  J. W. Mullinax,  T. S. Nguyen-Beck,  
 K. J. Oosterbaan,  G. Paran,  Alexander C. Paul,  Suranjan K. Paul,  
 F. Pavosevic,  Zheng Pei,  S. Prager,  E. I. Proynov,  E. Ramos,  B. Rana,  
 A. E. Rask,  A. Rettig,  R. M. Richard,  F. Rob,  E. Rossomme,  T. Scheele,  
 M. Scheurer,  M. Schneider,  N. Sergueev,  S. M. Sharada,  W. Skomorowski,  
 D. W. Small,  C. J. Stein,  Yu-Chuan Su,  E. J. Sundstrom,  Zhen Tao,  
 J. Thirman,  T. Tsuchimochi,  N. M. Tubman,  S. P. Veccham,  O. Vydrov,  
 J. Wenzel,  J. Witte,  A. Yamada,  Kun Yao,  S. Yeganeh,  S. R. Yost,  
 A. Zech,  Igor Ying Zhang,  Xing Zhang,  Yu Zhang,  D. Zuev,  
 A. Aspuru-Guzik,  A. T. Bell,  N. A. Besley,  K. B. Bravaya,  B. R. Brooks,  
 D. Casanova,  Jeng-Da Chai,  S. Coriani,  C. J. Cramer,  
 A. E. DePrince, III,  R. A. DiStasio Jr.,  A. Dreuw,  B. D. Dunietz,  
 T. R. Furlani,  W. A. Goddard III,  S. Grimme,  S. Hammes-Schiffer,  
 T. Head-Gordon,  W. J. Hehre,  Chao-Ping Hsu,  T.-C. Jagau,  Yousung Jung,  
 A. Klamt,  Jing Kong,  D. S. Lambrecht,  WanZhen Liang,  N. J. Mayhall,  
 C. W. McCurdy,  J. B. Neaton,  C. Ochsenfeld,  J. A. Parkhill,  R. Peverati,  
 V. A. Rassolov,  Yihan Shao,  L. V. Slipchenko,  T. Stauch,  R. P. Steele,  
 J. E. Subotnik,  A. J. W. Thom,  A. Tkatchenko,  D. G. Truhlar,  
 T. Van Voorhis,  T. A. Wesolowski,  K. B. Whaley,  H. L. Woodcock III,  
 P. M. Zimmerman,  S. Faraji,  P. M. W. Gill,  M. Head-Gordon,  
 J. M. Herbert,  A. I. Krylov

 Contributors to earlier versions of Q-Chem not listed above: 
 R. D. Adamson,  B. Austin,  R. Baer,  J. Baker,  G. J. O. Beran,  
 K. Brandhorst,  S. T. Brown,  E. F. C. Byrd,  A. K. Chakraborty,  
 G. K. L. Chan,  Chun-Min Chang,  Yunqing Chen,  C.-L. Cheng,  
 Siu Hung Chien,  D. M. Chipman,  D. L. Crittenden,  H. Dachsel,  
 R. J. Doerksen,  A. D. Dutoi,  R. G. Edgar,  J. Fosso-Tande,  
 L. Fusti-Molnar,  D. Ghosh,  A. Ghysels,  A. Golubeva-Zadorozhnaya,  
 J. Gonthier,  M. S. Gordon,  S. R. Gwaltney,  G. Hawkins,  J. E. Herr,  
 A. Heyden,  S. Hirata,  E. G. Hohenstein,  G. Kedziora,  F. J. Keil,  
 C. Kelley,  Jihan Kim,  R. A. King,  R. Z. Khaliullin,  P. P. Korambath,  
 W. Kurlancheek,  A. Laurent,  A. M. Lee,  M. S. Lee,  S. V. Levchenko,  
 Ching Yeh Lin,  D. Liotard,  E. Livshits,  R. C. Lochan,  I. Lotan,  
 L. A. Martinez-Martinez,  P. E. Maslen,  N. Nair,  D. P. O'Neill,  
 D. Neuhauser,  E. Neuscamman,  C. M. Oana,  R. Olivares-Amaya,  R. Olson,  
 T. M. Perrine,  B. Peters,  P. A. Pieniazek,  A. Prociuk,  Y. M. Rhee,  
 J. Ritchie,  M. A. Rohrdanz,  E. Rosta,  N. J. Russ,  H. F. Schaefer III,  
 M. W. Schmidt,  N. E. Schultz,  S. Sharma,  N. Shenvi,  C. D. Sherrill,  
 A. C. Simmonett,  A. Sodt,  T. Stein,  D. Stuck,  K. S. Thanthiriwatte,  
 V. Vanovschi,  L. Vogt,  Tao Wang,  A. Warshel,  M. A. Watson,  
 C. F. Williams,  Q. Wu,  X. Xu,  Jun Yang,  W. Zhang,  Yan Zhao

 Please cite Q-Chem as follows:
 Y. Shao et al., Mol. Phys. 113, 184-215 (2015)
 DOI: 10.1080/00268976.2014.952696

 Q-Chem 5.4.0 for Intel X86 EM64T Linux

 Parts of Q-Chem use Armadillo 9.800.1 (Horizon Scraper).
 http://arma.sourceforge.net/

 Q-Chem begins on Tue Sep 26 22:21:14 2023  

 Host: 
0

     Scratch files written to ./qchem1305442//
 May1621 |scratch|qcdevops|jenkins|workspace|build_RNUM    
 Parallel job on  1  processors
 Processing $rem in /cm/shared/apps/spack/cpu/opt/spack/linux-centos8-zen2/gcc-10.2.0/qchem-5.4-akfmr7b3t57bfs6qan3padb2wnb2i7cl/config/preferences:
 Processing $rem in /home/rramji/.qchemrc:
 Symmetry turned off for PCM/SM12/SMD calculation
 Core orbitals will be frozen

 Checking the input file for inconsistencies... 	...done.

 Q-Chem warning in module forms1/BasisType.C, line 2236:

 You are not using the predefined 5D/6D in this basis set.


--------------------------------------------------------------
User input:
--------------------------------------------------------------
$molecule
0 1
C	0.221766	-6.741404	-0.129743
C	1.352515	-6.155638	-0.782726
C	-0.717339	-5.791452	0.411926
C	1.593885	-4.803786	-0.921816
H	2.112819	-6.821518	-1.221908
C	-0.464360	-4.378638	0.266682
C	0.688053	-3.838032	-0.398255
C	-1.369108	-3.413062	0.789694
C	0.939002	-2.426473	-0.542349
C	-1.130409	-2.059348	0.652589
C	0.000000	-1.478216	0.000000
H	-1.891446	-1.394783	1.092453
C	-1.967519	-6.187987	1.131595
C	-2.608118	-3.798164	1.504912
N	-2.819813	-5.170003	1.625174
C	2.836188	-4.424987	-1.639129
C	2.189558	-2.036627	-1.263477
N	3.042237	-3.049156	-1.756898
O	-2.307845	-7.353131	1.324787
O	-3.407213	-2.986854	1.967354
O	3.625890	-5.248946	-2.095892
O	2.547850	-0.878829	-1.468685
C	-4.043674	-5.563799	2.330564
H	-4.083407	-6.664085	2.352178
H	-4.925490	-5.147101	1.807263
H	-4.031877	-5.148785	3.356568
C	4.247206	-2.587487	-2.452080
H	4.803187	-3.483329	-2.774302
H	4.860536	-1.964972	-1.773301
H	3.966607	-1.962932	-3.321351
C	0.000000	0.000000	0.000000
S	0.068929	0.790170	1.580530
C	0.211639	2.421655	0.904911
C	0.086813	0.994207	-0.985400
C	0.201782	2.309433	-0.493528
H	0.066299	0.759454	-2.059934
H	0.278488	3.187020	-1.152593
H	0.288312	3.298992	1.556025
H	0.578191	-7.361589	0.701693
H	-0.319578	-7.361192	-0.854838
H	0.539540	-1.478831	0.935572
$end

$rem
JOBTYPE		SP
EXCHANGE	HF
CORRELATION	pRIMP2
BASIS		cc-pvtz
METHOD		rimp2
AUX_BASIS	rimp2-cc-pvtz
SOLVENT_METHOD	PCM
PURECART	11111
SYMMETRY	false
MEM_TOTAL	110000
SCF_CONVERGENCE = 6
THRESH=10
GUI = 2
$end



$solvent
dielectric 4.90
$end
--------------------------------------------------------------
 ----------------------------------------------------------------
             Standard Nuclear Orientation (Angstroms)
    I     Atom           X                Y                Z
 ----------------------------------------------------------------
    1      C       0.2217660000    -6.7414040000    -0.1297430000
    2      C       1.3525150000    -6.1556380000    -0.7827260000
    3      C      -0.7173390000    -5.7914520000     0.4119260000
    4      C       1.5938850000    -4.8037860000    -0.9218160000
    5      H       2.1128190000    -6.8215180000    -1.2219080000
    6      C      -0.4643600000    -4.3786380000     0.2666820000
    7      C       0.6880530000    -3.8380320000    -0.3982550000
    8      C      -1.3691080000    -3.4130620000     0.7896940000
    9      C       0.9390020000    -2.4264730000    -0.5423490000
   10      C      -1.1304090000    -2.0593480000     0.6525890000
   11      C       0.0000000000    -1.4782160000     0.0000000000
   12      H      -1.8914460000    -1.3947830000     1.0924530000
   13      C      -1.9675190000    -6.1879870000     1.1315950000
   14      C      -2.6081180000    -3.7981640000     1.5049120000
   15      N      -2.8198130000    -5.1700030000     1.6251740000
   16      C       2.8361880000    -4.4249870000    -1.6391290000
   17      C       2.1895580000    -2.0366270000    -1.2634770000
   18      N       3.0422370000    -3.0491560000    -1.7568980000
   19      O      -2.3078450000    -7.3531310000     1.3247870000
   20      O      -3.4072130000    -2.9868540000     1.9673540000
   21      O       3.6258900000    -5.2489460000    -2.0958920000
   22      O       2.5478500000    -0.8788290000    -1.4686850000
   23      C      -4.0436740000    -5.5637990000     2.3305640000
   24      H      -4.0834070000    -6.6640850000     2.3521780000
   25      H      -4.9254900000    -5.1471010000     1.8072630000
   26      H      -4.0318770000    -5.1487850000     3.3565680000
   27      C       4.2472060000    -2.5874870000    -2.4520800000
   28      H       4.8031870000    -3.4833290000    -2.7743020000
   29      H       4.8605360000    -1.9649720000    -1.7733010000
   30      H       3.9666070000    -1.9629320000    -3.3213510000
   31      C       0.0000000000     0.0000000000     0.0000000000
   32      S       0.0689290000     0.7901700000     1.5805300000
   33      C       0.2116390000     2.4216550000     0.9049110000
   34      C       0.0868130000     0.9942070000    -0.9854000000
   35      C       0.2017820000     2.3094330000    -0.4935280000
   36      H       0.0662990000     0.7594540000    -2.0599340000
   37      H       0.2784880000     3.1870200000    -1.1525930000
   38      H       0.2883120000     3.2989920000     1.5560250000
   39      H       0.5781910000    -7.3615890000     0.7016930000
   40      H      -0.3195780000    -7.3611920000    -0.8548380000
   41      H       0.5395400000    -1.4788310000     0.9355720000
 ----------------------------------------------------------------
 Nuclear Repulsion Energy =        2548.49115203 hartrees
 There are       98 alpha and       98 beta electrons
 Requested basis set is cc-pVTZ
 There are 356 shells and 1010 basis functions

 Total QAlloc Memory Limit 110000 MB
 Mega-Array Size       188 MB
 MEM_STATIC part       192 MB
 Discretize the solute cavity surface with Lebedev spheres
	Using 110 Lebedev grid points for each H atom
	Using 194 Lebedev grid points for other atoms
	Atomic van der Waals radii will be scaled by 1.20
 Remove points where switching function is < 1.0e-08
 Keep 2621 surface tesserae and discard 4157 interior tesserae
 Molecular Surface Area = 370.641 Angst**2
 Requested basis set is rimp2-cc-pVTZ
 There are 770 shells and 2648 basis functions
 A cutoff of  1.0D-10 yielded  34084 shell pairs
 There are    257922 function pairs (    333891 Cartesian)
 Smallest overlap matrix eigenvalue = 9.13E-06

 Q-Chem warning in module stvman/mkSTV.C, line 323:

 Overlap eigenvalue is smaller than square root of threshold
 Use THRESH >= 12 to get rid of this warning


 Scale SEOQF with 1.000000e-01/1.000000e-02/1.000000e-01

 Standard Electronic Orientation quadrupole field applied
 Nucleus-field energy     =     0.0000000163 hartrees
 Guess from superposition of atomic densities
 Warning:  Energy on first SCF cycle will be non-variational
 SAD guess density has 196.000000 electrons

 -----------------------------------------------------------------------
  General SCF calculation program by
  Eric Jon Sundstrom, Paul Horn, Yuezhi Mao, Dmitri Zuev, Alec White,
  David Stuck, Shaama M.S., Shane Yost, Joonho Lee, David Small,
  Daniel Levine, Susi Lehtola, Hugh Burton, Evgeny Epifanovsky,
  Bang C. Huynh
 -----------------------------------------------------------------------
 Hartree-Fock
 using 64 threads for integral computing
 -------------------------------------------------------
 OpenMP Integral computing Module                
 Release: version 1.0, May 2013, Q-Chem Inc. Pittsburgh 
 -------------------------------------------------------
 A restricted SCF calculation will be
 performed using DIIS
 SCF converges when DIIS error is below 1.0e-06
 ---------------------------------------
  Cycle       Energy         DIIS error
 ---------------------------------------
    1   -1583.1067189004      1.86e-02  
    2   -1571.1657997669      2.03e-03  
    3   -1571.5062831880      1.55e-03  
    4   -1571.7293774573      2.52e-04  
    5   -1571.7431694249      7.80e-05  
    6   -1571.7445921294      3.03e-05  
    7   -1571.7450137407      1.55e-05  
    8   -1571.7451290907      6.26e-06  
    9   -1571.7451485943      2.86e-06  
   10   -1571.7451524288      1.22e-06  
   11   -1571.7451536087      5.64e-07  Convergence criterion met
 ---------------------------------------
 SCF time:   CPU 6783.91s  wall 254.00s 

************** Final PCM Free Energy Summary **************
 G_electrostatic  =      -0.02968485 hartree =     -18.62752171 kcal/mol
 G_cavitation     =       0.00000000 hartree =       0.00000000 kcal/mol
 G_dispersion     =       0.00000000 hartree =       0.00000000 kcal/mol
 G_repulsion      =       0.00000000 hartree =       0.00000000 kcal/mol
 --------------------------------------------------
 Non-electrostatic Free Energy =       0.00000000 hartree =       0.00000000 kcal/mol
 Total                         =      -0.02968485 hartree =     -18.62752171 kcal/mol
 --------------------------------------------------
 SCF Energy (H0 + V/2)                       =   -1571.74515361 
 Solute Internal Energy (H0)                 =   -1571.71546876 
 Total Free Energy (H0 + V/2 + non-elec)     =   -1571.74515361 hartree
                                             = -986284.96988778 kcal/mol
***********************************************************

 SCF   energy in the final basis set =    -1571.7451536087
 Total energy in the final basis set =    -1571.7451536087


 --------------------------------------------------------------
  Generalized many-body perturbation theory program
  by Joonho Lee, Fazle Rob, Xintian Feng, Evgeny Epifanovsky

 No regularization used 
 (reg. param. = 0.0000e+00)
  (P|Q)^-1/2 Time:  CPU 135.33 s  wall 2.17 s

 In RI-MP2 calculation: 
 # of frozen core orbitals: 31

 Components of the RIMP2 correlation energy:
        aaaa    correlation energy =        -0.6147350501 a.u.
        abab    correlation energy =        -3.4249341516 a.u.
        bbbb    correlation energy =        -0.6147350501 a.u.
        non-Brillouin singles      =        -0.0000000000 a.u.
        total same-spin energy     =        -1.2294701002 a.u.
        total opposite-spin energy =        -3.4249341516 a.u.

 Total  RIMP2   correlation energy =        -4.6544042519 a.u.
        RIMP2         total energy =     -1576.3995578605 a.u.

 RI-MP2 Energy Time:  CPU 2040.82 s  wall 33.42 s
 
 --------------------------------------------------------------
 
                    Orbital Energies (a.u.)
 --------------------------------------------------------------
 
 Alpha MOs
 -- Occupied --
-91.9931 -20.5512 -20.5444 -20.5419 -20.5406 -15.6267 -15.6213 -11.3930
-11.3851 -11.3837 -11.3792 -11.3087 -11.3087 -11.3050 -11.3048 -11.2966
-11.2946 -11.2898 -11.2815 -11.2694 -11.2681 -11.2650 -11.2629 -11.2594
-11.2528 -11.2512 -11.2501  -8.9928  -6.6736  -6.6732  -6.6725  -1.4191
 -1.4123  -1.3970  -1.3914  -1.2619  -1.2555  -1.2303  -1.1871  -1.1523
 -1.1141  -1.0871  -1.0468  -0.9962  -0.9877  -0.9836  -0.9551  -0.9507
 -0.8963  -0.8876  -0.8768  -0.8601  -0.7938  -0.7758  -0.7714  -0.7678
 -0.7409  -0.7152  -0.7035  -0.6913  -0.6768  -0.6714  -0.6674  -0.6572
 -0.6471  -0.6430  -0.6383  -0.6317  -0.6309  -0.6268  -0.6226  -0.6052
 -0.5855  -0.5746  -0.5653  -0.5608  -0.5567  -0.5513  -0.5499  -0.5478
 -0.5469  -0.5436  -0.5213  -0.5170  -0.5091  -0.4823  -0.4752  -0.4687
 -0.4578  -0.4512  -0.4428  -0.4348  -0.4132  -0.4075  -0.3558  -0.3520
 -0.3283  -0.2869
 -- Virtual --
  0.0144   0.0430   0.0910   0.0920   0.1328   0.1494   0.1532   0.1611
  0.1641   0.1734   0.1817   0.1844   0.1873   0.1904   0.1966   0.2036
  0.2066   0.2181   0.2221   0.2289   0.2312   0.2325   0.2354   0.2426
  0.2667   0.2692   0.2954   0.3038   0.3113   0.3169   0.3241   0.3257
  0.3309   0.3418   0.3456   0.3502   0.3560   0.3605   0.3636   0.3698
  0.3718   0.3779   0.3840   0.3864   0.3901   0.3961   0.4009   0.4071
  0.4167   0.4219   0.4291   0.4317   0.4355   0.4406   0.4465   0.4484
  0.4538   0.4582   0.4656   0.4732   0.4740   0.4791   0.4862   0.4910
  0.4971   0.5011   0.5019   0.5098   0.5147   0.5211   0.5251   0.5267
  0.5309   0.5364   0.5406   0.5444   0.5499   0.5533   0.5611   0.5676
  0.5697   0.5770   0.5795   0.5842   0.5890   0.5901   0.5935   0.5956
  0.6018   0.6035   0.6071   0.6113   0.6142   0.6166   0.6196   0.6247
  0.6284   0.6334   0.6343   0.6389   0.6410   0.6440   0.6465   0.6555
  0.6577   0.6619   0.6701   0.6785   0.6836   0.6918   0.6938   0.7024
  0.7057   0.7114   0.7201   0.7293   0.7338   0.7418   0.7482   0.7531
  0.7620   0.7674   0.7731   0.7787   0.7846   0.7849   0.7916   0.7990
  0.8046   0.8162   0.8210   0.8238   0.8282   0.8350   0.8392   0.8445
  0.8484   0.8525   0.8611   0.8636   0.8685   0.8729   0.8768   0.8862
  0.8894   0.8981   0.9071   0.9127   0.9156   0.9192   0.9238   0.9285
  0.9368   0.9401   0.9488   0.9518   0.9598   0.9702   0.9737   0.9774
  0.9809   0.9835   0.9848   0.9978   1.0025   1.0049   1.0092   1.0171
  1.0229   1.0291   1.0342   1.0406   1.0511   1.0558   1.0576   1.0628
  1.0677   1.0689   1.0719   1.0734   1.0834   1.0896   1.0910   1.1035
  1.1054   1.1085   1.1192   1.1285   1.1331   1.1371   1.1402   1.1427
  1.1537   1.1556   1.1598   1.1641   1.1716   1.1743   1.1760   1.1883
  1.1933   1.1963   1.2022   1.2076   1.2154   1.2184   1.2223   1.2267
  1.2298   1.2311   1.2391   1.2446   1.2528   1.2593   1.2625   1.2755
  1.2844   1.2858   1.3007   1.3046   1.3116   1.3203   1.3329   1.3390
  1.3481   1.3537   1.3570   1.3581   1.3700   1.3719   1.3781   1.3851
  1.3893   1.3938   1.4017   1.4052   1.4219   1.4250   1.4280   1.4433
  1.4443   1.4518   1.4644   1.4674   1.4789   1.4836   1.4867   1.4944
  1.4989   1.5068   1.5100   1.5172   1.5256   1.5303   1.5347   1.5370
  1.5402   1.5424   1.5496   1.5571   1.5666   1.5691   1.5718   1.5763
  1.5881   1.5964   1.6025   1.6070   1.6150   1.6263   1.6315   1.6392
  1.6484   1.6519   1.6644   1.6738   1.6812   1.6877   1.6907   1.6957
  1.6991   1.7125   1.7177   1.7314   1.7365   1.7453   1.7538   1.7549
  1.7608   1.7673   1.7743   1.7864   1.7914   1.7976   1.8068   1.8126
  1.8180   1.8273   1.8451   1.8464   1.8549   1.8602   1.8686   1.8752
  1.8786   1.8849   1.8910   1.8963   1.9050   1.9102   1.9187   1.9365
  1.9492   1.9615   1.9691   1.9822   1.9880   1.9914   1.9989   2.0188
  2.0288   2.0353   2.0552   2.0669   2.0834   2.0922   2.1009   2.1132
  2.1331   2.1376   2.1573   2.1636   2.1811   2.2052   2.2107   2.2298
  2.2362   2.2393   2.2473   2.2726   2.2750   2.2934   2.3020   2.3035
  2.3187   2.3328   2.3341   2.3445   2.3577   2.3650   2.3739   2.3837
  2.3980   2.4148   2.4252   2.4329   2.4403   2.4535   2.4552   2.4631
  2.4703   2.4857   2.4933   2.5017   2.5147   2.5265   2.5332   2.5405
  2.5545   2.5648   2.5793   2.5841   2.5881   2.6035   2.6075   2.6131
  2.6293   2.6332   2.6384   2.6449   2.6533   2.6585   2.6704   2.6737
  2.6874   2.6883   2.6901   2.6997   2.7181   2.7213   2.7282   2.7396
  2.7458   2.7498   2.7573   2.7592   2.7643   2.7749   2.7855   2.7922
  2.8148   2.8204   2.8401   2.8428   2.8509   2.8534   2.8625   2.8695
  2.8737   2.8770   2.8870   2.8899   2.8948   2.9049   2.9110   2.9176
  2.9230   2.9257   2.9319   2.9430   2.9514   2.9568   2.9662   2.9712
  2.9760   2.9785   2.9847   2.9993   3.0089   3.0104   3.0186   3.0249
  3.0301   3.0379   3.0488   3.0573   3.0592   3.0738   3.0780   3.0869
  3.0971   3.0998   3.1040   3.1067   3.1086   3.1105   3.1136   3.1199
  3.1337   3.1363   3.1444   3.1526   3.1594   3.1615   3.1681   3.1740
  3.1837   3.1882   3.1934   3.2022   3.2084   3.2132   3.2157   3.2192
  3.2277   3.2355   3.2460   3.2485   3.2578   3.2603   3.2638   3.2670
  3.2679   3.2791   3.2798   3.2833   3.2885   3.2969   3.3048   3.3080
  3.3123   3.3168   3.3232   3.3253   3.3272   3.3320   3.3330   3.3378
  3.3459   3.3478   3.3487   3.3535   3.3588   3.3647   3.3716   3.3741
  3.3765   3.3822   3.3913   3.3936   3.3955   3.3997   3.4018   3.4088
  3.4169   3.4206   3.4257   3.4285   3.4332   3.4395   3.4432   3.4480
  3.4542   3.4600   3.4660   3.4733   3.4756   3.4763   3.4864   3.4914
  3.4956   3.4978   3.5025   3.5063   3.5146   3.5162   3.5221   3.5259
  3.5320   3.5398   3.5421   3.5525   3.5555   3.5591   3.5661   3.5729
  3.5850   3.5866   3.5958   3.6014   3.6051   3.6108   3.6193   3.6254
  3.6308   3.6350   3.6395   3.6419   3.6442   3.6488   3.6579   3.6593
  3.6732   3.6802   3.6836   3.6847   3.6932   3.6962   3.7045   3.7125
  3.7182   3.7217   3.7308   3.7364   3.7385   3.7417   3.7494   3.7545
  3.7589   3.7635   3.7690   3.7767   3.7795   3.7930   3.7970   3.7992
  3.8092   3.8149   3.8188   3.8241   3.8314   3.8398   3.8419   3.8464
  3.8498   3.8573   3.8654   3.8662   3.8781   3.8876   3.8907   3.9003
  3.9111   3.9162   3.9171   3.9262   3.9355   3.9448   3.9497   3.9558
  3.9610   3.9656   3.9732   3.9773   3.9832   3.9877   3.9960   4.0092
  4.0175   4.0234   4.0312   4.0359   4.0497   4.0589   4.0641   4.0766
  4.0941   4.1063   4.1120   4.1196   4.1234   4.1303   4.1371   4.1398
  4.1461   4.1535   4.1645   4.1699   4.1766   4.1852   4.1907   4.2007
  4.2135   4.2205   4.2231   4.2373   4.2402   4.2434   4.2509   4.2616
  4.2645   4.2713   4.2756   4.2840   4.2896   4.2912   4.2990   4.3039
  4.3080   4.3169   4.3231   4.3286   4.3323   4.3446   4.3475   4.3521
  4.3564   4.3664   4.3707   4.3717   4.3749   4.3840   4.3853   4.3946
  4.4036   4.4082   4.4120   4.4220   4.4288   4.4365   4.4468   4.4538
  4.4725   4.4856   4.4916   4.4969   4.5065   4.5136   4.5239   4.5250
  4.5349   4.5438   4.5469   4.5555   4.5696   4.5757   4.5815   4.5849
  4.5911   4.5953   4.6040   4.6114   4.6200   4.6244   4.6288   4.6345
  4.6407   4.6549   4.6648   4.6765   4.6911   4.6969   4.7002   4.7076
  4.7138   4.7312   4.7356   4.7442   4.7717   4.7804   4.7959   4.8060
  4.8110   4.8263   4.8361   4.8416   4.8516   4.8601   4.8676   4.8718
  4.8836   4.8854   4.9001   4.9206   4.9432   4.9442   4.9485   4.9722
  4.9774   4.9886   5.0082   5.0266   5.0395   5.0436   5.0463   5.0568
  5.0719   5.0958   5.1029   5.1197   5.1221   5.1267   5.1337   5.1364
  5.1542   5.1692   5.1741   5.1806   5.1966   5.2040   5.2269   5.2456
  5.2571   5.2628   5.2713   5.2843   5.3016   5.3105   5.3194   5.3270
  5.3304   5.3373   5.3455   5.3712   5.3773   5.3839   5.4032   5.4158
  5.4409   5.4433   5.4725   5.4887   5.4909   5.5062   5.5143   5.5157
  5.5193   5.5359   5.5426   5.5545   5.5580   5.5610   5.5623   5.5676
  5.5790   5.5854   5.5892   5.5995   5.6092   5.6176   5.6220   5.6347
  5.6474   5.6519   5.6603   5.6634   5.6665   5.6730   5.6898   5.6937
  5.6958   5.7064   5.7217   5.7405   5.7525   5.7624   5.7701   5.7752
  5.7844   5.7879   5.7973   5.8314   5.8423   5.8554   5.8777   5.9051
  5.9160   5.9556   5.9587   5.9863   6.0063   6.0308   6.0323   6.0414
  6.0525   6.0831   6.1011   6.1119   6.1237   6.1359   6.1502   6.1843
  6.2038   6.2197   6.2256   6.2273   6.2422   6.2638   6.2668   6.2833
  6.3093   6.3150   6.3235   6.3506   6.3661   6.3893   6.4341   6.4851
  6.5189   6.5319   6.5749   6.5827   6.6025   6.6144   6.6591   6.6662
  6.6742   6.7136   6.8464   6.8506   6.8883   6.9021   6.9050   6.9229
  6.9271   6.9404   7.1015   7.1080   7.1479   7.1929   7.1998   7.2354
  7.3473   7.3519   7.3568   7.3604   7.4757   7.5438   7.5706   7.5830
  7.5900   7.5996   7.6535   7.6766   7.6922   7.7140   8.8850  10.1086
 10.3181  11.3052  11.5342  11.7468  12.0672  12.0902  12.4240  12.4597
 12.9434  13.2089  13.3219  13.5528  13.7900  13.9250  14.1530  14.2703
 14.3142  14.3593  14.5227  14.5490  15.0319  15.6087  15.8255  16.3384
 --------------------------------------------------------------
 
          Ground-State Mulliken Net Atomic Charges

     Atom                 Charge (a.u.)
  ----------------------------------------
      1 C                    -0.085108
      2 C                    -0.029446
      3 C                    -0.110879
      4 C                    -0.124632
      5 H                     0.198851
      6 C                     0.015386
      7 C                     0.123644
      8 C                    -0.078884
      9 C                    -0.152311
     10 C                    -0.163713
     11 C                     0.246466
     12 H                     0.196267
     13 C                     0.343806
     14 C                     0.349820
     15 N                    -0.089973
     16 C                     0.357547
     17 C                     0.348238
     18 N                    -0.089397
     19 O                    -0.494078
     20 O                    -0.506874
     21 O                    -0.501739
     22 O                    -0.469024
     23 C                    -0.204693
     24 H                     0.139413
     25 H                     0.109232
     26 H                     0.109206
     27 C                    -0.197233
     28 H                     0.133330
     29 H                     0.111653
     30 H                     0.111099
     31 C                    -0.086906
     32 S                     0.010824
     33 C                    -0.217686
     34 C                    -0.150184
     35 C                    -0.207257
     36 H                     0.184786
     37 H                     0.190805
     38 H                     0.212629
     39 H                     0.137597
     40 H                     0.137944
     41 H                     0.191477
  ----------------------------------------
  Sum of atomic charges =     0.000000

 -----------------------------------------------------------------
                    Cartesian Multipole Moments
 -----------------------------------------------------------------
    Charge (ESU x 10^10)
                 0.0000
    Dipole Moment (Debye)
         X       1.3700      Y       2.2371      Z      -0.8409
       Tot       2.7548
    Quadrupole Moments (Debye-Ang)
        XX    -187.5112     XY      -7.1361     YY    -177.2410
        XZ      14.5211     YZ       3.8889     ZZ    -164.6509
    Octopole Moments (Debye-Ang^2)
       XXX     -56.3363    XXY     559.7188    XYY      39.6169
       YYY    1686.1811    XXZ      -8.7623    XYZ     -59.3946
       YYZ     -30.5694    XZZ     -16.7798    YZZ     505.9386
       ZZZ     -31.8798
    Hexadecapole Moments (Debye-Ang^3)
      XXXX   -4751.3572   XXXY    -134.5186   XXYY   -4038.0011
      XYYY   -1027.1137   YYYY  -18041.8017   XXXZ    1379.0922
      XXYZ     -82.0740   XYYZ     803.3492   YYYZ     551.5329
      XXZZ   -1156.7684   XYZZ     -40.7545   YYZZ   -3111.5955
      XZZZ    1286.3365   YZZZ     102.9252   ZZZZ   -1928.6433
 -----------------------------------------------------------------
 Total job time:  291.19s(wall), 8924.59s(cpu) 
 Tue Sep 26 22:26:05 2023

        *************************************************************
        *                                                           *
        *  Thank you very much for using Q-Chem.  Have a nice day.  *
        *                                                           *
        *************************************************************


0 sent ACK to 0 
now end server 0 ... 
cleanup process ... done
remove work dirs ./qchem1305442.0 -- ./qchem1305442.0
rm -rf ./qchem1305442.0
rm -rf ./qchem1305442
