You are running Q-Chem version: 5.4.0

#
# job setting
#
local host:  exp-7-17
current dir: /expanse/lustre/projects/csd626/rramji/aromodel/PNDIT/Hydrogenated_Rotation_Test
input file:  Dimethyl_Naphthalene_Dicarboximide_Phi_5_Theta_300_Thiophene_Hydrogenated.qcin
output file: 
nprocs     : 1
nthreads   : 64
#
# qchem installation setting
#
QC:          /cm/shared/apps/spack/cpu/opt/spack/linux-centos8-zen2/gcc-10.2.0/qchem-5.4-akfmr7b3t57bfs6qan3padb2wnb2i7cl
QCAUX:       /cm/shared/apps/spack/cpu/opt/spack/linux-centos8-zen2/gcc-10.2.0/qchem-5.4-akfmr7b3t57bfs6qan3padb2wnb2i7cl/qcaux
QCPROG:      /cm/shared/apps/spack/cpu/opt/spack/linux-centos8-zen2/gcc-10.2.0/qchem-5.4-akfmr7b3t57bfs6qan3padb2wnb2i7cl/exe/qcprog.exe
QCPROG_S:    /cm/shared/apps/spack/cpu/opt/spack/linux-centos8-zen2/gcc-10.2.0/qchem-5.4-akfmr7b3t57bfs6qan3padb2wnb2i7cl/exe/qcprog.exe_s
PARALLEL:    -DPARALLEL
QCMPI:       mpich
#
# qchem directory setting
#
qcrun:       qchem1325454
QCSCRATCH:   .
QCLOCALSCR:  
QCTMPDIR:    .
QCFILEPREF:  ./qchem1325454
QCSAVEDIR:   
workdirs:    ./qchem1325454
workdir0:    ./qchem1325454
partmpdirs =  
#
# parallel setting
#
QCRSH:           ssh
QCMPI:           mpich
QCMPIRUN:        /cm/shared/apps/spack/cpu/opt/spack/linux-centos8-zen2/gcc-10.2.0/qchem-5.4-akfmr7b3t57bfs6qan3padb2wnb2i7cl/bin/mpi/mpirun_qchem
QCMACHINEFILE:   ./qchem1325454/hostfile
exp-7-17

#
# env setting
#
exported envs:   QC QCAUX QCSCRATCH QCRUNNAME QCFILEPREF QCPROG QCPROG_S GUIFILE

Running Job 1 of 1 Dimethyl_Naphthalene_Dicarboximide_Phi_5_Theta_300_Thiophene_Hydrogenated.qcin
qchem Dimethyl_Naphthalene_Dicarboximide_Phi_5_Theta_300_Thiophene_Hydrogenated.qcin_1325454.0 ./qchem1325454/ 1
/cm/shared/apps/spack/cpu/opt/spack/linux-centos8-zen2/gcc-10.2.0/qchem-5.4-akfmr7b3t57bfs6qan3padb2wnb2i7cl/bin/mpi/mpirun_qchem -machinefile ./qchem1325454/hostfile -np 1 /cm/shared/apps/spack/cpu/opt/spack/linux-centos8-zen2/gcc-10.2.0/qchem-5.4-akfmr7b3t57bfs6qan3padb2wnb2i7cl/exe/qcprog.exe Dimethyl_Naphthalene_Dicarboximide_Phi_5_Theta_300_Thiophene_Hydrogenated.qcin_1325454.0 ./qchem1325454/

Process 0 of 1 is on exp-7-17 - thread support 0
initial socket setup ...start
initial socket setup ...done 
now start server 0 ... 
                  Welcome to Q-Chem
     A Quantum Leap Into The Future Of Chemistry


 Q-Chem 5.4, Q-Chem, Inc., Pleasanton, CA (2021)

 License issued to: University of California, San Diego (site)

 E. Epifanovsky,  A. T. B. Gilbert,  Xintian Feng,  Joonho Lee,  Yuezhi Mao,  
 N. Mardirossian,  P. Pokhilko,  A. White,  M. Wormit,  M. P. Coons,  
 A. L. Dempwolff,  Zhengting Gan,  D. Hait,  P. R. Horn,  L. D. Jacobson,  
 I. Kaliman,  J. Kussmann,  A. W. Lange,  Ka Un Lao,  D. S. Levine,  Jie Liu,  
 S. C. McKenzie,  A. F. Morrison,  K. Nanda,  F. Plasser,  D. R. Rehn,  
 M. L. Vidal,  Zhi-Qiang You,  Ying Zhu,  B. Alam,  B. Albrecht,  
 A. Aldossary,  E. Alguire,  J. H. Andersen,  D. Barton,  K. Begam,  A. Behn,  
 Y. A. Bernard,  E. J. Berquist,  H. Burton,  A. Carreras,  K. Carter-Fenk,  
 R. Chakraborty,  A. D. Chien,  K. D. Closser,  V. Cofer-Shabica,  
 S. Dasgupta,  Jia Deng,  M. de Wergifosse,  M. Diedenhofen,  Hainam Do,  
 S. Ehlert,  Po-Tung Fang,  S. Fatehi,  Qingguo Feng,  J. Gayvert,  
 Qinghui Ge,  G. Gidofalvi,  M. Goldey,  J. Gomes,  C. Gonzalez-Espinoza,  
 S. Gulania,  A. Gunina,  M. W. D. Hanson-Heine,  P. H. P. Harbach,  
 A. W. Hauser,  M. F. Herbst,  M. Hernandez Vera,  M. Hodecker,  
 Z. C. Holden,  S. Houck,  Xunkun Huang,  Kerwin Hui,  B. C. Huynh,  
 M. Ivanov,  Hyunjun Ji,  Hanjie Jiang,  B. Kaduk,  S. Kaehler,  
 K. Khistyaev,  Jaehoon Kim,  P. Klunzinger,  Z. Koczor-Benda,  
 Joong Hoon Koh,  D. Kosenkov,  L. Koulias,  T. Kowalczyk,  C. M. Krauter,  
 K. Kue,  A. Kunitsa,  T. Kus,  A. Landau,  K. V. Lawler,  D. Lefrancois,  
 S. Lehtola,  Rain Li,  Yi-Pei Li,  Jiashu Liang,  M. Liebenthal,  
 Hung-Hsuan Lin,  You-Sheng Lin,  Fenglai Liu,  Kuan-Yu Liu,  
 M. Loipersberger,  A. Luenser,  A. Manjanath,  P. Manohar,  E. Mansoor,  
 S. F. Manzer,  Shan-Ping Mao,  A. V. Marenich,  T. Markovich,  S. Mason,  
 S. A. Maurer,  P. F. McLaughlin,  M. F. S. J. Menger,  J.-M. Mewes,  
 S. A. Mewes,  P. Morgante,  J. W. Mullinax,  T. S. Nguyen-Beck,  
 K. J. Oosterbaan,  G. Paran,  Alexander C. Paul,  Suranjan K. Paul,  
 F. Pavosevic,  Zheng Pei,  S. Prager,  E. I. Proynov,  E. Ramos,  B. Rana,  
 A. E. Rask,  A. Rettig,  R. M. Richard,  F. Rob,  E. Rossomme,  T. Scheele,  
 M. Scheurer,  M. Schneider,  N. Sergueev,  S. M. Sharada,  W. Skomorowski,  
 D. W. Small,  C. J. Stein,  Yu-Chuan Su,  E. J. Sundstrom,  Zhen Tao,  
 J. Thirman,  T. Tsuchimochi,  N. M. Tubman,  S. P. Veccham,  O. Vydrov,  
 J. Wenzel,  J. Witte,  A. Yamada,  Kun Yao,  S. Yeganeh,  S. R. Yost,  
 A. Zech,  Igor Ying Zhang,  Xing Zhang,  Yu Zhang,  D. Zuev,  
 A. Aspuru-Guzik,  A. T. Bell,  N. A. Besley,  K. B. Bravaya,  B. R. Brooks,  
 D. Casanova,  Jeng-Da Chai,  S. Coriani,  C. J. Cramer,  
 A. E. DePrince, III,  R. A. DiStasio Jr.,  A. Dreuw,  B. D. Dunietz,  
 T. R. Furlani,  W. A. Goddard III,  S. Grimme,  S. Hammes-Schiffer,  
 T. Head-Gordon,  W. J. Hehre,  Chao-Ping Hsu,  T.-C. Jagau,  Yousung Jung,  
 A. Klamt,  Jing Kong,  D. S. Lambrecht,  WanZhen Liang,  N. J. Mayhall,  
 C. W. McCurdy,  J. B. Neaton,  C. Ochsenfeld,  J. A. Parkhill,  R. Peverati,  
 V. A. Rassolov,  Yihan Shao,  L. V. Slipchenko,  T. Stauch,  R. P. Steele,  
 J. E. Subotnik,  A. J. W. Thom,  A. Tkatchenko,  D. G. Truhlar,  
 T. Van Voorhis,  T. A. Wesolowski,  K. B. Whaley,  H. L. Woodcock III,  
 P. M. Zimmerman,  S. Faraji,  P. M. W. Gill,  M. Head-Gordon,  
 J. M. Herbert,  A. I. Krylov

 Contributors to earlier versions of Q-Chem not listed above: 
 R. D. Adamson,  B. Austin,  R. Baer,  J. Baker,  G. J. O. Beran,  
 K. Brandhorst,  S. T. Brown,  E. F. C. Byrd,  A. K. Chakraborty,  
 G. K. L. Chan,  Chun-Min Chang,  Yunqing Chen,  C.-L. Cheng,  
 Siu Hung Chien,  D. M. Chipman,  D. L. Crittenden,  H. Dachsel,  
 R. J. Doerksen,  A. D. Dutoi,  R. G. Edgar,  J. Fosso-Tande,  
 L. Fusti-Molnar,  D. Ghosh,  A. Ghysels,  A. Golubeva-Zadorozhnaya,  
 J. Gonthier,  M. S. Gordon,  S. R. Gwaltney,  G. Hawkins,  J. E. Herr,  
 A. Heyden,  S. Hirata,  E. G. Hohenstein,  G. Kedziora,  F. J. Keil,  
 C. Kelley,  Jihan Kim,  R. A. King,  R. Z. Khaliullin,  P. P. Korambath,  
 W. Kurlancheek,  A. Laurent,  A. M. Lee,  M. S. Lee,  S. V. Levchenko,  
 Ching Yeh Lin,  D. Liotard,  E. Livshits,  R. C. Lochan,  I. Lotan,  
 L. A. Martinez-Martinez,  P. E. Maslen,  N. Nair,  D. P. O'Neill,  
 D. Neuhauser,  E. Neuscamman,  C. M. Oana,  R. Olivares-Amaya,  R. Olson,  
 T. M. Perrine,  B. Peters,  P. A. Pieniazek,  A. Prociuk,  Y. M. Rhee,  
 J. Ritchie,  M. A. Rohrdanz,  E. Rosta,  N. J. Russ,  H. F. Schaefer III,  
 M. W. Schmidt,  N. E. Schultz,  S. Sharma,  N. Shenvi,  C. D. Sherrill,  
 A. C. Simmonett,  A. Sodt,  T. Stein,  D. Stuck,  K. S. Thanthiriwatte,  
 V. Vanovschi,  L. Vogt,  Tao Wang,  A. Warshel,  M. A. Watson,  
 C. F. Williams,  Q. Wu,  X. Xu,  Jun Yang,  W. Zhang,  Yan Zhao

 Please cite Q-Chem as follows:
 Y. Shao et al., Mol. Phys. 113, 184-215 (2015)
 DOI: 10.1080/00268976.2014.952696

 Q-Chem 5.4.0 for Intel X86 EM64T Linux

 Parts of Q-Chem use Armadillo 9.800.1 (Horizon Scraper).
 http://arma.sourceforge.net/

 Q-Chem begins on Wed Sep 27 00:21:28 2023  

 Host: 
0

     Scratch files written to ./qchem1325454//
 May1621 |scratch|qcdevops|jenkins|workspace|build_RNUM    
 Parallel job on  1  processors
 Processing $rem in /cm/shared/apps/spack/cpu/opt/spack/linux-centos8-zen2/gcc-10.2.0/qchem-5.4-akfmr7b3t57bfs6qan3padb2wnb2i7cl/config/preferences:
 Processing $rem in /home/rramji/.qchemrc:
 Symmetry turned off for PCM/SM12/SMD calculation
 Core orbitals will be frozen

 Checking the input file for inconsistencies... 	...done.

 Q-Chem warning in module forms1/BasisType.C, line 2236:

 You are not using the predefined 5D/6D in this basis set.


--------------------------------------------------------------
User input:
--------------------------------------------------------------
$molecule
0 1
C	-0.223244	-6.741404	-0.127184
C	-1.354118	-6.155638	-0.779949
C	0.715408	-5.791452	0.415271
C	-1.595259	-4.803786	-0.919437
H	-2.114613	-6.821518	-1.218801
C	0.463133	-4.378638	0.268806
C	-0.688925	-3.838032	-0.396744
C	1.368449	-3.413062	0.790835
C	-0.939189	-2.426473	-0.542026
C	1.130363	-2.059348	0.652669
C	0.000000	-1.478216	0.000000
H	1.891815	-1.394783	1.091814
C	1.963749	-6.187987	1.138124
C	2.607351	-3.798164	1.506241
N	2.817348	-5.170003	1.629443
C	-2.837621	-4.424987	-1.636646
C	-2.188982	-2.036627	-1.264474
N	-3.042637	-3.049156	-1.756205
O	2.301222	-7.353131	1.336258
O	3.407386	-2.986854	1.967056
O	-3.628041	-5.248946	-2.092167
O	-2.545844	-0.878829	-1.472160
C	4.040164	-5.563799	2.336642
H	4.078749	-6.664085	2.360245
H	4.027880	-5.147101	3.361968
H	4.922811	-5.148785	1.813424
C	-4.247167	-2.587487	-2.452149
H	-4.804209	-3.483329	-2.772531
H	-3.965991	-1.964972	-3.322697
H	-4.859678	-1.962932	-1.774507
C	0.000000	0.000000	0.000000
S	0.068929	0.790170	1.580530
C	0.211639	2.421655	0.904911
C	0.086813	0.994207	-0.985400
C	0.201782	2.309433	-0.493528
H	0.066299	0.759454	-2.059934
H	0.278488	3.187020	-1.152593
H	0.288312	3.298992	1.556025
H	0.318588	-7.361589	-0.851574
H	-0.580522	-7.361192	0.704181
H	0.540459	-1.478831	-0.935042
$end

$rem
JOBTYPE		SP
EXCHANGE	HF
CORRELATION	pRIMP2
BASIS		cc-pvtz
METHOD		rimp2
AUX_BASIS	rimp2-cc-pvtz
SOLVENT_METHOD	PCM
PURECART	11111
SYMMETRY	false
MEM_TOTAL	110000
SCF_CONVERGENCE = 6
THRESH=10
GUI = 2
$end



$solvent
dielectric 4.90
$end
--------------------------------------------------------------
 ----------------------------------------------------------------
             Standard Nuclear Orientation (Angstroms)
    I     Atom           X                Y                Z
 ----------------------------------------------------------------
    1      C      -0.2232440000    -6.7414040000    -0.1271840000
    2      C      -1.3541180000    -6.1556380000    -0.7799490000
    3      C       0.7154080000    -5.7914520000     0.4152710000
    4      C      -1.5952590000    -4.8037860000    -0.9194370000
    5      H      -2.1146130000    -6.8215180000    -1.2188010000
    6      C       0.4631330000    -4.3786380000     0.2688060000
    7      C      -0.6889250000    -3.8380320000    -0.3967440000
    8      C       1.3684490000    -3.4130620000     0.7908350000
    9      C      -0.9391890000    -2.4264730000    -0.5420260000
   10      C       1.1303630000    -2.0593480000     0.6526690000
   11      C       0.0000000000    -1.4782160000     0.0000000000
   12      H       1.8918150000    -1.3947830000     1.0918140000
   13      C       1.9637490000    -6.1879870000     1.1381240000
   14      C       2.6073510000    -3.7981640000     1.5062410000
   15      N       2.8173480000    -5.1700030000     1.6294430000
   16      C      -2.8376210000    -4.4249870000    -1.6366460000
   17      C      -2.1889820000    -2.0366270000    -1.2644740000
   18      N      -3.0426370000    -3.0491560000    -1.7562050000
   19      O       2.3012220000    -7.3531310000     1.3362580000
   20      O       3.4073860000    -2.9868540000     1.9670560000
   21      O      -3.6280410000    -5.2489460000    -2.0921670000
   22      O      -2.5458440000    -0.8788290000    -1.4721600000
   23      C       4.0401640000    -5.5637990000     2.3366420000
   24      H       4.0787490000    -6.6640850000     2.3602450000
   25      H       4.0278800000    -5.1471010000     3.3619680000
   26      H       4.9228110000    -5.1487850000     1.8134240000
   27      C      -4.2471670000    -2.5874870000    -2.4521490000
   28      H      -4.8042090000    -3.4833290000    -2.7725310000
   29      H      -3.9659910000    -1.9649720000    -3.3226970000
   30      H      -4.8596780000    -1.9629320000    -1.7745070000
   31      C       0.0000000000     0.0000000000     0.0000000000
   32      S       0.0689290000     0.7901700000     1.5805300000
   33      C       0.2116390000     2.4216550000     0.9049110000
   34      C       0.0868130000     0.9942070000    -0.9854000000
   35      C       0.2017820000     2.3094330000    -0.4935280000
   36      H       0.0662990000     0.7594540000    -2.0599340000
   37      H       0.2784880000     3.1870200000    -1.1525930000
   38      H       0.2883120000     3.2989920000     1.5560250000
   39      H       0.3185880000    -7.3615890000    -0.8515740000
   40      H      -0.5805220000    -7.3611920000     0.7041810000
   41      H       0.5404590000    -1.4788310000    -0.9350420000
 ----------------------------------------------------------------
 Nuclear Repulsion Energy =        2546.27298691 hartrees
 There are       98 alpha and       98 beta electrons
 Requested basis set is cc-pVTZ
 There are 356 shells and 1010 basis functions

 Total QAlloc Memory Limit 110000 MB
 Mega-Array Size       188 MB
 MEM_STATIC part       192 MB
 Discretize the solute cavity surface with Lebedev spheres
	Using 110 Lebedev grid points for each H atom
	Using 194 Lebedev grid points for other atoms
	Atomic van der Waals radii will be scaled by 1.20
 Remove points where switching function is < 1.0e-08
 Keep 2618 surface tesserae and discard 4160 interior tesserae
 Molecular Surface Area = 371.911 Angst**2
 Requested basis set is rimp2-cc-pVTZ
 There are 770 shells and 2648 basis functions
 A cutoff of  1.0D-10 yielded  33992 shell pairs
 There are    257026 function pairs (    332721 Cartesian)
 Smallest overlap matrix eigenvalue = 9.09E-06

 Q-Chem warning in module stvman/mkSTV.C, line 323:

 Overlap eigenvalue is smaller than square root of threshold
 Use THRESH >= 12 to get rid of this warning


 Scale SEOQF with 1.000000e-01/1.000000e-02/1.000000e-01

 Standard Electronic Orientation quadrupole field applied
 Nucleus-field energy     =     0.0000000162 hartrees
 Guess from superposition of atomic densities
 Warning:  Energy on first SCF cycle will be non-variational
 SAD guess density has 196.000000 electrons

 -----------------------------------------------------------------------
  General SCF calculation program by
  Eric Jon Sundstrom, Paul Horn, Yuezhi Mao, Dmitri Zuev, Alec White,
  David Stuck, Shaama M.S., Shane Yost, Joonho Lee, David Small,
  Daniel Levine, Susi Lehtola, Hugh Burton, Evgeny Epifanovsky,
  Bang C. Huynh
 -----------------------------------------------------------------------
 Hartree-Fock
 using 64 threads for integral computing
 -------------------------------------------------------
 OpenMP Integral computing Module                
 Release: version 1.0, May 2013, Q-Chem Inc. Pittsburgh 
 -------------------------------------------------------
 A restricted SCF calculation will be
 performed using DIIS
 SCF converges when DIIS error is below 1.0e-06
 ---------------------------------------
  Cycle       Energy         DIIS error
 ---------------------------------------
    1   -1583.0918605427      1.86e-02  
    2   -1571.1710001491      2.03e-03  
    3   -1571.5102576923      1.55e-03  
    4   -1571.7326373357      2.52e-04  
    5   -1571.7462934019      7.73e-05  
    6   -1571.7476736734      2.97e-05  
    7   -1571.7480765519      1.53e-05  
    8   -1571.7481861692      6.13e-06  
    9   -1571.7482048021      2.82e-06  
   10   -1571.7482084571      1.19e-06  
   11   -1571.7482095727      5.58e-07  Convergence criterion met
 ---------------------------------------
 SCF time:   CPU 6792.98s  wall 251.00s 

************** Final PCM Free Energy Summary **************
 G_electrostatic  =      -0.03085624 hartree =     -19.36258412 kcal/mol
 G_cavitation     =       0.00000000 hartree =       0.00000000 kcal/mol
 G_dispersion     =       0.00000000 hartree =       0.00000000 kcal/mol
 G_repulsion      =       0.00000000 hartree =       0.00000000 kcal/mol
 --------------------------------------------------
 Non-electrostatic Free Energy =       0.00000000 hartree =       0.00000000 kcal/mol
 Total                         =      -0.03085624 hartree =     -19.36258412 kcal/mol
 --------------------------------------------------
 SCF Energy (H0 + V/2)                       =   -1571.74820957 
 Solute Internal Energy (H0)                 =   -1571.71735333 
 Total Free Energy (H0 + V/2 + non-elec)     =   -1571.74820957 hartree
                                             = -986286.88753417 kcal/mol
***********************************************************

 SCF   energy in the final basis set =    -1571.7482095727
 Total energy in the final basis set =    -1571.7482095727


 --------------------------------------------------------------
  Generalized many-body perturbation theory program
  by Joonho Lee, Fazle Rob, Xintian Feng, Evgeny Epifanovsky

 No regularization used 
 (reg. param. = 0.0000e+00)
  (P|Q)^-1/2 Time:  CPU 144.95 s  wall 2.54 s

 In RI-MP2 calculation: 
 # of frozen core orbitals: 31

 Components of the RIMP2 correlation energy:
        aaaa    correlation energy =        -0.6148934068 a.u.
        abab    correlation energy =        -3.4250319304 a.u.
        bbbb    correlation energy =        -0.6148934068 a.u.
        non-Brillouin singles      =        -0.0000000000 a.u.
        total same-spin energy     =        -1.2297868136 a.u.
        total opposite-spin energy =        -3.4250319304 a.u.

 Total  RIMP2   correlation energy =        -4.6548187440 a.u.
        RIMP2         total energy =     -1576.4030283167 a.u.

 RI-MP2 Energy Time:  CPU 2010.28 s  wall 32.69 s
 
 --------------------------------------------------------------
 
                    Orbital Energies (a.u.)
 --------------------------------------------------------------
 
 Alpha MOs
 -- Occupied --
-91.9896 -20.5521 -20.5445 -20.5419 -20.5409 -15.6270 -15.6215 -11.3935
-11.3852 -11.3838 -11.3795 -11.3093 -11.3083 -11.3053 -11.3048 -11.2976
-11.2964 -11.2902 -11.2801 -11.2694 -11.2681 -11.2657 -11.2630 -11.2595
-11.2541 -11.2528 -11.2505  -8.9892  -6.6701  -6.6696  -6.6690  -1.4195
 -1.4124  -1.3972  -1.3916  -1.2621  -1.2556  -1.2301  -1.1865  -1.1523
 -1.1144  -1.0867  -1.0470  -0.9952  -0.9879  -0.9844  -0.9552  -0.9510
 -0.8967  -0.8880  -0.8768  -0.8601  -0.7955  -0.7776  -0.7709  -0.7607
 -0.7419  -0.7169  -0.7038  -0.6917  -0.6808  -0.6718  -0.6667  -0.6573
 -0.6471  -0.6440  -0.6368  -0.6326  -0.6309  -0.6278  -0.6224  -0.6045
 -0.5858  -0.5749  -0.5656  -0.5612  -0.5567  -0.5513  -0.5506  -0.5486
 -0.5478  -0.5437  -0.5189  -0.5167  -0.5098  -0.4836  -0.4755  -0.4639
 -0.4581  -0.4513  -0.4430  -0.4348  -0.4134  -0.4076  -0.3555  -0.3510
 -0.3288  -0.2868
 -- Virtual --
  0.0144   0.0420   0.0903   0.0938   0.1362   0.1499   0.1542   0.1602
  0.1637   0.1723   0.1783   0.1840   0.1875   0.1924   0.1957   0.2041
  0.2068   0.2229   0.2261   0.2289   0.2298   0.2316   0.2332   0.2377
  0.2651   0.2690   0.2999   0.3033   0.3127   0.3204   0.3245   0.3252
  0.3290   0.3406   0.3477   0.3497   0.3538   0.3592   0.3642   0.3674
  0.3715   0.3775   0.3817   0.3865   0.3885   0.3937   0.4005   0.4056
  0.4141   0.4214   0.4279   0.4345   0.4391   0.4437   0.4447   0.4492
  0.4534   0.4579   0.4638   0.4667   0.4736   0.4780   0.4863   0.4900
  0.4952   0.4997   0.5018   0.5094   0.5140   0.5201   0.5257   0.5291
  0.5314   0.5337   0.5442   0.5452   0.5490   0.5561   0.5616   0.5659
  0.5725   0.5754   0.5798   0.5823   0.5875   0.5895   0.5950   0.5979
  0.6030   0.6039   0.6070   0.6078   0.6129   0.6166   0.6189   0.6244
  0.6271   0.6319   0.6339   0.6365   0.6406   0.6419   0.6454   0.6491
  0.6578   0.6588   0.6679   0.6766   0.6805   0.6918   0.6950   0.6999
  0.7069   0.7117   0.7168   0.7265   0.7350   0.7421   0.7455   0.7602
  0.7622   0.7660   0.7739   0.7778   0.7806   0.7877   0.7892   0.7969
  0.8043   0.8142   0.8186   0.8244   0.8323   0.8404   0.8423   0.8452
  0.8457   0.8547   0.8625   0.8661   0.8677   0.8718   0.8754   0.8843
  0.8936   0.9003   0.9054   0.9094   0.9158   0.9211   0.9239   0.9270
  0.9351   0.9418   0.9439   0.9484   0.9605   0.9672   0.9734   0.9769
  0.9770   0.9819   0.9879   0.9982   1.0004   1.0082   1.0149   1.0161
  1.0207   1.0289   1.0387   1.0419   1.0443   1.0566   1.0576   1.0620
  1.0665   1.0695   1.0711   1.0743   1.0862   1.0917   1.0930   1.0976
  1.1041   1.1102   1.1235   1.1277   1.1303   1.1338   1.1361   1.1407
  1.1519   1.1564   1.1600   1.1623   1.1671   1.1743   1.1803   1.1822
  1.1897   1.1959   1.2000   1.2055   1.2103   1.2157   1.2218   1.2273
  1.2323   1.2336   1.2373   1.2413   1.2531   1.2629   1.2645   1.2717
  1.2804   1.2884   1.2933   1.3038   1.3091   1.3206   1.3341   1.3391
  1.3464   1.3508   1.3587   1.3639   1.3668   1.3692   1.3815   1.3865
  1.3882   1.3917   1.4019   1.4054   1.4176   1.4246   1.4267   1.4432
  1.4493   1.4542   1.4694   1.4730   1.4771   1.4824   1.4873   1.4975
  1.4994   1.5092   1.5104   1.5169   1.5233   1.5301   1.5349   1.5394
  1.5410   1.5472   1.5523   1.5585   1.5633   1.5676   1.5729   1.5757
  1.5848   1.5876   1.5973   1.6022   1.6164   1.6263   1.6403   1.6419
  1.6487   1.6529   1.6556   1.6750   1.6818   1.6903   1.6914   1.6951
  1.7034   1.7142   1.7196   1.7241   1.7328   1.7443   1.7504   1.7601
  1.7641   1.7699   1.7792   1.7818   1.7861   1.7987   1.8033   1.8133
  1.8209   1.8242   1.8434   1.8458   1.8471   1.8586   1.8676   1.8708
  1.8756   1.8806   1.8884   1.8973   1.9058   1.9101   1.9218   1.9437
  1.9458   1.9594   1.9657   1.9759   1.9833   1.9900   2.0028   2.0250
  2.0335   2.0383   2.0449   2.0578   2.0845   2.0926   2.1004   2.1144
  2.1264   2.1358   2.1515   2.1566   2.1863   2.1995   2.2006   2.2256
  2.2330   2.2423   2.2644   2.2780   2.2819   2.2926   2.3012   2.3073
  2.3104   2.3264   2.3322   2.3389   2.3591   2.3636   2.3693   2.3876
  2.3936   2.4177   2.4300   2.4401   2.4445   2.4531   2.4587   2.4622
  2.4718   2.4804   2.4857   2.5065   2.5111   2.5278   2.5297   2.5440
  2.5611   2.5628   2.5812   2.5831   2.5939   2.6029   2.6143   2.6169
  2.6253   2.6284   2.6381   2.6422   2.6511   2.6656   2.6723   2.6782
  2.6856   2.6888   2.6941   2.7012   2.7175   2.7202   2.7316   2.7339
  2.7384   2.7502   2.7510   2.7607   2.7665   2.7705   2.7814   2.7988
  2.8174   2.8239   2.8368   2.8393   2.8527   2.8554   2.8589   2.8615
  2.8690   2.8786   2.8848   2.8935   2.8939   2.9005   2.9074   2.9139
  2.9201   2.9220   2.9298   2.9393   2.9453   2.9541   2.9632   2.9726
  2.9803   2.9824   2.9936   2.9996   3.0023   3.0117   3.0201   3.0248
  3.0342   3.0409   3.0430   3.0536   3.0587   3.0743   3.0765   3.0818
  3.0919   3.0997   3.1030   3.1063   3.1072   3.1096   3.1196   3.1232
  3.1328   3.1350   3.1466   3.1540   3.1602   3.1607   3.1671   3.1734
  3.1773   3.1883   3.1970   3.2027   3.2106   3.2150   3.2188   3.2205
  3.2250   3.2365   3.2406   3.2428   3.2476   3.2567   3.2594   3.2642
  3.2716   3.2744   3.2820   3.2913   3.2920   3.2973   3.3038   3.3063
  3.3114   3.3150   3.3177   3.3232   3.3291   3.3322   3.3374   3.3388
  3.3437   3.3509   3.3532   3.3546   3.3598   3.3644   3.3711   3.3750
  3.3783   3.3802   3.3907   3.3936   3.3958   3.3980   3.4019   3.4083
  3.4117   3.4221   3.4234   3.4279   3.4304   3.4373   3.4442   3.4455
  3.4563   3.4605   3.4643   3.4729   3.4764   3.4810   3.4849   3.4882
  3.4949   3.5002   3.5036   3.5093   3.5116   3.5169   3.5182   3.5292
  3.5306   3.5351   3.5403   3.5504   3.5555   3.5581   3.5633   3.5813
  3.5847   3.5905   3.5922   3.5949   3.6105   3.6124   3.6221   3.6238
  3.6245   3.6309   3.6378   3.6412   3.6433   3.6468   3.6517   3.6583
  3.6644   3.6760   3.6785   3.6889   3.6932   3.6997   3.7109   3.7210
  3.7220   3.7276   3.7334   3.7360   3.7446   3.7457   3.7500   3.7530
  3.7588   3.7619   3.7670   3.7749   3.7823   3.7899   3.7991   3.8045
  3.8087   3.8127   3.8159   3.8169   3.8272   3.8354   3.8368   3.8457
  3.8532   3.8590   3.8636   3.8643   3.8700   3.8803   3.8915   3.9005
  3.9088   3.9112   3.9243   3.9345   3.9379   3.9449   3.9505   3.9527
  3.9608   3.9625   3.9670   3.9796   3.9830   3.9902   4.0041   4.0065
  4.0140   4.0245   4.0281   4.0346   4.0475   4.0497   4.0612   4.0760
  4.0824   4.0954   4.1109   4.1178   4.1222   4.1294   4.1379   4.1391
  4.1442   4.1511   4.1626   4.1667   4.1702   4.1768   4.1922   4.2030
  4.2057   4.2097   4.2357   4.2386   4.2408   4.2490   4.2557   4.2671
  4.2703   4.2765   4.2798   4.2845   4.2907   4.2945   4.3019   4.3064
  4.3122   4.3179   4.3214   4.3284   4.3390   4.3444   4.3465   4.3530
  4.3562   4.3628   4.3677   4.3708   4.3774   4.3835   4.3950   4.3992
  4.4041   4.4052   4.4143   4.4206   4.4264   4.4333   4.4499   4.4511
  4.4678   4.4716   4.4864   4.4900   4.5026   4.5132   4.5173   4.5284
  4.5328   4.5406   4.5498   4.5562   4.5658   4.5744   4.5792   4.5908
  4.5923   4.5958   4.6058   4.6103   4.6180   4.6201   4.6266   4.6387
  4.6478   4.6575   4.6649   4.6757   4.6919   4.6960   4.6999   4.7114
  4.7238   4.7292   4.7388   4.7426   4.7722   4.7920   4.7957   4.7997
  4.8038   4.8252   4.8391   4.8445   4.8517   4.8611   4.8753   4.8818
  4.8859   4.8909   4.8986   4.9204   4.9333   4.9514   4.9634   4.9795
  4.9883   5.0019   5.0106   5.0162   5.0283   5.0372   5.0484   5.0557
  5.0664   5.0966   5.1129   5.1179   5.1225   5.1295   5.1302   5.1366
  5.1436   5.1599   5.1730   5.1770   5.1952   5.2022   5.2075   5.2218
  5.2615   5.2680   5.2702   5.2823   5.2975   5.3016   5.3220   5.3297
  5.3313   5.3386   5.3494   5.3635   5.3782   5.3822   5.4028   5.4142
  5.4308   5.4437   5.4790   5.4843   5.4980   5.5024   5.5125   5.5149
  5.5177   5.5310   5.5395   5.5526   5.5558   5.5592   5.5658   5.5676
  5.5791   5.5860   5.5894   5.6078   5.6121   5.6199   5.6242   5.6315
  5.6393   5.6497   5.6593   5.6615   5.6663   5.6730   5.6787   5.6936
  5.6959   5.7053   5.7208   5.7396   5.7446   5.7580   5.7693   5.7805
  5.7862   5.7868   5.8038   5.8314   5.8442   5.8620   5.8850   5.9134
  5.9369   5.9599   5.9754   5.9906   6.0152   6.0282   6.0320   6.0413
  6.0481   6.0775   6.0949   6.1115   6.1233   6.1412   6.1486   6.1849
  6.2019   6.2194   6.2255   6.2267   6.2408   6.2591   6.2619   6.2832
  6.3082   6.3116   6.3234   6.3497   6.3651   6.3865   6.4291   6.4847
  6.5181   6.5302   6.5744   6.5825   6.6031   6.6154   6.6590   6.6668
  6.6733   6.6924   6.8443   6.8498   6.8879   6.9014   6.9047   6.9210
  6.9266   6.9350   7.1018   7.1077   7.1467   7.1916   7.1993   7.2345
  7.3470   7.3516   7.3561   7.3599   7.4750   7.5416   7.5697   7.5827
  7.5884   7.5967   7.6533   7.6742   7.6906   7.7129   8.8235  10.0344
 10.3109  11.3130  11.5142  11.7468  12.0382  12.0415  12.4170  12.4656
 12.9728  13.2080  13.3514  13.5579  13.7770  13.9258  14.1032  14.2658
 14.3134  14.3562  14.5385  14.5768  15.0036  15.6098  15.8126  16.3534
 --------------------------------------------------------------
 
          Ground-State Mulliken Net Atomic Charges

     Atom                 Charge (a.u.)
  ----------------------------------------
      1 C                    -0.085020
      2 C                    -0.030402
      3 C                    -0.110660
      4 C                    -0.125036
      5 H                     0.198798
      6 C                     0.016807
      7 C                     0.116431
      8 C                    -0.091897
      9 C                    -0.176263
     10 C                    -0.126749
     11 C                     0.205555
     12 H                     0.199532
     13 C                     0.343346
     14 C                     0.349087
     15 N                    -0.090153
     16 C                     0.357659
     17 C                     0.345442
     18 N                    -0.090593
     19 O                    -0.493968
     20 O                    -0.506461
     21 O                    -0.501596
     22 O                    -0.469725
     23 C                    -0.204646
     24 H                     0.139461
     25 H                     0.109439
     26 H                     0.109048
     27 C                    -0.197167
     28 H                     0.133326
     29 H                     0.110743
     30 H                     0.112243
     31 C                    -0.025081
     32 S                     0.014714
     33 C                    -0.215339
     34 C                    -0.178261
     35 C                    -0.206902
     36 H                     0.182848
     37 H                     0.191141
     38 H                     0.210601
     39 H                     0.137530
     40 H                     0.137704
     41 H                     0.204466
  ----------------------------------------
  Sum of atomic charges =     0.000000

 -----------------------------------------------------------------
                    Cartesian Multipole Moments
 -----------------------------------------------------------------
    Charge (ESU x 10^10)
                 0.0000
    Dipole Moment (Debye)
         X      -0.1668      Y       2.1004      Z      -2.2166
       Tot       3.0583
    Quadrupole Moments (Debye-Ang)
        XX    -187.5474     XY       7.6316     YY    -177.5711
        XZ     -14.3694     YZ       6.0089     ZZ    -164.6074
    Octopole Moments (Debye-Ang^2)
       XXX      27.9099    XXY     559.3199    XYY     -38.2454
       YYY    1686.7854    XXZ      -8.3003    XYZ      60.4258
       YYZ     -33.7666    XZZ      11.3912    YZZ     505.2809
       ZZZ     -30.6650
    Hexadecapole Moments (Debye-Ang^3)
      XXXX   -4747.5622   XXXY      82.4678   XXYY   -4035.5985
      XYYY     998.1477   YYYY  -18051.5124   XXXZ   -1388.0973
      XXYZ     -81.1986   XYYZ    -802.0873   YYYZ     559.8389
      XXZZ   -1156.0865   XYZZ      30.2644   YYZZ   -3113.6979
      XZZZ   -1293.8744   YZZZ     104.5812   ZZZZ   -1931.2934
 -----------------------------------------------------------------
 Total job time:  289.39s(wall), 8936.50s(cpu) 
 Wed Sep 27 00:26:17 2023

        *************************************************************
        *                                                           *
        *  Thank you very much for using Q-Chem.  Have a nice day.  *
        *                                                           *
        *************************************************************


0 sent ACK to 0 
now end server 0 ... 
cleanup process ... done
remove work dirs ./qchem1325454.0 -- ./qchem1325454.0
rm -rf ./qchem1325454.0
rm -rf ./qchem1325454
