You are running Q-Chem version: 5.4.0

#
# job setting
#
local host:  exp-2-40
current dir: /expanse/lustre/projects/csd626/rramji/aromodel/PNDIT/Hydrogenated_Rotation_Test
input file:  Dimethyl_Naphthalene_Dicarboximide_Phi_10_Theta_100_Thiophene_Hydrogenated.qcin
output file: 
nprocs     : 1
nthreads   : 64
#
# qchem installation setting
#
QC:          /cm/shared/apps/spack/cpu/opt/spack/linux-centos8-zen2/gcc-10.2.0/qchem-5.4-akfmr7b3t57bfs6qan3padb2wnb2i7cl
QCAUX:       /cm/shared/apps/spack/cpu/opt/spack/linux-centos8-zen2/gcc-10.2.0/qchem-5.4-akfmr7b3t57bfs6qan3padb2wnb2i7cl/qcaux
QCPROG:      /cm/shared/apps/spack/cpu/opt/spack/linux-centos8-zen2/gcc-10.2.0/qchem-5.4-akfmr7b3t57bfs6qan3padb2wnb2i7cl/exe/qcprog.exe
QCPROG_S:    /cm/shared/apps/spack/cpu/opt/spack/linux-centos8-zen2/gcc-10.2.0/qchem-5.4-akfmr7b3t57bfs6qan3padb2wnb2i7cl/exe/qcprog.exe_s
PARALLEL:    -DPARALLEL
QCMPI:       mpich
#
# qchem directory setting
#
qcrun:       qchem3835435
QCSCRATCH:   .
QCLOCALSCR:  
QCTMPDIR:    .
QCFILEPREF:  ./qchem3835435
QCSAVEDIR:   
workdirs:    ./qchem3835435
workdir0:    ./qchem3835435
partmpdirs =  
#
# parallel setting
#
QCRSH:           ssh
QCMPI:           mpich
QCMPIRUN:        /cm/shared/apps/spack/cpu/opt/spack/linux-centos8-zen2/gcc-10.2.0/qchem-5.4-akfmr7b3t57bfs6qan3padb2wnb2i7cl/bin/mpi/mpirun_qchem
QCMACHINEFILE:   ./qchem3835435/hostfile
exp-2-40

#
# env setting
#
exported envs:   QC QCAUX QCSCRATCH QCRUNNAME QCFILEPREF QCPROG QCPROG_S GUIFILE

Running Job 1 of 1 Dimethyl_Naphthalene_Dicarboximide_Phi_10_Theta_100_Thiophene_Hydrogenated.qcin
qchem Dimethyl_Naphthalene_Dicarboximide_Phi_10_Theta_100_Thiophene_Hydrogenated.qcin_3835435.0 ./qchem3835435/ 1
/cm/shared/apps/spack/cpu/opt/spack/linux-centos8-zen2/gcc-10.2.0/qchem-5.4-akfmr7b3t57bfs6qan3padb2wnb2i7cl/bin/mpi/mpirun_qchem -machinefile ./qchem3835435/hostfile -np 1 /cm/shared/apps/spack/cpu/opt/spack/linux-centos8-zen2/gcc-10.2.0/qchem-5.4-akfmr7b3t57bfs6qan3padb2wnb2i7cl/exe/qcprog.exe Dimethyl_Naphthalene_Dicarboximide_Phi_10_Theta_100_Thiophene_Hydrogenated.qcin_3835435.0 ./qchem3835435/

Process 0 of 1 is on exp-2-40 - thread support 0
initial socket setup ...start
initial socket setup ...done 
now start server 0 ... 
                  Welcome to Q-Chem
     A Quantum Leap Into The Future Of Chemistry


 Q-Chem 5.4, Q-Chem, Inc., Pleasanton, CA (2021)

 License issued to: University of California, San Diego (site)

 E. Epifanovsky,  A. T. B. Gilbert,  Xintian Feng,  Joonho Lee,  Yuezhi Mao,  
 N. Mardirossian,  P. Pokhilko,  A. White,  M. Wormit,  M. P. Coons,  
 A. L. Dempwolff,  Zhengting Gan,  D. Hait,  P. R. Horn,  L. D. Jacobson,  
 I. Kaliman,  J. Kussmann,  A. W. Lange,  Ka Un Lao,  D. S. Levine,  Jie Liu,  
 S. C. McKenzie,  A. F. Morrison,  K. Nanda,  F. Plasser,  D. R. Rehn,  
 M. L. Vidal,  Zhi-Qiang You,  Ying Zhu,  B. Alam,  B. Albrecht,  
 A. Aldossary,  E. Alguire,  J. H. Andersen,  D. Barton,  K. Begam,  A. Behn,  
 Y. A. Bernard,  E. J. Berquist,  H. Burton,  A. Carreras,  K. Carter-Fenk,  
 R. Chakraborty,  A. D. Chien,  K. D. Closser,  V. Cofer-Shabica,  
 S. Dasgupta,  Jia Deng,  M. de Wergifosse,  M. Diedenhofen,  Hainam Do,  
 S. Ehlert,  Po-Tung Fang,  S. Fatehi,  Qingguo Feng,  J. Gayvert,  
 Qinghui Ge,  G. Gidofalvi,  M. Goldey,  J. Gomes,  C. Gonzalez-Espinoza,  
 S. Gulania,  A. Gunina,  M. W. D. Hanson-Heine,  P. H. P. Harbach,  
 A. W. Hauser,  M. F. Herbst,  M. Hernandez Vera,  M. Hodecker,  
 Z. C. Holden,  S. Houck,  Xunkun Huang,  Kerwin Hui,  B. C. Huynh,  
 M. Ivanov,  Hyunjun Ji,  Hanjie Jiang,  B. Kaduk,  S. Kaehler,  
 K. Khistyaev,  Jaehoon Kim,  P. Klunzinger,  Z. Koczor-Benda,  
 Joong Hoon Koh,  D. Kosenkov,  L. Koulias,  T. Kowalczyk,  C. M. Krauter,  
 K. Kue,  A. Kunitsa,  T. Kus,  A. Landau,  K. V. Lawler,  D. Lefrancois,  
 S. Lehtola,  Rain Li,  Yi-Pei Li,  Jiashu Liang,  M. Liebenthal,  
 Hung-Hsuan Lin,  You-Sheng Lin,  Fenglai Liu,  Kuan-Yu Liu,  
 M. Loipersberger,  A. Luenser,  A. Manjanath,  P. Manohar,  E. Mansoor,  
 S. F. Manzer,  Shan-Ping Mao,  A. V. Marenich,  T. Markovich,  S. Mason,  
 S. A. Maurer,  P. F. McLaughlin,  M. F. S. J. Menger,  J.-M. Mewes,  
 S. A. Mewes,  P. Morgante,  J. W. Mullinax,  T. S. Nguyen-Beck,  
 K. J. Oosterbaan,  G. Paran,  Alexander C. Paul,  Suranjan K. Paul,  
 F. Pavosevic,  Zheng Pei,  S. Prager,  E. I. Proynov,  E. Ramos,  B. Rana,  
 A. E. Rask,  A. Rettig,  R. M. Richard,  F. Rob,  E. Rossomme,  T. Scheele,  
 M. Scheurer,  M. Schneider,  N. Sergueev,  S. M. Sharada,  W. Skomorowski,  
 D. W. Small,  C. J. Stein,  Yu-Chuan Su,  E. J. Sundstrom,  Zhen Tao,  
 J. Thirman,  T. Tsuchimochi,  N. M. Tubman,  S. P. Veccham,  O. Vydrov,  
 J. Wenzel,  J. Witte,  A. Yamada,  Kun Yao,  S. Yeganeh,  S. R. Yost,  
 A. Zech,  Igor Ying Zhang,  Xing Zhang,  Yu Zhang,  D. Zuev,  
 A. Aspuru-Guzik,  A. T. Bell,  N. A. Besley,  K. B. Bravaya,  B. R. Brooks,  
 D. Casanova,  Jeng-Da Chai,  S. Coriani,  C. J. Cramer,  
 A. E. DePrince, III,  R. A. DiStasio Jr.,  A. Dreuw,  B. D. Dunietz,  
 T. R. Furlani,  W. A. Goddard III,  S. Grimme,  S. Hammes-Schiffer,  
 T. Head-Gordon,  W. J. Hehre,  Chao-Ping Hsu,  T.-C. Jagau,  Yousung Jung,  
 A. Klamt,  Jing Kong,  D. S. Lambrecht,  WanZhen Liang,  N. J. Mayhall,  
 C. W. McCurdy,  J. B. Neaton,  C. Ochsenfeld,  J. A. Parkhill,  R. Peverati,  
 V. A. Rassolov,  Yihan Shao,  L. V. Slipchenko,  T. Stauch,  R. P. Steele,  
 J. E. Subotnik,  A. J. W. Thom,  A. Tkatchenko,  D. G. Truhlar,  
 T. Van Voorhis,  T. A. Wesolowski,  K. B. Whaley,  H. L. Woodcock III,  
 P. M. Zimmerman,  S. Faraji,  P. M. W. Gill,  M. Head-Gordon,  
 J. M. Herbert,  A. I. Krylov

 Contributors to earlier versions of Q-Chem not listed above: 
 R. D. Adamson,  B. Austin,  R. Baer,  J. Baker,  G. J. O. Beran,  
 K. Brandhorst,  S. T. Brown,  E. F. C. Byrd,  A. K. Chakraborty,  
 G. K. L. Chan,  Chun-Min Chang,  Yunqing Chen,  C.-L. Cheng,  
 Siu Hung Chien,  D. M. Chipman,  D. L. Crittenden,  H. Dachsel,  
 R. J. Doerksen,  A. D. Dutoi,  R. G. Edgar,  J. Fosso-Tande,  
 L. Fusti-Molnar,  D. Ghosh,  A. Ghysels,  A. Golubeva-Zadorozhnaya,  
 J. Gonthier,  M. S. Gordon,  S. R. Gwaltney,  G. Hawkins,  J. E. Herr,  
 A. Heyden,  S. Hirata,  E. G. Hohenstein,  G. Kedziora,  F. J. Keil,  
 C. Kelley,  Jihan Kim,  R. A. King,  R. Z. Khaliullin,  P. P. Korambath,  
 W. Kurlancheek,  A. Laurent,  A. M. Lee,  M. S. Lee,  S. V. Levchenko,  
 Ching Yeh Lin,  D. Liotard,  E. Livshits,  R. C. Lochan,  I. Lotan,  
 L. A. Martinez-Martinez,  P. E. Maslen,  N. Nair,  D. P. O'Neill,  
 D. Neuhauser,  E. Neuscamman,  C. M. Oana,  R. Olivares-Amaya,  R. Olson,  
 T. M. Perrine,  B. Peters,  P. A. Pieniazek,  A. Prociuk,  Y. M. Rhee,  
 J. Ritchie,  M. A. Rohrdanz,  E. Rosta,  N. J. Russ,  H. F. Schaefer III,  
 M. W. Schmidt,  N. E. Schultz,  S. Sharma,  N. Shenvi,  C. D. Sherrill,  
 A. C. Simmonett,  A. Sodt,  T. Stein,  D. Stuck,  K. S. Thanthiriwatte,  
 V. Vanovschi,  L. Vogt,  Tao Wang,  A. Warshel,  M. A. Watson,  
 C. F. Williams,  Q. Wu,  X. Xu,  Jun Yang,  W. Zhang,  Yan Zhao

 Please cite Q-Chem as follows:
 Y. Shao et al., Mol. Phys. 113, 184-215 (2015)
 DOI: 10.1080/00268976.2014.952696

 Q-Chem 5.4.0 for Intel X86 EM64T Linux

 Parts of Q-Chem use Armadillo 9.800.1 (Horizon Scraper).
 http://arma.sourceforge.net/

 Q-Chem begins on Sun Sep 24 15:59:32 2023  

 Host: 
0

     Scratch files written to ./qchem3835435//
 May1621 |scratch|qcdevops|jenkins|workspace|build_RNUM    
 Parallel job on  1  processors
 Processing $rem in /cm/shared/apps/spack/cpu/opt/spack/linux-centos8-zen2/gcc-10.2.0/qchem-5.4-akfmr7b3t57bfs6qan3padb2wnb2i7cl/config/preferences:
 Processing $rem in /home/rramji/.qchemrc:
 Symmetry turned off for PCM/SM12/SMD calculation
 Core orbitals will be frozen

 Checking the input file for inconsistencies... 	...done.

 Q-Chem warning in module forms1/BasisType.C, line 2236:

 You are not using the predefined 5D/6D in this basis set.


--------------------------------------------------------------
User input:
--------------------------------------------------------------
$molecule
0 1
C	0.253280	-6.741404	0.043160
C	1.539213	-6.155638	0.269777
C	-0.814295	-5.791452	-0.145543
C	1.813519	-4.803786	0.318377
H	2.403941	-6.821518	0.422058
C	-0.527140	-4.378638	-0.094194
C	0.783072	-3.838032	0.137191
C	-1.556403	-3.413062	-0.275104
C	1.067932	-2.426473	0.188116
C	-1.285420	-2.059348	-0.226701
C	0.000000	-1.478216	0.000000
H	-2.151147	-1.394783	-0.378931
C	-2.234582	-6.187987	-0.397845
C	-2.965273	-3.798164	-0.523637
N	-3.204744	-5.170003	-0.567586
C	3.226257	-4.424987	0.567421
C	2.489446	-2.036627	0.439541
N	3.459801	-3.049156	0.609650
O	-2.619468	-7.353131	-0.468608
O	-3.874668	-2.986854	-0.683034
O	4.124806	-5.248946	0.725131
O	2.895819	-0.878829	0.512648
C	-4.595691	-5.563799	-0.813908
H	-4.640022	-6.664085	-0.822891
H	-4.934830	-5.147101	-1.781600
H	-5.246157	-5.148785	-0.020360
C	4.829716	-2.587487	0.851649
H	5.462742	-3.483329	0.962191
H	4.863242	-1.964972	1.765865
H	5.173521	-1.962932	0.005383
C	0.000000	0.000000	0.000000
S	0.137535	0.781156	1.580530
C	0.421895	2.393994	0.904911
C	0.173134	0.982857	-0.985400
C	0.402294	2.283058	-0.493528
H	0.132237	0.750786	-2.059934
H	0.555196	3.150621	-1.152593
H	0.574741	3.261310	1.556025
H	-0.008120	-7.361589	0.909181
H	0.304668	-7.361192	-0.860264
H	-0.188062	-1.478831	1.063500
$end

$rem
JOBTYPE		SP
EXCHANGE	HF
CORRELATION	pRIMP2
BASIS		cc-pvtz
METHOD		rimp2
AUX_BASIS	rimp2-cc-pvtz
SOLVENT_METHOD	PCM
PURECART	11111
SYMMETRY	false
MEM_TOTAL	110000
SCF_CONVERGENCE = 6
THRESH=10
GUI = 2
$end



$solvent
dielectric 4.90
$end
--------------------------------------------------------------
 ----------------------------------------------------------------
             Standard Nuclear Orientation (Angstroms)
    I     Atom           X                Y                Z
 ----------------------------------------------------------------
    1      C       0.2532800000    -6.7414040000     0.0431600000
    2      C       1.5392130000    -6.1556380000     0.2697770000
    3      C      -0.8142950000    -5.7914520000    -0.1455430000
    4      C       1.8135190000    -4.8037860000     0.3183770000
    5      H       2.4039410000    -6.8215180000     0.4220580000
    6      C      -0.5271400000    -4.3786380000    -0.0941940000
    7      C       0.7830720000    -3.8380320000     0.1371910000
    8      C      -1.5564030000    -3.4130620000    -0.2751040000
    9      C       1.0679320000    -2.4264730000     0.1881160000
   10      C      -1.2854200000    -2.0593480000    -0.2267010000
   11      C       0.0000000000    -1.4782160000     0.0000000000
   12      H      -2.1511470000    -1.3947830000    -0.3789310000
   13      C      -2.2345820000    -6.1879870000    -0.3978450000
   14      C      -2.9652730000    -3.7981640000    -0.5236370000
   15      N      -3.2047440000    -5.1700030000    -0.5675860000
   16      C       3.2262570000    -4.4249870000     0.5674210000
   17      C       2.4894460000    -2.0366270000     0.4395410000
   18      N       3.4598010000    -3.0491560000     0.6096500000
   19      O      -2.6194680000    -7.3531310000    -0.4686080000
   20      O      -3.8746680000    -2.9868540000    -0.6830340000
   21      O       4.1248060000    -5.2489460000     0.7251310000
   22      O       2.8958190000    -0.8788290000     0.5126480000
   23      C      -4.5956910000    -5.5637990000    -0.8139080000
   24      H      -4.6400220000    -6.6640850000    -0.8228910000
   25      H      -4.9348300000    -5.1471010000    -1.7816000000
   26      H      -5.2461570000    -5.1487850000    -0.0203600000
   27      C       4.8297160000    -2.5874870000     0.8516490000
   28      H       5.4627420000    -3.4833290000     0.9621910000
   29      H       4.8632420000    -1.9649720000     1.7658650000
   30      H       5.1735210000    -1.9629320000     0.0053830000
   31      C       0.0000000000     0.0000000000     0.0000000000
   32      S       0.1375350000     0.7811560000     1.5805300000
   33      C       0.4218950000     2.3939940000     0.9049110000
   34      C       0.1731340000     0.9828570000    -0.9854000000
   35      C       0.4022940000     2.2830580000    -0.4935280000
   36      H       0.1322370000     0.7507860000    -2.0599340000
   37      H       0.5551960000     3.1506210000    -1.1525930000
   38      H       0.5747410000     3.2613100000     1.5560250000
   39      H      -0.0081200000    -7.3615890000     0.9091810000
   40      H       0.3046680000    -7.3611920000    -0.8602640000
   41      H      -0.1880620000    -1.4788310000     1.0635000000
 ----------------------------------------------------------------
 Nuclear Repulsion Energy =        2552.48568340 hartrees
 There are       98 alpha and       98 beta electrons
 Requested basis set is cc-pVTZ
 There are 356 shells and 1010 basis functions

 Total QAlloc Memory Limit 110000 MB
 Mega-Array Size       188 MB
 MEM_STATIC part       192 MB
 Discretize the solute cavity surface with Lebedev spheres
	Using 110 Lebedev grid points for each H atom
	Using 194 Lebedev grid points for other atoms
	Atomic van der Waals radii will be scaled by 1.20
 Remove points where switching function is < 1.0e-08
 Keep 2660 surface tesserae and discard 4118 interior tesserae
 Molecular Surface Area = 370.207 Angst**2
 Requested basis set is rimp2-cc-pVTZ
 There are 770 shells and 2648 basis functions
 A cutoff of  1.0D-10 yielded  34124 shell pairs
 There are    258464 function pairs (    334757 Cartesian)
 Smallest overlap matrix eigenvalue = 8.93E-06

 Q-Chem warning in module stvman/mkSTV.C, line 323:

 Overlap eigenvalue is smaller than square root of threshold
 Use THRESH >= 12 to get rid of this warning


 Scale SEOQF with 1.000000e-02/1.000000e-02/1.000000e-01

 Standard Electronic Orientation quadrupole field applied
 Nucleus-field energy     =     0.0000000163 hartrees
 Guess from superposition of atomic densities
 Warning:  Energy on first SCF cycle will be non-variational
 SAD guess density has 196.000000 electrons

 -----------------------------------------------------------------------
  General SCF calculation program by
  Eric Jon Sundstrom, Paul Horn, Yuezhi Mao, Dmitri Zuev, Alec White,
  David Stuck, Shaama M.S., Shane Yost, Joonho Lee, David Small,
  Daniel Levine, Susi Lehtola, Hugh Burton, Evgeny Epifanovsky,
  Bang C. Huynh
 -----------------------------------------------------------------------
 Hartree-Fock
 using 64 threads for integral computing
 -------------------------------------------------------
 OpenMP Integral computing Module                
 Release: version 1.0, May 2013, Q-Chem Inc. Pittsburgh 
 -------------------------------------------------------
 A restricted SCF calculation will be
 performed using DIIS
 SCF converges when DIIS error is below 1.0e-06
 ---------------------------------------
  Cycle       Energy         DIIS error
 ---------------------------------------
    1   -1583.1025131919      1.86e-02  
    2   -1571.1662136172      2.03e-03  
    3   -1571.5056681123      1.55e-03  
    4   -1571.7279307785      2.53e-04  
    5   -1571.7417237273      7.76e-05  
    6   -1571.7431302608      2.99e-05  
    7   -1571.7435439853      1.53e-05  
    8   -1571.7436557923      6.21e-06  
    9   -1571.7436747295      2.87e-06  
   10   -1571.7436785100      1.21e-06  
   11   -1571.7436796755      5.59e-07  Convergence criterion met
 ---------------------------------------
 SCF time:   CPU 7110.21s  wall 270.00s 

************** Final PCM Free Energy Summary **************
 G_electrostatic  =      -0.03081578 hartree =     -19.33719514 kcal/mol
 G_cavitation     =       0.00000000 hartree =       0.00000000 kcal/mol
 G_dispersion     =       0.00000000 hartree =       0.00000000 kcal/mol
 G_repulsion      =       0.00000000 hartree =       0.00000000 kcal/mol
 --------------------------------------------------
 Non-electrostatic Free Energy =       0.00000000 hartree =       0.00000000 kcal/mol
 Total                         =      -0.03081578 hartree =     -19.33719514 kcal/mol
 --------------------------------------------------
 SCF Energy (H0 + V/2)                       =   -1571.74367968 
 Solute Internal Energy (H0)                 =   -1571.71286389 
 Total Free Energy (H0 + V/2 + non-elec)     =   -1571.74367968 hartree
                                             = -986284.04498079 kcal/mol
***********************************************************

 SCF   energy in the final basis set =    -1571.7436796755
 Total energy in the final basis set =    -1571.7436796755


 --------------------------------------------------------------
  Generalized many-body perturbation theory program
  by Joonho Lee, Fazle Rob, Xintian Feng, Evgeny Epifanovsky

 No regularization used 
 (reg. param. = 0.0000e+00)
  (P|Q)^-1/2 Time:  CPU 250.34 s  wall 4.50 s

 In RI-MP2 calculation: 
 # of frozen core orbitals: 31

 Components of the RIMP2 correlation energy:
        aaaa    correlation energy =        -0.6147998984 a.u.
        abab    correlation energy =        -3.4253247508 a.u.
        bbbb    correlation energy =        -0.6147998984 a.u.
        non-Brillouin singles      =        -0.0000000000 a.u.
        total same-spin energy     =        -1.2295997967 a.u.
        total opposite-spin energy =        -3.4253247508 a.u.

 Total  RIMP2   correlation energy =        -4.6549245475 a.u.
        RIMP2         total energy =     -1576.3986042231 a.u.

 RI-MP2 Energy Time:  CPU 2123.25 s  wall 35.09 s
 
 --------------------------------------------------------------
 
                    Orbital Energies (a.u.)
 --------------------------------------------------------------
 
 Alpha MOs
 -- Occupied --
-91.9913 -20.5510 -20.5442 -20.5419 -20.5405 -15.6263 -15.6212 -11.3924
-11.3848 -11.3837 -11.3790 -11.3084 -11.3081 -11.3047 -11.3046 -11.2963
-11.2926 -11.2888 -11.2833 -11.2693 -11.2679 -11.2642 -11.2624 -11.2594
-11.2538 -11.2527 -11.2505  -8.9909  -6.6717  -6.6713  -6.6706  -1.4187
 -1.4122  -1.3966  -1.3914  -1.2615  -1.2554  -1.2296  -1.1864  -1.1524
 -1.1139  -1.0865  -1.0464  -0.9956  -0.9876  -0.9842  -0.9548  -0.9512
 -0.8958  -0.8869  -0.8765  -0.8599  -0.7929  -0.7759  -0.7739  -0.7681
 -0.7372  -0.7169  -0.7041  -0.6912  -0.6773  -0.6700  -0.6674  -0.6570
 -0.6468  -0.6402  -0.6379  -0.6320  -0.6308  -0.6268  -0.6227  -0.6049
 -0.5844  -0.5748  -0.5668  -0.5611  -0.5570  -0.5510  -0.5502  -0.5479
 -0.5457  -0.5434  -0.5193  -0.5165  -0.5087  -0.4807  -0.4741  -0.4683
 -0.4566  -0.4504  -0.4426  -0.4346  -0.4130  -0.4074  -0.3548  -0.3511
 -0.3277  -0.2909
 -- Virtual --
  0.0151   0.0434   0.0899   0.0921   0.1282   0.1494   0.1554   0.1604
  0.1637   0.1723   0.1811   0.1829   0.1865   0.1909   0.1934   0.2009
  0.2054   0.2186   0.2225   0.2286   0.2307   0.2326   0.2367   0.2475
  0.2668   0.2691   0.2925   0.3039   0.3112   0.3143   0.3214   0.3248
  0.3270   0.3386   0.3427   0.3528   0.3548   0.3607   0.3637   0.3711
  0.3721   0.3774   0.3823   0.3843   0.3878   0.3912   0.3990   0.4026
  0.4141   0.4196   0.4265   0.4320   0.4333   0.4411   0.4442   0.4493
  0.4525   0.4554   0.4570   0.4680   0.4720   0.4824   0.4847   0.4941
  0.4970   0.5011   0.5081   0.5144   0.5157   0.5211   0.5264   0.5307
  0.5330   0.5363   0.5452   0.5472   0.5537   0.5551   0.5616   0.5644
  0.5665   0.5730   0.5748   0.5831   0.5892   0.5898   0.5943   0.6003
  0.6018   0.6060   0.6078   0.6095   0.6141   0.6202   0.6217   0.6253
  0.6288   0.6318   0.6354   0.6356   0.6386   0.6435   0.6462   0.6545
  0.6586   0.6604   0.6751   0.6795   0.6846   0.6883   0.6945   0.6999
  0.7040   0.7103   0.7181   0.7240   0.7344   0.7380   0.7464   0.7533
  0.7609   0.7660   0.7741   0.7758   0.7783   0.7861   0.7895   0.7973
  0.8006   0.8117   0.8157   0.8192   0.8246   0.8324   0.8424   0.8467
  0.8515   0.8528   0.8581   0.8620   0.8678   0.8703   0.8736   0.8826
  0.8973   0.8981   0.9062   0.9099   0.9130   0.9191   0.9242   0.9286
  0.9355   0.9401   0.9489   0.9535   0.9552   0.9600   0.9717   0.9765
  0.9809   0.9855   0.9905   0.9926   1.0021   1.0060   1.0118   1.0167
  1.0226   1.0271   1.0355   1.0361   1.0428   1.0530   1.0597   1.0604
  1.0653   1.0693   1.0705   1.0766   1.0822   1.0921   1.0954   1.0994
  1.1099   1.1150   1.1187   1.1296   1.1316   1.1340   1.1417   1.1454
  1.1497   1.1520   1.1617   1.1628   1.1639   1.1725   1.1730   1.1840
  1.1859   1.2000   1.2027   1.2060   1.2117   1.2164   1.2209   1.2236
  1.2282   1.2360   1.2399   1.2516   1.2528   1.2557   1.2665   1.2708
  1.2821   1.2896   1.2947   1.3060   1.3091   1.3261   1.3266   1.3328
  1.3438   1.3494   1.3549   1.3596   1.3665   1.3740   1.3802   1.3874
  1.3891   1.3905   1.3971   1.4106   1.4129   1.4206   1.4294   1.4367
  1.4465   1.4503   1.4647   1.4683   1.4821   1.4857   1.4922   1.4986
  1.4995   1.5025   1.5059   1.5164   1.5240   1.5254   1.5320   1.5391
  1.5446   1.5470   1.5547   1.5572   1.5641   1.5675   1.5713   1.5762
  1.5785   1.5881   1.6071   1.6092   1.6136   1.6235   1.6300   1.6407
  1.6506   1.6538   1.6691   1.6717   1.6782   1.6829   1.6891   1.6915
  1.7056   1.7176   1.7265   1.7303   1.7394   1.7468   1.7498   1.7545
  1.7560   1.7641   1.7709   1.7800   1.7826   1.7894   1.8059   1.8115
  1.8140   1.8270   1.8317   1.8472   1.8496   1.8611   1.8677   1.8736
  1.8772   1.8788   1.8842   1.8995   1.9075   1.9121   1.9246   1.9426
  1.9563   1.9629   1.9734   1.9763   1.9895   1.9931   2.0064   2.0131
  2.0294   2.0338   2.0476   2.0565   2.0900   2.1053   2.1100   2.1141
  2.1353   2.1444   2.1565   2.1629   2.1760   2.1978   2.2061   2.2205
  2.2246   2.2401   2.2441   2.2715   2.2847   2.2939   2.2957   2.3017
  2.3128   2.3182   2.3321   2.3345   2.3651   2.3671   2.3843   2.3861
  2.3947   2.4172   2.4312   2.4399   2.4503   2.4573   2.4588   2.4706
  2.4740   2.4810   2.4922   2.5006   2.5060   2.5278   2.5356   2.5412
  2.5562   2.5625   2.5724   2.5847   2.5892   2.5989   2.6064   2.6170
  2.6202   2.6298   2.6378   2.6421   2.6486   2.6587   2.6717   2.6791
  2.6804   2.6876   2.6931   2.7034   2.7185   2.7228   2.7253   2.7364
  2.7390   2.7447   2.7559   2.7601   2.7696   2.7723   2.7898   2.7993
  2.8082   2.8185   2.8355   2.8400   2.8500   2.8520   2.8565   2.8647
  2.8750   2.8781   2.8855   2.8918   2.8937   2.9080   2.9103   2.9178
  2.9218   2.9257   2.9304   2.9568   2.9586   2.9603   2.9645   2.9725
  2.9783   2.9808   2.9918   2.9956   3.0092   3.0173   3.0210   3.0286
  3.0317   3.0406   3.0462   3.0549   3.0593   3.0720   3.0780   3.0935
  3.0982   3.1010   3.1054   3.1077   3.1092   3.1186   3.1194   3.1339
  3.1351   3.1402   3.1490   3.1530   3.1585   3.1612   3.1637   3.1720
  3.1821   3.1947   3.1966   3.2025   3.2113   3.2130   3.2205   3.2215
  3.2271   3.2305   3.2357   3.2500   3.2526   3.2579   3.2584   3.2686
  3.2698   3.2726   3.2761   3.2850   3.2955   3.3000   3.3020   3.3062
  3.3115   3.3121   3.3199   3.3256   3.3269   3.3336   3.3376   3.3395
  3.3454   3.3472   3.3505   3.3555   3.3570   3.3669   3.3730   3.3764
  3.3788   3.3839   3.3881   3.3930   3.3969   3.3995   3.4052   3.4064
  3.4100   3.4172   3.4212   3.4317   3.4350   3.4401   3.4459   3.4510
  3.4533   3.4599   3.4646   3.4678   3.4740   3.4810   3.4857   3.4917
  3.4921   3.5027   3.5038   3.5091   3.5125   3.5156   3.5212   3.5281
  3.5330   3.5353   3.5410   3.5477   3.5546   3.5636   3.5655   3.5758
  3.5860   3.5953   3.6002   3.6009   3.6060   3.6174   3.6242   3.6256
  3.6272   3.6346   3.6406   3.6438   3.6484   3.6538   3.6560   3.6580
  3.6646   3.6764   3.6794   3.6846   3.6962   3.7030   3.7057   3.7063
  3.7178   3.7281   3.7350   3.7360   3.7375   3.7418   3.7473   3.7529
  3.7615   3.7642   3.7684   3.7733   3.7759   3.7831   3.7886   3.7964
  3.8069   3.8112   3.8144   3.8180   3.8282   3.8380   3.8424   3.8435
  3.8487   3.8531   3.8599   3.8660   3.8842   3.8895   3.8915   3.9041
  3.9055   3.9155   3.9194   3.9328   3.9365   3.9457   3.9465   3.9528
  3.9574   3.9631   3.9676   3.9738   3.9817   3.9855   3.9930   4.0128
  4.0180   4.0223   4.0281   4.0360   4.0531   4.0576   4.0720   4.0810
  4.0910   4.1002   4.1105   4.1195   4.1235   4.1309   4.1405   4.1418
  4.1443   4.1493   4.1662   4.1690   4.1765   4.1826   4.1979   4.2070
  4.2157   4.2173   4.2214   4.2331   4.2413   4.2479   4.2529   4.2601
  4.2690   4.2711   4.2760   4.2870   4.2903   4.2941   4.2975   4.3030
  4.3083   4.3187   4.3212   4.3284   4.3399   4.3409   4.3500   4.3506
  4.3619   4.3690   4.3695   4.3706   4.3748   4.3811   4.3861   4.3958
  4.3979   4.4060   4.4113   4.4220   4.4287   4.4415   4.4462   4.4590
  4.4678   4.4816   4.4853   4.4963   4.5026   4.5187   4.5215   4.5299
  4.5369   4.5411   4.5463   4.5515   4.5551   4.5696   4.5792   4.5840
  4.5906   4.5941   4.5979   4.6098   4.6151   4.6219   4.6244   4.6414
  4.6419   4.6460   4.6668   4.6730   4.6828   4.6958   4.7019   4.7049
  4.7096   4.7275   4.7385   4.7482   4.7650   4.7787   4.7920   4.8027
  4.8116   4.8246   4.8354   4.8464   4.8533   4.8635   4.8690   4.8804
  4.8892   4.8961   4.9090   4.9245   4.9298   4.9412   4.9541   4.9707
  4.9922   4.9968   5.0145   5.0296   5.0369   5.0478   5.0521   5.0610
  5.0744   5.0858   5.1026   5.1103   5.1218   5.1240   5.1301   5.1407
  5.1443   5.1547   5.1711   5.1763   5.1924   5.1972   5.2236   5.2272
  5.2631   5.2674   5.2729   5.2854   5.2864   5.2995   5.3224   5.3283
  5.3309   5.3450   5.3479   5.3661   5.3777   5.3871   5.4032   5.4165
  5.4384   5.4461   5.4710   5.4866   5.4924   5.5011   5.5139   5.5155
  5.5191   5.5387   5.5455   5.5493   5.5578   5.5597   5.5671   5.5711
  5.5804   5.5862   5.5894   5.6020   5.6093   5.6140   5.6218   5.6312
  5.6487   5.6557   5.6615   5.6664   5.6694   5.6743   5.6923   5.6949
  5.6978   5.7069   5.7246   5.7431   5.7538   5.7648   5.7674   5.7762
  5.7852   5.7879   5.8018   5.8311   5.8418   5.8521   5.8774   5.9062
  5.9280   5.9560   5.9607   5.9885   6.0082   6.0184   6.0322   6.0416
  6.0469   6.0813   6.0895   6.1118   6.1234   6.1322   6.1444   6.1866
  6.2007   6.2197   6.2255   6.2263   6.2419   6.2620   6.2667   6.2832
  6.3092   6.3144   6.3235   6.3487   6.3660   6.3854   6.4339   6.4843
  6.5179   6.5325   6.5756   6.5827   6.6035   6.6177   6.6597   6.6651
  6.6735   6.6889   6.8454   6.8498   6.8878   6.9011   6.9047   6.9214
  6.9263   6.9312   7.1010   7.1088   7.1466   7.1927   7.1992   7.2352
  7.3475   7.3520   7.3570   7.3606   7.4757   7.5435   7.5699   7.5828
  7.5868   7.5954   7.6534   7.6736   7.6914   7.7131   8.8332  10.0459
 10.2993  11.3205  11.5029  11.7462  12.0473  12.0796  12.4174  12.4545
 12.8716  13.1863  13.3272  13.5505  13.7468  13.9263  14.1228  14.2625
 14.3111  14.3599  14.4853  14.5439  15.0213  15.6039  15.8189  16.3303
 --------------------------------------------------------------
 
          Ground-State Mulliken Net Atomic Charges

     Atom                 Charge (a.u.)
  ----------------------------------------
      1 C                    -0.084470
      2 C                    -0.030717
      3 C                    -0.110399
      4 C                    -0.121469
      5 H                     0.198517
      6 C                     0.008899
      7 C                     0.121077
      8 C                    -0.086155
      9 C                    -0.174953
     10 C                    -0.136352
     11 C                     0.251685
     12 H                     0.190342
     13 C                     0.343545
     14 C                     0.351890
     15 N                    -0.090341
     16 C                     0.356952
     17 C                     0.359131
     18 N                    -0.091174
     19 O                    -0.493973
     20 O                    -0.507255
     21 O                    -0.501846
     22 O                    -0.471148
     23 C                    -0.204719
     24 H                     0.139473
     25 H                     0.109057
     26 H                     0.109176
     27 C                    -0.197339
     28 H                     0.132991
     29 H                     0.111511
     30 H                     0.111554
     31 C                    -0.072123
     32 S                     0.014590
     33 C                    -0.213479
     34 C                    -0.176886
     35 C                    -0.199683
     36 H                     0.188851
     37 H                     0.191197
     38 H                     0.212430
     39 H                     0.137633
     40 H                     0.137721
     41 H                     0.186260
  ----------------------------------------
  Sum of atomic charges =     0.000000

 -----------------------------------------------------------------
                    Cartesian Multipole Moments
 -----------------------------------------------------------------
    Charge (ESU x 10^10)
                 0.0000
    Dipole Moment (Debye)
         X       1.1615      Y       2.3709      Z      -0.0615
       Tot       2.6408
    Quadrupole Moments (Debye-Ang)
        XX    -194.7670     XY      -6.2606     YY    -177.6966
        XZ      -5.3819     YZ      -1.9577     ZZ    -157.1215
    Octopole Moments (Debye-Ang^2)
       XXX     -74.1992    XXY     592.5694    XYY      42.9316
       YYY    1688.9973    XXZ     -20.6795    XYZ      25.1099
       YYZ       0.0578    XZZ     -21.4395    YZZ     475.9588
       ZZZ     -63.0449
    Hexadecapole Moments (Debye-Ang^3)
      XXXX   -6192.8796   XXXY    -100.1151   XXYY   -4442.7790
      XYYY   -1170.1505   YYYY  -18047.1319   XXXZ    -572.3867
      XXYZ      17.7806   XYYZ    -316.8840   YYYZ    -236.7858
      XXZZ   -1088.4600   XYZZ    -122.0873   YYZZ   -2704.2397
      XZZZ    -500.3751   YZZZ    -107.7485   ZZZZ    -640.4708
 -----------------------------------------------------------------
 Total job time:  310.41s(wall), 9367.38s(cpu) 
 Sun Sep 24 16:04:42 2023

        *************************************************************
        *                                                           *
        *  Thank you very much for using Q-Chem.  Have a nice day.  *
        *                                                           *
        *************************************************************


0 sent ACK to 0 
now end server 0 ... 
cleanup process ... done
remove work dirs ./qchem3835435.0 -- ./qchem3835435.0
rm -rf ./qchem3835435.0
rm -rf ./qchem3835435
