You are running Q-Chem version: 5.4.0

#
# job setting
#
local host:  exp-4-53
current dir: /expanse/lustre/projects/csd626/rramji/aromodel/PNDIT/Hydrogenated_Rotation_Test
input file:  Dimethyl_Naphthalene_Dicarboximide_Phi_15_Theta_100_Thiophene_Hydrogenated.qcin
output file: 
nprocs     : 1
nthreads   : 64
#
# qchem installation setting
#
QC:          /cm/shared/apps/spack/cpu/opt/spack/linux-centos8-zen2/gcc-10.2.0/qchem-5.4-akfmr7b3t57bfs6qan3padb2wnb2i7cl
QCAUX:       /cm/shared/apps/spack/cpu/opt/spack/linux-centos8-zen2/gcc-10.2.0/qchem-5.4-akfmr7b3t57bfs6qan3padb2wnb2i7cl/qcaux
QCPROG:      /cm/shared/apps/spack/cpu/opt/spack/linux-centos8-zen2/gcc-10.2.0/qchem-5.4-akfmr7b3t57bfs6qan3padb2wnb2i7cl/exe/qcprog.exe
QCPROG_S:    /cm/shared/apps/spack/cpu/opt/spack/linux-centos8-zen2/gcc-10.2.0/qchem-5.4-akfmr7b3t57bfs6qan3padb2wnb2i7cl/exe/qcprog.exe_s
PARALLEL:    -DPARALLEL
QCMPI:       mpich
#
# qchem directory setting
#
qcrun:       qchem1594246
QCSCRATCH:   .
QCLOCALSCR:  
QCTMPDIR:    .
QCFILEPREF:  ./qchem1594246
QCSAVEDIR:   
workdirs:    ./qchem1594246
workdir0:    ./qchem1594246
partmpdirs =  
#
# parallel setting
#
QCRSH:           ssh
QCMPI:           mpich
QCMPIRUN:        /cm/shared/apps/spack/cpu/opt/spack/linux-centos8-zen2/gcc-10.2.0/qchem-5.4-akfmr7b3t57bfs6qan3padb2wnb2i7cl/bin/mpi/mpirun_qchem
QCMACHINEFILE:   ./qchem1594246/hostfile
exp-4-53

#
# env setting
#
exported envs:   QC QCAUX QCSCRATCH QCRUNNAME QCFILEPREF QCPROG QCPROG_S GUIFILE

Running Job 1 of 1 Dimethyl_Naphthalene_Dicarboximide_Phi_15_Theta_100_Thiophene_Hydrogenated.qcin
qchem Dimethyl_Naphthalene_Dicarboximide_Phi_15_Theta_100_Thiophene_Hydrogenated.qcin_1594246.0 ./qchem1594246/ 1
/cm/shared/apps/spack/cpu/opt/spack/linux-centos8-zen2/gcc-10.2.0/qchem-5.4-akfmr7b3t57bfs6qan3padb2wnb2i7cl/bin/mpi/mpirun_qchem -machinefile ./qchem1594246/hostfile -np 1 /cm/shared/apps/spack/cpu/opt/spack/linux-centos8-zen2/gcc-10.2.0/qchem-5.4-akfmr7b3t57bfs6qan3padb2wnb2i7cl/exe/qcprog.exe Dimethyl_Naphthalene_Dicarboximide_Phi_15_Theta_100_Thiophene_Hydrogenated.qcin_1594246.0 ./qchem1594246/

Process 0 of 1 is on exp-4-53 - thread support 0
initial socket setup ...start
initial socket setup ...done 
now start server 0 ... 
                  Welcome to Q-Chem
     A Quantum Leap Into The Future Of Chemistry


 Q-Chem 5.4, Q-Chem, Inc., Pleasanton, CA (2021)

 License issued to: University of California, San Diego (site)

 E. Epifanovsky,  A. T. B. Gilbert,  Xintian Feng,  Joonho Lee,  Yuezhi Mao,  
 N. Mardirossian,  P. Pokhilko,  A. White,  M. Wormit,  M. P. Coons,  
 A. L. Dempwolff,  Zhengting Gan,  D. Hait,  P. R. Horn,  L. D. Jacobson,  
 I. Kaliman,  J. Kussmann,  A. W. Lange,  Ka Un Lao,  D. S. Levine,  Jie Liu,  
 S. C. McKenzie,  A. F. Morrison,  K. Nanda,  F. Plasser,  D. R. Rehn,  
 M. L. Vidal,  Zhi-Qiang You,  Ying Zhu,  B. Alam,  B. Albrecht,  
 A. Aldossary,  E. Alguire,  J. H. Andersen,  D. Barton,  K. Begam,  A. Behn,  
 Y. A. Bernard,  E. J. Berquist,  H. Burton,  A. Carreras,  K. Carter-Fenk,  
 R. Chakraborty,  A. D. Chien,  K. D. Closser,  V. Cofer-Shabica,  
 S. Dasgupta,  Jia Deng,  M. de Wergifosse,  M. Diedenhofen,  Hainam Do,  
 S. Ehlert,  Po-Tung Fang,  S. Fatehi,  Qingguo Feng,  J. Gayvert,  
 Qinghui Ge,  G. Gidofalvi,  M. Goldey,  J. Gomes,  C. Gonzalez-Espinoza,  
 S. Gulania,  A. Gunina,  M. W. D. Hanson-Heine,  P. H. P. Harbach,  
 A. W. Hauser,  M. F. Herbst,  M. Hernandez Vera,  M. Hodecker,  
 Z. C. Holden,  S. Houck,  Xunkun Huang,  Kerwin Hui,  B. C. Huynh,  
 M. Ivanov,  Hyunjun Ji,  Hanjie Jiang,  B. Kaduk,  S. Kaehler,  
 K. Khistyaev,  Jaehoon Kim,  P. Klunzinger,  Z. Koczor-Benda,  
 Joong Hoon Koh,  D. Kosenkov,  L. Koulias,  T. Kowalczyk,  C. M. Krauter,  
 K. Kue,  A. Kunitsa,  T. Kus,  A. Landau,  K. V. Lawler,  D. Lefrancois,  
 S. Lehtola,  Rain Li,  Yi-Pei Li,  Jiashu Liang,  M. Liebenthal,  
 Hung-Hsuan Lin,  You-Sheng Lin,  Fenglai Liu,  Kuan-Yu Liu,  
 M. Loipersberger,  A. Luenser,  A. Manjanath,  P. Manohar,  E. Mansoor,  
 S. F. Manzer,  Shan-Ping Mao,  A. V. Marenich,  T. Markovich,  S. Mason,  
 S. A. Maurer,  P. F. McLaughlin,  M. F. S. J. Menger,  J.-M. Mewes,  
 S. A. Mewes,  P. Morgante,  J. W. Mullinax,  T. S. Nguyen-Beck,  
 K. J. Oosterbaan,  G. Paran,  Alexander C. Paul,  Suranjan K. Paul,  
 F. Pavosevic,  Zheng Pei,  S. Prager,  E. I. Proynov,  E. Ramos,  B. Rana,  
 A. E. Rask,  A. Rettig,  R. M. Richard,  F. Rob,  E. Rossomme,  T. Scheele,  
 M. Scheurer,  M. Schneider,  N. Sergueev,  S. M. Sharada,  W. Skomorowski,  
 D. W. Small,  C. J. Stein,  Yu-Chuan Su,  E. J. Sundstrom,  Zhen Tao,  
 J. Thirman,  T. Tsuchimochi,  N. M. Tubman,  S. P. Veccham,  O. Vydrov,  
 J. Wenzel,  J. Witte,  A. Yamada,  Kun Yao,  S. Yeganeh,  S. R. Yost,  
 A. Zech,  Igor Ying Zhang,  Xing Zhang,  Yu Zhang,  D. Zuev,  
 A. Aspuru-Guzik,  A. T. Bell,  N. A. Besley,  K. B. Bravaya,  B. R. Brooks,  
 D. Casanova,  Jeng-Da Chai,  S. Coriani,  C. J. Cramer,  
 A. E. DePrince, III,  R. A. DiStasio Jr.,  A. Dreuw,  B. D. Dunietz,  
 T. R. Furlani,  W. A. Goddard III,  S. Grimme,  S. Hammes-Schiffer,  
 T. Head-Gordon,  W. J. Hehre,  Chao-Ping Hsu,  T.-C. Jagau,  Yousung Jung,  
 A. Klamt,  Jing Kong,  D. S. Lambrecht,  WanZhen Liang,  N. J. Mayhall,  
 C. W. McCurdy,  J. B. Neaton,  C. Ochsenfeld,  J. A. Parkhill,  R. Peverati,  
 V. A. Rassolov,  Yihan Shao,  L. V. Slipchenko,  T. Stauch,  R. P. Steele,  
 J. E. Subotnik,  A. J. W. Thom,  A. Tkatchenko,  D. G. Truhlar,  
 T. Van Voorhis,  T. A. Wesolowski,  K. B. Whaley,  H. L. Woodcock III,  
 P. M. Zimmerman,  S. Faraji,  P. M. W. Gill,  M. Head-Gordon,  
 J. M. Herbert,  A. I. Krylov

 Contributors to earlier versions of Q-Chem not listed above: 
 R. D. Adamson,  B. Austin,  R. Baer,  J. Baker,  G. J. O. Beran,  
 K. Brandhorst,  S. T. Brown,  E. F. C. Byrd,  A. K. Chakraborty,  
 G. K. L. Chan,  Chun-Min Chang,  Yunqing Chen,  C.-L. Cheng,  
 Siu Hung Chien,  D. M. Chipman,  D. L. Crittenden,  H. Dachsel,  
 R. J. Doerksen,  A. D. Dutoi,  R. G. Edgar,  J. Fosso-Tande,  
 L. Fusti-Molnar,  D. Ghosh,  A. Ghysels,  A. Golubeva-Zadorozhnaya,  
 J. Gonthier,  M. S. Gordon,  S. R. Gwaltney,  G. Hawkins,  J. E. Herr,  
 A. Heyden,  S. Hirata,  E. G. Hohenstein,  G. Kedziora,  F. J. Keil,  
 C. Kelley,  Jihan Kim,  R. A. King,  R. Z. Khaliullin,  P. P. Korambath,  
 W. Kurlancheek,  A. Laurent,  A. M. Lee,  M. S. Lee,  S. V. Levchenko,  
 Ching Yeh Lin,  D. Liotard,  E. Livshits,  R. C. Lochan,  I. Lotan,  
 L. A. Martinez-Martinez,  P. E. Maslen,  N. Nair,  D. P. O'Neill,  
 D. Neuhauser,  E. Neuscamman,  C. M. Oana,  R. Olivares-Amaya,  R. Olson,  
 T. M. Perrine,  B. Peters,  P. A. Pieniazek,  A. Prociuk,  Y. M. Rhee,  
 J. Ritchie,  M. A. Rohrdanz,  E. Rosta,  N. J. Russ,  H. F. Schaefer III,  
 M. W. Schmidt,  N. E. Schultz,  S. Sharma,  N. Shenvi,  C. D. Sherrill,  
 A. C. Simmonett,  A. Sodt,  T. Stein,  D. Stuck,  K. S. Thanthiriwatte,  
 V. Vanovschi,  L. Vogt,  Tao Wang,  A. Warshel,  M. A. Watson,  
 C. F. Williams,  Q. Wu,  X. Xu,  Jun Yang,  W. Zhang,  Yan Zhao

 Please cite Q-Chem as follows:
 Y. Shao et al., Mol. Phys. 113, 184-215 (2015)
 DOI: 10.1080/00268976.2014.952696

 Q-Chem 5.4.0 for Intel X86 EM64T Linux

 Parts of Q-Chem use Armadillo 9.800.1 (Horizon Scraper).
 http://arma.sourceforge.net/

 Q-Chem begins on Tue Sep 26 22:44:12 2023  

 Host: 
0

     Scratch files written to ./qchem1594246//
 May1621 |scratch|qcdevops|jenkins|workspace|build_RNUM    
 Parallel job on  1  processors
 Processing $rem in /cm/shared/apps/spack/cpu/opt/spack/linux-centos8-zen2/gcc-10.2.0/qchem-5.4-akfmr7b3t57bfs6qan3padb2wnb2i7cl/config/preferences:
 Processing $rem in /home/rramji/.qchemrc:
 Symmetry turned off for PCM/SM12/SMD calculation
 Core orbitals will be frozen

 Checking the input file for inconsistencies... 	...done.

 Q-Chem warning in module forms1/BasisType.C, line 2236:

 You are not using the predefined 5D/6D in this basis set.


--------------------------------------------------------------
User input:
--------------------------------------------------------------
$molecule
0 1
C	0.253280	-6.741404	0.043160
C	1.539213	-6.155638	0.269777
C	-0.814295	-5.791452	-0.145543
C	1.813519	-4.803786	0.318377
H	2.403941	-6.821518	0.422058
C	-0.527140	-4.378638	-0.094194
C	0.783072	-3.838032	0.137191
C	-1.556403	-3.413062	-0.275104
C	1.067932	-2.426473	0.188116
C	-1.285420	-2.059348	-0.226701
C	0.000000	-1.478216	0.000000
H	-2.151147	-1.394783	-0.378931
C	-2.234582	-6.187987	-0.397845
C	-2.965273	-3.798164	-0.523637
N	-3.204744	-5.170003	-0.567586
C	3.226257	-4.424987	0.567421
C	2.489446	-2.036627	0.439541
N	3.459801	-3.049156	0.609650
O	-2.619468	-7.353131	-0.468608
O	-3.874668	-2.986854	-0.683034
O	4.124806	-5.248946	0.725131
O	2.895819	-0.878829	0.512648
C	-4.595691	-5.563799	-0.813908
H	-4.640022	-6.664085	-0.822891
H	-4.934830	-5.147101	-1.781600
H	-5.246157	-5.148785	-0.020360
C	4.829716	-2.587487	0.851649
H	5.462742	-3.483329	0.962191
H	4.863242	-1.964972	1.765865
H	5.173521	-1.962932	0.005383
C	0.000000	0.000000	0.000000
S	0.205093	0.766196	1.580530
C	0.628939	2.348114	0.904911
C	0.258137	0.964028	-0.985400
C	0.599745	2.239309	-0.493528
H	0.197169	0.736404	-2.059934
H	0.827678	3.090243	-1.152593
H	0.856796	3.198808	1.556025
H	-0.008120	-7.361589	0.909181
H	0.304668	-7.361192	-0.860264
H	-0.188062	-1.478831	1.063500
$end

$rem
JOBTYPE		SP
EXCHANGE	HF
CORRELATION	pRIMP2
BASIS		cc-pvtz
METHOD		rimp2
AUX_BASIS	rimp2-cc-pvtz
SOLVENT_METHOD	PCM
PURECART	11111
SYMMETRY	false
MEM_TOTAL	110000
SCF_CONVERGENCE = 6
THRESH=10
GUI = 2
$end



$solvent
dielectric 4.90
$end
--------------------------------------------------------------
 ----------------------------------------------------------------
             Standard Nuclear Orientation (Angstroms)
    I     Atom           X                Y                Z
 ----------------------------------------------------------------
    1      C       0.2532800000    -6.7414040000     0.0431600000
    2      C       1.5392130000    -6.1556380000     0.2697770000
    3      C      -0.8142950000    -5.7914520000    -0.1455430000
    4      C       1.8135190000    -4.8037860000     0.3183770000
    5      H       2.4039410000    -6.8215180000     0.4220580000
    6      C      -0.5271400000    -4.3786380000    -0.0941940000
    7      C       0.7830720000    -3.8380320000     0.1371910000
    8      C      -1.5564030000    -3.4130620000    -0.2751040000
    9      C       1.0679320000    -2.4264730000     0.1881160000
   10      C      -1.2854200000    -2.0593480000    -0.2267010000
   11      C       0.0000000000    -1.4782160000     0.0000000000
   12      H      -2.1511470000    -1.3947830000    -0.3789310000
   13      C      -2.2345820000    -6.1879870000    -0.3978450000
   14      C      -2.9652730000    -3.7981640000    -0.5236370000
   15      N      -3.2047440000    -5.1700030000    -0.5675860000
   16      C       3.2262570000    -4.4249870000     0.5674210000
   17      C       2.4894460000    -2.0366270000     0.4395410000
   18      N       3.4598010000    -3.0491560000     0.6096500000
   19      O      -2.6194680000    -7.3531310000    -0.4686080000
   20      O      -3.8746680000    -2.9868540000    -0.6830340000
   21      O       4.1248060000    -5.2489460000     0.7251310000
   22      O       2.8958190000    -0.8788290000     0.5126480000
   23      C      -4.5956910000    -5.5637990000    -0.8139080000
   24      H      -4.6400220000    -6.6640850000    -0.8228910000
   25      H      -4.9348300000    -5.1471010000    -1.7816000000
   26      H      -5.2461570000    -5.1487850000    -0.0203600000
   27      C       4.8297160000    -2.5874870000     0.8516490000
   28      H       5.4627420000    -3.4833290000     0.9621910000
   29      H       4.8632420000    -1.9649720000     1.7658650000
   30      H       5.1735210000    -1.9629320000     0.0053830000
   31      C       0.0000000000     0.0000000000     0.0000000000
   32      S       0.2050930000     0.7661960000     1.5805300000
   33      C       0.6289390000     2.3481140000     0.9049110000
   34      C       0.2581370000     0.9640280000    -0.9854000000
   35      C       0.5997450000     2.2393090000    -0.4935280000
   36      H       0.1971690000     0.7364040000    -2.0599340000
   37      H       0.8276780000     3.0902430000    -1.1525930000
   38      H       0.8567960000     3.1988080000     1.5560250000
   39      H      -0.0081200000    -7.3615890000     0.9091810000
   40      H       0.3046680000    -7.3611920000    -0.8602640000
   41      H      -0.1880620000    -1.4788310000     1.0635000000
 ----------------------------------------------------------------
 Nuclear Repulsion Energy =        2555.31896583 hartrees
 There are       98 alpha and       98 beta electrons
 Requested basis set is cc-pVTZ
 There are 356 shells and 1010 basis functions

 Total QAlloc Memory Limit 110000 MB
 Mega-Array Size       188 MB
 MEM_STATIC part       192 MB
 Discretize the solute cavity surface with Lebedev spheres
	Using 110 Lebedev grid points for each H atom
	Using 194 Lebedev grid points for other atoms
	Atomic van der Waals radii will be scaled by 1.20
 Remove points where switching function is < 1.0e-08
 Keep 2651 surface tesserae and discard 4127 interior tesserae
 Molecular Surface Area = 369.360 Angst**2
 Requested basis set is rimp2-cc-pVTZ
 There are 770 shells and 2648 basis functions
 A cutoff of  1.0D-10 yielded  34203 shell pairs
 There are    258881 function pairs (    335228 Cartesian)
 Smallest overlap matrix eigenvalue = 8.92E-06

 Q-Chem warning in module stvman/mkSTV.C, line 323:

 Overlap eigenvalue is smaller than square root of threshold
 Use THRESH >= 12 to get rid of this warning


 Scale SEOQF with 1.000000e-02/1.000000e-02/1.000000e-01

 Standard Electronic Orientation quadrupole field applied
 Nucleus-field energy     =     0.0000000163 hartrees
 Guess from superposition of atomic densities
 Warning:  Energy on first SCF cycle will be non-variational
 SAD guess density has 196.000000 electrons

 -----------------------------------------------------------------------
  General SCF calculation program by
  Eric Jon Sundstrom, Paul Horn, Yuezhi Mao, Dmitri Zuev, Alec White,
  David Stuck, Shaama M.S., Shane Yost, Joonho Lee, David Small,
  Daniel Levine, Susi Lehtola, Hugh Burton, Evgeny Epifanovsky,
  Bang C. Huynh
 -----------------------------------------------------------------------
 Hartree-Fock
 using 64 threads for integral computing
 -------------------------------------------------------
 OpenMP Integral computing Module                
 Release: version 1.0, May 2013, Q-Chem Inc. Pittsburgh 
 -------------------------------------------------------
 A restricted SCF calculation will be
 performed using DIIS
 SCF converges when DIIS error is below 1.0e-06
 ---------------------------------------
  Cycle       Energy         DIIS error
 ---------------------------------------
    1   -1583.1060513544      1.86e-02  
    2   -1571.1637958692      2.03e-03  
    3   -1571.5030912395      1.55e-03  
    4   -1571.7251569831      2.53e-04  
    5   -1571.7389649250      7.77e-05  
    6   -1571.7403753865      3.00e-05  
    7   -1571.7407912449      1.54e-05  
    8   -1571.7409038002      6.24e-06  
    9   -1571.7409229154      2.88e-06  
   10   -1571.7409267559      1.22e-06  
   11   -1571.7409279250      5.59e-07  Convergence criterion met
 ---------------------------------------
 SCF time:   CPU 6727.65s  wall 261.00s 

************** Final PCM Free Energy Summary **************
 G_electrostatic  =      -0.03067737 hartree =     -19.25033753 kcal/mol
 G_cavitation     =       0.00000000 hartree =       0.00000000 kcal/mol
 G_dispersion     =       0.00000000 hartree =       0.00000000 kcal/mol
 G_repulsion      =       0.00000000 hartree =       0.00000000 kcal/mol
 --------------------------------------------------
 Non-electrostatic Free Energy =       0.00000000 hartree =       0.00000000 kcal/mol
 Total                         =      -0.03067737 hartree =     -19.25033753 kcal/mol
 --------------------------------------------------
 SCF Energy (H0 + V/2)                       =   -1571.74092793 
 Solute Internal Energy (H0)                 =   -1571.71025056 
 Total Free Energy (H0 + V/2 + non-elec)     =   -1571.74092793 hartree
                                             = -986282.31823128 kcal/mol
***********************************************************

 SCF   energy in the final basis set =    -1571.7409279250
 Total energy in the final basis set =    -1571.7409279250


 --------------------------------------------------------------
  Generalized many-body perturbation theory program
  by Joonho Lee, Fazle Rob, Xintian Feng, Evgeny Epifanovsky

 No regularization used 
 (reg. param. = 0.0000e+00)
  (P|Q)^-1/2 Time:  CPU 151.48 s  wall 3.17 s

 In RI-MP2 calculation: 
 # of frozen core orbitals: 31

 Components of the RIMP2 correlation energy:
        aaaa    correlation energy =        -0.6149928196 a.u.
        abab    correlation energy =        -3.4258353239 a.u.
        bbbb    correlation energy =        -0.6149928196 a.u.
        non-Brillouin singles      =        -0.0000000000 a.u.
        total same-spin energy     =        -1.2299856391 a.u.
        total opposite-spin energy =        -3.4258353239 a.u.

 Total  RIMP2   correlation energy =        -4.6558209631 a.u.
        RIMP2         total energy =     -1576.3967488881 a.u.

 RI-MP2 Energy Time:  CPU 1952.93 s  wall 34.35 s
 
 --------------------------------------------------------------
 
                    Orbital Energies (a.u.)
 --------------------------------------------------------------
 
 Alpha MOs
 -- Occupied --
-91.9908 -20.5506 -20.5441 -20.5416 -20.5402 -15.6262 -15.6210 -11.3921
-11.3847 -11.3835 -11.3788 -11.3082 -11.3076 -11.3046 -11.3044 -11.2961
-11.2907 -11.2881 -11.2843 -11.2690 -11.2678 -11.2636 -11.2624 -11.2593
-11.2545 -11.2526 -11.2504  -8.9905  -6.6713  -6.6708  -6.6702  -1.4185
 -1.4120  -1.3965  -1.3912  -1.2614  -1.2552  -1.2293  -1.1863  -1.1522
 -1.1136  -1.0863  -1.0461  -0.9954  -0.9875  -0.9842  -0.9546  -0.9511
 -0.8955  -0.8865  -0.8764  -0.8598  -0.7924  -0.7757  -0.7739  -0.7681
 -0.7371  -0.7168  -0.7040  -0.6910  -0.6768  -0.6698  -0.6673  -0.6568
 -0.6466  -0.6401  -0.6377  -0.6318  -0.6307  -0.6265  -0.6227  -0.6047
 -0.5842  -0.5746  -0.5670  -0.5610  -0.5567  -0.5509  -0.5501  -0.5477
 -0.5459  -0.5433  -0.5193  -0.5153  -0.5083  -0.4805  -0.4736  -0.4681
 -0.4560  -0.4500  -0.4424  -0.4343  -0.4129  -0.4072  -0.3543  -0.3509
 -0.3278  -0.2906
 -- Virtual --
  0.0153   0.0437   0.0878   0.0920   0.1280   0.1494   0.1554   0.1604
  0.1638   0.1724   0.1812   0.1829   0.1866   0.1915   0.1923   0.2010
  0.2055   0.2191   0.2227   0.2286   0.2308   0.2328   0.2367   0.2473
  0.2669   0.2692   0.2916   0.3039   0.3109   0.3146   0.3211   0.3247
  0.3275   0.3391   0.3428   0.3529   0.3550   0.3607   0.3636   0.3701
  0.3721   0.3774   0.3820   0.3847   0.3876   0.3908   0.4007   0.4021
  0.4142   0.4195   0.4265   0.4321   0.4335   0.4401   0.4442   0.4494
  0.4526   0.4550   0.4563   0.4671   0.4720   0.4844   0.4854   0.4942
  0.4978   0.5026   0.5082   0.5149   0.5165   0.5211   0.5248   0.5316
  0.5327   0.5347   0.5449   0.5474   0.5532   0.5559   0.5625   0.5653
  0.5668   0.5731   0.5748   0.5831   0.5892   0.5902   0.5939   0.6008
  0.6022   0.6058   0.6080   0.6100   0.6146   0.6200   0.6221   0.6252
  0.6293   0.6323   0.6354   0.6356   0.6389   0.6439   0.6465   0.6541
  0.6606   0.6613   0.6743   0.6795   0.6843   0.6892   0.6943   0.6998
  0.7039   0.7107   0.7169   0.7247   0.7340   0.7375   0.7465   0.7537
  0.7614   0.7659   0.7732   0.7757   0.7783   0.7861   0.7905   0.7992
  0.8003   0.8100   0.8160   0.8212   0.8244   0.8357   0.8430   0.8466
  0.8488   0.8518   0.8588   0.8621   0.8680   0.8712   0.8741   0.8820
  0.8956   0.8985   0.9052   0.9117   0.9140   0.9207   0.9242   0.9291
  0.9367   0.9410   0.9494   0.9536   0.9573   0.9593   0.9695   0.9759
  0.9823   0.9857   0.9911   0.9924   1.0037   1.0065   1.0105   1.0181
  1.0230   1.0257   1.0362   1.0369   1.0440   1.0505   1.0591   1.0599
  1.0645   1.0691   1.0708   1.0770   1.0828   1.0929   1.0962   1.1008
  1.1093   1.1160   1.1188   1.1277   1.1316   1.1339   1.1406   1.1433
  1.1492   1.1530   1.1606   1.1629   1.1664   1.1719   1.1743   1.1825
  1.1852   1.1999   1.2021   1.2059   1.2115   1.2163   1.2207   1.2236
  1.2274   1.2368   1.2400   1.2496   1.2516   1.2558   1.2690   1.2726
  1.2820   1.2889   1.2945   1.3075   1.3093   1.3259   1.3278   1.3343
  1.3420   1.3496   1.3553   1.3601   1.3667   1.3735   1.3808   1.3879
  1.3898   1.3904   1.3974   1.4104   1.4144   1.4214   1.4277   1.4357
  1.4455   1.4506   1.4648   1.4684   1.4805   1.4856   1.4927   1.4991
  1.5007   1.5030   1.5051   1.5166   1.5239   1.5259   1.5322   1.5407
  1.5448   1.5475   1.5568   1.5585   1.5625   1.5672   1.5718   1.5768
  1.5786   1.5876   1.6052   1.6063   1.6138   1.6228   1.6303   1.6405
  1.6508   1.6546   1.6687   1.6709   1.6776   1.6841   1.6901   1.6918
  1.7045   1.7189   1.7254   1.7292   1.7376   1.7480   1.7498   1.7548
  1.7567   1.7660   1.7718   1.7771   1.7842   1.7896   1.8078   1.8117
  1.8129   1.8262   1.8294   1.8470   1.8494   1.8623   1.8686   1.8739
  1.8782   1.8811   1.8828   1.9038   1.9080   1.9125   1.9234   1.9445
  1.9565   1.9631   1.9716   1.9756   1.9899   1.9937   2.0050   2.0162
  2.0297   2.0352   2.0489   2.0565   2.0906   2.1049   2.1105   2.1177
  2.1354   2.1444   2.1537   2.1626   2.1722   2.1920   2.2079   2.2200
  2.2232   2.2388   2.2446   2.2699   2.2838   2.2939   2.2969   2.3000
  2.3132   2.3177   2.3311   2.3344   2.3653   2.3669   2.3853   2.3880
  2.3977   2.4194   2.4316   2.4405   2.4494   2.4574   2.4597   2.4716
  2.4738   2.4820   2.4913   2.5002   2.5076   2.5285   2.5361   2.5408
  2.5567   2.5626   2.5726   2.5852   2.5902   2.5991   2.6069   2.6180
  2.6218   2.6310   2.6381   2.6421   2.6499   2.6607   2.6734   2.6795
  2.6806   2.6898   2.6939   2.7084   2.7195   2.7256   2.7267   2.7351
  2.7393   2.7430   2.7568   2.7609   2.7698   2.7731   2.7890   2.8057
  2.8104   2.8180   2.8357   2.8382   2.8508   2.8524   2.8566   2.8668
  2.8756   2.8780   2.8868   2.8920   2.8942   2.9082   2.9094   2.9172
  2.9222   2.9259   2.9316   2.9531   2.9583   2.9602   2.9638   2.9719
  2.9791   2.9802   2.9936   2.9953   3.0119   3.0180   3.0220   3.0273
  3.0324   3.0394   3.0481   3.0557   3.0566   3.0728   3.0797   3.0938
  3.0954   3.1008   3.1061   3.1080   3.1096   3.1188   3.1207   3.1319
  3.1345   3.1407   3.1486   3.1525   3.1584   3.1585   3.1642   3.1725
  3.1823   3.1953   3.1961   3.2066   3.2106   3.2138   3.2189   3.2214
  3.2267   3.2295   3.2374   3.2498   3.2545   3.2569   3.2583   3.2693
  3.2702   3.2748   3.2793   3.2845   3.2984   3.2989   3.3049   3.3063
  3.3105   3.3145   3.3185   3.3258   3.3284   3.3338   3.3378   3.3410
  3.3452   3.3476   3.3509   3.3561   3.3579   3.3675   3.3742   3.3765
  3.3787   3.3857   3.3894   3.3947   3.3967   3.3991   3.4043   3.4092
  3.4099   3.4153   3.4203   3.4337   3.4367   3.4389   3.4479   3.4494
  3.4522   3.4605   3.4649   3.4681   3.4743   3.4810   3.4876   3.4899
  3.4909   3.5029   3.5049   3.5073   3.5117   3.5167   3.5208   3.5256
  3.5327   3.5383   3.5443   3.5503   3.5568   3.5623   3.5658   3.5773
  3.5866   3.5931   3.6003   3.6015   3.6064   3.6177   3.6244   3.6266
  3.6273   3.6344   3.6415   3.6433   3.6477   3.6515   3.6549   3.6564
  3.6647   3.6762   3.6794   3.6847   3.6978   3.7024   3.7046   3.7060
  3.7192   3.7293   3.7345   3.7366   3.7391   3.7439   3.7485   3.7565
  3.7610   3.7636   3.7685   3.7736   3.7758   3.7855   3.7903   3.7983
  3.8078   3.8116   3.8143   3.8184   3.8289   3.8388   3.8434   3.8440
  3.8485   3.8530   3.8606   3.8678   3.8840   3.8881   3.8908   3.9042
  3.9065   3.9149   3.9194   3.9323   3.9369   3.9452   3.9462   3.9504
  3.9571   3.9633   3.9677   3.9744   3.9843   3.9860   3.9936   4.0117
  4.0181   4.0231   4.0282   4.0359   4.0534   4.0566   4.0719   4.0749
  4.0944   4.0996   4.1106   4.1192   4.1235   4.1299   4.1384   4.1436
  4.1469   4.1475   4.1621   4.1690   4.1766   4.1824   4.1997   4.2076
  4.2149   4.2198   4.2210   4.2367   4.2417   4.2484   4.2550   4.2618
  4.2692   4.2718   4.2779   4.2865   4.2914   4.2952   4.2981   4.3037
  4.3071   4.3190   4.3199   4.3283   4.3384   4.3406   4.3491   4.3512
  4.3611   4.3683   4.3696   4.3711   4.3753   4.3805   4.3858   4.3951
  4.3973   4.4060   4.4108   4.4199   4.4290   4.4423   4.4459   4.4620
  4.4680   4.4791   4.4852   4.4976   4.5033   4.5187   4.5215   4.5264
  4.5374   4.5410   4.5463   4.5514   4.5577   4.5673   4.5796   4.5837
  4.5905   4.5940   4.5986   4.6083   4.6156   4.6236   4.6239   4.6406
  4.6435   4.6473   4.6671   4.6744   4.6838   4.6944   4.7018   4.7044
  4.7101   4.7274   4.7382   4.7470   4.7669   4.7790   4.7919   4.8016
  4.8117   4.8268   4.8357   4.8481   4.8519   4.8602   4.8681   4.8803
  4.8873   4.8958   4.9093   4.9231   4.9293   4.9427   4.9550   4.9701
  4.9903   4.9987   5.0160   5.0309   5.0369   5.0428   5.0534   5.0617
  5.0788   5.0854   5.1031   5.1098   5.1222   5.1243   5.1306   5.1411
  5.1455   5.1527   5.1708   5.1765   5.1896   5.1972   5.2241   5.2295
  5.2631   5.2670   5.2730   5.2855   5.2869   5.3008   5.3217   5.3286
  5.3310   5.3473   5.3505   5.3649   5.3778   5.3864   5.4033   5.4167
  5.4373   5.4462   5.4727   5.4871   5.4925   5.4996   5.5138   5.5154
  5.5187   5.5384   5.5466   5.5497   5.5568   5.5598   5.5674   5.5729
  5.5799   5.5862   5.5888   5.5937   5.6095   5.6148   5.6218   5.6311
  5.6488   5.6562   5.6616   5.6666   5.6706   5.6746   5.6929   5.6951
  5.7002   5.7080   5.7247   5.7430   5.7547   5.7664   5.7672   5.7763
  5.7850   5.7892   5.8045   5.8311   5.8422   5.8577   5.8798   5.9078
  5.9260   5.9566   5.9604   5.9862   6.0031   6.0139   6.0324   6.0418
  6.0468   6.0742   6.0887   6.1120   6.1235   6.1287   6.1446   6.1875
  6.2007   6.2199   6.2256   6.2261   6.2419   6.2624   6.2672   6.2834
  6.3094   6.3144   6.3235   6.3484   6.3664   6.3858   6.4298   6.4844
  6.5184   6.5327   6.5758   6.5829   6.6031   6.6180   6.6599   6.6616
  6.6734   6.6860   6.8466   6.8499   6.8882   6.9016   6.9050   6.9224
  6.9269   6.9333   7.1013   7.1097   7.1470   7.1937   7.1995   7.2357
  7.3477   7.3522   7.3576   7.3613   7.4759   7.5442   7.5704   7.5833
  7.5883   7.5962   7.6537   7.6753   7.6918   7.7135   8.8325  10.0336
 10.2951  11.3215  11.5074  11.7465  12.0333  12.0881  12.4167  12.4556
 12.8668  13.1913  13.3289  13.5502  13.7515  13.9271  14.1178  14.2645
 14.3110  14.3617  14.4868  14.5410  15.0254  15.6036  15.8203  16.3167
 --------------------------------------------------------------
 
          Ground-State Mulliken Net Atomic Charges

     Atom                 Charge (a.u.)
  ----------------------------------------
      1 C                    -0.084277
      2 C                    -0.030881
      3 C                    -0.111318
      4 C                    -0.120895
      5 H                     0.198420
      6 C                     0.007908
      7 C                     0.119624
      8 C                    -0.081642
      9 C                    -0.168382
     10 C                    -0.145924
     11 C                     0.250183
     12 H                     0.189923
     13 C                     0.343428
     14 C                     0.351461
     15 N                    -0.090223
     16 C                     0.356695
     17 C                     0.359152
     18 N                    -0.090679
     19 O                    -0.494291
     20 O                    -0.507381
     21 O                    -0.501917
     22 O                    -0.470751
     23 C                    -0.204761
     24 H                     0.139439
     25 H                     0.108999
     26 H                     0.109120
     27 C                    -0.197493
     28 H                     0.132986
     29 H                     0.111411
     30 H                     0.111476
     31 C                    -0.068007
     32 S                     0.014455
     33 C                    -0.211179
     34 C                    -0.182058
     35 C                    -0.196511
     36 H                     0.188576
     37 H                     0.191162
     38 H                     0.212491
     39 H                     0.137501
     40 H                     0.137604
     41 H                     0.186554
  ----------------------------------------
  Sum of atomic charges =     0.000000

 -----------------------------------------------------------------
                    Cartesian Multipole Moments
 -----------------------------------------------------------------
    Charge (ESU x 10^10)
                 0.0000
    Dipole Moment (Debye)
         X       1.3994      Y       2.4550      Z      -0.0592
       Tot       2.8264
    Quadrupole Moments (Debye-Ang)
        XX    -194.4196     XY      -5.3961     YY    -178.4770
        XZ      -5.2997     YZ      -1.9656     ZZ    -157.1060
    Octopole Moments (Debye-Ang^2)
       XXX     -86.4614    XXY     595.8714    XYY      42.4777
       YYY    1692.4453    XXZ     -20.3080    XYZ      25.8698
       YYZ      -0.0384    XZZ     -24.4124    YZZ     476.7406
       ZZZ     -63.1121
    Hexadecapole Moments (Debye-Ang^3)
      XXXX   -6216.7442   XXXY    -121.9085   XXYY   -4439.3140
      XYYY   -1183.8048   YYYY  -18056.5638   XXXZ    -576.8780
      XXYZ      19.0385   XYYZ    -316.6967   YYYZ    -237.3476
      XXZZ   -1090.2754   XYZZ    -125.9469   YYZZ   -2702.9274
      XZZZ    -503.9048   YZZZ    -107.0780   ZZZZ    -640.5263
 -----------------------------------------------------------------
 Total job time:  301.78s(wall), 8929.44s(cpu) 
 Tue Sep 26 22:49:14 2023

        *************************************************************
        *                                                           *
        *  Thank you very much for using Q-Chem.  Have a nice day.  *
        *                                                           *
        *************************************************************


0 sent ACK to 0 
now end server 0 ... 
cleanup process ... done
remove work dirs ./qchem1594246.0 -- ./qchem1594246.0
rm -rf ./qchem1594246.0
rm -rf ./qchem1594246
