You are running Q-Chem version: 5.4.0

#
# job setting
#
local host:  exp-4-53
current dir: /expanse/lustre/projects/csd626/rramji/aromodel/PNDIT/Hydrogenated_Rotation_Test
input file:  Dimethyl_Naphthalene_Dicarboximide_Phi_15_Theta_240_Thiophene_Hydrogenated.qcin
output file: 
nprocs     : 1
nthreads   : 64
#
# qchem installation setting
#
QC:          /cm/shared/apps/spack/cpu/opt/spack/linux-centos8-zen2/gcc-10.2.0/qchem-5.4-akfmr7b3t57bfs6qan3padb2wnb2i7cl
QCAUX:       /cm/shared/apps/spack/cpu/opt/spack/linux-centos8-zen2/gcc-10.2.0/qchem-5.4-akfmr7b3t57bfs6qan3padb2wnb2i7cl/qcaux
QCPROG:      /cm/shared/apps/spack/cpu/opt/spack/linux-centos8-zen2/gcc-10.2.0/qchem-5.4-akfmr7b3t57bfs6qan3padb2wnb2i7cl/exe/qcprog.exe
QCPROG_S:    /cm/shared/apps/spack/cpu/opt/spack/linux-centos8-zen2/gcc-10.2.0/qchem-5.4-akfmr7b3t57bfs6qan3padb2wnb2i7cl/exe/qcprog.exe_s
PARALLEL:    -DPARALLEL
QCMPI:       mpich
#
# qchem directory setting
#
qcrun:       qchem1607669
QCSCRATCH:   .
QCLOCALSCR:  
QCTMPDIR:    .
QCFILEPREF:  ./qchem1607669
QCSAVEDIR:   
workdirs:    ./qchem1607669
workdir0:    ./qchem1607669
partmpdirs =  
#
# parallel setting
#
QCRSH:           ssh
QCMPI:           mpich
QCMPIRUN:        /cm/shared/apps/spack/cpu/opt/spack/linux-centos8-zen2/gcc-10.2.0/qchem-5.4-akfmr7b3t57bfs6qan3padb2wnb2i7cl/bin/mpi/mpirun_qchem
QCMACHINEFILE:   ./qchem1607669/hostfile
exp-4-53

#
# env setting
#
exported envs:   QC QCAUX QCSCRATCH QCRUNNAME QCFILEPREF QCPROG QCPROG_S GUIFILE

Running Job 1 of 1 Dimethyl_Naphthalene_Dicarboximide_Phi_15_Theta_240_Thiophene_Hydrogenated.qcin
qchem Dimethyl_Naphthalene_Dicarboximide_Phi_15_Theta_240_Thiophene_Hydrogenated.qcin_1607669.0 ./qchem1607669/ 1
/cm/shared/apps/spack/cpu/opt/spack/linux-centos8-zen2/gcc-10.2.0/qchem-5.4-akfmr7b3t57bfs6qan3padb2wnb2i7cl/bin/mpi/mpirun_qchem -machinefile ./qchem1607669/hostfile -np 1 /cm/shared/apps/spack/cpu/opt/spack/linux-centos8-zen2/gcc-10.2.0/qchem-5.4-akfmr7b3t57bfs6qan3padb2wnb2i7cl/exe/qcprog.exe Dimethyl_Naphthalene_Dicarboximide_Phi_15_Theta_240_Thiophene_Hydrogenated.qcin_1607669.0 ./qchem1607669/

Process 0 of 1 is on exp-4-53 - thread support 0
initial socket setup ...start
initial socket setup ...done 
now start server 0 ... 
                  Welcome to Q-Chem
     A Quantum Leap Into The Future Of Chemistry


 Q-Chem 5.4, Q-Chem, Inc., Pleasanton, CA (2021)

 License issued to: University of California, San Diego (site)

 E. Epifanovsky,  A. T. B. Gilbert,  Xintian Feng,  Joonho Lee,  Yuezhi Mao,  
 N. Mardirossian,  P. Pokhilko,  A. White,  M. Wormit,  M. P. Coons,  
 A. L. Dempwolff,  Zhengting Gan,  D. Hait,  P. R. Horn,  L. D. Jacobson,  
 I. Kaliman,  J. Kussmann,  A. W. Lange,  Ka Un Lao,  D. S. Levine,  Jie Liu,  
 S. C. McKenzie,  A. F. Morrison,  K. Nanda,  F. Plasser,  D. R. Rehn,  
 M. L. Vidal,  Zhi-Qiang You,  Ying Zhu,  B. Alam,  B. Albrecht,  
 A. Aldossary,  E. Alguire,  J. H. Andersen,  D. Barton,  K. Begam,  A. Behn,  
 Y. A. Bernard,  E. J. Berquist,  H. Burton,  A. Carreras,  K. Carter-Fenk,  
 R. Chakraborty,  A. D. Chien,  K. D. Closser,  V. Cofer-Shabica,  
 S. Dasgupta,  Jia Deng,  M. de Wergifosse,  M. Diedenhofen,  Hainam Do,  
 S. Ehlert,  Po-Tung Fang,  S. Fatehi,  Qingguo Feng,  J. Gayvert,  
 Qinghui Ge,  G. Gidofalvi,  M. Goldey,  J. Gomes,  C. Gonzalez-Espinoza,  
 S. Gulania,  A. Gunina,  M. W. D. Hanson-Heine,  P. H. P. Harbach,  
 A. W. Hauser,  M. F. Herbst,  M. Hernandez Vera,  M. Hodecker,  
 Z. C. Holden,  S. Houck,  Xunkun Huang,  Kerwin Hui,  B. C. Huynh,  
 M. Ivanov,  Hyunjun Ji,  Hanjie Jiang,  B. Kaduk,  S. Kaehler,  
 K. Khistyaev,  Jaehoon Kim,  P. Klunzinger,  Z. Koczor-Benda,  
 Joong Hoon Koh,  D. Kosenkov,  L. Koulias,  T. Kowalczyk,  C. M. Krauter,  
 K. Kue,  A. Kunitsa,  T. Kus,  A. Landau,  K. V. Lawler,  D. Lefrancois,  
 S. Lehtola,  Rain Li,  Yi-Pei Li,  Jiashu Liang,  M. Liebenthal,  
 Hung-Hsuan Lin,  You-Sheng Lin,  Fenglai Liu,  Kuan-Yu Liu,  
 M. Loipersberger,  A. Luenser,  A. Manjanath,  P. Manohar,  E. Mansoor,  
 S. F. Manzer,  Shan-Ping Mao,  A. V. Marenich,  T. Markovich,  S. Mason,  
 S. A. Maurer,  P. F. McLaughlin,  M. F. S. J. Menger,  J.-M. Mewes,  
 S. A. Mewes,  P. Morgante,  J. W. Mullinax,  T. S. Nguyen-Beck,  
 K. J. Oosterbaan,  G. Paran,  Alexander C. Paul,  Suranjan K. Paul,  
 F. Pavosevic,  Zheng Pei,  S. Prager,  E. I. Proynov,  E. Ramos,  B. Rana,  
 A. E. Rask,  A. Rettig,  R. M. Richard,  F. Rob,  E. Rossomme,  T. Scheele,  
 M. Scheurer,  M. Schneider,  N. Sergueev,  S. M. Sharada,  W. Skomorowski,  
 D. W. Small,  C. J. Stein,  Yu-Chuan Su,  E. J. Sundstrom,  Zhen Tao,  
 J. Thirman,  T. Tsuchimochi,  N. M. Tubman,  S. P. Veccham,  O. Vydrov,  
 J. Wenzel,  J. Witte,  A. Yamada,  Kun Yao,  S. Yeganeh,  S. R. Yost,  
 A. Zech,  Igor Ying Zhang,  Xing Zhang,  Yu Zhang,  D. Zuev,  
 A. Aspuru-Guzik,  A. T. Bell,  N. A. Besley,  K. B. Bravaya,  B. R. Brooks,  
 D. Casanova,  Jeng-Da Chai,  S. Coriani,  C. J. Cramer,  
 A. E. DePrince, III,  R. A. DiStasio Jr.,  A. Dreuw,  B. D. Dunietz,  
 T. R. Furlani,  W. A. Goddard III,  S. Grimme,  S. Hammes-Schiffer,  
 T. Head-Gordon,  W. J. Hehre,  Chao-Ping Hsu,  T.-C. Jagau,  Yousung Jung,  
 A. Klamt,  Jing Kong,  D. S. Lambrecht,  WanZhen Liang,  N. J. Mayhall,  
 C. W. McCurdy,  J. B. Neaton,  C. Ochsenfeld,  J. A. Parkhill,  R. Peverati,  
 V. A. Rassolov,  Yihan Shao,  L. V. Slipchenko,  T. Stauch,  R. P. Steele,  
 J. E. Subotnik,  A. J. W. Thom,  A. Tkatchenko,  D. G. Truhlar,  
 T. Van Voorhis,  T. A. Wesolowski,  K. B. Whaley,  H. L. Woodcock III,  
 P. M. Zimmerman,  S. Faraji,  P. M. W. Gill,  M. Head-Gordon,  
 J. M. Herbert,  A. I. Krylov

 Contributors to earlier versions of Q-Chem not listed above: 
 R. D. Adamson,  B. Austin,  R. Baer,  J. Baker,  G. J. O. Beran,  
 K. Brandhorst,  S. T. Brown,  E. F. C. Byrd,  A. K. Chakraborty,  
 G. K. L. Chan,  Chun-Min Chang,  Yunqing Chen,  C.-L. Cheng,  
 Siu Hung Chien,  D. M. Chipman,  D. L. Crittenden,  H. Dachsel,  
 R. J. Doerksen,  A. D. Dutoi,  R. G. Edgar,  J. Fosso-Tande,  
 L. Fusti-Molnar,  D. Ghosh,  A. Ghysels,  A. Golubeva-Zadorozhnaya,  
 J. Gonthier,  M. S. Gordon,  S. R. Gwaltney,  G. Hawkins,  J. E. Herr,  
 A. Heyden,  S. Hirata,  E. G. Hohenstein,  G. Kedziora,  F. J. Keil,  
 C. Kelley,  Jihan Kim,  R. A. King,  R. Z. Khaliullin,  P. P. Korambath,  
 W. Kurlancheek,  A. Laurent,  A. M. Lee,  M. S. Lee,  S. V. Levchenko,  
 Ching Yeh Lin,  D. Liotard,  E. Livshits,  R. C. Lochan,  I. Lotan,  
 L. A. Martinez-Martinez,  P. E. Maslen,  N. Nair,  D. P. O'Neill,  
 D. Neuhauser,  E. Neuscamman,  C. M. Oana,  R. Olivares-Amaya,  R. Olson,  
 T. M. Perrine,  B. Peters,  P. A. Pieniazek,  A. Prociuk,  Y. M. Rhee,  
 J. Ritchie,  M. A. Rohrdanz,  E. Rosta,  N. J. Russ,  H. F. Schaefer III,  
 M. W. Schmidt,  N. E. Schultz,  S. Sharma,  N. Shenvi,  C. D. Sherrill,  
 A. C. Simmonett,  A. Sodt,  T. Stein,  D. Stuck,  K. S. Thanthiriwatte,  
 V. Vanovschi,  L. Vogt,  Tao Wang,  A. Warshel,  M. A. Watson,  
 C. F. Williams,  Q. Wu,  X. Xu,  Jun Yang,  W. Zhang,  Yan Zhao

 Please cite Q-Chem as follows:
 Y. Shao et al., Mol. Phys. 113, 184-215 (2015)
 DOI: 10.1080/00268976.2014.952696

 Q-Chem 5.4.0 for Intel X86 EM64T Linux

 Parts of Q-Chem use Armadillo 9.800.1 (Horizon Scraper).
 http://arma.sourceforge.net/

 Q-Chem begins on Tue Sep 26 23:56:42 2023  

 Host: 
0

     Scratch files written to ./qchem1607669//
 May1621 |scratch|qcdevops|jenkins|workspace|build_RNUM    
 Parallel job on  1  processors
 Processing $rem in /cm/shared/apps/spack/cpu/opt/spack/linux-centos8-zen2/gcc-10.2.0/qchem-5.4-akfmr7b3t57bfs6qan3padb2wnb2i7cl/config/preferences:
 Processing $rem in /home/rramji/.qchemrc:
 Symmetry turned off for PCM/SM12/SMD calculation
 Core orbitals will be frozen

 Checking the input file for inconsistencies... 	...done.

 Q-Chem warning in module forms1/BasisType.C, line 2236:

 You are not using the predefined 5D/6D in this basis set.


--------------------------------------------------------------
User input:
--------------------------------------------------------------
$molecule
0 1
C	-0.221766	-6.741404	0.129743
C	-1.352515	-6.155638	0.782726
C	0.717339	-5.791452	-0.411926
C	-1.593885	-4.803786	0.921816
H	-2.112819	-6.821518	1.221908
C	0.464360	-4.378638	-0.266682
C	-0.688053	-3.838032	0.398255
C	1.369108	-3.413062	-0.789694
C	-0.939002	-2.426473	0.542349
C	1.130409	-2.059348	-0.652589
C	0.000000	-1.478216	0.000000
H	1.891446	-1.394783	-1.092453
C	1.967519	-6.187987	-1.131595
C	2.608118	-3.798164	-1.504912
N	2.819813	-5.170003	-1.625174
C	-2.836188	-4.424987	1.639129
C	-2.189558	-2.036627	1.263477
N	-3.042237	-3.049156	1.756898
O	2.307845	-7.353131	-1.324787
O	3.407213	-2.986854	-1.967354
O	-3.625890	-5.248946	2.095892
O	-2.547850	-0.878829	1.468685
C	4.043674	-5.563799	-2.330564
H	4.083407	-6.664085	-2.352178
H	4.925490	-5.147101	-1.807263
H	4.031877	-5.148785	-3.356568
C	-4.247206	-2.587487	2.452080
H	-4.803187	-3.483329	2.774302
H	-4.860536	-1.964972	1.773301
H	-3.966607	-1.962932	3.321351
C	0.000000	0.000000	0.000000
S	0.205093	0.766196	1.580530
C	0.628939	2.348114	0.904911
C	0.258137	0.964028	-0.985400
C	0.599745	2.239309	-0.493528
H	0.197169	0.736404	-2.059934
H	0.827678	3.090243	-1.152593
H	0.856796	3.198808	1.556025
H	-0.578191	-7.361589	-0.701693
H	0.319578	-7.361192	0.854838
H	-0.539540	-1.478831	-0.935572
$end

$rem
JOBTYPE		SP
EXCHANGE	HF
CORRELATION	pRIMP2
BASIS		cc-pvtz
METHOD		rimp2
AUX_BASIS	rimp2-cc-pvtz
SOLVENT_METHOD	PCM
PURECART	11111
SYMMETRY	false
MEM_TOTAL	110000
SCF_CONVERGENCE = 6
THRESH=10
GUI = 2
$end



$solvent
dielectric 4.90
$end
--------------------------------------------------------------
 ----------------------------------------------------------------
             Standard Nuclear Orientation (Angstroms)
    I     Atom           X                Y                Z
 ----------------------------------------------------------------
    1      C      -0.2217660000    -6.7414040000     0.1297430000
    2      C      -1.3525150000    -6.1556380000     0.7827260000
    3      C       0.7173390000    -5.7914520000    -0.4119260000
    4      C      -1.5938850000    -4.8037860000     0.9218160000
    5      H      -2.1128190000    -6.8215180000     1.2219080000
    6      C       0.4643600000    -4.3786380000    -0.2666820000
    7      C      -0.6880530000    -3.8380320000     0.3982550000
    8      C       1.3691080000    -3.4130620000    -0.7896940000
    9      C      -0.9390020000    -2.4264730000     0.5423490000
   10      C       1.1304090000    -2.0593480000    -0.6525890000
   11      C       0.0000000000    -1.4782160000     0.0000000000
   12      H       1.8914460000    -1.3947830000    -1.0924530000
   13      C       1.9675190000    -6.1879870000    -1.1315950000
   14      C       2.6081180000    -3.7981640000    -1.5049120000
   15      N       2.8198130000    -5.1700030000    -1.6251740000
   16      C      -2.8361880000    -4.4249870000     1.6391290000
   17      C      -2.1895580000    -2.0366270000     1.2634770000
   18      N      -3.0422370000    -3.0491560000     1.7568980000
   19      O       2.3078450000    -7.3531310000    -1.3247870000
   20      O       3.4072130000    -2.9868540000    -1.9673540000
   21      O      -3.6258900000    -5.2489460000     2.0958920000
   22      O      -2.5478500000    -0.8788290000     1.4686850000
   23      C       4.0436740000    -5.5637990000    -2.3305640000
   24      H       4.0834070000    -6.6640850000    -2.3521780000
   25      H       4.9254900000    -5.1471010000    -1.8072630000
   26      H       4.0318770000    -5.1487850000    -3.3565680000
   27      C      -4.2472060000    -2.5874870000     2.4520800000
   28      H      -4.8031870000    -3.4833290000     2.7743020000
   29      H      -4.8605360000    -1.9649720000     1.7733010000
   30      H      -3.9666070000    -1.9629320000     3.3213510000
   31      C       0.0000000000     0.0000000000     0.0000000000
   32      S       0.2050930000     0.7661960000     1.5805300000
   33      C       0.6289390000     2.3481140000     0.9049110000
   34      C       0.2581370000     0.9640280000    -0.9854000000
   35      C       0.5997450000     2.2393090000    -0.4935280000
   36      H       0.1971690000     0.7364040000    -2.0599340000
   37      H       0.8276780000     3.0902430000    -1.1525930000
   38      H       0.8567960000     3.1988080000     1.5560250000
   39      H      -0.5781910000    -7.3615890000    -0.7016930000
   40      H       0.3195780000    -7.3611920000     0.8548380000
   41      H      -0.5395400000    -1.4788310000    -0.9355720000
 ----------------------------------------------------------------
 Nuclear Repulsion Energy =        2551.74468962 hartrees
 There are       98 alpha and       98 beta electrons
 Requested basis set is cc-pVTZ
 There are 356 shells and 1010 basis functions

 Total QAlloc Memory Limit 110000 MB
 Mega-Array Size       188 MB
 MEM_STATIC part       192 MB
 Discretize the solute cavity surface with Lebedev spheres
	Using 110 Lebedev grid points for each H atom
	Using 194 Lebedev grid points for other atoms
	Atomic van der Waals radii will be scaled by 1.20
 Remove points where switching function is < 1.0e-08
 Keep 2610 surface tesserae and discard 4168 interior tesserae
 Molecular Surface Area = 370.114 Angst**2
 Requested basis set is rimp2-cc-pVTZ
 There are 770 shells and 2648 basis functions
 A cutoff of  1.0D-10 yielded  34024 shell pairs
 There are    257076 function pairs (    332659 Cartesian)
 Smallest overlap matrix eigenvalue = 9.00E-06

 Q-Chem warning in module stvman/mkSTV.C, line 323:

 Overlap eigenvalue is smaller than square root of threshold
 Use THRESH >= 12 to get rid of this warning


 Scale SEOQF with 1.000000e-01/1.000000e-02/1.000000e-01

 Standard Electronic Orientation quadrupole field applied
 Nucleus-field energy     =     0.0000000165 hartrees
 Guess from superposition of atomic densities
 Warning:  Energy on first SCF cycle will be non-variational
 SAD guess density has 196.000000 electrons

 -----------------------------------------------------------------------
  General SCF calculation program by
  Eric Jon Sundstrom, Paul Horn, Yuezhi Mao, Dmitri Zuev, Alec White,
  David Stuck, Shaama M.S., Shane Yost, Joonho Lee, David Small,
  Daniel Levine, Susi Lehtola, Hugh Burton, Evgeny Epifanovsky,
  Bang C. Huynh
 -----------------------------------------------------------------------
 Hartree-Fock
 using 64 threads for integral computing
 -------------------------------------------------------
 OpenMP Integral computing Module                
 Release: version 1.0, May 2013, Q-Chem Inc. Pittsburgh 
 -------------------------------------------------------
 A restricted SCF calculation will be
 performed using DIIS
 SCF converges when DIIS error is below 1.0e-06
 ---------------------------------------
  Cycle       Energy         DIIS error
 ---------------------------------------
    1   -1583.0911360219      1.86e-02  
    2   -1571.1685217991      2.03e-03  
    3   -1571.5074019048      1.55e-03  
    4   -1571.7289333670      2.52e-04  
    5   -1571.7425869038      7.72e-05  
    6   -1571.7439659331      2.95e-05  
    7   -1571.7443682423      1.52e-05  
    8   -1571.7444768087      6.14e-06  
    9   -1571.7444952020      2.85e-06  
   10   -1571.7444988542      1.17e-06  
   11   -1571.7444999509      5.56e-07  Convergence criterion met
 ---------------------------------------
 SCF time:   CPU 6659.78s  wall 267.00s 

************** Final PCM Free Energy Summary **************
 G_electrostatic  =      -0.03149741 hartree =     -19.76492187 kcal/mol
 G_cavitation     =       0.00000000 hartree =       0.00000000 kcal/mol
 G_dispersion     =       0.00000000 hartree =       0.00000000 kcal/mol
 G_repulsion      =       0.00000000 hartree =       0.00000000 kcal/mol
 --------------------------------------------------
 Non-electrostatic Free Energy =       0.00000000 hartree =       0.00000000 kcal/mol
 Total                         =      -0.03149741 hartree =     -19.76492187 kcal/mol
 --------------------------------------------------
 SCF Energy (H0 + V/2)                       =   -1571.74449995 
 Solute Internal Energy (H0)                 =   -1571.71300254 
 Total Free Energy (H0 + V/2 + non-elec)     =   -1571.74449995 hartree
                                             = -986284.55971132 kcal/mol
***********************************************************

 SCF   energy in the final basis set =    -1571.7444999509
 Total energy in the final basis set =    -1571.7444999509


 --------------------------------------------------------------
  Generalized many-body perturbation theory program
  by Joonho Lee, Fazle Rob, Xintian Feng, Evgeny Epifanovsky

 No regularization used 
 (reg. param. = 0.0000e+00)
  (P|Q)^-1/2 Time:  CPU 126.00 s  wall 2.76 s

 In RI-MP2 calculation: 
 # of frozen core orbitals: 31

 Components of the RIMP2 correlation energy:
        aaaa    correlation energy =        -0.6151891577 a.u.
        abab    correlation energy =        -3.4256785818 a.u.
        bbbb    correlation energy =        -0.6151891577 a.u.
        non-Brillouin singles      =        -0.0000000000 a.u.
        total same-spin energy     =        -1.2303783153 a.u.
        total opposite-spin energy =        -3.4256785818 a.u.

 Total  RIMP2   correlation energy =        -4.6560568971 a.u.
        RIMP2         total energy =     -1576.4005568480 a.u.

 RI-MP2 Energy Time:  CPU 2039.65 s  wall 35.23 s
 
 --------------------------------------------------------------
 
                    Orbital Energies (a.u.)
 --------------------------------------------------------------
 
 Alpha MOs
 -- Occupied --
-91.9848 -20.5522 -20.5445 -20.5418 -20.5407 -15.6269 -15.6215 -11.3936
-11.3852 -11.3837 -11.3794 -11.3094 -11.3093 -11.3057 -11.3049 -11.2975
-11.2969 -11.2905 -11.2801 -11.2692 -11.2683 -11.2647 -11.2627 -11.2596
-11.2571 -11.2529 -11.2496  -8.9846  -6.6654  -6.6648  -6.6643  -1.4197
 -1.4124  -1.3974  -1.3915  -1.2622  -1.2556  -1.2302  -1.1865  -1.1521
 -1.1144  -1.0867  -1.0470  -0.9953  -0.9879  -0.9832  -0.9552  -0.9508
 -0.8966  -0.8881  -0.8769  -0.8601  -0.7942  -0.7769  -0.7713  -0.7623
 -0.7405  -0.7171  -0.7040  -0.6918  -0.6808  -0.6729  -0.6668  -0.6573
 -0.6473  -0.6450  -0.6365  -0.6330  -0.6310  -0.6279  -0.6215  -0.6049
 -0.5847  -0.5753  -0.5672  -0.5617  -0.5578  -0.5514  -0.5507  -0.5480
 -0.5467  -0.5438  -0.5210  -0.5141  -0.5095  -0.4822  -0.4745  -0.4610
 -0.4570  -0.4511  -0.4429  -0.4348  -0.4133  -0.4076  -0.3533  -0.3512
 -0.3290  -0.2866
 -- Virtual --
  0.0138   0.0431   0.0894   0.0959   0.1361   0.1498   0.1542   0.1607
  0.1635   0.1718   0.1773   0.1800   0.1829   0.1899   0.2014   0.2042
  0.2109   0.2216   0.2249   0.2293   0.2298   0.2330   0.2361   0.2404
  0.2659   0.2692   0.2967   0.3030   0.3128   0.3210   0.3233   0.3255
  0.3311   0.3425   0.3463   0.3491   0.3561   0.3628   0.3660   0.3710
  0.3755   0.3763   0.3808   0.3856   0.3897   0.3916   0.3940   0.4080
  0.4164   0.4190   0.4287   0.4321   0.4372   0.4438   0.4440   0.4485
  0.4522   0.4622   0.4635   0.4680   0.4727   0.4754   0.4834   0.4892
  0.4970   0.4984   0.5048   0.5091   0.5160   0.5185   0.5239   0.5315
  0.5357   0.5391   0.5470   0.5483   0.5515   0.5554   0.5626   0.5681
  0.5695   0.5725   0.5766   0.5828   0.5844   0.5909   0.5996   0.6005
  0.6021   0.6036   0.6066   0.6082   0.6105   0.6170   0.6209   0.6222
  0.6241   0.6322   0.6346   0.6359   0.6376   0.6397   0.6466   0.6511
  0.6543   0.6640   0.6708   0.6802   0.6849   0.6907   0.6948   0.7026
  0.7043   0.7118   0.7217   0.7326   0.7336   0.7386   0.7477   0.7580
  0.7602   0.7657   0.7715   0.7757   0.7791   0.7868   0.7991   0.8030
  0.8057   0.8138   0.8168   0.8199   0.8265   0.8365   0.8445   0.8490
  0.8504   0.8566   0.8637   0.8652   0.8686   0.8733   0.8778   0.8811
  0.8874   0.9038   0.9054   0.9109   0.9118   0.9169   0.9270   0.9290
  0.9360   0.9368   0.9438   0.9515   0.9532   0.9636   0.9705   0.9725
  0.9795   0.9828   0.9842   0.9967   1.0046   1.0063   1.0129   1.0214
  1.0231   1.0284   1.0369   1.0424   1.0466   1.0526   1.0603   1.0611
  1.0675   1.0698   1.0721   1.0833   1.0881   1.0914   1.0974   1.1000
  1.1093   1.1175   1.1211   1.1256   1.1305   1.1342   1.1375   1.1439
  1.1472   1.1543   1.1609   1.1644   1.1713   1.1773   1.1870   1.1896
  1.1956   1.1994   1.2020   1.2059   1.2094   1.2171   1.2193   1.2262
  1.2339   1.2381   1.2410   1.2470   1.2505   1.2583   1.2608   1.2705
  1.2888   1.2928   1.2955   1.3021   1.3105   1.3250   1.3299   1.3326
  1.3473   1.3510   1.3541   1.3662   1.3705   1.3773   1.3831   1.3881
  1.3919   1.3981   1.4034   1.4090   1.4157   1.4167   1.4284   1.4395
  1.4466   1.4539   1.4600   1.4680   1.4747   1.4809   1.4908   1.4929
  1.5000   1.5042   1.5108   1.5140   1.5229   1.5284   1.5329   1.5385
  1.5402   1.5448   1.5501   1.5571   1.5623   1.5667   1.5719   1.5787
  1.5854   1.5871   1.5987   1.6097   1.6205   1.6279   1.6358   1.6389
  1.6394   1.6494   1.6579   1.6682   1.6804   1.6876   1.6883   1.6899
  1.7119   1.7134   1.7195   1.7291   1.7353   1.7429   1.7515   1.7526
  1.7630   1.7698   1.7750   1.7815   1.7839   1.7948   1.8025   1.8193
  1.8225   1.8344   1.8400   1.8445   1.8518   1.8601   1.8646   1.8720
  1.8754   1.8763   1.8849   1.8932   1.9126   1.9268   1.9386   1.9407
  1.9565   1.9628   1.9715   1.9881   1.9889   2.0047   2.0077   2.0288
  2.0322   2.0374   2.0497   2.0552   2.0834   2.0966   2.1037   2.1168
  2.1358   2.1396   2.1597   2.1650   2.1776   2.1930   2.2110   2.2194
  2.2339   2.2442   2.2489   2.2558   2.2846   2.2909   2.2962   2.3029
  2.3138   2.3270   2.3332   2.3358   2.3476   2.3648   2.3707   2.3874
  2.3994   2.4198   2.4322   2.4451   2.4507   2.4579   2.4619   2.4648
  2.4766   2.4872   2.4948   2.5024   2.5069   2.5174   2.5449   2.5547
  2.5573   2.5603   2.5680   2.5828   2.5901   2.6006   2.6062   2.6117
  2.6259   2.6385   2.6401   2.6443   2.6568   2.6605   2.6615   2.6749
  2.6836   2.6883   2.6928   2.7098   2.7186   2.7203   2.7270   2.7381
  2.7421   2.7463   2.7558   2.7608   2.7662   2.7741   2.7816   2.8010
  2.8124   2.8201   2.8291   2.8407   2.8437   2.8515   2.8609   2.8735
  2.8748   2.8771   2.8824   2.8934   2.8975   2.9009   2.9052   2.9109
  2.9245   2.9270   2.9342   2.9377   2.9512   2.9578   2.9655   2.9699
  2.9757   2.9811   2.9911   2.9961   3.0023   3.0075   3.0237   3.0253
  3.0282   3.0336   3.0384   3.0528   3.0610   3.0653   3.0740   3.0836
  3.0886   3.0977   3.1024   3.1072   3.1090   3.1114   3.1169   3.1233
  3.1293   3.1354   3.1383   3.1558   3.1567   3.1587   3.1658   3.1746
  3.1816   3.1843   3.1948   3.1984   3.2061   3.2134   3.2201   3.2253
  3.2345   3.2379   3.2389   3.2435   3.2502   3.2535   3.2627   3.2654
  3.2680   3.2705   3.2760   3.2794   3.2891   3.2961   3.3059   3.3108
  3.3122   3.3155   3.3211   3.3216   3.3277   3.3322   3.3336   3.3369
  3.3389   3.3487   3.3529   3.3559   3.3608   3.3652   3.3735   3.3759
  3.3782   3.3858   3.3897   3.3916   3.3996   3.4029   3.4070   3.4143
  3.4195   3.4250   3.4269   3.4316   3.4362   3.4395   3.4481   3.4525
  3.4584   3.4593   3.4658   3.4681   3.4756   3.4782   3.4831   3.4882
  3.4933   3.4967   3.5052   3.5107   3.5137   3.5197   3.5251   3.5271
  3.5343   3.5377   3.5415   3.5429   3.5545   3.5717   3.5741   3.5769
  3.5807   3.5885   3.5920   3.6045   3.6062   3.6175   3.6231   3.6263
  3.6282   3.6356   3.6402   3.6424   3.6472   3.6543   3.6592   3.6648
  3.6730   3.6761   3.6764   3.6848   3.6906   3.6958   3.6997   3.7061
  3.7111   3.7163   3.7321   3.7394   3.7406   3.7450   3.7485   3.7519
  3.7640   3.7667   3.7693   3.7701   3.7772   3.7886   3.7933   3.8007
  3.8075   3.8125   3.8207   3.8260   3.8292   3.8327   3.8372   3.8415
  3.8527   3.8594   3.8674   3.8711   3.8807   3.8863   3.8881   3.9013
  3.9094   3.9191   3.9230   3.9347   3.9368   3.9484   3.9495   3.9534
  3.9592   3.9617   3.9661   3.9707   3.9787   3.9868   4.0060   4.0085
  4.0130   4.0295   4.0366   4.0411   4.0438   4.0622   4.0664   4.0693
  4.0837   4.0987   4.1040   4.1179   4.1216   4.1304   4.1367   4.1393
  4.1448   4.1516   4.1561   4.1650   4.1764   4.1804   4.1849   4.1999
  4.2105   4.2176   4.2255   4.2370   4.2474   4.2504   4.2565   4.2627
  4.2646   4.2701   4.2750   4.2809   4.2897   4.2957   4.3014   4.3029
  4.3077   4.3130   4.3256   4.3269   4.3395   4.3424   4.3463   4.3491
  4.3588   4.3629   4.3676   4.3701   4.3767   4.3804   4.3877   4.3931
  4.4007   4.4032   4.4081   4.4104   4.4232   4.4399   4.4459   4.4506
  4.4593   4.4786   4.4888   4.5012   4.5070   4.5151   4.5189   4.5265
  4.5286   4.5359   4.5406   4.5582   4.5731   4.5781   4.5788   4.5848
  4.5890   4.5946   4.6010   4.6127   4.6201   4.6225   4.6269   4.6427
  4.6453   4.6594   4.6666   4.6825   4.6859   4.6929   4.6999   4.7038
  4.7285   4.7419   4.7444   4.7593   4.7654   4.7832   4.7867   4.8030
  4.8123   4.8209   4.8291   4.8400   4.8549   4.8600   4.8632   4.8806
  4.8884   4.8926   4.9049   4.9218   4.9272   4.9467   4.9545   4.9825
  4.9894   5.0026   5.0099   5.0253   5.0295   5.0383   5.0430   5.0580
  5.0660   5.0950   5.0975   5.1095   5.1220   5.1226   5.1250   5.1352
  5.1452   5.1522   5.1653   5.1761   5.1858   5.2058   5.2186   5.2219
  5.2507   5.2626   5.2738   5.2858   5.2898   5.2932   5.3153   5.3261
  5.3295   5.3329   5.3427   5.3667   5.3784   5.3846   5.4034   5.4165
  5.4320   5.4467   5.4552   5.4821   5.4951   5.5092   5.5142   5.5145
  5.5173   5.5236   5.5401   5.5539   5.5577   5.5584   5.5650   5.5678
  5.5795   5.5855   5.5864   5.6071   5.6101   5.6152   5.6226   5.6346
  5.6426   5.6500   5.6586   5.6625   5.6663   5.6708   5.6934   5.6940
  5.6961   5.7077   5.7330   5.7396   5.7432   5.7597   5.7700   5.7708
  5.7844   5.7913   5.8057   5.8308   5.8431   5.8529   5.8793   5.9207
  5.9387   5.9514   5.9675   5.9929   6.0268   6.0288   6.0326   6.0416
  6.0467   6.0745   6.0934   6.1118   6.1231   6.1398   6.1563   6.1854
  6.1961   6.2192   6.2214   6.2254   6.2412   6.2544   6.2669   6.2830
  6.3048   6.3106   6.3239   6.3479   6.3643   6.3804   6.4312   6.4822
  6.5173   6.5293   6.5748   6.5826   6.6010   6.6163   6.6382   6.6592
  6.6743   6.7032   6.8445   6.8507   6.8881   6.9019   6.9046   6.9221
  6.9268   6.9326   7.1020   7.1100   7.1502   7.1946   7.1998   7.2353
  7.3473   7.3518   7.3569   7.3605   7.4752   7.5421   7.5699   7.5827
  7.5861   7.5957   7.6541   7.6783   7.6922   7.7129   8.8592  10.0588
 10.3267  11.3015  11.4960  11.7497  12.0206  12.1036  12.4147  12.4629
 12.9098  13.2198  13.3229  13.5593  13.7718  13.9220  14.0765  14.2960
 14.3556  14.3826  14.4913  14.6466  14.9821  15.6169  15.7978  16.3285
 --------------------------------------------------------------
 
          Ground-State Mulliken Net Atomic Charges

     Atom                 Charge (a.u.)
  ----------------------------------------
      1 C                    -0.084173
      2 C                    -0.030295
      3 C                    -0.111504
      4 C                    -0.123745
      5 H                     0.199173
      6 C                     0.024308
      7 C                     0.118766
      8 C                    -0.088837
      9 C                    -0.163022
     10 C                    -0.132384
     11 C                     0.180719
     12 H                     0.198107
     13 C                     0.342656
     14 C                     0.346305
     15 N                    -0.089872
     16 C                     0.357120
     17 C                     0.341851
     18 N                    -0.091256
     19 O                    -0.494440
     20 O                    -0.507605
     21 O                    -0.501401
     22 O                    -0.469413
     23 C                    -0.204797
     24 H                     0.139529
     25 H                     0.109369
     26 H                     0.108873
     27 C                    -0.197062
     28 H                     0.133177
     29 H                     0.111535
     30 H                     0.112024
     31 C                     0.004817
     32 S                     0.027206
     33 C                    -0.213107
     34 C                    -0.221981
     35 C                    -0.202220
     36 H                     0.190691
     37 H                     0.190821
     38 H                     0.209444
     39 H                     0.137509
     40 H                     0.138076
     41 H                     0.205040
  ----------------------------------------
  Sum of atomic charges =     0.000000

 -----------------------------------------------------------------
                    Cartesian Multipole Moments
 -----------------------------------------------------------------
    Charge (ESU x 10^10)
                 0.0000
    Dipole Moment (Debye)
         X      -0.8256      Y       1.9851      Z      -1.2092
       Tot       2.4667
    Quadrupole Moments (Debye-Ang)
        XX    -186.8280     XY      11.1123     YY    -178.2554
        XZ      14.4679     YZ      -2.7029     ZZ    -164.6392
    Octopole Moments (Debye-Ang^2)
       XXX       3.1529    XXY     563.6547    XYY     -43.1325
       YYY    1686.0219    XXZ     -24.8642    XYZ     -58.1027
       YYZ      11.3580    XZZ       3.4006    YZZ     506.3831
       ZZZ     -77.3444
    Hexadecapole Moments (Debye-Ang^3)
      XXXX   -4784.7778   XXXY      39.1184   XXYY   -4027.7030
      XYYY     991.1189   YYYY  -18032.4705   XXXZ    1369.0945
      XXYZ      47.1636   XYYZ     804.1446   YYYZ    -613.0741
      XXZZ   -1158.6647   XYZZ      25.9461   YYZZ   -3109.7708
      XZZZ    1277.5880   YZZZ    -189.0066   ZZZZ   -1928.8738
 -----------------------------------------------------------------
 Total job time:  308.49s(wall), 8897.66s(cpu) 
 Wed Sep 27 00:01:50 2023

        *************************************************************
        *                                                           *
        *  Thank you very much for using Q-Chem.  Have a nice day.  *
        *                                                           *
        *************************************************************


0 sent ACK to 0 
now end server 0 ... 
cleanup process ... done
remove work dirs ./qchem1607669.0 -- ./qchem1607669.0
rm -rf ./qchem1607669.0
rm -rf ./qchem1607669
