You are running Q-Chem version: 5.4.0

#
# job setting
#
local host:  exp-2-44
current dir: /expanse/lustre/projects/csd626/rramji/aromodel/PNDIT/Hydrogenated_Rotation_Test
input file:  Dimethyl_Naphthalene_Dicarboximide_Phi_30_Theta_350_Thiophene_Hydrogenated.qcin
output file: 
nprocs     : 1
nthreads   : 64
#
# qchem installation setting
#
QC:          /cm/shared/apps/spack/cpu/opt/spack/linux-centos8-zen2/gcc-10.2.0/qchem-5.4-akfmr7b3t57bfs6qan3padb2wnb2i7cl
QCAUX:       /cm/shared/apps/spack/cpu/opt/spack/linux-centos8-zen2/gcc-10.2.0/qchem-5.4-akfmr7b3t57bfs6qan3padb2wnb2i7cl/qcaux
QCPROG:      /cm/shared/apps/spack/cpu/opt/spack/linux-centos8-zen2/gcc-10.2.0/qchem-5.4-akfmr7b3t57bfs6qan3padb2wnb2i7cl/exe/qcprog.exe
QCPROG_S:    /cm/shared/apps/spack/cpu/opt/spack/linux-centos8-zen2/gcc-10.2.0/qchem-5.4-akfmr7b3t57bfs6qan3padb2wnb2i7cl/exe/qcprog.exe_s
PARALLEL:    -DPARALLEL
QCMPI:       mpich
#
# qchem directory setting
#
qcrun:       qchem2349675
QCSCRATCH:   .
QCLOCALSCR:  
QCTMPDIR:    .
QCFILEPREF:  ./qchem2349675
QCSAVEDIR:   
workdirs:    ./qchem2349675
workdir0:    ./qchem2349675
partmpdirs =  
#
# parallel setting
#
QCRSH:           ssh
QCMPI:           mpich
QCMPIRUN:        /cm/shared/apps/spack/cpu/opt/spack/linux-centos8-zen2/gcc-10.2.0/qchem-5.4-akfmr7b3t57bfs6qan3padb2wnb2i7cl/bin/mpi/mpirun_qchem
QCMACHINEFILE:   ./qchem2349675/hostfile
exp-2-44

#
# env setting
#
exported envs:   QC QCAUX QCSCRATCH QCRUNNAME QCFILEPREF QCPROG QCPROG_S GUIFILE

Running Job 1 of 1 Dimethyl_Naphthalene_Dicarboximide_Phi_30_Theta_350_Thiophene_Hydrogenated.qcin
qchem Dimethyl_Naphthalene_Dicarboximide_Phi_30_Theta_350_Thiophene_Hydrogenated.qcin_2349675.0 ./qchem2349675/ 1
/cm/shared/apps/spack/cpu/opt/spack/linux-centos8-zen2/gcc-10.2.0/qchem-5.4-akfmr7b3t57bfs6qan3padb2wnb2i7cl/bin/mpi/mpirun_qchem -machinefile ./qchem2349675/hostfile -np 1 /cm/shared/apps/spack/cpu/opt/spack/linux-centos8-zen2/gcc-10.2.0/qchem-5.4-akfmr7b3t57bfs6qan3padb2wnb2i7cl/exe/qcprog.exe Dimethyl_Naphthalene_Dicarboximide_Phi_30_Theta_350_Thiophene_Hydrogenated.qcin_2349675.0 ./qchem2349675/

Process 0 of 1 is on exp-2-44 - thread support 0
initial socket setup ...start
initial socket setup ...done 
now start server 0 ... 
                  Welcome to Q-Chem
     A Quantum Leap Into The Future Of Chemistry


 Q-Chem 5.4, Q-Chem, Inc., Pleasanton, CA (2021)

 License issued to: University of California, San Diego (site)

 E. Epifanovsky,  A. T. B. Gilbert,  Xintian Feng,  Joonho Lee,  Yuezhi Mao,  
 N. Mardirossian,  P. Pokhilko,  A. White,  M. Wormit,  M. P. Coons,  
 A. L. Dempwolff,  Zhengting Gan,  D. Hait,  P. R. Horn,  L. D. Jacobson,  
 I. Kaliman,  J. Kussmann,  A. W. Lange,  Ka Un Lao,  D. S. Levine,  Jie Liu,  
 S. C. McKenzie,  A. F. Morrison,  K. Nanda,  F. Plasser,  D. R. Rehn,  
 M. L. Vidal,  Zhi-Qiang You,  Ying Zhu,  B. Alam,  B. Albrecht,  
 A. Aldossary,  E. Alguire,  J. H. Andersen,  D. Barton,  K. Begam,  A. Behn,  
 Y. A. Bernard,  E. J. Berquist,  H. Burton,  A. Carreras,  K. Carter-Fenk,  
 R. Chakraborty,  A. D. Chien,  K. D. Closser,  V. Cofer-Shabica,  
 S. Dasgupta,  Jia Deng,  M. de Wergifosse,  M. Diedenhofen,  Hainam Do,  
 S. Ehlert,  Po-Tung Fang,  S. Fatehi,  Qingguo Feng,  J. Gayvert,  
 Qinghui Ge,  G. Gidofalvi,  M. Goldey,  J. Gomes,  C. Gonzalez-Espinoza,  
 S. Gulania,  A. Gunina,  M. W. D. Hanson-Heine,  P. H. P. Harbach,  
 A. W. Hauser,  M. F. Herbst,  M. Hernandez Vera,  M. Hodecker,  
 Z. C. Holden,  S. Houck,  Xunkun Huang,  Kerwin Hui,  B. C. Huynh,  
 M. Ivanov,  Hyunjun Ji,  Hanjie Jiang,  B. Kaduk,  S. Kaehler,  
 K. Khistyaev,  Jaehoon Kim,  P. Klunzinger,  Z. Koczor-Benda,  
 Joong Hoon Koh,  D. Kosenkov,  L. Koulias,  T. Kowalczyk,  C. M. Krauter,  
 K. Kue,  A. Kunitsa,  T. Kus,  A. Landau,  K. V. Lawler,  D. Lefrancois,  
 S. Lehtola,  Rain Li,  Yi-Pei Li,  Jiashu Liang,  M. Liebenthal,  
 Hung-Hsuan Lin,  You-Sheng Lin,  Fenglai Liu,  Kuan-Yu Liu,  
 M. Loipersberger,  A. Luenser,  A. Manjanath,  P. Manohar,  E. Mansoor,  
 S. F. Manzer,  Shan-Ping Mao,  A. V. Marenich,  T. Markovich,  S. Mason,  
 S. A. Maurer,  P. F. McLaughlin,  M. F. S. J. Menger,  J.-M. Mewes,  
 S. A. Mewes,  P. Morgante,  J. W. Mullinax,  T. S. Nguyen-Beck,  
 K. J. Oosterbaan,  G. Paran,  Alexander C. Paul,  Suranjan K. Paul,  
 F. Pavosevic,  Zheng Pei,  S. Prager,  E. I. Proynov,  E. Ramos,  B. Rana,  
 A. E. Rask,  A. Rettig,  R. M. Richard,  F. Rob,  E. Rossomme,  T. Scheele,  
 M. Scheurer,  M. Schneider,  N. Sergueev,  S. M. Sharada,  W. Skomorowski,  
 D. W. Small,  C. J. Stein,  Yu-Chuan Su,  E. J. Sundstrom,  Zhen Tao,  
 J. Thirman,  T. Tsuchimochi,  N. M. Tubman,  S. P. Veccham,  O. Vydrov,  
 J. Wenzel,  J. Witte,  A. Yamada,  Kun Yao,  S. Yeganeh,  S. R. Yost,  
 A. Zech,  Igor Ying Zhang,  Xing Zhang,  Yu Zhang,  D. Zuev,  
 A. Aspuru-Guzik,  A. T. Bell,  N. A. Besley,  K. B. Bravaya,  B. R. Brooks,  
 D. Casanova,  Jeng-Da Chai,  S. Coriani,  C. J. Cramer,  
 A. E. DePrince, III,  R. A. DiStasio Jr.,  A. Dreuw,  B. D. Dunietz,  
 T. R. Furlani,  W. A. Goddard III,  S. Grimme,  S. Hammes-Schiffer,  
 T. Head-Gordon,  W. J. Hehre,  Chao-Ping Hsu,  T.-C. Jagau,  Yousung Jung,  
 A. Klamt,  Jing Kong,  D. S. Lambrecht,  WanZhen Liang,  N. J. Mayhall,  
 C. W. McCurdy,  J. B. Neaton,  C. Ochsenfeld,  J. A. Parkhill,  R. Peverati,  
 V. A. Rassolov,  Yihan Shao,  L. V. Slipchenko,  T. Stauch,  R. P. Steele,  
 J. E. Subotnik,  A. J. W. Thom,  A. Tkatchenko,  D. G. Truhlar,  
 T. Van Voorhis,  T. A. Wesolowski,  K. B. Whaley,  H. L. Woodcock III,  
 P. M. Zimmerman,  S. Faraji,  P. M. W. Gill,  M. Head-Gordon,  
 J. M. Herbert,  A. I. Krylov

 Contributors to earlier versions of Q-Chem not listed above: 
 R. D. Adamson,  B. Austin,  R. Baer,  J. Baker,  G. J. O. Beran,  
 K. Brandhorst,  S. T. Brown,  E. F. C. Byrd,  A. K. Chakraborty,  
 G. K. L. Chan,  Chun-Min Chang,  Yunqing Chen,  C.-L. Cheng,  
 Siu Hung Chien,  D. M. Chipman,  D. L. Crittenden,  H. Dachsel,  
 R. J. Doerksen,  A. D. Dutoi,  R. G. Edgar,  J. Fosso-Tande,  
 L. Fusti-Molnar,  D. Ghosh,  A. Ghysels,  A. Golubeva-Zadorozhnaya,  
 J. Gonthier,  M. S. Gordon,  S. R. Gwaltney,  G. Hawkins,  J. E. Herr,  
 A. Heyden,  S. Hirata,  E. G. Hohenstein,  G. Kedziora,  F. J. Keil,  
 C. Kelley,  Jihan Kim,  R. A. King,  R. Z. Khaliullin,  P. P. Korambath,  
 W. Kurlancheek,  A. Laurent,  A. M. Lee,  M. S. Lee,  S. V. Levchenko,  
 Ching Yeh Lin,  D. Liotard,  E. Livshits,  R. C. Lochan,  I. Lotan,  
 L. A. Martinez-Martinez,  P. E. Maslen,  N. Nair,  D. P. O'Neill,  
 D. Neuhauser,  E. Neuscamman,  C. M. Oana,  R. Olivares-Amaya,  R. Olson,  
 T. M. Perrine,  B. Peters,  P. A. Pieniazek,  A. Prociuk,  Y. M. Rhee,  
 J. Ritchie,  M. A. Rohrdanz,  E. Rosta,  N. J. Russ,  H. F. Schaefer III,  
 M. W. Schmidt,  N. E. Schultz,  S. Sharma,  N. Shenvi,  C. D. Sherrill,  
 A. C. Simmonett,  A. Sodt,  T. Stein,  D. Stuck,  K. S. Thanthiriwatte,  
 V. Vanovschi,  L. Vogt,  Tao Wang,  A. Warshel,  M. A. Watson,  
 C. F. Williams,  Q. Wu,  X. Xu,  Jun Yang,  W. Zhang,  Yan Zhao

 Please cite Q-Chem as follows:
 Y. Shao et al., Mol. Phys. 113, 184-215 (2015)
 DOI: 10.1080/00268976.2014.952696

 Q-Chem 5.4.0 for Intel X86 EM64T Linux

 Parts of Q-Chem use Armadillo 9.800.1 (Horizon Scraper).
 http://arma.sourceforge.net/

 Q-Chem begins on Sun Sep 24 17:58:12 2023  

 Host: 
0

     Scratch files written to ./qchem2349675//
 May1621 |scratch|qcdevops|jenkins|workspace|build_RNUM    
 Parallel job on  1  processors
 Processing $rem in /cm/shared/apps/spack/cpu/opt/spack/linux-centos8-zen2/gcc-10.2.0/qchem-5.4-akfmr7b3t57bfs6qan3padb2wnb2i7cl/config/preferences:
 Processing $rem in /home/rramji/.qchemrc:
 Symmetry turned off for PCM/SM12/SMD calculation
 Core orbitals will be frozen

 Checking the input file for inconsistencies... 	...done.

 Q-Chem warning in module forms1/BasisType.C, line 2236:

 You are not using the predefined 5D/6D in this basis set.


--------------------------------------------------------------
User input:
--------------------------------------------------------------
$molecule
0 1
C	-0.046070	-6.741404	-0.252767
C	-0.272935	-6.155638	-1.538656
C	0.141739	-5.791452	0.814966
C	-0.321083	-4.803786	-1.813042
H	-0.425592	-6.821518	-2.403318
C	0.091779	-4.378638	0.527566
C	-0.138909	-3.838032	-0.782769
C	0.273808	-3.413062	1.556632
C	-0.188483	-2.426473	-1.067868
C	0.226610	-2.059348	1.285436
C	0.000000	-1.478216	0.000000
H	0.379657	-1.394783	2.151019
C	0.390420	-6.187987	2.235891
C	0.522125	-3.798164	2.965540
N	0.562731	-5.170003	3.205600
C	-0.570244	-4.424987	-3.225760
C	-0.438407	-2.036627	-2.489646
N	-0.610438	-3.049156	-3.459662
O	0.455563	-7.353131	2.621768
O	0.683373	-2.986854	3.874608
O	-0.729367	-5.248946	-4.124059
O	-0.508697	-0.878829	-2.896516
C	0.806996	-5.563799	4.596910
H	0.813717	-6.664085	4.641640
H	0.013655	-5.147101	5.246567
H	1.775159	-5.148785	4.936739
C	-0.851572	-2.587487	-4.829729
H	-0.964204	-3.483329	-5.462387
H	-0.003956	-1.964972	-5.173914
H	-1.764390	-1.962932	-4.863360
C	0.000000	0.000000	0.000000
S	0.396411	0.687007	1.580530
C	1.215245	2.105322	0.904911
C	0.498850	0.864369	-0.985400
C	1.158885	2.007781	-0.493528
H	0.381046	0.660280	-2.059934
H	1.599289	2.770727	-1.152593
H	1.655514	2.868056	1.556025
H	0.857128	-7.361589	-0.303328
H	-0.912587	-7.361192	0.007933
H	1.063684	-1.478831	-0.187017
$end

$rem
JOBTYPE		SP
EXCHANGE	HF
CORRELATION	pRIMP2
BASIS		cc-pvtz
METHOD		rimp2
AUX_BASIS	rimp2-cc-pvtz
SOLVENT_METHOD	PCM
PURECART	11111
SYMMETRY	false
MEM_TOTAL	110000
SCF_CONVERGENCE = 6
THRESH=10
GUI = 2
$end



$solvent
dielectric 4.90
$end
--------------------------------------------------------------
 ----------------------------------------------------------------
             Standard Nuclear Orientation (Angstroms)
    I     Atom           X                Y                Z
 ----------------------------------------------------------------
    1      C      -0.0460700000    -6.7414040000    -0.2527670000
    2      C      -0.2729350000    -6.1556380000    -1.5386560000
    3      C       0.1417390000    -5.7914520000     0.8149660000
    4      C      -0.3210830000    -4.8037860000    -1.8130420000
    5      H      -0.4255920000    -6.8215180000    -2.4033180000
    6      C       0.0917790000    -4.3786380000     0.5275660000
    7      C      -0.1389090000    -3.8380320000    -0.7827690000
    8      C       0.2738080000    -3.4130620000     1.5566320000
    9      C      -0.1884830000    -2.4264730000    -1.0678680000
   10      C       0.2266100000    -2.0593480000     1.2854360000
   11      C       0.0000000000    -1.4782160000     0.0000000000
   12      H       0.3796570000    -1.3947830000     2.1510190000
   13      C       0.3904200000    -6.1879870000     2.2358910000
   14      C       0.5221250000    -3.7981640000     2.9655400000
   15      N       0.5627310000    -5.1700030000     3.2056000000
   16      C      -0.5702440000    -4.4249870000    -3.2257600000
   17      C      -0.4384070000    -2.0366270000    -2.4896460000
   18      N      -0.6104380000    -3.0491560000    -3.4596620000
   19      O       0.4555630000    -7.3531310000     2.6217680000
   20      O       0.6833730000    -2.9868540000     3.8746080000
   21      O      -0.7293670000    -5.2489460000    -4.1240590000
   22      O      -0.5086970000    -0.8788290000    -2.8965160000
   23      C       0.8069960000    -5.5637990000     4.5969100000
   24      H       0.8137170000    -6.6640850000     4.6416400000
   25      H       0.0136550000    -5.1471010000     5.2465670000
   26      H       1.7751590000    -5.1487850000     4.9367390000
   27      C      -0.8515720000    -2.5874870000    -4.8297290000
   28      H      -0.9642040000    -3.4833290000    -5.4623870000
   29      H      -0.0039560000    -1.9649720000    -5.1739140000
   30      H      -1.7643900000    -1.9629320000    -4.8633600000
   31      C       0.0000000000     0.0000000000     0.0000000000
   32      S       0.3964110000     0.6870070000     1.5805300000
   33      C       1.2152450000     2.1053220000     0.9049110000
   34      C       0.4988500000     0.8643690000    -0.9854000000
   35      C       1.1588850000     2.0077810000    -0.4935280000
   36      H       0.3810460000     0.6602800000    -2.0599340000
   37      H       1.5992890000     2.7707270000    -1.1525930000
   38      H       1.6555140000     2.8680560000     1.5560250000
   39      H       0.8571280000    -7.3615890000    -0.3033280000
   40      H      -0.9125870000    -7.3611920000     0.0079330000
   41      H       1.0636840000    -1.4788310000    -0.1870170000
 ----------------------------------------------------------------
 Nuclear Repulsion Energy =        2562.16595801 hartrees
 There are       98 alpha and       98 beta electrons
 Requested basis set is cc-pVTZ
 There are 356 shells and 1010 basis functions

 Total QAlloc Memory Limit 110000 MB
 Mega-Array Size       188 MB
 MEM_STATIC part       192 MB
 Discretize the solute cavity surface with Lebedev spheres
	Using 110 Lebedev grid points for each H atom
	Using 194 Lebedev grid points for other atoms
	Atomic van der Waals radii will be scaled by 1.20
 Remove points where switching function is < 1.0e-08
 Keep 2599 surface tesserae and discard 4179 interior tesserae
 Molecular Surface Area = 360.920 Angst**2
 Requested basis set is rimp2-cc-pVTZ
 There are 770 shells and 2648 basis functions
 A cutoff of  1.0D-10 yielded  34395 shell pairs
 There are    260193 function pairs (    336776 Cartesian)
 Smallest overlap matrix eigenvalue = 8.90E-06

 Q-Chem warning in module stvman/mkSTV.C, line 323:

 Overlap eigenvalue is smaller than square root of threshold
 Use THRESH >= 12 to get rid of this warning


 Scale SEOQF with 1.000000e-01/1.000000e-02/1.000000e-02

 Standard Electronic Orientation quadrupole field applied
 Nucleus-field energy     =     0.0000000117 hartrees
 Guess from superposition of atomic densities
 Warning:  Energy on first SCF cycle will be non-variational
 SAD guess density has 196.000000 electrons

 -----------------------------------------------------------------------
  General SCF calculation program by
  Eric Jon Sundstrom, Paul Horn, Yuezhi Mao, Dmitri Zuev, Alec White,
  David Stuck, Shaama M.S., Shane Yost, Joonho Lee, David Small,
  Daniel Levine, Susi Lehtola, Hugh Burton, Evgeny Epifanovsky,
  Bang C. Huynh
 -----------------------------------------------------------------------
 Hartree-Fock
 using 64 threads for integral computing
 -------------------------------------------------------
 OpenMP Integral computing Module                
 Release: version 1.0, May 2013, Q-Chem Inc. Pittsburgh 
 -------------------------------------------------------
 A restricted SCF calculation will be
 performed using DIIS
 SCF converges when DIIS error is below 1.0e-06
 ---------------------------------------
  Cycle       Energy         DIIS error
 ---------------------------------------
    1   -1583.2367816742      1.87e-02  
    2   -1571.1390622461      2.03e-03  
    3   -1571.4814853010      1.54e-03  
    4   -1571.7008280232      2.54e-04  
    5   -1571.7147767525      7.87e-05  
    6   -1571.7162184714      3.03e-05  
    7   -1571.7166469207      1.54e-05  
    8   -1571.7167610008      6.10e-06  
    9   -1571.7167801832      2.83e-06  
   10   -1571.7167838680      1.19e-06  
   11   -1571.7167850215      5.79e-07  Convergence criterion met
 ---------------------------------------
 SCF time:   CPU 7163.27s  wall 266.00s 

************** Final PCM Free Energy Summary **************
 G_electrostatic  =      -0.02752124 hartree =     -17.26983927 kcal/mol
 G_cavitation     =       0.00000000 hartree =       0.00000000 kcal/mol
 G_dispersion     =       0.00000000 hartree =       0.00000000 kcal/mol
 G_repulsion      =       0.00000000 hartree =       0.00000000 kcal/mol
 --------------------------------------------------
 Non-electrostatic Free Energy =       0.00000000 hartree =       0.00000000 kcal/mol
 Total                         =      -0.02752124 hartree =     -17.26983927 kcal/mol
 --------------------------------------------------
 SCF Energy (H0 + V/2)                       =   -1571.71678502 
 Solute Internal Energy (H0)                 =   -1571.68926378 
 Total Free Energy (H0 + V/2 + non-elec)     =   -1571.71678502 hartree
                                             = -986267.16833063 kcal/mol
***********************************************************

 SCF   energy in the final basis set =    -1571.7167850215
 Total energy in the final basis set =    -1571.7167850215


 --------------------------------------------------------------
  Generalized many-body perturbation theory program
  by Joonho Lee, Fazle Rob, Xintian Feng, Evgeny Epifanovsky

 No regularization used 
 (reg. param. = 0.0000e+00)
  (P|Q)^-1/2 Time:  CPU 131.97 s  wall 2.88 s

 In RI-MP2 calculation: 
 # of frozen core orbitals: 31

 Components of the RIMP2 correlation energy:
        aaaa    correlation energy =        -0.6169890662 a.u.
        abab    correlation energy =        -3.4293176118 a.u.
        bbbb    correlation energy =        -0.6169890662 a.u.
        non-Brillouin singles      =        -0.0000000000 a.u.
        total same-spin energy     =        -1.2339781324 a.u.
        total opposite-spin energy =        -3.4293176118 a.u.

 Total  RIMP2   correlation energy =        -4.6632957442 a.u.
        RIMP2         total energy =     -1576.3800807656 a.u.

 RI-MP2 Energy Time:  CPU 2025.96 s  wall 33.57 s
 
 --------------------------------------------------------------
 
                    Orbital Energies (a.u.)
 --------------------------------------------------------------
 
 Alpha MOs
 -- Occupied --
-91.9893 -20.5540 -20.5456 -20.5416 -20.5406 -15.6289 -15.6213 -11.3970
-11.3863 -11.3835 -11.3790 -11.3094 -11.3060 -11.3052 -11.3045 -11.2974
-11.2946 -11.2911 -11.2799 -11.2692 -11.2688 -11.2652 -11.2642 -11.2593
-11.2531 -11.2480 -11.2417  -8.9898  -6.6706  -6.6700  -6.6694  -1.4233
 -1.4122  -1.3997  -1.3913  -1.2643  -1.2555  -1.2322  -1.1897  -1.1505
 -1.1145  -1.0865  -1.0482  -0.9964  -0.9885  -0.9855  -0.9555  -0.9486
 -0.8975  -0.8899  -0.8776  -0.8605  -0.7953  -0.7815  -0.7722  -0.7593
 -0.7392  -0.7191  -0.7011  -0.6909  -0.6842  -0.6733  -0.6682  -0.6578
 -0.6489  -0.6475  -0.6376  -0.6317  -0.6312  -0.6293  -0.6237  -0.6049
 -0.5931  -0.5723  -0.5660  -0.5615  -0.5586  -0.5524  -0.5508  -0.5491
 -0.5478  -0.5428  -0.5174  -0.5147  -0.5072  -0.4856  -0.4748  -0.4594
 -0.4572  -0.4508  -0.4427  -0.4356  -0.4154  -0.4079  -0.3581  -0.3489
 -0.3329  -0.2771
 -- Virtual --
  0.0115   0.0397   0.0833   0.0948   0.1453   0.1504   0.1578   0.1591
  0.1634   0.1701   0.1775   0.1803   0.1891   0.1962   0.2029   0.2078
  0.2136   0.2239   0.2254   0.2284   0.2327   0.2358   0.2508   0.2588
  0.2641   0.2723   0.3028   0.3116   0.3198   0.3211   0.3310   0.3350
  0.3397   0.3398   0.3414   0.3534   0.3567   0.3596   0.3636   0.3680
  0.3718   0.3825   0.3869   0.3903   0.3905   0.3973   0.4068   0.4142
  0.4204   0.4246   0.4279   0.4328   0.4351   0.4413   0.4428   0.4500
  0.4551   0.4608   0.4627   0.4699   0.4778   0.4823   0.4894   0.4963
  0.4987   0.5018   0.5044   0.5085   0.5138   0.5190   0.5245   0.5278
  0.5345   0.5399   0.5480   0.5494   0.5548   0.5586   0.5623   0.5663
  0.5712   0.5772   0.5807   0.5845   0.5886   0.5916   0.5980   0.6025
  0.6032   0.6076   0.6083   0.6100   0.6180   0.6193   0.6247   0.6275
  0.6314   0.6322   0.6356   0.6381   0.6453   0.6459   0.6524   0.6611
  0.6672   0.6732   0.6762   0.6823   0.6914   0.6939   0.6970   0.7009
  0.7115   0.7183   0.7279   0.7332   0.7400   0.7415   0.7515   0.7587
  0.7626   0.7657   0.7709   0.7759   0.7862   0.7890   0.7976   0.8047
  0.8080   0.8196   0.8267   0.8305   0.8341   0.8387   0.8461   0.8516
  0.8526   0.8611   0.8659   0.8694   0.8719   0.8765   0.8788   0.8889
  0.8992   0.9007   0.9046   0.9090   0.9155   0.9243   0.9257   0.9302
  0.9350   0.9416   0.9545   0.9556   0.9619   0.9640   0.9665   0.9785
  0.9807   0.9878   0.9949   0.9991   1.0024   1.0072   1.0105   1.0246
  1.0265   1.0330   1.0373   1.0476   1.0527   1.0572   1.0601   1.0651
  1.0693   1.0716   1.0761   1.0790   1.0857   1.0897   1.0972   1.1069
  1.1130   1.1161   1.1203   1.1279   1.1336   1.1359   1.1374   1.1447
  1.1451   1.1597   1.1651   1.1697   1.1729   1.1779   1.1813   1.1839
  1.1950   1.2000   1.2025   1.2082   1.2108   1.2175   1.2235   1.2290
  1.2357   1.2388   1.2438   1.2484   1.2504   1.2611   1.2696   1.2728
  1.2739   1.2838   1.2972   1.3048   1.3140   1.3241   1.3267   1.3392
  1.3472   1.3496   1.3560   1.3611   1.3677   1.3834   1.3839   1.3878
  1.3903   1.3950   1.4006   1.4098   1.4173   1.4219   1.4351   1.4487
  1.4508   1.4568   1.4632   1.4662   1.4749   1.4830   1.4911   1.4949
  1.5016   1.5062   1.5116   1.5195   1.5200   1.5291   1.5329   1.5386
  1.5472   1.5473   1.5548   1.5635   1.5668   1.5718   1.5780   1.5847
  1.5877   1.5975   1.6062   1.6131   1.6257   1.6327   1.6357   1.6457
  1.6544   1.6566   1.6641   1.6731   1.6803   1.6885   1.6963   1.7014
  1.7066   1.7151   1.7253   1.7382   1.7455   1.7500   1.7574   1.7612
  1.7655   1.7737   1.7855   1.7877   1.7994   1.8025   1.8063   1.8109
  1.8251   1.8373   1.8415   1.8474   1.8508   1.8640   1.8682   1.8708
  1.8759   1.8777   1.8928   1.9013   1.9111   1.9246   1.9504   1.9581
  1.9627   1.9697   1.9738   1.9869   1.9896   2.0011   2.0222   2.0325
  2.0393   2.0444   2.0599   2.0775   2.0860   2.1046   2.1217   2.1282
  2.1390   2.1537   2.1685   2.1729   2.1827   2.1862   2.2107   2.2155
  2.2339   2.2424   2.2628   2.2788   2.2865   2.2908   2.3010   2.3119
  2.3188   2.3275   2.3385   2.3421   2.3590   2.3673   2.3762   2.3890
  2.4123   2.4213   2.4348   2.4394   2.4565   2.4592   2.4729   2.4812
  2.4954   2.5019   2.5096   2.5178   2.5214   2.5406   2.5461   2.5518
  2.5644   2.5700   2.5802   2.5848   2.5891   2.5970   2.6027   2.6251
  2.6306   2.6389   2.6397   2.6486   2.6532   2.6732   2.6759   2.6788
  2.6892   2.6970   2.6988   2.7053   2.7202   2.7276   2.7309   2.7394
  2.7478   2.7539   2.7583   2.7642   2.7654   2.7778   2.7890   2.8018
  2.8136   2.8290   2.8430   2.8478   2.8594   2.8613   2.8661   2.8747
  2.8780   2.8793   2.8889   2.8921   2.8993   2.9039   2.9078   2.9121
  2.9237   2.9281   2.9335   2.9481   2.9519   2.9695   2.9736   2.9762
  2.9778   2.9832   2.9982   3.0004   3.0067   3.0122   3.0225   3.0332
  3.0346   3.0460   3.0486   3.0540   3.0685   3.0804   3.0853   3.0954
  3.1001   3.1014   3.1051   3.1068   3.1100   3.1164   3.1252   3.1299
  3.1341   3.1411   3.1442   3.1529   3.1616   3.1639   3.1716   3.1742
  3.1816   3.1960   3.1986   3.2043   3.2083   3.2135   3.2202   3.2278
  3.2311   3.2423   3.2467   3.2486   3.2538   3.2576   3.2622   3.2649
  3.2708   3.2727   3.2752   3.2814   3.2851   3.3027   3.3033   3.3107
  3.3126   3.3151   3.3183   3.3268   3.3285   3.3321   3.3380   3.3406
  3.3437   3.3478   3.3535   3.3568   3.3622   3.3633   3.3690   3.3747
  3.3805   3.3841   3.3933   3.3948   3.4001   3.4065   3.4123   3.4138
  3.4211   3.4275   3.4305   3.4335   3.4407   3.4517   3.4530   3.4540
  3.4573   3.4601   3.4684   3.4715   3.4760   3.4819   3.4845   3.4932
  3.4969   3.5013   3.5054   3.5110   3.5163   3.5196   3.5251   3.5295
  3.5410   3.5461   3.5554   3.5596   3.5649   3.5725   3.5774   3.5814
  3.5867   3.5913   3.5934   3.6027   3.6158   3.6228   3.6235   3.6259
  3.6303   3.6348   3.6384   3.6408   3.6442   3.6517   3.6548   3.6705
  3.6729   3.6767   3.6860   3.6917   3.6968   3.6999   3.7109   3.7156
  3.7224   3.7281   3.7290   3.7371   3.7439   3.7488   3.7526   3.7566
  3.7588   3.7672   3.7719   3.7796   3.7887   3.7946   3.8004   3.8022
  3.8096   3.8174   3.8221   3.8268   3.8323   3.8386   3.8422   3.8474
  3.8602   3.8631   3.8687   3.8787   3.8900   3.8949   3.9074   3.9078
  3.9171   3.9178   3.9292   3.9364   3.9425   3.9480   3.9563   3.9618
  3.9674   3.9728   3.9757   3.9854   3.9922   4.0023   4.0055   4.0143
  4.0315   4.0345   4.0402   4.0464   4.0514   4.0562   4.0652   4.0756
  4.0812   4.1056   4.1118   4.1218   4.1344   4.1385   4.1413   4.1486
  4.1506   4.1613   4.1680   4.1731   4.1745   4.1805   4.1877   4.1916
  4.2163   4.2273   4.2412   4.2465   4.2469   4.2589   4.2631   4.2664
  4.2742   4.2811   4.2844   4.2890   4.2995   4.3020   4.3051   4.3110
  4.3144   4.3210   4.3268   4.3316   4.3380   4.3427   4.3483   4.3536
  4.3655   4.3688   4.3707   4.3766   4.3798   4.3889   4.3983   4.4035
  4.4070   4.4122   4.4149   4.4183   4.4258   4.4454   4.4470   4.4604
  4.4696   4.4862   4.4923   4.5012   4.5077   4.5168   4.5243   4.5321
  4.5439   4.5470   4.5527   4.5618   4.5697   4.5815   4.5890   4.5939
  4.6005   4.6019   4.6057   4.6116   4.6146   4.6268   4.6320   4.6388
  4.6502   4.6567   4.6803   4.6857   4.6936   4.7029   4.7073   4.7196
  4.7259   4.7349   4.7554   4.7623   4.7760   4.7892   4.7936   4.8060
  4.8230   4.8329   4.8392   4.8515   4.8582   4.8707   4.8792   4.8857
  4.8983   4.8996   4.9235   4.9315   4.9514   4.9601   4.9726   4.9827
  4.9946   4.9988   5.0210   5.0250   5.0327   5.0370   5.0537   5.0570
  5.0873   5.0993   5.1029   5.1169   5.1212   5.1326   5.1403   5.1508
  5.1568   5.1760   5.1804   5.1891   5.1977   5.2048   5.2243   5.2315
  5.2613   5.2690   5.2771   5.2867   5.2947   5.3127   5.3272   5.3308
  5.3323   5.3421   5.3617   5.3716   5.3787   5.3911   5.4026   5.4159
  5.4381   5.4451   5.4757   5.4859   5.4932   5.5111   5.5134   5.5171
  5.5211   5.5364   5.5407   5.5538   5.5570   5.5633   5.5672   5.5719
  5.5795   5.5861   5.5969   5.6069   5.6119   5.6216   5.6282   5.6355
  5.6487   5.6491   5.6614   5.6663   5.6667   5.6691   5.6922   5.6942
  5.7019   5.7121   5.7257   5.7444   5.7527   5.7626   5.7748   5.7808
  5.7861   5.7896   5.8275   5.8351   5.8465   5.8643   5.8929   5.9091
  5.9387   5.9644   5.9690   5.9798   6.0028   6.0274   6.0399   6.0443
  6.0596   6.0635   6.1100   6.1158   6.1290   6.1436   6.1620   6.1866
  6.2029   6.2217   6.2241   6.2258   6.2486   6.2703   6.2760   6.2834
  6.3077   6.3167   6.3241   6.3533   6.3689   6.3882   6.4231   6.4875
  6.5244   6.5363   6.5791   6.5831   6.5979   6.6191   6.6425   6.6594
  6.6745   6.6822   6.8506   6.8547   6.8916   6.9025   6.9062   6.9270
  6.9274   7.0101   7.1061   7.1310   7.1544   7.1967   7.2080   7.2476
  7.3477   7.3518   7.3587   7.3762   7.4769   7.5430   7.5719   7.5838
  7.5949   7.6256   7.6553   7.6938   7.7035   7.7441   8.9583  10.0216
 10.3959  11.3139  11.5502  11.7964  12.0226  12.1962  12.4282  12.5114
 12.9984  13.2413  13.4437  13.5749  13.7952  13.9357  14.0870  14.2985
 14.3299  14.3729  14.5707  14.6797  15.0260  15.6238  15.8332  16.3523
 --------------------------------------------------------------
 
          Ground-State Mulliken Net Atomic Charges

     Atom                 Charge (a.u.)
  ----------------------------------------
      1 C                    -0.084082
      2 C                    -0.031887
      3 C                    -0.106118
      4 C                    -0.121630
      5 H                     0.198951
      6 C                     0.023679
      7 C                     0.120365
      8 C                    -0.037584
      9 C                    -0.212106
     10 C                    -0.177697
     11 C                     0.171685
     12 H                     0.188136
     13 C                     0.340950
     14 C                     0.344034
     15 N                    -0.089747
     16 C                     0.357809
     17 C                     0.381083
     18 N                    -0.089320
     19 O                    -0.494624
     20 O                    -0.507825
     21 O                    -0.500635
     22 O                    -0.484851
     23 C                    -0.205039
     24 H                     0.139480
     25 H                     0.109481
     26 H                     0.109135
     27 C                    -0.198595
     28 H                     0.134268
     29 H                     0.111290
     30 H                     0.112427
     31 C                     0.018544
     32 S                    -0.002059
     33 C                    -0.216439
     34 C                    -0.194739
     35 C                    -0.227710
     36 H                     0.220561
     37 H                     0.191456
     38 H                     0.214890
     39 H                     0.137846
     40 H                     0.138101
     41 H                     0.218519
  ----------------------------------------
  Sum of atomic charges =     0.000000

 -----------------------------------------------------------------
                    Cartesian Multipole Moments
 -----------------------------------------------------------------
    Charge (ESU x 10^10)
                 0.0000
    Dipole Moment (Debye)
         X       1.6511      Y       1.6684      Z      -2.3065
       Tot       3.2908
    Quadrupole Moments (Debye-Ang)
        XX    -160.8056     XY       4.8101     YY    -179.9557
        XZ      -5.4452     YZ       9.7915     ZZ    -187.8404
    Octopole Moments (Debye-Ang^2)
       XXX     -63.1225    XXY     475.6705    XYY     -15.1420
       YYY    1687.8189    XXZ      -0.6377    XYZ      26.5783
       YYZ     -58.7625    XZZ     -15.8823    YZZ     607.9429
       ZZZ      -8.6391
    Hexadecapole Moments (Debye-Ang^3)
      XXXX    -507.0615   XXXY     -47.9842   XXYY   -2669.0058
      XYYY     128.7405   YYYY  -17968.9819   XXXZ    -515.9087
      XXYZ     105.4911   XYYZ    -313.7748   YYYZ    1139.4267
      XXZZ   -1098.5412   XYZZ     -55.3565   YYZZ   -4429.4117
      XZZZ    -581.9697   YZZZ      19.1844   ZZZZ   -6428.7782
 -----------------------------------------------------------------
 Total job time:  311.55s(wall), 9858.98s(cpu) 
 Sun Sep 24 18:03:23 2023

        *************************************************************
        *                                                           *
        *  Thank you very much for using Q-Chem.  Have a nice day.  *
        *                                                           *
        *************************************************************


0 sent ACK to 0 
now end server 0 ... 
cleanup process ... done
remove work dirs ./qchem2349675.0 -- ./qchem2349675.0
rm -rf ./qchem2349675.0
rm -rf ./qchem2349675
