You are running Q-Chem version: 5.4.0

#
# job setting
#
local host:  exp-2-42
current dir: /expanse/lustre/projects/csd626/rramji/aromodel/PNDIT/Hydrogenated_Rotation_Test
input file:  Dimethyl_Naphthalene_Dicarboximide_Phi_20_Theta_200_Thiophene_Hydrogenated.qcin
output file: 
nprocs     : 1
nthreads   : 64
#
# qchem installation setting
#
QC:          /cm/shared/apps/spack/cpu/opt/spack/linux-centos8-zen2/gcc-10.2.0/qchem-5.4-akfmr7b3t57bfs6qan3padb2wnb2i7cl
QCAUX:       /cm/shared/apps/spack/cpu/opt/spack/linux-centos8-zen2/gcc-10.2.0/qchem-5.4-akfmr7b3t57bfs6qan3padb2wnb2i7cl/qcaux
QCPROG:      /cm/shared/apps/spack/cpu/opt/spack/linux-centos8-zen2/gcc-10.2.0/qchem-5.4-akfmr7b3t57bfs6qan3padb2wnb2i7cl/exe/qcprog.exe
QCPROG_S:    /cm/shared/apps/spack/cpu/opt/spack/linux-centos8-zen2/gcc-10.2.0/qchem-5.4-akfmr7b3t57bfs6qan3padb2wnb2i7cl/exe/qcprog.exe_s
PARALLEL:    -DPARALLEL
QCMPI:       mpich
#
# qchem directory setting
#
qcrun:       qchem4098573
QCSCRATCH:   .
QCLOCALSCR:  
QCTMPDIR:    .
QCFILEPREF:  ./qchem4098573
QCSAVEDIR:   
workdirs:    ./qchem4098573
workdir0:    ./qchem4098573
partmpdirs =  
#
# parallel setting
#
QCRSH:           ssh
QCMPI:           mpich
QCMPIRUN:        /cm/shared/apps/spack/cpu/opt/spack/linux-centos8-zen2/gcc-10.2.0/qchem-5.4-akfmr7b3t57bfs6qan3padb2wnb2i7cl/bin/mpi/mpirun_qchem
QCMACHINEFILE:   ./qchem4098573/hostfile
exp-2-42

#
# env setting
#
exported envs:   QC QCAUX QCSCRATCH QCRUNNAME QCFILEPREF QCPROG QCPROG_S GUIFILE

Running Job 1 of 1 Dimethyl_Naphthalene_Dicarboximide_Phi_20_Theta_200_Thiophene_Hydrogenated.qcin
qchem Dimethyl_Naphthalene_Dicarboximide_Phi_20_Theta_200_Thiophene_Hydrogenated.qcin_4098573.0 ./qchem4098573/ 1
/cm/shared/apps/spack/cpu/opt/spack/linux-centos8-zen2/gcc-10.2.0/qchem-5.4-akfmr7b3t57bfs6qan3padb2wnb2i7cl/bin/mpi/mpirun_qchem -machinefile ./qchem4098573/hostfile -np 1 /cm/shared/apps/spack/cpu/opt/spack/linux-centos8-zen2/gcc-10.2.0/qchem-5.4-akfmr7b3t57bfs6qan3padb2wnb2i7cl/exe/qcprog.exe Dimethyl_Naphthalene_Dicarboximide_Phi_20_Theta_200_Thiophene_Hydrogenated.qcin_4098573.0 ./qchem4098573/

Process 0 of 1 is on exp-2-42 - thread support 0
initial socket setup ...start
initial socket setup ...done 
now start server 0 ... 
                  Welcome to Q-Chem
     A Quantum Leap Into The Future Of Chemistry


 Q-Chem 5.4, Q-Chem, Inc., Pleasanton, CA (2021)

 License issued to: University of California, San Diego (site)

 E. Epifanovsky,  A. T. B. Gilbert,  Xintian Feng,  Joonho Lee,  Yuezhi Mao,  
 N. Mardirossian,  P. Pokhilko,  A. White,  M. Wormit,  M. P. Coons,  
 A. L. Dempwolff,  Zhengting Gan,  D. Hait,  P. R. Horn,  L. D. Jacobson,  
 I. Kaliman,  J. Kussmann,  A. W. Lange,  Ka Un Lao,  D. S. Levine,  Jie Liu,  
 S. C. McKenzie,  A. F. Morrison,  K. Nanda,  F. Plasser,  D. R. Rehn,  
 M. L. Vidal,  Zhi-Qiang You,  Ying Zhu,  B. Alam,  B. Albrecht,  
 A. Aldossary,  E. Alguire,  J. H. Andersen,  D. Barton,  K. Begam,  A. Behn,  
 Y. A. Bernard,  E. J. Berquist,  H. Burton,  A. Carreras,  K. Carter-Fenk,  
 R. Chakraborty,  A. D. Chien,  K. D. Closser,  V. Cofer-Shabica,  
 S. Dasgupta,  Jia Deng,  M. de Wergifosse,  M. Diedenhofen,  Hainam Do,  
 S. Ehlert,  Po-Tung Fang,  S. Fatehi,  Qingguo Feng,  J. Gayvert,  
 Qinghui Ge,  G. Gidofalvi,  M. Goldey,  J. Gomes,  C. Gonzalez-Espinoza,  
 S. Gulania,  A. Gunina,  M. W. D. Hanson-Heine,  P. H. P. Harbach,  
 A. W. Hauser,  M. F. Herbst,  M. Hernandez Vera,  M. Hodecker,  
 Z. C. Holden,  S. Houck,  Xunkun Huang,  Kerwin Hui,  B. C. Huynh,  
 M. Ivanov,  Hyunjun Ji,  Hanjie Jiang,  B. Kaduk,  S. Kaehler,  
 K. Khistyaev,  Jaehoon Kim,  P. Klunzinger,  Z. Koczor-Benda,  
 Joong Hoon Koh,  D. Kosenkov,  L. Koulias,  T. Kowalczyk,  C. M. Krauter,  
 K. Kue,  A. Kunitsa,  T. Kus,  A. Landau,  K. V. Lawler,  D. Lefrancois,  
 S. Lehtola,  Rain Li,  Yi-Pei Li,  Jiashu Liang,  M. Liebenthal,  
 Hung-Hsuan Lin,  You-Sheng Lin,  Fenglai Liu,  Kuan-Yu Liu,  
 M. Loipersberger,  A. Luenser,  A. Manjanath,  P. Manohar,  E. Mansoor,  
 S. F. Manzer,  Shan-Ping Mao,  A. V. Marenich,  T. Markovich,  S. Mason,  
 S. A. Maurer,  P. F. McLaughlin,  M. F. S. J. Menger,  J.-M. Mewes,  
 S. A. Mewes,  P. Morgante,  J. W. Mullinax,  T. S. Nguyen-Beck,  
 K. J. Oosterbaan,  G. Paran,  Alexander C. Paul,  Suranjan K. Paul,  
 F. Pavosevic,  Zheng Pei,  S. Prager,  E. I. Proynov,  E. Ramos,  B. Rana,  
 A. E. Rask,  A. Rettig,  R. M. Richard,  F. Rob,  E. Rossomme,  T. Scheele,  
 M. Scheurer,  M. Schneider,  N. Sergueev,  S. M. Sharada,  W. Skomorowski,  
 D. W. Small,  C. J. Stein,  Yu-Chuan Su,  E. J. Sundstrom,  Zhen Tao,  
 J. Thirman,  T. Tsuchimochi,  N. M. Tubman,  S. P. Veccham,  O. Vydrov,  
 J. Wenzel,  J. Witte,  A. Yamada,  Kun Yao,  S. Yeganeh,  S. R. Yost,  
 A. Zech,  Igor Ying Zhang,  Xing Zhang,  Yu Zhang,  D. Zuev,  
 A. Aspuru-Guzik,  A. T. Bell,  N. A. Besley,  K. B. Bravaya,  B. R. Brooks,  
 D. Casanova,  Jeng-Da Chai,  S. Coriani,  C. J. Cramer,  
 A. E. DePrince, III,  R. A. DiStasio Jr.,  A. Dreuw,  B. D. Dunietz,  
 T. R. Furlani,  W. A. Goddard III,  S. Grimme,  S. Hammes-Schiffer,  
 T. Head-Gordon,  W. J. Hehre,  Chao-Ping Hsu,  T.-C. Jagau,  Yousung Jung,  
 A. Klamt,  Jing Kong,  D. S. Lambrecht,  WanZhen Liang,  N. J. Mayhall,  
 C. W. McCurdy,  J. B. Neaton,  C. Ochsenfeld,  J. A. Parkhill,  R. Peverati,  
 V. A. Rassolov,  Yihan Shao,  L. V. Slipchenko,  T. Stauch,  R. P. Steele,  
 J. E. Subotnik,  A. J. W. Thom,  A. Tkatchenko,  D. G. Truhlar,  
 T. Van Voorhis,  T. A. Wesolowski,  K. B. Whaley,  H. L. Woodcock III,  
 P. M. Zimmerman,  S. Faraji,  P. M. W. Gill,  M. Head-Gordon,  
 J. M. Herbert,  A. I. Krylov

 Contributors to earlier versions of Q-Chem not listed above: 
 R. D. Adamson,  B. Austin,  R. Baer,  J. Baker,  G. J. O. Beran,  
 K. Brandhorst,  S. T. Brown,  E. F. C. Byrd,  A. K. Chakraborty,  
 G. K. L. Chan,  Chun-Min Chang,  Yunqing Chen,  C.-L. Cheng,  
 Siu Hung Chien,  D. M. Chipman,  D. L. Crittenden,  H. Dachsel,  
 R. J. Doerksen,  A. D. Dutoi,  R. G. Edgar,  J. Fosso-Tande,  
 L. Fusti-Molnar,  D. Ghosh,  A. Ghysels,  A. Golubeva-Zadorozhnaya,  
 J. Gonthier,  M. S. Gordon,  S. R. Gwaltney,  G. Hawkins,  J. E. Herr,  
 A. Heyden,  S. Hirata,  E. G. Hohenstein,  G. Kedziora,  F. J. Keil,  
 C. Kelley,  Jihan Kim,  R. A. King,  R. Z. Khaliullin,  P. P. Korambath,  
 W. Kurlancheek,  A. Laurent,  A. M. Lee,  M. S. Lee,  S. V. Levchenko,  
 Ching Yeh Lin,  D. Liotard,  E. Livshits,  R. C. Lochan,  I. Lotan,  
 L. A. Martinez-Martinez,  P. E. Maslen,  N. Nair,  D. P. O'Neill,  
 D. Neuhauser,  E. Neuscamman,  C. M. Oana,  R. Olivares-Amaya,  R. Olson,  
 T. M. Perrine,  B. Peters,  P. A. Pieniazek,  A. Prociuk,  Y. M. Rhee,  
 J. Ritchie,  M. A. Rohrdanz,  E. Rosta,  N. J. Russ,  H. F. Schaefer III,  
 M. W. Schmidt,  N. E. Schultz,  S. Sharma,  N. Shenvi,  C. D. Sherrill,  
 A. C. Simmonett,  A. Sodt,  T. Stein,  D. Stuck,  K. S. Thanthiriwatte,  
 V. Vanovschi,  L. Vogt,  Tao Wang,  A. Warshel,  M. A. Watson,  
 C. F. Williams,  Q. Wu,  X. Xu,  Jun Yang,  W. Zhang,  Yan Zhao

 Please cite Q-Chem as follows:
 Y. Shao et al., Mol. Phys. 113, 184-215 (2015)
 DOI: 10.1080/00268976.2014.952696

 Q-Chem 5.4.0 for Intel X86 EM64T Linux

 Parts of Q-Chem use Armadillo 9.800.1 (Horizon Scraper).
 http://arma.sourceforge.net/

 Q-Chem begins on Sun Sep 24 17:00:40 2023  

 Host: 
0

     Scratch files written to ./qchem4098573//
 May1621 |scratch|qcdevops|jenkins|workspace|build_RNUM    
 Parallel job on  1  processors
 Processing $rem in /cm/shared/apps/spack/cpu/opt/spack/linux-centos8-zen2/gcc-10.2.0/qchem-5.4-akfmr7b3t57bfs6qan3padb2wnb2i7cl/config/preferences:
 Processing $rem in /home/rramji/.qchemrc:
 Symmetry turned off for PCM/SM12/SMD calculation
 Core orbitals will be frozen

 Checking the input file for inconsistencies... 	...done.

 Q-Chem warning in module forms1/BasisType.C, line 2236:

 You are not using the predefined 5D/6D in this basis set.


--------------------------------------------------------------
User input:
--------------------------------------------------------------
$molecule
0 1
C	-0.086486	-6.741404	0.241938
C	-0.532960	-6.155638	1.468983
C	0.284733	-5.791452	-0.776651
C	-0.628455	-4.803786	1.730681
H	-0.833086	-6.821518	2.294130
C	0.184300	-4.378638	-0.502775
C	-0.271086	-3.838032	0.747353
C	0.541191	-3.413062	-1.484986
C	-0.370703	-2.426473	1.019042
C	0.446468	-2.059348	-1.226525
C	-0.000000	-1.478216	-0.000000
H	0.746717	-1.394783	-2.052666
C	0.779832	-6.187987	-2.131549
C	1.030596	-3.798164	-2.829295
N	1.115461	-5.170003	-3.057496
C	-1.119034	-4.424987	3.078712
C	-0.865151	-2.036627	2.375300
N	-1.201176	-3.049156	3.301374
O	0.916355	-7.353131	-2.498300
O	1.345486	-2.986854	-3.697195
O	-1.430379	-5.248946	3.936224
O	-1.007714	-0.878829	2.762805
C	1.599576	-5.563799	-4.384539
H	1.616121	-6.664085	-4.426636
H	2.611458	-5.147101	-4.550487
H	0.931037	-5.148785	-5.162921
C	-1.677382	-2.587487	4.608454
H	-1.896168	-3.483329	5.212668
H	-2.583531	-1.964972	4.482719
H	-0.903674	-1.962932	5.093988
C	0.000000	0.000000	0.000000
S	0.271091	0.745405	1.580530
C	0.831198	2.284363	0.904911
C	0.341175	0.937861	-0.985400
C	0.792631	2.178516	-0.493528
H	0.260601	0.716417	-2.059934
H	1.093860	3.006347	-1.152593
H	1.132330	3.111961	1.556025
H	-0.893959	-7.361589	-0.165874
H	0.794290	-7.361192	0.449423
H	-1.014686	-1.478831	-0.369880
$end

$rem
JOBTYPE		SP
EXCHANGE	HF
CORRELATION	pRIMP2
BASIS		cc-pvtz
METHOD		rimp2
AUX_BASIS	rimp2-cc-pvtz
SOLVENT_METHOD	PCM
PURECART	11111
SYMMETRY	false
MEM_TOTAL	110000
SCF_CONVERGENCE = 6
THRESH=10
GUI = 2
$end



$solvent
dielectric 4.90
$end
--------------------------------------------------------------
 ----------------------------------------------------------------
             Standard Nuclear Orientation (Angstroms)
    I     Atom           X                Y                Z
 ----------------------------------------------------------------
    1      C      -0.0864860000    -6.7414040000     0.2419380000
    2      C      -0.5329600000    -6.1556380000     1.4689830000
    3      C       0.2847330000    -5.7914520000    -0.7766510000
    4      C      -0.6284550000    -4.8037860000     1.7306810000
    5      H      -0.8330860000    -6.8215180000     2.2941300000
    6      C       0.1843000000    -4.3786380000    -0.5027750000
    7      C      -0.2710860000    -3.8380320000     0.7473530000
    8      C       0.5411910000    -3.4130620000    -1.4849860000
    9      C      -0.3707030000    -2.4264730000     1.0190420000
   10      C       0.4464680000    -2.0593480000    -1.2265250000
   11      C       0.0000000000    -1.4782160000     0.0000000000
   12      H       0.7467170000    -1.3947830000    -2.0526660000
   13      C       0.7798320000    -6.1879870000    -2.1315490000
   14      C       1.0305960000    -3.7981640000    -2.8292950000
   15      N       1.1154610000    -5.1700030000    -3.0574960000
   16      C      -1.1190340000    -4.4249870000     3.0787120000
   17      C      -0.8651510000    -2.0366270000     2.3753000000
   18      N      -1.2011760000    -3.0491560000     3.3013740000
   19      O       0.9163550000    -7.3531310000    -2.4983000000
   20      O       1.3454860000    -2.9868540000    -3.6971950000
   21      O      -1.4303790000    -5.2489460000     3.9362240000
   22      O      -1.0077140000    -0.8788290000     2.7628050000
   23      C       1.5995760000    -5.5637990000    -4.3845390000
   24      H       1.6161210000    -6.6640850000    -4.4266360000
   25      H       2.6114580000    -5.1471010000    -4.5504870000
   26      H       0.9310370000    -5.1487850000    -5.1629210000
   27      C      -1.6773820000    -2.5874870000     4.6084540000
   28      H      -1.8961680000    -3.4833290000     5.2126680000
   29      H      -2.5835310000    -1.9649720000     4.4827190000
   30      H      -0.9036740000    -1.9629320000     5.0939880000
   31      C       0.0000000000     0.0000000000     0.0000000000
   32      S       0.2710910000     0.7454050000     1.5805300000
   33      C       0.8311980000     2.2843630000     0.9049110000
   34      C       0.3411750000     0.9378610000    -0.9854000000
   35      C       0.7926310000     2.1785160000    -0.4935280000
   36      H       0.2606010000     0.7164170000    -2.0599340000
   37      H       1.0938600000     3.0063470000    -1.1525930000
   38      H       1.1323300000     3.1119610000     1.5560250000
   39      H      -0.8939590000    -7.3615890000    -0.1658740000
   40      H       0.7942900000    -7.3611920000     0.4494230000
   41      H      -1.0146860000    -1.4788310000    -0.3698800000
 ----------------------------------------------------------------
 Nuclear Repulsion Energy =        2567.29179404 hartrees
 There are       98 alpha and       98 beta electrons
 Requested basis set is cc-pVTZ
 There are 356 shells and 1010 basis functions

 Total QAlloc Memory Limit 110000 MB
 Mega-Array Size       188 MB
 MEM_STATIC part       192 MB
 Discretize the solute cavity surface with Lebedev spheres
	Using 110 Lebedev grid points for each H atom
	Using 194 Lebedev grid points for other atoms
	Atomic van der Waals radii will be scaled by 1.20
 Remove points where switching function is < 1.0e-08
 Keep 2581 surface tesserae and discard 4197 interior tesserae
 Molecular Surface Area = 361.683 Angst**2
 Requested basis set is rimp2-cc-pVTZ
 There are 770 shells and 2648 basis functions
 A cutoff of  1.0D-10 yielded  34218 shell pairs
 There are    258954 function pairs (    335131 Cartesian)
 Smallest overlap matrix eigenvalue = 9.02E-06

 Q-Chem warning in module stvman/mkSTV.C, line 323:

 Overlap eigenvalue is smaller than square root of threshold
 Use THRESH >= 12 to get rid of this warning


 Scale SEOQF with 1.000000e-01/1.000000e-02/1.000000e-01

 Standard Electronic Orientation quadrupole field applied
 Nucleus-field energy     =    -0.0000000968 hartrees
 Guess from superposition of atomic densities
 Warning:  Energy on first SCF cycle will be non-variational
 SAD guess density has 196.000000 electrons

 -----------------------------------------------------------------------
  General SCF calculation program by
  Eric Jon Sundstrom, Paul Horn, Yuezhi Mao, Dmitri Zuev, Alec White,
  David Stuck, Shaama M.S., Shane Yost, Joonho Lee, David Small,
  Daniel Levine, Susi Lehtola, Hugh Burton, Evgeny Epifanovsky,
  Bang C. Huynh
 -----------------------------------------------------------------------
 Hartree-Fock
 using 64 threads for integral computing
 -------------------------------------------------------
 OpenMP Integral computing Module                
 Release: version 1.0, May 2013, Q-Chem Inc. Pittsburgh 
 -------------------------------------------------------
 A restricted SCF calculation will be
 performed using DIIS
 SCF converges when DIIS error is below 1.0e-06
 ---------------------------------------
  Cycle       Energy         DIIS error
 ---------------------------------------
    1   -1583.1921727537      1.87e-02  
    2   -1571.1366619582      2.03e-03  
    3   -1571.4763106670      1.55e-03  
    4   -1571.6980760757      2.54e-04  
    5   -1571.7119011560      7.81e-05  
    6   -1571.7133108134      3.03e-05  
    7   -1571.7137308803      1.60e-05  
    8   -1571.7138506048      6.42e-06  
    9   -1571.7138720427      2.98e-06  
   10   -1571.7138763792      1.23e-06  
   11   -1571.7138776676      5.93e-07  Convergence criterion met
 ---------------------------------------
 SCF time:   CPU 7015.33s  wall 291.00s 

************** Final PCM Free Energy Summary **************
 G_electrostatic  =      -0.02945964 hartree =     -18.48620597 kcal/mol
 G_cavitation     =       0.00000000 hartree =       0.00000000 kcal/mol
 G_dispersion     =       0.00000000 hartree =       0.00000000 kcal/mol
 G_repulsion      =       0.00000000 hartree =       0.00000000 kcal/mol
 --------------------------------------------------
 Non-electrostatic Free Energy =       0.00000000 hartree =       0.00000000 kcal/mol
 Total                         =      -0.02945964 hartree =     -18.48620597 kcal/mol
 --------------------------------------------------
 SCF Energy (H0 + V/2)                       =   -1571.71387767 
 Solute Internal Energy (H0)                 =   -1571.68441802 
 Total Free Energy (H0 + V/2 + non-elec)     =   -1571.71387767 hartree
                                             = -986265.34393853 kcal/mol
***********************************************************

 SCF   energy in the final basis set =    -1571.7138776676
 Total energy in the final basis set =    -1571.7138776676


 --------------------------------------------------------------
  Generalized many-body perturbation theory program
  by Joonho Lee, Fazle Rob, Xintian Feng, Evgeny Epifanovsky

 No regularization used 
 (reg. param. = 0.0000e+00)
  (P|Q)^-1/2 Time:  CPU 396.53 s  wall 7.06 s

 In RI-MP2 calculation: 
 # of frozen core orbitals: 31

 Components of the RIMP2 correlation energy:
        aaaa    correlation energy =        -0.6175934678 a.u.
        abab    correlation energy =        -3.4306712390 a.u.
        bbbb    correlation energy =        -0.6175934678 a.u.
        non-Brillouin singles      =        -0.0000000000 a.u.
        total same-spin energy     =        -1.2351869356 a.u.
        total opposite-spin energy =        -3.4306712390 a.u.

 Total  RIMP2   correlation energy =        -4.6658581746 a.u.
        RIMP2         total energy =     -1576.3797358422 a.u.

 RI-MP2 Energy Time:  CPU 2206.45 s  wall 38.42 s
 
 --------------------------------------------------------------
 
                    Orbital Energies (a.u.)
 --------------------------------------------------------------
 
 Alpha MOs
 -- Occupied --
-91.9749 -20.5552 -20.5459 -20.5420 -20.5412 -15.6295 -15.6219 -11.3981
-11.3867 -11.3840 -11.3798 -11.3115 -11.3096 -11.3082 -11.3056 -11.2985
-11.2938 -11.2907 -11.2699 -11.2696 -11.2658 -11.2655 -11.2642 -11.2598
-11.2537 -11.2507 -11.2420  -8.9747  -6.6553  -6.6543  -6.6536  -1.4268
 -1.4128  -1.4013  -1.3919  -1.2656  -1.2562  -1.2312  -1.1859  -1.1482
 -1.1155  -1.0866  -1.0486  -0.9944  -0.9890  -0.9779  -0.9560  -0.9489
 -0.8976  -0.8904  -0.8789  -0.8619  -0.7923  -0.7801  -0.7739  -0.7597
 -0.7328  -0.7207  -0.7021  -0.6909  -0.6854  -0.6761  -0.6683  -0.6585
 -0.6499  -0.6463  -0.6373  -0.6330  -0.6320  -0.6317  -0.6220  -0.6061
 -0.5884  -0.5735  -0.5653  -0.5618  -0.5592  -0.5536  -0.5523  -0.5492
 -0.5483  -0.5451  -0.5219  -0.5120  -0.5110  -0.4861  -0.4765  -0.4627
 -0.4557  -0.4446  -0.4373  -0.4243  -0.4086  -0.4065  -0.3550  -0.3421
 -0.3286  -0.2779
 -- Virtual --
  0.0109   0.0411   0.0894   0.1018   0.1386   0.1498   0.1587   0.1602
  0.1633   0.1728   0.1797   0.1812   0.1866   0.1909   0.2011   0.2035
  0.2157   0.2223   0.2281   0.2305   0.2308   0.2360   0.2589   0.2624
  0.2711   0.2750   0.3024   0.3096   0.3140   0.3213   0.3234   0.3289
  0.3373   0.3440   0.3471   0.3487   0.3530   0.3631   0.3678   0.3682
  0.3728   0.3828   0.3851   0.3894   0.3916   0.3969   0.4043   0.4139
  0.4165   0.4257   0.4297   0.4330   0.4360   0.4435   0.4478   0.4505
  0.4531   0.4586   0.4653   0.4722   0.4763   0.4862   0.4895   0.4932
  0.4947   0.5037   0.5103   0.5112   0.5119   0.5184   0.5220   0.5267
  0.5364   0.5392   0.5465   0.5544   0.5554   0.5595   0.5602   0.5667
  0.5731   0.5741   0.5810   0.5855   0.5911   0.5925   0.5993   0.6005
  0.6036   0.6055   0.6085   0.6103   0.6143   0.6188   0.6223   0.6267
  0.6302   0.6323   0.6363   0.6372   0.6409   0.6430   0.6469   0.6549
  0.6581   0.6717   0.6797   0.6857   0.6907   0.6967   0.6977   0.7050
  0.7073   0.7263   0.7305   0.7363   0.7387   0.7436   0.7547   0.7601
  0.7669   0.7685   0.7735   0.7821   0.7866   0.8011   0.8044   0.8066
  0.8143   0.8245   0.8247   0.8306   0.8313   0.8409   0.8441   0.8489
  0.8508   0.8577   0.8638   0.8693   0.8735   0.8809   0.8859   0.8899
  0.8943   0.9066   0.9087   0.9166   0.9175   0.9216   0.9256   0.9327
  0.9365   0.9371   0.9497   0.9588   0.9640   0.9674   0.9764   0.9821
  0.9847   0.9865   0.9924   0.9969   1.0043   1.0092   1.0111   1.0176
  1.0274   1.0350   1.0403   1.0424   1.0461   1.0534   1.0577   1.0645
  1.0659   1.0730   1.0776   1.0804   1.0842   1.0915   1.0956   1.1012
  1.1090   1.1146   1.1215   1.1265   1.1287   1.1305   1.1362   1.1459
  1.1475   1.1535   1.1622   1.1651   1.1691   1.1755   1.1829   1.1927
  1.1934   1.2005   1.2020   1.2098   1.2130   1.2146   1.2170   1.2253
  1.2341   1.2369   1.2398   1.2476   1.2498   1.2620   1.2721   1.2787
  1.2814   1.2831   1.3006   1.3072   1.3091   1.3263   1.3342   1.3391
  1.3433   1.3488   1.3607   1.3623   1.3684   1.3773   1.3812   1.3849
  1.3892   1.3936   1.3952   1.4077   1.4139   1.4224   1.4344   1.4427
  1.4522   1.4557   1.4622   1.4721   1.4758   1.4800   1.4868   1.4945
  1.5037   1.5047   1.5083   1.5148   1.5210   1.5294   1.5349   1.5379
  1.5475   1.5518   1.5576   1.5581   1.5682   1.5711   1.5729   1.5801
  1.5903   1.6004   1.6013   1.6118   1.6155   1.6225   1.6404   1.6431
  1.6451   1.6590   1.6657   1.6779   1.6861   1.6893   1.6953   1.7040
  1.7061   1.7144   1.7263   1.7322   1.7329   1.7410   1.7527   1.7534
  1.7636   1.7699   1.7813   1.7828   1.7975   1.8013   1.8128   1.8187
  1.8232   1.8307   1.8386   1.8460   1.8571   1.8627   1.8688   1.8712
  1.8732   1.8801   1.8893   1.8989   1.9084   1.9193   1.9331   1.9446
  1.9628   1.9652   1.9672   1.9828   1.9929   1.9966   2.0149   2.0229
  2.0416   2.0554   2.0699   2.0809   2.0931   2.1028   2.1269   2.1360
  2.1451   2.1535   2.1620   2.1757   2.1799   2.2148   2.2251   2.2324
  2.2367   2.2468   2.2676   2.2837   2.2846   2.2941   2.3009   2.3133
  2.3164   2.3268   2.3358   2.3524   2.3625   2.3674   2.3855   2.4107
  2.4166   2.4286   2.4359   2.4448   2.4570   2.4647   2.4659   2.4763
  2.4820   2.4936   2.5019   2.5160   2.5240   2.5373   2.5456   2.5582
  2.5668   2.5735   2.5786   2.5865   2.5957   2.6018   2.6134   2.6179
  2.6268   2.6319   2.6429   2.6432   2.6615   2.6630   2.6712   2.6765
  2.6827   2.6902   2.6940   2.7131   2.7193   2.7256   2.7350   2.7399
  2.7405   2.7519   2.7574   2.7621   2.7680   2.7759   2.7801   2.7907
  2.8001   2.8146   2.8379   2.8399   2.8477   2.8564   2.8603   2.8651
  2.8728   2.8798   2.8853   2.8937   2.8974   2.9003   2.9037   2.9129
  2.9174   2.9228   2.9315   2.9361   2.9489   2.9611   2.9679   2.9720
  2.9810   2.9903   2.9970   3.0018   3.0114   3.0140   3.0236   3.0288
  3.0331   3.0462   3.0499   3.0534   3.0567   3.0688   3.0734   3.0875
  3.0950   3.1003   3.1007   3.1041   3.1085   3.1108   3.1135   3.1255
  3.1285   3.1363   3.1502   3.1514   3.1589   3.1603   3.1699   3.1760
  3.1809   3.1824   3.1987   3.2007   3.2049   3.2138   3.2199   3.2260
  3.2293   3.2334   3.2397   3.2432   3.2500   3.2528   3.2623   3.2666
  3.2692   3.2767   3.2779   3.2829   3.2874   3.2895   3.2998   3.3068
  3.3118   3.3122   3.3168   3.3207   3.3241   3.3298   3.3377   3.3389
  3.3448   3.3498   3.3516   3.3564   3.3602   3.3649   3.3697   3.3765
  3.3800   3.3841   3.3884   3.3946   3.3978   3.4047   3.4049   3.4070
  3.4185   3.4241   3.4272   3.4318   3.4320   3.4392   3.4434   3.4477
  3.4534   3.4613   3.4712   3.4744   3.4772   3.4855   3.4868   3.4924
  3.4945   3.5007   3.5049   3.5112   3.5144   3.5203   3.5234   3.5288
  3.5319   3.5332   3.5424   3.5564   3.5576   3.5690   3.5727   3.5796
  3.5839   3.5887   3.5956   3.6074   3.6082   3.6176   3.6206   3.6271
  3.6295   3.6341   3.6372   3.6415   3.6464   3.6487   3.6537   3.6596
  3.6664   3.6710   3.6844   3.6869   3.6892   3.6933   3.7100   3.7124
  3.7164   3.7291   3.7307   3.7364   3.7388   3.7466   3.7517   3.7535
  3.7626   3.7672   3.7735   3.7773   3.7833   3.7846   3.7911   3.8006
  3.8071   3.8077   3.8144   3.8273   3.8305   3.8342   3.8395   3.8436
  3.8489   3.8599   3.8675   3.8787   3.8806   3.8832   3.8940   3.9013
  3.9154   3.9204   3.9223   3.9298   3.9428   3.9478   3.9517   3.9564
  3.9653   3.9703   3.9755   3.9789   3.9887   3.9963   4.0054   4.0114
  4.0144   4.0297   4.0328   4.0421   4.0510   4.0550   4.0638   4.0744
  4.0931   4.1026   4.1116   4.1178   4.1266   4.1315   4.1399   4.1472
  4.1544   4.1577   4.1642   4.1658   4.1694   4.1777   4.1881   4.2078
  4.2155   4.2321   4.2357   4.2397   4.2435   4.2496   4.2589   4.2624
  4.2687   4.2811   4.2836   4.2871   4.2953   4.3000   4.3015   4.3128
  4.3151   4.3231   4.3279   4.3387   4.3414   4.3441   4.3481   4.3593
  4.3629   4.3688   4.3701   4.3735   4.3806   4.3826   4.3891   4.3954
  4.4022   4.4115   4.4141   4.4231   4.4298   4.4395   4.4444   4.4557
  4.4697   4.4829   4.4888   4.4966   4.5102   4.5198   4.5274   4.5281
  4.5333   4.5378   4.5496   4.5522   4.5619   4.5745   4.5841   4.5866
  4.5919   4.5955   4.6032   4.6166   4.6214   4.6267   4.6333   4.6415
  4.6433   4.6650   4.6720   4.6849   4.6963   4.7018   4.7041   4.7078
  4.7189   4.7325   4.7389   4.7760   4.7802   4.7835   4.7869   4.8013
  4.8197   4.8210   4.8379   4.8474   4.8494   4.8629   4.8714   4.8803
  4.8911   4.9050   4.9077   4.9257   4.9341   4.9465   4.9653   4.9814
  4.9907   5.0101   5.0150   5.0317   5.0327   5.0366   5.0504   5.0629
  5.0782   5.0945   5.1064   5.1169   5.1213   5.1257   5.1341   5.1445
  5.1492   5.1558   5.1749   5.1810   5.1934   5.2011   5.2182   5.2229
  5.2544   5.2615   5.2744   5.2854   5.3021   5.3075   5.3178   5.3296
  5.3306   5.3397   5.3534   5.3704   5.3770   5.3898   5.4036   5.4157
  5.4396   5.4507   5.4589   5.4882   5.4977   5.5102   5.5135   5.5165
  5.5228   5.5248   5.5446   5.5547   5.5593   5.5630   5.5666   5.5758
  5.5790   5.5856   5.5894   5.6058   5.6092   5.6168   5.6248   5.6375
  5.6426   5.6495   5.6595   5.6618   5.6659   5.6674   5.6934   5.6966
  5.6988   5.7125   5.7389   5.7416   5.7523   5.7583   5.7688   5.7731
  5.7850   5.7960   5.8143   5.8295   5.8446   5.8605   5.8890   5.9192
  5.9249   5.9498   5.9724   5.9908   6.0240   6.0317   6.0395   6.0497
  6.0522   6.0654   6.1050   6.1116   6.1243   6.1461   6.1612   6.1868
  6.1968   6.2197   6.2221   6.2252   6.2460   6.2521   6.2809   6.2823
  6.3010   6.3113   6.3237   6.3470   6.3672   6.3782   6.4471   6.4861
  6.5198   6.5336   6.5719   6.5821   6.6021   6.6207   6.6429   6.6567
  6.6734   6.7097   6.8490   6.8525   6.8894   6.9021   6.9059   6.9264
  6.9275   7.0024   7.1047   7.1259   7.1545   7.1953   7.2067   7.2437
  7.3469   7.3512   7.3578   7.3631   7.4750   7.5407   7.5707   7.5827
  7.5928   7.6206   7.6541   7.6863   7.6910   7.7165   8.8863  10.1015
 10.3223  11.2798  11.5309  11.7759  12.0306  12.1814  12.4367  12.4681
 12.9508  13.2652  13.3120  13.5703  13.8112  13.9292  14.0784  14.3075
 14.3560  14.4087  14.5586  14.6868  15.0106  15.6336  15.8090  16.3111
 --------------------------------------------------------------
 
          Ground-State Mulliken Net Atomic Charges

     Atom                 Charge (a.u.)
  ----------------------------------------
      1 C                    -0.084312
      2 C                    -0.029571
      3 C                    -0.107031
      4 C                    -0.123902
      5 H                     0.199729
      6 C                     0.025781
      7 C                     0.126855
      8 C                    -0.093731
      9 C                    -0.172088
     10 C                    -0.155082
     11 C                     0.206226
     12 H                     0.190087
     13 C                     0.341075
     14 C                     0.349522
     15 N                    -0.090228
     16 C                     0.357656
     17 C                     0.374984
     18 N                    -0.090224
     19 O                    -0.494401
     20 O                    -0.508403
     21 O                    -0.500101
     22 O                    -0.470155
     23 C                    -0.204908
     24 H                     0.139629
     25 H                     0.109478
     26 H                     0.109162
     27 C                    -0.197919
     28 H                     0.134406
     29 H                     0.112081
     30 H                     0.112927
     31 C                    -0.008779
     32 S                     0.078481
     33 C                    -0.252769
     34 C                    -0.239305
     35 C                    -0.204742
     36 H                     0.179076
     37 H                     0.185495
     38 H                     0.204672
     39 H                     0.138089
     40 H                     0.138637
     41 H                     0.213603
  ----------------------------------------
  Sum of atomic charges =     0.000000

 -----------------------------------------------------------------
                    Cartesian Multipole Moments
 -----------------------------------------------------------------
    Charge (ESU x 10^10)
                 0.0000
    Dipole Moment (Debye)
         X      -1.0253      Y       0.9585      Z       0.4127
       Tot       1.4629
    Quadrupole Moments (Debye-Ang)
        XX    -165.2330     XY       7.4739     YY    -179.0690
        XZ      10.1029     YZ      -8.1512     ZZ    -183.8992
    Octopole Moments (Debye-Ang^2)
       XXX     -35.7402    XXY     478.1402    XYY     -23.3379
       YYY    1672.7526    XXZ     -30.8345    XYZ     -41.4819
       YYZ      34.1836    XZZ      -8.8094    YZZ     590.4554
       ZZZ     -90.8639
    Hexadecapole Moments (Debye-Ang^3)
      XXXX    -941.6740   XXXY      28.5880   XXYY   -2845.8429
      XYYY     364.9905   YYYY  -17977.4060   XXXZ     919.5856
      XXYZ     -96.4252   XYYZ     594.2966   YYYZ   -1148.9199
      XXZZ   -1122.1359   XYZZ     -72.4581   YYZZ   -4273.0105
      XZZZ    1022.4598   YZZZ    -130.3745   ZZZZ   -5844.3216
 -----------------------------------------------------------------
 Total job time:  335.67s(wall), 9485.31s(cpu) 
 Sun Sep 24 17:06:15 2023

        *************************************************************
        *                                                           *
        *  Thank you very much for using Q-Chem.  Have a nice day.  *
        *                                                           *
        *************************************************************


0 sent ACK to 0 
now end server 0 ... 
cleanup process ... done
remove work dirs ./qchem4098573.0 -- ./qchem4098573.0
rm -rf ./qchem4098573.0
rm -rf ./qchem4098573
