You are running Q-Chem version: 5.4.0

#
# job setting
#
local host:  exp-2-20
current dir: /expanse/lustre/projects/csd626/rramji/aromodel/PNDIT/Hydrogenated_Rotation_Test
input file:  Dimethyl_Naphthalene_Dicarboximide_Phi_0_Theta_100_Thiophene_Hydrogenated.qcin
output file: 
nprocs     : 1
nthreads   : 64
#
# qchem installation setting
#
QC:          /cm/shared/apps/spack/cpu/opt/spack/linux-centos8-zen2/gcc-10.2.0/qchem-5.4-akfmr7b3t57bfs6qan3padb2wnb2i7cl
QCAUX:       /cm/shared/apps/spack/cpu/opt/spack/linux-centos8-zen2/gcc-10.2.0/qchem-5.4-akfmr7b3t57bfs6qan3padb2wnb2i7cl/qcaux
QCPROG:      /cm/shared/apps/spack/cpu/opt/spack/linux-centos8-zen2/gcc-10.2.0/qchem-5.4-akfmr7b3t57bfs6qan3padb2wnb2i7cl/exe/qcprog.exe
QCPROG_S:    /cm/shared/apps/spack/cpu/opt/spack/linux-centos8-zen2/gcc-10.2.0/qchem-5.4-akfmr7b3t57bfs6qan3padb2wnb2i7cl/exe/qcprog.exe_s
PARALLEL:    -DPARALLEL
QCMPI:       mpich
#
# qchem directory setting
#
qcrun:       qchem3022122
QCSCRATCH:   .
QCLOCALSCR:  
QCTMPDIR:    .
QCFILEPREF:  ./qchem3022122
QCSAVEDIR:   
workdirs:    ./qchem3022122
workdir0:    ./qchem3022122
partmpdirs =  
#
# parallel setting
#
QCRSH:           ssh
QCMPI:           mpich
QCMPIRUN:        /cm/shared/apps/spack/cpu/opt/spack/linux-centos8-zen2/gcc-10.2.0/qchem-5.4-akfmr7b3t57bfs6qan3padb2wnb2i7cl/bin/mpi/mpirun_qchem
QCMACHINEFILE:   ./qchem3022122/hostfile
exp-2-20

#
# env setting
#
exported envs:   QC QCAUX QCSCRATCH QCRUNNAME QCFILEPREF QCPROG QCPROG_S GUIFILE

Running Job 1 of 1 Dimethyl_Naphthalene_Dicarboximide_Phi_0_Theta_100_Thiophene_Hydrogenated.qcin
qchem Dimethyl_Naphthalene_Dicarboximide_Phi_0_Theta_100_Thiophene_Hydrogenated.qcin_3022122.0 ./qchem3022122/ 1
/cm/shared/apps/spack/cpu/opt/spack/linux-centos8-zen2/gcc-10.2.0/qchem-5.4-akfmr7b3t57bfs6qan3padb2wnb2i7cl/bin/mpi/mpirun_qchem -machinefile ./qchem3022122/hostfile -np 1 /cm/shared/apps/spack/cpu/opt/spack/linux-centos8-zen2/gcc-10.2.0/qchem-5.4-akfmr7b3t57bfs6qan3padb2wnb2i7cl/exe/qcprog.exe Dimethyl_Naphthalene_Dicarboximide_Phi_0_Theta_100_Thiophene_Hydrogenated.qcin_3022122.0 ./qchem3022122/

Process 0 of 1 is on exp-2-20 - thread support 0
initial socket setup ...start
initial socket setup ...done 
now start server 0 ... 
                  Welcome to Q-Chem
     A Quantum Leap Into The Future Of Chemistry


 Q-Chem 5.4, Q-Chem, Inc., Pleasanton, CA (2021)

 License issued to: University of California, San Diego (site)

 E. Epifanovsky,  A. T. B. Gilbert,  Xintian Feng,  Joonho Lee,  Yuezhi Mao,  
 N. Mardirossian,  P. Pokhilko,  A. White,  M. Wormit,  M. P. Coons,  
 A. L. Dempwolff,  Zhengting Gan,  D. Hait,  P. R. Horn,  L. D. Jacobson,  
 I. Kaliman,  J. Kussmann,  A. W. Lange,  Ka Un Lao,  D. S. Levine,  Jie Liu,  
 S. C. McKenzie,  A. F. Morrison,  K. Nanda,  F. Plasser,  D. R. Rehn,  
 M. L. Vidal,  Zhi-Qiang You,  Ying Zhu,  B. Alam,  B. Albrecht,  
 A. Aldossary,  E. Alguire,  J. H. Andersen,  D. Barton,  K. Begam,  A. Behn,  
 Y. A. Bernard,  E. J. Berquist,  H. Burton,  A. Carreras,  K. Carter-Fenk,  
 R. Chakraborty,  A. D. Chien,  K. D. Closser,  V. Cofer-Shabica,  
 S. Dasgupta,  Jia Deng,  M. de Wergifosse,  M. Diedenhofen,  Hainam Do,  
 S. Ehlert,  Po-Tung Fang,  S. Fatehi,  Qingguo Feng,  J. Gayvert,  
 Qinghui Ge,  G. Gidofalvi,  M. Goldey,  J. Gomes,  C. Gonzalez-Espinoza,  
 S. Gulania,  A. Gunina,  M. W. D. Hanson-Heine,  P. H. P. Harbach,  
 A. W. Hauser,  M. F. Herbst,  M. Hernandez Vera,  M. Hodecker,  
 Z. C. Holden,  S. Houck,  Xunkun Huang,  Kerwin Hui,  B. C. Huynh,  
 M. Ivanov,  Hyunjun Ji,  Hanjie Jiang,  B. Kaduk,  S. Kaehler,  
 K. Khistyaev,  Jaehoon Kim,  P. Klunzinger,  Z. Koczor-Benda,  
 Joong Hoon Koh,  D. Kosenkov,  L. Koulias,  T. Kowalczyk,  C. M. Krauter,  
 K. Kue,  A. Kunitsa,  T. Kus,  A. Landau,  K. V. Lawler,  D. Lefrancois,  
 S. Lehtola,  Rain Li,  Yi-Pei Li,  Jiashu Liang,  M. Liebenthal,  
 Hung-Hsuan Lin,  You-Sheng Lin,  Fenglai Liu,  Kuan-Yu Liu,  
 M. Loipersberger,  A. Luenser,  A. Manjanath,  P. Manohar,  E. Mansoor,  
 S. F. Manzer,  Shan-Ping Mao,  A. V. Marenich,  T. Markovich,  S. Mason,  
 S. A. Maurer,  P. F. McLaughlin,  M. F. S. J. Menger,  J.-M. Mewes,  
 S. A. Mewes,  P. Morgante,  J. W. Mullinax,  T. S. Nguyen-Beck,  
 K. J. Oosterbaan,  G. Paran,  Alexander C. Paul,  Suranjan K. Paul,  
 F. Pavosevic,  Zheng Pei,  S. Prager,  E. I. Proynov,  E. Ramos,  B. Rana,  
 A. E. Rask,  A. Rettig,  R. M. Richard,  F. Rob,  E. Rossomme,  T. Scheele,  
 M. Scheurer,  M. Schneider,  N. Sergueev,  S. M. Sharada,  W. Skomorowski,  
 D. W. Small,  C. J. Stein,  Yu-Chuan Su,  E. J. Sundstrom,  Zhen Tao,  
 J. Thirman,  T. Tsuchimochi,  N. M. Tubman,  S. P. Veccham,  O. Vydrov,  
 J. Wenzel,  J. Witte,  A. Yamada,  Kun Yao,  S. Yeganeh,  S. R. Yost,  
 A. Zech,  Igor Ying Zhang,  Xing Zhang,  Yu Zhang,  D. Zuev,  
 A. Aspuru-Guzik,  A. T. Bell,  N. A. Besley,  K. B. Bravaya,  B. R. Brooks,  
 D. Casanova,  Jeng-Da Chai,  S. Coriani,  C. J. Cramer,  
 A. E. DePrince, III,  R. A. DiStasio Jr.,  A. Dreuw,  B. D. Dunietz,  
 T. R. Furlani,  W. A. Goddard III,  S. Grimme,  S. Hammes-Schiffer,  
 T. Head-Gordon,  W. J. Hehre,  Chao-Ping Hsu,  T.-C. Jagau,  Yousung Jung,  
 A. Klamt,  Jing Kong,  D. S. Lambrecht,  WanZhen Liang,  N. J. Mayhall,  
 C. W. McCurdy,  J. B. Neaton,  C. Ochsenfeld,  J. A. Parkhill,  R. Peverati,  
 V. A. Rassolov,  Yihan Shao,  L. V. Slipchenko,  T. Stauch,  R. P. Steele,  
 J. E. Subotnik,  A. J. W. Thom,  A. Tkatchenko,  D. G. Truhlar,  
 T. Van Voorhis,  T. A. Wesolowski,  K. B. Whaley,  H. L. Woodcock III,  
 P. M. Zimmerman,  S. Faraji,  P. M. W. Gill,  M. Head-Gordon,  
 J. M. Herbert,  A. I. Krylov

 Contributors to earlier versions of Q-Chem not listed above: 
 R. D. Adamson,  B. Austin,  R. Baer,  J. Baker,  G. J. O. Beran,  
 K. Brandhorst,  S. T. Brown,  E. F. C. Byrd,  A. K. Chakraborty,  
 G. K. L. Chan,  Chun-Min Chang,  Yunqing Chen,  C.-L. Cheng,  
 Siu Hung Chien,  D. M. Chipman,  D. L. Crittenden,  H. Dachsel,  
 R. J. Doerksen,  A. D. Dutoi,  R. G. Edgar,  J. Fosso-Tande,  
 L. Fusti-Molnar,  D. Ghosh,  A. Ghysels,  A. Golubeva-Zadorozhnaya,  
 J. Gonthier,  M. S. Gordon,  S. R. Gwaltney,  G. Hawkins,  J. E. Herr,  
 A. Heyden,  S. Hirata,  E. G. Hohenstein,  G. Kedziora,  F. J. Keil,  
 C. Kelley,  Jihan Kim,  R. A. King,  R. Z. Khaliullin,  P. P. Korambath,  
 W. Kurlancheek,  A. Laurent,  A. M. Lee,  M. S. Lee,  S. V. Levchenko,  
 Ching Yeh Lin,  D. Liotard,  E. Livshits,  R. C. Lochan,  I. Lotan,  
 L. A. Martinez-Martinez,  P. E. Maslen,  N. Nair,  D. P. O'Neill,  
 D. Neuhauser,  E. Neuscamman,  C. M. Oana,  R. Olivares-Amaya,  R. Olson,  
 T. M. Perrine,  B. Peters,  P. A. Pieniazek,  A. Prociuk,  Y. M. Rhee,  
 J. Ritchie,  M. A. Rohrdanz,  E. Rosta,  N. J. Russ,  H. F. Schaefer III,  
 M. W. Schmidt,  N. E. Schultz,  S. Sharma,  N. Shenvi,  C. D. Sherrill,  
 A. C. Simmonett,  A. Sodt,  T. Stein,  D. Stuck,  K. S. Thanthiriwatte,  
 V. Vanovschi,  L. Vogt,  Tao Wang,  A. Warshel,  M. A. Watson,  
 C. F. Williams,  Q. Wu,  X. Xu,  Jun Yang,  W. Zhang,  Yan Zhao

 Please cite Q-Chem as follows:
 Y. Shao et al., Mol. Phys. 113, 184-215 (2015)
 DOI: 10.1080/00268976.2014.952696

 Q-Chem 5.4.0 for Intel X86 EM64T Linux

 Parts of Q-Chem use Armadillo 9.800.1 (Horizon Scraper).
 http://arma.sourceforge.net/

 Q-Chem begins on Sun Sep 24 15:49:24 2023  

 Host: 
0

     Scratch files written to ./qchem3022122//
 May1621 |scratch|qcdevops|jenkins|workspace|build_RNUM    
 Parallel job on  1  processors
 Processing $rem in /cm/shared/apps/spack/cpu/opt/spack/linux-centos8-zen2/gcc-10.2.0/qchem-5.4-akfmr7b3t57bfs6qan3padb2wnb2i7cl/config/preferences:
 Processing $rem in /home/rramji/.qchemrc:
 Symmetry turned off for PCM/SM12/SMD calculation
 Core orbitals will be frozen

 Checking the input file for inconsistencies... 	...done.

 Q-Chem warning in module forms1/BasisType.C, line 2236:

 You are not using the predefined 5D/6D in this basis set.


--------------------------------------------------------------
User input:
--------------------------------------------------------------
$molecule
0 1
C	0.253280	-6.741404	0.043160
C	1.539213	-6.155638	0.269777
C	-0.814295	-5.791452	-0.145543
C	1.813519	-4.803786	0.318377
H	2.403941	-6.821518	0.422058
C	-0.527140	-4.378638	-0.094194
C	0.783072	-3.838032	0.137191
C	-1.556403	-3.413062	-0.275104
C	1.067932	-2.426473	0.188116
C	-1.285420	-2.059348	-0.226701
C	-0.000000	-1.478216	-0.000000
H	-2.151147	-1.394783	-0.378931
C	-2.234582	-6.187987	-0.397845
C	-2.965273	-3.798164	-0.523637
N	-3.204744	-5.170003	-0.567586
C	3.226257	-4.424987	0.567421
C	2.489446	-2.036627	0.439541
N	3.459801	-3.049156	0.609650
O	-2.619468	-7.353131	-0.468608
O	-3.874668	-2.986854	-0.683034
O	4.124806	-5.248946	0.725131
O	2.895819	-0.878829	0.512648
C	-4.595691	-5.563799	-0.813908
H	-4.640022	-6.664085	-0.822891
H	-4.934830	-5.147101	-1.781600
H	-5.246157	-5.148785	-0.020360
C	4.829716	-2.587487	0.851649
H	5.462742	-3.483329	0.962191
H	4.863242	-1.964972	1.765865
H	5.173521	-1.962932	0.005383
C	0.000000	0.000000	0.000000
S	-0.000201	0.793171	1.580530
C	-0.000228	2.430885	0.904911
C	-0.000168	0.997990	-0.985400
C	-0.000267	2.318231	-0.493528
H	-0.000145	0.762343	-2.059934
H	-0.000339	3.199164	-1.152593
H	-0.000311	3.311566	1.556025
H	-0.008120	-7.361589	0.909181
H	0.304668	-7.361192	-0.860264
H	-0.188062	-1.478831	1.063500
$end

$rem
JOBTYPE		SP
EXCHANGE	HF
CORRELATION	pRIMP2
BASIS		cc-pvtz
METHOD		rimp2
AUX_BASIS	rimp2-cc-pvtz
SOLVENT_METHOD	PCM
PURECART	11111
SYMMETRY	false
MEM_TOTAL	110000
SCF_CONVERGENCE = 6
THRESH=10
GUI = 2
$end



$solvent
dielectric 4.90
$end
--------------------------------------------------------------
 ----------------------------------------------------------------
             Standard Nuclear Orientation (Angstroms)
    I     Atom           X                Y                Z
 ----------------------------------------------------------------
    1      C       0.2532800000    -6.7414040000     0.0431600000
    2      C       1.5392130000    -6.1556380000     0.2697770000
    3      C      -0.8142950000    -5.7914520000    -0.1455430000
    4      C       1.8135190000    -4.8037860000     0.3183770000
    5      H       2.4039410000    -6.8215180000     0.4220580000
    6      C      -0.5271400000    -4.3786380000    -0.0941940000
    7      C       0.7830720000    -3.8380320000     0.1371910000
    8      C      -1.5564030000    -3.4130620000    -0.2751040000
    9      C       1.0679320000    -2.4264730000     0.1881160000
   10      C      -1.2854200000    -2.0593480000    -0.2267010000
   11      C       0.0000000000    -1.4782160000     0.0000000000
   12      H      -2.1511470000    -1.3947830000    -0.3789310000
   13      C      -2.2345820000    -6.1879870000    -0.3978450000
   14      C      -2.9652730000    -3.7981640000    -0.5236370000
   15      N      -3.2047440000    -5.1700030000    -0.5675860000
   16      C       3.2262570000    -4.4249870000     0.5674210000
   17      C       2.4894460000    -2.0366270000     0.4395410000
   18      N       3.4598010000    -3.0491560000     0.6096500000
   19      O      -2.6194680000    -7.3531310000    -0.4686080000
   20      O      -3.8746680000    -2.9868540000    -0.6830340000
   21      O       4.1248060000    -5.2489460000     0.7251310000
   22      O       2.8958190000    -0.8788290000     0.5126480000
   23      C      -4.5956910000    -5.5637990000    -0.8139080000
   24      H      -4.6400220000    -6.6640850000    -0.8228910000
   25      H      -4.9348300000    -5.1471010000    -1.7816000000
   26      H      -5.2461570000    -5.1487850000    -0.0203600000
   27      C       4.8297160000    -2.5874870000     0.8516490000
   28      H       5.4627420000    -3.4833290000     0.9621910000
   29      H       4.8632420000    -1.9649720000     1.7658650000
   30      H       5.1735210000    -1.9629320000     0.0053830000
   31      C       0.0000000000     0.0000000000     0.0000000000
   32      S      -0.0002010000     0.7931710000     1.5805300000
   33      C      -0.0002280000     2.4308850000     0.9049110000
   34      C      -0.0001680000     0.9979900000    -0.9854000000
   35      C      -0.0002670000     2.3182310000    -0.4935280000
   36      H      -0.0001450000     0.7623430000    -2.0599340000
   37      H      -0.0003390000     3.1991640000    -1.1525930000
   38      H      -0.0003110000     3.3115660000     1.5560250000
   39      H      -0.0081200000    -7.3615890000     0.9091810000
   40      H       0.3046680000    -7.3611920000    -0.8602640000
   41      H      -0.1880620000    -1.4788310000     1.0635000000
 ----------------------------------------------------------------
 Nuclear Repulsion Energy =        2548.87463757 hartrees
 There are       98 alpha and       98 beta electrons
 Requested basis set is cc-pVTZ
 There are 356 shells and 1010 basis functions

 Total QAlloc Memory Limit 110000 MB
 Mega-Array Size       188 MB
 MEM_STATIC part       192 MB
 Discretize the solute cavity surface with Lebedev spheres
	Using 110 Lebedev grid points for each H atom
	Using 194 Lebedev grid points for other atoms
	Atomic van der Waals radii will be scaled by 1.20
 Remove points where switching function is < 1.0e-08
 Keep 2664 surface tesserae and discard 4114 interior tesserae
 Molecular Surface Area = 371.446 Angst**2
 Requested basis set is rimp2-cc-pVTZ
 There are 770 shells and 2648 basis functions
 A cutoff of  1.0D-10 yielded  34005 shell pairs
 There are    256999 function pairs (    332663 Cartesian)
 Smallest overlap matrix eigenvalue = 8.95E-06

 Q-Chem warning in module stvman/mkSTV.C, line 323:

 Overlap eigenvalue is smaller than square root of threshold
 Use THRESH >= 12 to get rid of this warning


 Scale SEOQF with 1.000000e-02/1.000000e-02/1.000000e-01

 Standard Electronic Orientation quadrupole field applied
 Nucleus-field energy     =     0.0000000163 hartrees
 Guess from superposition of atomic densities
 Warning:  Energy on first SCF cycle will be non-variational
 SAD guess density has 196.000000 electrons

 -----------------------------------------------------------------------
  General SCF calculation program by
  Eric Jon Sundstrom, Paul Horn, Yuezhi Mao, Dmitri Zuev, Alec White,
  David Stuck, Shaama M.S., Shane Yost, Joonho Lee, David Small,
  Daniel Levine, Susi Lehtola, Hugh Burton, Evgeny Epifanovsky,
  Bang C. Huynh
 -----------------------------------------------------------------------
 Hartree-Fock
 using 64 threads for integral computing
 -------------------------------------------------------
 OpenMP Integral computing Module                
 Release: version 1.0, May 2013, Q-Chem Inc. Pittsburgh 
 -------------------------------------------------------
 A restricted SCF calculation will be
 performed using DIIS
 SCF converges when DIIS error is below 1.0e-06
 ---------------------------------------
  Cycle       Energy         DIIS error
 ---------------------------------------
    1   -1583.1005327127      1.86e-02  
    2   -1571.1686471814      2.03e-03  
    3   -1571.5082992745      1.55e-03  
    4   -1571.7306805245      2.52e-04  
    5   -1571.7444644053      7.75e-05  
    6   -1571.7458681418      2.99e-05  
    7   -1571.7462804167      1.53e-05  
    8   -1571.7463916148      6.17e-06  
    9   -1571.7464104023      2.87e-06  
   10   -1571.7464141228      1.21e-06  
   11   -1571.7464152871      5.60e-07  Convergence criterion met
 ---------------------------------------
 SCF time:   CPU 6837.76s  wall 276.00s 

************** Final PCM Free Energy Summary **************
 G_electrostatic  =      -0.03095313 hartree =     -19.42338210 kcal/mol
 G_cavitation     =       0.00000000 hartree =       0.00000000 kcal/mol
 G_dispersion     =       0.00000000 hartree =       0.00000000 kcal/mol
 G_repulsion      =       0.00000000 hartree =       0.00000000 kcal/mol
 --------------------------------------------------
 Non-electrostatic Free Energy =       0.00000000 hartree =       0.00000000 kcal/mol
 Total                         =      -0.03095313 hartree =     -19.42338210 kcal/mol
 --------------------------------------------------
 SCF Energy (H0 + V/2)                       =   -1571.74641529 
 Solute Internal Energy (H0)                 =   -1571.71546216 
 Total Free Energy (H0 + V/2 + non-elec)     =   -1571.74641529 hartree
                                             = -986285.76160294 kcal/mol
***********************************************************

 SCF   energy in the final basis set =    -1571.7464152871
 Total energy in the final basis set =    -1571.7464152871


 --------------------------------------------------------------
  Generalized many-body perturbation theory program
  by Joonho Lee, Fazle Rob, Xintian Feng, Evgeny Epifanovsky

 No regularization used 
 (reg. param. = 0.0000e+00)
  (P|Q)^-1/2 Time:  CPU 189.23 s  wall 3.74 s

 In RI-MP2 calculation: 
 # of frozen core orbitals: 31

 Components of the RIMP2 correlation energy:
        aaaa    correlation energy =        -0.6145861353 a.u.
        abab    correlation energy =        -3.4247847544 a.u.
        bbbb    correlation energy =        -0.6145861353 a.u.
        non-Brillouin singles      =        -0.0000000000 a.u.
        total same-spin energy     =        -1.2291722707 a.u.
        total opposite-spin energy =        -3.4247847544 a.u.

 Total  RIMP2   correlation energy =        -4.6539570251 a.u.
        RIMP2         total energy =     -1576.4003723122 a.u.

 RI-MP2 Energy Time:  CPU 1996.86 s  wall 34.41 s
 
 --------------------------------------------------------------
 
                    Orbital Energies (a.u.)
 --------------------------------------------------------------
 
 Alpha MOs
 -- Occupied --
-91.9920 -20.5516 -20.5443 -20.5422 -20.5408 -15.6265 -15.6215 -11.3929
-11.3850 -11.3840 -11.3794 -11.3088 -11.3084 -11.3049 -11.3047 -11.2964
-11.2951 -11.2895 -11.2823 -11.2698 -11.2681 -11.2649 -11.2625 -11.2595
-11.2531 -11.2529 -11.2508  -8.9916  -6.6725  -6.6720  -6.6714  -1.4190
 -1.4125  -1.3969  -1.3917  -1.2618  -1.2556  -1.2300  -1.1868  -1.1526
 -1.1142  -1.0869  -1.0466  -0.9960  -0.9878  -0.9844  -0.9550  -0.9511
 -0.8962  -0.8874  -0.8767  -0.8600  -0.7935  -0.7763  -0.7740  -0.7683
 -0.7373  -0.7170  -0.7042  -0.6914  -0.6780  -0.6704  -0.6676  -0.6572
 -0.6470  -0.6403  -0.6382  -0.6324  -0.6310  -0.6272  -0.6227  -0.6052
 -0.5846  -0.5753  -0.5665  -0.5613  -0.5572  -0.5512  -0.5504  -0.5480
 -0.5454  -0.5436  -0.5194  -0.5182  -0.5089  -0.4809  -0.4747  -0.4687
 -0.4575  -0.4509  -0.4429  -0.4349  -0.4132  -0.4076  -0.3559  -0.3513
 -0.3276  -0.2911
 -- Virtual --
  0.0149   0.0430   0.0908   0.0930   0.1293   0.1493   0.1552   0.1604
  0.1636   0.1721   0.1806   0.1831   0.1863   0.1899   0.1955   0.2008
  0.2054   0.2180   0.2220   0.2286   0.2305   0.2324   0.2366   0.2474
  0.2666   0.2689   0.2943   0.3038   0.3117   0.3145   0.3219   0.3249
  0.3275   0.3380   0.3426   0.3524   0.3546   0.3602   0.3640   0.3717
  0.3733   0.3779   0.3813   0.3839   0.3886   0.3915   0.3962   0.4042
  0.4137   0.4194   0.4273   0.4310   0.4339   0.4426   0.4444   0.4491
  0.4522   0.4562   0.4589   0.4691   0.4716   0.4789   0.4844   0.4914
  0.4957   0.4987   0.5060   0.5124   0.5157   0.5208   0.5274   0.5296
  0.5328   0.5400   0.5457   0.5472   0.5503   0.5561   0.5593   0.5634
  0.5671   0.5741   0.5746   0.5833   0.5883   0.5898   0.5952   0.5987
  0.6018   0.6059   0.6074   0.6090   0.6134   0.6193   0.6221   0.6259
  0.6260   0.6327   0.6353   0.6361   0.6384   0.6431   0.6471   0.6525
  0.6566   0.6603   0.6755   0.6792   0.6858   0.6882   0.6957   0.7005
  0.7039   0.7099   0.7200   0.7230   0.7338   0.7386   0.7464   0.7535
  0.7603   0.7655   0.7727   0.7769   0.7781   0.7853   0.7878   0.7953
  0.8015   0.8123   0.8152   0.8184   0.8261   0.8302   0.8415   0.8477
  0.8527   0.8561   0.8591   0.8636   0.8669   0.8706   0.8734   0.8833
  0.8970   0.8992   0.9060   0.9066   0.9108   0.9195   0.9255   0.9270
  0.9343   0.9394   0.9488   0.9527   0.9550   0.9609   0.9709   0.9766
  0.9795   0.9841   0.9925   0.9942   0.9990   1.0043   1.0108   1.0156
  1.0210   1.0292   1.0343   1.0354   1.0426   1.0544   1.0596   1.0626
  1.0668   1.0696   1.0718   1.0763   1.0828   1.0907   1.0939   1.0968
  1.1098   1.1137   1.1192   1.1295   1.1309   1.1353   1.1421   1.1469
  1.1492   1.1535   1.1595   1.1634   1.1660   1.1705   1.1740   1.1870
  1.1878   1.2002   1.2032   1.2068   1.2129   1.2146   1.2197   1.2242
  1.2304   1.2342   1.2398   1.2491   1.2530   1.2538   1.2642   1.2694
  1.2803   1.2896   1.2969   1.3042   1.3086   1.3249   1.3270   1.3319
  1.3463   1.3495   1.3576   1.3658   1.3665   1.3755   1.3821   1.3867
  1.3887   1.3896   1.3975   1.4095   1.4109   1.4172   1.4337   1.4373
  1.4483   1.4530   1.4641   1.4692   1.4826   1.4850   1.4905   1.4966
  1.5000   1.5024   1.5067   1.5135   1.5223   1.5257   1.5314   1.5354
  1.5439   1.5461   1.5494   1.5571   1.5648   1.5691   1.5707   1.5753
  1.5782   1.5854   1.6070   1.6099   1.6172   1.6247   1.6286   1.6411
  1.6484   1.6524   1.6709   1.6716   1.6785   1.6826   1.6883   1.6911
  1.7070   1.7121   1.7239   1.7360   1.7385   1.7461   1.7517   1.7542
  1.7569   1.7607   1.7715   1.7807   1.7874   1.7913   1.8025   1.8104
  1.8171   1.8286   1.8397   1.8463   1.8524   1.8581   1.8663   1.8715
  1.8737   1.8779   1.8858   1.8917   1.9062   1.9132   1.9316   1.9412
  1.9566   1.9628   1.9742   1.9767   1.9885   1.9926   2.0051   2.0113
  2.0291   2.0324   2.0490   2.0562   2.0879   2.1050   2.1072   2.1113
  2.1348   2.1451   2.1550   2.1621   2.1858   2.2032   2.2093   2.2221
  2.2291   2.2386   2.2451   2.2703   2.2852   2.2929   2.2938   2.3017
  2.3122   2.3213   2.3313   2.3367   2.3644   2.3678   2.3711   2.3868
  2.3978   2.4149   2.4311   2.4417   2.4493   2.4568   2.4573   2.4704
  2.4733   2.4792   2.4930   2.5029   2.5054   2.5304   2.5328   2.5424
  2.5544   2.5627   2.5725   2.5835   2.5873   2.5964   2.6042   2.6160
  2.6199   2.6303   2.6374   2.6410   2.6475   2.6595   2.6681   2.6783
  2.6810   2.6867   2.6918   2.6990   2.7160   2.7180   2.7246   2.7377
  2.7398   2.7503   2.7545   2.7576   2.7684   2.7719   2.7854   2.7923
  2.8051   2.8183   2.8344   2.8398   2.8487   2.8544   2.8598   2.8641
  2.8735   2.8784   2.8857   2.8924   2.8943   2.9080   2.9097   2.9198
  2.9215   2.9240   2.9292   2.9550   2.9581   2.9604   2.9639   2.9744
  2.9775   2.9859   2.9918   2.9961   3.0036   3.0140   3.0183   3.0299
  3.0308   3.0426   3.0450   3.0528   3.0623   3.0705   3.0784   3.0898
  3.1003   3.1023   3.1043   3.1088   3.1090   3.1171   3.1188   3.1333
  3.1361   3.1392   3.1488   3.1527   3.1605   3.1620   3.1683   3.1716
  3.1856   3.1905   3.1963   3.1997   3.2093   3.2126   3.2227   3.2247
  3.2286   3.2307   3.2343   3.2449   3.2515   3.2554   3.2598   3.2674
  3.2703   3.2720   3.2733   3.2854   3.2905   3.2958   3.3002   3.3055
  3.3117   3.3154   3.3195   3.3257   3.3267   3.3336   3.3367   3.3377
  3.3433   3.3484   3.3492   3.3531   3.3566   3.3624   3.3691   3.3754
  3.3783   3.3838   3.3844   3.3907   3.3977   3.4001   3.4039   3.4080
  3.4117   3.4197   3.4247   3.4284   3.4344   3.4413   3.4432   3.4520
  3.4575   3.4604   3.4634   3.4667   3.4732   3.4816   3.4845   3.4914
  3.4962   3.5007   3.5053   3.5079   3.5109   3.5171   3.5229   3.5289
  3.5326   3.5345   3.5389   3.5463   3.5533   3.5647   3.5679   3.5751
  3.5850   3.5952   3.5996   3.6011   3.6057   3.6181   3.6239   3.6269
  3.6277   3.6346   3.6401   3.6441   3.6517   3.6565   3.6578   3.6623
  3.6672   3.6771   3.6801   3.6846   3.6953   3.7026   3.7040   3.7081
  3.7145   3.7261   3.7306   3.7351   3.7382   3.7408   3.7433   3.7504
  3.7616   3.7637   3.7687   3.7712   3.7767   3.7791   3.7879   3.7983
  3.8062   3.8114   3.8138   3.8203   3.8267   3.8365   3.8417   3.8423
  3.8506   3.8538   3.8585   3.8653   3.8844   3.8880   3.8969   3.9009
  3.9067   3.9169   3.9197   3.9321   3.9358   3.9449   3.9467   3.9573
  3.9606   3.9644   3.9688   3.9723   3.9752   3.9866   3.9924   4.0147
  4.0161   4.0227   4.0277   4.0368   4.0502   4.0590   4.0699   4.0852
  4.0937   4.0999   4.1107   4.1202   4.1247   4.1318   4.1386   4.1418
  4.1432   4.1536   4.1676   4.1711   4.1785   4.1817   4.1929   4.2065
  4.2086   4.2181   4.2239   4.2317   4.2409   4.2452   4.2524   4.2581
  4.2687   4.2704   4.2747   4.2881   4.2883   4.2909   4.2968   4.3015
  4.3109   4.3184   4.3226   4.3288   4.3402   4.3428   4.3484   4.3529
  4.3638   4.3668   4.3695   4.3719   4.3763   4.3817   4.3886   4.3962
  4.4009   4.4061   4.4121   4.4216   4.4261   4.4404   4.4469   4.4546
  4.4674   4.4807   4.4877   4.4950   4.5041   4.5158   4.5217   4.5314
  4.5359   4.5413   4.5429   4.5536   4.5557   4.5746   4.5785   4.5853
  4.5912   4.5948   4.5954   4.6096   4.6154   4.6206   4.6270   4.6382
  4.6431   4.6455   4.6665   4.6692   4.6849   4.6986   4.7027   4.7050
  4.7107   4.7270   4.7380   4.7465   4.7693   4.7775   4.7916   4.8049
  4.8119   4.8209   4.8348   4.8417   4.8501   4.8663   4.8749   4.8807
  4.8932   4.8991   4.9101   4.9239   4.9285   4.9381   4.9565   4.9708
  4.9918   4.9955   5.0109   5.0267   5.0355   5.0471   5.0531   5.0632
  5.0677   5.0877   5.1022   5.1140   5.1211   5.1234   5.1293   5.1397
  5.1422   5.1576   5.1706   5.1755   5.1961   5.1974   5.2212   5.2273
  5.2630   5.2674   5.2729   5.2822   5.2866   5.2978   5.3227   5.3277
  5.3305   5.3404   5.3467   5.3683   5.3776   5.3886   5.4032   5.4162
  5.4366   5.4475   5.4684   5.4852   5.4943   5.5021   5.5141   5.5157
  5.5196   5.5362   5.5413   5.5507   5.5584   5.5593   5.5667   5.5707
  5.5807   5.5857   5.5869   5.6083   5.6117   5.6186   5.6217   5.6309
  5.6485   5.6550   5.6614   5.6662   5.6667   5.6733   5.6914   5.6943
  5.6964   5.7047   5.7272   5.7436   5.7516   5.7618   5.7672   5.7749
  5.7856   5.7874   5.8005   5.8309   5.8410   5.8450   5.8784   5.9051
  5.9289   5.9551   5.9611   5.9909   6.0153   6.0252   6.0324   6.0414
  6.0471   6.0876   6.0920   6.1115   6.1232   6.1406   6.1460   6.1853
  6.2005   6.2195   6.2254   6.2263   6.2422   6.2602   6.2654   6.2830
  6.3090   6.3149   6.3237   6.3495   6.3651   6.3830   6.4371   6.4838
  6.5170   6.5327   6.5751   6.5824   6.6040   6.6180   6.6593   6.6671
  6.6741   6.6893   6.8435   6.8498   6.8873   6.9008   6.9043   6.9198
  6.9255   6.9297   7.1005   7.1079   7.1465   7.1914   7.1989   7.2345
  7.3471   7.3516   7.3561   7.3597   7.4752   7.5425   7.5693   7.5821
  7.5856   7.5949   7.6530   7.6714   7.6909   7.7126   8.8308  10.0600
 10.3118  11.3158  11.4926  11.7474  12.0637  12.0746  12.4195  12.4567
 12.8750  13.1829  13.3235  13.5528  13.7487  13.9260  14.1217  14.2661
 14.3126  14.3572  14.4741  14.5534  15.0058  15.6062  15.8112  16.3560
 --------------------------------------------------------------
 
          Ground-State Mulliken Net Atomic Charges

     Atom                 Charge (a.u.)
  ----------------------------------------
      1 C                    -0.084519
      2 C                    -0.030837
      3 C                    -0.109824
      4 C                    -0.122026
      5 H                     0.198652
      6 C                     0.011910
      7 C                     0.122124
      8 C                    -0.091351
      9 C                    -0.183022
     10 C                    -0.118541
     11 C                     0.237949
     12 H                     0.192390
     13 C                     0.343549
     14 C                     0.351141
     15 N                    -0.090481
     16 C                     0.357335
     17 C                     0.355771
     18 N                    -0.092097
     19 O                    -0.493590
     20 O                    -0.507060
     21 O                    -0.501783
     22 O                    -0.471279
     23 C                    -0.204704
     24 H                     0.139519
     25 H                     0.109124
     26 H                     0.109241
     27 C                    -0.197090
     28 H                     0.132997
     29 H                     0.111649
     30 H                     0.111667
     31 C                    -0.065214
     32 S                     0.012994
     33 C                    -0.214865
     34 C                    -0.170289
     35 C                    -0.204519
     36 H                     0.189431
     37 H                     0.191342
     38 H                     0.212420
     39 H                     0.137760
     40 H                     0.137829
     41 H                     0.186294
  ----------------------------------------
  Sum of atomic charges =     0.000000

 -----------------------------------------------------------------
                    Cartesian Multipole Moments
 -----------------------------------------------------------------
    Charge (ESU x 10^10)
                 0.0000
    Dipole Moment (Debye)
         X       0.7357      Y       2.2612      Z      -0.0707
       Tot       2.3789
    Quadrupole Moments (Debye-Ang)
        XX    -195.0011     XY      -8.1402     YY    -176.9435
        XZ      -5.5366     YZ      -1.9575     ZZ    -157.1313
    Octopole Moments (Debye-Ang^2)
       XXX     -48.0088    XXY     589.5048    XYY      43.3119
       YYY    1685.3485    XXZ     -21.0209    XYZ      23.6181
       YYZ       0.0404    XZZ     -15.3219    YZZ     475.3051
       ZZZ     -62.9689
    Hexadecapole Moments (Debye-Ang^3)
      XXXX   -6171.3496   XXXY     -49.5539   XXYY   -4444.7777
      XYYY   -1146.3945   YYYY  -18033.7417   XXXZ    -562.8422
      XXYZ      16.7661   XYYZ    -317.9275   YYYZ    -236.2783
      XXZZ   -1086.9584   XYZZ    -113.7657   YYZZ   -2705.1340
      XZZZ    -493.2026   YZZZ    -108.2491   ZZZZ    -640.3152
 -----------------------------------------------------------------
 Total job time:  315.38s(wall), 8950.53s(cpu) 
 Sun Sep 24 15:54:40 2023

        *************************************************************
        *                                                           *
        *  Thank you very much for using Q-Chem.  Have a nice day.  *
        *                                                           *
        *************************************************************


0 sent ACK to 0 
now end server 0 ... 
cleanup process ... done
remove work dirs ./qchem3022122.0 -- ./qchem3022122.0
rm -rf ./qchem3022122.0
rm -rf ./qchem3022122
