You are running Q-Chem version: 5.4.0

#
# job setting
#
local host:  exp-4-53
current dir: /expanse/lustre/projects/csd626/rramji/aromodel/PNDIT/Hydrogenated_Rotation_Test
input file:  Dimethyl_Naphthalene_Dicarboximide_Phi_15_Theta_340_Thiophene_Hydrogenated.qcin
output file: 
nprocs     : 1
nthreads   : 64
#
# qchem installation setting
#
QC:          /cm/shared/apps/spack/cpu/opt/spack/linux-centos8-zen2/gcc-10.2.0/qchem-5.4-akfmr7b3t57bfs6qan3padb2wnb2i7cl
QCAUX:       /cm/shared/apps/spack/cpu/opt/spack/linux-centos8-zen2/gcc-10.2.0/qchem-5.4-akfmr7b3t57bfs6qan3padb2wnb2i7cl/qcaux
QCPROG:      /cm/shared/apps/spack/cpu/opt/spack/linux-centos8-zen2/gcc-10.2.0/qchem-5.4-akfmr7b3t57bfs6qan3padb2wnb2i7cl/exe/qcprog.exe
QCPROG_S:    /cm/shared/apps/spack/cpu/opt/spack/linux-centos8-zen2/gcc-10.2.0/qchem-5.4-akfmr7b3t57bfs6qan3padb2wnb2i7cl/exe/qcprog.exe_s
PARALLEL:    -DPARALLEL
QCMPI:       mpich
#
# qchem directory setting
#
qcrun:       qchem1616014
QCSCRATCH:   .
QCLOCALSCR:  
QCTMPDIR:    .
QCFILEPREF:  ./qchem1616014
QCSAVEDIR:   
workdirs:    ./qchem1616014
workdir0:    ./qchem1616014
partmpdirs =  
#
# parallel setting
#
QCRSH:           ssh
QCMPI:           mpich
QCMPIRUN:        /cm/shared/apps/spack/cpu/opt/spack/linux-centos8-zen2/gcc-10.2.0/qchem-5.4-akfmr7b3t57bfs6qan3padb2wnb2i7cl/bin/mpi/mpirun_qchem
QCMACHINEFILE:   ./qchem1616014/hostfile
exp-4-53

#
# env setting
#
exported envs:   QC QCAUX QCSCRATCH QCRUNNAME QCFILEPREF QCPROG QCPROG_S GUIFILE

Running Job 1 of 1 Dimethyl_Naphthalene_Dicarboximide_Phi_15_Theta_340_Thiophene_Hydrogenated.qcin
qchem Dimethyl_Naphthalene_Dicarboximide_Phi_15_Theta_340_Thiophene_Hydrogenated.qcin_1616014.0 ./qchem1616014/ 1
/cm/shared/apps/spack/cpu/opt/spack/linux-centos8-zen2/gcc-10.2.0/qchem-5.4-akfmr7b3t57bfs6qan3padb2wnb2i7cl/bin/mpi/mpirun_qchem -machinefile ./qchem1616014/hostfile -np 1 /cm/shared/apps/spack/cpu/opt/spack/linux-centos8-zen2/gcc-10.2.0/qchem-5.4-akfmr7b3t57bfs6qan3padb2wnb2i7cl/exe/qcprog.exe Dimethyl_Naphthalene_Dicarboximide_Phi_15_Theta_340_Thiophene_Hydrogenated.qcin_1616014.0 ./qchem1616014/

Process 0 of 1 is on exp-4-53 - thread support 0
initial socket setup ...start
initial socket setup ...done 
now start server 0 ... 
                  Welcome to Q-Chem
     A Quantum Leap Into The Future Of Chemistry


 Q-Chem 5.4, Q-Chem, Inc., Pleasanton, CA (2021)

 License issued to: University of California, San Diego (site)

 E. Epifanovsky,  A. T. B. Gilbert,  Xintian Feng,  Joonho Lee,  Yuezhi Mao,  
 N. Mardirossian,  P. Pokhilko,  A. White,  M. Wormit,  M. P. Coons,  
 A. L. Dempwolff,  Zhengting Gan,  D. Hait,  P. R. Horn,  L. D. Jacobson,  
 I. Kaliman,  J. Kussmann,  A. W. Lange,  Ka Un Lao,  D. S. Levine,  Jie Liu,  
 S. C. McKenzie,  A. F. Morrison,  K. Nanda,  F. Plasser,  D. R. Rehn,  
 M. L. Vidal,  Zhi-Qiang You,  Ying Zhu,  B. Alam,  B. Albrecht,  
 A. Aldossary,  E. Alguire,  J. H. Andersen,  D. Barton,  K. Begam,  A. Behn,  
 Y. A. Bernard,  E. J. Berquist,  H. Burton,  A. Carreras,  K. Carter-Fenk,  
 R. Chakraborty,  A. D. Chien,  K. D. Closser,  V. Cofer-Shabica,  
 S. Dasgupta,  Jia Deng,  M. de Wergifosse,  M. Diedenhofen,  Hainam Do,  
 S. Ehlert,  Po-Tung Fang,  S. Fatehi,  Qingguo Feng,  J. Gayvert,  
 Qinghui Ge,  G. Gidofalvi,  M. Goldey,  J. Gomes,  C. Gonzalez-Espinoza,  
 S. Gulania,  A. Gunina,  M. W. D. Hanson-Heine,  P. H. P. Harbach,  
 A. W. Hauser,  M. F. Herbst,  M. Hernandez Vera,  M. Hodecker,  
 Z. C. Holden,  S. Houck,  Xunkun Huang,  Kerwin Hui,  B. C. Huynh,  
 M. Ivanov,  Hyunjun Ji,  Hanjie Jiang,  B. Kaduk,  S. Kaehler,  
 K. Khistyaev,  Jaehoon Kim,  P. Klunzinger,  Z. Koczor-Benda,  
 Joong Hoon Koh,  D. Kosenkov,  L. Koulias,  T. Kowalczyk,  C. M. Krauter,  
 K. Kue,  A. Kunitsa,  T. Kus,  A. Landau,  K. V. Lawler,  D. Lefrancois,  
 S. Lehtola,  Rain Li,  Yi-Pei Li,  Jiashu Liang,  M. Liebenthal,  
 Hung-Hsuan Lin,  You-Sheng Lin,  Fenglai Liu,  Kuan-Yu Liu,  
 M. Loipersberger,  A. Luenser,  A. Manjanath,  P. Manohar,  E. Mansoor,  
 S. F. Manzer,  Shan-Ping Mao,  A. V. Marenich,  T. Markovich,  S. Mason,  
 S. A. Maurer,  P. F. McLaughlin,  M. F. S. J. Menger,  J.-M. Mewes,  
 S. A. Mewes,  P. Morgante,  J. W. Mullinax,  T. S. Nguyen-Beck,  
 K. J. Oosterbaan,  G. Paran,  Alexander C. Paul,  Suranjan K. Paul,  
 F. Pavosevic,  Zheng Pei,  S. Prager,  E. I. Proynov,  E. Ramos,  B. Rana,  
 A. E. Rask,  A. Rettig,  R. M. Richard,  F. Rob,  E. Rossomme,  T. Scheele,  
 M. Scheurer,  M. Schneider,  N. Sergueev,  S. M. Sharada,  W. Skomorowski,  
 D. W. Small,  C. J. Stein,  Yu-Chuan Su,  E. J. Sundstrom,  Zhen Tao,  
 J. Thirman,  T. Tsuchimochi,  N. M. Tubman,  S. P. Veccham,  O. Vydrov,  
 J. Wenzel,  J. Witte,  A. Yamada,  Kun Yao,  S. Yeganeh,  S. R. Yost,  
 A. Zech,  Igor Ying Zhang,  Xing Zhang,  Yu Zhang,  D. Zuev,  
 A. Aspuru-Guzik,  A. T. Bell,  N. A. Besley,  K. B. Bravaya,  B. R. Brooks,  
 D. Casanova,  Jeng-Da Chai,  S. Coriani,  C. J. Cramer,  
 A. E. DePrince, III,  R. A. DiStasio Jr.,  A. Dreuw,  B. D. Dunietz,  
 T. R. Furlani,  W. A. Goddard III,  S. Grimme,  S. Hammes-Schiffer,  
 T. Head-Gordon,  W. J. Hehre,  Chao-Ping Hsu,  T.-C. Jagau,  Yousung Jung,  
 A. Klamt,  Jing Kong,  D. S. Lambrecht,  WanZhen Liang,  N. J. Mayhall,  
 C. W. McCurdy,  J. B. Neaton,  C. Ochsenfeld,  J. A. Parkhill,  R. Peverati,  
 V. A. Rassolov,  Yihan Shao,  L. V. Slipchenko,  T. Stauch,  R. P. Steele,  
 J. E. Subotnik,  A. J. W. Thom,  A. Tkatchenko,  D. G. Truhlar,  
 T. Van Voorhis,  T. A. Wesolowski,  K. B. Whaley,  H. L. Woodcock III,  
 P. M. Zimmerman,  S. Faraji,  P. M. W. Gill,  M. Head-Gordon,  
 J. M. Herbert,  A. I. Krylov

 Contributors to earlier versions of Q-Chem not listed above: 
 R. D. Adamson,  B. Austin,  R. Baer,  J. Baker,  G. J. O. Beran,  
 K. Brandhorst,  S. T. Brown,  E. F. C. Byrd,  A. K. Chakraborty,  
 G. K. L. Chan,  Chun-Min Chang,  Yunqing Chen,  C.-L. Cheng,  
 Siu Hung Chien,  D. M. Chipman,  D. L. Crittenden,  H. Dachsel,  
 R. J. Doerksen,  A. D. Dutoi,  R. G. Edgar,  J. Fosso-Tande,  
 L. Fusti-Molnar,  D. Ghosh,  A. Ghysels,  A. Golubeva-Zadorozhnaya,  
 J. Gonthier,  M. S. Gordon,  S. R. Gwaltney,  G. Hawkins,  J. E. Herr,  
 A. Heyden,  S. Hirata,  E. G. Hohenstein,  G. Kedziora,  F. J. Keil,  
 C. Kelley,  Jihan Kim,  R. A. King,  R. Z. Khaliullin,  P. P. Korambath,  
 W. Kurlancheek,  A. Laurent,  A. M. Lee,  M. S. Lee,  S. V. Levchenko,  
 Ching Yeh Lin,  D. Liotard,  E. Livshits,  R. C. Lochan,  I. Lotan,  
 L. A. Martinez-Martinez,  P. E. Maslen,  N. Nair,  D. P. O'Neill,  
 D. Neuhauser,  E. Neuscamman,  C. M. Oana,  R. Olivares-Amaya,  R. Olson,  
 T. M. Perrine,  B. Peters,  P. A. Pieniazek,  A. Prociuk,  Y. M. Rhee,  
 J. Ritchie,  M. A. Rohrdanz,  E. Rosta,  N. J. Russ,  H. F. Schaefer III,  
 M. W. Schmidt,  N. E. Schultz,  S. Sharma,  N. Shenvi,  C. D. Sherrill,  
 A. C. Simmonett,  A. Sodt,  T. Stein,  D. Stuck,  K. S. Thanthiriwatte,  
 V. Vanovschi,  L. Vogt,  Tao Wang,  A. Warshel,  M. A. Watson,  
 C. F. Williams,  Q. Wu,  X. Xu,  Jun Yang,  W. Zhang,  Yan Zhao

 Please cite Q-Chem as follows:
 Y. Shao et al., Mol. Phys. 113, 184-215 (2015)
 DOI: 10.1080/00268976.2014.952696

 Q-Chem 5.4.0 for Intel X86 EM64T Linux

 Parts of Q-Chem use Armadillo 9.800.1 (Horizon Scraper).
 http://arma.sourceforge.net/

 Q-Chem begins on Wed Sep 27 00:48:25 2023  

 Host: 
0

     Scratch files written to ./qchem1616014//
 May1621 |scratch|qcdevops|jenkins|workspace|build_RNUM    
 Parallel job on  1  processors
 Processing $rem in /cm/shared/apps/spack/cpu/opt/spack/linux-centos8-zen2/gcc-10.2.0/qchem-5.4-akfmr7b3t57bfs6qan3padb2wnb2i7cl/config/preferences:
 Processing $rem in /home/rramji/.qchemrc:
 Symmetry turned off for PCM/SM12/SMD calculation
 Core orbitals will be frozen

 Checking the input file for inconsistencies... 	...done.

 Q-Chem warning in module forms1/BasisType.C, line 2236:

 You are not using the predefined 5D/6D in this basis set.


--------------------------------------------------------------
User input:
--------------------------------------------------------------
$molecule
0 1
C	-0.089263	-6.741404	-0.240927
C	-0.535973	-6.155638	-1.467886
C	0.281103	-5.791452	0.777972
C	-0.631036	-4.803786	-1.729742
H	-0.836458	-6.821518	-2.292903
C	0.181995	-4.378638	0.503614
C	-0.272725	-3.838032	-0.746756
C	0.539954	-3.413062	1.485437
C	-0.371053	-2.426473	-1.018915
C	0.446381	-2.059348	1.226557
C	0.000000	-1.478216	0.000000
H	0.747410	-1.394783	2.052413
C	0.772747	-6.187987	2.134128
C	1.029154	-3.798164	2.829820
N	1.110828	-5.170003	3.059182
C	-1.121728	-4.424987	-3.077731
C	-0.864069	-2.036627	-2.375694
N	-1.201928	-3.049156	-3.301101
O	0.903908	-7.353131	2.502830
O	1.345809	-2.986854	3.697078
O	-1.434422	-5.248946	-3.934752
O	-1.003943	-0.878829	-2.764177
C	1.592981	-5.563799	4.386939
H	1.607367	-6.664085	4.429822
H	0.924504	-5.147101	5.164489
H	2.605446	-5.148785	4.553486
C	-1.677308	-2.587487	-4.608481
H	-1.898089	-3.483329	-5.211969
H	-0.902337	-1.964972	-5.094624
H	-2.582098	-1.962932	-4.483092
C	0.000000	0.000000	0.000000
S	0.205093	0.766196	1.580530
C	0.628939	2.348114	0.904911
C	0.258137	0.964028	-0.985400
C	0.599745	2.239309	-0.493528
H	0.197169	0.736404	-2.059934
H	0.827678	3.090243	-1.152593
H	0.856796	3.198808	1.556025
H	0.791434	-7.361589	-0.447559
H	-0.897345	-7.361192	0.166282
H	1.015049	-1.478831	-0.368883
$end

$rem
JOBTYPE		SP
EXCHANGE	HF
CORRELATION	pRIMP2
BASIS		cc-pvtz
METHOD		rimp2
AUX_BASIS	rimp2-cc-pvtz
SOLVENT_METHOD	PCM
PURECART	11111
SYMMETRY	false
MEM_TOTAL	110000
SCF_CONVERGENCE = 6
THRESH=10
GUI = 2
$end



$solvent
dielectric 4.90
$end
--------------------------------------------------------------
 ----------------------------------------------------------------
             Standard Nuclear Orientation (Angstroms)
    I     Atom           X                Y                Z
 ----------------------------------------------------------------
    1      C      -0.0892630000    -6.7414040000    -0.2409270000
    2      C      -0.5359730000    -6.1556380000    -1.4678860000
    3      C       0.2811030000    -5.7914520000     0.7779720000
    4      C      -0.6310360000    -4.8037860000    -1.7297420000
    5      H      -0.8364580000    -6.8215180000    -2.2929030000
    6      C       0.1819950000    -4.3786380000     0.5036140000
    7      C      -0.2727250000    -3.8380320000    -0.7467560000
    8      C       0.5399540000    -3.4130620000     1.4854370000
    9      C      -0.3710530000    -2.4264730000    -1.0189150000
   10      C       0.4463810000    -2.0593480000     1.2265570000
   11      C       0.0000000000    -1.4782160000     0.0000000000
   12      H       0.7474100000    -1.3947830000     2.0524130000
   13      C       0.7727470000    -6.1879870000     2.1341280000
   14      C       1.0291540000    -3.7981640000     2.8298200000
   15      N       1.1108280000    -5.1700030000     3.0591820000
   16      C      -1.1217280000    -4.4249870000    -3.0777310000
   17      C      -0.8640690000    -2.0366270000    -2.3756940000
   18      N      -1.2019280000    -3.0491560000    -3.3011010000
   19      O       0.9039080000    -7.3531310000     2.5028300000
   20      O       1.3458090000    -2.9868540000     3.6970780000
   21      O      -1.4344220000    -5.2489460000    -3.9347520000
   22      O      -1.0039430000    -0.8788290000    -2.7641770000
   23      C       1.5929810000    -5.5637990000     4.3869390000
   24      H       1.6073670000    -6.6640850000     4.4298220000
   25      H       0.9245040000    -5.1471010000     5.1644890000
   26      H       2.6054460000    -5.1487850000     4.5534860000
   27      C      -1.6773080000    -2.5874870000    -4.6084810000
   28      H      -1.8980890000    -3.4833290000    -5.2119690000
   29      H      -0.9023370000    -1.9649720000    -5.0946240000
   30      H      -2.5820980000    -1.9629320000    -4.4830920000
   31      C       0.0000000000     0.0000000000     0.0000000000
   32      S       0.2050930000     0.7661960000     1.5805300000
   33      C       0.6289390000     2.3481140000     0.9049110000
   34      C       0.2581370000     0.9640280000    -0.9854000000
   35      C       0.5997450000     2.2393090000    -0.4935280000
   36      H       0.1971690000     0.7364040000    -2.0599340000
   37      H       0.8276780000     3.0902430000    -1.1525930000
   38      H       0.8567960000     3.1988080000     1.5560250000
   39      H       0.7914340000    -7.3615890000    -0.4475590000
   40      H      -0.8973450000    -7.3611920000     0.1662820000
   41      H       1.0150490000    -1.4788310000    -0.3688830000
 ----------------------------------------------------------------
 Nuclear Repulsion Energy =        2553.63577201 hartrees
 There are       98 alpha and       98 beta electrons
 Requested basis set is cc-pVTZ
 There are 356 shells and 1010 basis functions

 Total QAlloc Memory Limit 110000 MB
 Mega-Array Size       188 MB
 MEM_STATIC part       192 MB
 Discretize the solute cavity surface with Lebedev spheres
	Using 110 Lebedev grid points for each H atom
	Using 194 Lebedev grid points for other atoms
	Atomic van der Waals radii will be scaled by 1.20
 Remove points where switching function is < 1.0e-08
 Keep 2576 surface tesserae and discard 4202 interior tesserae
 Molecular Surface Area = 363.648 Angst**2
 Requested basis set is rimp2-cc-pVTZ
 There are 770 shells and 2648 basis functions
 A cutoff of  1.0D-10 yielded  34184 shell pairs
 There are    258684 function pairs (    334835 Cartesian)
 Smallest overlap matrix eigenvalue = 9.02E-06

 Q-Chem warning in module stvman/mkSTV.C, line 323:

 Overlap eigenvalue is smaller than square root of threshold
 Use THRESH >= 12 to get rid of this warning


 Scale SEOQF with 1.000000e-01/1.000000e-02/1.000000e-01

 Standard Electronic Orientation quadrupole field applied
 Nucleus-field energy     =    -0.0000000970 hartrees
 Guess from superposition of atomic densities
 Warning:  Energy on first SCF cycle will be non-variational
 SAD guess density has 196.000000 electrons

 -----------------------------------------------------------------------
  General SCF calculation program by
  Eric Jon Sundstrom, Paul Horn, Yuezhi Mao, Dmitri Zuev, Alec White,
  David Stuck, Shaama M.S., Shane Yost, Joonho Lee, David Small,
  Daniel Levine, Susi Lehtola, Hugh Burton, Evgeny Epifanovsky,
  Bang C. Huynh
 -----------------------------------------------------------------------
 Hartree-Fock
 using 64 threads for integral computing
 -------------------------------------------------------
 OpenMP Integral computing Module                
 Release: version 1.0, May 2013, Q-Chem Inc. Pittsburgh 
 -------------------------------------------------------
 A restricted SCF calculation will be
 performed using DIIS
 SCF converges when DIIS error is below 1.0e-06
 ---------------------------------------
  Cycle       Energy         DIIS error
 ---------------------------------------
    1   -1583.1753435534      1.87e-02  
    2   -1571.1553664748      2.03e-03  
    3   -1571.4973512825      1.55e-03  
    4   -1571.7192359329      2.53e-04  
    5   -1571.7330654572      7.84e-05  
    6   -1571.7344874359      3.01e-05  
    7   -1571.7349066955      1.55e-05  
    8   -1571.7350202943      6.09e-06  
    9   -1571.7350396818      2.88e-06  
   10   -1571.7350434852      1.22e-06  
   11   -1571.7350447060      5.87e-07  Convergence criterion met
 ---------------------------------------
 SCF time:   CPU 6652.75s  wall 260.00s 

************** Final PCM Free Energy Summary **************
 G_electrostatic  =      -0.02818473 hartree =     -17.68618281 kcal/mol
 G_cavitation     =       0.00000000 hartree =       0.00000000 kcal/mol
 G_dispersion     =       0.00000000 hartree =       0.00000000 kcal/mol
 G_repulsion      =       0.00000000 hartree =       0.00000000 kcal/mol
 --------------------------------------------------
 Non-electrostatic Free Energy =       0.00000000 hartree =       0.00000000 kcal/mol
 Total                         =      -0.02818473 hartree =     -17.68618281 kcal/mol
 --------------------------------------------------
 SCF Energy (H0 + V/2)                       =   -1571.73504471 
 Solute Internal Energy (H0)                 =   -1571.70685998 
 Total Free Energy (H0 + V/2 + non-elec)     =   -1571.73504471 hartree
                                             = -986278.62645564 kcal/mol
***********************************************************

 SCF   energy in the final basis set =    -1571.7350447060
 Total energy in the final basis set =    -1571.7350447060


 --------------------------------------------------------------
  Generalized many-body perturbation theory program
  by Joonho Lee, Fazle Rob, Xintian Feng, Evgeny Epifanovsky

 No regularization used 
 (reg. param. = 0.0000e+00)
  (P|Q)^-1/2 Time:  CPU 170.03 s  wall 3.35 s

 In RI-MP2 calculation: 
 # of frozen core orbitals: 31

 Components of the RIMP2 correlation energy:
        aaaa    correlation energy =        -0.6160385618 a.u.
        abab    correlation energy =        -3.4268251244 a.u.
        bbbb    correlation energy =        -0.6160385618 a.u.
        non-Brillouin singles      =        -0.0000000000 a.u.
        total same-spin energy     =        -1.2320771237 a.u.
        total opposite-spin energy =        -3.4268251244 a.u.

 Total  RIMP2   correlation energy =        -4.6589022480 a.u.
        RIMP2         total energy =     -1576.3939469541 a.u.

 RI-MP2 Energy Time:  CPU 1975.10 s  wall 34.70 s
 
 --------------------------------------------------------------
 
                    Orbital Energies (a.u.)
 --------------------------------------------------------------
 
 Alpha MOs
 -- Occupied --
-91.9905 -20.5536 -20.5454 -20.5421 -20.5412 -15.6285 -15.6217 -11.3961
-11.3862 -11.3840 -11.3797 -11.3098 -11.3082 -11.3060 -11.3051 -11.2990
-11.2976 -11.2924 -11.2762 -11.2700 -11.2689 -11.2665 -11.2640 -11.2596
-11.2534 -11.2484 -11.2424  -8.9905  -6.6713  -6.6708  -6.6702  -1.4221
 -1.4127  -1.3991  -1.3918  -1.2638  -1.2560  -1.2319  -1.1883  -1.1510
 -1.1151  -1.0873  -1.0484  -0.9959  -0.9885  -0.9838  -0.9557  -0.9496
 -0.8978  -0.8901  -0.8778  -0.8610  -0.7958  -0.7807  -0.7721  -0.7589
 -0.7398  -0.7172  -0.7017  -0.6910  -0.6837  -0.6731  -0.6682  -0.6580
 -0.6486  -0.6469  -0.6381  -0.6321  -0.6315  -0.6291  -0.6236  -0.6051
 -0.5917  -0.5728  -0.5647  -0.5606  -0.5586  -0.5524  -0.5508  -0.5496
 -0.5481  -0.5433  -0.5166  -0.5147  -0.5119  -0.4866  -0.4756  -0.4617
 -0.4579  -0.4516  -0.4433  -0.4357  -0.4149  -0.4081  -0.3564  -0.3507
 -0.3320  -0.2789
 -- Virtual --
  0.0119   0.0399   0.0876   0.0991   0.1423   0.1500   0.1565   0.1597
  0.1635   0.1704   0.1775   0.1811   0.1892   0.1971   0.2030   0.2088
  0.2138   0.2221   0.2243   0.2283   0.2322   0.2347   0.2479   0.2556
  0.2642   0.2712   0.3025   0.3099   0.3158   0.3202   0.3291   0.3343
  0.3390   0.3413   0.3458   0.3501   0.3547   0.3573   0.3635   0.3656
  0.3714   0.3815   0.3857   0.3896   0.3916   0.3988   0.4049   0.4143
  0.4192   0.4218   0.4285   0.4346   0.4416   0.4419   0.4459   0.4507
  0.4563   0.4611   0.4647   0.4674   0.4788   0.4838   0.4874   0.4923
  0.4972   0.5014   0.5096   0.5107   0.5145   0.5185   0.5239   0.5295
  0.5337   0.5404   0.5419   0.5454   0.5533   0.5573   0.5596   0.5645
  0.5764   0.5776   0.5805   0.5835   0.5888   0.5915   0.5984   0.6004
  0.6037   0.6070   0.6084   0.6092   0.6141   0.6170   0.6221   0.6296
  0.6307   0.6318   0.6352   0.6396   0.6427   0.6485   0.6556   0.6621
  0.6669   0.6694   0.6768   0.6787   0.6923   0.6932   0.6986   0.7044
  0.7097   0.7105   0.7177   0.7347   0.7373   0.7421   0.7552   0.7607
  0.7630   0.7683   0.7716   0.7777   0.7853   0.7917   0.7953   0.8025
  0.8075   0.8157   0.8227   0.8294   0.8347   0.8394   0.8446   0.8500
  0.8522   0.8609   0.8648   0.8691   0.8761   0.8778   0.8784   0.8878
  0.8883   0.8924   0.9008   0.9113   0.9180   0.9245   0.9257   0.9310
  0.9382   0.9402   0.9493   0.9597   0.9609   0.9649   0.9721   0.9740
  0.9841   0.9917   0.9957   1.0013   1.0061   1.0093   1.0117   1.0194
  1.0223   1.0250   1.0392   1.0467   1.0545   1.0559   1.0581   1.0597
  1.0679   1.0715   1.0734   1.0748   1.0824   1.0932   1.0986   1.1021
  1.1096   1.1181   1.1236   1.1273   1.1312   1.1353   1.1370   1.1421
  1.1464   1.1516   1.1606   1.1646   1.1711   1.1753   1.1800   1.1857
  1.1919   1.2006   1.2031   1.2053   1.2114   1.2128   1.2214   1.2258
  1.2311   1.2363   1.2412   1.2492   1.2515   1.2589   1.2659   1.2693
  1.2771   1.2838   1.2975   1.3014   1.3131   1.3220   1.3279   1.3398
  1.3446   1.3511   1.3538   1.3617   1.3680   1.3797   1.3834   1.3851
  1.3927   1.3936   1.4012   1.4026   1.4139   1.4203   1.4270   1.4465
  1.4485   1.4545   1.4630   1.4638   1.4778   1.4803   1.4840   1.4910
  1.4983   1.5043   1.5134   1.5164   1.5177   1.5264   1.5323   1.5347
  1.5470   1.5496   1.5569   1.5621   1.5677   1.5706   1.5756   1.5866
  1.5889   1.5925   1.6042   1.6055   1.6211   1.6355   1.6398   1.6474
  1.6517   1.6584   1.6630   1.6742   1.6829   1.6917   1.6954   1.6985
  1.7147   1.7252   1.7271   1.7315   1.7431   1.7499   1.7537   1.7592
  1.7643   1.7702   1.7781   1.7868   1.7965   1.8016   1.8070   1.8175
  1.8233   1.8356   1.8426   1.8481   1.8503   1.8640   1.8680   1.8690
  1.8754   1.8786   1.8911   1.8983   1.9101   1.9170   1.9369   1.9517
  1.9575   1.9656   1.9737   1.9842   1.9884   1.9950   2.0174   2.0276
  2.0312   2.0427   2.0665   2.0694   2.0736   2.1016   2.1084   2.1199
  2.1354   2.1471   2.1566   2.1678   2.1767   2.1979   2.2128   2.2154
  2.2336   2.2385   2.2497   2.2809   2.2905   2.2961   2.2981   2.3027
  2.3201   2.3273   2.3340   2.3404   2.3572   2.3644   2.3823   2.3879
  2.4057   2.4220   2.4248   2.4343   2.4525   2.4573   2.4640   2.4722
  2.4919   2.4958   2.5093   2.5173   2.5216   2.5346   2.5522   2.5608
  2.5649   2.5654   2.5808   2.5887   2.5952   2.5995   2.6058   2.6143
  2.6244   2.6363   2.6398   2.6437   2.6537   2.6650   2.6744   2.6768
  2.6894   2.6933   2.7015   2.7064   2.7170   2.7209   2.7325   2.7351
  2.7378   2.7443   2.7583   2.7607   2.7682   2.7730   2.7799   2.7855
  2.8048   2.8274   2.8400   2.8402   2.8498   2.8560   2.8604   2.8631
  2.8766   2.8803   2.8851   2.8960   2.8990   2.9065   2.9082   2.9138
  2.9227   2.9254   2.9321   2.9428   2.9464   2.9534   2.9634   2.9741
  2.9742   2.9861   2.9944   3.0023   3.0040   3.0102   3.0244   3.0321
  3.0329   3.0405   3.0435   3.0517   3.0626   3.0729   3.0804   3.0909
  3.0988   3.1003   3.1013   3.1071   3.1108   3.1156   3.1204   3.1282
  3.1381   3.1388   3.1450   3.1553   3.1569   3.1623   3.1663   3.1800
  3.1824   3.1954   3.1974   3.2028   3.2073   3.2106   3.2139   3.2251
  3.2304   3.2394   3.2432   3.2492   3.2507   3.2590   3.2621   3.2635
  3.2688   3.2688   3.2735   3.2821   3.2865   3.3009   3.3036   3.3084
  3.3098   3.3145   3.3188   3.3225   3.3286   3.3338   3.3377   3.3414
  3.3431   3.3490   3.3516   3.3594   3.3618   3.3668   3.3715   3.3746
  3.3774   3.3824   3.3912   3.3954   3.3994   3.4009   3.4059   3.4132
  3.4205   3.4252   3.4298   3.4334   3.4361   3.4414   3.4461   3.4530
  3.4594   3.4630   3.4654   3.4748   3.4782   3.4808   3.4844   3.4866
  3.4954   3.5002   3.5055   3.5097   3.5160   3.5195   3.5235   3.5247
  3.5369   3.5390   3.5420   3.5547   3.5568   3.5640   3.5711   3.5795
  3.5834   3.5843   3.5947   3.5984   3.6124   3.6209   3.6256   3.6282
  3.6310   3.6316   3.6356   3.6396   3.6423   3.6487   3.6508   3.6595
  3.6709   3.6745   3.6769   3.6907   3.6917   3.6993   3.7051   3.7110
  3.7181   3.7265   3.7309   3.7355   3.7421   3.7469   3.7490   3.7511
  3.7594   3.7639   3.7703   3.7726   3.7822   3.7897   3.7989   3.8008
  3.8126   3.8135   3.8177   3.8258   3.8339   3.8361   3.8434   3.8451
  3.8552   3.8588   3.8670   3.8745   3.8864   3.8939   3.8989   3.9088
  3.9146   3.9183   3.9224   3.9337   3.9443   3.9471   3.9561   3.9582
  3.9618   3.9691   3.9719   3.9754   3.9830   3.9919   4.0016   4.0109
  4.0173   4.0330   4.0370   4.0471   4.0487   4.0583   4.0674   4.0726
  4.0832   4.1015   4.1133   4.1197   4.1238   4.1310   4.1387   4.1433
  4.1487   4.1549   4.1602   4.1685   4.1708   4.1754   4.1835   4.1950
  4.2144   4.2273   4.2354   4.2424   4.2487   4.2525   4.2682   4.2701
  4.2742   4.2802   4.2824   4.2882   4.2966   4.3024   4.3034   4.3092
  4.3119   4.3210   4.3248   4.3305   4.3386   4.3426   4.3507   4.3541
  4.3640   4.3663   4.3686   4.3737   4.3785   4.3872   4.3929   4.4001
  4.4048   4.4097   4.4130   4.4214   4.4263   4.4440   4.4495   4.4616
  4.4784   4.4866   4.4900   4.5007   4.5057   4.5166   4.5224   4.5332
  4.5363   4.5467   4.5478   4.5600   4.5706   4.5793   4.5875   4.5889
  4.5930   4.6005   4.6063   4.6158   4.6183   4.6229   4.6307   4.6392
  4.6523   4.6563   4.6791   4.6842   4.6964   4.6976   4.7100   4.7126
  4.7206   4.7339   4.7520   4.7617   4.7721   4.7896   4.7919   4.8018
  4.8127   4.8305   4.8360   4.8539   4.8565   4.8634   4.8810   4.8832
  4.8921   4.9003   4.9034   4.9247   4.9471   4.9510   4.9692   4.9762
  4.9938   4.9951   5.0182   5.0220   5.0278   5.0348   5.0538   5.0565
  5.0929   5.0949   5.1104   5.1162   5.1212   5.1324   5.1380   5.1477
  5.1552   5.1666   5.1762   5.1825   5.1898   5.2005   5.2184   5.2346
  5.2616   5.2663   5.2825   5.2865   5.2980   5.3130   5.3275   5.3298
  5.3375   5.3385   5.3583   5.3703   5.3777   5.3888   5.4023   5.4147
  5.4383   5.4424   5.4784   5.4861   5.4931   5.5103   5.5136   5.5170
  5.5216   5.5295   5.5463   5.5535   5.5555   5.5623   5.5659   5.5675
  5.5776   5.5856   5.5921   5.6040   5.6094   5.6216   5.6274   5.6323
  5.6454   5.6493   5.6611   5.6618   5.6660   5.6727   5.6867   5.6937
  5.7013   5.7091   5.7197   5.7433   5.7508   5.7614   5.7728   5.7781
  5.7858   5.7879   5.8173   5.8319   5.8444   5.8609   5.8941   5.9153
  5.9430   5.9624   5.9702   5.9878   6.0131   6.0352   6.0413   6.0476
  6.0690   6.0863   6.1052   6.1141   6.1267   6.1438   6.1606   6.1878
  6.2049   6.2211   6.2255   6.2276   6.2459   6.2622   6.2747   6.2826
  6.3086   6.3188   6.3240   6.3514   6.3678   6.3916   6.4393   6.4859
  6.5222   6.5323   6.5753   6.5824   6.6028   6.6224   6.6580   6.6682
  6.6736   6.6996   6.8502   6.8517   6.8904   6.9020   6.9058   6.9264
  6.9272   6.9883   7.1043   7.1161   7.1512   7.1952   7.2014   7.2381
  7.3471   7.3515   7.3579   7.3661   7.4765   7.5424   7.5709   7.5830
  7.5930   7.6104   7.6542   7.6914   7.6922   7.7206   8.9197  10.0154
 10.3990  11.2823  11.5388  11.7788  12.0335  12.1391  12.4244  12.4916
 12.9798  13.2512  13.4238  13.5875  13.7864  13.9306  14.0869  14.2987
 14.3265  14.3695  14.5671  14.7533  15.0506  15.6271  15.8362  16.3418
 --------------------------------------------------------------
 
          Ground-State Mulliken Net Atomic Charges

     Atom                 Charge (a.u.)
  ----------------------------------------
      1 C                    -0.084659
      2 C                    -0.030577
      3 C                    -0.106312
      4 C                    -0.125276
      5 H                     0.199294
      6 C                     0.023715
      7 C                     0.117341
      8 C                    -0.056079
      9 C                    -0.196961
     10 C                    -0.163560
     11 C                     0.172090
     12 H                     0.182459
     13 C                     0.341726
     14 C                     0.346884
     15 N                    -0.090087
     16 C                     0.358158
     17 C                     0.370833
     18 N                    -0.089798
     19 O                    -0.493874
     20 O                    -0.506861
     21 O                    -0.500863
     22 O                    -0.480960
     23 C                    -0.204826
     24 H                     0.139477
     25 H                     0.109669
     26 H                     0.109262
     27 C                    -0.198136
     28 H                     0.134035
     29 H                     0.111179
     30 H                     0.112343
     31 C                     0.007767
     32 S                    -0.002183
     33 C                    -0.213514
     34 C                    -0.160956
     35 C                    -0.233040
     36 H                     0.203533
     37 H                     0.189788
     38 H                     0.213494
     39 H                     0.138030
     40 H                     0.138267
     41 H                     0.219180
  ----------------------------------------
  Sum of atomic charges =     0.000000

 -----------------------------------------------------------------
                    Cartesian Multipole Moments
 -----------------------------------------------------------------
    Charge (ESU x 10^10)
                -0.0000
    Dipole Moment (Debye)
         X       0.9472      Y       1.6009      Z      -2.3114
       Tot       2.9669
    Quadrupole Moments (Debye-Ang)
        XX    -165.6631     XY       4.2622     YY    -177.4367
        XZ     -10.4811     YZ       9.2905     ZZ    -185.1537
    Octopole Moments (Debye-Ang^2)
       XXX     -23.3481    XXY     475.2475    XYY     -16.6594
       YYY    1677.8621    XXZ      -2.6760    XYZ      45.5554
       YYZ     -54.5145    XZZ      -4.1326    YZZ     591.7653
       ZZZ      -9.1342
    Hexadecapole Moments (Debye-Ang^3)
      XXXX    -911.4367   XXXY      42.1398   XXYY   -2851.1319
      XYYY     364.1825   YYYY  -17989.7114   XXXZ    -950.9214
      XXYZ      66.9547   XYYZ    -590.5404   YYYZ    1077.6072
      XXZZ   -1120.9176   XYZZ     -70.8299   YYZZ   -4275.2187
      XZZZ   -1052.6523   YZZZ      35.3516   ZZZZ   -5863.3643
 -----------------------------------------------------------------
 Total job time:  300.24s(wall), 8835.68s(cpu) 
 Wed Sep 27 00:53:25 2023

        *************************************************************
        *                                                           *
        *  Thank you very much for using Q-Chem.  Have a nice day.  *
        *                                                           *
        *************************************************************


0 sent ACK to 0 
now end server 0 ... 
cleanup process ... done
remove work dirs ./qchem1616014.0 -- ./qchem1616014.0
rm -rf ./qchem1616014.0
rm -rf ./qchem1616014
