You are running Q-Chem version: 5.4.0

#
# job setting
#
local host:  exp-8-21
current dir: /expanse/lustre/projects/csd626/rramji/aromodel/PNDIT/Hydrogenated_Rotation_Test
input file:  Dimethyl_Naphthalene_Dicarboximide_Phi_25_Theta_10_Thiophene_Hydrogenated.qcin
output file: 
nprocs     : 1
nthreads   : 64
#
# qchem installation setting
#
QC:          /cm/shared/apps/spack/cpu/opt/spack/linux-centos8-zen2/gcc-10.2.0/qchem-5.4-akfmr7b3t57bfs6qan3padb2wnb2i7cl
QCAUX:       /cm/shared/apps/spack/cpu/opt/spack/linux-centos8-zen2/gcc-10.2.0/qchem-5.4-akfmr7b3t57bfs6qan3padb2wnb2i7cl/qcaux
QCPROG:      /cm/shared/apps/spack/cpu/opt/spack/linux-centos8-zen2/gcc-10.2.0/qchem-5.4-akfmr7b3t57bfs6qan3padb2wnb2i7cl/exe/qcprog.exe
QCPROG_S:    /cm/shared/apps/spack/cpu/opt/spack/linux-centos8-zen2/gcc-10.2.0/qchem-5.4-akfmr7b3t57bfs6qan3padb2wnb2i7cl/exe/qcprog.exe_s
PARALLEL:    -DPARALLEL
QCMPI:       mpich
#
# qchem directory setting
#
qcrun:       qchem1985576
QCSCRATCH:   .
QCLOCALSCR:  
QCTMPDIR:    .
QCFILEPREF:  ./qchem1985576
QCSAVEDIR:   
workdirs:    ./qchem1985576
workdir0:    ./qchem1985576
partmpdirs =  
#
# parallel setting
#
QCRSH:           ssh
QCMPI:           mpich
QCMPIRUN:        /cm/shared/apps/spack/cpu/opt/spack/linux-centos8-zen2/gcc-10.2.0/qchem-5.4-akfmr7b3t57bfs6qan3padb2wnb2i7cl/bin/mpi/mpirun_qchem
QCMACHINEFILE:   ./qchem1985576/hostfile
exp-8-21

#
# env setting
#
exported envs:   QC QCAUX QCSCRATCH QCRUNNAME QCFILEPREF QCPROG QCPROG_S GUIFILE

Running Job 1 of 1 Dimethyl_Naphthalene_Dicarboximide_Phi_25_Theta_10_Thiophene_Hydrogenated.qcin
qchem Dimethyl_Naphthalene_Dicarboximide_Phi_25_Theta_10_Thiophene_Hydrogenated.qcin_1985576.0 ./qchem1985576/ 1
/cm/shared/apps/spack/cpu/opt/spack/linux-centos8-zen2/gcc-10.2.0/qchem-5.4-akfmr7b3t57bfs6qan3padb2wnb2i7cl/bin/mpi/mpirun_qchem -machinefile ./qchem1985576/hostfile -np 1 /cm/shared/apps/spack/cpu/opt/spack/linux-centos8-zen2/gcc-10.2.0/qchem-5.4-akfmr7b3t57bfs6qan3padb2wnb2i7cl/exe/qcprog.exe Dimethyl_Naphthalene_Dicarboximide_Phi_25_Theta_10_Thiophene_Hydrogenated.qcin_1985576.0 ./qchem1985576/

Process 0 of 1 is on exp-8-21 - thread support 0
initial socket setup ...start
initial socket setup ...done 
now start server 0 ... 
                  Welcome to Q-Chem
     A Quantum Leap Into The Future Of Chemistry


 Q-Chem 5.4, Q-Chem, Inc., Pleasanton, CA (2021)

 License issued to: University of California, San Diego (site)

 E. Epifanovsky,  A. T. B. Gilbert,  Xintian Feng,  Joonho Lee,  Yuezhi Mao,  
 N. Mardirossian,  P. Pokhilko,  A. White,  M. Wormit,  M. P. Coons,  
 A. L. Dempwolff,  Zhengting Gan,  D. Hait,  P. R. Horn,  L. D. Jacobson,  
 I. Kaliman,  J. Kussmann,  A. W. Lange,  Ka Un Lao,  D. S. Levine,  Jie Liu,  
 S. C. McKenzie,  A. F. Morrison,  K. Nanda,  F. Plasser,  D. R. Rehn,  
 M. L. Vidal,  Zhi-Qiang You,  Ying Zhu,  B. Alam,  B. Albrecht,  
 A. Aldossary,  E. Alguire,  J. H. Andersen,  D. Barton,  K. Begam,  A. Behn,  
 Y. A. Bernard,  E. J. Berquist,  H. Burton,  A. Carreras,  K. Carter-Fenk,  
 R. Chakraborty,  A. D. Chien,  K. D. Closser,  V. Cofer-Shabica,  
 S. Dasgupta,  Jia Deng,  M. de Wergifosse,  M. Diedenhofen,  Hainam Do,  
 S. Ehlert,  Po-Tung Fang,  S. Fatehi,  Qingguo Feng,  J. Gayvert,  
 Qinghui Ge,  G. Gidofalvi,  M. Goldey,  J. Gomes,  C. Gonzalez-Espinoza,  
 S. Gulania,  A. Gunina,  M. W. D. Hanson-Heine,  P. H. P. Harbach,  
 A. W. Hauser,  M. F. Herbst,  M. Hernandez Vera,  M. Hodecker,  
 Z. C. Holden,  S. Houck,  Xunkun Huang,  Kerwin Hui,  B. C. Huynh,  
 M. Ivanov,  Hyunjun Ji,  Hanjie Jiang,  B. Kaduk,  S. Kaehler,  
 K. Khistyaev,  Jaehoon Kim,  P. Klunzinger,  Z. Koczor-Benda,  
 Joong Hoon Koh,  D. Kosenkov,  L. Koulias,  T. Kowalczyk,  C. M. Krauter,  
 K. Kue,  A. Kunitsa,  T. Kus,  A. Landau,  K. V. Lawler,  D. Lefrancois,  
 S. Lehtola,  Rain Li,  Yi-Pei Li,  Jiashu Liang,  M. Liebenthal,  
 Hung-Hsuan Lin,  You-Sheng Lin,  Fenglai Liu,  Kuan-Yu Liu,  
 M. Loipersberger,  A. Luenser,  A. Manjanath,  P. Manohar,  E. Mansoor,  
 S. F. Manzer,  Shan-Ping Mao,  A. V. Marenich,  T. Markovich,  S. Mason,  
 S. A. Maurer,  P. F. McLaughlin,  M. F. S. J. Menger,  J.-M. Mewes,  
 S. A. Mewes,  P. Morgante,  J. W. Mullinax,  T. S. Nguyen-Beck,  
 K. J. Oosterbaan,  G. Paran,  Alexander C. Paul,  Suranjan K. Paul,  
 F. Pavosevic,  Zheng Pei,  S. Prager,  E. I. Proynov,  E. Ramos,  B. Rana,  
 A. E. Rask,  A. Rettig,  R. M. Richard,  F. Rob,  E. Rossomme,  T. Scheele,  
 M. Scheurer,  M. Schneider,  N. Sergueev,  S. M. Sharada,  W. Skomorowski,  
 D. W. Small,  C. J. Stein,  Yu-Chuan Su,  E. J. Sundstrom,  Zhen Tao,  
 J. Thirman,  T. Tsuchimochi,  N. M. Tubman,  S. P. Veccham,  O. Vydrov,  
 J. Wenzel,  J. Witte,  A. Yamada,  Kun Yao,  S. Yeganeh,  S. R. Yost,  
 A. Zech,  Igor Ying Zhang,  Xing Zhang,  Yu Zhang,  D. Zuev,  
 A. Aspuru-Guzik,  A. T. Bell,  N. A. Besley,  K. B. Bravaya,  B. R. Brooks,  
 D. Casanova,  Jeng-Da Chai,  S. Coriani,  C. J. Cramer,  
 A. E. DePrince, III,  R. A. DiStasio Jr.,  A. Dreuw,  B. D. Dunietz,  
 T. R. Furlani,  W. A. Goddard III,  S. Grimme,  S. Hammes-Schiffer,  
 T. Head-Gordon,  W. J. Hehre,  Chao-Ping Hsu,  T.-C. Jagau,  Yousung Jung,  
 A. Klamt,  Jing Kong,  D. S. Lambrecht,  WanZhen Liang,  N. J. Mayhall,  
 C. W. McCurdy,  J. B. Neaton,  C. Ochsenfeld,  J. A. Parkhill,  R. Peverati,  
 V. A. Rassolov,  Yihan Shao,  L. V. Slipchenko,  T. Stauch,  R. P. Steele,  
 J. E. Subotnik,  A. J. W. Thom,  A. Tkatchenko,  D. G. Truhlar,  
 T. Van Voorhis,  T. A. Wesolowski,  K. B. Whaley,  H. L. Woodcock III,  
 P. M. Zimmerman,  S. Faraji,  P. M. W. Gill,  M. Head-Gordon,  
 J. M. Herbert,  A. I. Krylov

 Contributors to earlier versions of Q-Chem not listed above: 
 R. D. Adamson,  B. Austin,  R. Baer,  J. Baker,  G. J. O. Beran,  
 K. Brandhorst,  S. T. Brown,  E. F. C. Byrd,  A. K. Chakraborty,  
 G. K. L. Chan,  Chun-Min Chang,  Yunqing Chen,  C.-L. Cheng,  
 Siu Hung Chien,  D. M. Chipman,  D. L. Crittenden,  H. Dachsel,  
 R. J. Doerksen,  A. D. Dutoi,  R. G. Edgar,  J. Fosso-Tande,  
 L. Fusti-Molnar,  D. Ghosh,  A. Ghysels,  A. Golubeva-Zadorozhnaya,  
 J. Gonthier,  M. S. Gordon,  S. R. Gwaltney,  G. Hawkins,  J. E. Herr,  
 A. Heyden,  S. Hirata,  E. G. Hohenstein,  G. Kedziora,  F. J. Keil,  
 C. Kelley,  Jihan Kim,  R. A. King,  R. Z. Khaliullin,  P. P. Korambath,  
 W. Kurlancheek,  A. Laurent,  A. M. Lee,  M. S. Lee,  S. V. Levchenko,  
 Ching Yeh Lin,  D. Liotard,  E. Livshits,  R. C. Lochan,  I. Lotan,  
 L. A. Martinez-Martinez,  P. E. Maslen,  N. Nair,  D. P. O'Neill,  
 D. Neuhauser,  E. Neuscamman,  C. M. Oana,  R. Olivares-Amaya,  R. Olson,  
 T. M. Perrine,  B. Peters,  P. A. Pieniazek,  A. Prociuk,  Y. M. Rhee,  
 J. Ritchie,  M. A. Rohrdanz,  E. Rosta,  N. J. Russ,  H. F. Schaefer III,  
 M. W. Schmidt,  N. E. Schultz,  S. Sharma,  N. Shenvi,  C. D. Sherrill,  
 A. C. Simmonett,  A. Sodt,  T. Stein,  D. Stuck,  K. S. Thanthiriwatte,  
 V. Vanovschi,  L. Vogt,  Tao Wang,  A. Warshel,  M. A. Watson,  
 C. F. Williams,  Q. Wu,  X. Xu,  Jun Yang,  W. Zhang,  Yan Zhao

 Please cite Q-Chem as follows:
 Y. Shao et al., Mol. Phys. 113, 184-215 (2015)
 DOI: 10.1080/00268976.2014.952696

 Q-Chem 5.4.0 for Intel X86 EM64T Linux

 Parts of Q-Chem use Armadillo 9.800.1 (Horizon Scraper).
 http://arma.sourceforge.net/

 Q-Chem begins on Tue Sep 26 21:59:34 2023  

 Host: 
0

     Scratch files written to ./qchem1985576//
 May1621 |scratch|qcdevops|jenkins|workspace|build_RNUM    
 Parallel job on  1  processors
 Processing $rem in /cm/shared/apps/spack/cpu/opt/spack/linux-centos8-zen2/gcc-10.2.0/qchem-5.4-akfmr7b3t57bfs6qan3padb2wnb2i7cl/config/preferences:
 Processing $rem in /home/rramji/.qchemrc:
 Symmetry turned off for PCM/SM12/SMD calculation
 Core orbitals will be frozen

 Checking the input file for inconsistencies... 	...done.

 Q-Chem warning in module forms1/BasisType.C, line 2236:

 You are not using the predefined 5D/6D in this basis set.


--------------------------------------------------------------
User input:
--------------------------------------------------------------
$molecule
0 1
C	0.043160	-6.741404	-0.253280
C	0.269777	-6.155638	-1.539213
C	-0.145543	-5.791452	0.814295
C	0.318377	-4.803786	-1.813519
H	0.422058	-6.821518	-2.403941
C	-0.094194	-4.378638	0.527140
C	0.137191	-3.838032	-0.783072
C	-0.275104	-3.413062	1.556403
C	0.188116	-2.426473	-1.067932
C	-0.226701	-2.059348	1.285420
C	-0.000000	-1.478216	-0.000000
H	-0.378931	-1.394783	2.151147
C	-0.397845	-6.187987	2.234582
C	-0.523637	-3.798164	2.965273
N	-0.567586	-5.170003	3.204744
C	0.567421	-4.424987	-3.226257
C	0.439541	-2.036627	-2.489446
N	0.609650	-3.049156	-3.459801
O	-0.468608	-7.353131	2.619468
O	-0.683034	-2.986854	3.874668
O	0.725131	-5.248946	-4.124806
O	0.512648	-0.878829	-2.895819
C	-0.813908	-5.563799	4.595691
H	-0.822891	-6.664085	4.640022
H	-1.781600	-5.147101	4.934830
H	-0.020360	-5.148785	5.246157
C	0.851649	-2.587487	-4.829716
H	0.962191	-3.483329	-5.462742
H	1.765865	-1.964972	-4.863242
H	0.005383	-1.962932	-5.173521
C	0.000000	0.000000	0.000000
S	0.335026	0.718942	1.580530
C	1.027130	2.203226	0.904911
C	0.421617	0.904557	-0.985400
C	0.979485	2.101144	-0.493528
H	0.322049	0.690978	-2.059934
H	1.351718	2.899571	-1.152593
H	1.399246	3.001430	1.556025
H	0.909181	-7.361589	0.008120
H	-0.860264	-7.361192	-0.304668
H	1.063500	-1.478831	0.188062
$end

$rem
JOBTYPE		SP
EXCHANGE	HF
CORRELATION	pRIMP2
BASIS		cc-pvtz
METHOD		rimp2
AUX_BASIS	rimp2-cc-pvtz
SOLVENT_METHOD	PCM
PURECART	11111
SYMMETRY	false
MEM_TOTAL	110000
SCF_CONVERGENCE = 6
THRESH=10
GUI = 2
$end



$solvent
dielectric 4.90
$end
--------------------------------------------------------------
 ----------------------------------------------------------------
             Standard Nuclear Orientation (Angstroms)
    I     Atom           X                Y                Z
 ----------------------------------------------------------------
    1      C       0.0431600000    -6.7414040000    -0.2532800000
    2      C       0.2697770000    -6.1556380000    -1.5392130000
    3      C      -0.1455430000    -5.7914520000     0.8142950000
    4      C       0.3183770000    -4.8037860000    -1.8135190000
    5      H       0.4220580000    -6.8215180000    -2.4039410000
    6      C      -0.0941940000    -4.3786380000     0.5271400000
    7      C       0.1371910000    -3.8380320000    -0.7830720000
    8      C      -0.2751040000    -3.4130620000     1.5564030000
    9      C       0.1881160000    -2.4264730000    -1.0679320000
   10      C      -0.2267010000    -2.0593480000     1.2854200000
   11      C       0.0000000000    -1.4782160000     0.0000000000
   12      H      -0.3789310000    -1.3947830000     2.1511470000
   13      C      -0.3978450000    -6.1879870000     2.2345820000
   14      C      -0.5236370000    -3.7981640000     2.9652730000
   15      N      -0.5675860000    -5.1700030000     3.2047440000
   16      C       0.5674210000    -4.4249870000    -3.2262570000
   17      C       0.4395410000    -2.0366270000    -2.4894460000
   18      N       0.6096500000    -3.0491560000    -3.4598010000
   19      O      -0.4686080000    -7.3531310000     2.6194680000
   20      O      -0.6830340000    -2.9868540000     3.8746680000
   21      O       0.7251310000    -5.2489460000    -4.1248060000
   22      O       0.5126480000    -0.8788290000    -2.8958190000
   23      C      -0.8139080000    -5.5637990000     4.5956910000
   24      H      -0.8228910000    -6.6640850000     4.6400220000
   25      H      -1.7816000000    -5.1471010000     4.9348300000
   26      H      -0.0203600000    -5.1487850000     5.2461570000
   27      C       0.8516490000    -2.5874870000    -4.8297160000
   28      H       0.9621910000    -3.4833290000    -5.4627420000
   29      H       1.7658650000    -1.9649720000    -4.8632420000
   30      H       0.0053830000    -1.9629320000    -5.1735210000
   31      C       0.0000000000     0.0000000000     0.0000000000
   32      S       0.3350260000     0.7189420000     1.5805300000
   33      C       1.0271300000     2.2032260000     0.9049110000
   34      C       0.4216170000     0.9045570000    -0.9854000000
   35      C       0.9794850000     2.1011440000    -0.4935280000
   36      H       0.3220490000     0.6909780000    -2.0599340000
   37      H       1.3517180000     2.8995710000    -1.1525930000
   38      H       1.3992460000     3.0014300000     1.5560250000
   39      H       0.9091810000    -7.3615890000     0.0081200000
   40      H      -0.8602640000    -7.3611920000    -0.3046680000
   41      H       1.0635000000    -1.4788310000     0.1880620000
 ----------------------------------------------------------------
 Nuclear Repulsion Energy =        2560.73559786 hartrees
 There are       98 alpha and       98 beta electrons
 Requested basis set is cc-pVTZ
 There are 356 shells and 1010 basis functions

 Total QAlloc Memory Limit 110000 MB
 Mega-Array Size       188 MB
 MEM_STATIC part       192 MB
 Discretize the solute cavity surface with Lebedev spheres
	Using 110 Lebedev grid points for each H atom
	Using 194 Lebedev grid points for other atoms
	Atomic van der Waals radii will be scaled by 1.20
 Remove points where switching function is < 1.0e-08
 Keep 2605 surface tesserae and discard 4173 interior tesserae
 Molecular Surface Area = 360.409 Angst**2
 Requested basis set is rimp2-cc-pVTZ
 There are 770 shells and 2648 basis functions
 A cutoff of  1.0D-10 yielded  34400 shell pairs
 There are    260082 function pairs (    336569 Cartesian)
 Smallest overlap matrix eigenvalue = 9.24E-06

 Q-Chem warning in module stvman/mkSTV.C, line 323:

 Overlap eigenvalue is smaller than square root of threshold
 Use THRESH >= 12 to get rid of this warning


 Scale SEOQF with 1.000000e-01/1.000000e-02/1.000000e-02

 Standard Electronic Orientation quadrupole field applied
 Nucleus-field energy     =     0.0000000115 hartrees
 Guess from superposition of atomic densities
 Warning:  Energy on first SCF cycle will be non-variational
 SAD guess density has 196.000000 electrons

 -----------------------------------------------------------------------
  General SCF calculation program by
  Eric Jon Sundstrom, Paul Horn, Yuezhi Mao, Dmitri Zuev, Alec White,
  David Stuck, Shaama M.S., Shane Yost, Joonho Lee, David Small,
  Daniel Levine, Susi Lehtola, Hugh Burton, Evgeny Epifanovsky,
  Bang C. Huynh
 -----------------------------------------------------------------------
 Hartree-Fock
 using 64 threads for integral computing
 -------------------------------------------------------
 OpenMP Integral computing Module                
 Release: version 1.0, May 2013, Q-Chem Inc. Pittsburgh 
 -------------------------------------------------------
 A restricted SCF calculation will be
 performed using DIIS
 SCF converges when DIIS error is below 1.0e-06
 ---------------------------------------
  Cycle       Energy         DIIS error
 ---------------------------------------
    1   -1583.2361389939      1.87e-02  
    2   -1571.1399711924      2.03e-03  
    3   -1571.4828549709      1.54e-03  
    4   -1571.7033526975      2.54e-04  
    5   -1571.7173123458      7.90e-05  
    6   -1571.7187581809      3.05e-05  
    7   -1571.7191875548      1.55e-05  
    8   -1571.7193029386      6.11e-06  
    9   -1571.7193222982      2.83e-06  
   10   -1571.7193260277      1.20e-06  
   11   -1571.7193271916      5.79e-07  Convergence criterion met
 ---------------------------------------
 SCF time:   CPU 7143.11s  wall 289.00s 

************** Final PCM Free Energy Summary **************
 G_electrostatic  =      -0.02680864 hartree =     -16.82267351 kcal/mol
 G_cavitation     =       0.00000000 hartree =       0.00000000 kcal/mol
 G_dispersion     =       0.00000000 hartree =       0.00000000 kcal/mol
 G_repulsion      =       0.00000000 hartree =       0.00000000 kcal/mol
 --------------------------------------------------
 Non-electrostatic Free Energy =       0.00000000 hartree =       0.00000000 kcal/mol
 Total                         =      -0.02680864 hartree =     -16.82267351 kcal/mol
 --------------------------------------------------
 SCF Energy (H0 + V/2)                       =   -1571.71932719 
 Solute Internal Energy (H0)                 =   -1571.69251855 
 Total Free Energy (H0 + V/2 + non-elec)     =   -1571.71932719 hartree
                                             = -986268.76356647 kcal/mol
***********************************************************

 SCF   energy in the final basis set =    -1571.7193271916
 Total energy in the final basis set =    -1571.7193271916


 --------------------------------------------------------------
  Generalized many-body perturbation theory program
  by Joonho Lee, Fazle Rob, Xintian Feng, Evgeny Epifanovsky

 No regularization used 
 (reg. param. = 0.0000e+00)
  (P|Q)^-1/2 Time:  CPU 131.49 s  wall 2.10 s

 In RI-MP2 calculation: 
 # of frozen core orbitals: 31

 Components of the RIMP2 correlation energy:
        aaaa    correlation energy =        -0.6166037155 a.u.
        abab    correlation energy =        -3.4283054165 a.u.
        bbbb    correlation energy =        -0.6166037155 a.u.
        non-Brillouin singles      =        -0.0000000000 a.u.
        total same-spin energy     =        -1.2332074310 a.u.
        total opposite-spin energy =        -3.4283054165 a.u.

 Total  RIMP2   correlation energy =        -4.6615128475 a.u.
        RIMP2         total energy =     -1576.3808400391 a.u.

 RI-MP2 Energy Time:  CPU 2001.82 s  wall 32.64 s
 
 --------------------------------------------------------------
 
                    Orbital Energies (a.u.)
 --------------------------------------------------------------
 
 Alpha MOs
 -- Occupied --
-91.9875 -20.5532 -20.5460 -20.5424 -20.5413 -15.6296 -15.6218 -11.3986
-11.3868 -11.3842 -11.3798 -11.3098 -11.3086 -11.3062 -11.3053 -11.2977
-11.2927 -11.2910 -11.2777 -11.2705 -11.2692 -11.2669 -11.2646 -11.2596
-11.2536 -11.2458 -11.2351  -8.9878  -6.6687  -6.6682  -6.6675  -1.4248
 -1.4128  -1.4006  -1.3920  -1.2652  -1.2561  -1.2320  -1.1885  -1.1498
 -1.1152  -1.0869  -1.0487  -0.9960  -0.9889  -0.9821  -0.9560  -0.9487
 -0.8980  -0.8904  -0.8784  -0.8616  -0.7940  -0.7810  -0.7733  -0.7594
 -0.7401  -0.7233  -0.7024  -0.6893  -0.6818  -0.6750  -0.6684  -0.6583
 -0.6494  -0.6477  -0.6382  -0.6324  -0.6317  -0.6300  -0.6242  -0.6053
 -0.5926  -0.5707  -0.5638  -0.5616  -0.5574  -0.5525  -0.5519  -0.5489
 -0.5482  -0.5426  -0.5176  -0.5144  -0.5094  -0.4851  -0.4737  -0.4601
 -0.4574  -0.4483  -0.4425  -0.4364  -0.4165  -0.4083  -0.3578  -0.3484
 -0.3318  -0.2773
 -- Virtual --
  0.0113   0.0390   0.0858   0.0962   0.1459   0.1505   0.1586   0.1604
  0.1634   0.1692   0.1776   0.1790   0.1886   0.1964   0.2034   0.2059
  0.2147   0.2246   0.2275   0.2286   0.2325   0.2360   0.2490   0.2624
  0.2643   0.2736   0.3025   0.3101   0.3212   0.3222   0.3278   0.3354
  0.3386   0.3402   0.3431   0.3528   0.3567   0.3604   0.3651   0.3655
  0.3722   0.3857   0.3863   0.3873   0.3916   0.4006   0.4090   0.4141
  0.4187   0.4267   0.4298   0.4312   0.4396   0.4423   0.4456   0.4497
  0.4545   0.4579   0.4610   0.4666   0.4715   0.4815   0.4899   0.4966
  0.5012   0.5033   0.5059   0.5131   0.5155   0.5214   0.5224   0.5304
  0.5327   0.5346   0.5475   0.5506   0.5521   0.5613   0.5615   0.5652
  0.5735   0.5775   0.5825   0.5872   0.5891   0.5951   0.5994   0.6005
  0.6051   0.6067   0.6085   0.6127   0.6152   0.6207   0.6267   0.6279
  0.6303   0.6338   0.6344   0.6396   0.6433   0.6463   0.6537   0.6617
  0.6660   0.6687   0.6795   0.6845   0.6865   0.6887   0.6979   0.7005
  0.7116   0.7230   0.7315   0.7361   0.7384   0.7439   0.7585   0.7608
  0.7678   0.7703   0.7740   0.7826   0.7894   0.7965   0.8030   0.8058
  0.8098   0.8153   0.8268   0.8283   0.8349   0.8404   0.8406   0.8462
  0.8545   0.8571   0.8598   0.8687   0.8728   0.8755   0.8796   0.8917
  0.8956   0.9018   0.9087   0.9147   0.9203   0.9235   0.9279   0.9341
  0.9355   0.9442   0.9488   0.9523   0.9591   0.9642   0.9701   0.9786
  0.9872   0.9947   0.9957   0.9969   1.0056   1.0107   1.0184   1.0234
  1.0268   1.0323   1.0359   1.0476   1.0553   1.0602   1.0611   1.0625
  1.0700   1.0714   1.0743   1.0794   1.0838   1.0883   1.0960   1.1010
  1.1094   1.1166   1.1193   1.1243   1.1303   1.1337   1.1400   1.1465
  1.1473   1.1608   1.1640   1.1687   1.1771   1.1832   1.1862   1.1882
  1.1968   1.2001   1.2045   1.2090   1.2142   1.2219   1.2221   1.2285
  1.2362   1.2390   1.2431   1.2474   1.2558   1.2601   1.2653   1.2688
  1.2756   1.2849   1.2982   1.3050   1.3131   1.3242   1.3357   1.3418
  1.3464   1.3508   1.3575   1.3690   1.3749   1.3834   1.3857   1.3903
  1.3934   1.3950   1.3992   1.4022   1.4174   1.4234   1.4380   1.4427
  1.4533   1.4615   1.4640   1.4747   1.4775   1.4865   1.4953   1.4963
  1.4991   1.5027   1.5088   1.5129   1.5224   1.5281   1.5344   1.5425
  1.5459   1.5521   1.5589   1.5610   1.5677   1.5707   1.5740   1.5845
  1.5896   1.6012   1.6024   1.6065   1.6217   1.6277   1.6383   1.6439
  1.6471   1.6547   1.6647   1.6698   1.6806   1.6904   1.6943   1.7033
  1.7059   1.7183   1.7230   1.7384   1.7419   1.7459   1.7513   1.7613
  1.7665   1.7775   1.7858   1.7874   1.7969   1.8004   1.8106   1.8170
  1.8278   1.8401   1.8450   1.8510   1.8642   1.8680   1.8710   1.8736
  1.8757   1.8871   1.8908   1.9006   1.9173   1.9262   1.9408   1.9583
  1.9591   1.9677   1.9820   1.9884   1.9919   1.9949   2.0182   2.0276
  2.0330   2.0445   2.0628   2.0872   2.0950   2.1050   2.1209   2.1322
  2.1451   2.1577   2.1648   2.1782   2.1901   2.1964   2.2194   2.2254
  2.2389   2.2516   2.2607   2.2794   2.2902   2.2957   2.3053   2.3144
  2.3209   2.3330   2.3449   2.3521   2.3557   2.3649   2.3820   2.3927
  2.4102   2.4155   2.4285   2.4348   2.4475   2.4558   2.4600   2.4705
  2.4821   2.4934   2.5048   2.5090   2.5228   2.5360   2.5468   2.5593
  2.5621   2.5706   2.5827   2.5872   2.5931   2.6004   2.6071   2.6197
  2.6280   2.6370   2.6438   2.6476   2.6524   2.6651   2.6715   2.6778
  2.6836   2.6882   2.6952   2.7045   2.7186   2.7293   2.7314   2.7398
  2.7436   2.7480   2.7551   2.7634   2.7651   2.7790   2.7845   2.7946
  2.8198   2.8257   2.8387   2.8441   2.8575   2.8587   2.8691   2.8753
  2.8788   2.8847   2.8917   2.8948   2.8992   2.9010   2.9131   2.9153
  2.9186   2.9269   2.9374   2.9487   2.9555   2.9644   2.9670   2.9767
  2.9813   2.9917   2.9932   3.0031   3.0102   3.0187   3.0225   3.0290
  3.0331   3.0441   3.0487   3.0525   3.0685   3.0780   3.0855   3.0911
  3.0956   3.0994   3.1040   3.1060   3.1081   3.1090   3.1182   3.1289
  3.1351   3.1389   3.1450   3.1524   3.1620   3.1636   3.1684   3.1798
  3.1831   3.1928   3.1990   3.2018   3.2080   3.2131   3.2146   3.2253
  3.2284   3.2402   3.2438   3.2481   3.2530   3.2586   3.2617   3.2669
  3.2697   3.2766   3.2796   3.2837   3.2881   3.2973   3.3046   3.3096
  3.3129   3.3197   3.3234   3.3279   3.3301   3.3334   3.3350   3.3426
  3.3432   3.3471   3.3546   3.3593   3.3660   3.3687   3.3723   3.3767
  3.3820   3.3836   3.3896   3.3973   3.4005   3.4041   3.4101   3.4149
  3.4214   3.4277   3.4303   3.4347   3.4395   3.4422   3.4431   3.4506
  3.4599   3.4623   3.4700   3.4728   3.4751   3.4809   3.4853   3.4921
  3.4950   3.5005   3.5091   3.5105   3.5137   3.5195   3.5261   3.5319
  3.5414   3.5440   3.5500   3.5599   3.5608   3.5737   3.5775   3.5811
  3.5842   3.5907   3.6007   3.6069   3.6163   3.6191   3.6252   3.6273
  3.6292   3.6332   3.6393   3.6426   3.6459   3.6516   3.6613   3.6636
  3.6736   3.6817   3.6868   3.6899   3.6973   3.7017   3.7074   3.7158
  3.7195   3.7272   3.7346   3.7375   3.7441   3.7473   3.7543   3.7576
  3.7618   3.7686   3.7762   3.7802   3.7846   3.7949   3.7951   3.8070
  3.8118   3.8165   3.8247   3.8285   3.8316   3.8414   3.8425   3.8546
  3.8573   3.8630   3.8671   3.8746   3.8840   3.8915   3.8966   3.9056
  3.9166   3.9208   3.9290   3.9342   3.9398   3.9478   3.9539   3.9591
  3.9665   3.9715   3.9802   3.9831   3.9906   3.9978   4.0079   4.0140
  4.0186   4.0356   4.0451   4.0535   4.0588   4.0606   4.0718   4.0756
  4.0958   4.1030   4.1106   4.1190   4.1264   4.1358   4.1434   4.1491
  4.1549   4.1629   4.1690   4.1722   4.1753   4.1805   4.1863   4.1998
  4.2213   4.2277   4.2402   4.2452   4.2478   4.2544   4.2612   4.2683
  4.2740   4.2807   4.2845   4.2909   4.2925   4.3002   4.3044   4.3133
  4.3202   4.3276   4.3303   4.3329   4.3375   4.3432   4.3500   4.3598
  4.3655   4.3684   4.3695   4.3744   4.3782   4.3882   4.3983   4.4037
  4.4096   4.4127   4.4173   4.4252   4.4405   4.4492   4.4563   4.4613
  4.4799   4.4893   4.4956   4.5024   4.5084   4.5113   4.5293   4.5314
  4.5387   4.5492   4.5548   4.5649   4.5757   4.5775   4.5897   4.5924
  4.5990   4.6029   4.6112   4.6142   4.6202   4.6249   4.6347   4.6454
  4.6556   4.6678   4.6794   4.6847   4.6904   4.6966   4.7063   4.7148
  4.7200   4.7365   4.7538   4.7629   4.7783   4.7842   4.7947   4.8048
  4.8134   4.8203   4.8369   4.8457   4.8581   4.8592   4.8738   4.8818
  4.8948   4.9021   4.9178   4.9305   4.9474   4.9593   4.9601   4.9869
  4.9926   5.0089   5.0208   5.0238   5.0375   5.0381   5.0558   5.0638
  5.0858   5.1051   5.1080   5.1181   5.1213   5.1334   5.1351   5.1514
  5.1630   5.1690   5.1842   5.1857   5.1983   5.2149   5.2258   5.2467
  5.2614   5.2679   5.2852   5.2872   5.2973   5.3088   5.3285   5.3314
  5.3346   5.3409   5.3582   5.3702   5.3772   5.3881   5.4020   5.4150
  5.4361   5.4481   5.4737   5.4834   5.4944   5.5122   5.5129   5.5168
  5.5221   5.5391   5.5472   5.5550   5.5588   5.5668   5.5684   5.5732
  5.5815   5.5860   5.5956   5.6066   5.6162   5.6206   5.6260   5.6328
  5.6440   5.6488   5.6599   5.6654   5.6660   5.6690   5.6823   5.6934
  5.6985   5.7102   5.7199   5.7514   5.7604   5.7627   5.7709   5.7838
  5.7902   5.8042   5.8296   5.8398   5.8494   5.8600   5.8930   5.9111
  5.9387   5.9623   5.9680   5.9799   6.0063   6.0208   6.0371   6.0433
  6.0487   6.0713   6.1101   6.1166   6.1257   6.1436   6.1649   6.1884
  6.2046   6.2194   6.2245   6.2255   6.2499   6.2762   6.2827   6.2979
  6.3135   6.3160   6.3243   6.3599   6.3692   6.3956   6.4418   6.4890
  6.5231   6.5358   6.5735   6.5821   6.6013   6.6363   6.6571   6.6612
  6.6740   6.7278   6.8519   6.8557   6.8945   6.9012   6.9048   6.9266
  6.9286   6.9585   7.1052   7.1418   7.1570   7.2049   7.2159   7.2862
  7.3467   7.3512   7.3577   7.3642   7.4785   7.5464   7.5718   7.5842
  7.5938   7.6440   7.6562   7.6929   7.7090   7.8545   8.9337  10.0521
 10.4115  11.3183  11.5623  11.7882  11.9990  12.1638  12.4283  12.5397
 12.9747  13.2418  13.3933  13.5670  13.8004  13.9401  14.1238  14.2983
 14.3246  14.3793  14.5527  14.7624  15.0385  15.6217  15.8301  16.3154
 --------------------------------------------------------------
 
          Ground-State Mulliken Net Atomic Charges

     Atom                 Charge (a.u.)
  ----------------------------------------
      1 C                    -0.083726
      2 C                    -0.031442
      3 C                    -0.106600
      4 C                    -0.121690
      5 H                     0.199001
      6 C                     0.023596
      7 C                     0.121193
      8 C                    -0.055217
      9 C                    -0.203824
     10 C                    -0.158174
     11 C                     0.184582
     12 H                     0.182797
     13 C                     0.342587
     14 C                     0.346050
     15 N                    -0.090159
     16 C                     0.358167
     17 C                     0.385666
     18 N                    -0.087527
     19 O                    -0.493405
     20 O                    -0.506073
     21 O                    -0.500095
     22 O                    -0.477408
     23 C                    -0.204784
     24 H                     0.139543
     25 H                     0.109541
     26 H                     0.109448
     27 C                    -0.198976
     28 H                     0.134625
     29 H                     0.111729
     30 H                     0.112294
     31 C                     0.016014
     32 S                    -0.007996
     33 C                    -0.239253
     34 C                    -0.231389
     35 C                    -0.203355
     36 H                     0.222499
     37 H                     0.191261
     38 H                     0.213957
     39 H                     0.138147
     40 H                     0.138563
     41 H                     0.219834
  ----------------------------------------
  Sum of atomic charges =     0.000000

 -----------------------------------------------------------------
                    Cartesian Multipole Moments
 -----------------------------------------------------------------
    Charge (ESU x 10^10)
                 0.0000
    Dipole Moment (Debye)
         X       1.8690      Y       1.3936      Z      -2.2763
       Tot       3.2583
    Quadrupole Moments (Debye-Ang)
        XX    -161.5231     XY       1.1659     YY    -177.9996
        XZ       5.4608     YZ       9.0335     ZZ    -187.5132
    Octopole Moments (Debye-Ang^2)
       XXX     -69.5898    XXY     470.7954    XYY       3.6746
       YYY    1675.9013    XXZ      -1.1365    XYZ     -20.2806
       YYZ     -56.1739    XZZ     -18.5506    YZZ     604.4926
       ZZZ     -10.9529
    Hexadecapole Moments (Debye-Ang^3)
      XXXX    -470.9247   XXXY    -168.7567   XXYY   -2675.8922
      XYYY    -268.9103   YYYY  -17933.5577   XXXZ     471.5217
      XXYZ     102.0017   XYYZ     316.9254   YYYZ    1126.8461
      XXZZ   -1094.4610   XYZZ      15.0769   YYZZ   -4422.5695
      XZZZ     540.7669   YZZZ      15.0382   ZZZZ   -6419.8524
 -----------------------------------------------------------------
 Total job time:  325.34s(wall), 9251.30s(cpu) 
 Tue Sep 26 22:04:59 2023

        *************************************************************
        *                                                           *
        *  Thank you very much for using Q-Chem.  Have a nice day.  *
        *                                                           *
        *************************************************************


0 sent ACK to 0 
now end server 0 ... 
cleanup process ... done
remove work dirs ./qchem1985576.0 -- ./qchem1985576.0
rm -rf ./qchem1985576.0
rm -rf ./qchem1985576
