You are running Q-Chem version: 5.4.0

#
# job setting
#
local host:  exp-2-44
current dir: /expanse/lustre/projects/csd626/rramji/aromodel/PNDIT/Hydrogenated_Rotation_Test
input file:  Dimethyl_Naphthalene_Dicarboximide_Phi_30_Theta_90_Thiophene_Hydrogenated.qcin
output file: 
nprocs     : 1
nthreads   : 64
#
# qchem installation setting
#
QC:          /cm/shared/apps/spack/cpu/opt/spack/linux-centos8-zen2/gcc-10.2.0/qchem-5.4-akfmr7b3t57bfs6qan3padb2wnb2i7cl
QCAUX:       /cm/shared/apps/spack/cpu/opt/spack/linux-centos8-zen2/gcc-10.2.0/qchem-5.4-akfmr7b3t57bfs6qan3padb2wnb2i7cl/qcaux
QCPROG:      /cm/shared/apps/spack/cpu/opt/spack/linux-centos8-zen2/gcc-10.2.0/qchem-5.4-akfmr7b3t57bfs6qan3padb2wnb2i7cl/exe/qcprog.exe
QCPROG_S:    /cm/shared/apps/spack/cpu/opt/spack/linux-centos8-zen2/gcc-10.2.0/qchem-5.4-akfmr7b3t57bfs6qan3padb2wnb2i7cl/exe/qcprog.exe_s
PARALLEL:    -DPARALLEL
QCMPI:       mpich
#
# qchem directory setting
#
qcrun:       qchem2304168
QCSCRATCH:   .
QCLOCALSCR:  
QCTMPDIR:    .
QCFILEPREF:  ./qchem2304168
QCSAVEDIR:   
workdirs:    ./qchem2304168
workdir0:    ./qchem2304168
partmpdirs =  
#
# parallel setting
#
QCRSH:           ssh
QCMPI:           mpich
QCMPIRUN:        /cm/shared/apps/spack/cpu/opt/spack/linux-centos8-zen2/gcc-10.2.0/qchem-5.4-akfmr7b3t57bfs6qan3padb2wnb2i7cl/bin/mpi/mpirun_qchem
QCMACHINEFILE:   ./qchem2304168/hostfile
exp-2-44

#
# env setting
#
exported envs:   QC QCAUX QCSCRATCH QCRUNNAME QCFILEPREF QCPROG QCPROG_S GUIFILE

Running Job 1 of 1 Dimethyl_Naphthalene_Dicarboximide_Phi_30_Theta_90_Thiophene_Hydrogenated.qcin
qchem Dimethyl_Naphthalene_Dicarboximide_Phi_30_Theta_90_Thiophene_Hydrogenated.qcin_2304168.0 ./qchem2304168/ 1
/cm/shared/apps/spack/cpu/opt/spack/linux-centos8-zen2/gcc-10.2.0/qchem-5.4-akfmr7b3t57bfs6qan3padb2wnb2i7cl/bin/mpi/mpirun_qchem -machinefile ./qchem2304168/hostfile -np 1 /cm/shared/apps/spack/cpu/opt/spack/linux-centos8-zen2/gcc-10.2.0/qchem-5.4-akfmr7b3t57bfs6qan3padb2wnb2i7cl/exe/qcprog.exe Dimethyl_Naphthalene_Dicarboximide_Phi_30_Theta_90_Thiophene_Hydrogenated.qcin_2304168.0 ./qchem2304168/

Process 0 of 1 is on exp-2-44 - thread support 0
initial socket setup ...start
initial socket setup ...done 
now start server 0 ... 
                  Welcome to Q-Chem
     A Quantum Leap Into The Future Of Chemistry


 Q-Chem 5.4, Q-Chem, Inc., Pleasanton, CA (2021)

 License issued to: University of California, San Diego (site)

 E. Epifanovsky,  A. T. B. Gilbert,  Xintian Feng,  Joonho Lee,  Yuezhi Mao,  
 N. Mardirossian,  P. Pokhilko,  A. White,  M. Wormit,  M. P. Coons,  
 A. L. Dempwolff,  Zhengting Gan,  D. Hait,  P. R. Horn,  L. D. Jacobson,  
 I. Kaliman,  J. Kussmann,  A. W. Lange,  Ka Un Lao,  D. S. Levine,  Jie Liu,  
 S. C. McKenzie,  A. F. Morrison,  K. Nanda,  F. Plasser,  D. R. Rehn,  
 M. L. Vidal,  Zhi-Qiang You,  Ying Zhu,  B. Alam,  B. Albrecht,  
 A. Aldossary,  E. Alguire,  J. H. Andersen,  D. Barton,  K. Begam,  A. Behn,  
 Y. A. Bernard,  E. J. Berquist,  H. Burton,  A. Carreras,  K. Carter-Fenk,  
 R. Chakraborty,  A. D. Chien,  K. D. Closser,  V. Cofer-Shabica,  
 S. Dasgupta,  Jia Deng,  M. de Wergifosse,  M. Diedenhofen,  Hainam Do,  
 S. Ehlert,  Po-Tung Fang,  S. Fatehi,  Qingguo Feng,  J. Gayvert,  
 Qinghui Ge,  G. Gidofalvi,  M. Goldey,  J. Gomes,  C. Gonzalez-Espinoza,  
 S. Gulania,  A. Gunina,  M. W. D. Hanson-Heine,  P. H. P. Harbach,  
 A. W. Hauser,  M. F. Herbst,  M. Hernandez Vera,  M. Hodecker,  
 Z. C. Holden,  S. Houck,  Xunkun Huang,  Kerwin Hui,  B. C. Huynh,  
 M. Ivanov,  Hyunjun Ji,  Hanjie Jiang,  B. Kaduk,  S. Kaehler,  
 K. Khistyaev,  Jaehoon Kim,  P. Klunzinger,  Z. Koczor-Benda,  
 Joong Hoon Koh,  D. Kosenkov,  L. Koulias,  T. Kowalczyk,  C. M. Krauter,  
 K. Kue,  A. Kunitsa,  T. Kus,  A. Landau,  K. V. Lawler,  D. Lefrancois,  
 S. Lehtola,  Rain Li,  Yi-Pei Li,  Jiashu Liang,  M. Liebenthal,  
 Hung-Hsuan Lin,  You-Sheng Lin,  Fenglai Liu,  Kuan-Yu Liu,  
 M. Loipersberger,  A. Luenser,  A. Manjanath,  P. Manohar,  E. Mansoor,  
 S. F. Manzer,  Shan-Ping Mao,  A. V. Marenich,  T. Markovich,  S. Mason,  
 S. A. Maurer,  P. F. McLaughlin,  M. F. S. J. Menger,  J.-M. Mewes,  
 S. A. Mewes,  P. Morgante,  J. W. Mullinax,  T. S. Nguyen-Beck,  
 K. J. Oosterbaan,  G. Paran,  Alexander C. Paul,  Suranjan K. Paul,  
 F. Pavosevic,  Zheng Pei,  S. Prager,  E. I. Proynov,  E. Ramos,  B. Rana,  
 A. E. Rask,  A. Rettig,  R. M. Richard,  F. Rob,  E. Rossomme,  T. Scheele,  
 M. Scheurer,  M. Schneider,  N. Sergueev,  S. M. Sharada,  W. Skomorowski,  
 D. W. Small,  C. J. Stein,  Yu-Chuan Su,  E. J. Sundstrom,  Zhen Tao,  
 J. Thirman,  T. Tsuchimochi,  N. M. Tubman,  S. P. Veccham,  O. Vydrov,  
 J. Wenzel,  J. Witte,  A. Yamada,  Kun Yao,  S. Yeganeh,  S. R. Yost,  
 A. Zech,  Igor Ying Zhang,  Xing Zhang,  Yu Zhang,  D. Zuev,  
 A. Aspuru-Guzik,  A. T. Bell,  N. A. Besley,  K. B. Bravaya,  B. R. Brooks,  
 D. Casanova,  Jeng-Da Chai,  S. Coriani,  C. J. Cramer,  
 A. E. DePrince, III,  R. A. DiStasio Jr.,  A. Dreuw,  B. D. Dunietz,  
 T. R. Furlani,  W. A. Goddard III,  S. Grimme,  S. Hammes-Schiffer,  
 T. Head-Gordon,  W. J. Hehre,  Chao-Ping Hsu,  T.-C. Jagau,  Yousung Jung,  
 A. Klamt,  Jing Kong,  D. S. Lambrecht,  WanZhen Liang,  N. J. Mayhall,  
 C. W. McCurdy,  J. B. Neaton,  C. Ochsenfeld,  J. A. Parkhill,  R. Peverati,  
 V. A. Rassolov,  Yihan Shao,  L. V. Slipchenko,  T. Stauch,  R. P. Steele,  
 J. E. Subotnik,  A. J. W. Thom,  A. Tkatchenko,  D. G. Truhlar,  
 T. Van Voorhis,  T. A. Wesolowski,  K. B. Whaley,  H. L. Woodcock III,  
 P. M. Zimmerman,  S. Faraji,  P. M. W. Gill,  M. Head-Gordon,  
 J. M. Herbert,  A. I. Krylov

 Contributors to earlier versions of Q-Chem not listed above: 
 R. D. Adamson,  B. Austin,  R. Baer,  J. Baker,  G. J. O. Beran,  
 K. Brandhorst,  S. T. Brown,  E. F. C. Byrd,  A. K. Chakraborty,  
 G. K. L. Chan,  Chun-Min Chang,  Yunqing Chen,  C.-L. Cheng,  
 Siu Hung Chien,  D. M. Chipman,  D. L. Crittenden,  H. Dachsel,  
 R. J. Doerksen,  A. D. Dutoi,  R. G. Edgar,  J. Fosso-Tande,  
 L. Fusti-Molnar,  D. Ghosh,  A. Ghysels,  A. Golubeva-Zadorozhnaya,  
 J. Gonthier,  M. S. Gordon,  S. R. Gwaltney,  G. Hawkins,  J. E. Herr,  
 A. Heyden,  S. Hirata,  E. G. Hohenstein,  G. Kedziora,  F. J. Keil,  
 C. Kelley,  Jihan Kim,  R. A. King,  R. Z. Khaliullin,  P. P. Korambath,  
 W. Kurlancheek,  A. Laurent,  A. M. Lee,  M. S. Lee,  S. V. Levchenko,  
 Ching Yeh Lin,  D. Liotard,  E. Livshits,  R. C. Lochan,  I. Lotan,  
 L. A. Martinez-Martinez,  P. E. Maslen,  N. Nair,  D. P. O'Neill,  
 D. Neuhauser,  E. Neuscamman,  C. M. Oana,  R. Olivares-Amaya,  R. Olson,  
 T. M. Perrine,  B. Peters,  P. A. Pieniazek,  A. Prociuk,  Y. M. Rhee,  
 J. Ritchie,  M. A. Rohrdanz,  E. Rosta,  N. J. Russ,  H. F. Schaefer III,  
 M. W. Schmidt,  N. E. Schultz,  S. Sharma,  N. Shenvi,  C. D. Sherrill,  
 A. C. Simmonett,  A. Sodt,  T. Stein,  D. Stuck,  K. S. Thanthiriwatte,  
 V. Vanovschi,  L. Vogt,  Tao Wang,  A. Warshel,  M. A. Watson,  
 C. F. Williams,  Q. Wu,  X. Xu,  Jun Yang,  W. Zhang,  Yan Zhao

 Please cite Q-Chem as follows:
 Y. Shao et al., Mol. Phys. 113, 184-215 (2015)
 DOI: 10.1080/00268976.2014.952696

 Q-Chem 5.4.0 for Intel X86 EM64T Linux

 Parts of Q-Chem use Armadillo 9.800.1 (Horizon Scraper).
 http://arma.sourceforge.net/

 Q-Chem begins on Sun Sep 24 15:42:31 2023  

 Host: 
0

     Scratch files written to ./qchem2304168//
 May1621 |scratch|qcdevops|jenkins|workspace|build_RNUM    
 Parallel job on  1  processors
 Processing $rem in /cm/shared/apps/spack/cpu/opt/spack/linux-centos8-zen2/gcc-10.2.0/qchem-5.4-akfmr7b3t57bfs6qan3padb2wnb2i7cl/config/preferences:
 Processing $rem in /home/rramji/.qchemrc:
 Symmetry turned off for PCM/SM12/SMD calculation
 Core orbitals will be frozen

 Checking the input file for inconsistencies... 	...done.

 Q-Chem warning in module forms1/BasisType.C, line 2236:

 You are not using the predefined 5D/6D in this basis set.


--------------------------------------------------------------
User input:
--------------------------------------------------------------
$molecule
0 1
C	0.256927	-6.741404	-0.001478
C	1.562675	-6.155638	-0.001603
C	-0.827197	-5.791452	-0.001931
C	1.841253	-4.803786	-0.001374
H	2.440709	-6.821518	-0.001794
C	-0.535488	-4.378638	-0.001227
C	0.794999	-3.838032	-0.000872
C	-1.580529	-3.413062	-0.000658
C	1.084374	-2.426473	-0.000186
C	-1.305258	-2.059348	-0.000046
C	0.000000	-1.478216	0.000000
H	-2.184267	-1.394783	0.000369
C	-2.269719	-6.187987	-0.003770
C	-3.011152	-3.798164	-0.000767
N	-3.254617	-5.170003	-0.002465
C	3.275775	-4.424987	-0.001433
C	2.527951	-2.036627	0.000576
N	3.513104	-3.049156	-0.000400
O	-2.661046	-7.353131	-0.006623
O	-3.934410	-2.986854	0.000172
O	4.188059	-5.248946	-0.002151
O	2.940845	-0.878829	0.002006
C	-4.667206	-5.563799	-0.003509
H	-4.712423	-6.664085	-0.004658
H	-5.169231	-5.147101	-0.897610
H	-5.169992	-5.148785	0.890935
C	4.904229	-2.587487	0.000039
H	5.546833	-3.483329	-0.001022
H	5.095998	-1.964972	0.894545
H	5.095858	-1.962932	-0.893071
C	0.000000	0.000000	0.000000
S	0.396411	0.687007	1.580530
C	1.215245	2.105322	0.904911
C	0.498850	0.864369	-0.985400
C	1.158885	2.007781	-0.493528
H	0.381046	0.660280	-2.059934
H	1.599289	2.770727	-1.152593
H	1.655514	2.868056	1.556025
H	0.149881	-7.361589	0.896779
H	0.150656	-7.361192	-0.900100
H	-0.000531	-1.478831	1.080000
$end

$rem
JOBTYPE		SP
EXCHANGE	HF
CORRELATION	pRIMP2
BASIS		cc-pvtz
METHOD		rimp2
AUX_BASIS	rimp2-cc-pvtz
SOLVENT_METHOD	PCM
PURECART	11111
SYMMETRY	false
MEM_TOTAL	110000
SCF_CONVERGENCE = 6
THRESH=10
GUI = 2
$end



$solvent
dielectric 4.90
$end
--------------------------------------------------------------
 ----------------------------------------------------------------
             Standard Nuclear Orientation (Angstroms)
    I     Atom           X                Y                Z
 ----------------------------------------------------------------
    1      C       0.2569270000    -6.7414040000    -0.0014780000
    2      C       1.5626750000    -6.1556380000    -0.0016030000
    3      C      -0.8271970000    -5.7914520000    -0.0019310000
    4      C       1.8412530000    -4.8037860000    -0.0013740000
    5      H       2.4407090000    -6.8215180000    -0.0017940000
    6      C      -0.5354880000    -4.3786380000    -0.0012270000
    7      C       0.7949990000    -3.8380320000    -0.0008720000
    8      C      -1.5805290000    -3.4130620000    -0.0006580000
    9      C       1.0843740000    -2.4264730000    -0.0001860000
   10      C      -1.3052580000    -2.0593480000    -0.0000460000
   11      C       0.0000000000    -1.4782160000     0.0000000000
   12      H      -2.1842670000    -1.3947830000     0.0003690000
   13      C      -2.2697190000    -6.1879870000    -0.0037700000
   14      C      -3.0111520000    -3.7981640000    -0.0007670000
   15      N      -3.2546170000    -5.1700030000    -0.0024650000
   16      C       3.2757750000    -4.4249870000    -0.0014330000
   17      C       2.5279510000    -2.0366270000     0.0005760000
   18      N       3.5131040000    -3.0491560000    -0.0004000000
   19      O      -2.6610460000    -7.3531310000    -0.0066230000
   20      O      -3.9344100000    -2.9868540000     0.0001720000
   21      O       4.1880590000    -5.2489460000    -0.0021510000
   22      O       2.9408450000    -0.8788290000     0.0020060000
   23      C      -4.6672060000    -5.5637990000    -0.0035090000
   24      H      -4.7124230000    -6.6640850000    -0.0046580000
   25      H      -5.1692310000    -5.1471010000    -0.8976100000
   26      H      -5.1699920000    -5.1487850000     0.8909350000
   27      C       4.9042290000    -2.5874870000     0.0000390000
   28      H       5.5468330000    -3.4833290000    -0.0010220000
   29      H       5.0959980000    -1.9649720000     0.8945450000
   30      H       5.0958580000    -1.9629320000    -0.8930710000
   31      C       0.0000000000     0.0000000000     0.0000000000
   32      S       0.3964110000     0.6870070000     1.5805300000
   33      C       1.2152450000     2.1053220000     0.9049110000
   34      C       0.4988500000     0.8643690000    -0.9854000000
   35      C       1.1588850000     2.0077810000    -0.4935280000
   36      H       0.3810460000     0.6602800000    -2.0599340000
   37      H       1.5992890000     2.7707270000    -1.1525930000
   38      H       1.6555140000     2.8680560000     1.5560250000
   39      H       0.1498810000    -7.3615890000     0.8967790000
   40      H       0.1506560000    -7.3611920000    -0.9001000000
   41      H      -0.0005310000    -1.4788310000     1.0800000000
 ----------------------------------------------------------------
 Nuclear Repulsion Energy =        2566.30452736 hartrees
 There are       98 alpha and       98 beta electrons
 Requested basis set is cc-pVTZ
 There are 356 shells and 1010 basis functions

 Total QAlloc Memory Limit 110000 MB
 Mega-Array Size       188 MB
 MEM_STATIC part       192 MB
 Discretize the solute cavity surface with Lebedev spheres
	Using 110 Lebedev grid points for each H atom
	Using 194 Lebedev grid points for other atoms
	Atomic van der Waals radii will be scaled by 1.20
 Remove points where switching function is < 1.0e-08
 Keep 2576 surface tesserae and discard 4202 interior tesserae
 Molecular Surface Area = 367.902 Angst**2
 Requested basis set is rimp2-cc-pVTZ
 There are 770 shells and 2648 basis functions
 A cutoff of  1.0D-10 yielded  34472 shell pairs
 There are    260820 function pairs (    337753 Cartesian)
 Smallest overlap matrix eigenvalue = 8.92E-06

 Q-Chem warning in module stvman/mkSTV.C, line 323:

 Overlap eigenvalue is smaller than square root of threshold
 Use THRESH >= 12 to get rid of this warning


 Scale SEOQF with 1.000000e-02/1.000000e-02/1.000000e-01

 Standard Electronic Orientation quadrupole field applied
 Nucleus-field energy     =     0.0000000204 hartrees
 Guess from superposition of atomic densities
 Warning:  Energy on first SCF cycle will be non-variational
 SAD guess density has 196.000000 electrons

 -----------------------------------------------------------------------
  General SCF calculation program by
  Eric Jon Sundstrom, Paul Horn, Yuezhi Mao, Dmitri Zuev, Alec White,
  David Stuck, Shaama M.S., Shane Yost, Joonho Lee, David Small,
  Daniel Levine, Susi Lehtola, Hugh Burton, Evgeny Epifanovsky,
  Bang C. Huynh
 -----------------------------------------------------------------------
 Hartree-Fock
 using 64 threads for integral computing
 -------------------------------------------------------
 OpenMP Integral computing Module                
 Release: version 1.0, May 2013, Q-Chem Inc. Pittsburgh 
 -------------------------------------------------------
 A restricted SCF calculation will be
 performed using DIIS
 SCF converges when DIIS error is below 1.0e-06
 ---------------------------------------
  Cycle       Energy         DIIS error
 ---------------------------------------
    1   -1583.1306691207      1.86e-02  
    2   -1571.1509059954      2.03e-03  
    3   -1571.4899189305      1.55e-03  
    4   -1571.7111309047      2.53e-04  
    5   -1571.7250649098      7.83e-05  
    6   -1571.7265085356      3.05e-05  
    7   -1571.7269425478      1.55e-05  
    8   -1571.7270610124      6.43e-06  
    9   -1571.7270813829      2.90e-06  
   10   -1571.7270854850      1.25e-06  
   11   -1571.7270866856      5.65e-07  Convergence criterion met
 ---------------------------------------
 SCF time:   CPU 7203.23s  wall 268.00s 

************** Final PCM Free Energy Summary **************
 G_electrostatic  =      -0.02972113 hartree =     -18.65028912 kcal/mol
 G_cavitation     =       0.00000000 hartree =       0.00000000 kcal/mol
 G_dispersion     =       0.00000000 hartree =       0.00000000 kcal/mol
 G_repulsion      =       0.00000000 hartree =       0.00000000 kcal/mol
 --------------------------------------------------
 Non-electrostatic Free Energy =       0.00000000 hartree =       0.00000000 kcal/mol
 Total                         =      -0.02972113 hartree =     -18.65028912 kcal/mol
 --------------------------------------------------
 SCF Energy (H0 + V/2)                       =   -1571.72708669 
 Solute Internal Energy (H0)                 =   -1571.69736556 
 Total Free Energy (H0 + V/2 + non-elec)     =   -1571.72708669 hartree
                                             = -986273.63272244 kcal/mol
***********************************************************

 SCF   energy in the final basis set =    -1571.7270866856
 Total energy in the final basis set =    -1571.7270866856


 --------------------------------------------------------------
  Generalized many-body perturbation theory program
  by Joonho Lee, Fazle Rob, Xintian Feng, Evgeny Epifanovsky

 No regularization used 
 (reg. param. = 0.0000e+00)
  (P|Q)^-1/2 Time:  CPU 192.50 s  wall 3.74 s

 In RI-MP2 calculation: 
 # of frozen core orbitals: 31

 Components of the RIMP2 correlation energy:
        aaaa    correlation energy =        -0.6157602376 a.u.
        abab    correlation energy =        -3.4278980637 a.u.
        bbbb    correlation energy =        -0.6157602376 a.u.
        non-Brillouin singles      =        -0.0000000000 a.u.
        total same-spin energy     =        -1.2315204751 a.u.
        total opposite-spin energy =        -3.4278980637 a.u.

 Total  RIMP2   correlation energy =        -4.6594185389 a.u.
        RIMP2         total energy =     -1576.3865052244 a.u.

 RI-MP2 Energy Time:  CPU 2613.56 s  wall 43.53 s
 
 --------------------------------------------------------------
 
                    Orbital Energies (a.u.)
 --------------------------------------------------------------
 
 Alpha MOs
 -- Occupied --
-91.9900 -20.5495 -20.5437 -20.5404 -20.5390 -15.6257 -15.6200 -11.3911
-11.3843 -11.3823 -11.3774 -11.3069 -11.3051 -11.3034 -11.3031 -11.2953
-11.2886 -11.2850 -11.2820 -11.2671 -11.2670 -11.2624 -11.2612 -11.2587
-11.2581 -11.2516 -11.2498  -8.9899  -6.6708  -6.6702  -6.6696  -1.4178
 -1.4109  -1.3959  -1.3901  -1.2608  -1.2542  -1.2282  -1.1863  -1.1515
 -1.1122  -1.0848  -1.0448  -0.9950  -0.9868  -0.9852  -0.9540  -0.9503
 -0.8943  -0.8844  -0.8756  -0.8587  -0.7906  -0.7751  -0.7734  -0.7678
 -0.7374  -0.7161  -0.7035  -0.6902  -0.6749  -0.6687  -0.6665  -0.6561
 -0.6458  -0.6399  -0.6364  -0.6306  -0.6298  -0.6254  -0.6223  -0.6036
 -0.5831  -0.5735  -0.5678  -0.5606  -0.5555  -0.5504  -0.5492  -0.5470
 -0.5460  -0.5428  -0.5198  -0.5117  -0.5052  -0.4788  -0.4720  -0.4681
 -0.4541  -0.4481  -0.4413  -0.4332  -0.4126  -0.4064  -0.3540  -0.3499
 -0.3285  -0.2886
 -- Virtual --
  0.0162   0.0453   0.0768   0.0930   0.1296   0.1497   0.1547   0.1614
  0.1644   0.1735   0.1802   0.1831   0.1868   0.1909   0.1949   0.1995
  0.2055   0.2208   0.2243   0.2281   0.2310   0.2332   0.2368   0.2441
  0.2677   0.2697   0.2893   0.3043   0.3110   0.3166   0.3216   0.3252
  0.3293   0.3422   0.3424   0.3517   0.3553   0.3600   0.3638   0.3698
  0.3724   0.3771   0.3834   0.3865   0.3873   0.3921   0.4035   0.4063
  0.4126   0.4197   0.4274   0.4313   0.4361   0.4401   0.4456   0.4499
  0.4508   0.4553   0.4574   0.4671   0.4708   0.4861   0.4908   0.4938
  0.5002   0.5029   0.5041   0.5123   0.5167   0.5199   0.5215   0.5281
  0.5302   0.5365   0.5421   0.5469   0.5523   0.5546   0.5626   0.5670
  0.5696   0.5735   0.5783   0.5838   0.5903   0.5910   0.5953   0.5999
  0.6029   0.6065   0.6082   0.6122   0.6158   0.6196   0.6224   0.6259
  0.6300   0.6348   0.6362   0.6399   0.6421   0.6461   0.6477   0.6554
  0.6633   0.6688   0.6757   0.6787   0.6860   0.6910   0.6951   0.7016
  0.7059   0.7107   0.7169   0.7281   0.7289   0.7394   0.7456   0.7544
  0.7639   0.7655   0.7703   0.7750   0.7817   0.7845   0.7913   0.8003
  0.8030   0.8088   0.8156   0.8241   0.8293   0.8318   0.8407   0.8472
  0.8489   0.8593   0.8618   0.8661   0.8695   0.8742   0.8784   0.8844
  0.8899   0.8980   0.9040   0.9139   0.9192   0.9218   0.9255   0.9325
  0.9337   0.9432   0.9435   0.9560   0.9566   0.9682   0.9759   0.9781
  0.9822   0.9877   0.9914   0.9956   1.0022   1.0056   1.0113   1.0242
  1.0272   1.0347   1.0368   1.0393   1.0465   1.0495   1.0613   1.0631
  1.0679   1.0702   1.0777   1.0820   1.0881   1.0943   1.0982   1.1036
  1.1077   1.1161   1.1206   1.1226   1.1336   1.1349   1.1408   1.1448
  1.1461   1.1557   1.1601   1.1639   1.1731   1.1790   1.1819   1.1873
  1.1900   1.1991   1.2031   1.2066   1.2131   1.2155   1.2194   1.2300
  1.2310   1.2384   1.2426   1.2445   1.2526   1.2589   1.2704   1.2796
  1.2831   1.2930   1.2973   1.3040   1.3129   1.3249   1.3339   1.3388
  1.3500   1.3525   1.3547   1.3642   1.3689   1.3820   1.3843   1.3896
  1.3924   1.3962   1.3988   1.4159   1.4184   1.4227   1.4329   1.4367
  1.4446   1.4528   1.4643   1.4686   1.4778   1.4805   1.4928   1.4990
  1.5025   1.5056   1.5067   1.5144   1.5237   1.5262   1.5316   1.5401
  1.5449   1.5467   1.5530   1.5557   1.5632   1.5696   1.5767   1.5776
  1.5828   1.5887   1.5941   1.6022   1.6196   1.6253   1.6314   1.6431
  1.6503   1.6629   1.6646   1.6755   1.6802   1.6873   1.6932   1.6972
  1.7036   1.7110   1.7254   1.7386   1.7401   1.7504   1.7518   1.7562
  1.7600   1.7702   1.7708   1.7805   1.7907   1.7940   1.8071   1.8116
  1.8159   1.8248   1.8295   1.8434   1.8505   1.8656   1.8697   1.8745
  1.8755   1.8760   1.8893   1.8964   1.9089   1.9235   1.9356   1.9521
  1.9537   1.9638   1.9673   1.9706   1.9898   1.9924   2.0011   2.0181
  2.0316   2.0406   2.0550   2.0644   2.0892   2.1027   2.1067   2.1227
  2.1324   2.1509   2.1550   2.1676   2.1775   2.1804   2.2115   2.2163
  2.2224   2.2337   2.2503   2.2666   2.2825   2.2928   2.2955   2.3018
  2.3175   2.3197   2.3335   2.3366   2.3678   2.3688   2.3817   2.3893
  2.4139   2.4248   2.4362   2.4421   2.4487   2.4582   2.4656   2.4700
  2.4732   2.4851   2.4954   2.5037   2.5149   2.5317   2.5407   2.5428
  2.5598   2.5656   2.5792   2.5860   2.5929   2.6019   2.6036   2.6229
  2.6266   2.6383   2.6393   2.6423   2.6581   2.6668   2.6741   2.6821
  2.6841   2.6931   2.6969   2.7162   2.7168   2.7252   2.7288   2.7346
  2.7401   2.7490   2.7615   2.7622   2.7734   2.7759   2.7843   2.7994
  2.8170   2.8257   2.8319   2.8443   2.8514   2.8550   2.8647   2.8700
  2.8808   2.8832   2.8902   2.8965   2.9024   2.9075   2.9114   2.9188
  2.9242   2.9267   2.9393   2.9430   2.9576   2.9603   2.9651   2.9747
  2.9815   2.9823   2.9912   3.0027   3.0112   3.0149   3.0199   3.0285
  3.0333   3.0415   3.0453   3.0547   3.0570   3.0693   3.0824   3.0899
  3.0978   3.1019   3.1082   3.1085   3.1123   3.1140   3.1216   3.1253
  3.1350   3.1414   3.1458   3.1565   3.1578   3.1616   3.1682   3.1749
  3.1916   3.1952   3.1979   3.2026   3.2116   3.2152   3.2229   3.2262
  3.2297   3.2347   3.2363   3.2459   3.2532   3.2539   3.2612   3.2682
  3.2741   3.2798   3.2864   3.2896   3.2959   3.3000   3.3061   3.3091
  3.3132   3.3156   3.3234   3.3294   3.3314   3.3362   3.3373   3.3429
  3.3463   3.3504   3.3516   3.3569   3.3599   3.3640   3.3690   3.3739
  3.3856   3.3874   3.3936   3.3960   3.4009   3.4029   3.4059   3.4122
  3.4162   3.4219   3.4226   3.4293   3.4410   3.4455   3.4483   3.4515
  3.4604   3.4619   3.4677   3.4702   3.4751   3.4785   3.4825   3.4959
  3.4992   3.5018   3.5041   3.5073   3.5101   3.5228   3.5264   3.5290
  3.5426   3.5434   3.5526   3.5534   3.5621   3.5713   3.5816   3.5851
  3.5856   3.5900   3.5944   3.6045   3.6088   3.6207   3.6268   3.6277
  3.6326   3.6359   3.6406   3.6424   3.6503   3.6540   3.6584   3.6597
  3.6702   3.6781   3.6829   3.6895   3.6948   3.6982   3.7025   3.7140
  3.7233   3.7302   3.7372   3.7378   3.7483   3.7487   3.7532   3.7582
  3.7652   3.7677   3.7708   3.7745   3.7774   3.7906   3.7954   3.8065
  3.8124   3.8141   3.8169   3.8222   3.8335   3.8406   3.8419   3.8503
  3.8548   3.8611   3.8634   3.8704   3.8804   3.8900   3.8970   3.9070
  3.9101   3.9179   3.9222   3.9325   3.9392   3.9420   3.9447   3.9557
  3.9586   3.9649   3.9692   3.9793   3.9832   3.9951   4.0016   4.0131
  4.0194   4.0260   4.0302   4.0325   4.0413   4.0591   4.0624   4.0743
  4.0987   4.1084   4.1094   4.1136   4.1227   4.1292   4.1350   4.1432
  4.1468   4.1561   4.1646   4.1715   4.1777   4.1852   4.2039   4.2073
  4.2109   4.2278   4.2292   4.2413   4.2455   4.2511   4.2591   4.2647
  4.2728   4.2741   4.2803   4.2832   4.2883   4.2946   4.2995   4.3087
  4.3121   4.3153   4.3205   4.3292   4.3369   4.3389   4.3470   4.3515
  4.3620   4.3656   4.3700   4.3725   4.3739   4.3801   4.3911   4.3947
  4.4020   4.4072   4.4105   4.4164   4.4318   4.4392   4.4477   4.4516
  4.4790   4.4818   4.4844   4.4987   4.5016   4.5101   4.5233   4.5268
  4.5375   4.5432   4.5488   4.5514   4.5673   4.5753   4.5797   4.5864
  4.5882   4.5954   4.6012   4.6111   4.6168   4.6239   4.6303   4.6364
  4.6495   4.6561   4.6694   4.6739   4.6884   4.6956   4.7042   4.7068
  4.7170   4.7296   4.7366   4.7428   4.7786   4.7846   4.7906   4.8003
  4.8122   4.8306   4.8373   4.8406   4.8547   4.8595   4.8738   4.8779
  4.8881   4.8944   4.9117   4.9229   4.9245   4.9464   4.9591   4.9626
  4.9861   5.0080   5.0160   5.0282   5.0359   5.0434   5.0533   5.0619
  5.0884   5.0901   5.1033   5.1228   5.1250   5.1301   5.1355   5.1423
  5.1469   5.1532   5.1709   5.1743   5.1861   5.1992   5.2238   5.2359
  5.2638   5.2662   5.2762   5.2823   5.2883   5.3066   5.3190   5.3291
  5.3315   5.3475   5.3599   5.3642   5.3786   5.3865   5.4039   5.4172
  5.4320   5.4460   5.4795   5.4880   5.4953   5.5009   5.5128   5.5152
  5.5183   5.5365   5.5457   5.5506   5.5593   5.5603   5.5646   5.5687
  5.5788   5.5820   5.5871   5.5921   5.6105   5.6200   5.6231   5.6323
  5.6496   5.6572   5.6620   5.6674   5.6721   5.6758   5.6947   5.6961
  5.7041   5.7124   5.7233   5.7440   5.7548   5.7672   5.7689   5.7728
  5.7857   5.7959   5.8104   5.8315   5.8435   5.8651   5.8852   5.9082
  5.9204   5.9508   5.9601   5.9759   5.9921   6.0045   6.0342   6.0429
  6.0463   6.0580   6.0873   6.1127   6.1242   6.1264   6.1479   6.1891
  6.1999   6.2203   6.2252   6.2264   6.2432   6.2633   6.2693   6.2843
  6.3106   6.3191   6.3242   6.3487   6.3671   6.3849   6.4138   6.4858
  6.5196   6.5339   6.5768   6.5840   6.6027   6.6191   6.6418   6.6605
  6.6702   6.6769   6.8503   6.8512   6.8902   6.9033   6.9065   6.9253
  6.9285   6.9450   7.1025   7.1124   7.1485   7.1967   7.2009   7.2369
  7.3486   7.3531   7.3592   7.3641   7.4769   7.5461   7.5721   7.5842
  7.5928   7.6068   7.6550   7.6819   7.6941   7.7167   8.8362  10.0293
 10.2971  11.3255  11.5201  11.7572  12.0034  12.1808  12.4247  12.4682
 12.8698  13.2078  13.3301  13.5525  13.7778  13.9332  14.0876  14.2767
 14.3137  14.3689  14.4833  14.5372  15.0247  15.6049  15.8167  16.2866
 --------------------------------------------------------------
 
          Ground-State Mulliken Net Atomic Charges

     Atom                 Charge (a.u.)
  ----------------------------------------
      1 C                    -0.084029
      2 C                    -0.031907
      3 C                    -0.115680
      4 C                    -0.119130
      5 H                     0.198031
      6 C                     0.009029
      7 C                     0.113790
      8 C                    -0.069006
      9 C                    -0.147835
     10 C                    -0.169172
     11 C                     0.226383
     12 H                     0.190259
     13 C                     0.342669
     14 C                     0.348926
     15 N                    -0.089680
     16 C                     0.356057
     17 C                     0.355510
     18 N                    -0.088658
     19 O                    -0.496146
     20 O                    -0.508393
     21 O                    -0.502371
     22 O                    -0.467948
     23 C                    -0.205050
     24 H                     0.139210
     25 H                     0.108773
     26 H                     0.108834
     27 C                    -0.198080
     28 H                     0.133234
     29 H                     0.111091
     30 H                     0.110749
     31 C                    -0.055982
     32 S                     0.005548
     33 C                    -0.196273
     34 C                    -0.180195
     35 C                    -0.183552
     36 H                     0.187168
     37 H                     0.189828
     38 H                     0.213241
     39 H                     0.136779
     40 H                     0.136930
     41 H                     0.187048
  ----------------------------------------
  Sum of atomic charges =     0.000000

 -----------------------------------------------------------------
                    Cartesian Multipole Moments
 -----------------------------------------------------------------
    Charge (ESU x 10^10)
                 0.0000
    Dipole Moment (Debye)
         X       2.3996      Y       2.8502      Z      -0.3056
       Tot       3.7383
    Quadrupole Moments (Debye-Ang)
        XX    -193.5686     XY      -3.8094     YY    -182.5484
        XZ       0.5715     YZ      -0.4852     ZZ    -156.0580
    Octopole Moments (Debye-Ang^2)
       XXX    -117.7200    XXY     615.8960    XYY      40.1273
       YYY    1711.6290    XXZ     -15.7952    XYZ       3.6973
       YYZ      -8.8842    XZZ     -32.9392    YZZ     476.6670
       ZZZ     -55.5220
    Hexadecapole Moments (Debye-Ang^3)
      XXXX   -6525.3537   XXXY    -152.6249   XXYY   -4486.8655
      XYYY   -1255.2891   YYYY  -18104.0130   XXXZ     -22.7127
      XXYZ      -9.2991   XYYZ       1.3391   YYYZ     -34.8443
      XXZZ   -1086.6154   XYZZ    -147.0656   YYZZ   -2639.6194
      XZZZ     -21.2520   YZZZ     -39.2804   ZZZZ    -466.6853
 -----------------------------------------------------------------
 Total job time:  317.02s(wall), 9935.07s(cpu) 
 Sun Sep 24 15:47:48 2023

        *************************************************************
        *                                                           *
        *  Thank you very much for using Q-Chem.  Have a nice day.  *
        *                                                           *
        *************************************************************


0 sent ACK to 0 
now end server 0 ... 
cleanup process ... done
remove work dirs ./qchem2304168.0 -- ./qchem2304168.0
rm -rf ./qchem2304168.0
rm -rf ./qchem2304168
