You are running Q-Chem version: 5.4.0

#
# job setting
#
local host:  exp-2-44
current dir: /expanse/lustre/projects/csd626/rramji/aromodel/PNDIT/Hydrogenated_Rotation_Test
input file:  Dimethyl_Naphthalene_Dicarboximide_Phi_30_Theta_300_Thiophene_Hydrogenated.qcin
output file: 
nprocs     : 1
nthreads   : 64
#
# qchem installation setting
#
QC:          /cm/shared/apps/spack/cpu/opt/spack/linux-centos8-zen2/gcc-10.2.0/qchem-5.4-akfmr7b3t57bfs6qan3padb2wnb2i7cl
QCAUX:       /cm/shared/apps/spack/cpu/opt/spack/linux-centos8-zen2/gcc-10.2.0/qchem-5.4-akfmr7b3t57bfs6qan3padb2wnb2i7cl/qcaux
QCPROG:      /cm/shared/apps/spack/cpu/opt/spack/linux-centos8-zen2/gcc-10.2.0/qchem-5.4-akfmr7b3t57bfs6qan3padb2wnb2i7cl/exe/qcprog.exe
QCPROG_S:    /cm/shared/apps/spack/cpu/opt/spack/linux-centos8-zen2/gcc-10.2.0/qchem-5.4-akfmr7b3t57bfs6qan3padb2wnb2i7cl/exe/qcprog.exe_s
PARALLEL:    -DPARALLEL
QCMPI:       mpich
#
# qchem directory setting
#
qcrun:       qchem2342064
QCSCRATCH:   .
QCLOCALSCR:  
QCTMPDIR:    .
QCFILEPREF:  ./qchem2342064
QCSAVEDIR:   
workdirs:    ./qchem2342064
workdir0:    ./qchem2342064
partmpdirs =  
#
# parallel setting
#
QCRSH:           ssh
QCMPI:           mpich
QCMPIRUN:        /cm/shared/apps/spack/cpu/opt/spack/linux-centos8-zen2/gcc-10.2.0/qchem-5.4-akfmr7b3t57bfs6qan3padb2wnb2i7cl/bin/mpi/mpirun_qchem
QCMACHINEFILE:   ./qchem2342064/hostfile
exp-2-44

#
# env setting
#
exported envs:   QC QCAUX QCSCRATCH QCRUNNAME QCFILEPREF QCPROG QCPROG_S GUIFILE

Running Job 1 of 1 Dimethyl_Naphthalene_Dicarboximide_Phi_30_Theta_300_Thiophene_Hydrogenated.qcin
qchem Dimethyl_Naphthalene_Dicarboximide_Phi_30_Theta_300_Thiophene_Hydrogenated.qcin_2342064.0 ./qchem2342064/ 1
/cm/shared/apps/spack/cpu/opt/spack/linux-centos8-zen2/gcc-10.2.0/qchem-5.4-akfmr7b3t57bfs6qan3padb2wnb2i7cl/bin/mpi/mpirun_qchem -machinefile ./qchem2342064/hostfile -np 1 /cm/shared/apps/spack/cpu/opt/spack/linux-centos8-zen2/gcc-10.2.0/qchem-5.4-akfmr7b3t57bfs6qan3padb2wnb2i7cl/exe/qcprog.exe Dimethyl_Naphthalene_Dicarboximide_Phi_30_Theta_300_Thiophene_Hydrogenated.qcin_2342064.0 ./qchem2342064/

Process 0 of 1 is on exp-2-44 - thread support 0
initial socket setup ...start
initial socket setup ...done 
now start server 0 ... 
                  Welcome to Q-Chem
     A Quantum Leap Into The Future Of Chemistry


 Q-Chem 5.4, Q-Chem, Inc., Pleasanton, CA (2021)

 License issued to: University of California, San Diego (site)

 E. Epifanovsky,  A. T. B. Gilbert,  Xintian Feng,  Joonho Lee,  Yuezhi Mao,  
 N. Mardirossian,  P. Pokhilko,  A. White,  M. Wormit,  M. P. Coons,  
 A. L. Dempwolff,  Zhengting Gan,  D. Hait,  P. R. Horn,  L. D. Jacobson,  
 I. Kaliman,  J. Kussmann,  A. W. Lange,  Ka Un Lao,  D. S. Levine,  Jie Liu,  
 S. C. McKenzie,  A. F. Morrison,  K. Nanda,  F. Plasser,  D. R. Rehn,  
 M. L. Vidal,  Zhi-Qiang You,  Ying Zhu,  B. Alam,  B. Albrecht,  
 A. Aldossary,  E. Alguire,  J. H. Andersen,  D. Barton,  K. Begam,  A. Behn,  
 Y. A. Bernard,  E. J. Berquist,  H. Burton,  A. Carreras,  K. Carter-Fenk,  
 R. Chakraborty,  A. D. Chien,  K. D. Closser,  V. Cofer-Shabica,  
 S. Dasgupta,  Jia Deng,  M. de Wergifosse,  M. Diedenhofen,  Hainam Do,  
 S. Ehlert,  Po-Tung Fang,  S. Fatehi,  Qingguo Feng,  J. Gayvert,  
 Qinghui Ge,  G. Gidofalvi,  M. Goldey,  J. Gomes,  C. Gonzalez-Espinoza,  
 S. Gulania,  A. Gunina,  M. W. D. Hanson-Heine,  P. H. P. Harbach,  
 A. W. Hauser,  M. F. Herbst,  M. Hernandez Vera,  M. Hodecker,  
 Z. C. Holden,  S. Houck,  Xunkun Huang,  Kerwin Hui,  B. C. Huynh,  
 M. Ivanov,  Hyunjun Ji,  Hanjie Jiang,  B. Kaduk,  S. Kaehler,  
 K. Khistyaev,  Jaehoon Kim,  P. Klunzinger,  Z. Koczor-Benda,  
 Joong Hoon Koh,  D. Kosenkov,  L. Koulias,  T. Kowalczyk,  C. M. Krauter,  
 K. Kue,  A. Kunitsa,  T. Kus,  A. Landau,  K. V. Lawler,  D. Lefrancois,  
 S. Lehtola,  Rain Li,  Yi-Pei Li,  Jiashu Liang,  M. Liebenthal,  
 Hung-Hsuan Lin,  You-Sheng Lin,  Fenglai Liu,  Kuan-Yu Liu,  
 M. Loipersberger,  A. Luenser,  A. Manjanath,  P. Manohar,  E. Mansoor,  
 S. F. Manzer,  Shan-Ping Mao,  A. V. Marenich,  T. Markovich,  S. Mason,  
 S. A. Maurer,  P. F. McLaughlin,  M. F. S. J. Menger,  J.-M. Mewes,  
 S. A. Mewes,  P. Morgante,  J. W. Mullinax,  T. S. Nguyen-Beck,  
 K. J. Oosterbaan,  G. Paran,  Alexander C. Paul,  Suranjan K. Paul,  
 F. Pavosevic,  Zheng Pei,  S. Prager,  E. I. Proynov,  E. Ramos,  B. Rana,  
 A. E. Rask,  A. Rettig,  R. M. Richard,  F. Rob,  E. Rossomme,  T. Scheele,  
 M. Scheurer,  M. Schneider,  N. Sergueev,  S. M. Sharada,  W. Skomorowski,  
 D. W. Small,  C. J. Stein,  Yu-Chuan Su,  E. J. Sundstrom,  Zhen Tao,  
 J. Thirman,  T. Tsuchimochi,  N. M. Tubman,  S. P. Veccham,  O. Vydrov,  
 J. Wenzel,  J. Witte,  A. Yamada,  Kun Yao,  S. Yeganeh,  S. R. Yost,  
 A. Zech,  Igor Ying Zhang,  Xing Zhang,  Yu Zhang,  D. Zuev,  
 A. Aspuru-Guzik,  A. T. Bell,  N. A. Besley,  K. B. Bravaya,  B. R. Brooks,  
 D. Casanova,  Jeng-Da Chai,  S. Coriani,  C. J. Cramer,  
 A. E. DePrince, III,  R. A. DiStasio Jr.,  A. Dreuw,  B. D. Dunietz,  
 T. R. Furlani,  W. A. Goddard III,  S. Grimme,  S. Hammes-Schiffer,  
 T. Head-Gordon,  W. J. Hehre,  Chao-Ping Hsu,  T.-C. Jagau,  Yousung Jung,  
 A. Klamt,  Jing Kong,  D. S. Lambrecht,  WanZhen Liang,  N. J. Mayhall,  
 C. W. McCurdy,  J. B. Neaton,  C. Ochsenfeld,  J. A. Parkhill,  R. Peverati,  
 V. A. Rassolov,  Yihan Shao,  L. V. Slipchenko,  T. Stauch,  R. P. Steele,  
 J. E. Subotnik,  A. J. W. Thom,  A. Tkatchenko,  D. G. Truhlar,  
 T. Van Voorhis,  T. A. Wesolowski,  K. B. Whaley,  H. L. Woodcock III,  
 P. M. Zimmerman,  S. Faraji,  P. M. W. Gill,  M. Head-Gordon,  
 J. M. Herbert,  A. I. Krylov

 Contributors to earlier versions of Q-Chem not listed above: 
 R. D. Adamson,  B. Austin,  R. Baer,  J. Baker,  G. J. O. Beran,  
 K. Brandhorst,  S. T. Brown,  E. F. C. Byrd,  A. K. Chakraborty,  
 G. K. L. Chan,  Chun-Min Chang,  Yunqing Chen,  C.-L. Cheng,  
 Siu Hung Chien,  D. M. Chipman,  D. L. Crittenden,  H. Dachsel,  
 R. J. Doerksen,  A. D. Dutoi,  R. G. Edgar,  J. Fosso-Tande,  
 L. Fusti-Molnar,  D. Ghosh,  A. Ghysels,  A. Golubeva-Zadorozhnaya,  
 J. Gonthier,  M. S. Gordon,  S. R. Gwaltney,  G. Hawkins,  J. E. Herr,  
 A. Heyden,  S. Hirata,  E. G. Hohenstein,  G. Kedziora,  F. J. Keil,  
 C. Kelley,  Jihan Kim,  R. A. King,  R. Z. Khaliullin,  P. P. Korambath,  
 W. Kurlancheek,  A. Laurent,  A. M. Lee,  M. S. Lee,  S. V. Levchenko,  
 Ching Yeh Lin,  D. Liotard,  E. Livshits,  R. C. Lochan,  I. Lotan,  
 L. A. Martinez-Martinez,  P. E. Maslen,  N. Nair,  D. P. O'Neill,  
 D. Neuhauser,  E. Neuscamman,  C. M. Oana,  R. Olivares-Amaya,  R. Olson,  
 T. M. Perrine,  B. Peters,  P. A. Pieniazek,  A. Prociuk,  Y. M. Rhee,  
 J. Ritchie,  M. A. Rohrdanz,  E. Rosta,  N. J. Russ,  H. F. Schaefer III,  
 M. W. Schmidt,  N. E. Schultz,  S. Sharma,  N. Shenvi,  C. D. Sherrill,  
 A. C. Simmonett,  A. Sodt,  T. Stein,  D. Stuck,  K. S. Thanthiriwatte,  
 V. Vanovschi,  L. Vogt,  Tao Wang,  A. Warshel,  M. A. Watson,  
 C. F. Williams,  Q. Wu,  X. Xu,  Jun Yang,  W. Zhang,  Yan Zhao

 Please cite Q-Chem as follows:
 Y. Shao et al., Mol. Phys. 113, 184-215 (2015)
 DOI: 10.1080/00268976.2014.952696

 Q-Chem 5.4.0 for Intel X86 EM64T Linux

 Parts of Q-Chem use Armadillo 9.800.1 (Horizon Scraper).
 http://arma.sourceforge.net/

 Q-Chem begins on Sun Sep 24 17:29:53 2023  

 Host: 
0

     Scratch files written to ./qchem2342064//
 May1621 |scratch|qcdevops|jenkins|workspace|build_RNUM    
 Parallel job on  1  processors
 Processing $rem in /cm/shared/apps/spack/cpu/opt/spack/linux-centos8-zen2/gcc-10.2.0/qchem-5.4-akfmr7b3t57bfs6qan3padb2wnb2i7cl/config/preferences:
 Processing $rem in /home/rramji/.qchemrc:
 Symmetry turned off for PCM/SM12/SMD calculation
 Core orbitals will be frozen

 Checking the input file for inconsistencies... 	...done.

 Q-Chem warning in module forms1/BasisType.C, line 2236:

 You are not using the predefined 5D/6D in this basis set.


--------------------------------------------------------------
User input:
--------------------------------------------------------------
$molecule
0 1
C	-0.223244	-6.741404	-0.127184
C	-1.354118	-6.155638	-0.779949
C	0.715408	-5.791452	0.415271
C	-1.595259	-4.803786	-0.919437
H	-2.114613	-6.821518	-1.218801
C	0.463133	-4.378638	0.268806
C	-0.688925	-3.838032	-0.396744
C	1.368449	-3.413062	0.790835
C	-0.939189	-2.426473	-0.542026
C	1.130363	-2.059348	0.652669
C	0.000000	-1.478216	0.000000
H	1.891815	-1.394783	1.091814
C	1.963749	-6.187987	1.138124
C	2.607351	-3.798164	1.506241
N	2.817348	-5.170003	1.629443
C	-2.837621	-4.424987	-1.636646
C	-2.188982	-2.036627	-1.264474
N	-3.042637	-3.049156	-1.756205
O	2.301222	-7.353131	1.336258
O	3.407386	-2.986854	1.967056
O	-3.628041	-5.248946	-2.092167
O	-2.545844	-0.878829	-1.472160
C	4.040164	-5.563799	2.336642
H	4.078749	-6.664085	2.360245
H	4.027880	-5.147101	3.361968
H	4.922811	-5.148785	1.813424
C	-4.247167	-2.587487	-2.452149
H	-4.804209	-3.483329	-2.772531
H	-3.965991	-1.964972	-3.322697
H	-4.859678	-1.962932	-1.774507
C	0.000000	0.000000	0.000000
S	0.396411	0.687007	1.580530
C	1.215245	2.105322	0.904911
C	0.498850	0.864369	-0.985400
C	1.158885	2.007781	-0.493528
H	0.381046	0.660280	-2.059934
H	1.599289	2.770727	-1.152593
H	1.655514	2.868056	1.556025
H	0.318588	-7.361589	-0.851574
H	-0.580522	-7.361192	0.704181
H	0.540459	-1.478831	-0.935042
$end

$rem
JOBTYPE		SP
EXCHANGE	HF
CORRELATION	pRIMP2
BASIS		cc-pvtz
METHOD		rimp2
AUX_BASIS	rimp2-cc-pvtz
SOLVENT_METHOD	PCM
PURECART	11111
SYMMETRY	false
MEM_TOTAL	110000
SCF_CONVERGENCE = 6
THRESH=10
GUI = 2
$end



$solvent
dielectric 4.90
$end
--------------------------------------------------------------
 ----------------------------------------------------------------
             Standard Nuclear Orientation (Angstroms)
    I     Atom           X                Y                Z
 ----------------------------------------------------------------
    1      C      -0.2232440000    -6.7414040000    -0.1271840000
    2      C      -1.3541180000    -6.1556380000    -0.7799490000
    3      C       0.7154080000    -5.7914520000     0.4152710000
    4      C      -1.5952590000    -4.8037860000    -0.9194370000
    5      H      -2.1146130000    -6.8215180000    -1.2188010000
    6      C       0.4631330000    -4.3786380000     0.2688060000
    7      C      -0.6889250000    -3.8380320000    -0.3967440000
    8      C       1.3684490000    -3.4130620000     0.7908350000
    9      C      -0.9391890000    -2.4264730000    -0.5420260000
   10      C       1.1303630000    -2.0593480000     0.6526690000
   11      C       0.0000000000    -1.4782160000     0.0000000000
   12      H       1.8918150000    -1.3947830000     1.0918140000
   13      C       1.9637490000    -6.1879870000     1.1381240000
   14      C       2.6073510000    -3.7981640000     1.5062410000
   15      N       2.8173480000    -5.1700030000     1.6294430000
   16      C      -2.8376210000    -4.4249870000    -1.6366460000
   17      C      -2.1889820000    -2.0366270000    -1.2644740000
   18      N      -3.0426370000    -3.0491560000    -1.7562050000
   19      O       2.3012220000    -7.3531310000     1.3362580000
   20      O       3.4073860000    -2.9868540000     1.9670560000
   21      O      -3.6280410000    -5.2489460000    -2.0921670000
   22      O      -2.5458440000    -0.8788290000    -1.4721600000
   23      C       4.0401640000    -5.5637990000     2.3366420000
   24      H       4.0787490000    -6.6640850000     2.3602450000
   25      H       4.0278800000    -5.1471010000     3.3619680000
   26      H       4.9228110000    -5.1487850000     1.8134240000
   27      C      -4.2471670000    -2.5874870000    -2.4521490000
   28      H      -4.8042090000    -3.4833290000    -2.7725310000
   29      H      -3.9659910000    -1.9649720000    -3.3226970000
   30      H      -4.8596780000    -1.9629320000    -1.7745070000
   31      C       0.0000000000     0.0000000000     0.0000000000
   32      S       0.3964110000     0.6870070000     1.5805300000
   33      C       1.2152450000     2.1053220000     0.9049110000
   34      C       0.4988500000     0.8643690000    -0.9854000000
   35      C       1.1588850000     2.0077810000    -0.4935280000
   36      H       0.3810460000     0.6602800000    -2.0599340000
   37      H       1.5992890000     2.7707270000    -1.1525930000
   38      H       1.6555140000     2.8680560000     1.5560250000
   39      H       0.3185880000    -7.3615890000    -0.8515740000
   40      H      -0.5805220000    -7.3611920000     0.7041810000
   41      H       0.5404590000    -1.4788310000    -0.9350420000
 ----------------------------------------------------------------
 Nuclear Repulsion Energy =        2553.83667255 hartrees
 There are       98 alpha and       98 beta electrons
 Requested basis set is cc-pVTZ
 There are 356 shells and 1010 basis functions

 Total QAlloc Memory Limit 110000 MB
 Mega-Array Size       188 MB
 MEM_STATIC part       192 MB
 Discretize the solute cavity surface with Lebedev spheres
	Using 110 Lebedev grid points for each H atom
	Using 194 Lebedev grid points for other atoms
	Atomic van der Waals radii will be scaled by 1.20
 Remove points where switching function is < 1.0e-08
 Keep 2604 surface tesserae and discard 4174 interior tesserae
 Molecular Surface Area = 371.084 Angst**2
 Requested basis set is rimp2-cc-pVTZ
 There are 770 shells and 2648 basis functions
 A cutoff of  1.0D-10 yielded  34106 shell pairs
 There are    257884 function pairs (    333784 Cartesian)
 Smallest overlap matrix eigenvalue = 8.79E-06

 Q-Chem warning in module stvman/mkSTV.C, line 323:

 Overlap eigenvalue is smaller than square root of threshold
 Use THRESH >= 12 to get rid of this warning


 Scale SEOQF with 1.000000e-01/1.000000e-02/1.000000e-01

 Standard Electronic Orientation quadrupole field applied
 Nucleus-field energy     =     0.0000000170 hartrees
 Guess from superposition of atomic densities
 Warning:  Energy on first SCF cycle will be non-variational
 SAD guess density has 196.000000 electrons

 -----------------------------------------------------------------------
  General SCF calculation program by
  Eric Jon Sundstrom, Paul Horn, Yuezhi Mao, Dmitri Zuev, Alec White,
  David Stuck, Shaama M.S., Shane Yost, Joonho Lee, David Small,
  Daniel Levine, Susi Lehtola, Hugh Burton, Evgeny Epifanovsky,
  Bang C. Huynh
 -----------------------------------------------------------------------
 Hartree-Fock
 using 64 threads for integral computing
 -------------------------------------------------------
 OpenMP Integral computing Module                
 Release: version 1.0, May 2013, Q-Chem Inc. Pittsburgh 
 -------------------------------------------------------
 A restricted SCF calculation will be
 performed using DIIS
 SCF converges when DIIS error is below 1.0e-06
 ---------------------------------------
  Cycle       Energy         DIIS error
 ---------------------------------------
    1   -1583.1350033995      1.86e-02  
    2   -1571.1568800311      2.03e-03  
    3   -1571.4959826392      1.54e-03  
    4   -1571.7157946348      2.52e-04  
    5   -1571.7295807147      7.75e-05  
    6   -1571.7309899734      2.99e-05  
    7   -1571.7314102047      1.53e-05  
    8   -1571.7315239025      6.24e-06  
    9   -1571.7315434392      2.85e-06  
   10   -1571.7315472912      1.22e-06  
   11   -1571.7315484535      5.62e-07  Convergence criterion met
 ---------------------------------------
 SCF time:   CPU 6820.22s  wall 256.00s 

************** Final PCM Free Energy Summary **************
 G_electrostatic  =      -0.03109297 hartree =     -19.51113521 kcal/mol
 G_cavitation     =       0.00000000 hartree =       0.00000000 kcal/mol
 G_dispersion     =       0.00000000 hartree =       0.00000000 kcal/mol
 G_repulsion      =       0.00000000 hartree =       0.00000000 kcal/mol
 --------------------------------------------------
 Non-electrostatic Free Energy =       0.00000000 hartree =       0.00000000 kcal/mol
 Total                         =      -0.03109297 hartree =     -19.51113521 kcal/mol
 --------------------------------------------------
 SCF Energy (H0 + V/2)                       =   -1571.73154845 
 Solute Internal Energy (H0)                 =   -1571.70045548 
 Total Free Energy (H0 + V/2 + non-elec)     =   -1571.73154845 hartree
                                             = -986276.43252409 kcal/mol
***********************************************************

 SCF   energy in the final basis set =    -1571.7315484535
 Total energy in the final basis set =    -1571.7315484535


 --------------------------------------------------------------
  Generalized many-body perturbation theory program
  by Joonho Lee, Fazle Rob, Xintian Feng, Evgeny Epifanovsky

 No regularization used 
 (reg. param. = 0.0000e+00)
  (P|Q)^-1/2 Time:  CPU 116.37 s  wall 1.93 s

 In RI-MP2 calculation: 
 # of frozen core orbitals: 31

 Components of the RIMP2 correlation energy:
        aaaa    correlation energy =        -0.6157871628 a.u.
        abab    correlation energy =        -3.4276303748 a.u.
        bbbb    correlation energy =        -0.6157871628 a.u.
        non-Brillouin singles      =        -0.0000000000 a.u.
        total same-spin energy     =        -1.2315743256 a.u.
        total opposite-spin energy =        -3.4276303748 a.u.

 Total  RIMP2   correlation energy =        -4.6592047004 a.u.
        RIMP2         total energy =     -1576.3907531540 a.u.

 RI-MP2 Energy Time:  CPU 1986.69 s  wall 32.65 s
 
 --------------------------------------------------------------
 
                    Orbital Energies (a.u.)
 --------------------------------------------------------------
 
 Alpha MOs
 -- Occupied --
-91.9902 -20.5529 -20.5442 -20.5410 -20.5402 -15.6269 -15.6208 -11.3935
-11.3848 -11.3828 -11.3788 -11.3075 -11.3063 -11.3039 -11.3036 -11.2953
-11.2951 -11.2884 -11.2851 -11.2677 -11.2672 -11.2643 -11.2628 -11.2592
-11.2579 -11.2525 -11.2519  -8.9901  -6.6709  -6.6704  -6.6699  -1.4196
 -1.4117  -1.3971  -1.3909  -1.2619  -1.2550  -1.2304  -1.1888  -1.1523
 -1.1134  -1.0855  -1.0461  -0.9966  -0.9882  -0.9872  -0.9549  -0.9497
 -0.8963  -0.8872  -0.8758  -0.8587  -0.7954  -0.7782  -0.7702  -0.7622
 -0.7414  -0.7170  -0.7034  -0.6917  -0.6822  -0.6713  -0.6662  -0.6569
 -0.6465  -0.6439  -0.6356  -0.6327  -0.6302  -0.6271  -0.6217  -0.6043
 -0.5853  -0.5758  -0.5681  -0.5612  -0.5561  -0.5510  -0.5506  -0.5489
 -0.5473  -0.5432  -0.5199  -0.5121  -0.5075  -0.4842  -0.4756  -0.4655
 -0.4578  -0.4510  -0.4424  -0.4340  -0.4133  -0.4070  -0.3584  -0.3487
 -0.3306  -0.2851
 -- Virtual --
  0.0155   0.0431   0.0795   0.0914   0.1379   0.1502   0.1534   0.1597
  0.1640   0.1712   0.1783   0.1842   0.1859   0.1920   0.2013   0.2051
  0.2070   0.2211   0.2251   0.2263   0.2291   0.2308   0.2327   0.2373
  0.2652   0.2691   0.2963   0.3036   0.3115   0.3192   0.3223   0.3252
  0.3283   0.3374   0.3437   0.3470   0.3534   0.3565   0.3642   0.3679
  0.3725   0.3747   0.3823   0.3869   0.3884   0.3952   0.4008   0.4047
  0.4145   0.4207   0.4266   0.4351   0.4375   0.4434   0.4459   0.4475
  0.4535   0.4557   0.4618   0.4633   0.4721   0.4824   0.4872   0.4909
  0.4944   0.5005   0.5039   0.5130   0.5149   0.5192   0.5266   0.5275
  0.5306   0.5371   0.5449   0.5507   0.5529   0.5572   0.5629   0.5678
  0.5716   0.5750   0.5773   0.5801   0.5876   0.5908   0.5947   0.5994
  0.6030   0.6053   0.6072   0.6087   0.6113   0.6159   0.6241   0.6254
  0.6296   0.6314   0.6348   0.6368   0.6433   0.6446   0.6469   0.6503
  0.6528   0.6615   0.6665   0.6788   0.6805   0.6921   0.6962   0.6990
  0.7033   0.7160   0.7180   0.7274   0.7319   0.7366   0.7454   0.7573
  0.7619   0.7691   0.7704   0.7744   0.7812   0.7850   0.7863   0.7918
  0.8029   0.8053   0.8164   0.8225   0.8328   0.8418   0.8420   0.8496
  0.8521   0.8551   0.8604   0.8626   0.8680   0.8717   0.8803   0.8836
  0.8894   0.8983   0.9066   0.9085   0.9125   0.9233   0.9259   0.9290
  0.9326   0.9392   0.9431   0.9502   0.9556   0.9584   0.9680   0.9743
  0.9772   0.9808   0.9954   0.9977   1.0035   1.0047   1.0096   1.0148
  1.0254   1.0285   1.0365   1.0397   1.0506   1.0576   1.0595   1.0616
  1.0673   1.0682   1.0727   1.0837   1.0853   1.0884   1.0900   1.1018
  1.1114   1.1192   1.1246   1.1256   1.1323   1.1380   1.1401   1.1425
  1.1494   1.1543   1.1606   1.1667   1.1693   1.1748   1.1766   1.1825
  1.1904   1.1922   1.1974   1.2041   1.2094   1.2134   1.2161   1.2303
  1.2330   1.2341   1.2426   1.2469   1.2556   1.2590   1.2638   1.2706
  1.2815   1.2878   1.2897   1.3076   1.3149   1.3235   1.3288   1.3400
  1.3471   1.3520   1.3595   1.3640   1.3715   1.3728   1.3830   1.3880
  1.3900   1.3927   1.3988   1.4023   1.4207   1.4277   1.4328   1.4436
  1.4464   1.4533   1.4631   1.4693   1.4795   1.4838   1.4943   1.4955
  1.4973   1.5114   1.5137   1.5196   1.5216   1.5240   1.5340   1.5410
  1.5451   1.5506   1.5516   1.5561   1.5620   1.5643   1.5699   1.5736
  1.5807   1.5905   1.5919   1.6107   1.6159   1.6248   1.6345   1.6363
  1.6508   1.6553   1.6614   1.6734   1.6835   1.6897   1.6915   1.6999
  1.7011   1.7101   1.7165   1.7186   1.7315   1.7404   1.7470   1.7532
  1.7641   1.7683   1.7755   1.7823   1.7849   1.7944   1.8046   1.8055
  1.8172   1.8237   1.8344   1.8472   1.8487   1.8591   1.8690   1.8703
  1.8740   1.8850   1.8858   1.8948   1.9150   1.9237   1.9324   1.9439
  1.9498   1.9591   1.9662   1.9804   1.9866   2.0021   2.0106   2.0196
  2.0342   2.0378   2.0509   2.0523   2.0854   2.0983   2.1124   2.1143
  2.1327   2.1433   2.1466   2.1585   2.1836   2.2006   2.2074   2.2179
  2.2305   2.2331   2.2404   2.2638   2.2877   2.2928   2.3006   2.3088
  2.3112   2.3268   2.3334   2.3371   2.3496   2.3594   2.3673   2.3784
  2.3890   2.4151   2.4283   2.4393   2.4421   2.4584   2.4591   2.4686
  2.4721   2.4745   2.4834   2.5061   2.5139   2.5193   2.5336   2.5542
  2.5624   2.5667   2.5820   2.5879   2.5948   2.6027   2.6129   2.6145
  2.6215   2.6352   2.6364   2.6433   2.6476   2.6640   2.6776   2.6792
  2.6839   2.6912   2.6963   2.7106   2.7153   2.7215   2.7249   2.7393
  2.7449   2.7522   2.7566   2.7673   2.7731   2.7770   2.7884   2.8114
  2.8190   2.8274   2.8390   2.8395   2.8467   2.8556   2.8587   2.8696
  2.8723   2.8814   2.8865   2.8894   2.8942   2.8976   2.9095   2.9126
  2.9195   2.9245   2.9293   2.9380   2.9530   2.9567   2.9609   2.9720
  2.9835   2.9861   2.9907   3.0051   3.0070   3.0111   3.0167   3.0235
  3.0308   3.0402   3.0435   3.0535   3.0632   3.0721   3.0804   3.0894
  3.0931   3.0973   3.1027   3.1064   3.1080   3.1102   3.1178   3.1254
  3.1344   3.1410   3.1449   3.1512   3.1575   3.1669   3.1693   3.1735
  3.1796   3.1929   3.1948   3.1958   3.2054   3.2122   3.2189   3.2235
  3.2316   3.2366   3.2406   3.2428   3.2453   3.2551   3.2612   3.2633
  3.2692   3.2727   3.2804   3.2840   3.2981   3.2998   3.3059   3.3096
  3.3130   3.3172   3.3209   3.3249   3.3291   3.3325   3.3384   3.3409
  3.3443   3.3500   3.3518   3.3538   3.3637   3.3667   3.3703   3.3769
  3.3804   3.3857   3.3877   3.3916   3.3942   3.3983   3.4019   3.4147
  3.4166   3.4235   3.4260   3.4279   3.4348   3.4391   3.4433   3.4482
  3.4545   3.4589   3.4636   3.4675   3.4697   3.4790   3.4832   3.4848
  3.4933   3.5034   3.5089   3.5118   3.5164   3.5181   3.5208   3.5309
  3.5318   3.5354   3.5432   3.5507   3.5546   3.5569   3.5766   3.5829
  3.5883   3.5943   3.5986   3.5996   3.6076   3.6145   3.6238   3.6279
  3.6283   3.6325   3.6355   3.6380   3.6419   3.6453   3.6494   3.6600
  3.6635   3.6731   3.6845   3.6889   3.6952   3.7034   3.7063   3.7154
  3.7239   3.7291   3.7372   3.7413   3.7443   3.7474   3.7502   3.7542
  3.7576   3.7668   3.7725   3.7794   3.7859   3.7928   3.7973   3.8014
  3.8066   3.8133   3.8190   3.8200   3.8242   3.8389   3.8412   3.8455
  3.8557   3.8579   3.8592   3.8692   3.8735   3.8843   3.8927   3.9020
  3.9124   3.9179   3.9256   3.9327   3.9362   3.9465   3.9489   3.9595
  3.9606   3.9635   3.9652   3.9729   3.9803   3.9847   4.0004   4.0129
  4.0136   4.0278   4.0305   4.0363   4.0420   4.0564   4.0616   4.0653
  4.0848   4.0936   4.1121   4.1175   4.1260   4.1284   4.1370   4.1420
  4.1462   4.1601   4.1627   4.1718   4.1779   4.1788   4.1898   4.2046
  4.2084   4.2235   4.2337   4.2400   4.2421   4.2483   4.2599   4.2636
  4.2674   4.2754   4.2854   4.2872   4.2930   4.2966   4.3006   4.3085
  4.3112   4.3213   4.3260   4.3288   4.3367   4.3446   4.3473   4.3520
  4.3544   4.3653   4.3684   4.3714   4.3772   4.3818   4.3905   4.3955
  4.3996   4.4078   4.4115   4.4249   4.4291   4.4345   4.4483   4.4601
  4.4695   4.4733   4.4807   4.4944   4.4996   4.5153   4.5186   4.5265
  4.5367   4.5413   4.5472   4.5582   4.5621   4.5744   4.5796   4.5856
  4.5926   4.5979   4.6046   4.6108   4.6130   4.6221   4.6318   4.6491
  4.6566   4.6609   4.6633   4.6768   4.6873   4.6991   4.7065   4.7107
  4.7217   4.7314   4.7416   4.7502   4.7760   4.7812   4.7878   4.7933
  4.8145   4.8302   4.8370   4.8425   4.8504   4.8581   4.8752   4.8822
  4.8852   4.8943   4.9126   4.9238   4.9347   4.9446   4.9530   4.9729
  4.9952   5.0033   5.0157   5.0225   5.0303   5.0326   5.0506   5.0633
  5.0663   5.0972   5.1185   5.1198   5.1219   5.1247   5.1325   5.1435
  5.1453   5.1595   5.1668   5.1729   5.1937   5.2016   5.2032   5.2240
  5.2560   5.2633   5.2697   5.2830   5.2921   5.3127   5.3227   5.3287
  5.3313   5.3401   5.3473   5.3648   5.3792   5.3910   5.4030   5.4153
  5.4260   5.4461   5.4726   5.4890   5.4930   5.5050   5.5129   5.5146
  5.5176   5.5258   5.5397   5.5509   5.5570   5.5619   5.5671   5.5738
  5.5809   5.5865   5.5876   5.6060   5.6134   5.6139   5.6219   5.6280
  5.6445   5.6506   5.6607   5.6619   5.6669   5.6723   5.6929   5.6949
  5.7026   5.7051   5.7226   5.7367   5.7446   5.7579   5.7695   5.7764
  5.7840   5.7871   5.8186   5.8323   5.8460   5.8599   5.8922   5.9074
  5.9350   5.9580   5.9723   5.9876   6.0010   6.0189   6.0310   6.0410
  6.0425   6.0493   6.0921   6.1117   6.1232   6.1413   6.1465   6.1839
  6.1955   6.2193   6.2213   6.2258   6.2421   6.2550   6.2652   6.2842
  6.3084   6.3100   6.3243   6.3483   6.3660   6.3836   6.4047   6.4835
  6.5195   6.5319   6.5743   6.5832   6.6041   6.6115   6.6172   6.6592
  6.6698   6.6749   6.8434   6.8501   6.8887   6.9017   6.9049   6.9212
  6.9269   6.9312   7.1016   7.1086   7.1475   7.1919   7.1984   7.2349
  7.3473   7.3520   7.3557   7.3600   7.4752   7.5410   7.5701   7.5820
  7.5853   7.5957   7.6542   7.6748   7.6914   7.7124   8.8121   9.9811
 10.3180  11.3191  11.4869  11.7627  12.0059  12.1090  12.4112  12.4615
 12.9508  13.1997  13.3379  13.5608  13.7496  13.9233  14.1050  14.2792
 14.3093  14.3606  14.4702  14.5911  14.9839  15.6122  15.7902  16.3238
 --------------------------------------------------------------
 
          Ground-State Mulliken Net Atomic Charges

     Atom                 Charge (a.u.)
  ----------------------------------------
      1 C                    -0.084708
      2 C                    -0.033380
      3 C                    -0.112624
      4 C                    -0.120446
      5 H                     0.198187
      6 C                     0.020013
      7 C                     0.114382
      8 C                    -0.091504
      9 C                    -0.174317
     10 C                    -0.127184
     11 C                     0.160609
     12 H                     0.200864
     13 C                     0.342580
     14 C                     0.345451
     15 N                    -0.089721
     16 C                     0.357108
     17 C                     0.348700
     18 N                    -0.091454
     19 O                    -0.495349
     20 O                    -0.507452
     21 O                    -0.501614
     22 O                    -0.472975
     23 C                    -0.205006
     24 H                     0.139414
     25 H                     0.109220
     26 H                     0.108794
     27 C                    -0.197507
     28 H                     0.133300
     29 H                     0.110766
     30 H                     0.112194
     31 C                     0.020085
     32 S                     0.006882
     33 C                    -0.202741
     34 C                    -0.184182
     35 C                    -0.207177
     36 H                     0.184621
     37 H                     0.193087
     38 H                     0.211332
     39 H                     0.136736
     40 H                     0.136954
     41 H                     0.208063
  ----------------------------------------
  Sum of atomic charges =     0.000000

 -----------------------------------------------------------------
                    Cartesian Multipole Moments
 -----------------------------------------------------------------
    Charge (ESU x 10^10)
                 0.0000
    Dipole Moment (Debye)
         X       0.7497      Y       2.3524      Z      -2.1420
       Tot       3.2686
    Quadrupole Moments (Debye-Ang)
        XX    -185.0042     XY      11.8877     YY    -182.0035
        XZ     -14.2016     YZ       6.1120     ZZ    -164.3914
    Octopole Moments (Debye-Ang^2)
       XXX     -29.9633    XXY     577.3119    XYY     -46.7337
       YYY    1706.3122    XXZ      -6.5291    XYZ      63.7311
       YYZ     -35.7860    XZZ      -3.4222    YZZ     510.8020
       ZZZ     -30.5388
    Hexadecapole Moments (Debye-Ang^3)
      XXXX   -4883.7180   XXXY       2.9592   XXYY   -4010.1504
      XYYY     946.7774   YYYY  -18076.3080   XXXZ   -1408.4070
      XXYZ     -71.4486   XYYZ    -805.0067   YYYZ     563.4397
      XXZZ   -1168.5526   XYZZ      14.5895   YYZZ   -3105.2713
      XZZZ   -1312.0440   YZZZ     110.7639   ZZZZ   -1930.0804
 -----------------------------------------------------------------
 Total job time:  406.63s(wall), 8911.65s(cpu) 
 Sun Sep 24 17:36:39 2023

        *************************************************************
        *                                                           *
        *  Thank you very much for using Q-Chem.  Have a nice day.  *
        *                                                           *
        *************************************************************


0 sent ACK to 0 
now end server 0 ... 
cleanup process ... done
remove work dirs ./qchem2342064.0 -- ./qchem2342064.0
rm -rf ./qchem2342064.0
rm -rf ./qchem2342064
