You are running Q-Chem version: 5.4.0

#
# job setting
#
local host:  exp-3-02
current dir: /expanse/lustre/projects/csd626/rramji/aromodel/PNDIT/Hydrogenated_Rotation_Test
input file:  Dimethyl_Naphthalene_Dicarboximide_Phi_40_Theta_220_Thiophene_Hydrogenated.qcin
output file: 
nprocs     : 1
nthreads   : 64
#
# qchem installation setting
#
QC:          /cm/shared/apps/spack/cpu/opt/spack/linux-centos8-zen2/gcc-10.2.0/qchem-5.4-akfmr7b3t57bfs6qan3padb2wnb2i7cl
QCAUX:       /cm/shared/apps/spack/cpu/opt/spack/linux-centos8-zen2/gcc-10.2.0/qchem-5.4-akfmr7b3t57bfs6qan3padb2wnb2i7cl/qcaux
QCPROG:      /cm/shared/apps/spack/cpu/opt/spack/linux-centos8-zen2/gcc-10.2.0/qchem-5.4-akfmr7b3t57bfs6qan3padb2wnb2i7cl/exe/qcprog.exe
QCPROG_S:    /cm/shared/apps/spack/cpu/opt/spack/linux-centos8-zen2/gcc-10.2.0/qchem-5.4-akfmr7b3t57bfs6qan3padb2wnb2i7cl/exe/qcprog.exe_s
PARALLEL:    -DPARALLEL
QCMPI:       mpich
#
# qchem directory setting
#
qcrun:       qchem1083541
QCSCRATCH:   .
QCLOCALSCR:  
QCTMPDIR:    .
QCFILEPREF:  ./qchem1083541
QCSAVEDIR:   
workdirs:    ./qchem1083541
workdir0:    ./qchem1083541
partmpdirs =  
#
# parallel setting
#
QCRSH:           ssh
QCMPI:           mpich
QCMPIRUN:        /cm/shared/apps/spack/cpu/opt/spack/linux-centos8-zen2/gcc-10.2.0/qchem-5.4-akfmr7b3t57bfs6qan3padb2wnb2i7cl/bin/mpi/mpirun_qchem
QCMACHINEFILE:   ./qchem1083541/hostfile
exp-3-02

#
# env setting
#
exported envs:   QC QCAUX QCSCRATCH QCRUNNAME QCFILEPREF QCPROG QCPROG_S GUIFILE

Running Job 1 of 1 Dimethyl_Naphthalene_Dicarboximide_Phi_40_Theta_220_Thiophene_Hydrogenated.qcin
qchem Dimethyl_Naphthalene_Dicarboximide_Phi_40_Theta_220_Thiophene_Hydrogenated.qcin_1083541.0 ./qchem1083541/ 1
/cm/shared/apps/spack/cpu/opt/spack/linux-centos8-zen2/gcc-10.2.0/qchem-5.4-akfmr7b3t57bfs6qan3padb2wnb2i7cl/bin/mpi/mpirun_qchem -machinefile ./qchem1083541/hostfile -np 1 /cm/shared/apps/spack/cpu/opt/spack/linux-centos8-zen2/gcc-10.2.0/qchem-5.4-akfmr7b3t57bfs6qan3padb2wnb2i7cl/exe/qcprog.exe Dimethyl_Naphthalene_Dicarboximide_Phi_40_Theta_220_Thiophene_Hydrogenated.qcin_1083541.0 ./qchem1083541/

Process 0 of 1 is on exp-3-02 - thread support 0
initial socket setup ...start
initial socket setup ...done 
now start server 0 ... 
                  Welcome to Q-Chem
     A Quantum Leap Into The Future Of Chemistry


 Q-Chem 5.4, Q-Chem, Inc., Pleasanton, CA (2021)

 License issued to: University of California, San Diego (site)

 E. Epifanovsky,  A. T. B. Gilbert,  Xintian Feng,  Joonho Lee,  Yuezhi Mao,  
 N. Mardirossian,  P. Pokhilko,  A. White,  M. Wormit,  M. P. Coons,  
 A. L. Dempwolff,  Zhengting Gan,  D. Hait,  P. R. Horn,  L. D. Jacobson,  
 I. Kaliman,  J. Kussmann,  A. W. Lange,  Ka Un Lao,  D. S. Levine,  Jie Liu,  
 S. C. McKenzie,  A. F. Morrison,  K. Nanda,  F. Plasser,  D. R. Rehn,  
 M. L. Vidal,  Zhi-Qiang You,  Ying Zhu,  B. Alam,  B. Albrecht,  
 A. Aldossary,  E. Alguire,  J. H. Andersen,  D. Barton,  K. Begam,  A. Behn,  
 Y. A. Bernard,  E. J. Berquist,  H. Burton,  A. Carreras,  K. Carter-Fenk,  
 R. Chakraborty,  A. D. Chien,  K. D. Closser,  V. Cofer-Shabica,  
 S. Dasgupta,  Jia Deng,  M. de Wergifosse,  M. Diedenhofen,  Hainam Do,  
 S. Ehlert,  Po-Tung Fang,  S. Fatehi,  Qingguo Feng,  J. Gayvert,  
 Qinghui Ge,  G. Gidofalvi,  M. Goldey,  J. Gomes,  C. Gonzalez-Espinoza,  
 S. Gulania,  A. Gunina,  M. W. D. Hanson-Heine,  P. H. P. Harbach,  
 A. W. Hauser,  M. F. Herbst,  M. Hernandez Vera,  M. Hodecker,  
 Z. C. Holden,  S. Houck,  Xunkun Huang,  Kerwin Hui,  B. C. Huynh,  
 M. Ivanov,  Hyunjun Ji,  Hanjie Jiang,  B. Kaduk,  S. Kaehler,  
 K. Khistyaev,  Jaehoon Kim,  P. Klunzinger,  Z. Koczor-Benda,  
 Joong Hoon Koh,  D. Kosenkov,  L. Koulias,  T. Kowalczyk,  C. M. Krauter,  
 K. Kue,  A. Kunitsa,  T. Kus,  A. Landau,  K. V. Lawler,  D. Lefrancois,  
 S. Lehtola,  Rain Li,  Yi-Pei Li,  Jiashu Liang,  M. Liebenthal,  
 Hung-Hsuan Lin,  You-Sheng Lin,  Fenglai Liu,  Kuan-Yu Liu,  
 M. Loipersberger,  A. Luenser,  A. Manjanath,  P. Manohar,  E. Mansoor,  
 S. F. Manzer,  Shan-Ping Mao,  A. V. Marenich,  T. Markovich,  S. Mason,  
 S. A. Maurer,  P. F. McLaughlin,  M. F. S. J. Menger,  J.-M. Mewes,  
 S. A. Mewes,  P. Morgante,  J. W. Mullinax,  T. S. Nguyen-Beck,  
 K. J. Oosterbaan,  G. Paran,  Alexander C. Paul,  Suranjan K. Paul,  
 F. Pavosevic,  Zheng Pei,  S. Prager,  E. I. Proynov,  E. Ramos,  B. Rana,  
 A. E. Rask,  A. Rettig,  R. M. Richard,  F. Rob,  E. Rossomme,  T. Scheele,  
 M. Scheurer,  M. Schneider,  N. Sergueev,  S. M. Sharada,  W. Skomorowski,  
 D. W. Small,  C. J. Stein,  Yu-Chuan Su,  E. J. Sundstrom,  Zhen Tao,  
 J. Thirman,  T. Tsuchimochi,  N. M. Tubman,  S. P. Veccham,  O. Vydrov,  
 J. Wenzel,  J. Witte,  A. Yamada,  Kun Yao,  S. Yeganeh,  S. R. Yost,  
 A. Zech,  Igor Ying Zhang,  Xing Zhang,  Yu Zhang,  D. Zuev,  
 A. Aspuru-Guzik,  A. T. Bell,  N. A. Besley,  K. B. Bravaya,  B. R. Brooks,  
 D. Casanova,  Jeng-Da Chai,  S. Coriani,  C. J. Cramer,  
 A. E. DePrince, III,  R. A. DiStasio Jr.,  A. Dreuw,  B. D. Dunietz,  
 T. R. Furlani,  W. A. Goddard III,  S. Grimme,  S. Hammes-Schiffer,  
 T. Head-Gordon,  W. J. Hehre,  Chao-Ping Hsu,  T.-C. Jagau,  Yousung Jung,  
 A. Klamt,  Jing Kong,  D. S. Lambrecht,  WanZhen Liang,  N. J. Mayhall,  
 C. W. McCurdy,  J. B. Neaton,  C. Ochsenfeld,  J. A. Parkhill,  R. Peverati,  
 V. A. Rassolov,  Yihan Shao,  L. V. Slipchenko,  T. Stauch,  R. P. Steele,  
 J. E. Subotnik,  A. J. W. Thom,  A. Tkatchenko,  D. G. Truhlar,  
 T. Van Voorhis,  T. A. Wesolowski,  K. B. Whaley,  H. L. Woodcock III,  
 P. M. Zimmerman,  S. Faraji,  P. M. W. Gill,  M. Head-Gordon,  
 J. M. Herbert,  A. I. Krylov

 Contributors to earlier versions of Q-Chem not listed above: 
 R. D. Adamson,  B. Austin,  R. Baer,  J. Baker,  G. J. O. Beran,  
 K. Brandhorst,  S. T. Brown,  E. F. C. Byrd,  A. K. Chakraborty,  
 G. K. L. Chan,  Chun-Min Chang,  Yunqing Chen,  C.-L. Cheng,  
 Siu Hung Chien,  D. M. Chipman,  D. L. Crittenden,  H. Dachsel,  
 R. J. Doerksen,  A. D. Dutoi,  R. G. Edgar,  J. Fosso-Tande,  
 L. Fusti-Molnar,  D. Ghosh,  A. Ghysels,  A. Golubeva-Zadorozhnaya,  
 J. Gonthier,  M. S. Gordon,  S. R. Gwaltney,  G. Hawkins,  J. E. Herr,  
 A. Heyden,  S. Hirata,  E. G. Hohenstein,  G. Kedziora,  F. J. Keil,  
 C. Kelley,  Jihan Kim,  R. A. King,  R. Z. Khaliullin,  P. P. Korambath,  
 W. Kurlancheek,  A. Laurent,  A. M. Lee,  M. S. Lee,  S. V. Levchenko,  
 Ching Yeh Lin,  D. Liotard,  E. Livshits,  R. C. Lochan,  I. Lotan,  
 L. A. Martinez-Martinez,  P. E. Maslen,  N. Nair,  D. P. O'Neill,  
 D. Neuhauser,  E. Neuscamman,  C. M. Oana,  R. Olivares-Amaya,  R. Olson,  
 T. M. Perrine,  B. Peters,  P. A. Pieniazek,  A. Prociuk,  Y. M. Rhee,  
 J. Ritchie,  M. A. Rohrdanz,  E. Rosta,  N. J. Russ,  H. F. Schaefer III,  
 M. W. Schmidt,  N. E. Schultz,  S. Sharma,  N. Shenvi,  C. D. Sherrill,  
 A. C. Simmonett,  A. Sodt,  T. Stein,  D. Stuck,  K. S. Thanthiriwatte,  
 V. Vanovschi,  L. Vogt,  Tao Wang,  A. Warshel,  M. A. Watson,  
 C. F. Williams,  Q. Wu,  X. Xu,  Jun Yang,  W. Zhang,  Yan Zhao

 Please cite Q-Chem as follows:
 Y. Shao et al., Mol. Phys. 113, 184-215 (2015)
 DOI: 10.1080/00268976.2014.952696

 Q-Chem 5.4.0 for Intel X86 EM64T Linux

 Parts of Q-Chem use Armadillo 9.800.1 (Horizon Scraper).
 http://arma.sourceforge.net/

 Q-Chem begins on Sun Sep 24 16:56:48 2023  

 Host: 
0

     Scratch files written to ./qchem1083541//
 May1621 |scratch|qcdevops|jenkins|workspace|build_RNUM    
 Parallel job on  1  processors
 Processing $rem in /cm/shared/apps/spack/cpu/opt/spack/linux-centos8-zen2/gcc-10.2.0/qchem-5.4-akfmr7b3t57bfs6qan3padb2wnb2i7cl/config/preferences:
 Processing $rem in /home/rramji/.qchemrc:
 Symmetry turned off for PCM/SM12/SMD calculation
 Core orbitals will be frozen

 Checking the input file for inconsistencies... 	...done.

 Q-Chem warning in module forms1/BasisType.C, line 2236:

 You are not using the predefined 5D/6D in this basis set.


--------------------------------------------------------------
User input:
--------------------------------------------------------------
$molecule
0 1
C	-0.164018	-6.741404	0.197767
C	-1.003240	-6.155638	1.198109
C	0.533192	-5.791452	-0.632428
C	-1.182482	-4.803786	1.411364
H	-1.567483	-6.821518	1.870845
C	0.345145	-4.378638	-0.409419
C	-0.510347	-3.838032	0.609565
C	1.016449	-3.413062	-1.210332
C	-0.696879	-2.426473	0.830799
C	0.839039	-2.059348	-0.999856
C	0.000000	-1.478216	0.000000
H	1.403737	-1.394783	-1.673483
C	1.461835	-6.187987	-1.736282
C	1.936119	-3.798164	-2.306183
N	2.093916	-5.170003	-2.491597
C	-2.104529	-4.424987	2.510310
C	-1.625377	-2.036627	1.936153
N	-2.257873	-3.049156	2.691451
O	1.715561	-7.353131	-2.034222
O	2.528858	-2.986854	-3.014044
O	-2.690385	-5.248946	3.209622
O	-1.891876	-0.878829	2.251529
C	3.002711	-5.563799	-3.573032
H	3.032655	-6.664085	-3.606932
H	4.010326	-5.147101	-3.382888
H	2.640711	-5.148785	-4.533125
C	-3.152408	-2.587487	3.756832
H	-3.564653	-3.483329	4.249778
H	-3.960905	-1.964972	3.328759
H	-2.591422	-1.962932	4.477709
C	0.000000	0.000000	0.000000
S	0.509686	0.607733	1.580530
C	1.562368	1.862312	0.904911
C	0.641367	0.764613	-0.985400
C	1.489926	1.776040	-0.493528
H	0.489914	0.584081	-2.059934
H	2.056124	2.450920	-1.152593
H	2.128395	2.537007	1.556025
H	-0.783314	-7.361589	-0.461623
H	0.592677	-7.361192	0.693983
H	-0.826987	-1.478831	-0.694617
$end

$rem
JOBTYPE		SP
EXCHANGE	HF
CORRELATION	pRIMP2
BASIS		cc-pvtz
METHOD		rimp2
AUX_BASIS	rimp2-cc-pvtz
SOLVENT_METHOD	PCM
PURECART	11111
SYMMETRY	false
MEM_TOTAL	110000
SCF_CONVERGENCE = 6
THRESH=10
GUI = 2
$end



$solvent
dielectric 4.90
$end
--------------------------------------------------------------
 ----------------------------------------------------------------
             Standard Nuclear Orientation (Angstroms)
    I     Atom           X                Y                Z
 ----------------------------------------------------------------
    1      C      -0.1640180000    -6.7414040000     0.1977670000
    2      C      -1.0032400000    -6.1556380000     1.1981090000
    3      C       0.5331920000    -5.7914520000    -0.6324280000
    4      C      -1.1824820000    -4.8037860000     1.4113640000
    5      H      -1.5674830000    -6.8215180000     1.8708450000
    6      C       0.3451450000    -4.3786380000    -0.4094190000
    7      C      -0.5103470000    -3.8380320000     0.6095650000
    8      C       1.0164490000    -3.4130620000    -1.2103320000
    9      C      -0.6968790000    -2.4264730000     0.8307990000
   10      C       0.8390390000    -2.0593480000    -0.9998560000
   11      C       0.0000000000    -1.4782160000     0.0000000000
   12      H       1.4037370000    -1.3947830000    -1.6734830000
   13      C       1.4618350000    -6.1879870000    -1.7362820000
   14      C       1.9361190000    -3.7981640000    -2.3061830000
   15      N       2.0939160000    -5.1700030000    -2.4915970000
   16      C      -2.1045290000    -4.4249870000     2.5103100000
   17      C      -1.6253770000    -2.0366270000     1.9361530000
   18      N      -2.2578730000    -3.0491560000     2.6914510000
   19      O       1.7155610000    -7.3531310000    -2.0342220000
   20      O       2.5288580000    -2.9868540000    -3.0140440000
   21      O      -2.6903850000    -5.2489460000     3.2096220000
   22      O      -1.8918760000    -0.8788290000     2.2515290000
   23      C       3.0027110000    -5.5637990000    -3.5730320000
   24      H       3.0326550000    -6.6640850000    -3.6069320000
   25      H       4.0103260000    -5.1471010000    -3.3828880000
   26      H       2.6407110000    -5.1487850000    -4.5331250000
   27      C      -3.1524080000    -2.5874870000     3.7568320000
   28      H      -3.5646530000    -3.4833290000     4.2497780000
   29      H      -3.9609050000    -1.9649720000     3.3287590000
   30      H      -2.5914220000    -1.9629320000     4.4777090000
   31      C       0.0000000000     0.0000000000     0.0000000000
   32      S       0.5096860000     0.6077330000     1.5805300000
   33      C       1.5623680000     1.8623120000     0.9049110000
   34      C       0.6413670000     0.7646130000    -0.9854000000
   35      C       1.4899260000     1.7760400000    -0.4935280000
   36      H       0.4899140000     0.5840810000    -2.0599340000
   37      H       2.0561240000     2.4509200000    -1.1525930000
   38      H       2.1283950000     2.5370070000     1.5560250000
   39      H      -0.7833140000    -7.3615890000    -0.4616230000
   40      H       0.5926770000    -7.3611920000     0.6939830000
   41      H      -0.8269870000    -1.4788310000    -0.6946170000
 ----------------------------------------------------------------
 Nuclear Repulsion Energy =        2569.45103480 hartrees
 There are       98 alpha and       98 beta electrons
 Requested basis set is cc-pVTZ
 There are 356 shells and 1010 basis functions

 Total QAlloc Memory Limit 110000 MB
 Mega-Array Size       188 MB
 MEM_STATIC part       192 MB
 Discretize the solute cavity surface with Lebedev spheres
	Using 110 Lebedev grid points for each H atom
	Using 194 Lebedev grid points for other atoms
	Atomic van der Waals radii will be scaled by 1.20
 Remove points where switching function is < 1.0e-08
 Keep 2556 surface tesserae and discard 4222 interior tesserae
 Molecular Surface Area = 364.743 Angst**2
 Requested basis set is rimp2-cc-pVTZ
 There are 770 shells and 2648 basis functions
 A cutoff of  1.0D-10 yielded  34408 shell pairs
 There are    260042 function pairs (    336501 Cartesian)
 Smallest overlap matrix eigenvalue = 8.71E-06

 Q-Chem warning in module stvman/mkSTV.C, line 323:

 Overlap eigenvalue is smaller than square root of threshold
 Use THRESH >= 12 to get rid of this warning


 Scale SEOQF with 1.000000e-01/1.000000e-02/1.000000e-01

 Standard Electronic Orientation quadrupole field applied
 Nucleus-field energy     =    -0.0000000428 hartrees
 Guess from superposition of atomic densities
 Warning:  Energy on first SCF cycle will be non-variational
 SAD guess density has 196.000000 electrons

 -----------------------------------------------------------------------
  General SCF calculation program by
  Eric Jon Sundstrom, Paul Horn, Yuezhi Mao, Dmitri Zuev, Alec White,
  David Stuck, Shaama M.S., Shane Yost, Joonho Lee, David Small,
  Daniel Levine, Susi Lehtola, Hugh Burton, Evgeny Epifanovsky,
  Bang C. Huynh
 -----------------------------------------------------------------------
 Hartree-Fock
 using 64 threads for integral computing
 -------------------------------------------------------
 OpenMP Integral computing Module                
 Release: version 1.0, May 2013, Q-Chem Inc. Pittsburgh 
 -------------------------------------------------------
 A restricted SCF calculation will be
 performed using DIIS
 SCF converges when DIIS error is below 1.0e-06
 ---------------------------------------
  Cycle       Energy         DIIS error
 ---------------------------------------
    1   -1583.1604062476      1.87e-02  
    2   -1571.1409478852      2.02e-03  
    3   -1571.4797875392      1.54e-03  
    4   -1571.6983095321      2.53e-04  
    5   -1571.7121760854      7.79e-05  
    6   -1571.7136111206      3.01e-05  
    7   -1571.7140471925      1.55e-05  
    8   -1571.7141671111      6.51e-06  
    9   -1571.7141884011      2.97e-06  
   10   -1571.7141928306      1.26e-06  
   11   -1571.7141941179      5.79e-07  Convergence criterion met
 ---------------------------------------
 SCF time:   CPU 6602.30s  wall 275.00s 

************** Final PCM Free Energy Summary **************
 G_electrostatic  =      -0.03066733 hartree =     -19.24403921 kcal/mol
 G_cavitation     =       0.00000000 hartree =       0.00000000 kcal/mol
 G_dispersion     =       0.00000000 hartree =       0.00000000 kcal/mol
 G_repulsion      =       0.00000000 hartree =       0.00000000 kcal/mol
 --------------------------------------------------
 Non-electrostatic Free Energy =       0.00000000 hartree =       0.00000000 kcal/mol
 Total                         =      -0.03066733 hartree =     -19.24403921 kcal/mol
 --------------------------------------------------
 SCF Energy (H0 + V/2)                       =   -1571.71419412 
 Solute Internal Energy (H0)                 =   -1571.68352679 
 Total Free Energy (H0 + V/2 + non-elec)     =   -1571.71419412 hartree
                                             = -986265.54251411 kcal/mol
***********************************************************

 SCF   energy in the final basis set =    -1571.7141941179
 Total energy in the final basis set =    -1571.7141941179


 --------------------------------------------------------------
  Generalized many-body perturbation theory program
  by Joonho Lee, Fazle Rob, Xintian Feng, Evgeny Epifanovsky

 No regularization used 
 (reg. param. = 0.0000e+00)
  (P|Q)^-1/2 Time:  CPU 243.05 s  wall 4.63 s

 In RI-MP2 calculation: 
 # of frozen core orbitals: 31

 Components of the RIMP2 correlation energy:
        aaaa    correlation energy =        -0.6172405178 a.u.
        abab    correlation energy =        -3.4310760871 a.u.
        bbbb    correlation energy =        -0.6172405178 a.u.
        non-Brillouin singles      =        -0.0000000000 a.u.
        total same-spin energy     =        -1.2344810356 a.u.
        total opposite-spin energy =        -3.4310760871 a.u.

 Total  RIMP2   correlation energy =        -4.6655571227 a.u.
        RIMP2         total energy =     -1576.3797512406 a.u.

 RI-MP2 Energy Time:  CPU 2854.39 s  wall 47.30 s
 
 --------------------------------------------------------------
 
                    Orbital Energies (a.u.)
 --------------------------------------------------------------
 
 Alpha MOs
 -- Occupied --
-91.9839 -20.5538 -20.5444 -20.5402 -20.5398 -15.6274 -15.6206 -11.3947
-11.3851 -11.3821 -11.3784 -11.3081 -11.3072 -11.3052 -11.3038 -11.2962
-11.2876 -11.2865 -11.2864 -11.2677 -11.2665 -11.2629 -11.2626 -11.2624
-11.2592 -11.2518 -11.2510  -8.9839  -6.6645  -6.6638  -6.6634  -1.4212
 -1.4113  -1.3981  -1.3905  -1.2626  -1.2547  -1.2303  -1.1884  -1.1518
 -1.1134  -1.0852  -1.0464  -0.9965  -0.9879  -0.9856  -0.9549  -0.9495
 -0.8962  -0.8877  -0.8764  -0.8591  -0.7922  -0.7772  -0.7723  -0.7648
 -0.7364  -0.7165  -0.7033  -0.6919  -0.6821  -0.6733  -0.6668  -0.6570
 -0.6469  -0.6443  -0.6368  -0.6325  -0.6302  -0.6277  -0.6207  -0.6053
 -0.5863  -0.5743  -0.5701  -0.5620  -0.5581  -0.5514  -0.5506  -0.5472
 -0.5467  -0.5437  -0.5255  -0.5098  -0.5065  -0.4808  -0.4719  -0.4591
 -0.4558  -0.4491  -0.4417  -0.4337  -0.4131  -0.4069  -0.3548  -0.3496
 -0.3321  -0.2798
 -- Virtual --
  0.0135   0.0435   0.0735   0.0926   0.1376   0.1503   0.1562   0.1604
  0.1636   0.1731   0.1773   0.1816   0.1833   0.1876   0.2001   0.2047
  0.2188   0.2205   0.2270   0.2294   0.2302   0.2342   0.2437   0.2489
  0.2671   0.2704   0.3023   0.3048   0.3156   0.3204   0.3242   0.3297
  0.3349   0.3390   0.3431   0.3514   0.3530   0.3613   0.3633   0.3714
  0.3762   0.3768   0.3832   0.3873   0.3919   0.3955   0.4001   0.4101
  0.4127   0.4162   0.4241   0.4300   0.4338   0.4437   0.4452   0.4488
  0.4518   0.4617   0.4639   0.4678   0.4764   0.4853   0.4896   0.4922
  0.4957   0.5029   0.5064   0.5089   0.5131   0.5202   0.5248   0.5251
  0.5317   0.5356   0.5481   0.5517   0.5560   0.5585   0.5669   0.5680
  0.5735   0.5769   0.5805   0.5873   0.5897   0.5905   0.5950   0.6010
  0.6031   0.6072   0.6090   0.6103   0.6131   0.6181   0.6218   0.6243
  0.6248   0.6307   0.6341   0.6361   0.6380   0.6400   0.6508   0.6539
  0.6608   0.6684   0.6748   0.6825   0.6895   0.6900   0.6979   0.7004
  0.7090   0.7190   0.7265   0.7296   0.7365   0.7419   0.7544   0.7641
  0.7670   0.7721   0.7725   0.7752   0.7772   0.7855   0.7917   0.8057
  0.8080   0.8125   0.8148   0.8217   0.8336   0.8409   0.8439   0.8487
  0.8498   0.8531   0.8648   0.8676   0.8713   0.8722   0.8803   0.8883
  0.8925   0.8959   0.8985   0.9073   0.9130   0.9234   0.9273   0.9274
  0.9334   0.9346   0.9421   0.9551   0.9635   0.9691   0.9746   0.9806
  0.9844   0.9886   0.9961   0.9986   1.0019   1.0079   1.0104   1.0177
  1.0293   1.0309   1.0372   1.0399   1.0489   1.0520   1.0607   1.0640
  1.0686   1.0730   1.0803   1.0824   1.0890   1.0894   1.0972   1.1036
  1.1048   1.1216   1.1224   1.1255   1.1280   1.1330   1.1422   1.1454
  1.1530   1.1542   1.1620   1.1658   1.1729   1.1750   1.1807   1.1876
  1.1900   1.1982   1.2042   1.2072   1.2114   1.2152   1.2204   1.2248
  1.2340   1.2390   1.2406   1.2479   1.2526   1.2637   1.2762   1.2770
  1.2867   1.2900   1.2992   1.3078   1.3149   1.3254   1.3330   1.3419
  1.3440   1.3503   1.3599   1.3637   1.3720   1.3816   1.3844   1.3879
  1.3913   1.3988   1.4004   1.4142   1.4194   1.4224   1.4293   1.4370
  1.4468   1.4604   1.4632   1.4682   1.4746   1.4792   1.4862   1.4954
  1.4963   1.5062   1.5118   1.5157   1.5185   1.5260   1.5324   1.5399
  1.5425   1.5447   1.5523   1.5592   1.5656   1.5688   1.5742   1.5750
  1.5826   1.5972   1.6017   1.6089   1.6188   1.6294   1.6402   1.6480
  1.6552   1.6586   1.6706   1.6759   1.6841   1.6880   1.6907   1.6959
  1.7038   1.7137   1.7217   1.7283   1.7337   1.7408   1.7518   1.7564
  1.7589   1.7692   1.7790   1.7818   1.7884   1.7956   1.8057   1.8156
  1.8212   1.8273   1.8380   1.8409   1.8483   1.8660   1.8719   1.8758
  1.8772   1.8858   1.8958   1.8979   1.9077   1.9207   1.9452   1.9547
  1.9613   1.9683   1.9704   1.9859   1.9873   2.0001   2.0149   2.0238
  2.0348   2.0400   2.0578   2.0623   2.0902   2.0960   2.1057   2.1300
  2.1410   2.1440   2.1529   2.1612   2.1742   2.1951   2.2143   2.2156
  2.2275   2.2365   2.2579   2.2626   2.2806   2.2880   2.2979   2.3078
  2.3156   2.3196   2.3331   2.3391   2.3577   2.3674   2.3699   2.3893
  2.3963   2.4176   2.4314   2.4403   2.4503   2.4511   2.4623   2.4667
  2.4760   2.4937   2.5013   2.5041   2.5113   2.5316   2.5417   2.5570
  2.5612   2.5696   2.5721   2.5864   2.5965   2.6004   2.6058   2.6168
  2.6234   2.6258   2.6425   2.6437   2.6570   2.6606   2.6664   2.6735
  2.6829   2.6900   2.6924   2.7050   2.7207   2.7218   2.7244   2.7399
  2.7464   2.7495   2.7565   2.7615   2.7736   2.7775   2.7792   2.7931
  2.8143   2.8311   2.8424   2.8464   2.8531   2.8550   2.8702   2.8726
  2.8825   2.8846   2.8902   2.8926   2.9003   2.9038   2.9147   2.9171
  2.9181   2.9328   2.9332   2.9415   2.9534   2.9645   2.9694   2.9780
  2.9812   2.9865   2.9992   3.0022   3.0097   3.0167   3.0199   3.0300
  3.0338   3.0444   3.0487   3.0604   3.0666   3.0752   3.0790   3.0839
  3.0964   3.1001   3.1020   3.1049   3.1088   3.1119   3.1170   3.1195
  3.1232   3.1347   3.1482   3.1484   3.1563   3.1596   3.1637   3.1767
  3.1805   3.1819   3.1927   3.1980   3.2083   3.2154   3.2183   3.2235
  3.2287   3.2367   3.2427   3.2453   3.2514   3.2568   3.2598   3.2643
  3.2682   3.2741   3.2763   3.2825   3.2891   3.2970   3.3019   3.3046
  3.3101   3.3125   3.3153   3.3216   3.3256   3.3278   3.3389   3.3421
  3.3435   3.3503   3.3516   3.3559   3.3601   3.3694   3.3715   3.3769
  3.3807   3.3829   3.3860   3.3905   3.3947   3.3996   3.4045   3.4089
  3.4149   3.4165   3.4223   3.4299   3.4351   3.4375   3.4409   3.4444
  3.4534   3.4581   3.4634   3.4677   3.4718   3.4757   3.4842   3.4897
  3.4951   3.4991   3.5082   3.5128   3.5155   3.5185   3.5260   3.5297
  3.5345   3.5402   3.5460   3.5568   3.5622   3.5717   3.5775   3.5845
  3.5851   3.5886   3.5988   3.6136   3.6141   3.6202   3.6227   3.6310
  3.6340   3.6400   3.6435   3.6458   3.6513   3.6575   3.6606   3.6626
  3.6716   3.6817   3.6876   3.6934   3.6969   3.7015   3.7074   3.7155
  3.7178   3.7305   3.7333   3.7390   3.7428   3.7491   3.7546   3.7598
  3.7622   3.7740   3.7745   3.7777   3.7849   3.7922   3.7964   3.8092
  3.8116   3.8170   3.8209   3.8288   3.8351   3.8365   3.8424   3.8496
  3.8554   3.8670   3.8706   3.8751   3.8781   3.8878   3.9025   3.9108
  3.9133   3.9201   3.9310   3.9361   3.9417   3.9456   3.9522   3.9574
  3.9622   3.9685   3.9788   3.9815   3.9876   3.9998   4.0019   4.0116
  4.0163   4.0277   4.0306   4.0404   4.0509   4.0619   4.0722   4.0762
  4.0896   4.1077   4.1115   4.1212   4.1262   4.1299   4.1415   4.1477
  4.1539   4.1599   4.1618   4.1735   4.1778   4.1861   4.1876   4.2080
  4.2158   4.2276   4.2302   4.2427   4.2454   4.2573   4.2618   4.2675
  4.2718   4.2786   4.2809   4.2886   4.2957   4.3015   4.3043   4.3113
  4.3185   4.3238   4.3281   4.3360   4.3427   4.3448   4.3485   4.3543
  4.3584   4.3704   4.3709   4.3756   4.3810   4.3850   4.3974   4.4008
  4.4034   4.4089   4.4187   4.4202   4.4293   4.4400   4.4482   4.4683
  4.4760   4.4824   4.4896   4.4958   4.5100   4.5196   4.5210   4.5277
  4.5360   4.5438   4.5514   4.5557   4.5690   4.5739   4.5865   4.5899
  4.5977   4.6011   4.6063   4.6136   4.6195   4.6261   4.6334   4.6418
  4.6504   4.6539   4.6672   4.6734   4.6866   4.7028   4.7041   4.7137
  4.7172   4.7323   4.7421   4.7723   4.7766   4.7834   4.7911   4.8046
  4.8119   4.8250   4.8352   4.8423   4.8519   4.8579   4.8698   4.8845
  4.8871   4.8980   4.9044   4.9246   4.9393   4.9538   4.9558   4.9633
  4.9841   5.0018   5.0103   5.0260   5.0320   5.0397   5.0512   5.0633
  5.0746   5.0994   5.1070   5.1206   5.1263   5.1279   5.1360   5.1383
  5.1507   5.1552   5.1701   5.1870   5.1885   5.2064   5.2139   5.2202
  5.2518   5.2629   5.2728   5.2867   5.2927   5.3037   5.3144   5.3279
  5.3306   5.3349   5.3489   5.3719   5.3791   5.3901   5.4046   5.4169
  5.4368   5.4521   5.4576   5.4884   5.5008   5.5043   5.5145   5.5147
  5.5176   5.5350   5.5441   5.5552   5.5566   5.5637   5.5676   5.5749
  5.5794   5.5870   5.5938   5.6043   5.6100   5.6201   5.6297   5.6339
  5.6444   5.6509   5.6597   5.6632   5.6671   5.6691   5.6944   5.6946
  5.6997   5.7106   5.7334   5.7415   5.7481   5.7531   5.7667   5.7725
  5.7854   5.7896   5.7969   5.8305   5.8398   5.8567   5.8807   5.8992
  5.9494   5.9579   5.9767   5.9925   6.0081   6.0190   6.0327   6.0424
  6.0436   6.0522   6.0935   6.1117   6.1235   6.1417   6.1528   6.1862
  6.1963   6.2198   6.2208   6.2258   6.2433   6.2541   6.2757   6.2841
  6.3063   6.3117   6.3243   6.3476   6.3668   6.3859   6.4019   6.4841
  6.5200   6.5336   6.5737   6.5828   6.5847   6.6149   6.6164   6.6590
  6.6750   6.6896   6.8479   6.8514   6.8908   6.9035   6.9065   6.9267
  6.9284   6.9535   7.1025   7.1096   7.1489   7.1928   7.1994   7.2365
  7.3480   7.3526   7.3585   7.3623   7.4767   7.5428   7.5727   7.5839
  7.5902   7.5980   7.6555   7.6870   7.6935   7.7150   8.8943  10.1137
 10.3208  11.2864  11.5304  11.7775  11.9912  12.2646  12.4502  12.4660
 12.9383  13.2171  13.3397  13.5658  13.7810  13.9285  14.0953  14.3017
 14.3469  14.3821  14.5131  14.6117  14.9900  15.6196  15.7963  16.3274
 --------------------------------------------------------------
 
          Ground-State Mulliken Net Atomic Charges

     Atom                 Charge (a.u.)
  ----------------------------------------
      1 C                    -0.084658
      2 C                    -0.031427
      3 C                    -0.112778
      4 C                    -0.123206
      5 H                     0.198715
      6 C                     0.022176
      7 C                     0.119877
      8 C                    -0.086905
      9 C                    -0.181525
     10 C                    -0.170460
     11 C                     0.212323
     12 H                     0.193745
     13 C                     0.340400
     14 C                     0.348908
     15 N                    -0.089349
     16 C                     0.356613
     17 C                     0.358165
     18 N                    -0.090253
     19 O                    -0.496972
     20 O                    -0.510764
     21 O                    -0.501344
     22 O                    -0.474572
     23 C                    -0.205266
     24 H                     0.139517
     25 H                     0.109005
     26 H                     0.108539
     27 C                    -0.197865
     28 H                     0.133496
     29 H                     0.111729
     30 H                     0.112150
     31 C                    -0.034005
     32 S                     0.050514
     33 C                    -0.201312
     34 C                    -0.204768
     35 C                    -0.197457
     36 H                     0.190456
     37 H                     0.192633
     38 H                     0.210661
     39 H                     0.136682
     40 H                     0.137167
     41 H                     0.211416
  ----------------------------------------
  Sum of atomic charges =     0.000000

 -----------------------------------------------------------------
                    Cartesian Multipole Moments
 -----------------------------------------------------------------
    Charge (ESU x 10^10)
                 0.0000
    Dipole Moment (Debye)
         X      -0.0186      Y       2.3094      Z      -0.5787
       Tot       2.3809
    Quadrupole Moments (Debye-Ang)
        XX    -171.6762     XY      12.9026     YY    -184.3980
        XZ      16.8940     YZ      -6.0195     ZZ    -175.6282
    Octopole Moments (Debye-Ang^2)
       XXX     -55.3892    XXY     540.5838    XYY     -49.1093
       YYY    1715.3939    XXZ     -25.6661    XYZ     -64.8523
       YYZ      25.3048    XZZ     -14.3375    YZZ     561.8747
       ZZZ     -88.1169
    Hexadecapole Moments (Debye-Ang^3)
      XXXX   -2856.5188   XXXY      51.2401   XXYY   -3376.9158
      XYYY     684.1497   YYYY  -18042.7260   XXXZ    1475.6680
      XXYZ       2.2716   XYYZ     917.4356   YYYZ    -947.5638
      XXZZ   -1200.1953   XYZZ     -64.3897   YYZZ   -3725.8622
      XZZZ    1510.9509   YZZZ    -180.2055   ZZZZ   -3983.3068
 -----------------------------------------------------------------
 Total job time:  330.07s(wall), 9685.48s(cpu) 
 Sun Sep 24 17:02:18 2023

        *************************************************************
        *                                                           *
        *  Thank you very much for using Q-Chem.  Have a nice day.  *
        *                                                           *
        *************************************************************


0 sent ACK to 0 
now end server 0 ... 
cleanup process ... done
remove work dirs ./qchem1083541.0 -- ./qchem1083541.0
rm -rf ./qchem1083541.0
rm -rf ./qchem1083541
