You are running Q-Chem version: 5.4.0

#
# job setting
#
local host:  exp-2-20
current dir: /expanse/lustre/projects/csd626/rramji/aromodel/PNDIT/Hydrogenated_Rotation_Test
input file:  Dimethyl_Naphthalene_Dicarboximide_Phi_0_Theta_260_Thiophene_Hydrogenated.qcin
output file: 
nprocs     : 1
nthreads   : 64
#
# qchem installation setting
#
QC:          /cm/shared/apps/spack/cpu/opt/spack/linux-centos8-zen2/gcc-10.2.0/qchem-5.4-akfmr7b3t57bfs6qan3padb2wnb2i7cl
QCAUX:       /cm/shared/apps/spack/cpu/opt/spack/linux-centos8-zen2/gcc-10.2.0/qchem-5.4-akfmr7b3t57bfs6qan3padb2wnb2i7cl/qcaux
QCPROG:      /cm/shared/apps/spack/cpu/opt/spack/linux-centos8-zen2/gcc-10.2.0/qchem-5.4-akfmr7b3t57bfs6qan3padb2wnb2i7cl/exe/qcprog.exe
QCPROG_S:    /cm/shared/apps/spack/cpu/opt/spack/linux-centos8-zen2/gcc-10.2.0/qchem-5.4-akfmr7b3t57bfs6qan3padb2wnb2i7cl/exe/qcprog.exe_s
PARALLEL:    -DPARALLEL
QCMPI:       mpich
#
# qchem directory setting
#
qcrun:       qchem3034151
QCSCRATCH:   .
QCLOCALSCR:  
QCTMPDIR:    .
QCFILEPREF:  ./qchem3034151
QCSAVEDIR:   
workdirs:    ./qchem3034151
workdir0:    ./qchem3034151
partmpdirs =  
#
# parallel setting
#
QCRSH:           ssh
QCMPI:           mpich
QCMPIRUN:        /cm/shared/apps/spack/cpu/opt/spack/linux-centos8-zen2/gcc-10.2.0/qchem-5.4-akfmr7b3t57bfs6qan3padb2wnb2i7cl/bin/mpi/mpirun_qchem
QCMACHINEFILE:   ./qchem3034151/hostfile
exp-2-20

#
# env setting
#
exported envs:   QC QCAUX QCSCRATCH QCRUNNAME QCFILEPREF QCPROG QCPROG_S GUIFILE

Running Job 1 of 1 Dimethyl_Naphthalene_Dicarboximide_Phi_0_Theta_260_Thiophene_Hydrogenated.qcin
qchem Dimethyl_Naphthalene_Dicarboximide_Phi_0_Theta_260_Thiophene_Hydrogenated.qcin_3034151.0 ./qchem3034151/ 1
/cm/shared/apps/spack/cpu/opt/spack/linux-centos8-zen2/gcc-10.2.0/qchem-5.4-akfmr7b3t57bfs6qan3padb2wnb2i7cl/bin/mpi/mpirun_qchem -machinefile ./qchem3034151/hostfile -np 1 /cm/shared/apps/spack/cpu/opt/spack/linux-centos8-zen2/gcc-10.2.0/qchem-5.4-akfmr7b3t57bfs6qan3padb2wnb2i7cl/exe/qcprog.exe Dimethyl_Naphthalene_Dicarboximide_Phi_0_Theta_260_Thiophene_Hydrogenated.qcin_3034151.0 ./qchem3034151/

Process 0 of 1 is on exp-2-20 - thread support 0
initial socket setup ...start
initial socket setup ...done 
now start server 0 ... 
                  Welcome to Q-Chem
     A Quantum Leap Into The Future Of Chemistry


 Q-Chem 5.4, Q-Chem, Inc., Pleasanton, CA (2021)

 License issued to: University of California, San Diego (site)

 E. Epifanovsky,  A. T. B. Gilbert,  Xintian Feng,  Joonho Lee,  Yuezhi Mao,  
 N. Mardirossian,  P. Pokhilko,  A. White,  M. Wormit,  M. P. Coons,  
 A. L. Dempwolff,  Zhengting Gan,  D. Hait,  P. R. Horn,  L. D. Jacobson,  
 I. Kaliman,  J. Kussmann,  A. W. Lange,  Ka Un Lao,  D. S. Levine,  Jie Liu,  
 S. C. McKenzie,  A. F. Morrison,  K. Nanda,  F. Plasser,  D. R. Rehn,  
 M. L. Vidal,  Zhi-Qiang You,  Ying Zhu,  B. Alam,  B. Albrecht,  
 A. Aldossary,  E. Alguire,  J. H. Andersen,  D. Barton,  K. Begam,  A. Behn,  
 Y. A. Bernard,  E. J. Berquist,  H. Burton,  A. Carreras,  K. Carter-Fenk,  
 R. Chakraborty,  A. D. Chien,  K. D. Closser,  V. Cofer-Shabica,  
 S. Dasgupta,  Jia Deng,  M. de Wergifosse,  M. Diedenhofen,  Hainam Do,  
 S. Ehlert,  Po-Tung Fang,  S. Fatehi,  Qingguo Feng,  J. Gayvert,  
 Qinghui Ge,  G. Gidofalvi,  M. Goldey,  J. Gomes,  C. Gonzalez-Espinoza,  
 S. Gulania,  A. Gunina,  M. W. D. Hanson-Heine,  P. H. P. Harbach,  
 A. W. Hauser,  M. F. Herbst,  M. Hernandez Vera,  M. Hodecker,  
 Z. C. Holden,  S. Houck,  Xunkun Huang,  Kerwin Hui,  B. C. Huynh,  
 M. Ivanov,  Hyunjun Ji,  Hanjie Jiang,  B. Kaduk,  S. Kaehler,  
 K. Khistyaev,  Jaehoon Kim,  P. Klunzinger,  Z. Koczor-Benda,  
 Joong Hoon Koh,  D. Kosenkov,  L. Koulias,  T. Kowalczyk,  C. M. Krauter,  
 K. Kue,  A. Kunitsa,  T. Kus,  A. Landau,  K. V. Lawler,  D. Lefrancois,  
 S. Lehtola,  Rain Li,  Yi-Pei Li,  Jiashu Liang,  M. Liebenthal,  
 Hung-Hsuan Lin,  You-Sheng Lin,  Fenglai Liu,  Kuan-Yu Liu,  
 M. Loipersberger,  A. Luenser,  A. Manjanath,  P. Manohar,  E. Mansoor,  
 S. F. Manzer,  Shan-Ping Mao,  A. V. Marenich,  T. Markovich,  S. Mason,  
 S. A. Maurer,  P. F. McLaughlin,  M. F. S. J. Menger,  J.-M. Mewes,  
 S. A. Mewes,  P. Morgante,  J. W. Mullinax,  T. S. Nguyen-Beck,  
 K. J. Oosterbaan,  G. Paran,  Alexander C. Paul,  Suranjan K. Paul,  
 F. Pavosevic,  Zheng Pei,  S. Prager,  E. I. Proynov,  E. Ramos,  B. Rana,  
 A. E. Rask,  A. Rettig,  R. M. Richard,  F. Rob,  E. Rossomme,  T. Scheele,  
 M. Scheurer,  M. Schneider,  N. Sergueev,  S. M. Sharada,  W. Skomorowski,  
 D. W. Small,  C. J. Stein,  Yu-Chuan Su,  E. J. Sundstrom,  Zhen Tao,  
 J. Thirman,  T. Tsuchimochi,  N. M. Tubman,  S. P. Veccham,  O. Vydrov,  
 J. Wenzel,  J. Witte,  A. Yamada,  Kun Yao,  S. Yeganeh,  S. R. Yost,  
 A. Zech,  Igor Ying Zhang,  Xing Zhang,  Yu Zhang,  D. Zuev,  
 A. Aspuru-Guzik,  A. T. Bell,  N. A. Besley,  K. B. Bravaya,  B. R. Brooks,  
 D. Casanova,  Jeng-Da Chai,  S. Coriani,  C. J. Cramer,  
 A. E. DePrince, III,  R. A. DiStasio Jr.,  A. Dreuw,  B. D. Dunietz,  
 T. R. Furlani,  W. A. Goddard III,  S. Grimme,  S. Hammes-Schiffer,  
 T. Head-Gordon,  W. J. Hehre,  Chao-Ping Hsu,  T.-C. Jagau,  Yousung Jung,  
 A. Klamt,  Jing Kong,  D. S. Lambrecht,  WanZhen Liang,  N. J. Mayhall,  
 C. W. McCurdy,  J. B. Neaton,  C. Ochsenfeld,  J. A. Parkhill,  R. Peverati,  
 V. A. Rassolov,  Yihan Shao,  L. V. Slipchenko,  T. Stauch,  R. P. Steele,  
 J. E. Subotnik,  A. J. W. Thom,  A. Tkatchenko,  D. G. Truhlar,  
 T. Van Voorhis,  T. A. Wesolowski,  K. B. Whaley,  H. L. Woodcock III,  
 P. M. Zimmerman,  S. Faraji,  P. M. W. Gill,  M. Head-Gordon,  
 J. M. Herbert,  A. I. Krylov

 Contributors to earlier versions of Q-Chem not listed above: 
 R. D. Adamson,  B. Austin,  R. Baer,  J. Baker,  G. J. O. Beran,  
 K. Brandhorst,  S. T. Brown,  E. F. C. Byrd,  A. K. Chakraborty,  
 G. K. L. Chan,  Chun-Min Chang,  Yunqing Chen,  C.-L. Cheng,  
 Siu Hung Chien,  D. M. Chipman,  D. L. Crittenden,  H. Dachsel,  
 R. J. Doerksen,  A. D. Dutoi,  R. G. Edgar,  J. Fosso-Tande,  
 L. Fusti-Molnar,  D. Ghosh,  A. Ghysels,  A. Golubeva-Zadorozhnaya,  
 J. Gonthier,  M. S. Gordon,  S. R. Gwaltney,  G. Hawkins,  J. E. Herr,  
 A. Heyden,  S. Hirata,  E. G. Hohenstein,  G. Kedziora,  F. J. Keil,  
 C. Kelley,  Jihan Kim,  R. A. King,  R. Z. Khaliullin,  P. P. Korambath,  
 W. Kurlancheek,  A. Laurent,  A. M. Lee,  M. S. Lee,  S. V. Levchenko,  
 Ching Yeh Lin,  D. Liotard,  E. Livshits,  R. C. Lochan,  I. Lotan,  
 L. A. Martinez-Martinez,  P. E. Maslen,  N. Nair,  D. P. O'Neill,  
 D. Neuhauser,  E. Neuscamman,  C. M. Oana,  R. Olivares-Amaya,  R. Olson,  
 T. M. Perrine,  B. Peters,  P. A. Pieniazek,  A. Prociuk,  Y. M. Rhee,  
 J. Ritchie,  M. A. Rohrdanz,  E. Rosta,  N. J. Russ,  H. F. Schaefer III,  
 M. W. Schmidt,  N. E. Schultz,  S. Sharma,  N. Shenvi,  C. D. Sherrill,  
 A. C. Simmonett,  A. Sodt,  T. Stein,  D. Stuck,  K. S. Thanthiriwatte,  
 V. Vanovschi,  L. Vogt,  Tao Wang,  A. Warshel,  M. A. Watson,  
 C. F. Williams,  Q. Wu,  X. Xu,  Jun Yang,  W. Zhang,  Yan Zhao

 Please cite Q-Chem as follows:
 Y. Shao et al., Mol. Phys. 113, 184-215 (2015)
 DOI: 10.1080/00268976.2014.952696

 Q-Chem 5.4.0 for Intel X86 EM64T Linux

 Parts of Q-Chem use Armadillo 9.800.1 (Horizon Scraper).
 http://arma.sourceforge.net/

 Q-Chem begins on Sun Sep 24 17:12:09 2023  

 Host: 
0

     Scratch files written to ./qchem3034151//
 May1621 |scratch|qcdevops|jenkins|workspace|build_RNUM    
 Parallel job on  1  processors
 Processing $rem in /cm/shared/apps/spack/cpu/opt/spack/linux-centos8-zen2/gcc-10.2.0/qchem-5.4-akfmr7b3t57bfs6qan3padb2wnb2i7cl/config/preferences:
 Processing $rem in /home/rramji/.qchemrc:
 Symmetry turned off for PCM/SM12/SMD calculation
 Core orbitals will be frozen

 Checking the input file for inconsistencies... 	...done.

 Q-Chem warning in module forms1/BasisType.C, line 2236:

 You are not using the predefined 5D/6D in this basis set.


--------------------------------------------------------------
User input:
--------------------------------------------------------------
$molecule
0 1
C	-0.252767	-6.741404	0.046070
C	-1.538656	-6.155638	0.272935
C	0.814966	-5.791452	-0.141739
C	-1.813042	-4.803786	0.321083
H	-2.403318	-6.821518	0.425592
C	0.527566	-4.378638	-0.091779
C	-0.782769	-3.838032	0.138909
C	1.556632	-3.413062	-0.273808
C	-1.067868	-2.426473	0.188483
C	1.285436	-2.059348	-0.226610
C	-0.000000	-1.478216	-0.000000
H	2.151019	-1.394783	-0.379657
C	2.235891	-6.187987	-0.390420
C	2.965540	-3.798164	-0.522125
N	3.205600	-5.170003	-0.562731
C	-3.225760	-4.424987	0.570244
C	-2.489646	-2.036627	0.438407
N	-3.459662	-3.049156	0.610438
O	2.621768	-7.353131	-0.455563
O	3.874608	-2.986854	-0.683373
O	-4.124059	-5.248946	0.729367
O	-2.896516	-0.878829	0.508697
C	4.596910	-5.563799	-0.806996
H	4.641640	-6.664085	-0.813717
H	5.246567	-5.147101	-0.013655
H	4.936739	-5.148785	-1.775159
C	-4.829729	-2.587487	0.851572
H	-5.462387	-3.483329	0.964204
H	-5.173914	-1.964972	0.003956
H	-4.863360	-1.962932	1.764390
C	0.000000	0.000000	0.000000
S	-0.000201	0.793171	1.580530
C	-0.000228	2.430885	0.904911
C	-0.000168	0.997990	-0.985400
C	-0.000267	2.318231	-0.493528
H	-0.000145	0.762343	-2.059934
H	-0.000339	3.199164	-1.152593
H	-0.000311	3.311566	1.556025
H	-0.303328	-7.361589	-0.857128
H	0.007933	-7.361192	0.912587
H	-0.187017	-1.478831	-1.063684
$end

$rem
JOBTYPE		SP
EXCHANGE	HF
CORRELATION	pRIMP2
BASIS		cc-pvtz
METHOD		rimp2
AUX_BASIS	rimp2-cc-pvtz
SOLVENT_METHOD	PCM
PURECART	11111
SYMMETRY	false
MEM_TOTAL	110000
SCF_CONVERGENCE = 6
THRESH=10
GUI = 2
$end



$solvent
dielectric 4.90
$end
--------------------------------------------------------------
 ----------------------------------------------------------------
             Standard Nuclear Orientation (Angstroms)
    I     Atom           X                Y                Z
 ----------------------------------------------------------------
    1      C      -0.2527670000    -6.7414040000     0.0460700000
    2      C      -1.5386560000    -6.1556380000     0.2729350000
    3      C       0.8149660000    -5.7914520000    -0.1417390000
    4      C      -1.8130420000    -4.8037860000     0.3210830000
    5      H      -2.4033180000    -6.8215180000     0.4255920000
    6      C       0.5275660000    -4.3786380000    -0.0917790000
    7      C      -0.7827690000    -3.8380320000     0.1389090000
    8      C       1.5566320000    -3.4130620000    -0.2738080000
    9      C      -1.0678680000    -2.4264730000     0.1884830000
   10      C       1.2854360000    -2.0593480000    -0.2266100000
   11      C       0.0000000000    -1.4782160000     0.0000000000
   12      H       2.1510190000    -1.3947830000    -0.3796570000
   13      C       2.2358910000    -6.1879870000    -0.3904200000
   14      C       2.9655400000    -3.7981640000    -0.5221250000
   15      N       3.2056000000    -5.1700030000    -0.5627310000
   16      C      -3.2257600000    -4.4249870000     0.5702440000
   17      C      -2.4896460000    -2.0366270000     0.4384070000
   18      N      -3.4596620000    -3.0491560000     0.6104380000
   19      O       2.6217680000    -7.3531310000    -0.4555630000
   20      O       3.8746080000    -2.9868540000    -0.6833730000
   21      O      -4.1240590000    -5.2489460000     0.7293670000
   22      O      -2.8965160000    -0.8788290000     0.5086970000
   23      C       4.5969100000    -5.5637990000    -0.8069960000
   24      H       4.6416400000    -6.6640850000    -0.8137170000
   25      H       5.2465670000    -5.1471010000    -0.0136550000
   26      H       4.9367390000    -5.1487850000    -1.7751590000
   27      C      -4.8297290000    -2.5874870000     0.8515720000
   28      H      -5.4623870000    -3.4833290000     0.9642040000
   29      H      -5.1739140000    -1.9649720000     0.0039560000
   30      H      -4.8633600000    -1.9629320000     1.7643900000
   31      C       0.0000000000     0.0000000000     0.0000000000
   32      S      -0.0002010000     0.7931710000     1.5805300000
   33      C      -0.0002280000     2.4308850000     0.9049110000
   34      C      -0.0001680000     0.9979900000    -0.9854000000
   35      C      -0.0002670000     2.3182310000    -0.4935280000
   36      H      -0.0001450000     0.7623430000    -2.0599340000
   37      H      -0.0003390000     3.1991640000    -1.1525930000
   38      H      -0.0003110000     3.3115660000     1.5560250000
   39      H      -0.3033280000    -7.3615890000    -0.8571280000
   40      H       0.0079330000    -7.3611920000     0.9125870000
   41      H      -0.1870170000    -1.4788310000    -1.0636840000
 ----------------------------------------------------------------
 Nuclear Repulsion Energy =        2548.01983416 hartrees
 There are       98 alpha and       98 beta electrons
 Requested basis set is cc-pVTZ
 There are 356 shells and 1010 basis functions

 Total QAlloc Memory Limit 110000 MB
 Mega-Array Size       188 MB
 MEM_STATIC part       192 MB
 Discretize the solute cavity surface with Lebedev spheres
	Using 110 Lebedev grid points for each H atom
	Using 194 Lebedev grid points for other atoms
	Atomic van der Waals radii will be scaled by 1.20
 Remove points where switching function is < 1.0e-08
 Keep 2669 surface tesserae and discard 4109 interior tesserae
 Molecular Surface Area = 371.883 Angst**2
 Requested basis set is rimp2-cc-pVTZ
 There are 770 shells and 2648 basis functions
 A cutoff of  1.0D-10 yielded  34012 shell pairs
 There are    257110 function pairs (    332820 Cartesian)
 Smallest overlap matrix eigenvalue = 8.96E-06

 Q-Chem warning in module stvman/mkSTV.C, line 323:

 Overlap eigenvalue is smaller than square root of threshold
 Use THRESH >= 12 to get rid of this warning


 Scale SEOQF with 1.000000e-02/1.000000e-02/1.000000e-01

 Standard Electronic Orientation quadrupole field applied
 Nucleus-field energy     =     0.0000000164 hartrees
 Guess from superposition of atomic densities
 Warning:  Energy on first SCF cycle will be non-variational
 SAD guess density has 196.000000 electrons

 -----------------------------------------------------------------------
  General SCF calculation program by
  Eric Jon Sundstrom, Paul Horn, Yuezhi Mao, Dmitri Zuev, Alec White,
  David Stuck, Shaama M.S., Shane Yost, Joonho Lee, David Small,
  Daniel Levine, Susi Lehtola, Hugh Burton, Evgeny Epifanovsky,
  Bang C. Huynh
 -----------------------------------------------------------------------
 Hartree-Fock
 using 64 threads for integral computing
 -------------------------------------------------------
 OpenMP Integral computing Module                
 Release: version 1.0, May 2013, Q-Chem Inc. Pittsburgh 
 -------------------------------------------------------
 A restricted SCF calculation will be
 performed using DIIS
 SCF converges when DIIS error is below 1.0e-06
 ---------------------------------------
  Cycle       Energy         DIIS error
 ---------------------------------------
    1   -1583.0796467696      1.86e-02  
    2   -1571.1741510398      2.03e-03  
    3   -1571.5126827646      1.55e-03  
    4   -1571.7344264863      2.52e-04  
    5   -1571.7480377447      7.70e-05  
    6   -1571.7493997764      2.94e-05  
    7   -1571.7497936583      1.51e-05  
    8   -1571.7498997376      6.08e-06  
    9   -1571.7499175275      2.79e-06  
   10   -1571.7499209879      1.16e-06  
   11   -1571.7499220237      5.45e-07  Convergence criterion met
 ---------------------------------------
 SCF time:   CPU 6805.93s  wall 272.00s 

************** Final PCM Free Energy Summary **************
 G_electrostatic  =      -0.03192079 hartree =     -20.03060038 kcal/mol
 G_cavitation     =       0.00000000 hartree =       0.00000000 kcal/mol
 G_dispersion     =       0.00000000 hartree =       0.00000000 kcal/mol
 G_repulsion      =       0.00000000 hartree =       0.00000000 kcal/mol
 --------------------------------------------------
 Non-electrostatic Free Energy =       0.00000000 hartree =       0.00000000 kcal/mol
 Total                         =      -0.03192079 hartree =     -20.03060038 kcal/mol
 --------------------------------------------------
 SCF Energy (H0 + V/2)                       =   -1571.74992202 
 Solute Internal Energy (H0)                 =   -1571.71800123 
 Total Free Energy (H0 + V/2 + non-elec)     =   -1571.74992202 hartree
                                             = -986287.96211337 kcal/mol
***********************************************************

 SCF   energy in the final basis set =    -1571.7499220237
 Total energy in the final basis set =    -1571.7499220237


 --------------------------------------------------------------
  Generalized many-body perturbation theory program
  by Joonho Lee, Fazle Rob, Xintian Feng, Evgeny Epifanovsky

 No regularization used 
 (reg. param. = 0.0000e+00)
  (P|Q)^-1/2 Time:  CPU 154.30 s  wall 2.47 s

 In RI-MP2 calculation: 
 # of frozen core orbitals: 31

 Components of the RIMP2 correlation energy:
        aaaa    correlation energy =        -0.6146478977 a.u.
        abab    correlation energy =        -3.4245141921 a.u.
        bbbb    correlation energy =        -0.6146478977 a.u.
        non-Brillouin singles      =        -0.0000000000 a.u.
        total same-spin energy     =        -1.2292957954 a.u.
        total opposite-spin energy =        -3.4245141921 a.u.

 Total  RIMP2   correlation energy =        -4.6538099875 a.u.
        RIMP2         total energy =     -1576.4037320112 a.u.

 RI-MP2 Energy Time:  CPU 1913.46 s  wall 32.59 s
 
 --------------------------------------------------------------
 
                    Orbital Energies (a.u.)
 --------------------------------------------------------------
 
 Alpha MOs
 -- Occupied --
-91.9863 -20.5518 -20.5444 -20.5420 -20.5407 -15.6267 -15.6215 -11.3931
-11.3851 -11.3838 -11.3794 -11.3093 -11.3090 -11.3055 -11.3050 -11.2976
-11.2967 -11.2900 -11.2811 -11.2696 -11.2683 -11.2648 -11.2626 -11.2595
-11.2577 -11.2530 -11.2503  -8.9860  -6.6669  -6.6663  -6.6658  -1.4192
 -1.4124  -1.3970  -1.3916  -1.2619  -1.2556  -1.2297  -1.1861  -1.1526
 -1.1143  -1.0867  -1.0468  -0.9951  -0.9878  -0.9838  -0.9551  -0.9515
 -0.8964  -0.8877  -0.8768  -0.8602  -0.7947  -0.7769  -0.7709  -0.7620
 -0.7425  -0.7175  -0.7044  -0.6918  -0.6803  -0.6721  -0.6666  -0.6573
 -0.6472  -0.6443  -0.6361  -0.6329  -0.6311  -0.6278  -0.6219  -0.6045
 -0.5847  -0.5754  -0.5670  -0.5614  -0.5573  -0.5513  -0.5506  -0.5481
 -0.5466  -0.5437  -0.5187  -0.5166  -0.5095  -0.4827  -0.4747  -0.4615
 -0.4571  -0.4510  -0.4429  -0.4348  -0.4133  -0.4075  -0.3549  -0.3508
 -0.3280  -0.2903
 -- Virtual --
  0.0144   0.0431   0.0900   0.0963   0.1357   0.1498   0.1542   0.1604
  0.1636   0.1723   0.1787   0.1825   0.1845   0.1890   0.1969   0.1997
  0.2051   0.2214   0.2268   0.2295   0.2305   0.2327   0.2338   0.2374
  0.2654   0.2688   0.2884   0.3027   0.3119   0.3190   0.3208   0.3233
  0.3287   0.3406   0.3469   0.3515   0.3562   0.3618   0.3660   0.3712
  0.3755   0.3760   0.3796   0.3842   0.3889   0.3923   0.3969   0.4048
  0.4132   0.4191   0.4248   0.4320   0.4378   0.4387   0.4429   0.4481
  0.4511   0.4537   0.4583   0.4676   0.4707   0.4748   0.4814   0.4922
  0.4947   0.4998   0.5055   0.5080   0.5156   0.5222   0.5251   0.5314
  0.5325   0.5396   0.5441   0.5475   0.5534   0.5578   0.5601   0.5646
  0.5684   0.5703   0.5794   0.5834   0.5878   0.5913   0.5952   0.5993
  0.6016   0.6043   0.6073   0.6112   0.6143   0.6168   0.6229   0.6250
  0.6274   0.6306   0.6339   0.6355   0.6377   0.6408   0.6455   0.6523
  0.6594   0.6598   0.6661   0.6770   0.6797   0.6898   0.6954   0.6975
  0.7033   0.7098   0.7197   0.7296   0.7336   0.7372   0.7469   0.7578
  0.7626   0.7658   0.7725   0.7758   0.7814   0.7877   0.7889   0.7960
  0.8016   0.8120   0.8155   0.8172   0.8229   0.8298   0.8422   0.8490
  0.8519   0.8559   0.8580   0.8633   0.8667   0.8716   0.8753   0.8828
  0.8939   0.8996   0.9041   0.9083   0.9110   0.9201   0.9243   0.9313
  0.9326   0.9409   0.9441   0.9555   0.9592   0.9639   0.9673   0.9780
  0.9796   0.9855   0.9903   0.9932   0.9992   1.0037   1.0103   1.0169
  1.0212   1.0298   1.0345   1.0420   1.0481   1.0542   1.0574   1.0627
  1.0676   1.0709   1.0728   1.0750   1.0840   1.0905   1.0924   1.1009
  1.1091   1.1185   1.1207   1.1293   1.1295   1.1359   1.1382   1.1472
  1.1511   1.1562   1.1589   1.1614   1.1641   1.1715   1.1827   1.1868
  1.1932   1.1959   1.2001   1.2047   1.2088   1.2161   1.2231   1.2266
  1.2308   1.2372   1.2385   1.2467   1.2515   1.2545   1.2586   1.2650
  1.2808   1.2867   1.2963   1.3058   1.3136   1.3224   1.3285   1.3332
  1.3472   1.3504   1.3600   1.3627   1.3691   1.3739   1.3811   1.3857
  1.3904   1.3970   1.3986   1.4056   1.4146   1.4203   1.4339   1.4366
  1.4478   1.4528   1.4638   1.4704   1.4814   1.4840   1.4918   1.4950
  1.4998   1.5025   1.5062   1.5120   1.5257   1.5301   1.5362   1.5365
  1.5422   1.5465   1.5527   1.5572   1.5649   1.5687   1.5728   1.5775
  1.5807   1.5879   1.5969   1.6054   1.6170   1.6267   1.6342   1.6378
  1.6407   1.6545   1.6658   1.6690   1.6803   1.6861   1.6885   1.6922
  1.7037   1.7136   1.7245   1.7269   1.7399   1.7418   1.7526   1.7592
  1.7601   1.7679   1.7710   1.7770   1.7820   1.7930   1.8030   1.8145
  1.8196   1.8292   1.8421   1.8449   1.8497   1.8592   1.8633   1.8720
  1.8748   1.8769   1.8881   1.9006   1.9137   1.9221   1.9305   1.9352
  1.9484   1.9663   1.9673   1.9815   1.9883   1.9927   2.0105   2.0161
  2.0286   2.0469   2.0535   2.0668   2.0773   2.0965   2.1075   2.1254
  2.1298   2.1422   2.1553   2.1619   2.1820   2.1846   2.2059   2.2190
  2.2272   2.2353   2.2464   2.2705   2.2826   2.2935   2.2942   2.2988
  2.3133   2.3199   2.3337   2.3389   2.3516   2.3674   2.3693   2.3883
  2.4040   2.4204   2.4242   2.4376   2.4475   2.4579   2.4596   2.4627
  2.4767   2.4877   2.4937   2.5014   2.5047   2.5270   2.5311   2.5440
  2.5592   2.5605   2.5735   2.5838   2.5857   2.5923   2.6033   2.6130
  2.6268   2.6307   2.6387   2.6428   2.6482   2.6611   2.6647   2.6780
  2.6815   2.6867   2.6965   2.7045   2.7161   2.7213   2.7269   2.7369
  2.7410   2.7503   2.7544   2.7596   2.7645   2.7729   2.7856   2.7874
  2.8147   2.8256   2.8302   2.8377   2.8483   2.8504   2.8572   2.8647
  2.8707   2.8785   2.8838   2.8930   2.8958   2.9075   2.9099   2.9163
  2.9218   2.9260   2.9282   2.9398   2.9563   2.9583   2.9682   2.9707
  2.9748   2.9859   2.9898   2.9972   3.0030   3.0101   3.0194   3.0226
  3.0317   3.0386   3.0483   3.0494   3.0644   3.0704   3.0835   3.0851
  3.0920   3.0987   3.1030   3.1059   3.1092   3.1140   3.1221   3.1287
  3.1344   3.1380   3.1483   3.1543   3.1583   3.1628   3.1692   3.1759
  3.1847   3.1919   3.1980   3.2017   3.2043   3.2064   3.2172   3.2273
  3.2332   3.2364   3.2415   3.2446   3.2495   3.2527   3.2628   3.2663
  3.2728   3.2736   3.2807   3.2865   3.2909   3.2935   3.2992   3.3099
  3.3105   3.3135   3.3180   3.3234   3.3238   3.3323   3.3350   3.3385
  3.3431   3.3452   3.3474   3.3526   3.3557   3.3666   3.3720   3.3733
  3.3771   3.3792   3.3853   3.3887   3.3948   3.3970   3.4013   3.4078
  3.4212   3.4233   3.4257   3.4292   3.4326   3.4357   3.4463   3.4512
  3.4537   3.4586   3.4662   3.4720   3.4758   3.4793   3.4844   3.4892
  3.4959   3.4967   3.5061   3.5085   3.5132   3.5152   3.5215   3.5251
  3.5307   3.5338   3.5444   3.5447   3.5532   3.5653   3.5682   3.5803
  3.5911   3.5927   3.5973   3.5995   3.6055   3.6168   3.6235   3.6258
  3.6287   3.6339   3.6383   3.6393   3.6487   3.6511   3.6550   3.6624
  3.6678   3.6756   3.6826   3.6854   3.6972   3.7007   3.7028   3.7089
  3.7187   3.7275   3.7326   3.7378   3.7428   3.7436   3.7506   3.7529
  3.7581   3.7649   3.7681   3.7716   3.7745   3.7859   3.7912   3.7940
  3.8025   3.8114   3.8152   3.8235   3.8283   3.8318   3.8363   3.8415
  3.8487   3.8543   3.8603   3.8651   3.8800   3.8902   3.8940   3.8996
  3.9070   3.9127   3.9193   3.9314   3.9393   3.9447   3.9515   3.9551
  3.9573   3.9613   3.9716   3.9752   3.9807   3.9866   3.9975   4.0094
  4.0130   4.0184   4.0277   4.0363   4.0405   4.0591   4.0636   4.0747
  4.0874   4.0961   4.1112   4.1171   4.1220   4.1278   4.1358   4.1367
  4.1421   4.1486   4.1609   4.1688   4.1722   4.1793   4.1848   4.1960
  4.2142   4.2150   4.2314   4.2338   4.2411   4.2495   4.2537   4.2545
  4.2680   4.2692   4.2823   4.2866   4.2893   4.2913   4.2997   4.3062
  4.3079   4.3173   4.3200   4.3253   4.3403   4.3407   4.3461   4.3519
  4.3623   4.3639   4.3691   4.3698   4.3762   4.3842   4.3906   4.3959
  4.4033   4.4054   4.4127   4.4169   4.4279   4.4335   4.4448   4.4514
  4.4707   4.4747   4.4851   4.4944   4.5105   4.5146   4.5203   4.5239
  4.5280   4.5366   4.5440   4.5579   4.5627   4.5751   4.5779   4.5896
  4.5915   4.5997   4.6042   4.6081   4.6186   4.6261   4.6276   4.6367
  4.6463   4.6597   4.6612   4.6721   4.6852   4.6888   4.7051   4.7064
  4.7227   4.7287   4.7391   4.7529   4.7680   4.7814   4.7870   4.8022
  4.8167   4.8265   4.8348   4.8403   4.8540   4.8657   4.8773   4.8794
  4.8873   4.8939   4.9039   4.9212   4.9242   4.9417   4.9683   4.9810
  4.9835   4.9967   5.0066   5.0178   5.0248   5.0350   5.0488   5.0607
  5.0704   5.0891   5.0975   5.1131   5.1221   5.1233   5.1245   5.1358
  5.1471   5.1635   5.1712   5.1748   5.1942   5.2074   5.2139   5.2229
  5.2561   5.2632   5.2721   5.2849   5.2897   5.2932   5.3186   5.3285
  5.3314   5.3414   5.3483   5.3591   5.3777   5.3843   5.4032   5.4150
  5.4325   5.4463   5.4680   5.4841   5.4888   5.5050   5.5145   5.5155
  5.5179   5.5358   5.5394   5.5521   5.5573   5.5610   5.5663   5.5675
  5.5789   5.5859   5.5945   5.6074   5.6157   5.6183   5.6234   5.6372
  5.6401   5.6494   5.6588   5.6623   5.6663   5.6755   5.6845   5.6936
  5.6972   5.7039   5.7218   5.7392   5.7431   5.7574   5.7699   5.7837
  5.7866   5.7895   5.8004   5.8321   5.8434   5.8502   5.8864   5.9189
  5.9383   5.9561   5.9640   5.9912   6.0156   6.0240   6.0321   6.0417
  6.0479   6.0844   6.0933   6.1117   6.1233   6.1329   6.1459   6.1846
  6.1989   6.2193   6.2249   6.2255   6.2415   6.2601   6.2641   6.2830
  6.3092   6.3112   6.3237   6.3484   6.3645   6.3856   6.4318   6.4838
  6.5161   6.5321   6.5752   6.5825   6.6037   6.6155   6.6595   6.6625
  6.6736   6.6840   6.8438   6.8499   6.8875   6.9013   6.9043   6.9197
  6.9260   6.9299   7.1003   7.1079   7.1468   7.1920   7.1990   7.2344
  7.3471   7.3516   7.3560   7.3597   7.4750   7.5423   7.5694   7.5819
  7.5850   7.5950   7.6531   7.6715   7.6912   7.7125   8.8417  10.0322
 10.3177  11.3426  11.4994  11.7470  12.0460  12.0524  12.4085  12.4610
 12.9348  13.1859  13.3229  13.5523  13.7558  13.9207  14.0973  14.2843
 14.3175  14.3593  14.5067  14.5626  15.0061  15.6071  15.8030  16.3425
 --------------------------------------------------------------
 
          Ground-State Mulliken Net Atomic Charges

     Atom                 Charge (a.u.)
  ----------------------------------------
      1 C                    -0.084692
      2 C                    -0.030450
      3 C                    -0.110554
      4 C                    -0.122652
      5 H                     0.198833
      6 C                     0.015345
      7 C                     0.122304
      8 C                    -0.086600
      9 C                    -0.175506
     10 C                    -0.121383
     11 C                     0.193780
     12 H                     0.192345
     13 C                     0.343644
     14 C                     0.348866
     15 N                    -0.090226
     16 C                     0.357566
     17 C                     0.352302
     18 N                    -0.092254
     19 O                    -0.493967
     20 O                    -0.507341
     21 O                    -0.501690
     22 O                    -0.471079
     23 C                    -0.204716
     24 H                     0.139519
     25 H                     0.109428
     26 H                     0.108909
     27 C                    -0.196986
     28 H                     0.133057
     29 H                     0.111253
     30 H                     0.112165
     31 C                    -0.024035
     32 S                     0.017286
     33 C                    -0.207763
     34 C                    -0.187530
     35 C                    -0.209089
     36 H                     0.185600
     37 H                     0.191525
     38 H                     0.210189
     39 H                     0.137632
     40 H                     0.137999
     41 H                     0.198964
  ----------------------------------------
  Sum of atomic charges =     0.000000

 -----------------------------------------------------------------
                    Cartesian Multipole Moments
 -----------------------------------------------------------------
    Charge (ESU x 10^10)
                 0.0000
    Dipole Moment (Debye)
         X      -1.0493      Y       2.1246      Z      -1.6664
       Tot       2.8969
    Quadrupole Moments (Debye-Ang)
        XX    -194.9806     XY       8.7924     YY    -177.1992
        XZ       5.6641     YZ       0.3881     ZZ    -157.3637
    Octopole Moments (Debye-Ang^2)
       XXX      48.4325    XXY     589.3847    XYY     -44.8502
       YYY    1685.3514    XXZ     -19.5496    XYZ     -23.7437
       YYZ      -3.6375    XZZ      14.8439    YZZ     474.8161
       ZZZ     -62.9012
    Hexadecapole Moments (Debye-Ang^3)
      XXXX   -6171.5260   XXXY      51.1127   XXYY   -4445.7615
      XYYY    1154.3359   YYYY  -18039.7528   XXXZ     561.8469
      XXYZ      16.3940   XYYZ     316.1696   YYYZ    -225.7450
      XXZZ   -1087.1379   XYZZ     114.8724   YYZZ   -2705.2367
      XZZZ     492.2065   YZZZ    -105.5572   ZZZZ    -641.6449
 -----------------------------------------------------------------
 Total job time:  311.64s(wall), 9008.80s(cpu) 
 Sun Sep 24 17:17:21 2023

        *************************************************************
        *                                                           *
        *  Thank you very much for using Q-Chem.  Have a nice day.  *
        *                                                           *
        *************************************************************


0 sent ACK to 0 
now end server 0 ... 
cleanup process ... done
remove work dirs ./qchem3034151.0 -- ./qchem3034151.0
rm -rf ./qchem3034151.0
rm -rf ./qchem3034151
