You are running Q-Chem version: 5.4.0

#
# job setting
#
local host:  exp-7-17
current dir: /expanse/lustre/projects/csd626/rramji/aromodel/PNDIT/Hydrogenated_Rotation_Test
input file:  Dimethyl_Naphthalene_Dicarboximide_Phi_5_Theta_270_Thiophene_Hydrogenated.qcin
output file: 
nprocs     : 1
nthreads   : 64
#
# qchem installation setting
#
QC:          /cm/shared/apps/spack/cpu/opt/spack/linux-centos8-zen2/gcc-10.2.0/qchem-5.4-akfmr7b3t57bfs6qan3padb2wnb2i7cl
QCAUX:       /cm/shared/apps/spack/cpu/opt/spack/linux-centos8-zen2/gcc-10.2.0/qchem-5.4-akfmr7b3t57bfs6qan3padb2wnb2i7cl/qcaux
QCPROG:      /cm/shared/apps/spack/cpu/opt/spack/linux-centos8-zen2/gcc-10.2.0/qchem-5.4-akfmr7b3t57bfs6qan3padb2wnb2i7cl/exe/qcprog.exe
QCPROG_S:    /cm/shared/apps/spack/cpu/opt/spack/linux-centos8-zen2/gcc-10.2.0/qchem-5.4-akfmr7b3t57bfs6qan3padb2wnb2i7cl/exe/qcprog.exe_s
PARALLEL:    -DPARALLEL
QCMPI:       mpich
#
# qchem directory setting
#
qcrun:       qchem1323044
QCSCRATCH:   .
QCLOCALSCR:  
QCTMPDIR:    .
QCFILEPREF:  ./qchem1323044
QCSAVEDIR:   
workdirs:    ./qchem1323044
workdir0:    ./qchem1323044
partmpdirs =  
#
# parallel setting
#
QCRSH:           ssh
QCMPI:           mpich
QCMPIRUN:        /cm/shared/apps/spack/cpu/opt/spack/linux-centos8-zen2/gcc-10.2.0/qchem-5.4-akfmr7b3t57bfs6qan3padb2wnb2i7cl/bin/mpi/mpirun_qchem
QCMACHINEFILE:   ./qchem1323044/hostfile
exp-7-17

#
# env setting
#
exported envs:   QC QCAUX QCSCRATCH QCRUNNAME QCFILEPREF QCPROG QCPROG_S GUIFILE

Running Job 1 of 1 Dimethyl_Naphthalene_Dicarboximide_Phi_5_Theta_270_Thiophene_Hydrogenated.qcin
qchem Dimethyl_Naphthalene_Dicarboximide_Phi_5_Theta_270_Thiophene_Hydrogenated.qcin_1323044.0 ./qchem1323044/ 1
/cm/shared/apps/spack/cpu/opt/spack/linux-centos8-zen2/gcc-10.2.0/qchem-5.4-akfmr7b3t57bfs6qan3padb2wnb2i7cl/bin/mpi/mpirun_qchem -machinefile ./qchem1323044/hostfile -np 1 /cm/shared/apps/spack/cpu/opt/spack/linux-centos8-zen2/gcc-10.2.0/qchem-5.4-akfmr7b3t57bfs6qan3padb2wnb2i7cl/exe/qcprog.exe Dimethyl_Naphthalene_Dicarboximide_Phi_5_Theta_270_Thiophene_Hydrogenated.qcin_1323044.0 ./qchem1323044/

Process 0 of 1 is on exp-7-17 - thread support 0
initial socket setup ...start
initial socket setup ...done 
now start server 0 ... 
                  Welcome to Q-Chem
     A Quantum Leap Into The Future Of Chemistry


 Q-Chem 5.4, Q-Chem, Inc., Pleasanton, CA (2021)

 License issued to: University of California, San Diego (site)

 E. Epifanovsky,  A. T. B. Gilbert,  Xintian Feng,  Joonho Lee,  Yuezhi Mao,  
 N. Mardirossian,  P. Pokhilko,  A. White,  M. Wormit,  M. P. Coons,  
 A. L. Dempwolff,  Zhengting Gan,  D. Hait,  P. R. Horn,  L. D. Jacobson,  
 I. Kaliman,  J. Kussmann,  A. W. Lange,  Ka Un Lao,  D. S. Levine,  Jie Liu,  
 S. C. McKenzie,  A. F. Morrison,  K. Nanda,  F. Plasser,  D. R. Rehn,  
 M. L. Vidal,  Zhi-Qiang You,  Ying Zhu,  B. Alam,  B. Albrecht,  
 A. Aldossary,  E. Alguire,  J. H. Andersen,  D. Barton,  K. Begam,  A. Behn,  
 Y. A. Bernard,  E. J. Berquist,  H. Burton,  A. Carreras,  K. Carter-Fenk,  
 R. Chakraborty,  A. D. Chien,  K. D. Closser,  V. Cofer-Shabica,  
 S. Dasgupta,  Jia Deng,  M. de Wergifosse,  M. Diedenhofen,  Hainam Do,  
 S. Ehlert,  Po-Tung Fang,  S. Fatehi,  Qingguo Feng,  J. Gayvert,  
 Qinghui Ge,  G. Gidofalvi,  M. Goldey,  J. Gomes,  C. Gonzalez-Espinoza,  
 S. Gulania,  A. Gunina,  M. W. D. Hanson-Heine,  P. H. P. Harbach,  
 A. W. Hauser,  M. F. Herbst,  M. Hernandez Vera,  M. Hodecker,  
 Z. C. Holden,  S. Houck,  Xunkun Huang,  Kerwin Hui,  B. C. Huynh,  
 M. Ivanov,  Hyunjun Ji,  Hanjie Jiang,  B. Kaduk,  S. Kaehler,  
 K. Khistyaev,  Jaehoon Kim,  P. Klunzinger,  Z. Koczor-Benda,  
 Joong Hoon Koh,  D. Kosenkov,  L. Koulias,  T. Kowalczyk,  C. M. Krauter,  
 K. Kue,  A. Kunitsa,  T. Kus,  A. Landau,  K. V. Lawler,  D. Lefrancois,  
 S. Lehtola,  Rain Li,  Yi-Pei Li,  Jiashu Liang,  M. Liebenthal,  
 Hung-Hsuan Lin,  You-Sheng Lin,  Fenglai Liu,  Kuan-Yu Liu,  
 M. Loipersberger,  A. Luenser,  A. Manjanath,  P. Manohar,  E. Mansoor,  
 S. F. Manzer,  Shan-Ping Mao,  A. V. Marenich,  T. Markovich,  S. Mason,  
 S. A. Maurer,  P. F. McLaughlin,  M. F. S. J. Menger,  J.-M. Mewes,  
 S. A. Mewes,  P. Morgante,  J. W. Mullinax,  T. S. Nguyen-Beck,  
 K. J. Oosterbaan,  G. Paran,  Alexander C. Paul,  Suranjan K. Paul,  
 F. Pavosevic,  Zheng Pei,  S. Prager,  E. I. Proynov,  E. Ramos,  B. Rana,  
 A. E. Rask,  A. Rettig,  R. M. Richard,  F. Rob,  E. Rossomme,  T. Scheele,  
 M. Scheurer,  M. Schneider,  N. Sergueev,  S. M. Sharada,  W. Skomorowski,  
 D. W. Small,  C. J. Stein,  Yu-Chuan Su,  E. J. Sundstrom,  Zhen Tao,  
 J. Thirman,  T. Tsuchimochi,  N. M. Tubman,  S. P. Veccham,  O. Vydrov,  
 J. Wenzel,  J. Witte,  A. Yamada,  Kun Yao,  S. Yeganeh,  S. R. Yost,  
 A. Zech,  Igor Ying Zhang,  Xing Zhang,  Yu Zhang,  D. Zuev,  
 A. Aspuru-Guzik,  A. T. Bell,  N. A. Besley,  K. B. Bravaya,  B. R. Brooks,  
 D. Casanova,  Jeng-Da Chai,  S. Coriani,  C. J. Cramer,  
 A. E. DePrince, III,  R. A. DiStasio Jr.,  A. Dreuw,  B. D. Dunietz,  
 T. R. Furlani,  W. A. Goddard III,  S. Grimme,  S. Hammes-Schiffer,  
 T. Head-Gordon,  W. J. Hehre,  Chao-Ping Hsu,  T.-C. Jagau,  Yousung Jung,  
 A. Klamt,  Jing Kong,  D. S. Lambrecht,  WanZhen Liang,  N. J. Mayhall,  
 C. W. McCurdy,  J. B. Neaton,  C. Ochsenfeld,  J. A. Parkhill,  R. Peverati,  
 V. A. Rassolov,  Yihan Shao,  L. V. Slipchenko,  T. Stauch,  R. P. Steele,  
 J. E. Subotnik,  A. J. W. Thom,  A. Tkatchenko,  D. G. Truhlar,  
 T. Van Voorhis,  T. A. Wesolowski,  K. B. Whaley,  H. L. Woodcock III,  
 P. M. Zimmerman,  S. Faraji,  P. M. W. Gill,  M. Head-Gordon,  
 J. M. Herbert,  A. I. Krylov

 Contributors to earlier versions of Q-Chem not listed above: 
 R. D. Adamson,  B. Austin,  R. Baer,  J. Baker,  G. J. O. Beran,  
 K. Brandhorst,  S. T. Brown,  E. F. C. Byrd,  A. K. Chakraborty,  
 G. K. L. Chan,  Chun-Min Chang,  Yunqing Chen,  C.-L. Cheng,  
 Siu Hung Chien,  D. M. Chipman,  D. L. Crittenden,  H. Dachsel,  
 R. J. Doerksen,  A. D. Dutoi,  R. G. Edgar,  J. Fosso-Tande,  
 L. Fusti-Molnar,  D. Ghosh,  A. Ghysels,  A. Golubeva-Zadorozhnaya,  
 J. Gonthier,  M. S. Gordon,  S. R. Gwaltney,  G. Hawkins,  J. E. Herr,  
 A. Heyden,  S. Hirata,  E. G. Hohenstein,  G. Kedziora,  F. J. Keil,  
 C. Kelley,  Jihan Kim,  R. A. King,  R. Z. Khaliullin,  P. P. Korambath,  
 W. Kurlancheek,  A. Laurent,  A. M. Lee,  M. S. Lee,  S. V. Levchenko,  
 Ching Yeh Lin,  D. Liotard,  E. Livshits,  R. C. Lochan,  I. Lotan,  
 L. A. Martinez-Martinez,  P. E. Maslen,  N. Nair,  D. P. O'Neill,  
 D. Neuhauser,  E. Neuscamman,  C. M. Oana,  R. Olivares-Amaya,  R. Olson,  
 T. M. Perrine,  B. Peters,  P. A. Pieniazek,  A. Prociuk,  Y. M. Rhee,  
 J. Ritchie,  M. A. Rohrdanz,  E. Rosta,  N. J. Russ,  H. F. Schaefer III,  
 M. W. Schmidt,  N. E. Schultz,  S. Sharma,  N. Shenvi,  C. D. Sherrill,  
 A. C. Simmonett,  A. Sodt,  T. Stein,  D. Stuck,  K. S. Thanthiriwatte,  
 V. Vanovschi,  L. Vogt,  Tao Wang,  A. Warshel,  M. A. Watson,  
 C. F. Williams,  Q. Wu,  X. Xu,  Jun Yang,  W. Zhang,  Yan Zhao

 Please cite Q-Chem as follows:
 Y. Shao et al., Mol. Phys. 113, 184-215 (2015)
 DOI: 10.1080/00268976.2014.952696

 Q-Chem 5.4.0 for Intel X86 EM64T Linux

 Parts of Q-Chem use Armadillo 9.800.1 (Horizon Scraper).
 http://arma.sourceforge.net/

 Q-Chem begins on Wed Sep 27 00:06:14 2023  

 Host: 
0

     Scratch files written to ./qchem1323044//
 May1621 |scratch|qcdevops|jenkins|workspace|build_RNUM    
 Parallel job on  1  processors
 Processing $rem in /cm/shared/apps/spack/cpu/opt/spack/linux-centos8-zen2/gcc-10.2.0/qchem-5.4-akfmr7b3t57bfs6qan3padb2wnb2i7cl/config/preferences:
 Processing $rem in /home/rramji/.qchemrc:
 Symmetry turned off for PCM/SM12/SMD calculation
 Core orbitals will be frozen

 Checking the input file for inconsistencies... 	...done.

 Q-Chem warning in module forms1/BasisType.C, line 2236:

 You are not using the predefined 5D/6D in this basis set.


--------------------------------------------------------------
User input:
--------------------------------------------------------------
$molecule
0 1
C	-0.256927	-6.741404	0.001478
C	-1.562675	-6.155638	0.001603
C	0.827197	-5.791452	0.001931
C	-1.841253	-4.803786	0.001374
H	-2.440709	-6.821518	0.001794
C	0.535488	-4.378638	0.001227
C	-0.794999	-3.838032	0.000872
C	1.580529	-3.413062	0.000658
C	-1.084374	-2.426473	0.000186
C	1.305258	-2.059348	0.000046
C	0.000000	-1.478216	0.000000
H	2.184267	-1.394783	-0.000369
C	2.269719	-6.187987	0.003770
C	3.011152	-3.798164	0.000767
N	3.254617	-5.170003	0.002465
C	-3.275775	-4.424987	0.001433
C	-2.527951	-2.036627	-0.000576
N	-3.513104	-3.049156	0.000400
O	2.661046	-7.353131	0.006623
O	3.934410	-2.986854	-0.000172
O	-4.188059	-5.248946	0.002151
O	-2.940845	-0.878829	-0.002006
C	4.667206	-5.563799	0.003509
H	4.712423	-6.664085	0.004658
H	5.169231	-5.147101	0.897610
H	5.169992	-5.148785	-0.890935
C	-4.904229	-2.587487	-0.000039
H	-5.546833	-3.483329	0.001022
H	-5.095998	-1.964972	-0.894545
H	-5.095858	-1.962932	0.893071
C	0.000000	0.000000	0.000000
S	0.068929	0.790170	1.580530
C	0.211639	2.421655	0.904911
C	0.086813	0.994207	-0.985400
C	0.201782	2.309433	-0.493528
H	0.066299	0.759454	-2.059934
H	0.278488	3.187020	-1.152593
H	0.288312	3.298992	1.556025
H	-0.149881	-7.361589	-0.896779
H	-0.150656	-7.361192	0.900100
H	0.000531	-1.478831	-1.080000
$end

$rem
JOBTYPE		SP
EXCHANGE	HF
CORRELATION	pRIMP2
BASIS		cc-pvtz
METHOD		rimp2
AUX_BASIS	rimp2-cc-pvtz
SOLVENT_METHOD	PCM
PURECART	11111
SYMMETRY	false
MEM_TOTAL	110000
SCF_CONVERGENCE = 6
THRESH=10
GUI = 2
$end



$solvent
dielectric 4.90
$end
--------------------------------------------------------------
 ----------------------------------------------------------------
             Standard Nuclear Orientation (Angstroms)
    I     Atom           X                Y                Z
 ----------------------------------------------------------------
    1      C      -0.2569270000    -6.7414040000     0.0014780000
    2      C      -1.5626750000    -6.1556380000     0.0016030000
    3      C       0.8271970000    -5.7914520000     0.0019310000
    4      C      -1.8412530000    -4.8037860000     0.0013740000
    5      H      -2.4407090000    -6.8215180000     0.0017940000
    6      C       0.5354880000    -4.3786380000     0.0012270000
    7      C      -0.7949990000    -3.8380320000     0.0008720000
    8      C       1.5805290000    -3.4130620000     0.0006580000
    9      C      -1.0843740000    -2.4264730000     0.0001860000
   10      C       1.3052580000    -2.0593480000     0.0000460000
   11      C       0.0000000000    -1.4782160000     0.0000000000
   12      H       2.1842670000    -1.3947830000    -0.0003690000
   13      C       2.2697190000    -6.1879870000     0.0037700000
   14      C       3.0111520000    -3.7981640000     0.0007670000
   15      N       3.2546170000    -5.1700030000     0.0024650000
   16      C      -3.2757750000    -4.4249870000     0.0014330000
   17      C      -2.5279510000    -2.0366270000    -0.0005760000
   18      N      -3.5131040000    -3.0491560000     0.0004000000
   19      O       2.6610460000    -7.3531310000     0.0066230000
   20      O       3.9344100000    -2.9868540000    -0.0001720000
   21      O      -4.1880590000    -5.2489460000     0.0021510000
   22      O      -2.9408450000    -0.8788290000    -0.0020060000
   23      C       4.6672060000    -5.5637990000     0.0035090000
   24      H       4.7124230000    -6.6640850000     0.0046580000
   25      H       5.1692310000    -5.1471010000     0.8976100000
   26      H       5.1699920000    -5.1487850000    -0.8909350000
   27      C      -4.9042290000    -2.5874870000    -0.0000390000
   28      H      -5.5468330000    -3.4833290000     0.0010220000
   29      H      -5.0959980000    -1.9649720000    -0.8945450000
   30      H      -5.0958580000    -1.9629320000     0.8930710000
   31      C       0.0000000000     0.0000000000     0.0000000000
   32      S       0.0689290000     0.7901700000     1.5805300000
   33      C       0.2116390000     2.4216550000     0.9049110000
   34      C       0.0868130000     0.9942070000    -0.9854000000
   35      C       0.2017820000     2.3094330000    -0.4935280000
   36      H       0.0662990000     0.7594540000    -2.0599340000
   37      H       0.2784880000     3.1870200000    -1.1525930000
   38      H       0.2883120000     3.2989920000     1.5560250000
   39      H      -0.1498810000    -7.3615890000    -0.8967790000
   40      H      -0.1506560000    -7.3611920000     0.9001000000
   41      H       0.0005310000    -1.4788310000    -1.0800000000
 ----------------------------------------------------------------
 Nuclear Repulsion Energy =        2545.96145723 hartrees
 There are       98 alpha and       98 beta electrons
 Requested basis set is cc-pVTZ
 There are 356 shells and 1010 basis functions

 Total QAlloc Memory Limit 110000 MB
 Mega-Array Size       188 MB
 MEM_STATIC part       192 MB
 Discretize the solute cavity surface with Lebedev spheres
	Using 110 Lebedev grid points for each H atom
	Using 194 Lebedev grid points for other atoms
	Atomic van der Waals radii will be scaled by 1.20
 Remove points where switching function is < 1.0e-08
 Keep 2631 surface tesserae and discard 4147 interior tesserae
 Molecular Surface Area = 375.488 Angst**2
 Requested basis set is rimp2-cc-pVTZ
 There are 770 shells and 2648 basis functions
 A cutoff of  1.0D-10 yielded  33976 shell pairs
 There are    256814 function pairs (    332399 Cartesian)
 Smallest overlap matrix eigenvalue = 8.91E-06

 Q-Chem warning in module stvman/mkSTV.C, line 323:

 Overlap eigenvalue is smaller than square root of threshold
 Use THRESH >= 12 to get rid of this warning


 Scale SEOQF with 1.000000e-02/1.000000e-02/1.000000e-01

 Standard Electronic Orientation quadrupole field applied
 Nucleus-field energy     =     0.0000000205 hartrees
 Guess from superposition of atomic densities
 Warning:  Energy on first SCF cycle will be non-variational
 SAD guess density has 196.000000 electrons

 -----------------------------------------------------------------------
  General SCF calculation program by
  Eric Jon Sundstrom, Paul Horn, Yuezhi Mao, Dmitri Zuev, Alec White,
  David Stuck, Shaama M.S., Shane Yost, Joonho Lee, David Small,
  Daniel Levine, Susi Lehtola, Hugh Burton, Evgeny Epifanovsky,
  Bang C. Huynh
 -----------------------------------------------------------------------
 Hartree-Fock
 using 64 threads for integral computing
 -------------------------------------------------------
 OpenMP Integral computing Module                
 Release: version 1.0, May 2013, Q-Chem Inc. Pittsburgh 
 -------------------------------------------------------
 A restricted SCF calculation will be
 performed using DIIS
 SCF converges when DIIS error is below 1.0e-06
 ---------------------------------------
  Cycle       Energy         DIIS error
 ---------------------------------------
    1   -1583.0801507037      1.86e-02  
    2   -1571.1751834393      2.03e-03  
    3   -1571.5139283204      1.55e-03  
    4   -1571.7351489391      2.52e-04  
    5   -1571.7487424949      7.68e-05  
    6   -1571.7500989662      2.93e-05  
    7   -1571.7504910456      1.51e-05  
    8   -1571.7505966367      6.04e-06  
    9   -1571.7506143274      2.77e-06  
   10   -1571.7506177434      1.16e-06  
   11   -1571.7506187749      5.43e-07  Convergence criterion met
 ---------------------------------------
 SCF time:   CPU 6928.48s  wall 261.00s 

************** Final PCM Free Energy Summary **************
 G_electrostatic  =      -0.03198402 hartree =     -20.07027831 kcal/mol
 G_cavitation     =       0.00000000 hartree =       0.00000000 kcal/mol
 G_dispersion     =       0.00000000 hartree =       0.00000000 kcal/mol
 G_repulsion      =       0.00000000 hartree =       0.00000000 kcal/mol
 --------------------------------------------------
 Non-electrostatic Free Energy =       0.00000000 hartree =       0.00000000 kcal/mol
 Total                         =      -0.03198402 hartree =     -20.07027831 kcal/mol
 --------------------------------------------------
 SCF Energy (H0 + V/2)                       =   -1571.75061877 
 Solute Internal Energy (H0)                 =   -1571.71863475 
 Total Free Energy (H0 + V/2 + non-elec)     =   -1571.75061877 hartree
                                             = -986288.39933135 kcal/mol
***********************************************************

 SCF   energy in the final basis set =    -1571.7506187749
 Total energy in the final basis set =    -1571.7506187749


 --------------------------------------------------------------
  Generalized many-body perturbation theory program
  by Joonho Lee, Fazle Rob, Xintian Feng, Evgeny Epifanovsky

 No regularization used 
 (reg. param. = 0.0000e+00)
  (P|Q)^-1/2 Time:  CPU 114.17 s  wall 1.87 s

 In RI-MP2 calculation: 
 # of frozen core orbitals: 31

 Components of the RIMP2 correlation energy:
        aaaa    correlation energy =        -0.6145467060 a.u.
        abab    correlation energy =        -3.4243805119 a.u.
        bbbb    correlation energy =        -0.6145467060 a.u.
        non-Brillouin singles      =        -0.0000000000 a.u.
        total same-spin energy     =        -1.2290934120 a.u.
        total opposite-spin energy =        -3.4243805119 a.u.

 Total  RIMP2   correlation energy =        -4.6534739239 a.u.
        RIMP2         total energy =     -1576.4040926988 a.u.

 RI-MP2 Energy Time:  CPU 1986.25 s  wall 32.38 s
 
 --------------------------------------------------------------
 
                    Orbital Energies (a.u.)
 --------------------------------------------------------------
 
 Alpha MOs
 -- Occupied --
-91.9875 -20.5522 -20.5444 -20.5421 -20.5408 -15.6268 -15.6215 -11.3933
-11.3851 -11.3839 -11.3795 -11.3094 -11.3085 -11.3052 -11.3049 -11.2979
-11.2965 -11.2899 -11.2815 -11.2696 -11.2681 -11.2651 -11.2627 -11.2596
-11.2577 -11.2529 -11.2508  -8.9872  -6.6681  -6.6676  -6.6670  -1.4193
 -1.4125  -1.3971  -1.3917  -1.2620  -1.2557  -1.2297  -1.1863  -1.1528
 -1.1143  -1.0867  -1.0468  -0.9953  -0.9878  -0.9846  -0.9551  -0.9514
 -0.8965  -0.8877  -0.8767  -0.8601  -0.7951  -0.7770  -0.7708  -0.7621
 -0.7428  -0.7175  -0.7045  -0.6918  -0.6806  -0.6720  -0.6666  -0.6573
 -0.6471  -0.6440  -0.6361  -0.6330  -0.6310  -0.6278  -0.6221  -0.6046
 -0.5848  -0.5756  -0.5670  -0.5614  -0.5572  -0.5513  -0.5506  -0.5481
 -0.5467  -0.5437  -0.5194  -0.5169  -0.5092  -0.4827  -0.4751  -0.4618
 -0.4580  -0.4512  -0.4430  -0.4348  -0.4133  -0.4075  -0.3563  -0.3505
 -0.3279  -0.2908
 -- Virtual --
  0.0146   0.0429   0.0899   0.0953   0.1360   0.1498   0.1541   0.1604
  0.1636   0.1729   0.1784   0.1830   0.1868   0.1878   0.1963   0.1984
  0.2047   0.2216   0.2277   0.2296   0.2305   0.2318   0.2333   0.2370
  0.2653   0.2687   0.2890   0.3026   0.3127   0.3196   0.3204   0.3235
  0.3279   0.3394   0.3473   0.3515   0.3556   0.3616   0.3660   0.3716
  0.3750   0.3777   0.3799   0.3828   0.3884   0.3924   0.3983   0.4046
  0.4108   0.4193   0.4244   0.4324   0.4367   0.4385   0.4443   0.4480
  0.4492   0.4539   0.4585   0.4672   0.4689   0.4735   0.4796   0.4926
  0.4940   0.4988   0.5023   0.5074   0.5151   0.5230   0.5264   0.5306
  0.5320   0.5401   0.5430   0.5472   0.5506   0.5598   0.5611   0.5651
  0.5681   0.5727   0.5787   0.5820   0.5877   0.5912   0.5930   0.5986
  0.6014   0.6043   0.6074   0.6115   0.6139   0.6171   0.6230   0.6264
  0.6275   0.6330   0.6355   0.6359   0.6368   0.6407   0.6473   0.6517
  0.6559   0.6606   0.6616   0.6749   0.6797   0.6903   0.6946   0.6985
  0.7023   0.7107   0.7233   0.7305   0.7327   0.7368   0.7502   0.7579
  0.7617   0.7652   0.7702   0.7773   0.7804   0.7864   0.7884   0.7963
  0.8040   0.8084   0.8156   0.8206   0.8260   0.8305   0.8423   0.8475
  0.8487   0.8534   0.8588   0.8653   0.8664   0.8723   0.8754   0.8831
  0.8934   0.8971   0.9030   0.9071   0.9110   0.9179   0.9245   0.9317
  0.9326   0.9427   0.9448   0.9573   0.9606   0.9659   0.9689   0.9705
  0.9797   0.9800   0.9916   0.9972   1.0013   1.0044   1.0098   1.0181
  1.0193   1.0272   1.0331   1.0427   1.0472   1.0528   1.0594   1.0617
  1.0691   1.0695   1.0717   1.0769   1.0820   1.0885   1.0918   1.0991
  1.1054   1.1182   1.1207   1.1296   1.1301   1.1327   1.1397   1.1460
  1.1508   1.1585   1.1618   1.1631   1.1652   1.1703   1.1804   1.1842
  1.1899   1.1963   1.1993   1.2039   1.2091   1.2126   1.2222   1.2261
  1.2310   1.2342   1.2400   1.2413   1.2545   1.2570   1.2594   1.2692
  1.2810   1.2864   1.2973   1.3052   1.3112   1.3248   1.3311   1.3346
  1.3428   1.3494   1.3579   1.3631   1.3684   1.3719   1.3775   1.3864
  1.3900   1.3938   1.3959   1.4050   1.4112   1.4242   1.4329   1.4376
  1.4479   1.4585   1.4667   1.4739   1.4787   1.4832   1.4901   1.4943
  1.5019   1.5035   1.5069   1.5145   1.5279   1.5301   1.5366   1.5391
  1.5414   1.5452   1.5535   1.5564   1.5621   1.5683   1.5719   1.5751
  1.5775   1.5868   1.5965   1.6067   1.6154   1.6251   1.6355   1.6365
  1.6417   1.6549   1.6650   1.6740   1.6773   1.6877   1.6901   1.6951
  1.7021   1.7095   1.7195   1.7269   1.7376   1.7453   1.7526   1.7596
  1.7618   1.7674   1.7744   1.7782   1.7821   1.7948   1.8038   1.8141
  1.8196   1.8301   1.8426   1.8455   1.8508   1.8628   1.8654   1.8727
  1.8736   1.8774   1.8886   1.9022   1.9070   1.9253   1.9284   1.9363
  1.9427   1.9622   1.9690   1.9714   1.9872   1.9891   2.0096   2.0135
  2.0287   2.0456   2.0507   2.0716   2.0866   2.0961   2.1053   2.1248
  2.1283   2.1399   2.1486   2.1656   2.1707   2.1862   2.2005   2.2214
  2.2279   2.2320   2.2435   2.2698   2.2838   2.2911   2.2944   2.3003
  2.3118   2.3187   2.3338   2.3395   2.3500   2.3684   2.3689   2.3891
  2.4034   2.4171   2.4266   2.4370   2.4460   2.4575   2.4593   2.4611
  2.4745   2.4873   2.4934   2.5031   2.5070   2.5267   2.5361   2.5406
  2.5605   2.5615   2.5753   2.5840   2.5861   2.5916   2.6016   2.6127
  2.6251   2.6301   2.6373   2.6411   2.6496   2.6609   2.6663   2.6789
  2.6814   2.6873   2.6945   2.7049   2.7153   2.7188   2.7265   2.7370
  2.7458   2.7506   2.7521   2.7583   2.7676   2.7740   2.7819   2.7861
  2.8155   2.8261   2.8319   2.8386   2.8478   2.8515   2.8561   2.8618
  2.8697   2.8790   2.8824   2.8948   2.8972   2.9062   2.9080   2.9170
  2.9205   2.9232   2.9286   2.9384   2.9530   2.9571   2.9673   2.9742
  2.9790   2.9880   2.9910   2.9974   3.0029   3.0127   3.0146   3.0254
  3.0321   3.0386   3.0451   3.0507   3.0657   3.0718   3.0834   3.0860
  3.0964   3.0988   3.1026   3.1065   3.1092   3.1165   3.1213   3.1277
  3.1354   3.1394   3.1494   3.1529   3.1593   3.1643   3.1707   3.1796
  3.1819   3.1908   3.1933   3.2021   3.2060   3.2075   3.2173   3.2218
  3.2319   3.2327   3.2366   3.2424   3.2480   3.2544   3.2631   3.2656
  3.2690   3.2732   3.2828   3.2885   3.2917   3.2938   3.2990   3.3087
  3.3091   3.3121   3.3206   3.3238   3.3247   3.3294   3.3361   3.3385
  3.3425   3.3447   3.3497   3.3528   3.3567   3.3668   3.3698   3.3744
  3.3784   3.3805   3.3842   3.3885   3.3962   3.3980   3.3992   3.4075
  3.4199   3.4206   3.4256   3.4309   3.4328   3.4337   3.4442   3.4498
  3.4551   3.4618   3.4634   3.4732   3.4774   3.4791   3.4875   3.4891
  3.4946   3.4969   3.5062   3.5094   3.5124   3.5165   3.5186   3.5254
  3.5313   3.5342   3.5400   3.5482   3.5562   3.5624   3.5689   3.5826
  3.5900   3.5947   3.5973   3.6017   3.6086   3.6138   3.6223   3.6263
  3.6287   3.6330   3.6351   3.6435   3.6447   3.6518   3.6584   3.6614
  3.6693   3.6727   3.6788   3.6895   3.6924   3.7017   3.7045   3.7089
  3.7180   3.7305   3.7328   3.7356   3.7409   3.7432   3.7510   3.7511
  3.7614   3.7640   3.7678   3.7724   3.7791   3.7859   3.7920   3.7948
  3.8029   3.8122   3.8137   3.8208   3.8246   3.8303   3.8380   3.8428
  3.8503   3.8557   3.8615   3.8667   3.8785   3.8933   3.8948   3.8994
  3.9067   3.9121   3.9217   3.9325   3.9406   3.9460   3.9500   3.9536
  3.9577   3.9627   3.9723   3.9732   3.9800   3.9843   3.9984   4.0070
  4.0116   4.0186   4.0298   4.0348   4.0398   4.0588   4.0627   4.0744
  4.0869   4.0943   4.1114   4.1160   4.1170   4.1264   4.1329   4.1364
  4.1428   4.1495   4.1624   4.1693   4.1715   4.1777   4.1831   4.1976
  4.2130   4.2135   4.2355   4.2373   4.2413   4.2503   4.2520   4.2551
  4.2683   4.2736   4.2794   4.2871   4.2904   4.2917   4.2988   4.3074
  4.3096   4.3166   4.3202   4.3255   4.3389   4.3406   4.3454   4.3524
  4.3606   4.3636   4.3689   4.3701   4.3764   4.3907   4.3923   4.3960
  4.4033   4.4053   4.4124   4.4142   4.4280   4.4328   4.4455   4.4513
  4.4686   4.4735   4.4866   4.4951   4.5064   4.5149   4.5199   4.5238
  4.5290   4.5365   4.5453   4.5570   4.5638   4.5745   4.5795   4.5890
  4.5924   4.5998   4.6026   4.6076   4.6167   4.6223   4.6302   4.6382
  4.6461   4.6583   4.6610   4.6724   4.6845   4.6912   4.7026   4.7103
  4.7262   4.7288   4.7359   4.7509   4.7683   4.7816   4.7871   4.8024
  4.8123   4.8317   4.8361   4.8451   4.8526   4.8616   4.8762   4.8800
  4.8889   4.8921   4.9055   4.9187   4.9249   4.9442   4.9701   4.9720
  4.9862   4.9976   5.0019   5.0187   5.0221   5.0322   5.0488   5.0629
  5.0704   5.0959   5.0994   5.1163   5.1220   5.1229   5.1275   5.1378
  5.1454   5.1637   5.1697   5.1764   5.1930   5.2059   5.2129   5.2235
  5.2558   5.2633   5.2704   5.2837   5.2897   5.2968   5.3198   5.3286
  5.3314   5.3410   5.3502   5.3535   5.3777   5.3843   5.4034   5.4146
  5.4283   5.4465   5.4706   5.4862   5.4889   5.5041   5.5144   5.5154
  5.5181   5.5334   5.5377   5.5523   5.5574   5.5604   5.5653   5.5677
  5.5792   5.5860   5.5920   5.6082   5.6139   5.6193   5.6245   5.6374
  5.6428   5.6499   5.6591   5.6625   5.6662   5.6753   5.6868   5.6936
  5.6981   5.7030   5.7227   5.7403   5.7429   5.7578   5.7698   5.7839
  5.7852   5.7879   5.8029   5.8322   5.8436   5.8453   5.8876   5.9139
  5.9369   5.9575   5.9649   5.9914   6.0169   6.0228   6.0319   6.0415
  6.0480   6.0829   6.0945   6.1114   6.1232   6.1336   6.1455   6.1838
  6.1987   6.2193   6.2247   6.2254   6.2412   6.2579   6.2631   6.2830
  6.3090   6.3134   6.3237   6.3488   6.3640   6.3850   6.4287   6.4831
  6.5157   6.5331   6.5749   6.5824   6.6036   6.6160   6.6594   6.6629
  6.6735   6.6828   6.8425   6.8498   6.8871   6.9009   6.9042   6.9192
  6.9254   6.9292   7.0997   7.1075   7.1465   7.1912   7.1989   7.2342
  7.3469   7.3513   7.3552   7.3593   7.4746   7.5420   7.5690   7.5814
  7.5848   7.5946   7.6529   7.6702   7.6907   7.7121   8.8276  10.0314
 10.3069  11.3389  11.4985  11.7473  12.0417  12.0493  12.4109  12.4622
 12.9259  13.1848  13.3267  13.5534  13.7564  13.9217  14.0959  14.2779
 14.3161  14.3577  14.5080  14.5637  14.9974  15.6077  15.7987  16.3530
 --------------------------------------------------------------
 
          Ground-State Mulliken Net Atomic Charges

     Atom                 Charge (a.u.)
  ----------------------------------------
      1 C                    -0.084730
      2 C                    -0.030915
      3 C                    -0.110407
      4 C                    -0.122021
      5 H                     0.198814
      6 C                     0.014554
      7 C                     0.122497
      8 C                    -0.087099
      9 C                    -0.181839
     10 C                    -0.110356
     11 C                     0.183407
     12 H                     0.194662
     13 C                     0.343700
     14 C                     0.348061
     15 N                    -0.090335
     16 C                     0.357571
     17 C                     0.349040
     18 N                    -0.092932
     19 O                    -0.493937
     20 O                    -0.506958
     21 O                    -0.501568
     22 O                    -0.472169
     23 C                    -0.204695
     24 H                     0.139490
     25 H                     0.109427
     26 H                     0.108982
     27 C                    -0.196859
     28 H                     0.133234
     29 H                     0.111107
     30 H                     0.112162
     31 C                    -0.010880
     32 S                     0.014152
     33 C                    -0.208639
     34 C                    -0.187637
     35 C                    -0.207987
     36 H                     0.184815
     37 H                     0.192014
     38 H                     0.210467
     39 H                     0.137614
     40 H                     0.137923
     41 H                     0.198273
  ----------------------------------------
  Sum of atomic charges =     0.000000

 -----------------------------------------------------------------
                    Cartesian Multipole Moments
 -----------------------------------------------------------------
    Charge (ESU x 10^10)
                 0.0000
    Dipole Moment (Debye)
         X      -0.6911      Y       2.1339      Z      -1.8542
       Tot       2.9102
    Quadrupole Moments (Debye-Ang)
        XX    -195.9163     XY       9.5963     YY    -177.1409
        XZ       0.0719     YZ       1.9159     ZZ    -156.3357
    Octopole Moments (Debye-Ang^2)
       XXX      35.7343    XXY     593.9220    XYY     -45.2183
       YYY    1685.5871    XXZ     -16.4140    XYZ       0.5909
       YYZ     -11.5757    XZZ      12.2637    YZZ     470.8350
       ZZZ     -54.9526
    Hexadecapole Moments (Debye-Ang^3)
      XXXX   -6373.5808   XXXY      15.8262   XXYY   -4499.2043
      XYYY    1158.4844   YYYY  -18038.0394   XXXZ      -5.4192
      XXYZ     -18.2583   XYYZ      -0.1399   YYYZ     -22.5921
      XXZZ   -1074.9313   XYZZ     121.8874   YYZZ   -2649.0455
      XZZZ      -4.4429   YZZZ     -41.1961   ZZZZ    -468.4579
 -----------------------------------------------------------------
 Total job time:  298.69s(wall), 9012.19s(cpu) 
 Wed Sep 27 00:11:13 2023

        *************************************************************
        *                                                           *
        *  Thank you very much for using Q-Chem.  Have a nice day.  *
        *                                                           *
        *************************************************************


0 sent ACK to 0 
now end server 0 ... 
cleanup process ... done
remove work dirs ./qchem1323044.0 -- ./qchem1323044.0
rm -rf ./qchem1323044.0
rm -rf ./qchem1323044
