You are running Q-Chem version: 5.4.0

#
# job setting
#
local host:  exp-2-20
current dir: /expanse/lustre/projects/csd626/rramji/aromodel/PNDIT/Hydrogenated_Rotation_Test
input file:  Dimethyl_Naphthalene_Dicarboximide_Phi_0_Theta_190_Thiophene_Hydrogenated.qcin
output file: 
nprocs     : 1
nthreads   : 64
#
# qchem installation setting
#
QC:          /cm/shared/apps/spack/cpu/opt/spack/linux-centos8-zen2/gcc-10.2.0/qchem-5.4-akfmr7b3t57bfs6qan3padb2wnb2i7cl
QCAUX:       /cm/shared/apps/spack/cpu/opt/spack/linux-centos8-zen2/gcc-10.2.0/qchem-5.4-akfmr7b3t57bfs6qan3padb2wnb2i7cl/qcaux
QCPROG:      /cm/shared/apps/spack/cpu/opt/spack/linux-centos8-zen2/gcc-10.2.0/qchem-5.4-akfmr7b3t57bfs6qan3padb2wnb2i7cl/exe/qcprog.exe
QCPROG_S:    /cm/shared/apps/spack/cpu/opt/spack/linux-centos8-zen2/gcc-10.2.0/qchem-5.4-akfmr7b3t57bfs6qan3padb2wnb2i7cl/exe/qcprog.exe_s
PARALLEL:    -DPARALLEL
QCMPI:       mpich
#
# qchem directory setting
#
qcrun:       qchem3028844
QCSCRATCH:   .
QCLOCALSCR:  
QCTMPDIR:    .
QCFILEPREF:  ./qchem3028844
QCSAVEDIR:   
workdirs:    ./qchem3028844
workdir0:    ./qchem3028844
partmpdirs =  
#
# parallel setting
#
QCRSH:           ssh
QCMPI:           mpich
QCMPIRUN:        /cm/shared/apps/spack/cpu/opt/spack/linux-centos8-zen2/gcc-10.2.0/qchem-5.4-akfmr7b3t57bfs6qan3padb2wnb2i7cl/bin/mpi/mpirun_qchem
QCMACHINEFILE:   ./qchem3028844/hostfile
exp-2-20

#
# env setting
#
exported envs:   QC QCAUX QCSCRATCH QCRUNNAME QCFILEPREF QCPROG QCPROG_S GUIFILE

Running Job 1 of 1 Dimethyl_Naphthalene_Dicarboximide_Phi_0_Theta_190_Thiophene_Hydrogenated.qcin
qchem Dimethyl_Naphthalene_Dicarboximide_Phi_0_Theta_190_Thiophene_Hydrogenated.qcin_3028844.0 ./qchem3028844/ 1
/cm/shared/apps/spack/cpu/opt/spack/linux-centos8-zen2/gcc-10.2.0/qchem-5.4-akfmr7b3t57bfs6qan3padb2wnb2i7cl/bin/mpi/mpirun_qchem -machinefile ./qchem3028844/hostfile -np 1 /cm/shared/apps/spack/cpu/opt/spack/linux-centos8-zen2/gcc-10.2.0/qchem-5.4-akfmr7b3t57bfs6qan3padb2wnb2i7cl/exe/qcprog.exe Dimethyl_Naphthalene_Dicarboximide_Phi_0_Theta_190_Thiophene_Hydrogenated.qcin_3028844.0 ./qchem3028844/

Process 0 of 1 is on exp-2-20 - thread support 0
initial socket setup ...start
initial socket setup ...done 
now start server 0 ... 
                  Welcome to Q-Chem
     A Quantum Leap Into The Future Of Chemistry


 Q-Chem 5.4, Q-Chem, Inc., Pleasanton, CA (2021)

 License issued to: University of California, San Diego (site)

 E. Epifanovsky,  A. T. B. Gilbert,  Xintian Feng,  Joonho Lee,  Yuezhi Mao,  
 N. Mardirossian,  P. Pokhilko,  A. White,  M. Wormit,  M. P. Coons,  
 A. L. Dempwolff,  Zhengting Gan,  D. Hait,  P. R. Horn,  L. D. Jacobson,  
 I. Kaliman,  J. Kussmann,  A. W. Lange,  Ka Un Lao,  D. S. Levine,  Jie Liu,  
 S. C. McKenzie,  A. F. Morrison,  K. Nanda,  F. Plasser,  D. R. Rehn,  
 M. L. Vidal,  Zhi-Qiang You,  Ying Zhu,  B. Alam,  B. Albrecht,  
 A. Aldossary,  E. Alguire,  J. H. Andersen,  D. Barton,  K. Begam,  A. Behn,  
 Y. A. Bernard,  E. J. Berquist,  H. Burton,  A. Carreras,  K. Carter-Fenk,  
 R. Chakraborty,  A. D. Chien,  K. D. Closser,  V. Cofer-Shabica,  
 S. Dasgupta,  Jia Deng,  M. de Wergifosse,  M. Diedenhofen,  Hainam Do,  
 S. Ehlert,  Po-Tung Fang,  S. Fatehi,  Qingguo Feng,  J. Gayvert,  
 Qinghui Ge,  G. Gidofalvi,  M. Goldey,  J. Gomes,  C. Gonzalez-Espinoza,  
 S. Gulania,  A. Gunina,  M. W. D. Hanson-Heine,  P. H. P. Harbach,  
 A. W. Hauser,  M. F. Herbst,  M. Hernandez Vera,  M. Hodecker,  
 Z. C. Holden,  S. Houck,  Xunkun Huang,  Kerwin Hui,  B. C. Huynh,  
 M. Ivanov,  Hyunjun Ji,  Hanjie Jiang,  B. Kaduk,  S. Kaehler,  
 K. Khistyaev,  Jaehoon Kim,  P. Klunzinger,  Z. Koczor-Benda,  
 Joong Hoon Koh,  D. Kosenkov,  L. Koulias,  T. Kowalczyk,  C. M. Krauter,  
 K. Kue,  A. Kunitsa,  T. Kus,  A. Landau,  K. V. Lawler,  D. Lefrancois,  
 S. Lehtola,  Rain Li,  Yi-Pei Li,  Jiashu Liang,  M. Liebenthal,  
 Hung-Hsuan Lin,  You-Sheng Lin,  Fenglai Liu,  Kuan-Yu Liu,  
 M. Loipersberger,  A. Luenser,  A. Manjanath,  P. Manohar,  E. Mansoor,  
 S. F. Manzer,  Shan-Ping Mao,  A. V. Marenich,  T. Markovich,  S. Mason,  
 S. A. Maurer,  P. F. McLaughlin,  M. F. S. J. Menger,  J.-M. Mewes,  
 S. A. Mewes,  P. Morgante,  J. W. Mullinax,  T. S. Nguyen-Beck,  
 K. J. Oosterbaan,  G. Paran,  Alexander C. Paul,  Suranjan K. Paul,  
 F. Pavosevic,  Zheng Pei,  S. Prager,  E. I. Proynov,  E. Ramos,  B. Rana,  
 A. E. Rask,  A. Rettig,  R. M. Richard,  F. Rob,  E. Rossomme,  T. Scheele,  
 M. Scheurer,  M. Schneider,  N. Sergueev,  S. M. Sharada,  W. Skomorowski,  
 D. W. Small,  C. J. Stein,  Yu-Chuan Su,  E. J. Sundstrom,  Zhen Tao,  
 J. Thirman,  T. Tsuchimochi,  N. M. Tubman,  S. P. Veccham,  O. Vydrov,  
 J. Wenzel,  J. Witte,  A. Yamada,  Kun Yao,  S. Yeganeh,  S. R. Yost,  
 A. Zech,  Igor Ying Zhang,  Xing Zhang,  Yu Zhang,  D. Zuev,  
 A. Aspuru-Guzik,  A. T. Bell,  N. A. Besley,  K. B. Bravaya,  B. R. Brooks,  
 D. Casanova,  Jeng-Da Chai,  S. Coriani,  C. J. Cramer,  
 A. E. DePrince, III,  R. A. DiStasio Jr.,  A. Dreuw,  B. D. Dunietz,  
 T. R. Furlani,  W. A. Goddard III,  S. Grimme,  S. Hammes-Schiffer,  
 T. Head-Gordon,  W. J. Hehre,  Chao-Ping Hsu,  T.-C. Jagau,  Yousung Jung,  
 A. Klamt,  Jing Kong,  D. S. Lambrecht,  WanZhen Liang,  N. J. Mayhall,  
 C. W. McCurdy,  J. B. Neaton,  C. Ochsenfeld,  J. A. Parkhill,  R. Peverati,  
 V. A. Rassolov,  Yihan Shao,  L. V. Slipchenko,  T. Stauch,  R. P. Steele,  
 J. E. Subotnik,  A. J. W. Thom,  A. Tkatchenko,  D. G. Truhlar,  
 T. Van Voorhis,  T. A. Wesolowski,  K. B. Whaley,  H. L. Woodcock III,  
 P. M. Zimmerman,  S. Faraji,  P. M. W. Gill,  M. Head-Gordon,  
 J. M. Herbert,  A. I. Krylov

 Contributors to earlier versions of Q-Chem not listed above: 
 R. D. Adamson,  B. Austin,  R. Baer,  J. Baker,  G. J. O. Beran,  
 K. Brandhorst,  S. T. Brown,  E. F. C. Byrd,  A. K. Chakraborty,  
 G. K. L. Chan,  Chun-Min Chang,  Yunqing Chen,  C.-L. Cheng,  
 Siu Hung Chien,  D. M. Chipman,  D. L. Crittenden,  H. Dachsel,  
 R. J. Doerksen,  A. D. Dutoi,  R. G. Edgar,  J. Fosso-Tande,  
 L. Fusti-Molnar,  D. Ghosh,  A. Ghysels,  A. Golubeva-Zadorozhnaya,  
 J. Gonthier,  M. S. Gordon,  S. R. Gwaltney,  G. Hawkins,  J. E. Herr,  
 A. Heyden,  S. Hirata,  E. G. Hohenstein,  G. Kedziora,  F. J. Keil,  
 C. Kelley,  Jihan Kim,  R. A. King,  R. Z. Khaliullin,  P. P. Korambath,  
 W. Kurlancheek,  A. Laurent,  A. M. Lee,  M. S. Lee,  S. V. Levchenko,  
 Ching Yeh Lin,  D. Liotard,  E. Livshits,  R. C. Lochan,  I. Lotan,  
 L. A. Martinez-Martinez,  P. E. Maslen,  N. Nair,  D. P. O'Neill,  
 D. Neuhauser,  E. Neuscamman,  C. M. Oana,  R. Olivares-Amaya,  R. Olson,  
 T. M. Perrine,  B. Peters,  P. A. Pieniazek,  A. Prociuk,  Y. M. Rhee,  
 J. Ritchie,  M. A. Rohrdanz,  E. Rosta,  N. J. Russ,  H. F. Schaefer III,  
 M. W. Schmidt,  N. E. Schultz,  S. Sharma,  N. Shenvi,  C. D. Sherrill,  
 A. C. Simmonett,  A. Sodt,  T. Stein,  D. Stuck,  K. S. Thanthiriwatte,  
 V. Vanovschi,  L. Vogt,  Tao Wang,  A. Warshel,  M. A. Watson,  
 C. F. Williams,  Q. Wu,  X. Xu,  Jun Yang,  W. Zhang,  Yan Zhao

 Please cite Q-Chem as follows:
 Y. Shao et al., Mol. Phys. 113, 184-215 (2015)
 DOI: 10.1080/00268976.2014.952696

 Q-Chem 5.4.0 for Intel X86 EM64T Linux

 Parts of Q-Chem use Armadillo 9.800.1 (Horizon Scraper).
 http://arma.sourceforge.net/

 Q-Chem begins on Sun Sep 24 16:36:36 2023  

 Host: 
0

     Scratch files written to ./qchem3028844//
 May1621 |scratch|qcdevops|jenkins|workspace|build_RNUM    
 Parallel job on  1  processors
 Processing $rem in /cm/shared/apps/spack/cpu/opt/spack/linux-centos8-zen2/gcc-10.2.0/qchem-5.4-akfmr7b3t57bfs6qan3padb2wnb2i7cl/config/preferences:
 Processing $rem in /home/rramji/.qchemrc:
 Symmetry turned off for PCM/SM12/SMD calculation
 Core orbitals will be frozen

 Checking the input file for inconsistencies... 	...done.

 Q-Chem warning in module forms1/BasisType.C, line 2236:

 You are not using the predefined 5D/6D in this basis set.


--------------------------------------------------------------
User input:
--------------------------------------------------------------
$molecule
0 1
C	-0.043160	-6.741404	0.253280
C	-0.269777	-6.155638	1.539213
C	0.145543	-5.791452	-0.814295
C	-0.318377	-4.803786	1.813519
H	-0.422058	-6.821518	2.403941
C	0.094194	-4.378638	-0.527140
C	-0.137191	-3.838032	0.783072
C	0.275104	-3.413062	-1.556403
C	-0.188116	-2.426473	1.067932
C	0.226701	-2.059348	-1.285420
C	-0.000000	-1.478216	-0.000000
H	0.378931	-1.394783	-2.151147
C	0.397845	-6.187987	-2.234582
C	0.523637	-3.798164	-2.965273
N	0.567586	-5.170003	-3.204744
C	-0.567421	-4.424987	3.226257
C	-0.439541	-2.036627	2.489446
N	-0.609650	-3.049156	3.459801
O	0.468608	-7.353131	-2.619468
O	0.683034	-2.986854	-3.874668
O	-0.725131	-5.248946	4.124806
O	-0.512648	-0.878829	2.895819
C	0.813908	-5.563799	-4.595691
H	0.822891	-6.664085	-4.640022
H	1.781600	-5.147101	-4.934830
H	0.020360	-5.148785	-5.246157
C	-0.851649	-2.587487	4.829716
H	-0.962191	-3.483329	5.462742
H	-1.765865	-1.964972	4.863242
H	-0.005383	-1.962932	5.173521
C	0.000000	0.000000	0.000000
S	-0.000201	0.793171	1.580530
C	-0.000228	2.430885	0.904911
C	-0.000168	0.997990	-0.985400
C	-0.000267	2.318231	-0.493528
H	-0.000145	0.762343	-2.059934
H	-0.000339	3.199164	-1.152593
H	-0.000311	3.311566	1.556025
H	-0.909181	-7.361589	-0.008120
H	0.860264	-7.361192	0.304668
H	-1.063500	-1.478831	-0.188062
$end

$rem
JOBTYPE		SP
EXCHANGE	HF
CORRELATION	pRIMP2
BASIS		cc-pvtz
METHOD		rimp2
AUX_BASIS	rimp2-cc-pvtz
SOLVENT_METHOD	PCM
PURECART	11111
SYMMETRY	false
MEM_TOTAL	110000
SCF_CONVERGENCE = 6
THRESH=10
GUI = 2
$end



$solvent
dielectric 4.90
$end
--------------------------------------------------------------
 ----------------------------------------------------------------
             Standard Nuclear Orientation (Angstroms)
    I     Atom           X                Y                Z
 ----------------------------------------------------------------
    1      C      -0.0431600000    -6.7414040000     0.2532800000
    2      C      -0.2697770000    -6.1556380000     1.5392130000
    3      C       0.1455430000    -5.7914520000    -0.8142950000
    4      C      -0.3183770000    -4.8037860000     1.8135190000
    5      H      -0.4220580000    -6.8215180000     2.4039410000
    6      C       0.0941940000    -4.3786380000    -0.5271400000
    7      C      -0.1371910000    -3.8380320000     0.7830720000
    8      C       0.2751040000    -3.4130620000    -1.5564030000
    9      C      -0.1881160000    -2.4264730000     1.0679320000
   10      C       0.2267010000    -2.0593480000    -1.2854200000
   11      C       0.0000000000    -1.4782160000     0.0000000000
   12      H       0.3789310000    -1.3947830000    -2.1511470000
   13      C       0.3978450000    -6.1879870000    -2.2345820000
   14      C       0.5236370000    -3.7981640000    -2.9652730000
   15      N       0.5675860000    -5.1700030000    -3.2047440000
   16      C      -0.5674210000    -4.4249870000     3.2262570000
   17      C      -0.4395410000    -2.0366270000     2.4894460000
   18      N      -0.6096500000    -3.0491560000     3.4598010000
   19      O       0.4686080000    -7.3531310000    -2.6194680000
   20      O       0.6830340000    -2.9868540000    -3.8746680000
   21      O      -0.7251310000    -5.2489460000     4.1248060000
   22      O      -0.5126480000    -0.8788290000     2.8958190000
   23      C       0.8139080000    -5.5637990000    -4.5956910000
   24      H       0.8228910000    -6.6640850000    -4.6400220000
   25      H       1.7816000000    -5.1471010000    -4.9348300000
   26      H       0.0203600000    -5.1487850000    -5.2461570000
   27      C      -0.8516490000    -2.5874870000     4.8297160000
   28      H      -0.9621910000    -3.4833290000     5.4627420000
   29      H      -1.7658650000    -1.9649720000     4.8632420000
   30      H      -0.0053830000    -1.9629320000     5.1735210000
   31      C       0.0000000000     0.0000000000     0.0000000000
   32      S      -0.0002010000     0.7931710000     1.5805300000
   33      C      -0.0002280000     2.4308850000     0.9049110000
   34      C      -0.0001680000     0.9979900000    -0.9854000000
   35      C      -0.0002670000     2.3182310000    -0.4935280000
   36      H      -0.0001450000     0.7623430000    -2.0599340000
   37      H      -0.0003390000     3.1991640000    -1.1525930000
   38      H      -0.0003110000     3.3115660000     1.5560250000
   39      H      -0.9091810000    -7.3615890000    -0.0081200000
   40      H       0.8602640000    -7.3611920000     0.3046680000
   41      H      -1.0635000000    -1.4788310000    -0.1880620000
 ----------------------------------------------------------------
 Nuclear Repulsion Energy =        2568.30833004 hartrees
 There are       98 alpha and       98 beta electrons
 Requested basis set is cc-pVTZ
 There are 356 shells and 1010 basis functions

 Total QAlloc Memory Limit 110000 MB
 Mega-Array Size       188 MB
 MEM_STATIC part       192 MB
 Discretize the solute cavity surface with Lebedev spheres
	Using 110 Lebedev grid points for each H atom
	Using 194 Lebedev grid points for other atoms
	Atomic van der Waals radii will be scaled by 1.20
 Remove points where switching function is < 1.0e-08
 Keep 2617 surface tesserae and discard 4161 interior tesserae
 Molecular Surface Area = 359.466 Angst**2
 Requested basis set is rimp2-cc-pVTZ
 There are 770 shells and 2648 basis functions
 A cutoff of  1.0D-10 yielded  34172 shell pairs
 There are    258500 function pairs (    334469 Cartesian)
 Smallest overlap matrix eigenvalue = 9.00E-06

 Q-Chem warning in module stvman/mkSTV.C, line 323:

 Overlap eigenvalue is smaller than square root of threshold
 Use THRESH >= 12 to get rid of this warning


 Scale SEOQF with 1.000000e-01/1.000000e-02/1.000000e-02

 Standard Electronic Orientation quadrupole field applied
 Nucleus-field energy     =     0.0000000109 hartrees
 Guess from superposition of atomic densities
 Warning:  Energy on first SCF cycle will be non-variational
 SAD guess density has 196.000000 electrons

 -----------------------------------------------------------------------
  General SCF calculation program by
  Eric Jon Sundstrom, Paul Horn, Yuezhi Mao, Dmitri Zuev, Alec White,
  David Stuck, Shaama M.S., Shane Yost, Joonho Lee, David Small,
  Daniel Levine, Susi Lehtola, Hugh Burton, Evgeny Epifanovsky,
  Bang C. Huynh
 -----------------------------------------------------------------------
 Hartree-Fock
 using 64 threads for integral computing
 -------------------------------------------------------
 OpenMP Integral computing Module                
 Release: version 1.0, May 2013, Q-Chem Inc. Pittsburgh 
 -------------------------------------------------------
 A restricted SCF calculation will be
 performed using DIIS
 SCF converges when DIIS error is below 1.0e-06
 ---------------------------------------
  Cycle       Energy         DIIS error
 ---------------------------------------
    1   -1583.2486741805      1.87e-02  
    2   -1571.1204794457      2.03e-03  
    3   -1571.4607423288      1.54e-03  
    4   -1571.6830034820      2.55e-04  
    5   -1571.6968530006      7.86e-05  
    6   -1571.6982584829      3.04e-05  
    7   -1571.6986777016      1.62e-05  
    8   -1571.6987997084      6.44e-06  
    9   -1571.6988219980      2.99e-06  
   10   -1571.6988264787      1.25e-06  
   11   -1571.6988278360      6.00e-07  Convergence criterion met
 ---------------------------------------
 SCF time:   CPU 6823.22s  wall 267.00s 

************** Final PCM Free Energy Summary **************
 G_electrostatic  =      -0.02942017 hartree =     -18.46143350 kcal/mol
 G_cavitation     =       0.00000000 hartree =       0.00000000 kcal/mol
 G_dispersion     =       0.00000000 hartree =       0.00000000 kcal/mol
 G_repulsion      =       0.00000000 hartree =       0.00000000 kcal/mol
 --------------------------------------------------
 Non-electrostatic Free Energy =       0.00000000 hartree =       0.00000000 kcal/mol
 Total                         =      -0.02942017 hartree =     -18.46143350 kcal/mol
 --------------------------------------------------
 SCF Energy (H0 + V/2)                       =   -1571.69882784 
 Solute Internal Energy (H0)                 =   -1571.66940767 
 Total Free Energy (H0 + V/2 + non-elec)     =   -1571.69882784 hartree
                                             = -986255.90002671 kcal/mol
***********************************************************

 SCF   energy in the final basis set =    -1571.6988278360
 Total energy in the final basis set =    -1571.6988278360


 --------------------------------------------------------------
  Generalized many-body perturbation theory program
  by Joonho Lee, Fazle Rob, Xintian Feng, Evgeny Epifanovsky

 No regularization used 
 (reg. param. = 0.0000e+00)
  (P|Q)^-1/2 Time:  CPU 179.65 s  wall 3.62 s

 In RI-MP2 calculation: 
 # of frozen core orbitals: 31

 Components of the RIMP2 correlation energy:
        aaaa    correlation energy =        -0.6181360061 a.u.
        abab    correlation energy =        -3.4314060196 a.u.
        bbbb    correlation energy =        -0.6181360061 a.u.
        non-Brillouin singles      =        -0.0000000000 a.u.
        total same-spin energy     =        -1.2362720121 a.u.
        total opposite-spin energy =        -3.4314060196 a.u.

 Total  RIMP2   correlation energy =        -4.6676780317 a.u.
        RIMP2         total energy =     -1576.3665058677 a.u.

 RI-MP2 Energy Time:  CPU 1965.86 s  wall 34.51 s
 
 --------------------------------------------------------------
 
                    Orbital Energies (a.u.)
 --------------------------------------------------------------
 
 Alpha MOs
 -- Occupied --
-91.9693 -20.5569 -20.5472 -20.5432 -20.5421 -15.6315 -15.6227 -11.4016
-11.3880 -11.3851 -11.3806 -11.3135 -11.3104 -11.3096 -11.3067 -11.3000
-11.2956 -11.2927 -11.2718 -11.2708 -11.2674 -11.2653 -11.2603 -11.2549
-11.2534 -11.2448 -11.2366  -8.9692  -6.6498  -6.6484  -6.6475  -1.4327
 -1.4136  -1.4037  -1.3928  -1.2684  -1.2571  -1.2323  -1.1858  -1.1456
 -1.1166  -1.0872  -1.0500  -0.9948  -0.9898  -0.9744  -0.9570  -0.9477
 -0.8992  -0.8918  -0.8804  -0.8637  -0.7927  -0.7824  -0.7760  -0.7573
 -0.7322  -0.7266  -0.7022  -0.6893  -0.6884  -0.6778  -0.6691  -0.6597
 -0.6520  -0.6476  -0.6380  -0.6347  -0.6336  -0.6329  -0.6232  -0.6065
 -0.5902  -0.5720  -0.5670  -0.5634  -0.5558  -0.5539  -0.5533  -0.5504
 -0.5490  -0.5460  -0.5207  -0.5141  -0.5127  -0.4866  -0.4818  -0.4647
 -0.4566  -0.4453  -0.4385  -0.4203  -0.4090  -0.3884  -0.3560  -0.3357
 -0.3267  -0.2770
 -- Virtual --
  0.0097   0.0396   0.0892   0.1099   0.1390   0.1494   0.1582   0.1600
  0.1631   0.1734   0.1795   0.1827   0.1890   0.1918   0.2028   0.2065
  0.2173   0.2250   0.2279   0.2299   0.2310   0.2355   0.2614   0.2623
  0.2726   0.2750   0.3016   0.3071   0.3129   0.3198   0.3277   0.3303
  0.3383   0.3446   0.3472   0.3513   0.3527   0.3628   0.3658   0.3683
  0.3726   0.3841   0.3859   0.3886   0.3954   0.4009   0.4129   0.4153
  0.4184   0.4258   0.4298   0.4381   0.4419   0.4443   0.4469   0.4495
  0.4567   0.4605   0.4654   0.4724   0.4827   0.4836   0.4916   0.4918
  0.4956   0.5019   0.5099   0.5141   0.5159   0.5202   0.5250   0.5318
  0.5367   0.5441   0.5471   0.5498   0.5523   0.5584   0.5636   0.5667
  0.5718   0.5789   0.5861   0.5883   0.5907   0.5948   0.5997   0.6006
  0.6031   0.6053   0.6101   0.6105   0.6150   0.6194   0.6209   0.6243
  0.6278   0.6293   0.6346   0.6384   0.6415   0.6457   0.6529   0.6589
  0.6678   0.6713   0.6814   0.6833   0.6902   0.6973   0.7005   0.7041
  0.7219   0.7282   0.7345   0.7366   0.7421   0.7547   0.7549   0.7578
  0.7677   0.7704   0.7780   0.7848   0.7921   0.8040   0.8093   0.8109
  0.8142   0.8244   0.8251   0.8336   0.8369   0.8435   0.8451   0.8487
  0.8548   0.8612   0.8668   0.8715   0.8746   0.8794   0.8860   0.8933
  0.8992   0.9031   0.9138   0.9177   0.9186   0.9229   0.9264   0.9296
  0.9348   0.9425   0.9451   0.9551   0.9602   0.9617   0.9668   0.9814
  0.9883   0.9893   0.9973   1.0043   1.0063   1.0131   1.0190   1.0227
  1.0300   1.0309   1.0423   1.0512   1.0598   1.0610   1.0637   1.0676
  1.0737   1.0744   1.0790   1.0847   1.0909   1.0953   1.1004   1.1046
  1.1072   1.1142   1.1222   1.1248   1.1272   1.1333   1.1421   1.1442
  1.1513   1.1603   1.1658   1.1703   1.1739   1.1784   1.1869   1.1933
  1.1974   1.2023   1.2051   1.2080   1.2099   1.2171   1.2226   1.2317
  1.2356   1.2373   1.2401   1.2444   1.2512   1.2673   1.2693   1.2785
  1.2806   1.2858   1.2978   1.3085   1.3123   1.3207   1.3259   1.3371
  1.3438   1.3461   1.3615   1.3685   1.3756   1.3794   1.3809   1.3881
  1.3941   1.3956   1.4064   1.4104   1.4193   1.4265   1.4363   1.4524
  1.4536   1.4612   1.4723   1.4752   1.4761   1.4839   1.4873   1.4973
  1.5055   1.5117   1.5121   1.5158   1.5221   1.5308   1.5337   1.5415
  1.5524   1.5540   1.5577   1.5600   1.5662   1.5730   1.5755   1.5864
  1.5894   1.5958   1.6045   1.6156   1.6243   1.6286   1.6419   1.6496
  1.6508   1.6630   1.6657   1.6770   1.6805   1.6930   1.6970   1.7021
  1.7131   1.7166   1.7255   1.7336   1.7413   1.7456   1.7489   1.7608
  1.7637   1.7693   1.7792   1.7891   1.7950   1.8041   1.8135   1.8220
  1.8259   1.8346   1.8419   1.8557   1.8568   1.8588   1.8670   1.8694
  1.8714   1.8786   1.8891   1.8972   1.9171   1.9316   1.9425   1.9439
  1.9554   1.9659   1.9773   1.9860   1.9897   2.0011   2.0164   2.0291
  2.0355   2.0527   2.0863   2.0960   2.1032   2.1050   2.1265   2.1324
  2.1456   2.1570   2.1684   2.1872   2.1922   2.2163   2.2247   2.2281
  2.2485   2.2565   2.2712   2.2837   2.2886   2.2926   2.3104   2.3195
  2.3264   2.3332   2.3422   2.3594   2.3659   2.3759   2.3847   2.4150
  2.4169   2.4334   2.4417   2.4466   2.4509   2.4643   2.4678   2.4704
  2.4861   2.5006   2.5073   2.5167   2.5330   2.5459   2.5573   2.5590
  2.5624   2.5681   2.5871   2.5933   2.5970   2.5984   2.6095   2.6249
  2.6320   2.6360   2.6408   2.6467   2.6607   2.6661   2.6741   2.6790
  2.6866   2.6950   2.7042   2.7177   2.7198   2.7261   2.7296   2.7360
  2.7398   2.7549   2.7577   2.7617   2.7692   2.7837   2.7872   2.7935
  2.8130   2.8209   2.8321   2.8396   2.8468   2.8595   2.8633   2.8702
  2.8747   2.8831   2.8870   2.8912   2.9007   2.9069   2.9123   2.9128
  2.9152   2.9295   2.9319   2.9381   2.9510   2.9594   2.9651   2.9767
  2.9787   2.9843   2.9926   3.0102   3.0129   3.0209   3.0236   3.0285
  3.0327   3.0397   3.0468   3.0497   3.0596   3.0707   3.0728   3.0763
  3.0978   3.1005   3.1040   3.1054   3.1088   3.1121   3.1177   3.1246
  3.1257   3.1347   3.1535   3.1581   3.1610   3.1690   3.1744   3.1814
  3.1900   3.1959   3.1980   3.2020   3.2123   3.2200   3.2257   3.2299
  3.2341   3.2353   3.2443   3.2473   3.2538   3.2580   3.2658   3.2674
  3.2716   3.2724   3.2761   3.2832   3.2891   3.2925   3.3009   3.3047
  3.3090   3.3154   3.3189   3.3210   3.3256   3.3281   3.3294   3.3368
  3.3404   3.3480   3.3491   3.3553   3.3626   3.3685   3.3724   3.3745
  3.3777   3.3787   3.3920   3.3932   3.3998   3.4062   3.4092   3.4115
  3.4210   3.4276   3.4331   3.4338   3.4355   3.4372   3.4420   3.4522
  3.4591   3.4620   3.4693   3.4731   3.4765   3.4824   3.4899   3.4928
  3.4942   3.5021   3.5089   3.5143   3.5159   3.5201   3.5250   3.5317
  3.5333   3.5405   3.5452   3.5496   3.5568   3.5584   3.5699   3.5840
  3.5852   3.5901   3.5967   3.6038   3.6103   3.6149   3.6240   3.6282
  3.6326   3.6381   3.6413   3.6481   3.6511   3.6516   3.6550   3.6668
  3.6708   3.6771   3.6799   3.6879   3.6945   3.7007   3.7069   3.7144
  3.7171   3.7296   3.7311   3.7358   3.7420   3.7482   3.7504   3.7567
  3.7624   3.7698   3.7709   3.7788   3.7849   3.7856   3.7925   3.8068
  3.8101   3.8126   3.8150   3.8270   3.8289   3.8334   3.8366   3.8429
  3.8499   3.8564   3.8652   3.8724   3.8811   3.8834   3.8902   3.9030
  3.9151   3.9201   3.9252   3.9280   3.9467   3.9475   3.9533   3.9545
  3.9639   3.9680   3.9762   3.9824   3.9890   3.9969   4.0122   4.0179
  4.0224   4.0276   4.0332   4.0409   4.0502   4.0636   4.0650   4.0741
  4.0838   4.1052   4.1150   4.1192   4.1242   4.1269   4.1378   4.1476
  4.1519   4.1563   4.1625   4.1646   4.1715   4.1788   4.1867   4.2070
  4.2107   4.2336   4.2360   4.2380   4.2426   4.2447   4.2570   4.2637
  4.2670   4.2782   4.2837   4.2894   4.2954   4.2986   4.3025   4.3122
  4.3222   4.3239   4.3305   4.3361   4.3374   4.3435   4.3497   4.3594
  4.3634   4.3679   4.3687   4.3701   4.3767   4.3802   4.3864   4.3949
  4.4055   4.4081   4.4193   4.4300   4.4329   4.4423   4.4464   4.4622
  4.4718   4.4760   4.4893   4.4981   4.5125   4.5204   4.5252   4.5333
  4.5347   4.5451   4.5536   4.5645   4.5676   4.5778   4.5832   4.5854
  4.5918   4.5933   4.6056   4.6162   4.6246   4.6267   4.6345   4.6432
  4.6477   4.6642   4.6772   4.6886   4.6928   4.7030   4.7069   4.7126
  4.7223   4.7331   4.7426   4.7685   4.7762   4.7864   4.7900   4.7988
  4.8105   4.8283   4.8427   4.8436   4.8534   4.8741   4.8802   4.8916
  4.8996   4.9092   4.9178   4.9302   4.9387   4.9479   4.9746   4.9903
  4.9949   5.0148   5.0207   5.0316   5.0341   5.0381   5.0591   5.0654
  5.0703   5.0912   5.1053   5.1100   5.1202   5.1285   5.1329   5.1470
  5.1562   5.1729   5.1809   5.1927   5.2009   5.2042   5.2194   5.2260
  5.2595   5.2626   5.2743   5.2840   5.3033   5.3132   5.3208   5.3288
  5.3304   5.3497   5.3647   5.3683   5.3756   5.3845   5.4011   5.4137
  5.4486   5.4523   5.4601   5.4879   5.4899   5.5107   5.5115   5.5159
  5.5257   5.5316   5.5464   5.5534   5.5576   5.5636   5.5661   5.5702
  5.5757   5.5848   5.5973   5.6042   5.6118   5.6212   5.6243   5.6399
  5.6414   5.6475   5.6591   5.6606   5.6651   5.6694   5.6922   5.6938
  5.6994   5.7090   5.7340   5.7428   5.7559   5.7591   5.7676   5.7742
  5.7831   5.8000   5.8135   5.8293   5.8528   5.8680   5.9009   5.9275
  5.9373   5.9565   5.9773   5.9925   6.0249   6.0326   6.0400   6.0528
  6.0754   6.0967   6.1086   6.1138   6.1207   6.1599   6.1830   6.1917
  6.2093   6.2184   6.2246   6.2277   6.2543   6.2719   6.2812   6.2908
  6.3020   6.3175   6.3280   6.3500   6.3686   6.3881   6.4706   6.4943
  6.5222   6.5417   6.5679   6.5810   6.6096   6.6334   6.6545   6.6560
  6.6722   6.7362   6.8500   6.8549   6.8901   6.9006   6.9042   6.9257
  6.9275   6.9734   7.1043   7.1363   7.1608   7.1957   7.2183   7.2892
  7.3450   7.3500   7.3548   7.3586   7.4759   7.5416   7.5708   7.5830
  7.5928   7.6424   7.6545   7.6892   7.7025   7.7482   8.9522  10.1780
 10.3463  11.2844  11.5460  11.7874  12.0858  12.1669  12.4412  12.5097
 12.9606  13.3363  13.3676  13.5845  13.8287  13.9311  14.0916  14.3128
 14.3624  14.4501  14.6331  14.8308  15.0605  15.6587  15.8429  16.3288
 --------------------------------------------------------------
 
          Ground-State Mulliken Net Atomic Charges

     Atom                 Charge (a.u.)
  ----------------------------------------
      1 C                    -0.084037
      2 C                    -0.028844
      3 C                    -0.105821
      4 C                    -0.122122
      5 H                     0.200157
      6 C                     0.022383
      7 C                     0.135047
      8 C                    -0.088922
      9 C                    -0.182175
     10 C                    -0.174089
     11 C                     0.220055
     12 H                     0.192695
     13 C                     0.342385
     14 C                     0.351318
     15 N                    -0.090386
     16 C                     0.359126
     17 C                     0.380084
     18 N                    -0.088243
     19 O                    -0.492990
     20 O                    -0.506912
     21 O                    -0.498999
     22 O                    -0.447517
     23 C                    -0.204683
     24 H                     0.139770
     25 H                     0.109693
     26 H                     0.109433
     27 C                    -0.198984
     28 H                     0.135070
     29 H                     0.112927
     30 H                     0.113524
     31 C                    -0.055805
     32 S                     0.074372
     33 C                    -0.262010
     34 C                    -0.172710
     35 C                    -0.250006
     36 H                     0.178493
     37 H                     0.179559
     38 H                     0.201326
     39 H                     0.139001
     40 H                     0.139524
     41 H                     0.219313
  ----------------------------------------
  Sum of atomic charges =     0.000000

 -----------------------------------------------------------------
                    Cartesian Multipole Moments
 -----------------------------------------------------------------
    Charge (ESU x 10^10)
                 0.0000
    Dipole Moment (Debye)
         X      -1.2998      Y      -0.1097      Z       1.0228
       Tot       1.6576
    Quadrupole Moments (Debye-Ang)
        XX    -163.5139     XY       3.0451     YY    -176.7752
        XZ       4.8683     YZ      -9.2699     ZZ    -185.2463
    Octopole Moments (Debye-Ang^2)
       XXX       7.5977    XXY     457.2837    XYY     -10.0052
       YYY    1649.6996    XXZ     -31.8980    XYZ     -22.6165
       YYZ      36.5498    XZZ       1.6560    YZZ     594.6798
       ZZZ     -88.4835
    Hexadecapole Moments (Debye-Ang^3)
      XXXX    -369.8966   XXXY      66.9266   XXYY   -2701.6878
      XYYY     212.8011   YYYY  -17912.4144   XXXZ     491.7517
      XXYZ    -133.3180   XYYZ     313.2133   YYYZ   -1201.3272
      XXZZ   -1083.4433   XYZZ     -32.5564   YYZZ   -4424.3644
      XZZZ     553.6832   YZZZ    -113.8882   ZZZZ   -6382.9378
 -----------------------------------------------------------------
 Total job time:  306.03s(wall), 8910.07s(cpu) 
 Sun Sep 24 16:41:42 2023

        *************************************************************
        *                                                           *
        *  Thank you very much for using Q-Chem.  Have a nice day.  *
        *                                                           *
        *************************************************************


0 sent ACK to 0 
now end server 0 ... 
cleanup process ... done
remove work dirs ./qchem3028844.0 -- ./qchem3028844.0
rm -rf ./qchem3028844.0
rm -rf ./qchem3028844
