You are running Q-Chem version: 5.4.0

#
# job setting
#
local host:  exp-2-42
current dir: /expanse/lustre/projects/csd626/rramji/aromodel/PNDIT/Hydrogenated_Rotation_Test
input file:  Dimethyl_Naphthalene_Dicarboximide_Phi_20_Theta_10_Thiophene_Hydrogenated.qcin
output file: 
nprocs     : 1
nthreads   : 64
#
# qchem installation setting
#
QC:          /cm/shared/apps/spack/cpu/opt/spack/linux-centos8-zen2/gcc-10.2.0/qchem-5.4-akfmr7b3t57bfs6qan3padb2wnb2i7cl
QCAUX:       /cm/shared/apps/spack/cpu/opt/spack/linux-centos8-zen2/gcc-10.2.0/qchem-5.4-akfmr7b3t57bfs6qan3padb2wnb2i7cl/qcaux
QCPROG:      /cm/shared/apps/spack/cpu/opt/spack/linux-centos8-zen2/gcc-10.2.0/qchem-5.4-akfmr7b3t57bfs6qan3padb2wnb2i7cl/exe/qcprog.exe
QCPROG_S:    /cm/shared/apps/spack/cpu/opt/spack/linux-centos8-zen2/gcc-10.2.0/qchem-5.4-akfmr7b3t57bfs6qan3padb2wnb2i7cl/exe/qcprog.exe_s
PARALLEL:    -DPARALLEL
QCMPI:       mpich
#
# qchem directory setting
#
qcrun:       qchem4068269
QCSCRATCH:   .
QCLOCALSCR:  
QCTMPDIR:    .
QCFILEPREF:  ./qchem4068269
QCSAVEDIR:   
workdirs:    ./qchem4068269
workdir0:    ./qchem4068269
partmpdirs =  
#
# parallel setting
#
QCRSH:           ssh
QCMPI:           mpich
QCMPIRUN:        /cm/shared/apps/spack/cpu/opt/spack/linux-centos8-zen2/gcc-10.2.0/qchem-5.4-akfmr7b3t57bfs6qan3padb2wnb2i7cl/bin/mpi/mpirun_qchem
QCMACHINEFILE:   ./qchem4068269/hostfile
exp-2-42

#
# env setting
#
exported envs:   QC QCAUX QCSCRATCH QCRUNNAME QCFILEPREF QCPROG QCPROG_S GUIFILE

Running Job 1 of 1 Dimethyl_Naphthalene_Dicarboximide_Phi_20_Theta_10_Thiophene_Hydrogenated.qcin
qchem Dimethyl_Naphthalene_Dicarboximide_Phi_20_Theta_10_Thiophene_Hydrogenated.qcin_4068269.0 ./qchem4068269/ 1
/cm/shared/apps/spack/cpu/opt/spack/linux-centos8-zen2/gcc-10.2.0/qchem-5.4-akfmr7b3t57bfs6qan3padb2wnb2i7cl/bin/mpi/mpirun_qchem -machinefile ./qchem4068269/hostfile -np 1 /cm/shared/apps/spack/cpu/opt/spack/linux-centos8-zen2/gcc-10.2.0/qchem-5.4-akfmr7b3t57bfs6qan3padb2wnb2i7cl/exe/qcprog.exe Dimethyl_Naphthalene_Dicarboximide_Phi_20_Theta_10_Thiophene_Hydrogenated.qcin_4068269.0 ./qchem4068269/

Process 0 of 1 is on exp-2-42 - thread support 0
initial socket setup ...start
initial socket setup ...done 
now start server 0 ... 
                  Welcome to Q-Chem
     A Quantum Leap Into The Future Of Chemistry


 Q-Chem 5.4, Q-Chem, Inc., Pleasanton, CA (2021)

 License issued to: University of California, San Diego (site)

 E. Epifanovsky,  A. T. B. Gilbert,  Xintian Feng,  Joonho Lee,  Yuezhi Mao,  
 N. Mardirossian,  P. Pokhilko,  A. White,  M. Wormit,  M. P. Coons,  
 A. L. Dempwolff,  Zhengting Gan,  D. Hait,  P. R. Horn,  L. D. Jacobson,  
 I. Kaliman,  J. Kussmann,  A. W. Lange,  Ka Un Lao,  D. S. Levine,  Jie Liu,  
 S. C. McKenzie,  A. F. Morrison,  K. Nanda,  F. Plasser,  D. R. Rehn,  
 M. L. Vidal,  Zhi-Qiang You,  Ying Zhu,  B. Alam,  B. Albrecht,  
 A. Aldossary,  E. Alguire,  J. H. Andersen,  D. Barton,  K. Begam,  A. Behn,  
 Y. A. Bernard,  E. J. Berquist,  H. Burton,  A. Carreras,  K. Carter-Fenk,  
 R. Chakraborty,  A. D. Chien,  K. D. Closser,  V. Cofer-Shabica,  
 S. Dasgupta,  Jia Deng,  M. de Wergifosse,  M. Diedenhofen,  Hainam Do,  
 S. Ehlert,  Po-Tung Fang,  S. Fatehi,  Qingguo Feng,  J. Gayvert,  
 Qinghui Ge,  G. Gidofalvi,  M. Goldey,  J. Gomes,  C. Gonzalez-Espinoza,  
 S. Gulania,  A. Gunina,  M. W. D. Hanson-Heine,  P. H. P. Harbach,  
 A. W. Hauser,  M. F. Herbst,  M. Hernandez Vera,  M. Hodecker,  
 Z. C. Holden,  S. Houck,  Xunkun Huang,  Kerwin Hui,  B. C. Huynh,  
 M. Ivanov,  Hyunjun Ji,  Hanjie Jiang,  B. Kaduk,  S. Kaehler,  
 K. Khistyaev,  Jaehoon Kim,  P. Klunzinger,  Z. Koczor-Benda,  
 Joong Hoon Koh,  D. Kosenkov,  L. Koulias,  T. Kowalczyk,  C. M. Krauter,  
 K. Kue,  A. Kunitsa,  T. Kus,  A. Landau,  K. V. Lawler,  D. Lefrancois,  
 S. Lehtola,  Rain Li,  Yi-Pei Li,  Jiashu Liang,  M. Liebenthal,  
 Hung-Hsuan Lin,  You-Sheng Lin,  Fenglai Liu,  Kuan-Yu Liu,  
 M. Loipersberger,  A. Luenser,  A. Manjanath,  P. Manohar,  E. Mansoor,  
 S. F. Manzer,  Shan-Ping Mao,  A. V. Marenich,  T. Markovich,  S. Mason,  
 S. A. Maurer,  P. F. McLaughlin,  M. F. S. J. Menger,  J.-M. Mewes,  
 S. A. Mewes,  P. Morgante,  J. W. Mullinax,  T. S. Nguyen-Beck,  
 K. J. Oosterbaan,  G. Paran,  Alexander C. Paul,  Suranjan K. Paul,  
 F. Pavosevic,  Zheng Pei,  S. Prager,  E. I. Proynov,  E. Ramos,  B. Rana,  
 A. E. Rask,  A. Rettig,  R. M. Richard,  F. Rob,  E. Rossomme,  T. Scheele,  
 M. Scheurer,  M. Schneider,  N. Sergueev,  S. M. Sharada,  W. Skomorowski,  
 D. W. Small,  C. J. Stein,  Yu-Chuan Su,  E. J. Sundstrom,  Zhen Tao,  
 J. Thirman,  T. Tsuchimochi,  N. M. Tubman,  S. P. Veccham,  O. Vydrov,  
 J. Wenzel,  J. Witte,  A. Yamada,  Kun Yao,  S. Yeganeh,  S. R. Yost,  
 A. Zech,  Igor Ying Zhang,  Xing Zhang,  Yu Zhang,  D. Zuev,  
 A. Aspuru-Guzik,  A. T. Bell,  N. A. Besley,  K. B. Bravaya,  B. R. Brooks,  
 D. Casanova,  Jeng-Da Chai,  S. Coriani,  C. J. Cramer,  
 A. E. DePrince, III,  R. A. DiStasio Jr.,  A. Dreuw,  B. D. Dunietz,  
 T. R. Furlani,  W. A. Goddard III,  S. Grimme,  S. Hammes-Schiffer,  
 T. Head-Gordon,  W. J. Hehre,  Chao-Ping Hsu,  T.-C. Jagau,  Yousung Jung,  
 A. Klamt,  Jing Kong,  D. S. Lambrecht,  WanZhen Liang,  N. J. Mayhall,  
 C. W. McCurdy,  J. B. Neaton,  C. Ochsenfeld,  J. A. Parkhill,  R. Peverati,  
 V. A. Rassolov,  Yihan Shao,  L. V. Slipchenko,  T. Stauch,  R. P. Steele,  
 J. E. Subotnik,  A. J. W. Thom,  A. Tkatchenko,  D. G. Truhlar,  
 T. Van Voorhis,  T. A. Wesolowski,  K. B. Whaley,  H. L. Woodcock III,  
 P. M. Zimmerman,  S. Faraji,  P. M. W. Gill,  M. Head-Gordon,  
 J. M. Herbert,  A. I. Krylov

 Contributors to earlier versions of Q-Chem not listed above: 
 R. D. Adamson,  B. Austin,  R. Baer,  J. Baker,  G. J. O. Beran,  
 K. Brandhorst,  S. T. Brown,  E. F. C. Byrd,  A. K. Chakraborty,  
 G. K. L. Chan,  Chun-Min Chang,  Yunqing Chen,  C.-L. Cheng,  
 Siu Hung Chien,  D. M. Chipman,  D. L. Crittenden,  H. Dachsel,  
 R. J. Doerksen,  A. D. Dutoi,  R. G. Edgar,  J. Fosso-Tande,  
 L. Fusti-Molnar,  D. Ghosh,  A. Ghysels,  A. Golubeva-Zadorozhnaya,  
 J. Gonthier,  M. S. Gordon,  S. R. Gwaltney,  G. Hawkins,  J. E. Herr,  
 A. Heyden,  S. Hirata,  E. G. Hohenstein,  G. Kedziora,  F. J. Keil,  
 C. Kelley,  Jihan Kim,  R. A. King,  R. Z. Khaliullin,  P. P. Korambath,  
 W. Kurlancheek,  A. Laurent,  A. M. Lee,  M. S. Lee,  S. V. Levchenko,  
 Ching Yeh Lin,  D. Liotard,  E. Livshits,  R. C. Lochan,  I. Lotan,  
 L. A. Martinez-Martinez,  P. E. Maslen,  N. Nair,  D. P. O'Neill,  
 D. Neuhauser,  E. Neuscamman,  C. M. Oana,  R. Olivares-Amaya,  R. Olson,  
 T. M. Perrine,  B. Peters,  P. A. Pieniazek,  A. Prociuk,  Y. M. Rhee,  
 J. Ritchie,  M. A. Rohrdanz,  E. Rosta,  N. J. Russ,  H. F. Schaefer III,  
 M. W. Schmidt,  N. E. Schultz,  S. Sharma,  N. Shenvi,  C. D. Sherrill,  
 A. C. Simmonett,  A. Sodt,  T. Stein,  D. Stuck,  K. S. Thanthiriwatte,  
 V. Vanovschi,  L. Vogt,  Tao Wang,  A. Warshel,  M. A. Watson,  
 C. F. Williams,  Q. Wu,  X. Xu,  Jun Yang,  W. Zhang,  Yan Zhao

 Please cite Q-Chem as follows:
 Y. Shao et al., Mol. Phys. 113, 184-215 (2015)
 DOI: 10.1080/00268976.2014.952696

 Q-Chem 5.4.0 for Intel X86 EM64T Linux

 Parts of Q-Chem use Armadillo 9.800.1 (Horizon Scraper).
 http://arma.sourceforge.net/

 Q-Chem begins on Sun Sep 24 15:01:39 2023  

 Host: 
0

     Scratch files written to ./qchem4068269//
 May1621 |scratch|qcdevops|jenkins|workspace|build_RNUM    
 Parallel job on  1  processors
 Processing $rem in /cm/shared/apps/spack/cpu/opt/spack/linux-centos8-zen2/gcc-10.2.0/qchem-5.4-akfmr7b3t57bfs6qan3padb2wnb2i7cl/config/preferences:
 Processing $rem in /home/rramji/.qchemrc:
 Symmetry turned off for PCM/SM12/SMD calculation
 Core orbitals will be frozen

 Checking the input file for inconsistencies... 	...done.

 Q-Chem warning in module forms1/BasisType.C, line 2236:

 You are not using the predefined 5D/6D in this basis set.


--------------------------------------------------------------
User input:
--------------------------------------------------------------
$molecule
0 1
C	0.043160	-6.741404	-0.253280
C	0.269777	-6.155638	-1.539213
C	-0.145543	-5.791452	0.814295
C	0.318377	-4.803786	-1.813519
H	0.422058	-6.821518	-2.403941
C	-0.094194	-4.378638	0.527140
C	0.137191	-3.838032	-0.783072
C	-0.275104	-3.413062	1.556403
C	0.188116	-2.426473	-1.067932
C	-0.226701	-2.059348	1.285420
C	0.000000	-1.478216	0.000000
H	-0.378931	-1.394783	2.151147
C	-0.397845	-6.187987	2.234582
C	-0.523637	-3.798164	2.965273
N	-0.567586	-5.170003	3.204744
C	0.567421	-4.424987	-3.226257
C	0.439541	-2.036627	-2.489446
N	0.609650	-3.049156	-3.459801
O	-0.468608	-7.353131	2.619468
O	-0.683034	-2.986854	3.874668
O	0.725131	-5.248946	-4.124806
O	0.512648	-0.878829	-2.895819
C	-0.813908	-5.563799	4.595691
H	-0.822891	-6.664085	4.640022
H	-1.781600	-5.147101	4.934830
H	-0.020360	-5.148785	5.246157
C	0.851649	-2.587487	-4.829716
H	0.962191	-3.483329	-5.462742
H	1.765865	-1.964972	-4.863242
H	0.005383	-1.962932	-5.173521
C	0.000000	0.000000	0.000000
S	0.271091	0.745405	1.580530
C	0.831198	2.284363	0.904911
C	0.341175	0.937861	-0.985400
C	0.792631	2.178516	-0.493528
H	0.260601	0.716417	-2.059934
H	1.093860	3.006347	-1.152593
H	1.132330	3.111961	1.556025
H	0.909181	-7.361589	0.008120
H	-0.860264	-7.361192	-0.304668
H	1.063500	-1.478831	0.188062
$end

$rem
JOBTYPE		SP
EXCHANGE	HF
CORRELATION	pRIMP2
BASIS		cc-pvtz
METHOD		rimp2
AUX_BASIS	rimp2-cc-pvtz
SOLVENT_METHOD	PCM
PURECART	11111
SYMMETRY	false
MEM_TOTAL	110000
SCF_CONVERGENCE = 6
THRESH=10
GUI = 2
$end



$solvent
dielectric 4.90
$end
--------------------------------------------------------------
 ----------------------------------------------------------------
             Standard Nuclear Orientation (Angstroms)
    I     Atom           X                Y                Z
 ----------------------------------------------------------------
    1      C       0.0431600000    -6.7414040000    -0.2532800000
    2      C       0.2697770000    -6.1556380000    -1.5392130000
    3      C      -0.1455430000    -5.7914520000     0.8142950000
    4      C       0.3183770000    -4.8037860000    -1.8135190000
    5      H       0.4220580000    -6.8215180000    -2.4039410000
    6      C      -0.0941940000    -4.3786380000     0.5271400000
    7      C       0.1371910000    -3.8380320000    -0.7830720000
    8      C      -0.2751040000    -3.4130620000     1.5564030000
    9      C       0.1881160000    -2.4264730000    -1.0679320000
   10      C      -0.2267010000    -2.0593480000     1.2854200000
   11      C       0.0000000000    -1.4782160000     0.0000000000
   12      H      -0.3789310000    -1.3947830000     2.1511470000
   13      C      -0.3978450000    -6.1879870000     2.2345820000
   14      C      -0.5236370000    -3.7981640000     2.9652730000
   15      N      -0.5675860000    -5.1700030000     3.2047440000
   16      C       0.5674210000    -4.4249870000    -3.2262570000
   17      C       0.4395410000    -2.0366270000    -2.4894460000
   18      N       0.6096500000    -3.0491560000    -3.4598010000
   19      O      -0.4686080000    -7.3531310000     2.6194680000
   20      O      -0.6830340000    -2.9868540000     3.8746680000
   21      O       0.7251310000    -5.2489460000    -4.1248060000
   22      O       0.5126480000    -0.8788290000    -2.8958190000
   23      C      -0.8139080000    -5.5637990000     4.5956910000
   24      H      -0.8228910000    -6.6640850000     4.6400220000
   25      H      -1.7816000000    -5.1471010000     4.9348300000
   26      H      -0.0203600000    -5.1487850000     5.2461570000
   27      C       0.8516490000    -2.5874870000    -4.8297160000
   28      H       0.9621910000    -3.4833290000    -5.4627420000
   29      H       1.7658650000    -1.9649720000    -4.8632420000
   30      H       0.0053830000    -1.9629320000    -5.1735210000
   31      C       0.0000000000     0.0000000000     0.0000000000
   32      S       0.2710910000     0.7454050000     1.5805300000
   33      C       0.8311980000     2.2843630000     0.9049110000
   34      C       0.3411750000     0.9378610000    -0.9854000000
   35      C       0.7926310000     2.1785160000    -0.4935280000
   36      H       0.2606010000     0.7164170000    -2.0599340000
   37      H       1.0938600000     3.0063470000    -1.1525930000
   38      H       1.1323300000     3.1119610000     1.5560250000
   39      H       0.9091810000    -7.3615890000     0.0081200000
   40      H      -0.8602640000    -7.3611920000    -0.3046680000
   41      H       1.0635000000    -1.4788310000     0.1880620000
 ----------------------------------------------------------------
 Nuclear Repulsion Energy =        2558.04040588 hartrees
 There are       98 alpha and       98 beta electrons
 Requested basis set is cc-pVTZ
 There are 356 shells and 1010 basis functions

 Total QAlloc Memory Limit 110000 MB
 Mega-Array Size       188 MB
 MEM_STATIC part       192 MB
 Discretize the solute cavity surface with Lebedev spheres
	Using 110 Lebedev grid points for each H atom
	Using 194 Lebedev grid points for other atoms
	Atomic van der Waals radii will be scaled by 1.20
 Remove points where switching function is < 1.0e-08
 Keep 2608 surface tesserae and discard 4170 interior tesserae
 Molecular Surface Area = 360.753 Angst**2
 Requested basis set is rimp2-cc-pVTZ
 There are 770 shells and 2648 basis functions
 A cutoff of  1.0D-10 yielded  34328 shell pairs
 There are    259602 function pairs (    335990 Cartesian)
 Smallest overlap matrix eigenvalue = 9.24E-06

 Q-Chem warning in module stvman/mkSTV.C, line 323:

 Overlap eigenvalue is smaller than square root of threshold
 Use THRESH >= 12 to get rid of this warning


 Scale SEOQF with 1.000000e-01/1.000000e-02/1.000000e-02

 Standard Electronic Orientation quadrupole field applied
 Nucleus-field energy     =     0.0000000113 hartrees
 Guess from superposition of atomic densities
 Warning:  Energy on first SCF cycle will be non-variational
 SAD guess density has 196.000000 electrons

 -----------------------------------------------------------------------
  General SCF calculation program by
  Eric Jon Sundstrom, Paul Horn, Yuezhi Mao, Dmitri Zuev, Alec White,
  David Stuck, Shaama M.S., Shane Yost, Joonho Lee, David Small,
  Daniel Levine, Susi Lehtola, Hugh Burton, Evgeny Epifanovsky,
  Bang C. Huynh
 -----------------------------------------------------------------------
 Hartree-Fock
 using 64 threads for integral computing
 -------------------------------------------------------
 OpenMP Integral computing Module                
 Release: version 1.0, May 2013, Q-Chem Inc. Pittsburgh 
 -------------------------------------------------------
 A restricted SCF calculation will be
 performed using DIIS
 SCF converges when DIIS error is below 1.0e-06
 ---------------------------------------
  Cycle       Energy         DIIS error
 ---------------------------------------
    1   -1583.2208690776      1.87e-02  
    2   -1571.1450676137      2.03e-03  
    3   -1571.4880663330      1.54e-03  
    4   -1571.7092363422      2.54e-04  
    5   -1571.7231586172      7.89e-05  
    6   -1571.7245988461      3.04e-05  
    7   -1571.7250251969      1.55e-05  
    8   -1571.7251404676      6.10e-06  
    9   -1571.7251599247      2.85e-06  
   10   -1571.7251637061      1.21e-06  
   11   -1571.7251649030      5.85e-07  Convergence criterion met
 ---------------------------------------
 SCF time:   CPU 7438.20s  wall 300.00s 

************** Final PCM Free Energy Summary **************
 G_electrostatic  =      -0.02692430 hartree =     -16.89525150 kcal/mol
 G_cavitation     =       0.00000000 hartree =       0.00000000 kcal/mol
 G_dispersion     =       0.00000000 hartree =       0.00000000 kcal/mol
 G_repulsion      =       0.00000000 hartree =       0.00000000 kcal/mol
 --------------------------------------------------
 Non-electrostatic Free Energy =       0.00000000 hartree =       0.00000000 kcal/mol
 Total                         =      -0.02692430 hartree =     -16.89525150 kcal/mol
 --------------------------------------------------
 SCF Energy (H0 + V/2)                       =   -1571.72516490 
 Solute Internal Energy (H0)                 =   -1571.69824061 
 Total Free Energy (H0 + V/2 + non-elec)     =   -1571.72516490 hartree
                                             = -986272.42678570 kcal/mol
***********************************************************

 SCF   energy in the final basis set =    -1571.7251649030
 Total energy in the final basis set =    -1571.7251649030


 --------------------------------------------------------------
  Generalized many-body perturbation theory program
  by Joonho Lee, Fazle Rob, Xintian Feng, Evgeny Epifanovsky

 No regularization used 
 (reg. param. = 0.0000e+00)
  (P|Q)^-1/2 Time:  CPU 3069.14 s  wall 52.31 s

 In RI-MP2 calculation: 
 # of frozen core orbitals: 31

 Components of the RIMP2 correlation energy:
        aaaa    correlation energy =        -0.6163256889 a.u.
        abab    correlation energy =        -3.4275335897 a.u.
        bbbb    correlation energy =        -0.6163256889 a.u.
        non-Brillouin singles      =        -0.0000000000 a.u.
        total same-spin energy     =        -1.2326513779 a.u.
        total opposite-spin energy =        -3.4275335897 a.u.

 Total  RIMP2   correlation energy =        -4.6601849676 a.u.
        RIMP2         total energy =     -1576.3853498706 a.u.

 RI-MP2 Energy Time:  CPU 6335.12 s  wall 106.41 s
 
 --------------------------------------------------------------
 
                    Orbital Energies (a.u.)
 --------------------------------------------------------------
 
 Alpha MOs
 -- Occupied --
-91.9881 -20.5533 -20.5460 -20.5426 -20.5415 -15.6295 -15.6219 -11.3983
-11.3868 -11.3844 -11.3800 -11.3101 -11.3092 -11.3064 -11.3055 -11.2979
-11.2947 -11.2918 -11.2763 -11.2709 -11.2693 -11.2674 -11.2645 -11.2597
-11.2538 -11.2458 -11.2349  -8.9883  -6.6692  -6.6687  -6.6680  -1.4245
 -1.4130  -1.4005  -1.3922  -1.2651  -1.2563  -1.2321  -1.1883  -1.1499
 -1.1154  -1.0873  -1.0489  -0.9959  -0.9889  -0.9816  -0.9560  -0.9490
 -0.8982  -0.8908  -0.8785  -0.8618  -0.7944  -0.7810  -0.7733  -0.7592
 -0.7403  -0.7223  -0.7025  -0.6895  -0.6818  -0.6752  -0.6685  -0.6584
 -0.6495  -0.6477  -0.6384  -0.6325  -0.6318  -0.6299  -0.6243  -0.6055
 -0.5926  -0.5710  -0.5638  -0.5610  -0.5575  -0.5525  -0.5518  -0.5490
 -0.5483  -0.5427  -0.5176  -0.5147  -0.5103  -0.4858  -0.4740  -0.4601
 -0.4577  -0.4489  -0.4429  -0.4366  -0.4164  -0.4084  -0.3577  -0.3489
 -0.3317  -0.2778
 -- Virtual --
  0.0113   0.0389   0.0867   0.0984   0.1455   0.1505   0.1583   0.1606
  0.1635   0.1694   0.1776   0.1790   0.1887   0.1964   0.2034   0.2061
  0.2148   0.2244   0.2275   0.2286   0.2323   0.2358   0.2493   0.2620
  0.2641   0.2732   0.3024   0.3098   0.3209   0.3220   0.3287   0.3356
  0.3388   0.3410   0.3423   0.3528   0.3563   0.3596   0.3647   0.3669
  0.3719   0.3858   0.3864   0.3870   0.3928   0.4002   0.4094   0.4149
  0.4191   0.4265   0.4293   0.4318   0.4401   0.4431   0.4464   0.4506
  0.4546   0.4577   0.4603   0.4685   0.4719   0.4816   0.4902   0.4964
  0.5006   0.5029   0.5080   0.5132   0.5156   0.5214   0.5234   0.5290
  0.5326   0.5354   0.5461   0.5505   0.5518   0.5616   0.5621   0.5652
  0.5740   0.5783   0.5826   0.5870   0.5895   0.5949   0.5977   0.6020
  0.6047   0.6064   0.6084   0.6130   0.6145   0.6191   0.6263   0.6286
  0.6307   0.6336   0.6340   0.6392   0.6418   0.6465   0.6562   0.6614
  0.6658   0.6696   0.6808   0.6857   0.6861   0.6917   0.6987   0.7000
  0.7109   0.7225   0.7313   0.7351   0.7389   0.7419   0.7602   0.7609
  0.7692   0.7708   0.7744   0.7832   0.7895   0.7977   0.8033   0.8063
  0.8122   0.8147   0.8262   0.8280   0.8361   0.8389   0.8412   0.8469
  0.8544   0.8568   0.8609   0.8686   0.8733   0.8749   0.8820   0.8925
  0.8960   0.9007   0.9088   0.9160   0.9204   0.9229   0.9267   0.9336
  0.9377   0.9439   0.9497   0.9534   0.9626   0.9639   0.9707   0.9780
  0.9877   0.9901   0.9962   0.9973   1.0058   1.0104   1.0184   1.0233
  1.0276   1.0320   1.0361   1.0491   1.0548   1.0593   1.0603   1.0624
  1.0702   1.0708   1.0755   1.0793   1.0836   1.0884   1.0947   1.1013
  1.1102   1.1161   1.1207   1.1238   1.1293   1.1341   1.1390   1.1465
  1.1473   1.1620   1.1639   1.1683   1.1771   1.1827   1.1853   1.1892
  1.1955   1.1999   1.2030   1.2086   1.2147   1.2218   1.2228   1.2281
  1.2359   1.2389   1.2406   1.2472   1.2543   1.2573   1.2658   1.2686
  1.2752   1.2842   1.3001   1.3040   1.3138   1.3234   1.3362   1.3382
  1.3488   1.3505   1.3578   1.3690   1.3759   1.3829   1.3850   1.3917
  1.3929   1.3944   1.3951   1.4024   1.4176   1.4250   1.4391   1.4426
  1.4530   1.4613   1.4631   1.4753   1.4767   1.4855   1.4940   1.4958
  1.4998   1.5021   1.5074   1.5123   1.5216   1.5282   1.5345   1.5433
  1.5465   1.5518   1.5591   1.5619   1.5687   1.5714   1.5725   1.5863
  1.5904   1.6005   1.6029   1.6042   1.6241   1.6297   1.6379   1.6439
  1.6471   1.6548   1.6647   1.6688   1.6802   1.6922   1.6939   1.7050
  1.7068   1.7184   1.7239   1.7384   1.7428   1.7453   1.7532   1.7606
  1.7656   1.7757   1.7807   1.7870   1.7988   1.8024   1.8108   1.8153
  1.8265   1.8402   1.8423   1.8516   1.8639   1.8691   1.8709   1.8735
  1.8748   1.8884   1.8893   1.9001   1.9181   1.9274   1.9390   1.9561
  1.9597   1.9675   1.9819   1.9847   1.9910   1.9935   2.0197   2.0268
  2.0344   2.0441   2.0660   2.0825   2.0930   2.1044   2.1192   2.1318
  2.1418   2.1571   2.1653   2.1768   2.1949   2.1971   2.2180   2.2237
  2.2384   2.2512   2.2607   2.2797   2.2899   2.2932   2.3056   2.3138
  2.3211   2.3329   2.3456   2.3524   2.3540   2.3651   2.3814   2.3937
  2.4104   2.4148   2.4302   2.4360   2.4493   2.4536   2.4596   2.4702
  2.4831   2.4937   2.5036   2.5074   2.5249   2.5349   2.5467   2.5591
  2.5618   2.5727   2.5811   2.5874   2.5927   2.5994   2.6043   2.6189
  2.6279   2.6366   2.6447   2.6459   2.6584   2.6665   2.6715   2.6771
  2.6851   2.6891   2.6970   2.7051   2.7152   2.7288   2.7311   2.7421
  2.7440   2.7478   2.7557   2.7613   2.7648   2.7768   2.7843   2.7915
  2.8193   2.8260   2.8377   2.8431   2.8565   2.8582   2.8704   2.8730
  2.8798   2.8809   2.8904   2.8924   2.9000   2.9014   2.9124   2.9156
  2.9178   2.9280   2.9377   2.9492   2.9532   2.9635   2.9675   2.9766
  2.9801   2.9918   2.9922   3.0031   3.0091   3.0191   3.0210   3.0289
  3.0333   3.0435   3.0487   3.0502   3.0671   3.0765   3.0842   3.0900
  3.0958   3.0989   3.1028   3.1053   3.1082   3.1094   3.1197   3.1311
  3.1343   3.1388   3.1432   3.1508   3.1616   3.1633   3.1663   3.1806
  3.1824   3.1917   3.2002   3.2034   3.2069   3.2141   3.2157   3.2250
  3.2264   3.2404   3.2429   3.2489   3.2528   3.2585   3.2622   3.2672
  3.2702   3.2737   3.2801   3.2822   3.2883   3.2971   3.3032   3.3095
  3.3126   3.3203   3.3233   3.3270   3.3281   3.3319   3.3358   3.3431
  3.3436   3.3460   3.3554   3.3610   3.3661   3.3691   3.3728   3.3758
  3.3816   3.3824   3.3904   3.3966   3.4009   3.4028   3.4106   3.4158
  3.4201   3.4278   3.4303   3.4374   3.4388   3.4414   3.4427   3.4482
  3.4582   3.4628   3.4689   3.4732   3.4762   3.4795   3.4838   3.4920
  3.4941   3.5011   3.5079   3.5106   3.5134   3.5185   3.5245   3.5315
  3.5424   3.5430   3.5468   3.5583   3.5619   3.5723   3.5767   3.5804
  3.5840   3.5891   3.5969   3.6063   3.6152   3.6179   3.6262   3.6279
  3.6293   3.6328   3.6392   3.6423   3.6466   3.6513   3.6601   3.6621
  3.6711   3.6827   3.6862   3.6898   3.6956   3.7012   3.7046   3.7136
  3.7167   3.7242   3.7340   3.7366   3.7420   3.7465   3.7521   3.7568
  3.7615   3.7682   3.7744   3.7790   3.7865   3.7953   3.7960   3.8078
  3.8107   3.8171   3.8228   3.8303   3.8317   3.8406   3.8431   3.8546
  3.8563   3.8624   3.8642   3.8755   3.8827   3.8929   3.8934   3.9072
  3.9171   3.9204   3.9290   3.9326   3.9406   3.9482   3.9529   3.9600
  3.9606   3.9717   3.9772   3.9808   3.9900   3.9958   4.0087   4.0143
  4.0174   4.0355   4.0455   4.0530   4.0580   4.0617   4.0690   4.0753
  4.0906   4.1057   4.1119   4.1171   4.1255   4.1360   4.1422   4.1466
  4.1536   4.1635   4.1678   4.1716   4.1755   4.1784   4.1824   4.2013
  4.2196   4.2277   4.2403   4.2429   4.2453   4.2539   4.2613   4.2679
  4.2732   4.2799   4.2829   4.2903   4.2915   4.2985   4.3041   4.3140
  4.3198   4.3268   4.3295   4.3331   4.3362   4.3431   4.3501   4.3594
  4.3647   4.3671   4.3685   4.3742   4.3780   4.3882   4.3991   4.4032
  4.4094   4.4122   4.4171   4.4248   4.4407   4.4488   4.4582   4.4609
  4.4761   4.4909   4.4981   4.5015   4.5086   4.5114   4.5293   4.5314
  4.5383   4.5489   4.5552   4.5617   4.5735   4.5767   4.5882   4.5924
  4.6001   4.6040   4.6080   4.6141   4.6199   4.6246   4.6345   4.6453
  4.6574   4.6693   4.6783   4.6854   4.6893   4.6975   4.7058   4.7133
  4.7188   4.7363   4.7520   4.7626   4.7818   4.7832   4.7956   4.8008
  4.8128   4.8244   4.8385   4.8464   4.8586   4.8610   4.8748   4.8830
  4.8946   4.9049   4.9184   4.9293   4.9474   4.9591   4.9602   4.9870
  4.9916   5.0087   5.0171   5.0232   5.0358   5.0384   5.0553   5.0638
  5.0865   5.1063   5.1081   5.1198   5.1216   5.1346   5.1350   5.1500
  5.1629   5.1682   5.1823   5.1842   5.1976   5.2125   5.2245   5.2429
  5.2614   5.2658   5.2851   5.2902   5.2985   5.3101   5.3282   5.3314
  5.3356   5.3416   5.3583   5.3724   5.3770   5.3879   5.4020   5.4149
  5.4369   5.4458   5.4723   5.4847   5.4948   5.5122   5.5133   5.5168
  5.5224   5.5377   5.5521   5.5556   5.5590   5.5666   5.5684   5.5728
  5.5764   5.5855   5.5948   5.6060   5.6130   5.6209   5.6259   5.6314
  5.6425   5.6486   5.6600   5.6631   5.6658   5.6691   5.6805   5.6932
  5.6981   5.7102   5.7195   5.7512   5.7597   5.7639   5.7704   5.7837
  5.7893   5.8017   5.8293   5.8410   5.8480   5.8593   5.8956   5.9121
  5.9437   5.9650   5.9696   5.9815   6.0090   6.0285   6.0371   6.0432
  6.0496   6.0783   6.1103   6.1170   6.1251   6.1447   6.1670   6.1886
  6.2054   6.2193   6.2252   6.2261   6.2500   6.2768   6.2826   6.2972
  6.3129   6.3170   6.3244   6.3602   6.3711   6.3941   6.4467   6.4894
  6.5234   6.5348   6.5738   6.5820   6.6022   6.6366   6.6572   6.6645
  6.6739   6.7432   6.8517   6.8552   6.8937   6.9010   6.9046   6.9263
  6.9292   6.9566   7.1051   7.1401   7.1565   7.2037   7.2148   7.2789
  7.3465   7.3510   7.3572   7.3625   7.4784   7.5460   7.5716   7.5840
  7.5937   7.6409   7.6557   7.6929   7.7086   7.8390   8.9384  10.0612
 10.4191  11.3054  11.5634  11.7856  12.0066  12.1564  12.4286  12.5372
 12.9832  13.2497  13.4038  13.5708  13.8031  13.9403  14.1322  14.3018
 14.3254  14.3808  14.5594  14.7827  15.0578  15.6251  15.8398  16.3269
 --------------------------------------------------------------
 
          Ground-State Mulliken Net Atomic Charges

     Atom                 Charge (a.u.)
  ----------------------------------------
      1 C                    -0.083650
      2 C                    -0.031186
      3 C                    -0.105927
      4 C                    -0.122660
      5 H                     0.199096
      6 C                     0.024276
      7 C                     0.120038
      8 C                    -0.052537
      9 C                    -0.200910
     10 C                    -0.162709
     11 C                     0.187702
     12 H                     0.182233
     13 C                     0.342631
     14 C                     0.347027
     15 N                    -0.090202
     16 C                     0.358259
     17 C                     0.385080
     18 N                    -0.087492
     19 O                    -0.493101
     20 O                    -0.505854
     21 O                    -0.500165
     22 O                    -0.478475
     23 C                    -0.204714
     24 H                     0.139576
     25 H                     0.109594
     26 H                     0.109503
     27 C                    -0.198890
     28 H                     0.134568
     29 H                     0.111774
     30 H                     0.112248
     31 C                     0.011393
     32 S                    -0.007526
     33 C                    -0.242672
     34 C                    -0.225088
     35 C                    -0.205220
     36 H                     0.221132
     37 H                     0.190860
     38 H                     0.213999
     39 H                     0.138261
     40 H                     0.138683
     41 H                     0.221046
  ----------------------------------------
  Sum of atomic charges =     0.000000

 -----------------------------------------------------------------
                    Cartesian Multipole Moments
 -----------------------------------------------------------------
    Charge (ESU x 10^10)
                 0.0000
    Dipole Moment (Debye)
         X       1.6923      Y       1.3411      Z      -2.2206
       Tot       3.0974
    Quadrupole Moments (Debye-Ang)
        XX    -162.1920     XY       0.5049     YY    -177.0546
        XZ       5.4356     YZ       8.9194     ZZ    -187.5432
    Octopole Moments (Debye-Ang^2)
       XXX     -58.8781    XXY     466.6067    XYY       5.6415
       YYY    1671.7231    XXZ      -1.5158    XYZ     -20.7476
       YYZ     -55.3757    XZZ     -15.7413    YZZ     602.8972
       ZZZ     -10.3965
    Hexadecapole Moments (Debye-Ang^3)
      XXXX    -437.4045   XXXY    -155.9876   XXYY   -2683.4191
      XYYY    -255.4078   YYYY  -17935.0384   XXXZ     474.9739
      XXYZ      99.7904   XYYZ     316.6905   YYYZ    1123.7451
      XXZZ   -1091.4243   XYZZ      18.3600   YYZZ   -4423.7516
      XZZZ     544.2473   YZZZ      12.2139   ZZZZ   -6419.1943
 -----------------------------------------------------------------
 Total job time:  431.35s(wall), 15100.39s(cpu) 
 Sun Sep 24 15:08:51 2023

        *************************************************************
        *                                                           *
        *  Thank you very much for using Q-Chem.  Have a nice day.  *
        *                                                           *
        *************************************************************


0 sent ACK to 0 
now end server 0 ... 
cleanup process ... done
remove work dirs ./qchem4068269.0 -- ./qchem4068269.0
rm -rf ./qchem4068269.0
rm -rf ./qchem4068269
