You are running Q-Chem version: 5.4.0

#
# job setting
#
local host:  exp-4-53
current dir: /expanse/lustre/projects/csd626/rramji/aromodel/PNDIT/Hydrogenated_Rotation_Test
input file:  Dimethyl_Naphthalene_Dicarboximide_Phi_15_Theta_250_Thiophene_Hydrogenated.qcin
output file: 
nprocs     : 1
nthreads   : 64
#
# qchem installation setting
#
QC:          /cm/shared/apps/spack/cpu/opt/spack/linux-centos8-zen2/gcc-10.2.0/qchem-5.4-akfmr7b3t57bfs6qan3padb2wnb2i7cl
QCAUX:       /cm/shared/apps/spack/cpu/opt/spack/linux-centos8-zen2/gcc-10.2.0/qchem-5.4-akfmr7b3t57bfs6qan3padb2wnb2i7cl/qcaux
QCPROG:      /cm/shared/apps/spack/cpu/opt/spack/linux-centos8-zen2/gcc-10.2.0/qchem-5.4-akfmr7b3t57bfs6qan3padb2wnb2i7cl/exe/qcprog.exe
QCPROG_S:    /cm/shared/apps/spack/cpu/opt/spack/linux-centos8-zen2/gcc-10.2.0/qchem-5.4-akfmr7b3t57bfs6qan3padb2wnb2i7cl/exe/qcprog.exe_s
PARALLEL:    -DPARALLEL
QCMPI:       mpich
#
# qchem directory setting
#
qcrun:       qchem1608605
QCSCRATCH:   .
QCLOCALSCR:  
QCTMPDIR:    .
QCFILEPREF:  ./qchem1608605
QCSAVEDIR:   
workdirs:    ./qchem1608605
workdir0:    ./qchem1608605
partmpdirs =  
#
# parallel setting
#
QCRSH:           ssh
QCMPI:           mpich
QCMPIRUN:        /cm/shared/apps/spack/cpu/opt/spack/linux-centos8-zen2/gcc-10.2.0/qchem-5.4-akfmr7b3t57bfs6qan3padb2wnb2i7cl/bin/mpi/mpirun_qchem
QCMACHINEFILE:   ./qchem1608605/hostfile
exp-4-53

#
# env setting
#
exported envs:   QC QCAUX QCSCRATCH QCRUNNAME QCFILEPREF QCPROG QCPROG_S GUIFILE

Running Job 1 of 1 Dimethyl_Naphthalene_Dicarboximide_Phi_15_Theta_250_Thiophene_Hydrogenated.qcin
qchem Dimethyl_Naphthalene_Dicarboximide_Phi_15_Theta_250_Thiophene_Hydrogenated.qcin_1608605.0 ./qchem1608605/ 1
/cm/shared/apps/spack/cpu/opt/spack/linux-centos8-zen2/gcc-10.2.0/qchem-5.4-akfmr7b3t57bfs6qan3padb2wnb2i7cl/bin/mpi/mpirun_qchem -machinefile ./qchem1608605/hostfile -np 1 /cm/shared/apps/spack/cpu/opt/spack/linux-centos8-zen2/gcc-10.2.0/qchem-5.4-akfmr7b3t57bfs6qan3padb2wnb2i7cl/exe/qcprog.exe Dimethyl_Naphthalene_Dicarboximide_Phi_15_Theta_250_Thiophene_Hydrogenated.qcin_1608605.0 ./qchem1608605/

Process 0 of 1 is on exp-4-53 - thread support 0
initial socket setup ...start
initial socket setup ...done 
now start server 0 ... 
                  Welcome to Q-Chem
     A Quantum Leap Into The Future Of Chemistry


 Q-Chem 5.4, Q-Chem, Inc., Pleasanton, CA (2021)

 License issued to: University of California, San Diego (site)

 E. Epifanovsky,  A. T. B. Gilbert,  Xintian Feng,  Joonho Lee,  Yuezhi Mao,  
 N. Mardirossian,  P. Pokhilko,  A. White,  M. Wormit,  M. P. Coons,  
 A. L. Dempwolff,  Zhengting Gan,  D. Hait,  P. R. Horn,  L. D. Jacobson,  
 I. Kaliman,  J. Kussmann,  A. W. Lange,  Ka Un Lao,  D. S. Levine,  Jie Liu,  
 S. C. McKenzie,  A. F. Morrison,  K. Nanda,  F. Plasser,  D. R. Rehn,  
 M. L. Vidal,  Zhi-Qiang You,  Ying Zhu,  B. Alam,  B. Albrecht,  
 A. Aldossary,  E. Alguire,  J. H. Andersen,  D. Barton,  K. Begam,  A. Behn,  
 Y. A. Bernard,  E. J. Berquist,  H. Burton,  A. Carreras,  K. Carter-Fenk,  
 R. Chakraborty,  A. D. Chien,  K. D. Closser,  V. Cofer-Shabica,  
 S. Dasgupta,  Jia Deng,  M. de Wergifosse,  M. Diedenhofen,  Hainam Do,  
 S. Ehlert,  Po-Tung Fang,  S. Fatehi,  Qingguo Feng,  J. Gayvert,  
 Qinghui Ge,  G. Gidofalvi,  M. Goldey,  J. Gomes,  C. Gonzalez-Espinoza,  
 S. Gulania,  A. Gunina,  M. W. D. Hanson-Heine,  P. H. P. Harbach,  
 A. W. Hauser,  M. F. Herbst,  M. Hernandez Vera,  M. Hodecker,  
 Z. C. Holden,  S. Houck,  Xunkun Huang,  Kerwin Hui,  B. C. Huynh,  
 M. Ivanov,  Hyunjun Ji,  Hanjie Jiang,  B. Kaduk,  S. Kaehler,  
 K. Khistyaev,  Jaehoon Kim,  P. Klunzinger,  Z. Koczor-Benda,  
 Joong Hoon Koh,  D. Kosenkov,  L. Koulias,  T. Kowalczyk,  C. M. Krauter,  
 K. Kue,  A. Kunitsa,  T. Kus,  A. Landau,  K. V. Lawler,  D. Lefrancois,  
 S. Lehtola,  Rain Li,  Yi-Pei Li,  Jiashu Liang,  M. Liebenthal,  
 Hung-Hsuan Lin,  You-Sheng Lin,  Fenglai Liu,  Kuan-Yu Liu,  
 M. Loipersberger,  A. Luenser,  A. Manjanath,  P. Manohar,  E. Mansoor,  
 S. F. Manzer,  Shan-Ping Mao,  A. V. Marenich,  T. Markovich,  S. Mason,  
 S. A. Maurer,  P. F. McLaughlin,  M. F. S. J. Menger,  J.-M. Mewes,  
 S. A. Mewes,  P. Morgante,  J. W. Mullinax,  T. S. Nguyen-Beck,  
 K. J. Oosterbaan,  G. Paran,  Alexander C. Paul,  Suranjan K. Paul,  
 F. Pavosevic,  Zheng Pei,  S. Prager,  E. I. Proynov,  E. Ramos,  B. Rana,  
 A. E. Rask,  A. Rettig,  R. M. Richard,  F. Rob,  E. Rossomme,  T. Scheele,  
 M. Scheurer,  M. Schneider,  N. Sergueev,  S. M. Sharada,  W. Skomorowski,  
 D. W. Small,  C. J. Stein,  Yu-Chuan Su,  E. J. Sundstrom,  Zhen Tao,  
 J. Thirman,  T. Tsuchimochi,  N. M. Tubman,  S. P. Veccham,  O. Vydrov,  
 J. Wenzel,  J. Witte,  A. Yamada,  Kun Yao,  S. Yeganeh,  S. R. Yost,  
 A. Zech,  Igor Ying Zhang,  Xing Zhang,  Yu Zhang,  D. Zuev,  
 A. Aspuru-Guzik,  A. T. Bell,  N. A. Besley,  K. B. Bravaya,  B. R. Brooks,  
 D. Casanova,  Jeng-Da Chai,  S. Coriani,  C. J. Cramer,  
 A. E. DePrince, III,  R. A. DiStasio Jr.,  A. Dreuw,  B. D. Dunietz,  
 T. R. Furlani,  W. A. Goddard III,  S. Grimme,  S. Hammes-Schiffer,  
 T. Head-Gordon,  W. J. Hehre,  Chao-Ping Hsu,  T.-C. Jagau,  Yousung Jung,  
 A. Klamt,  Jing Kong,  D. S. Lambrecht,  WanZhen Liang,  N. J. Mayhall,  
 C. W. McCurdy,  J. B. Neaton,  C. Ochsenfeld,  J. A. Parkhill,  R. Peverati,  
 V. A. Rassolov,  Yihan Shao,  L. V. Slipchenko,  T. Stauch,  R. P. Steele,  
 J. E. Subotnik,  A. J. W. Thom,  A. Tkatchenko,  D. G. Truhlar,  
 T. Van Voorhis,  T. A. Wesolowski,  K. B. Whaley,  H. L. Woodcock III,  
 P. M. Zimmerman,  S. Faraji,  P. M. W. Gill,  M. Head-Gordon,  
 J. M. Herbert,  A. I. Krylov

 Contributors to earlier versions of Q-Chem not listed above: 
 R. D. Adamson,  B. Austin,  R. Baer,  J. Baker,  G. J. O. Beran,  
 K. Brandhorst,  S. T. Brown,  E. F. C. Byrd,  A. K. Chakraborty,  
 G. K. L. Chan,  Chun-Min Chang,  Yunqing Chen,  C.-L. Cheng,  
 Siu Hung Chien,  D. M. Chipman,  D. L. Crittenden,  H. Dachsel,  
 R. J. Doerksen,  A. D. Dutoi,  R. G. Edgar,  J. Fosso-Tande,  
 L. Fusti-Molnar,  D. Ghosh,  A. Ghysels,  A. Golubeva-Zadorozhnaya,  
 J. Gonthier,  M. S. Gordon,  S. R. Gwaltney,  G. Hawkins,  J. E. Herr,  
 A. Heyden,  S. Hirata,  E. G. Hohenstein,  G. Kedziora,  F. J. Keil,  
 C. Kelley,  Jihan Kim,  R. A. King,  R. Z. Khaliullin,  P. P. Korambath,  
 W. Kurlancheek,  A. Laurent,  A. M. Lee,  M. S. Lee,  S. V. Levchenko,  
 Ching Yeh Lin,  D. Liotard,  E. Livshits,  R. C. Lochan,  I. Lotan,  
 L. A. Martinez-Martinez,  P. E. Maslen,  N. Nair,  D. P. O'Neill,  
 D. Neuhauser,  E. Neuscamman,  C. M. Oana,  R. Olivares-Amaya,  R. Olson,  
 T. M. Perrine,  B. Peters,  P. A. Pieniazek,  A. Prociuk,  Y. M. Rhee,  
 J. Ritchie,  M. A. Rohrdanz,  E. Rosta,  N. J. Russ,  H. F. Schaefer III,  
 M. W. Schmidt,  N. E. Schultz,  S. Sharma,  N. Shenvi,  C. D. Sherrill,  
 A. C. Simmonett,  A. Sodt,  T. Stein,  D. Stuck,  K. S. Thanthiriwatte,  
 V. Vanovschi,  L. Vogt,  Tao Wang,  A. Warshel,  M. A. Watson,  
 C. F. Williams,  Q. Wu,  X. Xu,  Jun Yang,  W. Zhang,  Yan Zhao

 Please cite Q-Chem as follows:
 Y. Shao et al., Mol. Phys. 113, 184-215 (2015)
 DOI: 10.1080/00268976.2014.952696

 Q-Chem 5.4.0 for Intel X86 EM64T Linux

 Parts of Q-Chem use Armadillo 9.800.1 (Horizon Scraper).
 http://arma.sourceforge.net/

 Q-Chem begins on Wed Sep 27 00:01:53 2023  

 Host: 
0

     Scratch files written to ./qchem1608605//
 May1621 |scratch|qcdevops|jenkins|workspace|build_RNUM    
 Parallel job on  1  processors
 Processing $rem in /cm/shared/apps/spack/cpu/opt/spack/linux-centos8-zen2/gcc-10.2.0/qchem-5.4-akfmr7b3t57bfs6qan3padb2wnb2i7cl/config/preferences:
 Processing $rem in /home/rramji/.qchemrc:
 Symmetry turned off for PCM/SM12/SMD calculation
 Core orbitals will be frozen

 Checking the input file for inconsistencies... 	...done.

 Q-Chem warning in module forms1/BasisType.C, line 2236:

 You are not using the predefined 5D/6D in this basis set.


--------------------------------------------------------------
User input:
--------------------------------------------------------------
$molecule
0 1
C	-0.240927	-6.741404	0.089263
C	-1.467886	-6.155638	0.535973
C	0.777972	-5.791452	-0.281103
C	-1.729742	-4.803786	0.631036
H	-2.292903	-6.821518	0.836458
C	0.503614	-4.378638	-0.181995
C	-0.746756	-3.838032	0.272725
C	1.485437	-3.413062	-0.539954
C	-1.018915	-2.426473	0.371053
C	1.226557	-2.059348	-0.446381
C	0.000000	-1.478216	0.000000
H	2.052413	-1.394783	-0.747410
C	2.134128	-6.187987	-0.772747
C	2.829820	-3.798164	-1.029154
N	3.059182	-5.170003	-1.110828
C	-3.077731	-4.424987	1.121728
C	-2.375694	-2.036627	0.864069
N	-3.301101	-3.049156	1.201928
O	2.502830	-7.353131	-0.903908
O	3.697078	-2.986854	-1.345809
O	-3.934752	-5.248946	1.434422
O	-2.764177	-0.878829	1.003943
C	4.386939	-5.563799	-1.592981
H	4.429822	-6.664085	-1.607367
H	5.164489	-5.147101	-0.924504
H	4.553486	-5.148785	-2.605446
C	-4.608481	-2.587487	1.677308
H	-5.211969	-3.483329	1.898089
H	-5.094624	-1.964972	0.902337
H	-4.483092	-1.962932	2.582098
C	0.000000	0.000000	0.000000
S	0.205093	0.766196	1.580530
C	0.628939	2.348114	0.904911
C	0.258137	0.964028	-0.985400
C	0.599745	2.239309	-0.493528
H	0.197169	0.736404	-2.059934
H	0.827678	3.090243	-1.152593
H	0.856796	3.198808	1.556025
H	-0.447559	-7.361589	-0.791434
H	0.166282	-7.361192	0.897345
H	-0.368883	-1.478831	-1.015049
$end

$rem
JOBTYPE		SP
EXCHANGE	HF
CORRELATION	pRIMP2
BASIS		cc-pvtz
METHOD		rimp2
AUX_BASIS	rimp2-cc-pvtz
SOLVENT_METHOD	PCM
PURECART	11111
SYMMETRY	false
MEM_TOTAL	110000
SCF_CONVERGENCE = 6
THRESH=10
GUI = 2
$end



$solvent
dielectric 4.90
$end
--------------------------------------------------------------
 ----------------------------------------------------------------
             Standard Nuclear Orientation (Angstroms)
    I     Atom           X                Y                Z
 ----------------------------------------------------------------
    1      C      -0.2409270000    -6.7414040000     0.0892630000
    2      C      -1.4678860000    -6.1556380000     0.5359730000
    3      C       0.7779720000    -5.7914520000    -0.2811030000
    4      C      -1.7297420000    -4.8037860000     0.6310360000
    5      H      -2.2929030000    -6.8215180000     0.8364580000
    6      C       0.5036140000    -4.3786380000    -0.1819950000
    7      C      -0.7467560000    -3.8380320000     0.2727250000
    8      C       1.4854370000    -3.4130620000    -0.5399540000
    9      C      -1.0189150000    -2.4264730000     0.3710530000
   10      C       1.2265570000    -2.0593480000    -0.4463810000
   11      C       0.0000000000    -1.4782160000     0.0000000000
   12      H       2.0524130000    -1.3947830000    -0.7474100000
   13      C       2.1341280000    -6.1879870000    -0.7727470000
   14      C       2.8298200000    -3.7981640000    -1.0291540000
   15      N       3.0591820000    -5.1700030000    -1.1108280000
   16      C      -3.0777310000    -4.4249870000     1.1217280000
   17      C      -2.3756940000    -2.0366270000     0.8640690000
   18      N      -3.3011010000    -3.0491560000     1.2019280000
   19      O       2.5028300000    -7.3531310000    -0.9039080000
   20      O       3.6970780000    -2.9868540000    -1.3458090000
   21      O      -3.9347520000    -5.2489460000     1.4344220000
   22      O      -2.7641770000    -0.8788290000     1.0039430000
   23      C       4.3869390000    -5.5637990000    -1.5929810000
   24      H       4.4298220000    -6.6640850000    -1.6073670000
   25      H       5.1644890000    -5.1471010000    -0.9245040000
   26      H       4.5534860000    -5.1487850000    -2.6054460000
   27      C      -4.6084810000    -2.5874870000     1.6773080000
   28      H      -5.2119690000    -3.4833290000     1.8980890000
   29      H      -5.0946240000    -1.9649720000     0.9023370000
   30      H      -4.4830920000    -1.9629320000     2.5820980000
   31      C       0.0000000000     0.0000000000     0.0000000000
   32      S       0.2050930000     0.7661960000     1.5805300000
   33      C       0.6289390000     2.3481140000     0.9049110000
   34      C       0.2581370000     0.9640280000    -0.9854000000
   35      C       0.5997450000     2.2393090000    -0.4935280000
   36      H       0.1971690000     0.7364040000    -2.0599340000
   37      H       0.8276780000     3.0902430000    -1.1525930000
   38      H       0.8567960000     3.1988080000     1.5560250000
   39      H      -0.4475590000    -7.3615890000    -0.7914340000
   40      H       0.1662820000    -7.3611920000     0.8973450000
   41      H      -0.3688830000    -1.4788310000    -1.0150490000
 ----------------------------------------------------------------
 Nuclear Repulsion Energy =        2549.27700509 hartrees
 There are       98 alpha and       98 beta electrons
 Requested basis set is cc-pVTZ
 There are 356 shells and 1010 basis functions

 Total QAlloc Memory Limit 110000 MB
 Mega-Array Size       188 MB
 MEM_STATIC part       192 MB
 Discretize the solute cavity surface with Lebedev spheres
	Using 110 Lebedev grid points for each H atom
	Using 194 Lebedev grid points for other atoms
	Atomic van der Waals radii will be scaled by 1.20
 Remove points where switching function is < 1.0e-08
 Keep 2617 surface tesserae and discard 4161 interior tesserae
 Molecular Surface Area = 371.255 Angst**2
 Requested basis set is rimp2-cc-pVTZ
 There are 770 shells and 2648 basis functions
 A cutoff of  1.0D-10 yielded  34014 shell pairs
 There are    257080 function pairs (    332664 Cartesian)
 Smallest overlap matrix eigenvalue = 8.92E-06

 Q-Chem warning in module stvman/mkSTV.C, line 323:

 Overlap eigenvalue is smaller than square root of threshold
 Use THRESH >= 12 to get rid of this warning


 Scale SEOQF with 1.000000e-01/1.000000e-02/1.000000e-01

 Standard Electronic Orientation quadrupole field applied
 Nucleus-field energy     =     0.0000000403 hartrees
 Guess from superposition of atomic densities
 Warning:  Energy on first SCF cycle will be non-variational
 SAD guess density has 196.000000 electrons

 -----------------------------------------------------------------------
  General SCF calculation program by
  Eric Jon Sundstrom, Paul Horn, Yuezhi Mao, Dmitri Zuev, Alec White,
  David Stuck, Shaama M.S., Shane Yost, Joonho Lee, David Small,
  Daniel Levine, Susi Lehtola, Hugh Burton, Evgeny Epifanovsky,
  Bang C. Huynh
 -----------------------------------------------------------------------
 Hartree-Fock
 using 64 threads for integral computing
 -------------------------------------------------------
 OpenMP Integral computing Module                
 Release: version 1.0, May 2013, Q-Chem Inc. Pittsburgh 
 -------------------------------------------------------
 A restricted SCF calculation will be
 performed using DIIS
 SCF converges when DIIS error is below 1.0e-06
 ---------------------------------------
  Cycle       Energy         DIIS error
 ---------------------------------------
    1   -1583.0866293165      1.86e-02  
    2   -1571.1712328106      2.03e-03  
    3   -1571.5098429720      1.55e-03  
    4   -1571.7310979668      2.52e-04  
    5   -1571.7447316803      7.70e-05  
    6   -1571.7461010644      2.94e-05  
    7   -1571.7464988424      1.52e-05  
    8   -1571.7466057746      6.10e-06  
    9   -1571.7466237701      2.81e-06  
   10   -1571.7466272997      1.16e-06  
   11   -1571.7466283492      5.48e-07  Convergence criterion met
 ---------------------------------------
 SCF time:   CPU 6743.39s  wall 269.00s 

************** Final PCM Free Energy Summary **************
 G_electrostatic  =      -0.03179706 hartree =     -19.95295594 kcal/mol
 G_cavitation     =       0.00000000 hartree =       0.00000000 kcal/mol
 G_dispersion     =       0.00000000 hartree =       0.00000000 kcal/mol
 G_repulsion      =       0.00000000 hartree =       0.00000000 kcal/mol
 --------------------------------------------------
 Non-electrostatic Free Energy =       0.00000000 hartree =       0.00000000 kcal/mol
 Total                         =      -0.03179706 hartree =     -19.95295594 kcal/mol
 --------------------------------------------------
 SCF Energy (H0 + V/2)                       =   -1571.74662835 
 Solute Internal Energy (H0)                 =   -1571.71483129 
 Total Free Energy (H0 + V/2 + non-elec)     =   -1571.74662835 hartree
                                             = -986285.89530147 kcal/mol
***********************************************************

 SCF   energy in the final basis set =    -1571.7466283492
 Total energy in the final basis set =    -1571.7466283492


 --------------------------------------------------------------
  Generalized many-body perturbation theory program
  by Joonho Lee, Fazle Rob, Xintian Feng, Evgeny Epifanovsky

 No regularization used 
 (reg. param. = 0.0000e+00)
  (P|Q)^-1/2 Time:  CPU 137.16 s  wall 2.49 s

 In RI-MP2 calculation: 
 # of frozen core orbitals: 31

 Components of the RIMP2 correlation energy:
        aaaa    correlation energy =        -0.6149043420 a.u.
        abab    correlation energy =        -3.4251874736 a.u.
        bbbb    correlation energy =        -0.6149043420 a.u.
        non-Brillouin singles      =        -0.0000000000 a.u.
        total same-spin energy     =        -1.2298086840 a.u.
        total opposite-spin energy =        -3.4251874736 a.u.

 Total  RIMP2   correlation energy =        -4.6549961576 a.u.
        RIMP2         total energy =     -1576.4016245068 a.u.

 RI-MP2 Energy Time:  CPU 1937.27 s  wall 33.44 s
 
 --------------------------------------------------------------
 
                    Orbital Energies (a.u.)
 --------------------------------------------------------------
 
 Alpha MOs
 -- Occupied --
-91.9860 -20.5523 -20.5444 -20.5419 -20.5407 -15.6269 -15.6215 -11.3934
-11.3852 -11.3837 -11.3794 -11.3094 -11.3088 -11.3053 -11.3049 -11.2976
-11.2967 -11.2902 -11.2814 -11.2693 -11.2682 -11.2648 -11.2627 -11.2596
-11.2581 -11.2529 -11.2505  -8.9858  -6.6666  -6.6660  -6.6655  -1.4195
 -1.4124  -1.3972  -1.3915  -1.2621  -1.2556  -1.2300  -1.1867  -1.1526
 -1.1143  -1.0866  -1.0468  -0.9955  -0.9879  -0.9841  -0.9552  -0.9510
 -0.8966  -0.8879  -0.8767  -0.8600  -0.7945  -0.7768  -0.7710  -0.7626
 -0.7417  -0.7172  -0.7043  -0.6918  -0.6809  -0.6724  -0.6667  -0.6573
 -0.6472  -0.6445  -0.6363  -0.6331  -0.6310  -0.6278  -0.6216  -0.6048
 -0.5846  -0.5756  -0.5676  -0.5615  -0.5575  -0.5513  -0.5507  -0.5480
 -0.5464  -0.5437  -0.5209  -0.5148  -0.5090  -0.4822  -0.4748  -0.4616
 -0.4573  -0.4512  -0.4429  -0.4347  -0.4134  -0.4075  -0.3547  -0.3512
 -0.3287  -0.2887
 -- Virtual --
  0.0143   0.0431   0.0892   0.0945   0.1364   0.1498   0.1537   0.1607
  0.1636   0.1722   0.1784   0.1800   0.1833   0.1893   0.1999   0.2030
  0.2067   0.2218   0.2259   0.2294   0.2305   0.2329   0.2347   0.2384
  0.2657   0.2690   0.2932   0.3029   0.3133   0.3206   0.3221   0.3243
  0.3304   0.3414   0.3465   0.3497   0.3567   0.3627   0.3658   0.3711
  0.3754   0.3771   0.3803   0.3844   0.3888   0.3916   0.3952   0.4067
  0.4140   0.4189   0.4276   0.4308   0.4371   0.4422   0.4439   0.4469
  0.4505   0.4608   0.4625   0.4673   0.4680   0.4728   0.4818   0.4891
  0.4945   0.4987   0.5044   0.5071   0.5159   0.5189   0.5232   0.5319
  0.5367   0.5398   0.5469   0.5484   0.5513   0.5548   0.5613   0.5658
  0.5692   0.5735   0.5788   0.5822   0.5848   0.5898   0.5979   0.6007
  0.6011   0.6036   0.6072   0.6085   0.6127   0.6156   0.6210   0.6229
  0.6258   0.6326   0.6347   0.6354   0.6378   0.6412   0.6455   0.6500
  0.6553   0.6636   0.6687   0.6783   0.6824   0.6921   0.6945   0.7005
  0.7043   0.7100   0.7244   0.7312   0.7352   0.7361   0.7490   0.7595
  0.7600   0.7646   0.7703   0.7753   0.7791   0.7857   0.7947   0.8001
  0.8030   0.8122   0.8162   0.8193   0.8242   0.8361   0.8431   0.8499
  0.8511   0.8555   0.8599   0.8647   0.8714   0.8737   0.8760   0.8826
  0.8869   0.8993   0.9039   0.9100   0.9123   0.9181   0.9267   0.9297
  0.9335   0.9393   0.9421   0.9512   0.9546   0.9642   0.9676   0.9740
  0.9799   0.9825   0.9858   0.9961   1.0030   1.0059   1.0118   1.0200
  1.0216   1.0289   1.0373   1.0411   1.0463   1.0516   1.0583   1.0621
  1.0667   1.0696   1.0721   1.0780   1.0891   1.0918   1.0969   1.0975
  1.1099   1.1147   1.1206   1.1260   1.1311   1.1326   1.1390   1.1458
  1.1498   1.1549   1.1603   1.1645   1.1715   1.1754   1.1864   1.1897
  1.1950   1.1978   1.2050   1.2059   1.2066   1.2161   1.2214   1.2253
  1.2357   1.2375   1.2393   1.2475   1.2487   1.2521   1.2613   1.2655
  1.2882   1.2920   1.2986   1.3042   1.3122   1.3225   1.3282   1.3326
  1.3471   1.3514   1.3540   1.3655   1.3726   1.3767   1.3778   1.3894
  1.3910   1.3986   1.4032   1.4052   1.4158   1.4171   1.4314   1.4391
  1.4453   1.4542   1.4625   1.4681   1.4764   1.4818   1.4903   1.4956
  1.5012   1.5038   1.5068   1.5096   1.5230   1.5291   1.5338   1.5372
  1.5415   1.5443   1.5491   1.5561   1.5640   1.5676   1.5724   1.5792
  1.5806   1.5882   1.5933   1.6103   1.6214   1.6267   1.6348   1.6364
  1.6416   1.6479   1.6551   1.6689   1.6795   1.6881   1.6892   1.6926
  1.7084   1.7139   1.7188   1.7255   1.7350   1.7447   1.7517   1.7534
  1.7626   1.7678   1.7764   1.7805   1.7847   1.7920   1.8012   1.8156
  1.8213   1.8333   1.8389   1.8452   1.8483   1.8609   1.8631   1.8714
  1.8739   1.8761   1.8868   1.8944   1.9173   1.9254   1.9360   1.9419
  1.9564   1.9642   1.9688   1.9794   1.9889   1.9998   2.0100   2.0296
  2.0305   2.0398   2.0456   2.0600   2.0841   2.0964   2.1074   2.1206
  2.1347   2.1408   2.1582   2.1633   2.1775   2.1894   2.2113   2.2197
  2.2296   2.2312   2.2436   2.2590   2.2826   2.2898   2.2946   2.2983
  2.3136   2.3257   2.3331   2.3347   2.3506   2.3670   2.3697   2.3879
  2.4059   2.4184   2.4314   2.4439   2.4510   2.4570   2.4616   2.4625
  2.4758   2.4898   2.4961   2.5037   2.5051   2.5198   2.5430   2.5530
  2.5564   2.5607   2.5676   2.5823   2.5873   2.5962   2.6053   2.6118
  2.6265   2.6374   2.6400   2.6478   2.6555   2.6582   2.6627   2.6779
  2.6825   2.6882   2.6927   2.7114   2.7167   2.7184   2.7255   2.7392
  2.7461   2.7482   2.7568   2.7587   2.7695   2.7722   2.7822   2.7971
  2.8131   2.8211   2.8313   2.8393   2.8414   2.8505   2.8591   2.8729
  2.8766   2.8774   2.8817   2.8915   2.8969   2.9004   2.9067   2.9134
  2.9242   2.9270   2.9326   2.9385   2.9508   2.9579   2.9654   2.9694
  2.9797   2.9836   2.9917   2.9985   3.0022   3.0064   3.0225   3.0250
  3.0294   3.0339   3.0410   3.0541   3.0609   3.0679   3.0750   3.0838
  3.0870   3.0977   3.1023   3.1059   3.1089   3.1142   3.1174   3.1233
  3.1329   3.1362   3.1407   3.1543   3.1584   3.1630   3.1679   3.1728
  3.1828   3.1863   3.1931   3.2009   3.2051   3.2112   3.2176   3.2259
  3.2335   3.2374   3.2410   3.2429   3.2465   3.2526   3.2631   3.2666
  3.2685   3.2708   3.2751   3.2833   3.2918   3.2956   3.3029   3.3101
  3.3111   3.3136   3.3212   3.3240   3.3279   3.3304   3.3333   3.3361
  3.3398   3.3481   3.3533   3.3565   3.3612   3.3638   3.3727   3.3760
  3.3797   3.3835   3.3877   3.3894   3.3972   3.4023   3.4059   3.4112
  3.4213   3.4251   3.4292   3.4303   3.4345   3.4407   3.4469   3.4560
  3.4576   3.4586   3.4653   3.4715   3.4736   3.4786   3.4836   3.4865
  3.4934   3.4968   3.5047   3.5064   3.5141   3.5190   3.5238   3.5280
  3.5306   3.5362   3.5387   3.5507   3.5544   3.5700   3.5736   3.5806
  3.5889   3.5914   3.5926   3.6016   3.6060   3.6180   3.6231   3.6272
  3.6293   3.6343   3.6404   3.6455   3.6478   3.6543   3.6595   3.6665
  3.6743   3.6749   3.6791   3.6836   3.6938   3.6981   3.7027   3.7053
  3.7101   3.7142   3.7330   3.7394   3.7426   3.7452   3.7477   3.7514
  3.7634   3.7669   3.7682   3.7703   3.7744   3.7885   3.7923   3.8034
  3.8055   3.8120   3.8207   3.8227   3.8287   3.8316   3.8367   3.8433
  3.8496   3.8572   3.8667   3.8704   3.8809   3.8870   3.8912   3.9036
  3.9066   3.9185   3.9229   3.9333   3.9343   3.9457   3.9499   3.9545
  3.9595   3.9630   3.9671   3.9675   3.9776   3.9830   4.0033   4.0086
  4.0139   4.0282   4.0329   4.0374   4.0420   4.0605   4.0673   4.0714
  4.0884   4.0953   4.1016   4.1150   4.1226   4.1233   4.1358   4.1382
  4.1439   4.1558   4.1592   4.1657   4.1766   4.1798   4.1868   4.1969
  4.2129   4.2152   4.2257   4.2347   4.2428   4.2491   4.2537   4.2619
  4.2661   4.2682   4.2753   4.2842   4.2905   4.2981   4.3023   4.3037
  4.3075   4.3138   4.3243   4.3267   4.3397   4.3422   4.3466   4.3504
  4.3563   4.3633   4.3677   4.3699   4.3757   4.3775   4.3900   4.3920
  4.4003   4.4012   4.4094   4.4129   4.4218   4.4389   4.4453   4.4492
  4.4597   4.4772   4.4880   4.4997   4.5057   4.5155   4.5191   4.5249
  4.5271   4.5378   4.5418   4.5583   4.5710   4.5770   4.5802   4.5852
  4.5901   4.5940   4.5992   4.6102   4.6196   4.6224   4.6244   4.6422
  4.6442   4.6600   4.6642   4.6796   4.6858   4.6925   4.6997   4.7049
  4.7230   4.7379   4.7454   4.7559   4.7651   4.7835   4.7872   4.8021
  4.8152   4.8237   4.8292   4.8393   4.8544   4.8596   4.8677   4.8813
  4.8864   4.8916   4.9048   4.9210   4.9262   4.9455   4.9566   4.9887
  4.9895   4.9961   5.0063   5.0209   5.0283   5.0349   5.0460   5.0574
  5.0658   5.0888   5.0986   5.1106   5.1221   5.1228   5.1239   5.1363
  5.1446   5.1551   5.1656   5.1735   5.1877   5.2068   5.2175   5.2234
  5.2488   5.2626   5.2739   5.2863   5.2890   5.2904   5.3159   5.3283
  5.3304   5.3346   5.3439   5.3632   5.3782   5.3885   5.4035   5.4162
  5.4313   5.4478   5.4574   5.4812   5.4937   5.5065   5.5145   5.5150
  5.5176   5.5245   5.5379   5.5535   5.5575   5.5590   5.5635   5.5675
  5.5792   5.5857   5.5867   5.6080   5.6110   5.6149   5.6226   5.6354
  5.6450   5.6504   5.6588   5.6630   5.6663   5.6723   5.6936   5.6941
  5.6972   5.7071   5.7326   5.7380   5.7430   5.7588   5.7703   5.7744
  5.7849   5.7901   5.8045   5.8312   5.8443   5.8520   5.8789   5.9176
  5.9389   5.9541   5.9648   5.9929   6.0178   6.0274   6.0324   6.0416
  6.0471   6.0749   6.0922   6.1119   6.1232   6.1374   6.1515   6.1847
  6.1961   6.2192   6.2216   6.2254   6.2412   6.2546   6.2642   6.2831
  6.3076   6.3101   6.3238   6.3482   6.3639   6.3821   6.4271   6.4822
  6.5164   6.5306   6.5749   6.5826   6.6018   6.6160   6.6403   6.6594
  6.6742   6.6958   6.8438   6.8505   6.8877   6.9017   6.9044   6.9207
  6.9265   6.9305   7.1010   7.1090   7.1490   7.1934   7.1993   7.2348
  7.3471   7.3517   7.3562   7.3597   7.4748   7.5422   7.5692   7.5820
  7.5850   7.5953   7.6537   7.6742   7.6917   7.7124   8.8495  10.0431
 10.3251  11.3111  11.4876  11.7505  12.0211  12.0859  12.4114  12.4658
 12.8979  13.2054  13.3214  13.5573  13.7668  13.9207  14.0820  14.2943
 14.3520  14.3693  14.4867  14.6079  14.9841  15.6138  15.7954  16.3395
 --------------------------------------------------------------
 
          Ground-State Mulliken Net Atomic Charges

     Atom                 Charge (a.u.)
  ----------------------------------------
      1 C                    -0.084163
      2 C                    -0.030821
      3 C                    -0.111680
      4 C                    -0.122198
      5 H                     0.199030
      6 C                     0.021357
      7 C                     0.119963
      8 C                    -0.086857
      9 C                    -0.165202
     10 C                    -0.117398
     11 C                     0.161197
     12 H                     0.197734
     13 C                     0.343067
     14 C                     0.345843
     15 N                    -0.090077
     16 C                     0.357062
     17 C                     0.342184
     18 N                    -0.092330
     19 O                    -0.494255
     20 O                    -0.507376
     21 O                    -0.501482
     22 O                    -0.470394
     23 C                    -0.204778
     24 H                     0.139484
     25 H                     0.109441
     26 H                     0.108861
     27 C                    -0.196922
     28 H                     0.133066
     29 H                     0.111439
     30 H                     0.112076
     31 C                     0.014936
     32 S                     0.017936
     33 C                    -0.209930
     34 C                    -0.215977
     35 C                    -0.201147
     36 H                     0.188757
     37 H                     0.191803
     38 H                     0.210031
     39 H                     0.137509
     40 H                     0.137978
     41 H                     0.202233
  ----------------------------------------
  Sum of atomic charges =     0.000000

 -----------------------------------------------------------------
                    Cartesian Multipole Moments
 -----------------------------------------------------------------
    Charge (ESU x 10^10)
                 0.0000
    Dipole Moment (Debye)
         X      -0.6636      Y       2.0804      Z      -1.4757
       Tot       2.6355
    Quadrupole Moments (Debye-Ang)
        XX    -191.2996     XY      11.5236     YY    -178.1231
        XZ      10.8415     YZ      -1.1759     ZZ    -160.2480
    Octopole Moments (Debye-Ang^2)
       XXX       7.1186    XXY     582.1068    XYY     -45.6213
       YYY    1687.1554    XXZ     -22.1295    XYZ     -42.6444
       YYZ       3.8042    XZZ       4.6757    YZZ     488.1419
       ZZZ     -70.4893
    Hexadecapole Moments (Debye-Ang^3)
      XXXX   -5642.0781   XXXY       5.8975   XXYY   -4273.8995
      XYYY    1074.0189   YYYY  -18033.3871   XXXZ    1031.1482
      XXYZ      42.4511   XYYZ     597.0972   YYYZ    -425.4949
      XXZZ   -1122.4538   XYZZ      70.6865   YYZZ   -2863.0477
      XZZZ     926.9038   YZZZ    -156.7987   ZZZZ   -1144.9074
 -----------------------------------------------------------------
 Total job time:  308.93s(wall), 8874.03s(cpu) 
 Wed Sep 27 00:07:02 2023

        *************************************************************
        *                                                           *
        *  Thank you very much for using Q-Chem.  Have a nice day.  *
        *                                                           *
        *************************************************************


0 sent ACK to 0 
now end server 0 ... 
cleanup process ... done
remove work dirs ./qchem1608605.0 -- ./qchem1608605.0
rm -rf ./qchem1608605.0
rm -rf ./qchem1608605
