You are running Q-Chem version: 5.4.0

#
# job setting
#
local host:  exp-2-42
current dir: /expanse/lustre/projects/csd626/rramji/aromodel/PNDIT/Hydrogenated_Rotation_Test
input file:  Dimethyl_Naphthalene_Dicarboximide_Phi_20_Theta_70_Thiophene_Hydrogenated.qcin
output file: 
nprocs     : 1
nthreads   : 64
#
# qchem installation setting
#
QC:          /cm/shared/apps/spack/cpu/opt/spack/linux-centos8-zen2/gcc-10.2.0/qchem-5.4-akfmr7b3t57bfs6qan3padb2wnb2i7cl
QCAUX:       /cm/shared/apps/spack/cpu/opt/spack/linux-centos8-zen2/gcc-10.2.0/qchem-5.4-akfmr7b3t57bfs6qan3padb2wnb2i7cl/qcaux
QCPROG:      /cm/shared/apps/spack/cpu/opt/spack/linux-centos8-zen2/gcc-10.2.0/qchem-5.4-akfmr7b3t57bfs6qan3padb2wnb2i7cl/exe/qcprog.exe
QCPROG_S:    /cm/shared/apps/spack/cpu/opt/spack/linux-centos8-zen2/gcc-10.2.0/qchem-5.4-akfmr7b3t57bfs6qan3padb2wnb2i7cl/exe/qcprog.exe_s
PARALLEL:    -DPARALLEL
QCMPI:       mpich
#
# qchem directory setting
#
qcrun:       qchem4073537
QCSCRATCH:   .
QCLOCALSCR:  
QCTMPDIR:    .
QCFILEPREF:  ./qchem4073537
QCSAVEDIR:   
workdirs:    ./qchem4073537
workdir0:    ./qchem4073537
partmpdirs =  
#
# parallel setting
#
QCRSH:           ssh
QCMPI:           mpich
QCMPIRUN:        /cm/shared/apps/spack/cpu/opt/spack/linux-centos8-zen2/gcc-10.2.0/qchem-5.4-akfmr7b3t57bfs6qan3padb2wnb2i7cl/bin/mpi/mpirun_qchem
QCMACHINEFILE:   ./qchem4073537/hostfile
exp-2-42

#
# env setting
#
exported envs:   QC QCAUX QCSCRATCH QCRUNNAME QCFILEPREF QCPROG QCPROG_S GUIFILE

Running Job 1 of 1 Dimethyl_Naphthalene_Dicarboximide_Phi_20_Theta_70_Thiophene_Hydrogenated.qcin
qchem Dimethyl_Naphthalene_Dicarboximide_Phi_20_Theta_70_Thiophene_Hydrogenated.qcin_4073537.0 ./qchem4073537/ 1
/cm/shared/apps/spack/cpu/opt/spack/linux-centos8-zen2/gcc-10.2.0/qchem-5.4-akfmr7b3t57bfs6qan3padb2wnb2i7cl/bin/mpi/mpirun_qchem -machinefile ./qchem4073537/hostfile -np 1 /cm/shared/apps/spack/cpu/opt/spack/linux-centos8-zen2/gcc-10.2.0/qchem-5.4-akfmr7b3t57bfs6qan3padb2wnb2i7cl/exe/qcprog.exe Dimethyl_Naphthalene_Dicarboximide_Phi_20_Theta_70_Thiophene_Hydrogenated.qcin_4073537.0 ./qchem4073537/

Process 0 of 1 is on exp-2-42 - thread support 0
initial socket setup ...start
initial socket setup ...done 
now start server 0 ... 
                  Welcome to Q-Chem
     A Quantum Leap Into The Future Of Chemistry


 Q-Chem 5.4, Q-Chem, Inc., Pleasanton, CA (2021)

 License issued to: University of California, San Diego (site)

 E. Epifanovsky,  A. T. B. Gilbert,  Xintian Feng,  Joonho Lee,  Yuezhi Mao,  
 N. Mardirossian,  P. Pokhilko,  A. White,  M. Wormit,  M. P. Coons,  
 A. L. Dempwolff,  Zhengting Gan,  D. Hait,  P. R. Horn,  L. D. Jacobson,  
 I. Kaliman,  J. Kussmann,  A. W. Lange,  Ka Un Lao,  D. S. Levine,  Jie Liu,  
 S. C. McKenzie,  A. F. Morrison,  K. Nanda,  F. Plasser,  D. R. Rehn,  
 M. L. Vidal,  Zhi-Qiang You,  Ying Zhu,  B. Alam,  B. Albrecht,  
 A. Aldossary,  E. Alguire,  J. H. Andersen,  D. Barton,  K. Begam,  A. Behn,  
 Y. A. Bernard,  E. J. Berquist,  H. Burton,  A. Carreras,  K. Carter-Fenk,  
 R. Chakraborty,  A. D. Chien,  K. D. Closser,  V. Cofer-Shabica,  
 S. Dasgupta,  Jia Deng,  M. de Wergifosse,  M. Diedenhofen,  Hainam Do,  
 S. Ehlert,  Po-Tung Fang,  S. Fatehi,  Qingguo Feng,  J. Gayvert,  
 Qinghui Ge,  G. Gidofalvi,  M. Goldey,  J. Gomes,  C. Gonzalez-Espinoza,  
 S. Gulania,  A. Gunina,  M. W. D. Hanson-Heine,  P. H. P. Harbach,  
 A. W. Hauser,  M. F. Herbst,  M. Hernandez Vera,  M. Hodecker,  
 Z. C. Holden,  S. Houck,  Xunkun Huang,  Kerwin Hui,  B. C. Huynh,  
 M. Ivanov,  Hyunjun Ji,  Hanjie Jiang,  B. Kaduk,  S. Kaehler,  
 K. Khistyaev,  Jaehoon Kim,  P. Klunzinger,  Z. Koczor-Benda,  
 Joong Hoon Koh,  D. Kosenkov,  L. Koulias,  T. Kowalczyk,  C. M. Krauter,  
 K. Kue,  A. Kunitsa,  T. Kus,  A. Landau,  K. V. Lawler,  D. Lefrancois,  
 S. Lehtola,  Rain Li,  Yi-Pei Li,  Jiashu Liang,  M. Liebenthal,  
 Hung-Hsuan Lin,  You-Sheng Lin,  Fenglai Liu,  Kuan-Yu Liu,  
 M. Loipersberger,  A. Luenser,  A. Manjanath,  P. Manohar,  E. Mansoor,  
 S. F. Manzer,  Shan-Ping Mao,  A. V. Marenich,  T. Markovich,  S. Mason,  
 S. A. Maurer,  P. F. McLaughlin,  M. F. S. J. Menger,  J.-M. Mewes,  
 S. A. Mewes,  P. Morgante,  J. W. Mullinax,  T. S. Nguyen-Beck,  
 K. J. Oosterbaan,  G. Paran,  Alexander C. Paul,  Suranjan K. Paul,  
 F. Pavosevic,  Zheng Pei,  S. Prager,  E. I. Proynov,  E. Ramos,  B. Rana,  
 A. E. Rask,  A. Rettig,  R. M. Richard,  F. Rob,  E. Rossomme,  T. Scheele,  
 M. Scheurer,  M. Schneider,  N. Sergueev,  S. M. Sharada,  W. Skomorowski,  
 D. W. Small,  C. J. Stein,  Yu-Chuan Su,  E. J. Sundstrom,  Zhen Tao,  
 J. Thirman,  T. Tsuchimochi,  N. M. Tubman,  S. P. Veccham,  O. Vydrov,  
 J. Wenzel,  J. Witte,  A. Yamada,  Kun Yao,  S. Yeganeh,  S. R. Yost,  
 A. Zech,  Igor Ying Zhang,  Xing Zhang,  Yu Zhang,  D. Zuev,  
 A. Aspuru-Guzik,  A. T. Bell,  N. A. Besley,  K. B. Bravaya,  B. R. Brooks,  
 D. Casanova,  Jeng-Da Chai,  S. Coriani,  C. J. Cramer,  
 A. E. DePrince, III,  R. A. DiStasio Jr.,  A. Dreuw,  B. D. Dunietz,  
 T. R. Furlani,  W. A. Goddard III,  S. Grimme,  S. Hammes-Schiffer,  
 T. Head-Gordon,  W. J. Hehre,  Chao-Ping Hsu,  T.-C. Jagau,  Yousung Jung,  
 A. Klamt,  Jing Kong,  D. S. Lambrecht,  WanZhen Liang,  N. J. Mayhall,  
 C. W. McCurdy,  J. B. Neaton,  C. Ochsenfeld,  J. A. Parkhill,  R. Peverati,  
 V. A. Rassolov,  Yihan Shao,  L. V. Slipchenko,  T. Stauch,  R. P. Steele,  
 J. E. Subotnik,  A. J. W. Thom,  A. Tkatchenko,  D. G. Truhlar,  
 T. Van Voorhis,  T. A. Wesolowski,  K. B. Whaley,  H. L. Woodcock III,  
 P. M. Zimmerman,  S. Faraji,  P. M. W. Gill,  M. Head-Gordon,  
 J. M. Herbert,  A. I. Krylov

 Contributors to earlier versions of Q-Chem not listed above: 
 R. D. Adamson,  B. Austin,  R. Baer,  J. Baker,  G. J. O. Beran,  
 K. Brandhorst,  S. T. Brown,  E. F. C. Byrd,  A. K. Chakraborty,  
 G. K. L. Chan,  Chun-Min Chang,  Yunqing Chen,  C.-L. Cheng,  
 Siu Hung Chien,  D. M. Chipman,  D. L. Crittenden,  H. Dachsel,  
 R. J. Doerksen,  A. D. Dutoi,  R. G. Edgar,  J. Fosso-Tande,  
 L. Fusti-Molnar,  D. Ghosh,  A. Ghysels,  A. Golubeva-Zadorozhnaya,  
 J. Gonthier,  M. S. Gordon,  S. R. Gwaltney,  G. Hawkins,  J. E. Herr,  
 A. Heyden,  S. Hirata,  E. G. Hohenstein,  G. Kedziora,  F. J. Keil,  
 C. Kelley,  Jihan Kim,  R. A. King,  R. Z. Khaliullin,  P. P. Korambath,  
 W. Kurlancheek,  A. Laurent,  A. M. Lee,  M. S. Lee,  S. V. Levchenko,  
 Ching Yeh Lin,  D. Liotard,  E. Livshits,  R. C. Lochan,  I. Lotan,  
 L. A. Martinez-Martinez,  P. E. Maslen,  N. Nair,  D. P. O'Neill,  
 D. Neuhauser,  E. Neuscamman,  C. M. Oana,  R. Olivares-Amaya,  R. Olson,  
 T. M. Perrine,  B. Peters,  P. A. Pieniazek,  A. Prociuk,  Y. M. Rhee,  
 J. Ritchie,  M. A. Rohrdanz,  E. Rosta,  N. J. Russ,  H. F. Schaefer III,  
 M. W. Schmidt,  N. E. Schultz,  S. Sharma,  N. Shenvi,  C. D. Sherrill,  
 A. C. Simmonett,  A. Sodt,  T. Stein,  D. Stuck,  K. S. Thanthiriwatte,  
 V. Vanovschi,  L. Vogt,  Tao Wang,  A. Warshel,  M. A. Watson,  
 C. F. Williams,  Q. Wu,  X. Xu,  Jun Yang,  W. Zhang,  Yan Zhao

 Please cite Q-Chem as follows:
 Y. Shao et al., Mol. Phys. 113, 184-215 (2015)
 DOI: 10.1080/00268976.2014.952696

 Q-Chem 5.4.0 for Intel X86 EM64T Linux

 Parts of Q-Chem use Armadillo 9.800.1 (Horizon Scraper).
 http://arma.sourceforge.net/

 Q-Chem begins on Sun Sep 24 15:37:43 2023  

 Host: 
0

     Scratch files written to ./qchem4073537//
 May1621 |scratch|qcdevops|jenkins|workspace|build_RNUM    
 Parallel job on  1  processors
 Processing $rem in /cm/shared/apps/spack/cpu/opt/spack/linux-centos8-zen2/gcc-10.2.0/qchem-5.4-akfmr7b3t57bfs6qan3padb2wnb2i7cl/config/preferences:
 Processing $rem in /home/rramji/.qchemrc:
 Symmetry turned off for PCM/SM12/SMD calculation
 Core orbitals will be frozen

 Checking the input file for inconsistencies... 	...done.

 Q-Chem warning in module forms1/BasisType.C, line 2236:

 You are not using the predefined 5D/6D in this basis set.


--------------------------------------------------------------
User input:
--------------------------------------------------------------
$molecule
0 1
C	0.240927	-6.741404	-0.089263
C	1.467886	-6.155638	-0.535973
C	-0.777972	-5.791452	0.281103
C	1.729742	-4.803786	-0.631036
H	2.292903	-6.821518	-0.836458
C	-0.503614	-4.378638	0.181995
C	0.746756	-3.838032	-0.272725
C	-1.485437	-3.413062	0.539954
C	1.018915	-2.426473	-0.371053
C	-1.226557	-2.059348	0.446381
C	-0.000000	-1.478216	-0.000000
H	-2.052413	-1.394783	0.747410
C	-2.134128	-6.187987	0.772747
C	-2.829820	-3.798164	1.029154
N	-3.059182	-5.170003	1.110828
C	3.077731	-4.424987	-1.121728
C	2.375694	-2.036627	-0.864069
N	3.301101	-3.049156	-1.201928
O	-2.502830	-7.353131	0.903908
O	-3.697078	-2.986854	1.345809
O	3.934752	-5.248946	-1.434422
O	2.764177	-0.878829	-1.003943
C	-4.386939	-5.563799	1.592981
H	-4.429822	-6.664085	1.607367
H	-5.164489	-5.147101	0.924504
H	-4.553486	-5.148785	2.605446
C	4.608481	-2.587487	-1.677308
H	5.211969	-3.483329	-1.898089
H	5.094624	-1.964972	-0.902337
H	4.483092	-1.962932	-2.582098
C	0.000000	0.000000	0.000000
S	0.271091	0.745405	1.580530
C	0.831198	2.284363	0.904911
C	0.341175	0.937861	-0.985400
C	0.792631	2.178516	-0.493528
H	0.260601	0.716417	-2.059934
H	1.093860	3.006347	-1.152593
H	1.132330	3.111961	1.556025
H	0.447559	-7.361589	0.791434
H	-0.166282	-7.361192	-0.897345
H	0.368883	-1.478831	1.015049
$end

$rem
JOBTYPE		SP
EXCHANGE	HF
CORRELATION	pRIMP2
BASIS		cc-pvtz
METHOD		rimp2
AUX_BASIS	rimp2-cc-pvtz
SOLVENT_METHOD	PCM
PURECART	11111
SYMMETRY	false
MEM_TOTAL	110000
SCF_CONVERGENCE = 6
THRESH=10
GUI = 2
$end



$solvent
dielectric 4.90
$end
--------------------------------------------------------------
 ----------------------------------------------------------------
             Standard Nuclear Orientation (Angstroms)
    I     Atom           X                Y                Z
 ----------------------------------------------------------------
    1      C       0.2409270000    -6.7414040000    -0.0892630000
    2      C       1.4678860000    -6.1556380000    -0.5359730000
    3      C      -0.7779720000    -5.7914520000     0.2811030000
    4      C       1.7297420000    -4.8037860000    -0.6310360000
    5      H       2.2929030000    -6.8215180000    -0.8364580000
    6      C      -0.5036140000    -4.3786380000     0.1819950000
    7      C       0.7467560000    -3.8380320000    -0.2727250000
    8      C      -1.4854370000    -3.4130620000     0.5399540000
    9      C       1.0189150000    -2.4264730000    -0.3710530000
   10      C      -1.2265570000    -2.0593480000     0.4463810000
   11      C       0.0000000000    -1.4782160000     0.0000000000
   12      H      -2.0524130000    -1.3947830000     0.7474100000
   13      C      -2.1341280000    -6.1879870000     0.7727470000
   14      C      -2.8298200000    -3.7981640000     1.0291540000
   15      N      -3.0591820000    -5.1700030000     1.1108280000
   16      C       3.0777310000    -4.4249870000    -1.1217280000
   17      C       2.3756940000    -2.0366270000    -0.8640690000
   18      N       3.3011010000    -3.0491560000    -1.2019280000
   19      O      -2.5028300000    -7.3531310000     0.9039080000
   20      O      -3.6970780000    -2.9868540000     1.3458090000
   21      O       3.9347520000    -5.2489460000    -1.4344220000
   22      O       2.7641770000    -0.8788290000    -1.0039430000
   23      C      -4.3869390000    -5.5637990000     1.5929810000
   24      H      -4.4298220000    -6.6640850000     1.6073670000
   25      H      -5.1644890000    -5.1471010000     0.9245040000
   26      H      -4.5534860000    -5.1487850000     2.6054460000
   27      C       4.6084810000    -2.5874870000    -1.6773080000
   28      H       5.2119690000    -3.4833290000    -1.8980890000
   29      H       5.0946240000    -1.9649720000    -0.9023370000
   30      H       4.4830920000    -1.9629320000    -2.5820980000
   31      C       0.0000000000     0.0000000000     0.0000000000
   32      S       0.2710910000     0.7454050000     1.5805300000
   33      C       0.8311980000     2.2843630000     0.9049110000
   34      C       0.3411750000     0.9378610000    -0.9854000000
   35      C       0.7926310000     2.1785160000    -0.4935280000
   36      H       0.2606010000     0.7164170000    -2.0599340000
   37      H       1.0938600000     3.0063470000    -1.1525930000
   38      H       1.1323300000     3.1119610000     1.5560250000
   39      H       0.4475590000    -7.3615890000     0.7914340000
   40      H      -0.1662820000    -7.3611920000    -0.8973450000
   41      H       0.3688830000    -1.4788310000     1.0150490000
 ----------------------------------------------------------------
 Nuclear Repulsion Energy =        2555.67029268 hartrees
 There are       98 alpha and       98 beta electrons
 Requested basis set is cc-pVTZ
 There are 356 shells and 1010 basis functions

 Total QAlloc Memory Limit 110000 MB
 Mega-Array Size       188 MB
 MEM_STATIC part       192 MB
 Discretize the solute cavity surface with Lebedev spheres
	Using 110 Lebedev grid points for each H atom
	Using 194 Lebedev grid points for other atoms
	Atomic van der Waals radii will be scaled by 1.20
 Remove points where switching function is < 1.0e-08
 Keep 2609 surface tesserae and discard 4169 interior tesserae
 Molecular Surface Area = 369.772 Angst**2
 Requested basis set is rimp2-cc-pVTZ
 There are 770 shells and 2648 basis functions
 A cutoff of  1.0D-10 yielded  34262 shell pairs
 There are    259354 function pairs (    335847 Cartesian)
 Smallest overlap matrix eigenvalue = 8.97E-06

 Q-Chem warning in module stvman/mkSTV.C, line 323:

 Overlap eigenvalue is smaller than square root of threshold
 Use THRESH >= 12 to get rid of this warning


 Scale SEOQF with 1.000000e-01/1.000000e-02/1.000000e-01

 Standard Electronic Orientation quadrupole field applied
 Nucleus-field energy     =     0.0000000405 hartrees
 Guess from superposition of atomic densities
 Warning:  Energy on first SCF cycle will be non-variational
 SAD guess density has 196.000000 electrons

 -----------------------------------------------------------------------
  General SCF calculation program by
  Eric Jon Sundstrom, Paul Horn, Yuezhi Mao, Dmitri Zuev, Alec White,
  David Stuck, Shaama M.S., Shane Yost, Joonho Lee, David Small,
  Daniel Levine, Susi Lehtola, Hugh Burton, Evgeny Epifanovsky,
  Bang C. Huynh
 -----------------------------------------------------------------------
 Hartree-Fock
 using 64 threads for integral computing
 -------------------------------------------------------
 OpenMP Integral computing Module                
 Release: version 1.0, May 2013, Q-Chem Inc. Pittsburgh 
 -------------------------------------------------------
 A restricted SCF calculation will be
 performed using DIIS
 SCF converges when DIIS error is below 1.0e-06
 ---------------------------------------
  Cycle       Energy         DIIS error
 ---------------------------------------
    1   -1583.1182416531      1.86e-02  
    2   -1571.1583899092      2.03e-03  
    3   -1571.4981394863      1.55e-03  
    4   -1571.7207199414      2.53e-04  
    5   -1571.7346047721      7.82e-05  
    6   -1571.7360418592      3.05e-05  
    7   -1571.7364720358      1.55e-05  
    8   -1571.7365892423      6.35e-06  
    9   -1571.7366091363      2.85e-06  
   10   -1571.7366130479      1.24e-06  
   11   -1571.7366142177      5.62e-07  Convergence criterion met
 ---------------------------------------
 SCF time:   CPU 6473.19s  wall 279.00s 

************** Final PCM Free Energy Summary **************
 G_electrostatic  =      -0.02966069 hartree =     -18.61236509 kcal/mol
 G_cavitation     =       0.00000000 hartree =       0.00000000 kcal/mol
 G_dispersion     =       0.00000000 hartree =       0.00000000 kcal/mol
 G_repulsion      =       0.00000000 hartree =       0.00000000 kcal/mol
 --------------------------------------------------
 Non-electrostatic Free Energy =       0.00000000 hartree =       0.00000000 kcal/mol
 Total                         =      -0.02966069 hartree =     -18.61236509 kcal/mol
 --------------------------------------------------
 SCF Energy (H0 + V/2)                       =   -1571.73661422 
 Solute Internal Energy (H0)                 =   -1571.70695353 
 Total Free Energy (H0 + V/2 + non-elec)     =   -1571.73661422 hartree
                                             = -986279.61133909 kcal/mol
***********************************************************

 SCF   energy in the final basis set =    -1571.7366142177
 Total energy in the final basis set =    -1571.7366142177


 --------------------------------------------------------------
  Generalized many-body perturbation theory program
  by Joonho Lee, Fazle Rob, Xintian Feng, Evgeny Epifanovsky

 No regularization used 
 (reg. param. = 0.0000e+00)
  (P|Q)^-1/2 Time:  CPU 239.33 s  wall 4.46 s

 In RI-MP2 calculation: 
 # of frozen core orbitals: 31

 Components of the RIMP2 correlation energy:
        aaaa    correlation energy =        -0.6151295747 a.u.
        abab    correlation energy =        -3.4261300355 a.u.
        bbbb    correlation energy =        -0.6151295747 a.u.
        non-Brillouin singles      =        -0.0000000000 a.u.
        total same-spin energy     =        -1.2302591495 a.u.
        total opposite-spin energy =        -3.4261300355 a.u.

 Total  RIMP2   correlation energy =        -4.6563891850 a.u.
        RIMP2         total energy =     -1576.3930034028 a.u.

 RI-MP2 Energy Time:  CPU 13079.56 s  wall 219.55 s
 
 --------------------------------------------------------------
 
                    Orbital Energies (a.u.)
 --------------------------------------------------------------
 
 Alpha MOs
 -- Occupied --
-91.9921 -20.5504 -20.5441 -20.5411 -20.5398 -15.6264 -15.6207 -11.3923
-11.3848 -11.3830 -11.3783 -11.3079 -11.3069 -11.3043 -11.3041 -11.2960
-11.2885 -11.2869 -11.2853 -11.2682 -11.2677 -11.2632 -11.2627 -11.2590
-11.2545 -11.2523 -11.2505  -8.9919  -6.6728  -6.6723  -6.6716  -1.4186
 -1.4116  -1.3966  -1.3907  -1.2615  -1.2548  -1.2293  -1.1868  -1.1521
 -1.1132  -1.0861  -1.0458  -0.9959  -0.9873  -0.9845  -0.9546  -0.9506
 -0.8953  -0.8861  -0.8763  -0.8595  -0.7924  -0.7749  -0.7724  -0.7684
 -0.7396  -0.7155  -0.7036  -0.6908  -0.6760  -0.6703  -0.6669  -0.6567
 -0.6465  -0.6419  -0.6375  -0.6311  -0.6304  -0.6262  -0.6224  -0.6045
 -0.5843  -0.5742  -0.5665  -0.5608  -0.5562  -0.5509  -0.5495  -0.5473
 -0.5463  -0.5434  -0.5223  -0.5145  -0.5073  -0.4801  -0.4740  -0.4688
 -0.4564  -0.4505  -0.4422  -0.4341  -0.4129  -0.4070  -0.3552  -0.3512
 -0.3281  -0.2873
 -- Virtual --
  0.0152   0.0442   0.0846   0.0922   0.1322   0.1495   0.1533   0.1615
  0.1642   0.1738   0.1800   0.1832   0.1855   0.1901   0.1958   0.2032
  0.2057   0.2194   0.2235   0.2285   0.2309   0.2327   0.2357   0.2419
  0.2672   0.2695   0.2947   0.3040   0.3111   0.3139   0.3244   0.3257
  0.3310   0.3420   0.3448   0.3497   0.3563   0.3596   0.3636   0.3722
  0.3732   0.3762   0.3835   0.3862   0.3885   0.3978   0.4029   0.4083
  0.4141   0.4190   0.4286   0.4307   0.4363   0.4393   0.4449   0.4484
  0.4519   0.4573   0.4607   0.4710   0.4725   0.4812   0.4880   0.4907
  0.4972   0.5003   0.5038   0.5110   0.5132   0.5213   0.5231   0.5272
  0.5308   0.5365   0.5396   0.5451   0.5511   0.5536   0.5641   0.5660
  0.5707   0.5758   0.5815   0.5838   0.5899   0.5911   0.5935   0.5977
  0.6023   0.6041   0.6076   0.6117   0.6154   0.6173   0.6210   0.6253
  0.6301   0.6345   0.6378   0.6397   0.6400   0.6443   0.6466   0.6520
  0.6621   0.6634   0.6727   0.6806   0.6835   0.6891   0.6957   0.7030
  0.7062   0.7110   0.7216   0.7324   0.7344   0.7414   0.7474   0.7533
  0.7582   0.7654   0.7670   0.7701   0.7831   0.7873   0.7898   0.7995
  0.8051   0.8098   0.8187   0.8252   0.8301   0.8358   0.8404   0.8472
  0.8487   0.8521   0.8606   0.8633   0.8704   0.8730   0.8760   0.8831
  0.8846   0.8987   0.9059   0.9141   0.9156   0.9209   0.9222   0.9308
  0.9345   0.9397   0.9473   0.9512   0.9631   0.9696   0.9713   0.9819
  0.9832   0.9870   0.9919   1.0007   1.0050   1.0057   1.0112   1.0139
  1.0266   1.0290   1.0335   1.0420   1.0467   1.0524   1.0626   1.0668
  1.0686   1.0703   1.0747   1.0815   1.0829   1.0850   1.0935   1.1054
  1.1071   1.1132   1.1200   1.1254   1.1332   1.1375   1.1405   1.1462
  1.1479   1.1555   1.1626   1.1652   1.1695   1.1758   1.1806   1.1906
  1.1949   1.1972   1.2027   1.2075   1.2120   1.2181   1.2230   1.2278
  1.2317   1.2362   1.2414   1.2475   1.2550   1.2585   1.2677   1.2816
  1.2851   1.2911   1.2963   1.3104   1.3130   1.3213   1.3318   1.3383
  1.3452   1.3508   1.3533   1.3577   1.3696   1.3750   1.3824   1.3872
  1.3892   1.3945   1.4012   1.4069   1.4215   1.4292   1.4320   1.4407
  1.4480   1.4523   1.4619   1.4668   1.4771   1.4807   1.4881   1.4906
  1.4977   1.5058   1.5101   1.5127   1.5234   1.5290   1.5360   1.5368
  1.5417   1.5434   1.5512   1.5598   1.5642   1.5703   1.5718   1.5819
  1.5838   1.5920   1.6008   1.6046   1.6183   1.6260   1.6303   1.6438
  1.6478   1.6602   1.6644   1.6714   1.6842   1.6885   1.6925   1.6948
  1.7073   1.7093   1.7190   1.7360   1.7414   1.7471   1.7541   1.7567
  1.7629   1.7671   1.7704   1.7841   1.7895   1.7989   1.8063   1.8116
  1.8158   1.8214   1.8404   1.8461   1.8510   1.8636   1.8695   1.8749
  1.8779   1.8849   1.8866   1.8962   1.9128   1.9157   1.9180   1.9424
  1.9553   1.9601   1.9704   1.9765   1.9835   1.9917   2.0073   2.0275
  2.0322   2.0349   2.0523   2.0598   2.0906   2.1057   2.1093   2.1146
  2.1337   2.1439   2.1593   2.1656   2.1873   2.1990   2.2059   2.2211
  2.2274   2.2340   2.2506   2.2696   2.2782   2.2935   2.2949   2.3047
  2.3179   2.3277   2.3341   2.3446   2.3593   2.3690   2.3716   2.3865
  2.4013   2.4178   2.4290   2.4380   2.4471   2.4561   2.4628   2.4689
  2.4703   2.4842   2.4985   2.5034   2.5111   2.5209   2.5320   2.5491
  2.5570   2.5633   2.5822   2.5853   2.5883   2.6008   2.6154   2.6226
  2.6307   2.6362   2.6399   2.6452   2.6492   2.6591   2.6735   2.6823
  2.6845   2.6889   2.6972   2.7055   2.7195   2.7243   2.7300   2.7314
  2.7428   2.7475   2.7552   2.7622   2.7707   2.7768   2.7929   2.8020
  2.8053   2.8213   2.8384   2.8484   2.8537   2.8552   2.8637   2.8672
  2.8780   2.8810   2.8870   2.8910   2.9016   2.9072   2.9136   2.9164
  2.9235   2.9269   2.9365   2.9474   2.9509   2.9605   2.9634   2.9707
  2.9785   2.9793   2.9876   2.9976   3.0102   3.0171   3.0215   3.0268
  3.0317   3.0422   3.0502   3.0577   3.0584   3.0713   3.0839   3.0896
  3.0949   3.1020   3.1068   3.1091   3.1097   3.1113   3.1153   3.1220
  3.1335   3.1403   3.1452   3.1497   3.1559   3.1608   3.1673   3.1739
  3.1778   3.1931   3.1968   3.2009   3.2095   3.2170   3.2193   3.2214
  3.2286   3.2358   3.2433   3.2438   3.2502   3.2555   3.2636   3.2676
  3.2695   3.2748   3.2767   3.2862   3.2928   3.2996   3.3027   3.3067
  3.3127   3.3156   3.3219   3.3261   3.3303   3.3328   3.3352   3.3408
  3.3443   3.3474   3.3499   3.3542   3.3599   3.3655   3.3721   3.3765
  3.3828   3.3855   3.3882   3.3965   3.3989   3.4015   3.4025   3.4136
  3.4174   3.4214   3.4289   3.4305   3.4394   3.4409   3.4481   3.4497
  3.4543   3.4583   3.4650   3.4668   3.4734   3.4782   3.4891   3.4944
  3.4991   3.5016   3.5049   3.5070   3.5162   3.5173   3.5238   3.5316
  3.5351   3.5382   3.5522   3.5530   3.5595   3.5668   3.5701   3.5779
  3.5883   3.5900   3.5944   3.6062   3.6078   3.6169   3.6201   3.6271
  3.6318   3.6344   3.6380   3.6434   3.6452   3.6485   3.6560   3.6614
  3.6724   3.6736   3.6838   3.6926   3.6954   3.7009   3.7029   3.7149
  3.7168   3.7262   3.7324   3.7365   3.7472   3.7498   3.7525   3.7530
  3.7562   3.7656   3.7696   3.7748   3.7800   3.7915   3.7954   3.8032
  3.8096   3.8128   3.8160   3.8182   3.8273   3.8347   3.8405   3.8485
  3.8543   3.8587   3.8613   3.8676   3.8749   3.8903   3.8933   3.9047
  3.9078   3.9120   3.9178   3.9302   3.9401   3.9430   3.9463   3.9545
  3.9630   3.9648   3.9707   3.9763   3.9810   3.9902   4.0055   4.0088
  4.0145   4.0263   4.0352   4.0385   4.0423   4.0608   4.0641   4.0812
  4.0963   4.1092   4.1105   4.1162   4.1213   4.1269   4.1294   4.1432
  4.1461   4.1532   4.1575   4.1679   4.1760   4.1873   4.2002   4.2053
  4.2101   4.2222   4.2275   4.2388   4.2422   4.2442   4.2547   4.2591
  4.2655   4.2750   4.2769   4.2829   4.2882   4.2904   4.3010   4.3059
  4.3126   4.3158   4.3208   4.3292   4.3347   4.3434   4.3469   4.3506
  4.3582   4.3651   4.3695   4.3713   4.3752   4.3798   4.3875   4.3946
  4.4019   4.4069   4.4127   4.4200   4.4299   4.4361   4.4488   4.4640
  4.4712   4.4847   4.4882   4.4954   4.5011   4.5113   4.5244   4.5275
  4.5345   4.5451   4.5479   4.5565   4.5671   4.5767   4.5818   4.5859
  4.5883   4.5990   4.6043   4.6097   4.6203   4.6240   4.6336   4.6365
  4.6449   4.6570   4.6677   4.6748   4.6887   4.6938   4.7013   4.7053
  4.7178   4.7330   4.7387   4.7429   4.7763   4.7867   4.7947   4.8023
  4.8105   4.8266   4.8333   4.8445   4.8492   4.8582   4.8701   4.8729
  4.8850   4.8868   4.9002   4.9208   4.9380   4.9467   4.9536   4.9648
  4.9761   4.9919   5.0147   5.0304   5.0394   5.0405   5.0513   5.0542
  5.0741   5.0953   5.1008   5.1215   5.1237   5.1278   5.1314   5.1396
  5.1518   5.1637   5.1718   5.1822   5.1927   5.1991   5.2238   5.2363
  5.2579   5.2635   5.2727   5.2850   5.2953   5.3058   5.3192   5.3279
  5.3309   5.3402   5.3447   5.3705   5.3778   5.3858   5.4035   5.4165
  5.4364   5.4409   5.4728   5.4891   5.4928   5.5057   5.5140   5.5151
  5.5182   5.5423   5.5438   5.5509   5.5584   5.5635   5.5654   5.5676
  5.5738   5.5812   5.5867   5.5928   5.6090   5.6181   5.6241   5.6350
  5.6481   5.6529   5.6609   5.6655   5.6671   5.6740   5.6941   5.6958
  5.6978   5.7098   5.7182   5.7418   5.7530   5.7650   5.7709   5.7754
  5.7853   5.7937   5.8056   5.8317   5.8352   5.8486   5.8838   5.9032
  5.9250   5.9544   5.9576   5.9807   6.0027   6.0227   6.0320   6.0420
  6.0497   6.0740   6.0955   6.1122   6.1240   6.1331   6.1475   6.1875
  6.2026   6.2202   6.2258   6.2262   6.2428   6.2635   6.2700   6.2837
  6.3099   6.3195   6.3239   6.3496   6.3663   6.3867   6.4237   6.4843
  6.5193   6.5349   6.5753   6.5834   6.6027   6.6155   6.6594   6.6685
  6.6743   6.6894   6.8476   6.8508   6.8889   6.9028   6.9059   6.9239
  6.9278   6.9473   7.1015   7.1095   7.1478   7.1940   7.2002   7.2361
  7.3479   7.3525   7.3578   7.3615   7.4763   7.5452   7.5716   7.5836
  7.5914   7.6016   7.6543   7.6804   7.6930   7.7157   8.8765  10.0692
 10.2912  11.3204  11.5294  11.7501  12.0296  12.0964  12.4264  12.4580
 12.8982  13.2018  13.3230  13.5500  13.7864  13.9277  14.1228  14.2707
 14.3161  14.3632  14.5240  14.5409  15.0443  15.6064  15.8268  16.3143
 --------------------------------------------------------------
 
          Ground-State Mulliken Net Atomic Charges

     Atom                 Charge (a.u.)
  ----------------------------------------
      1 C                    -0.084658
      2 C                    -0.030196
      3 C                    -0.113695
      4 C                    -0.121365
      5 H                     0.198410
      6 C                     0.007718
      7 C                     0.119430
      8 C                    -0.065425
      9 C                    -0.139069
     10 C                    -0.173634
     11 C                     0.237024
     12 H                     0.193057
     13 C                     0.343629
     14 C                     0.349546
     15 N                    -0.089714
     16 C                     0.356931
     17 C                     0.356158
     18 N                    -0.089693
     19 O                    -0.495121
     20 O                    -0.507760
     21 O                    -0.501976
     22 O                    -0.469623
     23 C                    -0.204853
     24 H                     0.139278
     25 H                     0.109067
     26 H                     0.108994
     27 C                    -0.197488
     28 H                     0.133220
     29 H                     0.111605
     30 H                     0.110792
     31 C                    -0.081093
     32 S                     0.007364
     33 C                    -0.209587
     34 C                    -0.162939
     35 C                    -0.196652
     36 H                     0.184628
     37 H                     0.189946
     38 H                     0.213332
     39 H                     0.137211
     40 H                     0.137456
     41 H                     0.189747
  ----------------------------------------
  Sum of atomic charges =     0.000000

 -----------------------------------------------------------------
                    Cartesian Multipole Moments
 -----------------------------------------------------------------
    Charge (ESU x 10^10)
                 0.0000
    Dipole Moment (Debye)
         X       1.9944      Y       2.5778      Z      -0.7223
       Tot       3.3383
    Quadrupole Moments (Debye-Ang)
        XX    -190.9782     XY      -5.0260     YY    -179.6820
        XZ      11.0725     YZ       2.5680     ZZ    -160.1089
    Octopole Moments (Debye-Ang^2)
       XXX     -96.5003    XXY     587.9994    XYY      41.2501
       YYY    1698.1611    XXZ     -11.0596    XYZ     -42.6038
       YYZ     -24.2827    XZZ     -26.5699    YZZ     490.1794
       ZZZ     -39.6707
    Hexadecapole Moments (Debye-Ang^3)
      XXXX   -5678.5921   XXXY    -166.1275   XXYY   -4274.8310
      XYYY   -1154.1516   YYYY  -18077.5350   XXXZ    1030.5987
      XXYZ     -72.3479   XYYZ     600.5393   YYYZ     369.3338
      XXZZ   -1126.2441   XYZZ     -97.6214   YYZZ   -2861.9926
      XZZZ     924.7253   YZZZ      74.1711   ZZZZ   -1143.8524
 -----------------------------------------------------------------
 Total job time:  504.99s(wall), 19720.38s(cpu) 
 Sun Sep 24 15:46:08 2023

        *************************************************************
        *                                                           *
        *  Thank you very much for using Q-Chem.  Have a nice day.  *
        *                                                           *
        *************************************************************


0 sent ACK to 0 
now end server 0 ... 
cleanup process ... done
remove work dirs ./qchem4073537.0 -- ./qchem4073537.0
rm -rf ./qchem4073537.0
rm -rf ./qchem4073537
