You are running Q-Chem version: 5.4.0

#
# job setting
#
local host:  exp-2-44
current dir: /expanse/lustre/projects/csd626/rramji/aromodel/PNDIT/Hydrogenated_Rotation_Test
input file:  Dimethyl_Naphthalene_Dicarboximide_Phi_30_Theta_120_Thiophene_Hydrogenated.qcin
output file: 
nprocs     : 1
nthreads   : 64
#
# qchem installation setting
#
QC:          /cm/shared/apps/spack/cpu/opt/spack/linux-centos8-zen2/gcc-10.2.0/qchem-5.4-akfmr7b3t57bfs6qan3padb2wnb2i7cl
QCAUX:       /cm/shared/apps/spack/cpu/opt/spack/linux-centos8-zen2/gcc-10.2.0/qchem-5.4-akfmr7b3t57bfs6qan3padb2wnb2i7cl/qcaux
QCPROG:      /cm/shared/apps/spack/cpu/opt/spack/linux-centos8-zen2/gcc-10.2.0/qchem-5.4-akfmr7b3t57bfs6qan3padb2wnb2i7cl/exe/qcprog.exe
QCPROG_S:    /cm/shared/apps/spack/cpu/opt/spack/linux-centos8-zen2/gcc-10.2.0/qchem-5.4-akfmr7b3t57bfs6qan3padb2wnb2i7cl/exe/qcprog.exe_s
PARALLEL:    -DPARALLEL
QCMPI:       mpich
#
# qchem directory setting
#
qcrun:       qchem2306617
QCSCRATCH:   .
QCLOCALSCR:  
QCTMPDIR:    .
QCFILEPREF:  ./qchem2306617
QCSAVEDIR:   
workdirs:    ./qchem2306617
workdir0:    ./qchem2306617
partmpdirs =  
#
# parallel setting
#
QCRSH:           ssh
QCMPI:           mpich
QCMPIRUN:        /cm/shared/apps/spack/cpu/opt/spack/linux-centos8-zen2/gcc-10.2.0/qchem-5.4-akfmr7b3t57bfs6qan3padb2wnb2i7cl/bin/mpi/mpirun_qchem
QCMACHINEFILE:   ./qchem2306617/hostfile
exp-2-44

#
# env setting
#
exported envs:   QC QCAUX QCSCRATCH QCRUNNAME QCFILEPREF QCPROG QCPROG_S GUIFILE

Running Job 1 of 1 Dimethyl_Naphthalene_Dicarboximide_Phi_30_Theta_120_Thiophene_Hydrogenated.qcin
qchem Dimethyl_Naphthalene_Dicarboximide_Phi_30_Theta_120_Thiophene_Hydrogenated.qcin_2306617.0 ./qchem2306617/ 1
/cm/shared/apps/spack/cpu/opt/spack/linux-centos8-zen2/gcc-10.2.0/qchem-5.4-akfmr7b3t57bfs6qan3padb2wnb2i7cl/bin/mpi/mpirun_qchem -machinefile ./qchem2306617/hostfile -np 1 /cm/shared/apps/spack/cpu/opt/spack/linux-centos8-zen2/gcc-10.2.0/qchem-5.4-akfmr7b3t57bfs6qan3padb2wnb2i7cl/exe/qcprog.exe Dimethyl_Naphthalene_Dicarboximide_Phi_30_Theta_120_Thiophene_Hydrogenated.qcin_2306617.0 ./qchem2306617/

Process 0 of 1 is on exp-2-44 - thread support 0
initial socket setup ...start
initial socket setup ...done 
now start server 0 ... 
                  Welcome to Q-Chem
     A Quantum Leap Into The Future Of Chemistry


 Q-Chem 5.4, Q-Chem, Inc., Pleasanton, CA (2021)

 License issued to: University of California, San Diego (site)

 E. Epifanovsky,  A. T. B. Gilbert,  Xintian Feng,  Joonho Lee,  Yuezhi Mao,  
 N. Mardirossian,  P. Pokhilko,  A. White,  M. Wormit,  M. P. Coons,  
 A. L. Dempwolff,  Zhengting Gan,  D. Hait,  P. R. Horn,  L. D. Jacobson,  
 I. Kaliman,  J. Kussmann,  A. W. Lange,  Ka Un Lao,  D. S. Levine,  Jie Liu,  
 S. C. McKenzie,  A. F. Morrison,  K. Nanda,  F. Plasser,  D. R. Rehn,  
 M. L. Vidal,  Zhi-Qiang You,  Ying Zhu,  B. Alam,  B. Albrecht,  
 A. Aldossary,  E. Alguire,  J. H. Andersen,  D. Barton,  K. Begam,  A. Behn,  
 Y. A. Bernard,  E. J. Berquist,  H. Burton,  A. Carreras,  K. Carter-Fenk,  
 R. Chakraborty,  A. D. Chien,  K. D. Closser,  V. Cofer-Shabica,  
 S. Dasgupta,  Jia Deng,  M. de Wergifosse,  M. Diedenhofen,  Hainam Do,  
 S. Ehlert,  Po-Tung Fang,  S. Fatehi,  Qingguo Feng,  J. Gayvert,  
 Qinghui Ge,  G. Gidofalvi,  M. Goldey,  J. Gomes,  C. Gonzalez-Espinoza,  
 S. Gulania,  A. Gunina,  M. W. D. Hanson-Heine,  P. H. P. Harbach,  
 A. W. Hauser,  M. F. Herbst,  M. Hernandez Vera,  M. Hodecker,  
 Z. C. Holden,  S. Houck,  Xunkun Huang,  Kerwin Hui,  B. C. Huynh,  
 M. Ivanov,  Hyunjun Ji,  Hanjie Jiang,  B. Kaduk,  S. Kaehler,  
 K. Khistyaev,  Jaehoon Kim,  P. Klunzinger,  Z. Koczor-Benda,  
 Joong Hoon Koh,  D. Kosenkov,  L. Koulias,  T. Kowalczyk,  C. M. Krauter,  
 K. Kue,  A. Kunitsa,  T. Kus,  A. Landau,  K. V. Lawler,  D. Lefrancois,  
 S. Lehtola,  Rain Li,  Yi-Pei Li,  Jiashu Liang,  M. Liebenthal,  
 Hung-Hsuan Lin,  You-Sheng Lin,  Fenglai Liu,  Kuan-Yu Liu,  
 M. Loipersberger,  A. Luenser,  A. Manjanath,  P. Manohar,  E. Mansoor,  
 S. F. Manzer,  Shan-Ping Mao,  A. V. Marenich,  T. Markovich,  S. Mason,  
 S. A. Maurer,  P. F. McLaughlin,  M. F. S. J. Menger,  J.-M. Mewes,  
 S. A. Mewes,  P. Morgante,  J. W. Mullinax,  T. S. Nguyen-Beck,  
 K. J. Oosterbaan,  G. Paran,  Alexander C. Paul,  Suranjan K. Paul,  
 F. Pavosevic,  Zheng Pei,  S. Prager,  E. I. Proynov,  E. Ramos,  B. Rana,  
 A. E. Rask,  A. Rettig,  R. M. Richard,  F. Rob,  E. Rossomme,  T. Scheele,  
 M. Scheurer,  M. Schneider,  N. Sergueev,  S. M. Sharada,  W. Skomorowski,  
 D. W. Small,  C. J. Stein,  Yu-Chuan Su,  E. J. Sundstrom,  Zhen Tao,  
 J. Thirman,  T. Tsuchimochi,  N. M. Tubman,  S. P. Veccham,  O. Vydrov,  
 J. Wenzel,  J. Witte,  A. Yamada,  Kun Yao,  S. Yeganeh,  S. R. Yost,  
 A. Zech,  Igor Ying Zhang,  Xing Zhang,  Yu Zhang,  D. Zuev,  
 A. Aspuru-Guzik,  A. T. Bell,  N. A. Besley,  K. B. Bravaya,  B. R. Brooks,  
 D. Casanova,  Jeng-Da Chai,  S. Coriani,  C. J. Cramer,  
 A. E. DePrince, III,  R. A. DiStasio Jr.,  A. Dreuw,  B. D. Dunietz,  
 T. R. Furlani,  W. A. Goddard III,  S. Grimme,  S. Hammes-Schiffer,  
 T. Head-Gordon,  W. J. Hehre,  Chao-Ping Hsu,  T.-C. Jagau,  Yousung Jung,  
 A. Klamt,  Jing Kong,  D. S. Lambrecht,  WanZhen Liang,  N. J. Mayhall,  
 C. W. McCurdy,  J. B. Neaton,  C. Ochsenfeld,  J. A. Parkhill,  R. Peverati,  
 V. A. Rassolov,  Yihan Shao,  L. V. Slipchenko,  T. Stauch,  R. P. Steele,  
 J. E. Subotnik,  A. J. W. Thom,  A. Tkatchenko,  D. G. Truhlar,  
 T. Van Voorhis,  T. A. Wesolowski,  K. B. Whaley,  H. L. Woodcock III,  
 P. M. Zimmerman,  S. Faraji,  P. M. W. Gill,  M. Head-Gordon,  
 J. M. Herbert,  A. I. Krylov

 Contributors to earlier versions of Q-Chem not listed above: 
 R. D. Adamson,  B. Austin,  R. Baer,  J. Baker,  G. J. O. Beran,  
 K. Brandhorst,  S. T. Brown,  E. F. C. Byrd,  A. K. Chakraborty,  
 G. K. L. Chan,  Chun-Min Chang,  Yunqing Chen,  C.-L. Cheng,  
 Siu Hung Chien,  D. M. Chipman,  D. L. Crittenden,  H. Dachsel,  
 R. J. Doerksen,  A. D. Dutoi,  R. G. Edgar,  J. Fosso-Tande,  
 L. Fusti-Molnar,  D. Ghosh,  A. Ghysels,  A. Golubeva-Zadorozhnaya,  
 J. Gonthier,  M. S. Gordon,  S. R. Gwaltney,  G. Hawkins,  J. E. Herr,  
 A. Heyden,  S. Hirata,  E. G. Hohenstein,  G. Kedziora,  F. J. Keil,  
 C. Kelley,  Jihan Kim,  R. A. King,  R. Z. Khaliullin,  P. P. Korambath,  
 W. Kurlancheek,  A. Laurent,  A. M. Lee,  M. S. Lee,  S. V. Levchenko,  
 Ching Yeh Lin,  D. Liotard,  E. Livshits,  R. C. Lochan,  I. Lotan,  
 L. A. Martinez-Martinez,  P. E. Maslen,  N. Nair,  D. P. O'Neill,  
 D. Neuhauser,  E. Neuscamman,  C. M. Oana,  R. Olivares-Amaya,  R. Olson,  
 T. M. Perrine,  B. Peters,  P. A. Pieniazek,  A. Prociuk,  Y. M. Rhee,  
 J. Ritchie,  M. A. Rohrdanz,  E. Rosta,  N. J. Russ,  H. F. Schaefer III,  
 M. W. Schmidt,  N. E. Schultz,  S. Sharma,  N. Shenvi,  C. D. Sherrill,  
 A. C. Simmonett,  A. Sodt,  T. Stein,  D. Stuck,  K. S. Thanthiriwatte,  
 V. Vanovschi,  L. Vogt,  Tao Wang,  A. Warshel,  M. A. Watson,  
 C. F. Williams,  Q. Wu,  X. Xu,  Jun Yang,  W. Zhang,  Yan Zhao

 Please cite Q-Chem as follows:
 Y. Shao et al., Mol. Phys. 113, 184-215 (2015)
 DOI: 10.1080/00268976.2014.952696

 Q-Chem 5.4.0 for Intel X86 EM64T Linux

 Parts of Q-Chem use Armadillo 9.800.1 (Horizon Scraper).
 http://arma.sourceforge.net/

 Q-Chem begins on Sun Sep 24 15:58:11 2023  

 Host: 
0

     Scratch files written to ./qchem2306617//
 May1621 |scratch|qcdevops|jenkins|workspace|build_RNUM    
 Parallel job on  1  processors
 Processing $rem in /cm/shared/apps/spack/cpu/opt/spack/linux-centos8-zen2/gcc-10.2.0/qchem-5.4-akfmr7b3t57bfs6qan3padb2wnb2i7cl/config/preferences:
 Processing $rem in /home/rramji/.qchemrc:
 Symmetry turned off for PCM/SM12/SMD calculation
 Core orbitals will be frozen

 Checking the input file for inconsistencies... 	...done.

 Q-Chem warning in module forms1/BasisType.C, line 2236:

 You are not using the predefined 5D/6D in this basis set.


--------------------------------------------------------------
User input:
--------------------------------------------------------------
$molecule
0 1
C	0.223244	-6.741404	0.127184
C	1.354118	-6.155638	0.779949
C	-0.715408	-5.791452	-0.415271
C	1.595259	-4.803786	0.919437
H	2.114613	-6.821518	1.218801
C	-0.463133	-4.378638	-0.268806
C	0.688925	-3.838032	0.396744
C	-1.368449	-3.413062	-0.790835
C	0.939189	-2.426473	0.542026
C	-1.130363	-2.059348	-0.652669
C	0.000000	-1.478216	0.000000
H	-1.891815	-1.394783	-1.091814
C	-1.963749	-6.187987	-1.138124
C	-2.607351	-3.798164	-1.506241
N	-2.817348	-5.170003	-1.629443
C	2.837621	-4.424987	1.636646
C	2.188982	-2.036627	1.264474
N	3.042637	-3.049156	1.756205
O	-2.301222	-7.353131	-1.336258
O	-3.407386	-2.986854	-1.967056
O	3.628041	-5.248946	2.092167
O	2.545844	-0.878829	1.472160
C	-4.040164	-5.563799	-2.336642
H	-4.078749	-6.664085	-2.360245
H	-4.027880	-5.147101	-3.361968
H	-4.922811	-5.148785	-1.813424
C	4.247167	-2.587487	2.452149
H	4.804209	-3.483329	2.772531
H	3.965991	-1.964972	3.322697
H	4.859678	-1.962932	1.774507
C	0.000000	0.000000	0.000000
S	0.396411	0.687007	1.580530
C	1.215245	2.105322	0.904911
C	0.498850	0.864369	-0.985400
C	1.158885	2.007781	-0.493528
H	0.381046	0.660280	-2.059934
H	1.599289	2.770727	-1.152593
H	1.655514	2.868056	1.556025
H	-0.318588	-7.361589	0.851574
H	0.580522	-7.361192	-0.704181
H	-0.540459	-1.478831	0.935042
$end

$rem
JOBTYPE		SP
EXCHANGE	HF
CORRELATION	pRIMP2
BASIS		cc-pvtz
METHOD		rimp2
AUX_BASIS	rimp2-cc-pvtz
SOLVENT_METHOD	PCM
PURECART	11111
SYMMETRY	false
MEM_TOTAL	110000
SCF_CONVERGENCE = 6
THRESH=10
GUI = 2
$end



$solvent
dielectric 4.90
$end
--------------------------------------------------------------
 ----------------------------------------------------------------
             Standard Nuclear Orientation (Angstroms)
    I     Atom           X                Y                Z
 ----------------------------------------------------------------
    1      C       0.2232440000    -6.7414040000     0.1271840000
    2      C       1.3541180000    -6.1556380000     0.7799490000
    3      C      -0.7154080000    -5.7914520000    -0.4152710000
    4      C       1.5952590000    -4.8037860000     0.9194370000
    5      H       2.1146130000    -6.8215180000     1.2188010000
    6      C      -0.4631330000    -4.3786380000    -0.2688060000
    7      C       0.6889250000    -3.8380320000     0.3967440000
    8      C      -1.3684490000    -3.4130620000    -0.7908350000
    9      C       0.9391890000    -2.4264730000     0.5420260000
   10      C      -1.1303630000    -2.0593480000    -0.6526690000
   11      C       0.0000000000    -1.4782160000     0.0000000000
   12      H      -1.8918150000    -1.3947830000    -1.0918140000
   13      C      -1.9637490000    -6.1879870000    -1.1381240000
   14      C      -2.6073510000    -3.7981640000    -1.5062410000
   15      N      -2.8173480000    -5.1700030000    -1.6294430000
   16      C       2.8376210000    -4.4249870000     1.6366460000
   17      C       2.1889820000    -2.0366270000     1.2644740000
   18      N       3.0426370000    -3.0491560000     1.7562050000
   19      O      -2.3012220000    -7.3531310000    -1.3362580000
   20      O      -3.4073860000    -2.9868540000    -1.9670560000
   21      O       3.6280410000    -5.2489460000     2.0921670000
   22      O       2.5458440000    -0.8788290000     1.4721600000
   23      C      -4.0401640000    -5.5637990000    -2.3366420000
   24      H      -4.0787490000    -6.6640850000    -2.3602450000
   25      H      -4.0278800000    -5.1471010000    -3.3619680000
   26      H      -4.9228110000    -5.1487850000    -1.8134240000
   27      C       4.2471670000    -2.5874870000     2.4521490000
   28      H       4.8042090000    -3.4833290000     2.7725310000
   29      H       3.9659910000    -1.9649720000     3.3226970000
   30      H       4.8596780000    -1.9629320000     1.7745070000
   31      C       0.0000000000     0.0000000000     0.0000000000
   32      S       0.3964110000     0.6870070000     1.5805300000
   33      C       1.2152450000     2.1053220000     0.9049110000
   34      C       0.4988500000     0.8643690000    -0.9854000000
   35      C       1.1588850000     2.0077810000    -0.4935280000
   36      H       0.3810460000     0.6602800000    -2.0599340000
   37      H       1.5992890000     2.7707270000    -1.1525930000
   38      H       1.6555140000     2.8680560000     1.5560250000
   39      H      -0.3185880000    -7.3615890000     0.8515740000
   40      H       0.5805220000    -7.3611920000    -0.7041810000
   41      H      -0.5404590000    -1.4788310000     0.9350420000
 ----------------------------------------------------------------
 Nuclear Repulsion Energy =        2573.18715817 hartrees
 There are       98 alpha and       98 beta electrons
 Requested basis set is cc-pVTZ
 There are 356 shells and 1010 basis functions

 Total QAlloc Memory Limit 110000 MB
 Mega-Array Size       188 MB
 MEM_STATIC part       192 MB
 Discretize the solute cavity surface with Lebedev spheres
	Using 110 Lebedev grid points for each H atom
	Using 194 Lebedev grid points for other atoms
	Atomic van der Waals radii will be scaled by 1.20
 Remove points where switching function is < 1.0e-08
 Keep 2589 surface tesserae and discard 4189 interior tesserae
 Molecular Surface Area = 365.768 Angst**2
 Requested basis set is rimp2-cc-pVTZ
 There are 770 shells and 2648 basis functions
 A cutoff of  1.0D-10 yielded  34501 shell pairs
 There are    260869 function pairs (    337698 Cartesian)
 Smallest overlap matrix eigenvalue = 8.95E-06

 Q-Chem warning in module stvman/mkSTV.C, line 323:

 Overlap eigenvalue is smaller than square root of threshold
 Use THRESH >= 12 to get rid of this warning


 Scale SEOQF with 1.000000e-01/1.000000e-02/1.000000e-01

 Standard Electronic Orientation quadrupole field applied
 Nucleus-field energy     =     0.0000000170 hartrees
 Guess from superposition of atomic densities
 Warning:  Energy on first SCF cycle will be non-variational
 SAD guess density has 196.000000 electrons

 -----------------------------------------------------------------------
  General SCF calculation program by
  Eric Jon Sundstrom, Paul Horn, Yuezhi Mao, Dmitri Zuev, Alec White,
  David Stuck, Shaama M.S., Shane Yost, Joonho Lee, David Small,
  Daniel Levine, Susi Lehtola, Hugh Burton, Evgeny Epifanovsky,
  Bang C. Huynh
 -----------------------------------------------------------------------
 Hartree-Fock
 using 64 threads for integral computing
 -------------------------------------------------------
 OpenMP Integral computing Module                
 Release: version 1.0, May 2013, Q-Chem Inc. Pittsburgh 
 -------------------------------------------------------
 A restricted SCF calculation will be
 performed using DIIS
 SCF converges when DIIS error is below 1.0e-06
 ---------------------------------------
  Cycle       Energy         DIIS error
 ---------------------------------------
    1   -1583.1494619667      1.86e-02  
    2   -1571.1396560123      2.03e-03  
    3   -1571.4771035179      1.55e-03  
    4   -1571.6989216506      2.54e-04  
    5   -1571.7127921801      7.87e-05  
    6   -1571.7142306419      3.04e-05  
    7   -1571.7146643329      1.57e-05  
    8   -1571.7147858927      6.55e-06  
    9   -1571.7148076756      3.03e-06  
   10   -1571.7148122468      1.29e-06  
   11   -1571.7148135751      5.79e-07  Convergence criterion met
 ---------------------------------------
 SCF time:   CPU 7058.54s  wall 276.00s 

************** Final PCM Free Energy Summary **************
 G_electrostatic  =      -0.02936543 hartree =     -18.42708803 kcal/mol
 G_cavitation     =       0.00000000 hartree =       0.00000000 kcal/mol
 G_dispersion     =       0.00000000 hartree =       0.00000000 kcal/mol
 G_repulsion      =       0.00000000 hartree =       0.00000000 kcal/mol
 --------------------------------------------------
 Non-electrostatic Free Energy =       0.00000000 hartree =       0.00000000 kcal/mol
 Total                         =      -0.02936543 hartree =     -18.42708803 kcal/mol
 --------------------------------------------------
 SCF Energy (H0 + V/2)                       =   -1571.71481358 
 Solute Internal Energy (H0)                 =   -1571.68544814 
 Total Free Energy (H0 + V/2 + non-elec)     =   -1571.71481358 hartree
                                             = -986265.93122936 kcal/mol
***********************************************************

 SCF   energy in the final basis set =    -1571.7148135751
 Total energy in the final basis set =    -1571.7148135751


 --------------------------------------------------------------
  Generalized many-body perturbation theory program
  by Joonho Lee, Fazle Rob, Xintian Feng, Evgeny Epifanovsky

 No regularization used 
 (reg. param. = 0.0000e+00)
  (P|Q)^-1/2 Time:  CPU 111.45 s  wall 2.38 s

 In RI-MP2 calculation: 
 # of frozen core orbitals: 31

 Components of the RIMP2 correlation energy:
        aaaa    correlation energy =        -0.6170882290 a.u.
        abab    correlation energy =        -3.4307396756 a.u.
        bbbb    correlation energy =        -0.6170882290 a.u.
        non-Brillouin singles      =        -0.0000000000 a.u.
        total same-spin energy     =        -1.2341764580 a.u.
        total opposite-spin energy =        -3.4307396756 a.u.

 Total  RIMP2   correlation energy =        -4.6649161336 a.u.
        RIMP2         total energy =     -1576.3797297087 a.u.

 RI-MP2 Energy Time:  CPU 1965.54 s  wall 32.46 s
 
 --------------------------------------------------------------
 
                    Orbital Energies (a.u.)
 --------------------------------------------------------------
 
 Alpha MOs
 -- Occupied --
-91.9828 -20.5480 -20.5438 -20.5407 -20.5395 -15.6259 -15.6204 -11.3913
-11.3844 -11.3826 -11.3779 -11.3075 -11.3059 -11.3042 -11.3038 -11.2957
-11.2857 -11.2855 -11.2811 -11.2674 -11.2674 -11.2626 -11.2622 -11.2589
-11.2559 -11.2519 -11.2471  -8.9830  -6.6636  -6.6631  -6.6628  -1.4189
 -1.4113  -1.3967  -1.3904  -1.2613  -1.2545  -1.2282  -1.1850  -1.1504
 -1.1127  -1.0847  -1.0455  -0.9938  -0.9872  -0.9821  -0.9542  -0.9500
 -0.8945  -0.8855  -0.8762  -0.8594  -0.7896  -0.7749  -0.7736  -0.7668
 -0.7338  -0.7173  -0.7028  -0.6901  -0.6771  -0.6685  -0.6669  -0.6564
 -0.6464  -0.6394  -0.6377  -0.6312  -0.6302  -0.6262  -0.6235  -0.6035
 -0.5840  -0.5720  -0.5675  -0.5612  -0.5569  -0.5509  -0.5499  -0.5481
 -0.5472  -0.5429  -0.5166  -0.5112  -0.5065  -0.4809  -0.4712  -0.4625
 -0.4535  -0.4476  -0.4418  -0.4335  -0.4129  -0.4067  -0.3517  -0.3375
 -0.3284  -0.2867
 -- Virtual --
  0.0155   0.0443   0.0807   0.0923   0.1317   0.1498   0.1546   0.1599
  0.1643   0.1727   0.1799   0.1838   0.1843   0.1918   0.1944   0.2039
  0.2098   0.2200   0.2248   0.2289   0.2322   0.2355   0.2378   0.2426
  0.2659   0.2696   0.2949   0.3039   0.3114   0.3178   0.3230   0.3250
  0.3290   0.3400   0.3438   0.3519   0.3555   0.3594   0.3627   0.3644
  0.3720   0.3761   0.3796   0.3868   0.3896   0.3905   0.3991   0.4041
  0.4171   0.4207   0.4311   0.4321   0.4362   0.4397   0.4469   0.4493
  0.4514   0.4533   0.4567   0.4650   0.4754   0.4857   0.4933   0.4958
  0.4983   0.5073   0.5144   0.5152   0.5168   0.5221   0.5228   0.5287
  0.5325   0.5357   0.5452   0.5486   0.5535   0.5582   0.5619   0.5669
  0.5729   0.5736   0.5791   0.5819   0.5894   0.5924   0.5948   0.6024
  0.6053   0.6077   0.6085   0.6110   0.6167   0.6190   0.6219   0.6249
  0.6281   0.6342   0.6356   0.6380   0.6403   0.6434   0.6463   0.6502
  0.6602   0.6656   0.6772   0.6822   0.6866   0.6910   0.6948   0.6993
  0.7085   0.7157   0.7161   0.7271   0.7367   0.7398   0.7459   0.7547
  0.7650   0.7688   0.7748   0.7790   0.7819   0.7868   0.7950   0.8066
  0.8080   0.8088   0.8172   0.8264   0.8273   0.8326   0.8419   0.8479
  0.8524   0.8589   0.8641   0.8648   0.8724   0.8785   0.8788   0.8848
  0.8878   0.8962   0.9031   0.9101   0.9156   0.9243   0.9281   0.9302
  0.9368   0.9412   0.9499   0.9553   0.9631   0.9672   0.9702   0.9774
  0.9780   0.9904   0.9962   0.9984   1.0041   1.0104   1.0221   1.0252
  1.0298   1.0313   1.0404   1.0423   1.0482   1.0527   1.0589   1.0661
  1.0694   1.0713   1.0724   1.0816   1.0882   1.0918   1.1028   1.1072
  1.1111   1.1169   1.1215   1.1315   1.1329   1.1364   1.1389   1.1446
  1.1495   1.1546   1.1593   1.1658   1.1689   1.1726   1.1811   1.1859
  1.1959   1.1992   1.2025   1.2070   1.2096   1.2152   1.2225   1.2299
  1.2332   1.2370   1.2383   1.2463   1.2540   1.2547   1.2604   1.2757
  1.2810   1.2902   1.2973   1.3115   1.3205   1.3298   1.3337   1.3369
  1.3472   1.3502   1.3561   1.3669   1.3714   1.3805   1.3861   1.3869
  1.3907   1.3977   1.4028   1.4050   1.4135   1.4197   1.4242   1.4346
  1.4489   1.4554   1.4640   1.4729   1.4777   1.4881   1.4930   1.4946
  1.4988   1.5034   1.5153   1.5187   1.5201   1.5260   1.5361   1.5373
  1.5444   1.5487   1.5521   1.5550   1.5642   1.5677   1.5724   1.5742
  1.5837   1.5891   1.5937   1.6079   1.6098   1.6320   1.6344   1.6401
  1.6449   1.6596   1.6634   1.6709   1.6798   1.6859   1.6901   1.6996
  1.7041   1.7151   1.7196   1.7258   1.7366   1.7457   1.7501   1.7572
  1.7586   1.7665   1.7775   1.7797   1.7843   1.7930   1.8097   1.8103
  1.8182   1.8269   1.8380   1.8475   1.8540   1.8649   1.8723   1.8726
  1.8760   1.8827   1.8844   1.9092   1.9204   1.9229   1.9352   1.9500
  1.9584   1.9676   1.9746   1.9869   1.9903   1.9998   2.0154   2.0279
  2.0339   2.0441   2.0518   2.0768   2.0935   2.0986   2.1135   2.1241
  2.1369   2.1418   2.1570   2.1593   2.1749   2.1940   2.2099   2.2281
  2.2365   2.2479   2.2501   2.2749   2.2899   2.2921   2.3088   2.3104
  2.3167   2.3296   2.3319   2.3392   2.3650   2.3707   2.3718   2.3890
  2.4020   2.4307   2.4360   2.4402   2.4563   2.4602   2.4608   2.4720
  2.4759   2.4825   2.5016   2.5086   2.5170   2.5270   2.5425   2.5476
  2.5591   2.5714   2.5770   2.5866   2.5946   2.6051   2.6076   2.6240
  2.6287   2.6378   2.6416   2.6445   2.6627   2.6711   2.6789   2.6814
  2.6941   2.6982   2.7077   2.7164   2.7261   2.7294   2.7355   2.7376
  2.7439   2.7581   2.7601   2.7651   2.7688   2.7766   2.7862   2.8074
  2.8107   2.8319   2.8339   2.8473   2.8522   2.8557   2.8598   2.8774
  2.8791   2.8855   2.8865   2.8938   2.8978   2.9026   2.9078   2.9220
  2.9251   2.9257   2.9325   2.9430   2.9467   2.9600   2.9605   2.9788
  2.9878   2.9916   2.9940   3.0106   3.0188   3.0208   3.0246   3.0291
  3.0346   3.0377   3.0549   3.0571   3.0586   3.0728   3.0844   3.0936
  3.0953   3.1019   3.1058   3.1094   3.1116   3.1187   3.1251   3.1291
  3.1321   3.1390   3.1477   3.1528   3.1581   3.1601   3.1722   3.1745
  3.1862   3.1928   3.1975   3.2034   3.2124   3.2156   3.2178   3.2253
  3.2341   3.2359   3.2393   3.2487   3.2527   3.2584   3.2613   3.2651
  3.2743   3.2758   3.2784   3.2895   3.2975   3.3024   3.3032   3.3075
  3.3115   3.3161   3.3184   3.3251   3.3276   3.3354   3.3375   3.3396
  3.3458   3.3498   3.3538   3.3559   3.3592   3.3664   3.3717   3.3782
  3.3850   3.3880   3.3933   3.3944   3.4002   3.4044   3.4058   3.4089
  3.4203   3.4213   3.4245   3.4291   3.4360   3.4409   3.4449   3.4562
  3.4604   3.4632   3.4668   3.4704   3.4757   3.4781   3.4852   3.4882
  3.4951   3.4976   3.5055   3.5077   3.5112   3.5152   3.5237   3.5332
  3.5351   3.5388   3.5464   3.5581   3.5614   3.5643   3.5704   3.5821
  3.5885   3.5927   3.5986   3.6031   3.6101   3.6197   3.6237   3.6276
  3.6309   3.6359   3.6381   3.6432   3.6506   3.6526   3.6556   3.6610
  3.6682   3.6786   3.6844   3.6924   3.7002   3.7019   3.7090   3.7113
  3.7224   3.7304   3.7354   3.7425   3.7433   3.7473   3.7517   3.7561
  3.7613   3.7682   3.7694   3.7775   3.7796   3.7925   3.8009   3.8062
  3.8108   3.8145   3.8198   3.8290   3.8345   3.8371   3.8448   3.8470
  3.8505   3.8540   3.8584   3.8663   3.8896   3.8933   3.9020   3.9108
  3.9127   3.9213   3.9249   3.9344   3.9405   3.9439   3.9505   3.9560
  3.9601   3.9659   3.9670   3.9729   3.9827   3.9885   3.9984   4.0082
  4.0185   4.0262   4.0296   4.0372   4.0475   4.0589   4.0721   4.0745
  4.0944   4.1023   4.1126   4.1215   4.1248   4.1339   4.1368   4.1434
  4.1459   4.1589   4.1684   4.1724   4.1771   4.1811   4.1924   4.2094
  4.2141   4.2199   4.2276   4.2413   4.2463   4.2496   4.2605   4.2658
  4.2717   4.2780   4.2828   4.2848   4.2941   4.2955   4.3014   4.3057
  4.3145   4.3209   4.3252   4.3277   4.3347   4.3432   4.3504   4.3583
  4.3653   4.3689   4.3702   4.3731   4.3787   4.3811   4.3879   4.3965
  4.3976   4.4078   4.4151   4.4239   4.4316   4.4459   4.4483   4.4594
  4.4634   4.4728   4.4849   4.5004   4.5062   4.5099   4.5192   4.5319
  4.5389   4.5432   4.5466   4.5520   4.5570   4.5685   4.5816   4.5834
  4.5873   4.5953   4.6001   4.6129   4.6193   4.6246   4.6272   4.6417
  4.6482   4.6518   4.6678   4.6757   4.6895   4.6911   4.7002   4.7122
  4.7132   4.7243   4.7444   4.7486   4.7726   4.7840   4.7923   4.7959
  4.8101   4.8256   4.8311   4.8470   4.8522   4.8564   4.8763   4.8799
  4.8864   4.8964   4.9074   4.9258   4.9322   4.9406   4.9588   4.9785
  4.9915   4.9987   5.0203   5.0242   5.0367   5.0441   5.0524   5.0644
  5.0720   5.0781   5.1019   5.1086   5.1228   5.1267   5.1301   5.1383
  5.1415   5.1500   5.1714   5.1740   5.1903   5.1986   5.2206   5.2385
  5.2590   5.2642   5.2728   5.2835   5.2904   5.3022   5.3190   5.3295
  5.3324   5.3511   5.3567   5.3716   5.3789   5.3850   5.4045   5.4168
  5.4331   5.4493   5.4794   5.4840   5.4937   5.5022   5.5143   5.5156
  5.5183   5.5407   5.5472   5.5526   5.5593   5.5622   5.5676   5.5771
  5.5816   5.5859   5.5884   5.5896   5.6103   5.6178   5.6212   5.6331
  5.6498   5.6524   5.6614   5.6656   5.6672   5.6703   5.6945   5.6985
  5.7024   5.7115   5.7346   5.7416   5.7580   5.7587   5.7726   5.7771
  5.7867   5.7927   5.8039   5.8313   5.8446   5.8573   5.9011   5.9213
  5.9360   5.9576   5.9800   5.9912   6.0181   6.0213   6.0412   6.0465
  6.0483   6.0572   6.1049   6.1135   6.1240   6.1442   6.1468   6.1920
  6.2019   6.2207   6.2254   6.2265   6.2470   6.2608   6.2744   6.2842
  6.3103   6.3117   6.3248   6.3492   6.3667   6.3848   6.4207   6.4859
  6.5207   6.5359   6.5768   6.5836   6.6034   6.6212   6.6282   6.6606
  6.6723   6.6778   6.8506   6.8517   6.8902   6.9035   6.9073   6.9250
  6.9282   6.9711   7.1037   7.1141   7.1483   7.1966   7.2006   7.2373
  7.3485   7.3529   7.3591   7.3650   7.4764   7.5452   7.5719   7.5843
  7.5927   7.6178   7.6552   7.6850   7.6966   7.7188   8.8422  10.0284
 10.3320  11.3194  11.5211  11.7575  11.9964  12.1552  12.4115  12.4640
 12.9068  13.2086  13.3405  13.5536  13.7885  13.9374  14.1021  14.2763
 14.3142  14.3692  14.5203  14.5419  15.0251  15.6045  15.8210  16.3091
 --------------------------------------------------------------
 
          Ground-State Mulliken Net Atomic Charges

     Atom                 Charge (a.u.)
  ----------------------------------------
      1 C                    -0.084146
      2 C                    -0.031490
      3 C                    -0.114372
      4 C                    -0.119502
      5 H                     0.198339
      6 C                     0.009234
      7 C                     0.118821
      8 C                    -0.080791
      9 C                    -0.194451
     10 C                    -0.155582
     11 C                     0.227486
     12 H                     0.191883
     13 C                     0.342693
     14 C                     0.348011
     15 N                    -0.089643
     16 C                     0.355477
     17 C                     0.379445
     18 N                    -0.089736
     19 O                    -0.495767
     20 O                    -0.508263
     21 O                    -0.502462
     22 O                    -0.468199
     23 C                    -0.204942
     24 H                     0.139298
     25 H                     0.108812
     26 H                     0.108889
     27 C                    -0.197298
     28 H                     0.133353
     29 H                     0.110646
     30 H                     0.111169
     31 C                    -0.067639
     32 S                     0.024838
     33 C                    -0.182441
     34 C                    -0.165940
     35 C                    -0.213755
     36 H                     0.189870
     37 H                     0.189563
     38 H                     0.210762
     39 H                     0.136947
     40 H                     0.137050
     41 H                     0.193832
  ----------------------------------------
  Sum of atomic charges =     0.000000

 -----------------------------------------------------------------
                    Cartesian Multipole Moments
 -----------------------------------------------------------------
    Charge (ESU x 10^10)
                 0.0000
    Dipole Moment (Debye)
         X       2.0746      Y       2.4274      Z       0.5075
       Tot       3.2333
    Quadrupole Moments (Debye-Ang)
        XX    -184.8169     XY      -1.9259     YY    -182.6948
        XZ     -13.2169     YZ      -4.9439     ZZ    -164.1802
    Octopole Moments (Debye-Ang^2)
       XXX    -110.0131    XXY     579.5617    XYY      31.8032
       YYY    1706.8913    XXZ     -22.4789    XYZ      65.2859
       YYZ      14.0310    XZZ     -30.2879    YZZ     511.0420
       ZZZ     -77.6414
    Hexadecapole Moments (Debye-Ang^3)
      XXXX   -4890.4018   XXXY    -217.2261   XXYY   -4016.6917
      XYYY   -1090.6819   YYYY  -18085.4543   XXXZ   -1408.9909
      XXYZ      53.3303   XYYZ    -807.4520   YYYZ    -625.4289
      XXZZ   -1168.4704   XYZZ     -57.1865   YYZZ   -3109.0078
      XZZZ   -1309.2051   YZZZ    -187.4895   ZZZZ   -1930.0028
 -----------------------------------------------------------------
 Total job time:  313.93s(wall), 9153.73s(cpu) 
 Sun Sep 24 16:03:25 2023

        *************************************************************
        *                                                           *
        *  Thank you very much for using Q-Chem.  Have a nice day.  *
        *                                                           *
        *************************************************************


0 sent ACK to 0 
now end server 0 ... 
cleanup process ... done
remove work dirs ./qchem2306617.0 -- ./qchem2306617.0
rm -rf ./qchem2306617.0
rm -rf ./qchem2306617
