You are running Q-Chem version: 5.4.0

#
# job setting
#
local host:  exp-4-53
current dir: /expanse/lustre/projects/csd626/rramji/aromodel/PNDIT/Hydrogenated_Rotation_Test
input file:  Dimethyl_Naphthalene_Dicarboximide_Phi_15_Theta_160_Thiophene_Hydrogenated.qcin
output file: 
nprocs     : 1
nthreads   : 64
#
# qchem installation setting
#
QC:          /cm/shared/apps/spack/cpu/opt/spack/linux-centos8-zen2/gcc-10.2.0/qchem-5.4-akfmr7b3t57bfs6qan3padb2wnb2i7cl
QCAUX:       /cm/shared/apps/spack/cpu/opt/spack/linux-centos8-zen2/gcc-10.2.0/qchem-5.4-akfmr7b3t57bfs6qan3padb2wnb2i7cl/qcaux
QCPROG:      /cm/shared/apps/spack/cpu/opt/spack/linux-centos8-zen2/gcc-10.2.0/qchem-5.4-akfmr7b3t57bfs6qan3padb2wnb2i7cl/exe/qcprog.exe
QCPROG_S:    /cm/shared/apps/spack/cpu/opt/spack/linux-centos8-zen2/gcc-10.2.0/qchem-5.4-akfmr7b3t57bfs6qan3padb2wnb2i7cl/exe/qcprog.exe_s
PARALLEL:    -DPARALLEL
QCMPI:       mpich
#
# qchem directory setting
#
qcrun:       qchem1600144
QCSCRATCH:   .
QCLOCALSCR:  
QCTMPDIR:    .
QCFILEPREF:  ./qchem1600144
QCSAVEDIR:   
workdirs:    ./qchem1600144
workdir0:    ./qchem1600144
partmpdirs =  
#
# parallel setting
#
QCRSH:           ssh
QCMPI:           mpich
QCMPIRUN:        /cm/shared/apps/spack/cpu/opt/spack/linux-centos8-zen2/gcc-10.2.0/qchem-5.4-akfmr7b3t57bfs6qan3padb2wnb2i7cl/bin/mpi/mpirun_qchem
QCMACHINEFILE:   ./qchem1600144/hostfile
exp-4-53

#
# env setting
#
exported envs:   QC QCAUX QCSCRATCH QCRUNNAME QCFILEPREF QCPROG QCPROG_S GUIFILE

Running Job 1 of 1 Dimethyl_Naphthalene_Dicarboximide_Phi_15_Theta_160_Thiophene_Hydrogenated.qcin
qchem Dimethyl_Naphthalene_Dicarboximide_Phi_15_Theta_160_Thiophene_Hydrogenated.qcin_1600144.0 ./qchem1600144/ 1
/cm/shared/apps/spack/cpu/opt/spack/linux-centos8-zen2/gcc-10.2.0/qchem-5.4-akfmr7b3t57bfs6qan3padb2wnb2i7cl/bin/mpi/mpirun_qchem -machinefile ./qchem1600144/hostfile -np 1 /cm/shared/apps/spack/cpu/opt/spack/linux-centos8-zen2/gcc-10.2.0/qchem-5.4-akfmr7b3t57bfs6qan3padb2wnb2i7cl/exe/qcprog.exe Dimethyl_Naphthalene_Dicarboximide_Phi_15_Theta_160_Thiophene_Hydrogenated.qcin_1600144.0 ./qchem1600144/

Process 0 of 1 is on exp-4-53 - thread support 0
initial socket setup ...start
initial socket setup ...done 
now start server 0 ... 
                  Welcome to Q-Chem
     A Quantum Leap Into The Future Of Chemistry


 Q-Chem 5.4, Q-Chem, Inc., Pleasanton, CA (2021)

 License issued to: University of California, San Diego (site)

 E. Epifanovsky,  A. T. B. Gilbert,  Xintian Feng,  Joonho Lee,  Yuezhi Mao,  
 N. Mardirossian,  P. Pokhilko,  A. White,  M. Wormit,  M. P. Coons,  
 A. L. Dempwolff,  Zhengting Gan,  D. Hait,  P. R. Horn,  L. D. Jacobson,  
 I. Kaliman,  J. Kussmann,  A. W. Lange,  Ka Un Lao,  D. S. Levine,  Jie Liu,  
 S. C. McKenzie,  A. F. Morrison,  K. Nanda,  F. Plasser,  D. R. Rehn,  
 M. L. Vidal,  Zhi-Qiang You,  Ying Zhu,  B. Alam,  B. Albrecht,  
 A. Aldossary,  E. Alguire,  J. H. Andersen,  D. Barton,  K. Begam,  A. Behn,  
 Y. A. Bernard,  E. J. Berquist,  H. Burton,  A. Carreras,  K. Carter-Fenk,  
 R. Chakraborty,  A. D. Chien,  K. D. Closser,  V. Cofer-Shabica,  
 S. Dasgupta,  Jia Deng,  M. de Wergifosse,  M. Diedenhofen,  Hainam Do,  
 S. Ehlert,  Po-Tung Fang,  S. Fatehi,  Qingguo Feng,  J. Gayvert,  
 Qinghui Ge,  G. Gidofalvi,  M. Goldey,  J. Gomes,  C. Gonzalez-Espinoza,  
 S. Gulania,  A. Gunina,  M. W. D. Hanson-Heine,  P. H. P. Harbach,  
 A. W. Hauser,  M. F. Herbst,  M. Hernandez Vera,  M. Hodecker,  
 Z. C. Holden,  S. Houck,  Xunkun Huang,  Kerwin Hui,  B. C. Huynh,  
 M. Ivanov,  Hyunjun Ji,  Hanjie Jiang,  B. Kaduk,  S. Kaehler,  
 K. Khistyaev,  Jaehoon Kim,  P. Klunzinger,  Z. Koczor-Benda,  
 Joong Hoon Koh,  D. Kosenkov,  L. Koulias,  T. Kowalczyk,  C. M. Krauter,  
 K. Kue,  A. Kunitsa,  T. Kus,  A. Landau,  K. V. Lawler,  D. Lefrancois,  
 S. Lehtola,  Rain Li,  Yi-Pei Li,  Jiashu Liang,  M. Liebenthal,  
 Hung-Hsuan Lin,  You-Sheng Lin,  Fenglai Liu,  Kuan-Yu Liu,  
 M. Loipersberger,  A. Luenser,  A. Manjanath,  P. Manohar,  E. Mansoor,  
 S. F. Manzer,  Shan-Ping Mao,  A. V. Marenich,  T. Markovich,  S. Mason,  
 S. A. Maurer,  P. F. McLaughlin,  M. F. S. J. Menger,  J.-M. Mewes,  
 S. A. Mewes,  P. Morgante,  J. W. Mullinax,  T. S. Nguyen-Beck,  
 K. J. Oosterbaan,  G. Paran,  Alexander C. Paul,  Suranjan K. Paul,  
 F. Pavosevic,  Zheng Pei,  S. Prager,  E. I. Proynov,  E. Ramos,  B. Rana,  
 A. E. Rask,  A. Rettig,  R. M. Richard,  F. Rob,  E. Rossomme,  T. Scheele,  
 M. Scheurer,  M. Schneider,  N. Sergueev,  S. M. Sharada,  W. Skomorowski,  
 D. W. Small,  C. J. Stein,  Yu-Chuan Su,  E. J. Sundstrom,  Zhen Tao,  
 J. Thirman,  T. Tsuchimochi,  N. M. Tubman,  S. P. Veccham,  O. Vydrov,  
 J. Wenzel,  J. Witte,  A. Yamada,  Kun Yao,  S. Yeganeh,  S. R. Yost,  
 A. Zech,  Igor Ying Zhang,  Xing Zhang,  Yu Zhang,  D. Zuev,  
 A. Aspuru-Guzik,  A. T. Bell,  N. A. Besley,  K. B. Bravaya,  B. R. Brooks,  
 D. Casanova,  Jeng-Da Chai,  S. Coriani,  C. J. Cramer,  
 A. E. DePrince, III,  R. A. DiStasio Jr.,  A. Dreuw,  B. D. Dunietz,  
 T. R. Furlani,  W. A. Goddard III,  S. Grimme,  S. Hammes-Schiffer,  
 T. Head-Gordon,  W. J. Hehre,  Chao-Ping Hsu,  T.-C. Jagau,  Yousung Jung,  
 A. Klamt,  Jing Kong,  D. S. Lambrecht,  WanZhen Liang,  N. J. Mayhall,  
 C. W. McCurdy,  J. B. Neaton,  C. Ochsenfeld,  J. A. Parkhill,  R. Peverati,  
 V. A. Rassolov,  Yihan Shao,  L. V. Slipchenko,  T. Stauch,  R. P. Steele,  
 J. E. Subotnik,  A. J. W. Thom,  A. Tkatchenko,  D. G. Truhlar,  
 T. Van Voorhis,  T. A. Wesolowski,  K. B. Whaley,  H. L. Woodcock III,  
 P. M. Zimmerman,  S. Faraji,  P. M. W. Gill,  M. Head-Gordon,  
 J. M. Herbert,  A. I. Krylov

 Contributors to earlier versions of Q-Chem not listed above: 
 R. D. Adamson,  B. Austin,  R. Baer,  J. Baker,  G. J. O. Beran,  
 K. Brandhorst,  S. T. Brown,  E. F. C. Byrd,  A. K. Chakraborty,  
 G. K. L. Chan,  Chun-Min Chang,  Yunqing Chen,  C.-L. Cheng,  
 Siu Hung Chien,  D. M. Chipman,  D. L. Crittenden,  H. Dachsel,  
 R. J. Doerksen,  A. D. Dutoi,  R. G. Edgar,  J. Fosso-Tande,  
 L. Fusti-Molnar,  D. Ghosh,  A. Ghysels,  A. Golubeva-Zadorozhnaya,  
 J. Gonthier,  M. S. Gordon,  S. R. Gwaltney,  G. Hawkins,  J. E. Herr,  
 A. Heyden,  S. Hirata,  E. G. Hohenstein,  G. Kedziora,  F. J. Keil,  
 C. Kelley,  Jihan Kim,  R. A. King,  R. Z. Khaliullin,  P. P. Korambath,  
 W. Kurlancheek,  A. Laurent,  A. M. Lee,  M. S. Lee,  S. V. Levchenko,  
 Ching Yeh Lin,  D. Liotard,  E. Livshits,  R. C. Lochan,  I. Lotan,  
 L. A. Martinez-Martinez,  P. E. Maslen,  N. Nair,  D. P. O'Neill,  
 D. Neuhauser,  E. Neuscamman,  C. M. Oana,  R. Olivares-Amaya,  R. Olson,  
 T. M. Perrine,  B. Peters,  P. A. Pieniazek,  A. Prociuk,  Y. M. Rhee,  
 J. Ritchie,  M. A. Rohrdanz,  E. Rosta,  N. J. Russ,  H. F. Schaefer III,  
 M. W. Schmidt,  N. E. Schultz,  S. Sharma,  N. Shenvi,  C. D. Sherrill,  
 A. C. Simmonett,  A. Sodt,  T. Stein,  D. Stuck,  K. S. Thanthiriwatte,  
 V. Vanovschi,  L. Vogt,  Tao Wang,  A. Warshel,  M. A. Watson,  
 C. F. Williams,  Q. Wu,  X. Xu,  Jun Yang,  W. Zhang,  Yan Zhao

 Please cite Q-Chem as follows:
 Y. Shao et al., Mol. Phys. 113, 184-215 (2015)
 DOI: 10.1080/00268976.2014.952696

 Q-Chem 5.4.0 for Intel X86 EM64T Linux

 Parts of Q-Chem use Armadillo 9.800.1 (Horizon Scraper).
 http://arma.sourceforge.net/

 Q-Chem begins on Tue Sep 26 23:15:40 2023  

 Host: 
0

     Scratch files written to ./qchem1600144//
 May1621 |scratch|qcdevops|jenkins|workspace|build_RNUM    
 Parallel job on  1  processors
 Processing $rem in /cm/shared/apps/spack/cpu/opt/spack/linux-centos8-zen2/gcc-10.2.0/qchem-5.4-akfmr7b3t57bfs6qan3padb2wnb2i7cl/config/preferences:
 Processing $rem in /home/rramji/.qchemrc:
 Symmetry turned off for PCM/SM12/SMD calculation
 Core orbitals will be frozen

 Checking the input file for inconsistencies... 	...done.

 Q-Chem warning in module forms1/BasisType.C, line 2236:

 You are not using the predefined 5D/6D in this basis set.


--------------------------------------------------------------
User input:
--------------------------------------------------------------
$molecule
0 1
C	0.089263	-6.741404	0.240927
C	0.535973	-6.155638	1.467886
C	-0.281103	-5.791452	-0.777972
C	0.631036	-4.803786	1.729742
H	0.836458	-6.821518	2.292903
C	-0.181995	-4.378638	-0.503614
C	0.272725	-3.838032	0.746756
C	-0.539954	-3.413062	-1.485437
C	0.371053	-2.426473	1.018915
C	-0.446381	-2.059348	-1.226557
C	0.000000	-1.478216	0.000000
H	-0.747410	-1.394783	-2.052413
C	-0.772747	-6.187987	-2.134128
C	-1.029154	-3.798164	-2.829820
N	-1.110828	-5.170003	-3.059182
C	1.121728	-4.424987	3.077731
C	0.864069	-2.036627	2.375694
N	1.201928	-3.049156	3.301101
O	-0.903908	-7.353131	-2.502830
O	-1.345809	-2.986854	-3.697078
O	1.434422	-5.248946	3.934752
O	1.003943	-0.878829	2.764177
C	-1.592981	-5.563799	-4.386939
H	-1.607367	-6.664085	-4.429822
H	-0.924504	-5.147101	-5.164489
H	-2.605446	-5.148785	-4.553486
C	1.677308	-2.587487	4.608481
H	1.898089	-3.483329	5.211969
H	0.902337	-1.964972	5.094624
H	2.582098	-1.962932	4.483092
C	0.000000	0.000000	0.000000
S	0.205093	0.766196	1.580530
C	0.628939	2.348114	0.904911
C	0.258137	0.964028	-0.985400
C	0.599745	2.239309	-0.493528
H	0.197169	0.736404	-2.059934
H	0.827678	3.090243	-1.152593
H	0.856796	3.198808	1.556025
H	-0.791434	-7.361589	0.447559
H	0.897345	-7.361192	-0.166282
H	-1.015049	-1.478831	0.368883
$end

$rem
JOBTYPE		SP
EXCHANGE	HF
CORRELATION	pRIMP2
BASIS		cc-pvtz
METHOD		rimp2
AUX_BASIS	rimp2-cc-pvtz
SOLVENT_METHOD	PCM
PURECART	11111
SYMMETRY	false
MEM_TOTAL	110000
SCF_CONVERGENCE = 6
THRESH=10
GUI = 2
$end



$solvent
dielectric 4.90
$end
--------------------------------------------------------------
 ----------------------------------------------------------------
             Standard Nuclear Orientation (Angstroms)
    I     Atom           X                Y                Z
 ----------------------------------------------------------------
    1      C       0.0892630000    -6.7414040000     0.2409270000
    2      C       0.5359730000    -6.1556380000     1.4678860000
    3      C      -0.2811030000    -5.7914520000    -0.7779720000
    4      C       0.6310360000    -4.8037860000     1.7297420000
    5      H       0.8364580000    -6.8215180000     2.2929030000
    6      C      -0.1819950000    -4.3786380000    -0.5036140000
    7      C       0.2727250000    -3.8380320000     0.7467560000
    8      C      -0.5399540000    -3.4130620000    -1.4854370000
    9      C       0.3710530000    -2.4264730000     1.0189150000
   10      C      -0.4463810000    -2.0593480000    -1.2265570000
   11      C       0.0000000000    -1.4782160000     0.0000000000
   12      H      -0.7474100000    -1.3947830000    -2.0524130000
   13      C      -0.7727470000    -6.1879870000    -2.1341280000
   14      C      -1.0291540000    -3.7981640000    -2.8298200000
   15      N      -1.1108280000    -5.1700030000    -3.0591820000
   16      C       1.1217280000    -4.4249870000     3.0777310000
   17      C       0.8640690000    -2.0366270000     2.3756940000
   18      N       1.2019280000    -3.0491560000     3.3011010000
   19      O      -0.9039080000    -7.3531310000    -2.5028300000
   20      O      -1.3458090000    -2.9868540000    -3.6970780000
   21      O       1.4344220000    -5.2489460000     3.9347520000
   22      O       1.0039430000    -0.8788290000     2.7641770000
   23      C      -1.5929810000    -5.5637990000    -4.3869390000
   24      H      -1.6073670000    -6.6640850000    -4.4298220000
   25      H      -0.9245040000    -5.1471010000    -5.1644890000
   26      H      -2.6054460000    -5.1487850000    -4.5534860000
   27      C       1.6773080000    -2.5874870000     4.6084810000
   28      H       1.8980890000    -3.4833290000     5.2119690000
   29      H       0.9023370000    -1.9649720000     5.0946240000
   30      H       2.5820980000    -1.9629320000     4.4830920000
   31      C       0.0000000000     0.0000000000     0.0000000000
   32      S       0.2050930000     0.7661960000     1.5805300000
   33      C       0.6289390000     2.3481140000     0.9049110000
   34      C       0.2581370000     0.9640280000    -0.9854000000
   35      C       0.5997450000     2.2393090000    -0.4935280000
   36      H       0.1971690000     0.7364040000    -2.0599340000
   37      H       0.8276780000     3.0902430000    -1.1525930000
   38      H       0.8567960000     3.1988080000     1.5560250000
   39      H      -0.7914340000    -7.3615890000     0.4475590000
   40      H       0.8973450000    -7.3611920000    -0.1662820000
   41      H      -1.0150490000    -1.4788310000     0.3688830000
 ----------------------------------------------------------------
 Nuclear Repulsion Energy =        2571.42344266 hartrees
 There are       98 alpha and       98 beta electrons
 Requested basis set is cc-pVTZ
 There are 356 shells and 1010 basis functions

 Total QAlloc Memory Limit 110000 MB
 Mega-Array Size       188 MB
 MEM_STATIC part       192 MB
 Discretize the solute cavity surface with Lebedev spheres
	Using 110 Lebedev grid points for each H atom
	Using 194 Lebedev grid points for other atoms
	Atomic van der Waals radii will be scaled by 1.20
 Remove points where switching function is < 1.0e-08
 Keep 2578 surface tesserae and discard 4200 interior tesserae
 Molecular Surface Area = 361.085 Angst**2
 Requested basis set is rimp2-cc-pVTZ
 There are 770 shells and 2648 basis functions
 A cutoff of  1.0D-10 yielded  34255 shell pairs
 There are    259071 function pairs (    335229 Cartesian)
 Smallest overlap matrix eigenvalue = 9.22E-06

 Q-Chem warning in module stvman/mkSTV.C, line 323:

 Overlap eigenvalue is smaller than square root of threshold
 Use THRESH >= 12 to get rid of this warning


 Scale SEOQF with 1.000000e-01/1.000000e-02/1.000000e-01

 Standard Electronic Orientation quadrupole field applied
 Nucleus-field energy     =    -0.0000000970 hartrees
 Guess from superposition of atomic densities
 Warning:  Energy on first SCF cycle will be non-variational
 SAD guess density has 196.000000 electrons

 -----------------------------------------------------------------------
  General SCF calculation program by
  Eric Jon Sundstrom, Paul Horn, Yuezhi Mao, Dmitri Zuev, Alec White,
  David Stuck, Shaama M.S., Shane Yost, Joonho Lee, David Small,
  Daniel Levine, Susi Lehtola, Hugh Burton, Evgeny Epifanovsky,
  Bang C. Huynh
 -----------------------------------------------------------------------
 Hartree-Fock
 using 64 threads for integral computing
 -------------------------------------------------------
 OpenMP Integral computing Module                
 Release: version 1.0, May 2013, Q-Chem Inc. Pittsburgh 
 -------------------------------------------------------
 A restricted SCF calculation will be
 performed using DIIS
 SCF converges when DIIS error is below 1.0e-06
 ---------------------------------------
  Cycle       Energy         DIIS error
 ---------------------------------------
    1   -1583.2547199384      1.87e-02  
    2   -1571.1084335770      2.03e-03  
    3   -1571.4471903772      1.54e-03  
    4   -1571.6685822396      2.56e-04  
    5   -1571.6824697062      7.93e-05  
    6   -1571.6839045208      3.09e-05  
    7   -1571.6843395727      1.63e-05  
    8   -1571.6844687758      6.70e-06  
    9   -1571.6844931761      3.10e-06  
   10   -1571.6844982358      1.31e-06  
   11   -1571.6844997388      6.05e-07  Convergence criterion met
 ---------------------------------------
 SCF time:   CPU 6698.34s  wall 265.00s 

************** Final PCM Free Energy Summary **************
 G_electrostatic  =      -0.02894719 hartree =     -18.16463498 kcal/mol
 G_cavitation     =       0.00000000 hartree =       0.00000000 kcal/mol
 G_dispersion     =       0.00000000 hartree =       0.00000000 kcal/mol
 G_repulsion      =       0.00000000 hartree =       0.00000000 kcal/mol
 --------------------------------------------------
 Non-electrostatic Free Energy =       0.00000000 hartree =       0.00000000 kcal/mol
 Total                         =      -0.02894719 hartree =     -18.16463498 kcal/mol
 --------------------------------------------------
 SCF Energy (H0 + V/2)                       =   -1571.68449974 
 Solute Internal Energy (H0)                 =   -1571.65555255 
 Total Free Energy (H0 + V/2 + non-elec)     =   -1571.68449974 hartree
                                             = -986246.90901002 kcal/mol
***********************************************************

 SCF   energy in the final basis set =    -1571.6844997388
 Total energy in the final basis set =    -1571.6844997388


 --------------------------------------------------------------
  Generalized many-body perturbation theory program
  by Joonho Lee, Fazle Rob, Xintian Feng, Evgeny Epifanovsky

 No regularization used 
 (reg. param. = 0.0000e+00)
  (P|Q)^-1/2 Time:  CPU 256.10 s  wall 4.22 s

 In RI-MP2 calculation: 
 # of frozen core orbitals: 31

 Components of the RIMP2 correlation energy:
        aaaa    correlation energy =        -0.6190924867 a.u.
        abab    correlation energy =        -3.4339145786 a.u.
        bbbb    correlation energy =        -0.6190924867 a.u.
        non-Brillouin singles      =        -0.0000000000 a.u.
        total same-spin energy     =        -1.2381849734 a.u.
        total opposite-spin energy =        -3.4339145786 a.u.

 Total  RIMP2   correlation energy =        -4.6720995520 a.u.
        RIMP2         total energy =     -1576.3565992908 a.u.

 RI-MP2 Energy Time:  CPU 2015.29 s  wall 35.05 s
 
 --------------------------------------------------------------
 
                    Orbital Energies (a.u.)
 --------------------------------------------------------------
 
 Alpha MOs
 -- Occupied --
-91.9720 -20.5545 -20.5468 -20.5423 -20.5412 -15.6310 -15.6220 -11.4010
-11.3875 -11.3842 -11.3798 -11.3123 -11.3095 -11.3088 -11.3060 -11.2992
-11.2898 -11.2879 -11.2703 -11.2702 -11.2660 -11.2652 -11.2613 -11.2599
-11.2541 -11.2450 -11.2343  -8.9723  -6.6528  -6.6516  -6.6507  -1.4321
 -1.4129  -1.4032  -1.3920  -1.2679  -1.2563  -1.2310  -1.1847  -1.1454
 -1.1157  -1.0862  -1.0491  -0.9942  -0.9894  -0.9750  -0.9565  -0.9475
 -0.8985  -0.8906  -0.8797  -0.8630  -0.7914  -0.7814  -0.7757  -0.7592
 -0.7305  -0.7255  -0.7012  -0.6904  -0.6882  -0.6737  -0.6688  -0.6591
 -0.6514  -0.6444  -0.6384  -0.6331  -0.6325  -0.6318  -0.6241  -0.6059
 -0.5893  -0.5718  -0.5661  -0.5631  -0.5562  -0.5536  -0.5532  -0.5494
 -0.5484  -0.5455  -0.5196  -0.5144  -0.5120  -0.4874  -0.4782  -0.4637
 -0.4559  -0.4446  -0.4381  -0.4218  -0.4084  -0.4000  -0.3551  -0.3266
 -0.3196  -0.2773
 -- Virtual --
  0.0107   0.0411   0.0898   0.1056   0.1405   0.1501   0.1580   0.1586
  0.1635   0.1731   0.1776   0.1824   0.1881   0.1941   0.2005   0.2035
  0.2168   0.2217   0.2277   0.2293   0.2307   0.2357   0.2513   0.2582
  0.2635   0.2721   0.3023   0.3123   0.3181   0.3216   0.3275   0.3295
  0.3385   0.3421   0.3457   0.3533   0.3554   0.3614   0.3637   0.3687
  0.3711   0.3783   0.3872   0.3899   0.3946   0.4025   0.4057   0.4078
  0.4200   0.4232   0.4279   0.4338   0.4381   0.4439   0.4481   0.4530
  0.4567   0.4585   0.4648   0.4731   0.4764   0.4849   0.4882   0.4921
  0.4985   0.5031   0.5087   0.5113   0.5131   0.5177   0.5216   0.5296
  0.5388   0.5439   0.5469   0.5494   0.5553   0.5580   0.5653   0.5669
  0.5681   0.5743   0.5830   0.5890   0.5905   0.5937   0.5990   0.6021
  0.6041   0.6057   0.6097   0.6134   0.6157   0.6175   0.6221   0.6244
  0.6258   0.6295   0.6344   0.6357   0.6418   0.6434   0.6507   0.6601
  0.6661   0.6726   0.6763   0.6832   0.6857   0.6941   0.6993   0.7003
  0.7134   0.7247   0.7339   0.7372   0.7388   0.7400   0.7534   0.7608
  0.7671   0.7707   0.7731   0.7817   0.7937   0.7993   0.8018   0.8064
  0.8114   0.8184   0.8237   0.8284   0.8346   0.8419   0.8451   0.8518
  0.8577   0.8613   0.8643   0.8696   0.8758   0.8790   0.8832   0.8909
  0.8984   0.9014   0.9088   0.9130   0.9169   0.9250   0.9274   0.9317
  0.9358   0.9429   0.9527   0.9561   0.9601   0.9666   0.9704   0.9749
  0.9856   0.9878   0.9937   0.9977   0.9998   1.0087   1.0188   1.0242
  1.0254   1.0308   1.0372   1.0393   1.0510   1.0604   1.0621   1.0685
  1.0696   1.0735   1.0774   1.0809   1.0910   1.0989   1.1065   1.1069
  1.1134   1.1165   1.1231   1.1248   1.1316   1.1353   1.1389   1.1451
  1.1453   1.1598   1.1631   1.1701   1.1712   1.1767   1.1796   1.1887
  1.1962   1.1998   1.2036   1.2037   1.2075   1.2171   1.2241   1.2291
  1.2347   1.2376   1.2381   1.2498   1.2564   1.2605   1.2692   1.2701
  1.2764   1.2812   1.2977   1.3046   1.3174   1.3212   1.3307   1.3363
  1.3432   1.3502   1.3604   1.3662   1.3715   1.3761   1.3830   1.3866
  1.3906   1.3920   1.4008   1.4086   1.4173   1.4275   1.4406   1.4438
  1.4585   1.4624   1.4627   1.4680   1.4776   1.4798   1.4876   1.5020
  1.5048   1.5086   1.5135   1.5191   1.5266   1.5304   1.5348   1.5406
  1.5486   1.5531   1.5581   1.5609   1.5635   1.5707   1.5728   1.5840
  1.5872   1.5903   1.6014   1.6075   1.6204   1.6282   1.6381   1.6458
  1.6553   1.6594   1.6637   1.6763   1.6807   1.6886   1.6935   1.6986
  1.7108   1.7229   1.7269   1.7321   1.7406   1.7424   1.7511   1.7536
  1.7577   1.7649   1.7777   1.7808   1.7942   1.7970   1.8112   1.8130
  1.8202   1.8353   1.8363   1.8514   1.8550   1.8623   1.8658   1.8690
  1.8709   1.8842   1.8945   1.9045   1.9097   1.9273   1.9378   1.9418
  1.9533   1.9618   1.9700   1.9754   1.9890   1.9965   2.0199   2.0278
  2.0372   2.0557   2.0753   2.0939   2.0991   2.1048   2.1270   2.1370
  2.1440   2.1606   2.1720   2.1785   2.1867   2.2116   2.2301   2.2326
  2.2362   2.2512   2.2689   2.2868   2.2898   2.2934   2.3052   2.3159
  2.3195   2.3296   2.3461   2.3491   2.3641   2.3652   2.3811   2.3877
  2.4245   2.4390   2.4420   2.4531   2.4548   2.4645   2.4722   2.4782
  2.4853   2.4929   2.5044   2.5164   2.5296   2.5346   2.5570   2.5622
  2.5668   2.5731   2.5829   2.5845   2.5924   2.6044   2.6183   2.6248
  2.6274   2.6388   2.6410   2.6512   2.6567   2.6698   2.6762   2.6823
  2.6851   2.6912   2.7139   2.7180   2.7248   2.7305   2.7362   2.7411
  2.7461   2.7495   2.7591   2.7604   2.7705   2.7768   2.7860   2.7997
  2.8127   2.8270   2.8319   2.8397   2.8471   2.8570   2.8681   2.8784
  2.8833   2.8849   2.8866   2.8886   2.8952   2.9070   2.9101   2.9167
  2.9208   2.9254   2.9301   2.9473   2.9487   2.9569   2.9645   2.9668
  2.9804   2.9840   2.9912   3.0033   3.0178   3.0189   3.0230   3.0275
  3.0369   3.0449   3.0529   3.0580   3.0635   3.0732   3.0782   3.0814
  3.0958   3.0979   3.1032   3.1035   3.1079   3.1142   3.1219   3.1244
  3.1292   3.1363   3.1504   3.1580   3.1616   3.1632   3.1677   3.1789
  3.1815   3.1929   3.1984   3.2030   3.2103   3.2144   3.2244   3.2282
  3.2329   3.2338   3.2421   3.2461   3.2538   3.2607   3.2625   3.2644
  3.2747   3.2756   3.2831   3.2843   3.2880   3.2997   3.3006   3.3102
  3.3147   3.3168   3.3225   3.3296   3.3307   3.3318   3.3360   3.3399
  3.3457   3.3493   3.3513   3.3561   3.3640   3.3686   3.3693   3.3738
  3.3796   3.3816   3.3926   3.3969   3.4030   3.4044   3.4099   3.4153
  3.4196   3.4226   3.4281   3.4335   3.4388   3.4454   3.4523   3.4548
  3.4584   3.4630   3.4698   3.4731   3.4755   3.4794   3.4857   3.4882
  3.5026   3.5058   3.5087   3.5154   3.5175   3.5192   3.5239   3.5273
  3.5339   3.5431   3.5516   3.5538   3.5630   3.5719   3.5741   3.5844
  3.5884   3.5891   3.5946   3.6045   3.6063   3.6152   3.6254   3.6294
  3.6340   3.6360   3.6435   3.6464   3.6507   3.6535   3.6607   3.6614
  3.6704   3.6788   3.6857   3.6905   3.6961   3.6992   3.7075   3.7200
  3.7254   3.7297   3.7360   3.7378   3.7420   3.7458   3.7488   3.7578
  3.7593   3.7652   3.7679   3.7749   3.7790   3.7851   3.7958   3.8064
  3.8074   3.8137   3.8224   3.8233   3.8284   3.8314   3.8367   3.8447
  3.8480   3.8551   3.8610   3.8681   3.8743   3.8846   3.8912   3.9055
  3.9150   3.9194   3.9281   3.9317   3.9395   3.9485   3.9524   3.9565
  3.9607   3.9656   3.9728   3.9763   3.9920   3.9962   4.0030   4.0156
  4.0215   4.0265   4.0351   4.0437   4.0577   4.0614   4.0663   4.0742
  4.0898   4.1112   4.1149   4.1166   4.1227   4.1301   4.1395   4.1414
  4.1490   4.1588   4.1669   4.1684   4.1762   4.1826   4.1922   4.2093
  4.2108   4.2226   4.2321   4.2369   4.2394   4.2458   4.2523   4.2592
  4.2677   4.2762   4.2795   4.2813   4.2902   4.2981   4.3011   4.3116
  4.3171   4.3174   4.3261   4.3324   4.3354   4.3358   4.3443   4.3581
  4.3666   4.3681   4.3691   4.3786   4.3797   4.3865   4.3922   4.3963
  4.4037   4.4084   4.4161   4.4214   4.4274   4.4377   4.4425   4.4550
  4.4651   4.4737   4.4935   4.5029   4.5117   4.5207   4.5250   4.5350
  4.5380   4.5413   4.5510   4.5583   4.5676   4.5759   4.5821   4.5865
  4.5934   4.5971   4.6028   4.6166   4.6180   4.6243   4.6271   4.6389
  4.6502   4.6564   4.6688   4.6776   4.6904   4.6947   4.7026   4.7064
  4.7113   4.7343   4.7416   4.7715   4.7815   4.7861   4.7938   4.8071
  4.8170   4.8221   4.8315   4.8408   4.8472   4.8562   4.8781   4.8866
  4.8913   4.8977   4.9124   4.9209   4.9374   4.9427   4.9574   4.9732
  4.9883   5.0109   5.0203   5.0260   5.0329   5.0414   5.0514   5.0759
  5.0780   5.0965   5.1017   5.1100   5.1207   5.1306   5.1324   5.1415
  5.1444   5.1597   5.1727   5.1823   5.1896   5.2002   5.2029   5.2295
  5.2592   5.2638   5.2704   5.2841   5.2999   5.3136   5.3274   5.3292
  5.3355   5.3466   5.3565   5.3681   5.3769   5.3784   5.4014   5.4145
  5.4401   5.4516   5.4685   5.4880   5.4963   5.5113   5.5130   5.5167
  5.5272   5.5348   5.5435   5.5557   5.5559   5.5660   5.5693   5.5717
  5.5790   5.5843   5.5860   5.6067   5.6086   5.6199   5.6273   5.6302
  5.6475   5.6520   5.6592   5.6625   5.6657   5.6722   5.6926   5.6963
  5.7067   5.7069   5.7333   5.7418   5.7586   5.7627   5.7642   5.7752
  5.7822   5.7945   5.8120   5.8298   5.8477   5.8561   5.9005   5.9250
  5.9365   5.9599   5.9707   5.9918   6.0251   6.0340   6.0413   6.0492
  6.0740   6.0908   6.1024   6.1098   6.1208   6.1583   6.1765   6.1916
  6.2023   6.2189   6.2251   6.2254   6.2587   6.2750   6.2818   6.2888
  6.3013   6.3152   6.3286   6.3553   6.3681   6.3802   6.4595   6.4872
  6.5223   6.5373   6.5692   6.5819   6.6069   6.6315   6.6547   6.6617
  6.6729   6.6968   6.8499   6.8520   6.8898   6.9014   6.9050   6.9247
  6.9266   6.9857   7.1044   7.1349   7.1601   7.1938   7.2175   7.2824
  7.3462   7.3509   7.3572   7.3614   7.4752   7.5414   7.5709   7.5830
  7.5925   7.6396   7.6544   7.6890   7.7018   7.7436   8.8886  10.1190
 10.3278  11.2781  11.5257  11.7702  12.0445  12.1375  12.4372  12.4996
 12.9404  13.2721  13.3674  13.5634  13.8047  13.9317  14.1195  14.3105
 14.3418  14.3869  14.5542  14.6658  15.0338  15.6187  15.8331  16.2887
 --------------------------------------------------------------
 
          Ground-State Mulliken Net Atomic Charges

     Atom                 Charge (a.u.)
  ----------------------------------------
      1 C                    -0.084288
      2 C                    -0.027684
      3 C                    -0.109477
      4 C                    -0.123351
      5 H                     0.199787
      6 C                     0.023299
      7 C                     0.123323
      8 C                    -0.105577
      9 C                    -0.217377
     10 C                    -0.134152
     11 C                     0.229471
     12 H                     0.195388
     13 C                     0.342808
     14 C                     0.350112
     15 N                    -0.090160
     16 C                     0.358521
     17 C                     0.402204
     18 N                    -0.089566
     19 O                    -0.494188
     20 O                    -0.507475
     21 O                    -0.499351
     22 O                    -0.443068
     23 C                    -0.204711
     24 H                     0.139570
     25 H                     0.109458
     26 H                     0.109251
     27 C                    -0.199216
     28 H                     0.134939
     29 H                     0.112749
     30 H                     0.113117
     31 C                    -0.080881
     32 S                     0.066878
     33 C                    -0.236667
     34 C                    -0.166761
     35 C                    -0.250742
     36 H                     0.180867
     37 H                     0.180295
     38 H                     0.203219
     39 H                     0.138544
     40 H                     0.138830
     41 H                     0.212060
  ----------------------------------------
  Sum of atomic charges =     0.000000

 -----------------------------------------------------------------
                    Cartesian Multipole Moments
 -----------------------------------------------------------------
    Charge (ESU x 10^10)
                 0.0000
    Dipole Moment (Debye)
         X       0.3136      Y       0.3456      Z       1.6556
       Tot       1.7201
    Quadrupole Moments (Debye-Ang)
        XX    -165.5821     XY       0.0503     YY    -178.7416
        XZ      -9.0119     YZ      -9.3577     ZZ    -182.5818
    Octopole Moments (Debye-Ang^2)
       XXX     -53.9741    XXY     473.9233    XYY      11.6846
       YYY    1663.8371    XXZ     -28.9308    XYZ      45.0742
       YYZ      36.8622    XZZ     -11.2134    YZZ     586.8967
       ZZZ     -87.8331
    Hexadecapole Moments (Debye-Ang^3)
      XXXX    -911.0408   XXXY    -189.1516   XXYY   -2851.4496
      XYYY    -441.2944   YYYY  -17965.9467   XXXZ    -947.1171
      XXYZ    -100.4284   XYYZ    -587.4397   YYYZ   -1156.2363
      XXZZ   -1116.5338   XYZZ      40.2447   YYZZ   -4272.3230
      XZZZ   -1041.0030   YZZZ    -135.7082   ZZZZ   -5831.1639
 -----------------------------------------------------------------
 Total job time:  306.20s(wall), 8943.14s(cpu) 
 Tue Sep 26 23:20:47 2023

        *************************************************************
        *                                                           *
        *  Thank you very much for using Q-Chem.  Have a nice day.  *
        *                                                           *
        *************************************************************


0 sent ACK to 0 
now end server 0 ... 
cleanup process ... done
remove work dirs ./qchem1600144.0 -- ./qchem1600144.0
rm -rf ./qchem1600144.0
rm -rf ./qchem1600144
