You are running Q-Chem version: 5.4.0

#
# job setting
#
local host:  exp-4-53
current dir: /expanse/lustre/projects/csd626/rramji/aromodel/PNDIT/Hydrogenated_Rotation_Test
input file:  Dimethyl_Naphthalene_Dicarboximide_Phi_15_Theta_190_Thiophene_Hydrogenated.qcin
output file: 
nprocs     : 1
nthreads   : 64
#
# qchem installation setting
#
QC:          /cm/shared/apps/spack/cpu/opt/spack/linux-centos8-zen2/gcc-10.2.0/qchem-5.4-akfmr7b3t57bfs6qan3padb2wnb2i7cl
QCAUX:       /cm/shared/apps/spack/cpu/opt/spack/linux-centos8-zen2/gcc-10.2.0/qchem-5.4-akfmr7b3t57bfs6qan3padb2wnb2i7cl/qcaux
QCPROG:      /cm/shared/apps/spack/cpu/opt/spack/linux-centos8-zen2/gcc-10.2.0/qchem-5.4-akfmr7b3t57bfs6qan3padb2wnb2i7cl/exe/qcprog.exe
QCPROG_S:    /cm/shared/apps/spack/cpu/opt/spack/linux-centos8-zen2/gcc-10.2.0/qchem-5.4-akfmr7b3t57bfs6qan3padb2wnb2i7cl/exe/qcprog.exe_s
PARALLEL:    -DPARALLEL
QCMPI:       mpich
#
# qchem directory setting
#
qcrun:       qchem1603184
QCSCRATCH:   .
QCLOCALSCR:  
QCTMPDIR:    .
QCFILEPREF:  ./qchem1603184
QCSAVEDIR:   
workdirs:    ./qchem1603184
workdir0:    ./qchem1603184
partmpdirs =  
#
# parallel setting
#
QCRSH:           ssh
QCMPI:           mpich
QCMPIRUN:        /cm/shared/apps/spack/cpu/opt/spack/linux-centos8-zen2/gcc-10.2.0/qchem-5.4-akfmr7b3t57bfs6qan3padb2wnb2i7cl/bin/mpi/mpirun_qchem
QCMACHINEFILE:   ./qchem1603184/hostfile
exp-4-53

#
# env setting
#
exported envs:   QC QCAUX QCSCRATCH QCRUNNAME QCFILEPREF QCPROG QCPROG_S GUIFILE

Running Job 1 of 1 Dimethyl_Naphthalene_Dicarboximide_Phi_15_Theta_190_Thiophene_Hydrogenated.qcin
qchem Dimethyl_Naphthalene_Dicarboximide_Phi_15_Theta_190_Thiophene_Hydrogenated.qcin_1603184.0 ./qchem1603184/ 1
/cm/shared/apps/spack/cpu/opt/spack/linux-centos8-zen2/gcc-10.2.0/qchem-5.4-akfmr7b3t57bfs6qan3padb2wnb2i7cl/bin/mpi/mpirun_qchem -machinefile ./qchem1603184/hostfile -np 1 /cm/shared/apps/spack/cpu/opt/spack/linux-centos8-zen2/gcc-10.2.0/qchem-5.4-akfmr7b3t57bfs6qan3padb2wnb2i7cl/exe/qcprog.exe Dimethyl_Naphthalene_Dicarboximide_Phi_15_Theta_190_Thiophene_Hydrogenated.qcin_1603184.0 ./qchem1603184/

Process 0 of 1 is on exp-4-53 - thread support 0
initial socket setup ...start
initial socket setup ...done 
now start server 0 ... 
                  Welcome to Q-Chem
     A Quantum Leap Into The Future Of Chemistry


 Q-Chem 5.4, Q-Chem, Inc., Pleasanton, CA (2021)

 License issued to: University of California, San Diego (site)

 E. Epifanovsky,  A. T. B. Gilbert,  Xintian Feng,  Joonho Lee,  Yuezhi Mao,  
 N. Mardirossian,  P. Pokhilko,  A. White,  M. Wormit,  M. P. Coons,  
 A. L. Dempwolff,  Zhengting Gan,  D. Hait,  P. R. Horn,  L. D. Jacobson,  
 I. Kaliman,  J. Kussmann,  A. W. Lange,  Ka Un Lao,  D. S. Levine,  Jie Liu,  
 S. C. McKenzie,  A. F. Morrison,  K. Nanda,  F. Plasser,  D. R. Rehn,  
 M. L. Vidal,  Zhi-Qiang You,  Ying Zhu,  B. Alam,  B. Albrecht,  
 A. Aldossary,  E. Alguire,  J. H. Andersen,  D. Barton,  K. Begam,  A. Behn,  
 Y. A. Bernard,  E. J. Berquist,  H. Burton,  A. Carreras,  K. Carter-Fenk,  
 R. Chakraborty,  A. D. Chien,  K. D. Closser,  V. Cofer-Shabica,  
 S. Dasgupta,  Jia Deng,  M. de Wergifosse,  M. Diedenhofen,  Hainam Do,  
 S. Ehlert,  Po-Tung Fang,  S. Fatehi,  Qingguo Feng,  J. Gayvert,  
 Qinghui Ge,  G. Gidofalvi,  M. Goldey,  J. Gomes,  C. Gonzalez-Espinoza,  
 S. Gulania,  A. Gunina,  M. W. D. Hanson-Heine,  P. H. P. Harbach,  
 A. W. Hauser,  M. F. Herbst,  M. Hernandez Vera,  M. Hodecker,  
 Z. C. Holden,  S. Houck,  Xunkun Huang,  Kerwin Hui,  B. C. Huynh,  
 M. Ivanov,  Hyunjun Ji,  Hanjie Jiang,  B. Kaduk,  S. Kaehler,  
 K. Khistyaev,  Jaehoon Kim,  P. Klunzinger,  Z. Koczor-Benda,  
 Joong Hoon Koh,  D. Kosenkov,  L. Koulias,  T. Kowalczyk,  C. M. Krauter,  
 K. Kue,  A. Kunitsa,  T. Kus,  A. Landau,  K. V. Lawler,  D. Lefrancois,  
 S. Lehtola,  Rain Li,  Yi-Pei Li,  Jiashu Liang,  M. Liebenthal,  
 Hung-Hsuan Lin,  You-Sheng Lin,  Fenglai Liu,  Kuan-Yu Liu,  
 M. Loipersberger,  A. Luenser,  A. Manjanath,  P. Manohar,  E. Mansoor,  
 S. F. Manzer,  Shan-Ping Mao,  A. V. Marenich,  T. Markovich,  S. Mason,  
 S. A. Maurer,  P. F. McLaughlin,  M. F. S. J. Menger,  J.-M. Mewes,  
 S. A. Mewes,  P. Morgante,  J. W. Mullinax,  T. S. Nguyen-Beck,  
 K. J. Oosterbaan,  G. Paran,  Alexander C. Paul,  Suranjan K. Paul,  
 F. Pavosevic,  Zheng Pei,  S. Prager,  E. I. Proynov,  E. Ramos,  B. Rana,  
 A. E. Rask,  A. Rettig,  R. M. Richard,  F. Rob,  E. Rossomme,  T. Scheele,  
 M. Scheurer,  M. Schneider,  N. Sergueev,  S. M. Sharada,  W. Skomorowski,  
 D. W. Small,  C. J. Stein,  Yu-Chuan Su,  E. J. Sundstrom,  Zhen Tao,  
 J. Thirman,  T. Tsuchimochi,  N. M. Tubman,  S. P. Veccham,  O. Vydrov,  
 J. Wenzel,  J. Witte,  A. Yamada,  Kun Yao,  S. Yeganeh,  S. R. Yost,  
 A. Zech,  Igor Ying Zhang,  Xing Zhang,  Yu Zhang,  D. Zuev,  
 A. Aspuru-Guzik,  A. T. Bell,  N. A. Besley,  K. B. Bravaya,  B. R. Brooks,  
 D. Casanova,  Jeng-Da Chai,  S. Coriani,  C. J. Cramer,  
 A. E. DePrince, III,  R. A. DiStasio Jr.,  A. Dreuw,  B. D. Dunietz,  
 T. R. Furlani,  W. A. Goddard III,  S. Grimme,  S. Hammes-Schiffer,  
 T. Head-Gordon,  W. J. Hehre,  Chao-Ping Hsu,  T.-C. Jagau,  Yousung Jung,  
 A. Klamt,  Jing Kong,  D. S. Lambrecht,  WanZhen Liang,  N. J. Mayhall,  
 C. W. McCurdy,  J. B. Neaton,  C. Ochsenfeld,  J. A. Parkhill,  R. Peverati,  
 V. A. Rassolov,  Yihan Shao,  L. V. Slipchenko,  T. Stauch,  R. P. Steele,  
 J. E. Subotnik,  A. J. W. Thom,  A. Tkatchenko,  D. G. Truhlar,  
 T. Van Voorhis,  T. A. Wesolowski,  K. B. Whaley,  H. L. Woodcock III,  
 P. M. Zimmerman,  S. Faraji,  P. M. W. Gill,  M. Head-Gordon,  
 J. M. Herbert,  A. I. Krylov

 Contributors to earlier versions of Q-Chem not listed above: 
 R. D. Adamson,  B. Austin,  R. Baer,  J. Baker,  G. J. O. Beran,  
 K. Brandhorst,  S. T. Brown,  E. F. C. Byrd,  A. K. Chakraborty,  
 G. K. L. Chan,  Chun-Min Chang,  Yunqing Chen,  C.-L. Cheng,  
 Siu Hung Chien,  D. M. Chipman,  D. L. Crittenden,  H. Dachsel,  
 R. J. Doerksen,  A. D. Dutoi,  R. G. Edgar,  J. Fosso-Tande,  
 L. Fusti-Molnar,  D. Ghosh,  A. Ghysels,  A. Golubeva-Zadorozhnaya,  
 J. Gonthier,  M. S. Gordon,  S. R. Gwaltney,  G. Hawkins,  J. E. Herr,  
 A. Heyden,  S. Hirata,  E. G. Hohenstein,  G. Kedziora,  F. J. Keil,  
 C. Kelley,  Jihan Kim,  R. A. King,  R. Z. Khaliullin,  P. P. Korambath,  
 W. Kurlancheek,  A. Laurent,  A. M. Lee,  M. S. Lee,  S. V. Levchenko,  
 Ching Yeh Lin,  D. Liotard,  E. Livshits,  R. C. Lochan,  I. Lotan,  
 L. A. Martinez-Martinez,  P. E. Maslen,  N. Nair,  D. P. O'Neill,  
 D. Neuhauser,  E. Neuscamman,  C. M. Oana,  R. Olivares-Amaya,  R. Olson,  
 T. M. Perrine,  B. Peters,  P. A. Pieniazek,  A. Prociuk,  Y. M. Rhee,  
 J. Ritchie,  M. A. Rohrdanz,  E. Rosta,  N. J. Russ,  H. F. Schaefer III,  
 M. W. Schmidt,  N. E. Schultz,  S. Sharma,  N. Shenvi,  C. D. Sherrill,  
 A. C. Simmonett,  A. Sodt,  T. Stein,  D. Stuck,  K. S. Thanthiriwatte,  
 V. Vanovschi,  L. Vogt,  Tao Wang,  A. Warshel,  M. A. Watson,  
 C. F. Williams,  Q. Wu,  X. Xu,  Jun Yang,  W. Zhang,  Yan Zhao

 Please cite Q-Chem as follows:
 Y. Shao et al., Mol. Phys. 113, 184-215 (2015)
 DOI: 10.1080/00268976.2014.952696

 Q-Chem 5.4.0 for Intel X86 EM64T Linux

 Parts of Q-Chem use Armadillo 9.800.1 (Horizon Scraper).
 http://arma.sourceforge.net/

 Q-Chem begins on Tue Sep 26 23:31:12 2023  

 Host: 
0

     Scratch files written to ./qchem1603184//
 May1621 |scratch|qcdevops|jenkins|workspace|build_RNUM    
 Parallel job on  1  processors
 Processing $rem in /cm/shared/apps/spack/cpu/opt/spack/linux-centos8-zen2/gcc-10.2.0/qchem-5.4-akfmr7b3t57bfs6qan3padb2wnb2i7cl/config/preferences:
 Processing $rem in /home/rramji/.qchemrc:
 Symmetry turned off for PCM/SM12/SMD calculation
 Core orbitals will be frozen

 Checking the input file for inconsistencies... 	...done.

 Q-Chem warning in module forms1/BasisType.C, line 2236:

 You are not using the predefined 5D/6D in this basis set.


--------------------------------------------------------------
User input:
--------------------------------------------------------------
$molecule
0 1
C	-0.043160	-6.741404	0.253280
C	-0.269777	-6.155638	1.539213
C	0.145543	-5.791452	-0.814295
C	-0.318377	-4.803786	1.813519
H	-0.422058	-6.821518	2.403941
C	0.094194	-4.378638	-0.527140
C	-0.137191	-3.838032	0.783072
C	0.275104	-3.413062	-1.556403
C	-0.188116	-2.426473	1.067932
C	0.226701	-2.059348	-1.285420
C	0.000000	-1.478216	0.000000
H	0.378931	-1.394783	-2.151147
C	0.397845	-6.187987	-2.234582
C	0.523637	-3.798164	-2.965273
N	0.567586	-5.170003	-3.204744
C	-0.567421	-4.424987	3.226257
C	-0.439541	-2.036627	2.489446
N	-0.609650	-3.049156	3.459801
O	0.468608	-7.353131	-2.619468
O	0.683034	-2.986854	-3.874668
O	-0.725131	-5.248946	4.124806
O	-0.512648	-0.878829	2.895819
C	0.813908	-5.563799	-4.595691
H	0.822891	-6.664085	-4.640022
H	1.781600	-5.147101	-4.934830
H	0.020360	-5.148785	-5.246157
C	-0.851649	-2.587487	4.829716
H	-0.962191	-3.483329	5.462742
H	-1.765865	-1.964972	4.863242
H	-0.005383	-1.962932	5.173521
C	0.000000	0.000000	0.000000
S	0.205093	0.766196	1.580530
C	0.628939	2.348114	0.904911
C	0.258137	0.964028	-0.985400
C	0.599745	2.239309	-0.493528
H	0.197169	0.736404	-2.059934
H	0.827678	3.090243	-1.152593
H	0.856796	3.198808	1.556025
H	-0.909181	-7.361589	-0.008120
H	0.860264	-7.361192	0.304668
H	-1.063500	-1.478831	-0.188062
$end

$rem
JOBTYPE		SP
EXCHANGE	HF
CORRELATION	pRIMP2
BASIS		cc-pvtz
METHOD		rimp2
AUX_BASIS	rimp2-cc-pvtz
SOLVENT_METHOD	PCM
PURECART	11111
SYMMETRY	false
MEM_TOTAL	110000
SCF_CONVERGENCE = 6
THRESH=10
GUI = 2
$end



$solvent
dielectric 4.90
$end
--------------------------------------------------------------
 ----------------------------------------------------------------
             Standard Nuclear Orientation (Angstroms)
    I     Atom           X                Y                Z
 ----------------------------------------------------------------
    1      C      -0.0431600000    -6.7414040000     0.2532800000
    2      C      -0.2697770000    -6.1556380000     1.5392130000
    3      C       0.1455430000    -5.7914520000    -0.8142950000
    4      C      -0.3183770000    -4.8037860000     1.8135190000
    5      H      -0.4220580000    -6.8215180000     2.4039410000
    6      C       0.0941940000    -4.3786380000    -0.5271400000
    7      C      -0.1371910000    -3.8380320000     0.7830720000
    8      C       0.2751040000    -3.4130620000    -1.5564030000
    9      C      -0.1881160000    -2.4264730000     1.0679320000
   10      C       0.2267010000    -2.0593480000    -1.2854200000
   11      C       0.0000000000    -1.4782160000     0.0000000000
   12      H       0.3789310000    -1.3947830000    -2.1511470000
   13      C       0.3978450000    -6.1879870000    -2.2345820000
   14      C       0.5236370000    -3.7981640000    -2.9652730000
   15      N       0.5675860000    -5.1700030000    -3.2047440000
   16      C      -0.5674210000    -4.4249870000     3.2262570000
   17      C      -0.4395410000    -2.0366270000     2.4894460000
   18      N      -0.6096500000    -3.0491560000     3.4598010000
   19      O       0.4686080000    -7.3531310000    -2.6194680000
   20      O       0.6830340000    -2.9868540000    -3.8746680000
   21      O      -0.7251310000    -5.2489460000     4.1248060000
   22      O      -0.5126480000    -0.8788290000     2.8958190000
   23      C       0.8139080000    -5.5637990000    -4.5956910000
   24      H       0.8228910000    -6.6640850000    -4.6400220000
   25      H       1.7816000000    -5.1471010000    -4.9348300000
   26      H       0.0203600000    -5.1487850000    -5.2461570000
   27      C      -0.8516490000    -2.5874870000     4.8297160000
   28      H      -0.9621910000    -3.4833290000     5.4627420000
   29      H      -1.7658650000    -1.9649720000     4.8632420000
   30      H      -0.0053830000    -1.9629320000     5.1735210000
   31      C       0.0000000000     0.0000000000     0.0000000000
   32      S       0.2050930000     0.7661960000     1.5805300000
   33      C       0.6289390000     2.3481140000     0.9049110000
   34      C       0.2581370000     0.9640280000    -0.9854000000
   35      C       0.5997450000     2.2393090000    -0.4935280000
   36      H       0.1971690000     0.7364040000    -2.0599340000
   37      H       0.8276780000     3.0902430000    -1.1525930000
   38      H       0.8567960000     3.1988080000     1.5560250000
   39      H      -0.9091810000    -7.3615890000    -0.0081200000
   40      H       0.8602640000    -7.3611920000     0.3046680000
   41      H      -1.0635000000    -1.4788310000    -0.1880620000
 ----------------------------------------------------------------
 Nuclear Repulsion Energy =        2569.34817396 hartrees
 There are       98 alpha and       98 beta electrons
 Requested basis set is cc-pVTZ
 There are 356 shells and 1010 basis functions

 Total QAlloc Memory Limit 110000 MB
 Mega-Array Size       188 MB
 MEM_STATIC part       192 MB
 Discretize the solute cavity surface with Lebedev spheres
	Using 110 Lebedev grid points for each H atom
	Using 194 Lebedev grid points for other atoms
	Atomic van der Waals radii will be scaled by 1.20
 Remove points where switching function is < 1.0e-08
 Keep 2614 surface tesserae and discard 4164 interior tesserae
 Molecular Surface Area = 359.313 Angst**2
 Requested basis set is rimp2-cc-pVTZ
 There are 770 shells and 2648 basis functions
 A cutoff of  1.0D-10 yielded  34221 shell pairs
 There are    258905 function pairs (    335027 Cartesian)
 Smallest overlap matrix eigenvalue = 8.98E-06

 Q-Chem warning in module stvman/mkSTV.C, line 323:

 Overlap eigenvalue is smaller than square root of threshold
 Use THRESH >= 12 to get rid of this warning


 Scale SEOQF with 1.000000e-01/1.000000e-02/1.000000e-02

 Standard Electronic Orientation quadrupole field applied
 Nucleus-field energy     =     0.0000000111 hartrees
 Guess from superposition of atomic densities
 Warning:  Energy on first SCF cycle will be non-variational
 SAD guess density has 196.000000 electrons

 -----------------------------------------------------------------------
  General SCF calculation program by
  Eric Jon Sundstrom, Paul Horn, Yuezhi Mao, Dmitri Zuev, Alec White,
  David Stuck, Shaama M.S., Shane Yost, Joonho Lee, David Small,
  Daniel Levine, Susi Lehtola, Hugh Burton, Evgeny Epifanovsky,
  Bang C. Huynh
 -----------------------------------------------------------------------
 Hartree-Fock
 using 64 threads for integral computing
 -------------------------------------------------------
 OpenMP Integral computing Module                
 Release: version 1.0, May 2013, Q-Chem Inc. Pittsburgh 
 -------------------------------------------------------
 A restricted SCF calculation will be
 performed using DIIS
 SCF converges when DIIS error is below 1.0e-06
 ---------------------------------------
  Cycle       Energy         DIIS error
 ---------------------------------------
    1   -1583.2394706468      1.87e-02  
    2   -1571.1224695013      2.03e-03  
    3   -1571.4625829396      1.54e-03  
    4   -1571.6843886913      2.55e-04  
    5   -1571.6982579587      7.84e-05  
    6   -1571.6996688032      3.05e-05  
    7   -1571.7000909540      1.62e-05  
    8   -1571.7002135802      6.48e-06  
    9   -1571.7002358677      2.98e-06  
   10   -1571.7002403234      1.24e-06  
   11   -1571.7002416581      5.98e-07  Convergence criterion met
 ---------------------------------------
 SCF time:   CPU 6760.64s  wall 259.00s 

************** Final PCM Free Energy Summary **************
 G_electrostatic  =      -0.02928874 hartree =     -18.37896121 kcal/mol
 G_cavitation     =       0.00000000 hartree =       0.00000000 kcal/mol
 G_dispersion     =       0.00000000 hartree =       0.00000000 kcal/mol
 G_repulsion      =       0.00000000 hartree =       0.00000000 kcal/mol
 --------------------------------------------------
 Non-electrostatic Free Energy =       0.00000000 hartree =       0.00000000 kcal/mol
 Total                         =      -0.02928874 hartree =     -18.37896121 kcal/mol
 --------------------------------------------------
 SCF Energy (H0 + V/2)                       =   -1571.70024166 
 Solute Internal Energy (H0)                 =   -1571.67095292 
 Total Free Energy (H0 + V/2 + non-elec)     =   -1571.70024166 hartree
                                             = -986256.78721342 kcal/mol
***********************************************************

 SCF   energy in the final basis set =    -1571.7002416581
 Total energy in the final basis set =    -1571.7002416581


 --------------------------------------------------------------
  Generalized many-body perturbation theory program
  by Joonho Lee, Fazle Rob, Xintian Feng, Evgeny Epifanovsky

 No regularization used 
 (reg. param. = 0.0000e+00)
  (P|Q)^-1/2 Time:  CPU 136.18 s  wall 2.66 s

 In RI-MP2 calculation: 
 # of frozen core orbitals: 31

 Components of the RIMP2 correlation energy:
        aaaa    correlation energy =        -0.6181474498 a.u.
        abab    correlation energy =        -3.4317617852 a.u.
        bbbb    correlation energy =        -0.6181474498 a.u.
        non-Brillouin singles      =        -0.0000000000 a.u.
        total same-spin energy     =        -1.2362948995 a.u.
        total opposite-spin energy =        -3.4317617852 a.u.

 Total  RIMP2   correlation energy =        -4.6680566847 a.u.
        RIMP2         total energy =     -1576.3682983428 a.u.

 RI-MP2 Energy Time:  CPU 1951.18 s  wall 33.32 s
 
 --------------------------------------------------------------
 
                    Orbital Energies (a.u.)
 --------------------------------------------------------------
 
 Alpha MOs
 -- Occupied --
-91.9702 -20.5571 -20.5468 -20.5426 -20.5417 -15.6311 -15.6223 -11.4008
-11.3876 -11.3845 -11.3803 -11.3127 -11.3101 -11.3094 -11.3063 -11.2994
-11.2939 -11.2915 -11.2708 -11.2704 -11.2668 -11.2651 -11.2601 -11.2569
-11.2543 -11.2477 -11.2384  -8.9702  -6.6507  -6.6494  -6.6485  -1.4315
 -1.4132  -1.4031  -1.3924  -1.2677  -1.2567  -1.2319  -1.1857  -1.1464
 -1.1162  -1.0868  -1.0495  -0.9946  -0.9896  -0.9756  -0.9567  -0.9481
 -0.8987  -0.8915  -0.8799  -0.8631  -0.7924  -0.7818  -0.7755  -0.7583
 -0.7316  -0.7252  -0.7020  -0.6898  -0.6881  -0.6771  -0.6690  -0.6593
 -0.6515  -0.6466  -0.6378  -0.6338  -0.6333  -0.6324  -0.6229  -0.6064
 -0.5900  -0.5725  -0.5669  -0.5628  -0.5565  -0.5546  -0.5532  -0.5500
 -0.5487  -0.5457  -0.5216  -0.5130  -0.5121  -0.4882  -0.4781  -0.4641
 -0.4562  -0.4449  -0.4380  -0.4205  -0.4086  -0.3908  -0.3555  -0.3405
 -0.3274  -0.2768
 -- Virtual --
  0.0102   0.0400   0.0893   0.1055   0.1389   0.1497   0.1583   0.1605
  0.1633   0.1732   0.1793   0.1828   0.1887   0.1921   0.2020   0.2032
  0.2168   0.2227   0.2279   0.2305   0.2310   0.2358   0.2620   0.2626
  0.2747   0.2779   0.3021   0.3102   0.3142   0.3201   0.3278   0.3293
  0.3379   0.3445   0.3472   0.3491   0.3536   0.3631   0.3667   0.3699
  0.3717   0.3838   0.3867   0.3903   0.3944   0.4012   0.4077   0.4166
  0.4173   0.4255   0.4314   0.4341   0.4404   0.4438   0.4487   0.4504
  0.4549   0.4584   0.4655   0.4726   0.4769   0.4856   0.4907   0.4927
  0.4930   0.5028   0.5099   0.5135   0.5169   0.5188   0.5213   0.5261
  0.5356   0.5414   0.5472   0.5544   0.5550   0.5571   0.5626   0.5658
  0.5721   0.5749   0.5838   0.5881   0.5905   0.5929   0.6001   0.6013
  0.6032   0.6056   0.6080   0.6112   0.6136   0.6202   0.6216   0.6249
  0.6298   0.6309   0.6363   0.6398   0.6417   0.6466   0.6504   0.6543
  0.6625   0.6726   0.6817   0.6862   0.6893   0.6983   0.7013   0.7052
  0.7121   0.7313   0.7329   0.7366   0.7424   0.7483   0.7565   0.7600
  0.7689   0.7697   0.7751   0.7838   0.7952   0.8024   0.8055   0.8079
  0.8146   0.8235   0.8272   0.8308   0.8357   0.8434   0.8483   0.8491
  0.8529   0.8562   0.8634   0.8692   0.8766   0.8807   0.8861   0.8947
  0.8999   0.9094   0.9102   0.9189   0.9215   0.9228   0.9285   0.9314
  0.9346   0.9407   0.9478   0.9528   0.9625   0.9662   0.9708   0.9815
  0.9868   0.9891   0.9973   1.0045   1.0056   1.0111   1.0190   1.0211
  1.0271   1.0328   1.0372   1.0443   1.0518   1.0602   1.0628   1.0649
  1.0700   1.0759   1.0791   1.0825   1.0872   1.0890   1.0960   1.1016
  1.1065   1.1109   1.1223   1.1234   1.1274   1.1355   1.1403   1.1432
  1.1478   1.1577   1.1624   1.1710   1.1734   1.1793   1.1844   1.1908
  1.1950   1.2019   1.2034   1.2087   1.2123   1.2180   1.2199   1.2277
  1.2364   1.2378   1.2403   1.2438   1.2524   1.2642   1.2722   1.2758
  1.2800   1.2828   1.2998   1.3078   1.3112   1.3260   1.3306   1.3392
  1.3445   1.3463   1.3624   1.3681   1.3721   1.3803   1.3809   1.3835
  1.3892   1.3943   1.4042   1.4079   1.4155   1.4281   1.4357   1.4425
  1.4540   1.4582   1.4638   1.4719   1.4767   1.4798   1.4868   1.4972
  1.5043   1.5092   1.5129   1.5147   1.5204   1.5299   1.5355   1.5399
  1.5505   1.5527   1.5557   1.5596   1.5678   1.5727   1.5784   1.5851
  1.5925   1.5990   1.6068   1.6099   1.6157   1.6256   1.6386   1.6478
  1.6523   1.6555   1.6654   1.6781   1.6822   1.6955   1.6968   1.7031
  1.7108   1.7178   1.7249   1.7311   1.7400   1.7479   1.7518   1.7551
  1.7623   1.7734   1.7807   1.7879   1.7941   1.8011   1.8145   1.8186
  1.8253   1.8326   1.8401   1.8533   1.8598   1.8671   1.8689   1.8702
  1.8735   1.8785   1.8881   1.8977   1.9257   1.9275   1.9421   1.9441
  1.9648   1.9673   1.9696   1.9834   1.9892   1.9994   2.0172   2.0261
  2.0351   2.0571   2.0761   2.0962   2.0988   2.1078   2.1286   2.1336
  2.1478   2.1538   2.1645   2.1850   2.1888   2.2117   2.2261   2.2272
  2.2461   2.2585   2.2709   2.2849   2.2896   2.2919   2.3120   2.3150
  2.3214   2.3291   2.3381   2.3585   2.3664   2.3686   2.3845   2.4028
  2.4175   2.4246   2.4380   2.4422   2.4566   2.4605   2.4656   2.4797
  2.4841   2.5002   2.5097   2.5140   2.5250   2.5450   2.5487   2.5616
  2.5652   2.5736   2.5841   2.5866   2.5974   2.6014   2.6109   2.6205
  2.6269   2.6392   2.6418   2.6466   2.6621   2.6644   2.6744   2.6779
  2.6842   2.6915   2.7025   2.7155   2.7196   2.7285   2.7309   2.7335
  2.7410   2.7534   2.7614   2.7649   2.7752   2.7794   2.7835   2.7949
  2.8108   2.8198   2.8335   2.8443   2.8495   2.8589   2.8623   2.8724
  2.8752   2.8828   2.8908   2.8955   2.8967   2.9012   2.9075   2.9136
  2.9172   2.9252   2.9334   2.9344   2.9524   2.9595   2.9702   2.9748
  2.9811   2.9887   2.9938   3.0065   3.0131   3.0178   3.0228   3.0310
  3.0334   3.0470   3.0490   3.0555   3.0578   3.0701   3.0734   3.0868
  3.0984   3.1006   3.1013   3.1055   3.1087   3.1116   3.1154   3.1224
  3.1273   3.1364   3.1509   3.1583   3.1600   3.1671   3.1746   3.1806
  3.1837   3.1894   3.1981   3.2035   3.2069   3.2149   3.2209   3.2263
  3.2330   3.2353   3.2396   3.2469   3.2501   3.2560   3.2599   3.2671
  3.2697   3.2766   3.2802   3.2868   3.2891   3.2932   3.2995   3.3068
  3.3107   3.3142   3.3191   3.3201   3.3242   3.3304   3.3375   3.3377
  3.3422   3.3466   3.3512   3.3573   3.3651   3.3653   3.3699   3.3760
  3.3804   3.3816   3.3888   3.3968   3.4034   3.4046   3.4069   3.4098
  3.4217   3.4244   3.4314   3.4340   3.4344   3.4387   3.4445   3.4518
  3.4571   3.4653   3.4698   3.4751   3.4798   3.4842   3.4879   3.4939
  3.4953   3.5019   3.5057   3.5113   3.5150   3.5184   3.5248   3.5273
  3.5332   3.5342   3.5444   3.5528   3.5583   3.5625   3.5734   3.5800
  3.5862   3.5903   3.5947   3.6038   3.6073   3.6159   3.6239   3.6292
  3.6297   3.6367   3.6394   3.6441   3.6469   3.6483   3.6529   3.6659
  3.6694   3.6740   3.6807   3.6856   3.6901   3.6948   3.7098   3.7150
  3.7207   3.7285   3.7308   3.7380   3.7396   3.7472   3.7506   3.7530
  3.7637   3.7668   3.7745   3.7779   3.7814   3.7841   3.7913   3.8050
  3.8068   3.8101   3.8142   3.8278   3.8323   3.8340   3.8351   3.8432
  3.8472   3.8592   3.8675   3.8730   3.8757   3.8857   3.8930   3.8990
  3.9172   3.9195   3.9215   3.9290   3.9438   3.9477   3.9526   3.9600
  3.9663   3.9701   3.9792   3.9850   3.9902   3.9957   4.0082   4.0135
  4.0186   4.0321   4.0338   4.0368   4.0514   4.0599   4.0632   4.0731
  4.0913   4.1046   4.1138   4.1140   4.1258   4.1351   4.1392   4.1471
  4.1529   4.1596   4.1609   4.1674   4.1699   4.1788   4.1901   4.2070
  4.2213   4.2292   4.2369   4.2390   4.2430   4.2491   4.2521   4.2636
  4.2685   4.2821   4.2842   4.2869   4.2976   4.2983   4.2996   4.3118
  4.3194   4.3243   4.3271   4.3395   4.3428   4.3437   4.3489   4.3576
  4.3654   4.3669   4.3685   4.3716   4.3815   4.3839   4.3873   4.3957
  4.4041   4.4089   4.4183   4.4238   4.4315   4.4409   4.4424   4.4546
  4.4696   4.4834   4.4873   4.4991   4.5109   4.5226   4.5283   4.5346
  4.5394   4.5416   4.5512   4.5549   4.5632   4.5766   4.5840   4.5863
  4.5911   4.5959   4.6023   4.6151   4.6222   4.6267   4.6330   4.6431
  4.6440   4.6654   4.6737   4.6867   4.6955   4.7027   4.7060   4.7087
  4.7189   4.7380   4.7419   4.7718   4.7813   4.7863   4.7882   4.7991
  4.8185   4.8263   4.8395   4.8462   4.8533   4.8712   4.8779   4.8835
  4.8916   4.9081   4.9138   4.9273   4.9352   4.9455   4.9749   4.9822
  4.9960   5.0049   5.0187   5.0313   5.0336   5.0371   5.0630   5.0673
  5.0779   5.0907   5.1013   5.1161   5.1209   5.1276   5.1329   5.1429
  5.1531   5.1676   5.1776   5.1894   5.1970   5.2006   5.2191   5.2248
  5.2580   5.2602   5.2753   5.2843   5.3044   5.3109   5.3193   5.3294
  5.3302   5.3459   5.3638   5.3712   5.3764   5.3894   5.4023   5.4143
  5.4451   5.4514   5.4615   5.4890   5.4948   5.5113   5.5120   5.5162
  5.5246   5.5273   5.5449   5.5544   5.5589   5.5648   5.5671   5.5703
  5.5780   5.5852   5.5932   5.6041   5.6089   5.6222   5.6268   5.6366
  5.6427   5.6486   5.6594   5.6613   5.6655   5.6696   5.6927   5.6953
  5.7014   5.7120   5.7383   5.7425   5.7566   5.7617   5.7690   5.7743
  5.7840   5.8002   5.8144   5.8294   5.8530   5.8687   5.8980   5.9181
  5.9312   5.9529   5.9745   5.9919   6.0278   6.0357   6.0414   6.0521
  6.0549   6.0819   6.1088   6.1134   6.1229   6.1553   6.1707   6.1881
  6.2010   6.2192   6.2229   6.2250   6.2473   6.2654   6.2816   6.2859
  6.3004   6.3122   6.3242   6.3484   6.3688   6.3837   6.4635   6.4898
  6.5223   6.5377   6.5695   6.5815   6.6059   6.6297   6.6522   6.6554
  6.6726   6.7192   6.8497   6.8542   6.8899   6.9013   6.9050   6.9261
  6.9281   6.9885   7.1047   7.1352   7.1600   7.1950   7.2171   7.2744
  7.3460   7.3506   7.3569   7.3606   7.4752   7.5413   7.5706   7.5830
  7.5932   7.6386   7.6546   7.6895   7.6996   7.7356   8.9117  10.1342
 10.3353  11.2700  11.5411  11.7881  12.0540  12.1793  12.4392  12.4927
 12.9525  13.3007  13.3286  13.5734  13.8220  13.9310  14.0892  14.3107
 14.3587  14.4227  14.6002  14.7365  15.0267  15.6406  15.8245  16.3139
 --------------------------------------------------------------
 
          Ground-State Mulliken Net Atomic Charges

     Atom                 Charge (a.u.)
  ----------------------------------------
      1 C                    -0.084223
      2 C                    -0.029247
      3 C                    -0.105724
      4 C                    -0.121877
      5 H                     0.199905
      6 C                     0.025286
      7 C                     0.127421
      8 C                    -0.094266
      9 C                    -0.177793
     10 C                    -0.151438
     11 C                     0.205348
     12 H                     0.191251
     13 C                     0.341641
     14 C                     0.349270
     15 N                    -0.090320
     16 C                     0.358176
     17 C                     0.379503
     18 N                    -0.088529
     19 O                    -0.493776
     20 O                    -0.507727
     21 O                    -0.499202
     22 O                    -0.455211
     23 C                    -0.204850
     24 H                     0.139751
     25 H                     0.109584
     26 H                     0.109304
     27 C                    -0.198567
     28 H                     0.134982
     29 H                     0.112659
     30 H                     0.113357
     31 C                    -0.016598
     32 S                     0.083584
     33 C                    -0.268880
     34 C                    -0.225749
     35 C                    -0.220713
     36 H                     0.178093
     37 H                     0.181812
     38 H                     0.201744
     39 H                     0.138543
     40 H                     0.139063
     41 H                     0.214417
  ----------------------------------------
  Sum of atomic charges =     0.000000

 -----------------------------------------------------------------
                    Cartesian Multipole Moments
 -----------------------------------------------------------------
    Charge (ESU x 10^10)
                 0.0000
    Dipole Moment (Debye)
         X      -1.0248      Y       0.3091      Z       0.9200
       Tot       1.4115
    Quadrupole Moments (Debye-Ang)
        XX    -162.9842     XY       5.1040     YY    -178.1216
        XZ       5.1532     YZ      -9.2849     ZZ    -185.6127
    Octopole Moments (Debye-Ang^2)
       XXX     -31.9249    XXY     462.2737    XYY     -13.9429
       YYY    1660.4759    XXZ     -31.6771    XYZ     -21.2842
       YYZ      36.9774    XZZ      -7.9108    YZZ     597.7064
       ZZZ     -89.2063
    Hexadecapole Moments (Debye-Ang^3)
      XXXX    -409.8678   XXXY      -6.2642   XXYY   -2692.0036
      XYYY     175.6778   YYYY  -17944.3227   XXXZ     478.5320
      XXYZ    -131.0361   XYYZ     315.5307   YYYZ   -1205.2463
      XXZZ   -1087.8762   XYZZ     -46.6184   YYZZ   -4426.8507
      XZZZ     544.4047   YZZZ    -113.0078   ZZZZ   -6389.7163
 -----------------------------------------------------------------
 Total job time:  299.55s(wall), 8939.86s(cpu) 
 Tue Sep 26 23:36:11 2023

        *************************************************************
        *                                                           *
        *  Thank you very much for using Q-Chem.  Have a nice day.  *
        *                                                           *
        *************************************************************


0 sent ACK to 0 
now end server 0 ... 
cleanup process ... done
remove work dirs ./qchem1603184.0 -- ./qchem1603184.0
rm -rf ./qchem1603184.0
rm -rf ./qchem1603184
