You are running Q-Chem version: 5.4.0

#
# job setting
#
local host:  exp-2-30
current dir: /expanse/lustre/projects/csd626/rramji/aromodel/PNDIT/Hydrogenated_Rotation_Test
input file:  Dimethyl_Naphthalene_Dicarboximide_Phi_50_Theta_180_Thiophene_Hydrogenated.qcin
output file: 
nprocs     : 1
nthreads   : 64
#
# qchem installation setting
#
QC:          /cm/shared/apps/spack/cpu/opt/spack/linux-centos8-zen2/gcc-10.2.0/qchem-5.4-akfmr7b3t57bfs6qan3padb2wnb2i7cl
QCAUX:       /cm/shared/apps/spack/cpu/opt/spack/linux-centos8-zen2/gcc-10.2.0/qchem-5.4-akfmr7b3t57bfs6qan3padb2wnb2i7cl/qcaux
QCPROG:      /cm/shared/apps/spack/cpu/opt/spack/linux-centos8-zen2/gcc-10.2.0/qchem-5.4-akfmr7b3t57bfs6qan3padb2wnb2i7cl/exe/qcprog.exe
QCPROG_S:    /cm/shared/apps/spack/cpu/opt/spack/linux-centos8-zen2/gcc-10.2.0/qchem-5.4-akfmr7b3t57bfs6qan3padb2wnb2i7cl/exe/qcprog.exe_s
PARALLEL:    -DPARALLEL
QCMPI:       mpich
#
# qchem directory setting
#
qcrun:       qchem3527313
QCSCRATCH:   .
QCLOCALSCR:  
QCTMPDIR:    .
QCFILEPREF:  ./qchem3527313
QCSAVEDIR:   
workdirs:    ./qchem3527313
workdir0:    ./qchem3527313
partmpdirs =  
#
# parallel setting
#
QCRSH:           ssh
QCMPI:           mpich
QCMPIRUN:        /cm/shared/apps/spack/cpu/opt/spack/linux-centos8-zen2/gcc-10.2.0/qchem-5.4-akfmr7b3t57bfs6qan3padb2wnb2i7cl/bin/mpi/mpirun_qchem
QCMACHINEFILE:   ./qchem3527313/hostfile
exp-2-30

#
# env setting
#
exported envs:   QC QCAUX QCSCRATCH QCRUNNAME QCFILEPREF QCPROG QCPROG_S GUIFILE

Running Job 1 of 1 Dimethyl_Naphthalene_Dicarboximide_Phi_50_Theta_180_Thiophene_Hydrogenated.qcin
qchem Dimethyl_Naphthalene_Dicarboximide_Phi_50_Theta_180_Thiophene_Hydrogenated.qcin_3527313.0 ./qchem3527313/ 1
/cm/shared/apps/spack/cpu/opt/spack/linux-centos8-zen2/gcc-10.2.0/qchem-5.4-akfmr7b3t57bfs6qan3padb2wnb2i7cl/bin/mpi/mpirun_qchem -machinefile ./qchem3527313/hostfile -np 1 /cm/shared/apps/spack/cpu/opt/spack/linux-centos8-zen2/gcc-10.2.0/qchem-5.4-akfmr7b3t57bfs6qan3padb2wnb2i7cl/exe/qcprog.exe Dimethyl_Naphthalene_Dicarboximide_Phi_50_Theta_180_Thiophene_Hydrogenated.qcin_3527313.0 ./qchem3527313/

Process 0 of 1 is on exp-2-30 - thread support 0
initial socket setup ...start
initial socket setup ...done 
now start server 0 ... 
                  Welcome to Q-Chem
     A Quantum Leap Into The Future Of Chemistry


 Q-Chem 5.4, Q-Chem, Inc., Pleasanton, CA (2021)

 License issued to: University of California, San Diego (site)

 E. Epifanovsky,  A. T. B. Gilbert,  Xintian Feng,  Joonho Lee,  Yuezhi Mao,  
 N. Mardirossian,  P. Pokhilko,  A. White,  M. Wormit,  M. P. Coons,  
 A. L. Dempwolff,  Zhengting Gan,  D. Hait,  P. R. Horn,  L. D. Jacobson,  
 I. Kaliman,  J. Kussmann,  A. W. Lange,  Ka Un Lao,  D. S. Levine,  Jie Liu,  
 S. C. McKenzie,  A. F. Morrison,  K. Nanda,  F. Plasser,  D. R. Rehn,  
 M. L. Vidal,  Zhi-Qiang You,  Ying Zhu,  B. Alam,  B. Albrecht,  
 A. Aldossary,  E. Alguire,  J. H. Andersen,  D. Barton,  K. Begam,  A. Behn,  
 Y. A. Bernard,  E. J. Berquist,  H. Burton,  A. Carreras,  K. Carter-Fenk,  
 R. Chakraborty,  A. D. Chien,  K. D. Closser,  V. Cofer-Shabica,  
 S. Dasgupta,  Jia Deng,  M. de Wergifosse,  M. Diedenhofen,  Hainam Do,  
 S. Ehlert,  Po-Tung Fang,  S. Fatehi,  Qingguo Feng,  J. Gayvert,  
 Qinghui Ge,  G. Gidofalvi,  M. Goldey,  J. Gomes,  C. Gonzalez-Espinoza,  
 S. Gulania,  A. Gunina,  M. W. D. Hanson-Heine,  P. H. P. Harbach,  
 A. W. Hauser,  M. F. Herbst,  M. Hernandez Vera,  M. Hodecker,  
 Z. C. Holden,  S. Houck,  Xunkun Huang,  Kerwin Hui,  B. C. Huynh,  
 M. Ivanov,  Hyunjun Ji,  Hanjie Jiang,  B. Kaduk,  S. Kaehler,  
 K. Khistyaev,  Jaehoon Kim,  P. Klunzinger,  Z. Koczor-Benda,  
 Joong Hoon Koh,  D. Kosenkov,  L. Koulias,  T. Kowalczyk,  C. M. Krauter,  
 K. Kue,  A. Kunitsa,  T. Kus,  A. Landau,  K. V. Lawler,  D. Lefrancois,  
 S. Lehtola,  Rain Li,  Yi-Pei Li,  Jiashu Liang,  M. Liebenthal,  
 Hung-Hsuan Lin,  You-Sheng Lin,  Fenglai Liu,  Kuan-Yu Liu,  
 M. Loipersberger,  A. Luenser,  A. Manjanath,  P. Manohar,  E. Mansoor,  
 S. F. Manzer,  Shan-Ping Mao,  A. V. Marenich,  T. Markovich,  S. Mason,  
 S. A. Maurer,  P. F. McLaughlin,  M. F. S. J. Menger,  J.-M. Mewes,  
 S. A. Mewes,  P. Morgante,  J. W. Mullinax,  T. S. Nguyen-Beck,  
 K. J. Oosterbaan,  G. Paran,  Alexander C. Paul,  Suranjan K. Paul,  
 F. Pavosevic,  Zheng Pei,  S. Prager,  E. I. Proynov,  E. Ramos,  B. Rana,  
 A. E. Rask,  A. Rettig,  R. M. Richard,  F. Rob,  E. Rossomme,  T. Scheele,  
 M. Scheurer,  M. Schneider,  N. Sergueev,  S. M. Sharada,  W. Skomorowski,  
 D. W. Small,  C. J. Stein,  Yu-Chuan Su,  E. J. Sundstrom,  Zhen Tao,  
 J. Thirman,  T. Tsuchimochi,  N. M. Tubman,  S. P. Veccham,  O. Vydrov,  
 J. Wenzel,  J. Witte,  A. Yamada,  Kun Yao,  S. Yeganeh,  S. R. Yost,  
 A. Zech,  Igor Ying Zhang,  Xing Zhang,  Yu Zhang,  D. Zuev,  
 A. Aspuru-Guzik,  A. T. Bell,  N. A. Besley,  K. B. Bravaya,  B. R. Brooks,  
 D. Casanova,  Jeng-Da Chai,  S. Coriani,  C. J. Cramer,  
 A. E. DePrince, III,  R. A. DiStasio Jr.,  A. Dreuw,  B. D. Dunietz,  
 T. R. Furlani,  W. A. Goddard III,  S. Grimme,  S. Hammes-Schiffer,  
 T. Head-Gordon,  W. J. Hehre,  Chao-Ping Hsu,  T.-C. Jagau,  Yousung Jung,  
 A. Klamt,  Jing Kong,  D. S. Lambrecht,  WanZhen Liang,  N. J. Mayhall,  
 C. W. McCurdy,  J. B. Neaton,  C. Ochsenfeld,  J. A. Parkhill,  R. Peverati,  
 V. A. Rassolov,  Yihan Shao,  L. V. Slipchenko,  T. Stauch,  R. P. Steele,  
 J. E. Subotnik,  A. J. W. Thom,  A. Tkatchenko,  D. G. Truhlar,  
 T. Van Voorhis,  T. A. Wesolowski,  K. B. Whaley,  H. L. Woodcock III,  
 P. M. Zimmerman,  S. Faraji,  P. M. W. Gill,  M. Head-Gordon,  
 J. M. Herbert,  A. I. Krylov

 Contributors to earlier versions of Q-Chem not listed above: 
 R. D. Adamson,  B. Austin,  R. Baer,  J. Baker,  G. J. O. Beran,  
 K. Brandhorst,  S. T. Brown,  E. F. C. Byrd,  A. K. Chakraborty,  
 G. K. L. Chan,  Chun-Min Chang,  Yunqing Chen,  C.-L. Cheng,  
 Siu Hung Chien,  D. M. Chipman,  D. L. Crittenden,  H. Dachsel,  
 R. J. Doerksen,  A. D. Dutoi,  R. G. Edgar,  J. Fosso-Tande,  
 L. Fusti-Molnar,  D. Ghosh,  A. Ghysels,  A. Golubeva-Zadorozhnaya,  
 J. Gonthier,  M. S. Gordon,  S. R. Gwaltney,  G. Hawkins,  J. E. Herr,  
 A. Heyden,  S. Hirata,  E. G. Hohenstein,  G. Kedziora,  F. J. Keil,  
 C. Kelley,  Jihan Kim,  R. A. King,  R. Z. Khaliullin,  P. P. Korambath,  
 W. Kurlancheek,  A. Laurent,  A. M. Lee,  M. S. Lee,  S. V. Levchenko,  
 Ching Yeh Lin,  D. Liotard,  E. Livshits,  R. C. Lochan,  I. Lotan,  
 L. A. Martinez-Martinez,  P. E. Maslen,  N. Nair,  D. P. O'Neill,  
 D. Neuhauser,  E. Neuscamman,  C. M. Oana,  R. Olivares-Amaya,  R. Olson,  
 T. M. Perrine,  B. Peters,  P. A. Pieniazek,  A. Prociuk,  Y. M. Rhee,  
 J. Ritchie,  M. A. Rohrdanz,  E. Rosta,  N. J. Russ,  H. F. Schaefer III,  
 M. W. Schmidt,  N. E. Schultz,  S. Sharma,  N. Shenvi,  C. D. Sherrill,  
 A. C. Simmonett,  A. Sodt,  T. Stein,  D. Stuck,  K. S. Thanthiriwatte,  
 V. Vanovschi,  L. Vogt,  Tao Wang,  A. Warshel,  M. A. Watson,  
 C. F. Williams,  Q. Wu,  X. Xu,  Jun Yang,  W. Zhang,  Yan Zhao

 Please cite Q-Chem as follows:
 Y. Shao et al., Mol. Phys. 113, 184-215 (2015)
 DOI: 10.1080/00268976.2014.952696

 Q-Chem 5.4.0 for Intel X86 EM64T Linux

 Parts of Q-Chem use Armadillo 9.800.1 (Horizon Scraper).
 http://arma.sourceforge.net/

 Q-Chem begins on Sun Sep 24 16:32:44 2023  

 Host: 
0

     Scratch files written to ./qchem3527313//
 May1621 |scratch|qcdevops|jenkins|workspace|build_RNUM    
 Parallel job on  1  processors
 Processing $rem in /cm/shared/apps/spack/cpu/opt/spack/linux-centos8-zen2/gcc-10.2.0/qchem-5.4-akfmr7b3t57bfs6qan3padb2wnb2i7cl/config/preferences:
 Processing $rem in /home/rramji/.qchemrc:
 Symmetry turned off for PCM/SM12/SMD calculation
 Core orbitals will be frozen

 Checking the input file for inconsistencies... 	...done.

 Q-Chem warning in module forms1/BasisType.C, line 2236:

 You are not using the predefined 5D/6D in this basis set.


--------------------------------------------------------------
User input:
--------------------------------------------------------------
$molecule
0 1
C	0.001478	-6.741404	0.256927
C	0.001603	-6.155638	1.562675
C	0.001931	-5.791452	-0.827197
C	0.001374	-4.803786	1.841253
H	0.001794	-6.821518	2.440709
C	0.001227	-4.378638	-0.535488
C	0.000872	-3.838032	0.794999
C	0.000658	-3.413062	-1.580529
C	0.000186	-2.426473	1.084374
C	0.000046	-2.059348	-1.305258
C	-0.000000	-1.478216	-0.000000
H	-0.000369	-1.394783	-2.184267
C	0.003770	-6.187987	-2.269719
C	0.000767	-3.798164	-3.011152
N	0.002465	-5.170003	-3.254617
C	0.001433	-4.424987	3.275775
C	-0.000576	-2.036627	2.527951
N	0.000400	-3.049156	3.513104
O	0.006623	-7.353131	-2.661046
O	-0.000172	-2.986854	-3.934410
O	0.002151	-5.248946	4.188059
O	-0.002006	-0.878829	2.940845
C	0.003509	-5.563799	-4.667206
H	0.004658	-6.664085	-4.712423
H	0.897610	-5.147101	-5.169231
H	-0.890935	-5.148785	-5.169992
C	-0.000039	-2.587487	4.904229
H	0.001022	-3.483329	5.546833
H	-0.894545	-1.964972	5.095998
H	0.893071	-1.962932	5.095858
C	0.000000	0.000000	0.000000
S	0.607475	0.509994	1.580530
C	1.862020	1.562717	0.904911
C	0.764397	0.641624	-0.985400
C	1.775697	1.490335	-0.493528
H	0.583895	0.490135	-2.059934
H	2.450484	2.056643	-1.152593
H	2.536607	2.128872	1.556025
H	-0.896779	-7.361589	0.149881
H	0.900100	-7.361192	0.150656
H	-1.080000	-1.478831	-0.000531
$end

$rem
JOBTYPE		SP
EXCHANGE	HF
CORRELATION	pRIMP2
BASIS		cc-pvtz
METHOD		rimp2
AUX_BASIS	rimp2-cc-pvtz
SOLVENT_METHOD	PCM
PURECART	11111
SYMMETRY	false
MEM_TOTAL	110000
SCF_CONVERGENCE = 6
THRESH=10
GUI = 2
$end



$solvent
dielectric 4.90
$end
--------------------------------------------------------------
 ----------------------------------------------------------------
             Standard Nuclear Orientation (Angstroms)
    I     Atom           X                Y                Z
 ----------------------------------------------------------------
    1      C       0.0014780000    -6.7414040000     0.2569270000
    2      C       0.0016030000    -6.1556380000     1.5626750000
    3      C       0.0019310000    -5.7914520000    -0.8271970000
    4      C       0.0013740000    -4.8037860000     1.8412530000
    5      H       0.0017940000    -6.8215180000     2.4407090000
    6      C       0.0012270000    -4.3786380000    -0.5354880000
    7      C       0.0008720000    -3.8380320000     0.7949990000
    8      C       0.0006580000    -3.4130620000    -1.5805290000
    9      C       0.0001860000    -2.4264730000     1.0843740000
   10      C       0.0000460000    -2.0593480000    -1.3052580000
   11      C       0.0000000000    -1.4782160000     0.0000000000
   12      H      -0.0003690000    -1.3947830000    -2.1842670000
   13      C       0.0037700000    -6.1879870000    -2.2697190000
   14      C       0.0007670000    -3.7981640000    -3.0111520000
   15      N       0.0024650000    -5.1700030000    -3.2546170000
   16      C       0.0014330000    -4.4249870000     3.2757750000
   17      C      -0.0005760000    -2.0366270000     2.5279510000
   18      N       0.0004000000    -3.0491560000     3.5131040000
   19      O       0.0066230000    -7.3531310000    -2.6610460000
   20      O      -0.0001720000    -2.9868540000    -3.9344100000
   21      O       0.0021510000    -5.2489460000     4.1880590000
   22      O      -0.0020060000    -0.8788290000     2.9408450000
   23      C       0.0035090000    -5.5637990000    -4.6672060000
   24      H       0.0046580000    -6.6640850000    -4.7124230000
   25      H       0.8976100000    -5.1471010000    -5.1692310000
   26      H      -0.8909350000    -5.1487850000    -5.1699920000
   27      C      -0.0000390000    -2.5874870000     4.9042290000
   28      H       0.0010220000    -3.4833290000     5.5468330000
   29      H      -0.8945450000    -1.9649720000     5.0959980000
   30      H       0.8930710000    -1.9629320000     5.0958580000
   31      C       0.0000000000     0.0000000000     0.0000000000
   32      S       0.6074750000     0.5099940000     1.5805300000
   33      C       1.8620200000     1.5627170000     0.9049110000
   34      C       0.7643970000     0.6416240000    -0.9854000000
   35      C       1.7756970000     1.4903350000    -0.4935280000
   36      H       0.5838950000     0.4901350000    -2.0599340000
   37      H       2.4504840000     2.0566430000    -1.1525930000
   38      H       2.5366070000     2.1288720000     1.5560250000
   39      H      -0.8967790000    -7.3615890000     0.1498810000
   40      H       0.9001000000    -7.3611920000     0.1506560000
   41      H      -1.0800000000    -1.4788310000    -0.0005310000
 ----------------------------------------------------------------
 Nuclear Repulsion Energy =        2597.81723431 hartrees
 There are       98 alpha and       98 beta electrons
 Requested basis set is cc-pVTZ
 There are 356 shells and 1010 basis functions

 Total QAlloc Memory Limit 110000 MB
 Mega-Array Size       188 MB
 MEM_STATIC part       192 MB
 Discretize the solute cavity surface with Lebedev spheres
	Using 110 Lebedev grid points for each H atom
	Using 194 Lebedev grid points for other atoms
	Atomic van der Waals radii will be scaled by 1.20
 Remove points where switching function is < 1.0e-08
 Keep 2529 surface tesserae and discard 4249 interior tesserae
 Molecular Surface Area = 358.235 Angst**2
 Requested basis set is rimp2-cc-pVTZ
 There are 770 shells and 2648 basis functions
 A cutoff of  1.0D-10 yielded  34856 shell pairs
 There are    263390 function pairs (    340799 Cartesian)
 Smallest overlap matrix eigenvalue = 8.43E-06

 Q-Chem warning in module stvman/mkSTV.C, line 323:

 Overlap eigenvalue is smaller than square root of threshold
 Use THRESH >= 12 to get rid of this warning


 Scale SEOQF with 1.000000e-01/1.000000e-02/1.000000e-02

 Standard Electronic Orientation quadrupole field applied
 Nucleus-field energy     =     0.0000000110 hartrees
 Guess from superposition of atomic densities
 Warning:  Energy on first SCF cycle will be non-variational
 SAD guess density has 196.000000 electrons

 -----------------------------------------------------------------------
  General SCF calculation program by
  Eric Jon Sundstrom, Paul Horn, Yuezhi Mao, Dmitri Zuev, Alec White,
  David Stuck, Shaama M.S., Shane Yost, Joonho Lee, David Small,
  Daniel Levine, Susi Lehtola, Hugh Burton, Evgeny Epifanovsky,
  Bang C. Huynh
 -----------------------------------------------------------------------
 Hartree-Fock
 using 64 threads for integral computing
 -------------------------------------------------------
 OpenMP Integral computing Module                
 Release: version 1.0, May 2013, Q-Chem Inc. Pittsburgh 
 -------------------------------------------------------
 A restricted SCF calculation will be
 performed using DIIS
 SCF converges when DIIS error is below 1.0e-06
 ---------------------------------------
  Cycle       Energy         DIIS error
 ---------------------------------------
    1   -1583.4237738339      1.88e-02  
    2   -1571.0449990557      2.00e-03  
    3   -1571.3831288951      1.51e-03  
    4   -1571.5952569320      2.58e-04  
    5   -1571.6095606572      7.97e-05  
    6   -1571.6110878256      3.26e-05  
    7   -1571.6115892124      1.72e-05  
    8   -1571.6117466324      7.70e-06  
    9   -1571.6117793094      3.31e-06  
   10   -1571.6117860821      1.48e-06  
   11   -1571.6117879111      6.51e-07  Convergence criterion met
 ---------------------------------------
 SCF time:   CPU 7231.04s  wall 265.00s 

************** Final PCM Free Energy Summary **************
 G_electrostatic  =      -0.02816343 hartree =     -17.67281603 kcal/mol
 G_cavitation     =       0.00000000 hartree =       0.00000000 kcal/mol
 G_dispersion     =       0.00000000 hartree =       0.00000000 kcal/mol
 G_repulsion      =       0.00000000 hartree =       0.00000000 kcal/mol
 --------------------------------------------------
 Non-electrostatic Free Energy =       0.00000000 hartree =       0.00000000 kcal/mol
 Total                         =      -0.02816343 hartree =     -17.67281603 kcal/mol
 --------------------------------------------------
 SCF Energy (H0 + V/2)                       =   -1571.61178791 
 Solute Internal Energy (H0)                 =   -1571.58362449 
 Total Free Energy (H0 + V/2 + non-elec)     =   -1571.61178791 hartree
                                             = -986201.28164946 kcal/mol
***********************************************************

 SCF   energy in the final basis set =    -1571.6117879111
 Total energy in the final basis set =    -1571.6117879111


 --------------------------------------------------------------
  Generalized many-body perturbation theory program
  by Joonho Lee, Fazle Rob, Xintian Feng, Evgeny Epifanovsky

 No regularization used 
 (reg. param. = 0.0000e+00)
  (P|Q)^-1/2 Time:  CPU 107.80 s  wall 1.70 s

 In RI-MP2 calculation: 
 # of frozen core orbitals: 31

 Components of the RIMP2 correlation energy:
        aaaa    correlation energy =        -0.6226010976 a.u.
        abab    correlation energy =        -3.4433998027 a.u.
        bbbb    correlation energy =        -0.6226010976 a.u.
        non-Brillouin singles      =        -0.0000000000 a.u.
        total same-spin energy     =        -1.2452021952 a.u.
        total opposite-spin energy =        -3.4433998027 a.u.

 Total  RIMP2   correlation energy =        -4.6886019980 a.u.
        RIMP2         total energy =     -1576.3003899091 a.u.

 RI-MP2 Energy Time:  CPU 1995.17 s  wall 32.15 s
 
 --------------------------------------------------------------
 
                    Orbital Energies (a.u.)
 --------------------------------------------------------------
 
 Alpha MOs
 -- Occupied --
-91.9684 -20.5631 -20.5469 -20.5391 -20.5389 -15.6331 -15.6200 -11.4041
-11.3877 -11.3810 -11.3775 -11.3096 -11.3085 -11.3059 -11.3038 -11.2977
-11.2828 -11.2690 -11.2678 -11.2662 -11.2656 -11.2647 -11.2623 -11.2588
-11.2580 -11.2519 -11.2372  -8.9691  -6.6495  -6.6475  -6.6464  -1.4430
 -1.4105  -1.4050  -1.3896  -1.2708  -1.2542  -1.2299  -1.1859  -1.1461
 -1.1137  -1.0828  -1.0476  -0.9956  -0.9891  -0.9814  -0.9559  -0.9466
 -0.8995  -0.8886  -0.8790  -0.8614  -0.7893  -0.7840  -0.7765  -0.7611
 -0.7322  -0.7275  -0.7013  -0.6898  -0.6890  -0.6771  -0.6683  -0.6582
 -0.6520  -0.6432  -0.6364  -0.6330  -0.6315  -0.6305  -0.6222  -0.6061
 -0.5915  -0.5733  -0.5694  -0.5638  -0.5603  -0.5575  -0.5533  -0.5484
 -0.5467  -0.5449  -0.5265  -0.5121  -0.5081  -0.4899  -0.4660  -0.4579
 -0.4514  -0.4421  -0.4370  -0.4218  -0.4065  -0.3771  -0.3531  -0.3284
 -0.3216  -0.2708
 -- Virtual --
  0.0116   0.0412   0.0744   0.0915   0.1423   0.1507   0.1575   0.1599
  0.1638   0.1730   0.1770   0.1821   0.1905   0.1922   0.1949   0.2042
  0.2150   0.2228   0.2273   0.2313   0.2343   0.2373   0.2602   0.2637
  0.2649   0.2788   0.2976   0.3035   0.3154   0.3218   0.3266   0.3289
  0.3365   0.3424   0.3474   0.3508   0.3574   0.3618   0.3644   0.3705
  0.3763   0.3773   0.3893   0.3924   0.3928   0.3980   0.4004   0.4104
  0.4187   0.4223   0.4290   0.4339   0.4371   0.4416   0.4466   0.4521
  0.4540   0.4583   0.4669   0.4716   0.4752   0.4858   0.4924   0.4939
  0.4999   0.5029   0.5081   0.5103   0.5142   0.5192   0.5231   0.5306
  0.5361   0.5432   0.5483   0.5506   0.5533   0.5567   0.5634   0.5664
  0.5743   0.5791   0.5797   0.5893   0.5903   0.5956   0.5999   0.6006
  0.6038   0.6085   0.6111   0.6166   0.6179   0.6212   0.6254   0.6316
  0.6326   0.6346   0.6395   0.6422   0.6437   0.6472   0.6498   0.6557
  0.6625   0.6715   0.6766   0.6852   0.6885   0.6938   0.6975   0.7037
  0.7074   0.7129   0.7304   0.7382   0.7422   0.7508   0.7586   0.7625
  0.7675   0.7690   0.7721   0.7768   0.7898   0.7994   0.8058   0.8086
  0.8120   0.8201   0.8227   0.8305   0.8370   0.8438   0.8457   0.8498
  0.8539   0.8625   0.8647   0.8708   0.8734   0.8797   0.8854   0.8954
  0.9004   0.9019   0.9065   0.9126   0.9198   0.9226   0.9278   0.9314
  0.9326   0.9403   0.9463   0.9537   0.9577   0.9693   0.9736   0.9843
  0.9872   0.9902   0.9942   1.0050   1.0084   1.0120   1.0156   1.0248
  1.0302   1.0360   1.0414   1.0450   1.0504   1.0571   1.0652   1.0692
  1.0723   1.0741   1.0823   1.0866   1.0893   1.1007   1.1038   1.1074
  1.1120   1.1161   1.1247   1.1266   1.1325   1.1350   1.1409   1.1465
  1.1522   1.1621   1.1659   1.1721   1.1744   1.1793   1.1870   1.1960
  1.1967   1.2029   1.2067   1.2075   1.2120   1.2173   1.2290   1.2343
  1.2381   1.2413   1.2463   1.2513   1.2544   1.2618   1.2745   1.2770
  1.2837   1.2963   1.3019   1.3141   1.3309   1.3319   1.3350   1.3373
  1.3460   1.3540   1.3571   1.3637   1.3724   1.3808   1.3865   1.3877
  1.3945   1.3971   1.4037   1.4077   1.4154   1.4251   1.4334   1.4445
  1.4499   1.4594   1.4652   1.4718   1.4836   1.4861   1.4898   1.4961
  1.5010   1.5063   1.5085   1.5125   1.5184   1.5291   1.5350   1.5384
  1.5457   1.5543   1.5563   1.5651   1.5667   1.5709   1.5805   1.5863
  1.5887   1.5998   1.6054   1.6122   1.6177   1.6245   1.6426   1.6471
  1.6494   1.6565   1.6667   1.6735   1.6854   1.6941   1.6964   1.6992
  1.7075   1.7134   1.7341   1.7376   1.7415   1.7485   1.7525   1.7531
  1.7604   1.7728   1.7839   1.7930   1.7992   1.8016   1.8160   1.8192
  1.8197   1.8355   1.8416   1.8514   1.8588   1.8655   1.8689   1.8690
  1.8747   1.8918   1.8942   1.8955   1.9278   1.9352   1.9429   1.9536
  1.9628   1.9650   1.9828   1.9960   2.0052   2.0176   2.0250   2.0379
  2.0515   2.0593   2.0729   2.0950   2.1014   2.1185   2.1240   2.1341
  2.1364   2.1582   2.1672   2.1846   2.1987   2.2089   2.2192   2.2254
  2.2402   2.2615   2.2693   2.2859   2.2928   2.3027   2.3091   2.3225
  2.3289   2.3348   2.3457   2.3587   2.3674   2.3732   2.3803   2.4049
  2.4206   2.4319   2.4440   2.4531   2.4559   2.4634   2.4756   2.4838
  2.4924   2.5032   2.5122   2.5258   2.5271   2.5490   2.5554   2.5626
  2.5704   2.5821   2.5827   2.5967   2.6040   2.6114   2.6152   2.6253
  2.6266   2.6420   2.6449   2.6518   2.6604   2.6679   2.6803   2.6830
  2.6928   2.6966   2.7045   2.7151   2.7284   2.7361   2.7415   2.7477
  2.7559   2.7590   2.7615   2.7702   2.7752   2.7956   2.7986   2.8058
  2.8230   2.8304   2.8496   2.8499   2.8539   2.8635   2.8656   2.8730
  2.8812   2.8870   2.8950   2.8978   2.9038   2.9126   2.9134   2.9230
  2.9315   2.9359   2.9452   2.9509   2.9583   2.9688   2.9744   2.9797
  2.9874   2.9970   3.0033   3.0074   3.0156   3.0252   3.0262   3.0328
  3.0391   3.0500   3.0610   3.0620   3.0724   3.0799   3.0847   3.0892
  3.0996   3.1001   3.1073   3.1106   3.1132   3.1184   3.1288   3.1340
  3.1424   3.1513   3.1549   3.1584   3.1614   3.1689   3.1775   3.1863
  3.1911   3.1939   3.2017   3.2067   3.2084   3.2141   3.2210   3.2286
  3.2385   3.2425   3.2437   3.2488   3.2510   3.2593   3.2596   3.2675
  3.2693   3.2758   3.2828   3.2857   3.2960   3.3003   3.3058   3.3107
  3.3131   3.3150   3.3239   3.3243   3.3273   3.3303   3.3345   3.3423
  3.3437   3.3483   3.3550   3.3592   3.3641   3.3668   3.3729   3.3757
  3.3820   3.3852   3.3884   3.3952   3.4005   3.4095   3.4127   3.4142
  3.4162   3.4260   3.4318   3.4366   3.4391   3.4446   3.4458   3.4581
  3.4637   3.4662   3.4706   3.4758   3.4800   3.4845   3.4923   3.4973
  3.5050   3.5082   3.5103   3.5145   3.5206   3.5255   3.5298   3.5329
  3.5409   3.5461   3.5517   3.5562   3.5682   3.5737   3.5783   3.5832
  3.5910   3.6026   3.6051   3.6107   3.6178   3.6193   3.6242   3.6324
  3.6336   3.6396   3.6442   3.6495   3.6524   3.6602   3.6648   3.6687
  3.6788   3.6816   3.6848   3.6981   3.7028   3.7055   3.7193   3.7231
  3.7285   3.7350   3.7352   3.7418   3.7462   3.7516   3.7525   3.7629
  3.7666   3.7704   3.7721   3.7773   3.7926   3.7962   3.8011   3.8095
  3.8133   3.8181   3.8239   3.8278   3.8330   3.8388   3.8419   3.8496
  3.8611   3.8617   3.8762   3.8779   3.8893   3.8956   3.9034   3.9126
  3.9205   3.9230   3.9342   3.9431   3.9483   3.9501   3.9576   3.9638
  3.9660   3.9759   3.9850   3.9927   3.9953   4.0104   4.0120   4.0154
  4.0223   4.0276   4.0367   4.0491   4.0557   4.0577   4.0715   4.0825
  4.0896   4.0963   4.1168   4.1220   4.1294   4.1372   4.1444   4.1468
  4.1531   4.1625   4.1699   4.1710   4.1762   4.1853   4.2036   4.2130
  4.2209   4.2302   4.2413   4.2434   4.2501   4.2615   4.2651   4.2710
  4.2730   4.2833   4.2850   4.2921   4.2955   4.2984   4.3063   4.3174
  4.3220   4.3293   4.3337   4.3422   4.3434   4.3471   4.3519   4.3652
  4.3661   4.3704   4.3767   4.3831   4.3842   4.3875   4.3958   4.4061
  4.4093   4.4207   4.4261   4.4302   4.4361   4.4451   4.4506   4.4621
  4.4729   4.4927   4.4972   4.5017   4.5172   4.5201   4.5317   4.5404
  4.5424   4.5510   4.5594   4.5641   4.5686   4.5813   4.5839   4.5919
  4.5975   4.6056   4.6110   4.6229   4.6257   4.6285   4.6294   4.6405
  4.6536   4.6688   4.6771   4.6814   4.6892   4.7039   4.7077   4.7185
  4.7332   4.7454   4.7495   4.7750   4.7893   4.7926   4.7982   4.8067
  4.8265   4.8376   4.8403   4.8492   4.8521   4.8649   4.8798   4.8847
  4.8921   4.9022   4.9254   4.9394   4.9458   4.9621   4.9695   4.9867
  4.9981   5.0049   5.0125   5.0220   5.0339   5.0420   5.0536   5.0656
  5.0726   5.0978   5.1124   5.1216   5.1253   5.1295   5.1327   5.1364
  5.1485   5.1581   5.1771   5.1871   5.1894   5.2020   5.2100   5.2289
  5.2520   5.2636   5.2782   5.2891   5.3032   5.3076   5.3236   5.3263
  5.3314   5.3361   5.3591   5.3697   5.3792   5.3852   5.4033   5.4158
  5.4337   5.4526   5.4797   5.4949   5.4985   5.5102   5.5109   5.5167
  5.5182   5.5380   5.5513   5.5549   5.5614   5.5673   5.5693   5.5727
  5.5761   5.5876   5.5949   5.6055   5.6110   5.6271   5.6288   5.6403
  5.6454   5.6509   5.6601   5.6630   5.6677   5.6730   5.6949   5.7014
  5.7116   5.7158   5.7240   5.7410   5.7572   5.7609   5.7678   5.7801
  5.7841   5.7946   5.8172   5.8316   5.8497   5.8811   5.9059   5.9081
  5.9382   5.9622   5.9730   5.9879   5.9905   6.0204   6.0402   6.0424
  6.0499   6.0622   6.1117   6.1140   6.1243   6.1414   6.1566   6.1868
  6.1928   6.2195   6.2231   6.2263   6.2535   6.2570   6.2800   6.2846
  6.3107   6.3109   6.3241   6.3506   6.3698   6.3935   6.4189   6.4861
  6.5244   6.5386   6.5671   6.5845   6.5969   6.6104   6.6358   6.6541
  6.6734   6.6755   6.8480   6.8525   6.8913   6.9032   6.9067   6.9242
  6.9291   7.0514   7.1072   7.1372   7.1670   7.1929   7.2225   7.3078
  7.3478   7.3529   7.3604   7.3797   7.4739   7.5430   7.5728   7.5845
  7.5967   7.6513   7.6577   7.6919   7.7052   7.7730   8.8798  10.1085
 10.3241  11.3132  11.5565  11.8063  11.9771  12.2700  12.4430  12.5258
 13.0059  13.2232  13.3501  13.5658  13.8099  13.9345  14.1013  14.2792
 14.3218  14.3695  14.5792  14.6112  15.0001  15.6179  15.8006  16.3307
 --------------------------------------------------------------
 
          Ground-State Mulliken Net Atomic Charges

     Atom                 Charge (a.u.)
  ----------------------------------------
      1 C                    -0.085466
      2 C                    -0.028807
      3 C                    -0.118194
      4 C                    -0.120616
      5 H                     0.199025
      6 C                     0.017912
      7 C                     0.119444
      8 C                    -0.088257
      9 C                    -0.215780
     10 C                    -0.134135
     11 C                     0.178629
     12 H                     0.190352
     13 C                     0.340577
     14 C                     0.346214
     15 N                    -0.089007
     16 C                     0.357590
     17 C                     0.390681
     18 N                    -0.084397
     19 O                    -0.499366
     20 O                    -0.511894
     21 O                    -0.498678
     22 O                    -0.420357
     23 C                    -0.205480
     24 H                     0.139349
     25 H                     0.108741
     26 H                     0.108618
     27 C                    -0.198594
     28 H                     0.135820
     29 H                     0.112644
     30 H                     0.113511
     31 C                    -0.084004
     32 S                     0.081668
     33 C                    -0.218696
     34 C                    -0.149064
     35 C                    -0.250342
     36 H                     0.188845
     37 H                     0.179110
     38 H                     0.200238
     39 H                     0.136563
     40 H                     0.136753
     41 H                     0.218852
  ----------------------------------------
  Sum of atomic charges =     0.000000

 -----------------------------------------------------------------
                    Cartesian Multipole Moments
 -----------------------------------------------------------------
    Charge (ESU x 10^10)
                 0.0000
    Dipole Moment (Debye)
         X       0.4797      Y       1.1617      Z       1.9720
       Tot       2.3385
    Quadrupole Moments (Debye-Ang)
        XX    -157.3492     XY       5.6461     YY    -187.9614
        XZ       0.8850     YZ     -11.8098     ZZ    -185.3978
    Octopole Moments (Debye-Ang^2)
       XXX     -99.0657    XXY     489.0419    XYY     -28.0872
       YYY    1728.8081    XXZ     -26.4989    XYZ       3.6009
       YYZ      44.7764    XZZ     -27.5846    YZZ     617.4345
       ZZZ     -80.6550
    Hexadecapole Moments (Debye-Ang^3)
      XXXX    -490.1326   XXXY     -97.8063   XXYY   -2612.9396
      XYYY    -109.1420   YYYY  -18022.6288   XXXZ     -25.8722
      XXYZ    -129.2695   XYYZ      -2.6976   YYYZ   -1275.7334
      XXZZ   -1104.2871   XYZZ     -28.8007   YYZZ   -4481.4040
      XZZZ     -30.1373   YZZZ    -119.4132   ZZZZ   -6582.1100
 -----------------------------------------------------------------
 Total job time:  459.23s(wall), 9351.66s(cpu) 
 Sun Sep 24 16:40:23 2023

        *************************************************************
        *                                                           *
        *  Thank you very much for using Q-Chem.  Have a nice day.  *
        *                                                           *
        *************************************************************


0 sent ACK to 0 
now end server 0 ... 
cleanup process ... done
remove work dirs ./qchem3527313.0 -- ./qchem3527313.0
rm -rf ./qchem3527313.0
rm -rf ./qchem3527313
