You are running Q-Chem version: 5.4.0

#
# job setting
#
local host:  exp-8-21
current dir: /expanse/lustre/projects/csd626/rramji/aromodel/PNDIT/Hydrogenated_Rotation_Test
input file:  Dimethyl_Naphthalene_Dicarboximide_Phi_25_Theta_200_Thiophene_Hydrogenated.qcin
output file: 
nprocs     : 1
nthreads   : 64
#
# qchem installation setting
#
QC:          /cm/shared/apps/spack/cpu/opt/spack/linux-centos8-zen2/gcc-10.2.0/qchem-5.4-akfmr7b3t57bfs6qan3padb2wnb2i7cl
QCAUX:       /cm/shared/apps/spack/cpu/opt/spack/linux-centos8-zen2/gcc-10.2.0/qchem-5.4-akfmr7b3t57bfs6qan3padb2wnb2i7cl/qcaux
QCPROG:      /cm/shared/apps/spack/cpu/opt/spack/linux-centos8-zen2/gcc-10.2.0/qchem-5.4-akfmr7b3t57bfs6qan3padb2wnb2i7cl/exe/qcprog.exe
QCPROG_S:    /cm/shared/apps/spack/cpu/opt/spack/linux-centos8-zen2/gcc-10.2.0/qchem-5.4-akfmr7b3t57bfs6qan3padb2wnb2i7cl/exe/qcprog.exe_s
PARALLEL:    -DPARALLEL
QCMPI:       mpich
#
# qchem directory setting
#
qcrun:       qchem2002387
QCSCRATCH:   .
QCLOCALSCR:  
QCTMPDIR:    .
QCFILEPREF:  ./qchem2002387
QCSAVEDIR:   
workdirs:    ./qchem2002387
workdir0:    ./qchem2002387
partmpdirs =  
#
# parallel setting
#
QCRSH:           ssh
QCMPI:           mpich
QCMPIRUN:        /cm/shared/apps/spack/cpu/opt/spack/linux-centos8-zen2/gcc-10.2.0/qchem-5.4-akfmr7b3t57bfs6qan3padb2wnb2i7cl/bin/mpi/mpirun_qchem
QCMACHINEFILE:   ./qchem2002387/hostfile
exp-8-21

#
# env setting
#
exported envs:   QC QCAUX QCSCRATCH QCRUNNAME QCFILEPREF QCPROG QCPROG_S GUIFILE

Running Job 1 of 1 Dimethyl_Naphthalene_Dicarboximide_Phi_25_Theta_200_Thiophene_Hydrogenated.qcin
qchem Dimethyl_Naphthalene_Dicarboximide_Phi_25_Theta_200_Thiophene_Hydrogenated.qcin_2002387.0 ./qchem2002387/ 1
/cm/shared/apps/spack/cpu/opt/spack/linux-centos8-zen2/gcc-10.2.0/qchem-5.4-akfmr7b3t57bfs6qan3padb2wnb2i7cl/bin/mpi/mpirun_qchem -machinefile ./qchem2002387/hostfile -np 1 /cm/shared/apps/spack/cpu/opt/spack/linux-centos8-zen2/gcc-10.2.0/qchem-5.4-akfmr7b3t57bfs6qan3padb2wnb2i7cl/exe/qcprog.exe Dimethyl_Naphthalene_Dicarboximide_Phi_25_Theta_200_Thiophene_Hydrogenated.qcin_2002387.0 ./qchem2002387/

Process 0 of 1 is on exp-8-21 - thread support 0
initial socket setup ...start
initial socket setup ...done 
now start server 0 ... 
                  Welcome to Q-Chem
     A Quantum Leap Into The Future Of Chemistry


 Q-Chem 5.4, Q-Chem, Inc., Pleasanton, CA (2021)

 License issued to: University of California, San Diego (site)

 E. Epifanovsky,  A. T. B. Gilbert,  Xintian Feng,  Joonho Lee,  Yuezhi Mao,  
 N. Mardirossian,  P. Pokhilko,  A. White,  M. Wormit,  M. P. Coons,  
 A. L. Dempwolff,  Zhengting Gan,  D. Hait,  P. R. Horn,  L. D. Jacobson,  
 I. Kaliman,  J. Kussmann,  A. W. Lange,  Ka Un Lao,  D. S. Levine,  Jie Liu,  
 S. C. McKenzie,  A. F. Morrison,  K. Nanda,  F. Plasser,  D. R. Rehn,  
 M. L. Vidal,  Zhi-Qiang You,  Ying Zhu,  B. Alam,  B. Albrecht,  
 A. Aldossary,  E. Alguire,  J. H. Andersen,  D. Barton,  K. Begam,  A. Behn,  
 Y. A. Bernard,  E. J. Berquist,  H. Burton,  A. Carreras,  K. Carter-Fenk,  
 R. Chakraborty,  A. D. Chien,  K. D. Closser,  V. Cofer-Shabica,  
 S. Dasgupta,  Jia Deng,  M. de Wergifosse,  M. Diedenhofen,  Hainam Do,  
 S. Ehlert,  Po-Tung Fang,  S. Fatehi,  Qingguo Feng,  J. Gayvert,  
 Qinghui Ge,  G. Gidofalvi,  M. Goldey,  J. Gomes,  C. Gonzalez-Espinoza,  
 S. Gulania,  A. Gunina,  M. W. D. Hanson-Heine,  P. H. P. Harbach,  
 A. W. Hauser,  M. F. Herbst,  M. Hernandez Vera,  M. Hodecker,  
 Z. C. Holden,  S. Houck,  Xunkun Huang,  Kerwin Hui,  B. C. Huynh,  
 M. Ivanov,  Hyunjun Ji,  Hanjie Jiang,  B. Kaduk,  S. Kaehler,  
 K. Khistyaev,  Jaehoon Kim,  P. Klunzinger,  Z. Koczor-Benda,  
 Joong Hoon Koh,  D. Kosenkov,  L. Koulias,  T. Kowalczyk,  C. M. Krauter,  
 K. Kue,  A. Kunitsa,  T. Kus,  A. Landau,  K. V. Lawler,  D. Lefrancois,  
 S. Lehtola,  Rain Li,  Yi-Pei Li,  Jiashu Liang,  M. Liebenthal,  
 Hung-Hsuan Lin,  You-Sheng Lin,  Fenglai Liu,  Kuan-Yu Liu,  
 M. Loipersberger,  A. Luenser,  A. Manjanath,  P. Manohar,  E. Mansoor,  
 S. F. Manzer,  Shan-Ping Mao,  A. V. Marenich,  T. Markovich,  S. Mason,  
 S. A. Maurer,  P. F. McLaughlin,  M. F. S. J. Menger,  J.-M. Mewes,  
 S. A. Mewes,  P. Morgante,  J. W. Mullinax,  T. S. Nguyen-Beck,  
 K. J. Oosterbaan,  G. Paran,  Alexander C. Paul,  Suranjan K. Paul,  
 F. Pavosevic,  Zheng Pei,  S. Prager,  E. I. Proynov,  E. Ramos,  B. Rana,  
 A. E. Rask,  A. Rettig,  R. M. Richard,  F. Rob,  E. Rossomme,  T. Scheele,  
 M. Scheurer,  M. Schneider,  N. Sergueev,  S. M. Sharada,  W. Skomorowski,  
 D. W. Small,  C. J. Stein,  Yu-Chuan Su,  E. J. Sundstrom,  Zhen Tao,  
 J. Thirman,  T. Tsuchimochi,  N. M. Tubman,  S. P. Veccham,  O. Vydrov,  
 J. Wenzel,  J. Witte,  A. Yamada,  Kun Yao,  S. Yeganeh,  S. R. Yost,  
 A. Zech,  Igor Ying Zhang,  Xing Zhang,  Yu Zhang,  D. Zuev,  
 A. Aspuru-Guzik,  A. T. Bell,  N. A. Besley,  K. B. Bravaya,  B. R. Brooks,  
 D. Casanova,  Jeng-Da Chai,  S. Coriani,  C. J. Cramer,  
 A. E. DePrince, III,  R. A. DiStasio Jr.,  A. Dreuw,  B. D. Dunietz,  
 T. R. Furlani,  W. A. Goddard III,  S. Grimme,  S. Hammes-Schiffer,  
 T. Head-Gordon,  W. J. Hehre,  Chao-Ping Hsu,  T.-C. Jagau,  Yousung Jung,  
 A. Klamt,  Jing Kong,  D. S. Lambrecht,  WanZhen Liang,  N. J. Mayhall,  
 C. W. McCurdy,  J. B. Neaton,  C. Ochsenfeld,  J. A. Parkhill,  R. Peverati,  
 V. A. Rassolov,  Yihan Shao,  L. V. Slipchenko,  T. Stauch,  R. P. Steele,  
 J. E. Subotnik,  A. J. W. Thom,  A. Tkatchenko,  D. G. Truhlar,  
 T. Van Voorhis,  T. A. Wesolowski,  K. B. Whaley,  H. L. Woodcock III,  
 P. M. Zimmerman,  S. Faraji,  P. M. W. Gill,  M. Head-Gordon,  
 J. M. Herbert,  A. I. Krylov

 Contributors to earlier versions of Q-Chem not listed above: 
 R. D. Adamson,  B. Austin,  R. Baer,  J. Baker,  G. J. O. Beran,  
 K. Brandhorst,  S. T. Brown,  E. F. C. Byrd,  A. K. Chakraborty,  
 G. K. L. Chan,  Chun-Min Chang,  Yunqing Chen,  C.-L. Cheng,  
 Siu Hung Chien,  D. M. Chipman,  D. L. Crittenden,  H. Dachsel,  
 R. J. Doerksen,  A. D. Dutoi,  R. G. Edgar,  J. Fosso-Tande,  
 L. Fusti-Molnar,  D. Ghosh,  A. Ghysels,  A. Golubeva-Zadorozhnaya,  
 J. Gonthier,  M. S. Gordon,  S. R. Gwaltney,  G. Hawkins,  J. E. Herr,  
 A. Heyden,  S. Hirata,  E. G. Hohenstein,  G. Kedziora,  F. J. Keil,  
 C. Kelley,  Jihan Kim,  R. A. King,  R. Z. Khaliullin,  P. P. Korambath,  
 W. Kurlancheek,  A. Laurent,  A. M. Lee,  M. S. Lee,  S. V. Levchenko,  
 Ching Yeh Lin,  D. Liotard,  E. Livshits,  R. C. Lochan,  I. Lotan,  
 L. A. Martinez-Martinez,  P. E. Maslen,  N. Nair,  D. P. O'Neill,  
 D. Neuhauser,  E. Neuscamman,  C. M. Oana,  R. Olivares-Amaya,  R. Olson,  
 T. M. Perrine,  B. Peters,  P. A. Pieniazek,  A. Prociuk,  Y. M. Rhee,  
 J. Ritchie,  M. A. Rohrdanz,  E. Rosta,  N. J. Russ,  H. F. Schaefer III,  
 M. W. Schmidt,  N. E. Schultz,  S. Sharma,  N. Shenvi,  C. D. Sherrill,  
 A. C. Simmonett,  A. Sodt,  T. Stein,  D. Stuck,  K. S. Thanthiriwatte,  
 V. Vanovschi,  L. Vogt,  Tao Wang,  A. Warshel,  M. A. Watson,  
 C. F. Williams,  Q. Wu,  X. Xu,  Jun Yang,  W. Zhang,  Yan Zhao

 Please cite Q-Chem as follows:
 Y. Shao et al., Mol. Phys. 113, 184-215 (2015)
 DOI: 10.1080/00268976.2014.952696

 Q-Chem 5.4.0 for Intel X86 EM64T Linux

 Parts of Q-Chem use Armadillo 9.800.1 (Horizon Scraper).
 http://arma.sourceforge.net/

 Q-Chem begins on Tue Sep 26 23:38:15 2023  

 Host: 
0

     Scratch files written to ./qchem2002387//
 May1621 |scratch|qcdevops|jenkins|workspace|build_RNUM    
 Parallel job on  1  processors
 Processing $rem in /cm/shared/apps/spack/cpu/opt/spack/linux-centos8-zen2/gcc-10.2.0/qchem-5.4-akfmr7b3t57bfs6qan3padb2wnb2i7cl/config/preferences:
 Processing $rem in /home/rramji/.qchemrc:
 Symmetry turned off for PCM/SM12/SMD calculation
 Core orbitals will be frozen

 Checking the input file for inconsistencies... 	...done.

 Q-Chem warning in module forms1/BasisType.C, line 2236:

 You are not using the predefined 5D/6D in this basis set.


--------------------------------------------------------------
User input:
--------------------------------------------------------------
$molecule
0 1
C	-0.086486	-6.741404	0.241938
C	-0.532960	-6.155638	1.468983
C	0.284733	-5.791452	-0.776651
C	-0.628455	-4.803786	1.730681
H	-0.833086	-6.821518	2.294130
C	0.184300	-4.378638	-0.502775
C	-0.271086	-3.838032	0.747353
C	0.541191	-3.413062	-1.484986
C	-0.370703	-2.426473	1.019042
C	0.446468	-2.059348	-1.226525
C	-0.000000	-1.478216	-0.000000
H	0.746717	-1.394783	-2.052666
C	0.779832	-6.187987	-2.131549
C	1.030596	-3.798164	-2.829295
N	1.115461	-5.170003	-3.057496
C	-1.119034	-4.424987	3.078712
C	-0.865151	-2.036627	2.375300
N	-1.201176	-3.049156	3.301374
O	0.916355	-7.353131	-2.498300
O	1.345486	-2.986854	-3.697195
O	-1.430379	-5.248946	3.936224
O	-1.007714	-0.878829	2.762805
C	1.599576	-5.563799	-4.384539
H	1.616121	-6.664085	-4.426636
H	2.611458	-5.147101	-4.550487
H	0.931037	-5.148785	-5.162921
C	-1.677382	-2.587487	4.608454
H	-1.896168	-3.483329	5.212668
H	-2.583531	-1.964972	4.482719
H	-0.903674	-1.962932	5.093988
C	0.000000	0.000000	0.000000
S	0.335026	0.718942	1.580530
C	1.027130	2.203226	0.904911
C	0.421617	0.904557	-0.985400
C	0.979485	2.101144	-0.493528
H	0.322049	0.690978	-2.059934
H	1.351718	2.899571	-1.152593
H	1.399246	3.001430	1.556025
H	-0.893959	-7.361589	-0.165874
H	0.794290	-7.361192	0.449423
H	-1.014686	-1.478831	-0.369880
$end

$rem
JOBTYPE		SP
EXCHANGE	HF
CORRELATION	pRIMP2
BASIS		cc-pvtz
METHOD		rimp2
AUX_BASIS	rimp2-cc-pvtz
SOLVENT_METHOD	PCM
PURECART	11111
SYMMETRY	false
MEM_TOTAL	110000
SCF_CONVERGENCE = 6
THRESH=10
GUI = 2
$end



$solvent
dielectric 4.90
$end
--------------------------------------------------------------
 ----------------------------------------------------------------
             Standard Nuclear Orientation (Angstroms)
    I     Atom           X                Y                Z
 ----------------------------------------------------------------
    1      C      -0.0864860000    -6.7414040000     0.2419380000
    2      C      -0.5329600000    -6.1556380000     1.4689830000
    3      C       0.2847330000    -5.7914520000    -0.7766510000
    4      C      -0.6284550000    -4.8037860000     1.7306810000
    5      H      -0.8330860000    -6.8215180000     2.2941300000
    6      C       0.1843000000    -4.3786380000    -0.5027750000
    7      C      -0.2710860000    -3.8380320000     0.7473530000
    8      C       0.5411910000    -3.4130620000    -1.4849860000
    9      C      -0.3707030000    -2.4264730000     1.0190420000
   10      C       0.4464680000    -2.0593480000    -1.2265250000
   11      C       0.0000000000    -1.4782160000     0.0000000000
   12      H       0.7467170000    -1.3947830000    -2.0526660000
   13      C       0.7798320000    -6.1879870000    -2.1315490000
   14      C       1.0305960000    -3.7981640000    -2.8292950000
   15      N       1.1154610000    -5.1700030000    -3.0574960000
   16      C      -1.1190340000    -4.4249870000     3.0787120000
   17      C      -0.8651510000    -2.0366270000     2.3753000000
   18      N      -1.2011760000    -3.0491560000     3.3013740000
   19      O       0.9163550000    -7.3531310000    -2.4983000000
   20      O       1.3454860000    -2.9868540000    -3.6971950000
   21      O      -1.4303790000    -5.2489460000     3.9362240000
   22      O      -1.0077140000    -0.8788290000     2.7628050000
   23      C       1.5995760000    -5.5637990000    -4.3845390000
   24      H       1.6161210000    -6.6640850000    -4.4266360000
   25      H       2.6114580000    -5.1471010000    -4.5504870000
   26      H       0.9310370000    -5.1487850000    -5.1629210000
   27      C      -1.6773820000    -2.5874870000     4.6084540000
   28      H      -1.8961680000    -3.4833290000     5.2126680000
   29      H      -2.5835310000    -1.9649720000     4.4827190000
   30      H      -0.9036740000    -1.9629320000     5.0939880000
   31      C       0.0000000000     0.0000000000     0.0000000000
   32      S       0.3350260000     0.7189420000     1.5805300000
   33      C       1.0271300000     2.2032260000     0.9049110000
   34      C       0.4216170000     0.9045570000    -0.9854000000
   35      C       0.9794850000     2.1011440000    -0.4935280000
   36      H       0.3220490000     0.6909780000    -2.0599340000
   37      H       1.3517180000     2.8995710000    -1.1525930000
   38      H       1.3992460000     3.0014300000     1.5560250000
   39      H      -0.8939590000    -7.3615890000    -0.1658740000
   40      H       0.7942900000    -7.3611920000     0.4494230000
   41      H      -1.0146860000    -1.4788310000    -0.3698800000
 ----------------------------------------------------------------
 Nuclear Repulsion Energy =        2569.08444893 hartrees
 There are       98 alpha and       98 beta electrons
 Requested basis set is cc-pVTZ
 There are 356 shells and 1010 basis functions

 Total QAlloc Memory Limit 110000 MB
 Mega-Array Size       188 MB
 MEM_STATIC part       192 MB
 Discretize the solute cavity surface with Lebedev spheres
	Using 110 Lebedev grid points for each H atom
	Using 194 Lebedev grid points for other atoms
	Atomic van der Waals radii will be scaled by 1.20
 Remove points where switching function is < 1.0e-08
 Keep 2575 surface tesserae and discard 4203 interior tesserae
 Molecular Surface Area = 361.700 Angst**2
 Requested basis set is rimp2-cc-pVTZ
 There are 770 shells and 2648 basis functions
 A cutoff of  1.0D-10 yielded  34270 shell pairs
 There are    259272 function pairs (    335522 Cartesian)
 Smallest overlap matrix eigenvalue = 8.93E-06

 Q-Chem warning in module stvman/mkSTV.C, line 323:

 Overlap eigenvalue is smaller than square root of threshold
 Use THRESH >= 12 to get rid of this warning


 Scale SEOQF with 1.000000e-01/1.000000e-02/1.000000e-01

 Standard Electronic Orientation quadrupole field applied
 Nucleus-field energy     =    -0.0000000966 hartrees
 Guess from superposition of atomic densities
 Warning:  Energy on first SCF cycle will be non-variational
 SAD guess density has 196.000000 electrons

 -----------------------------------------------------------------------
  General SCF calculation program by
  Eric Jon Sundstrom, Paul Horn, Yuezhi Mao, Dmitri Zuev, Alec White,
  David Stuck, Shaama M.S., Shane Yost, Joonho Lee, David Small,
  Daniel Levine, Susi Lehtola, Hugh Burton, Evgeny Epifanovsky,
  Bang C. Huynh
 -----------------------------------------------------------------------
 Hartree-Fock
 using 64 threads for integral computing
 -------------------------------------------------------
 OpenMP Integral computing Module                
 Release: version 1.0, May 2013, Q-Chem Inc. Pittsburgh 
 -------------------------------------------------------
 A restricted SCF calculation will be
 performed using DIIS
 SCF converges when DIIS error is below 1.0e-06
 ---------------------------------------
  Cycle       Energy         DIIS error
 ---------------------------------------
    1   -1583.1956943352      1.87e-02  
    2   -1571.1346342534      2.03e-03  
    3   -1571.4741659997      1.55e-03  
    4   -1571.6953174840      2.54e-04  
    5   -1571.7091682517      7.81e-05  
    6   -1571.7105837463      3.04e-05  
    7   -1571.7110075880      1.59e-05  
    8   -1571.7111282795      6.47e-06  
    9   -1571.7111499327      2.98e-06  
   10   -1571.7111543112      1.24e-06  
   11   -1571.7111555993      5.92e-07  Convergence criterion met
 ---------------------------------------
 SCF time:   CPU 6934.17s  wall 260.00s 

************** Final PCM Free Energy Summary **************
 G_electrostatic  =      -0.02941028 hartree =     -18.45523135 kcal/mol
 G_cavitation     =       0.00000000 hartree =       0.00000000 kcal/mol
 G_dispersion     =       0.00000000 hartree =       0.00000000 kcal/mol
 G_repulsion      =       0.00000000 hartree =       0.00000000 kcal/mol
 --------------------------------------------------
 Non-electrostatic Free Energy =       0.00000000 hartree =       0.00000000 kcal/mol
 Total                         =      -0.02941028 hartree =     -18.45523135 kcal/mol
 --------------------------------------------------
 SCF Energy (H0 + V/2)                       =   -1571.71115560 
 Solute Internal Energy (H0)                 =   -1571.68174532 
 Total Free Energy (H0 + V/2 + non-elec)     =   -1571.71115560 hartree
                                             = -986263.63581494 kcal/mol
***********************************************************

 SCF   energy in the final basis set =    -1571.7111555993
 Total energy in the final basis set =    -1571.7111555993


 --------------------------------------------------------------
  Generalized many-body perturbation theory program
  by Joonho Lee, Fazle Rob, Xintian Feng, Evgeny Epifanovsky

 No regularization used 
 (reg. param. = 0.0000e+00)
  (P|Q)^-1/2 Time:  CPU 96.66 s  wall 2.22 s

 In RI-MP2 calculation: 
 # of frozen core orbitals: 31

 Components of the RIMP2 correlation energy:
        aaaa    correlation energy =        -0.6177492089 a.u.
        abab    correlation energy =        -3.4312683835 a.u.
        bbbb    correlation energy =        -0.6177492089 a.u.
        non-Brillouin singles      =        -0.0000000000 a.u.
        total same-spin energy     =        -1.2354984179 a.u.
        total opposite-spin energy =        -3.4312683835 a.u.

 Total  RIMP2   correlation energy =        -4.6667668014 a.u.
        RIMP2         total energy =     -1576.3779224007 a.u.

 RI-MP2 Energy Time:  CPU 1979.22 s  wall 32.95 s
 
 --------------------------------------------------------------
 
                    Orbital Energies (a.u.)
 --------------------------------------------------------------
 
 Alpha MOs
 -- Occupied --
-91.9754 -20.5554 -20.5458 -20.5417 -20.5410 -15.6294 -15.6217 -11.3979
-11.3866 -11.3836 -11.3795 -11.3110 -11.3091 -11.3079 -11.3053 -11.2981
-11.2921 -11.2898 -11.2693 -11.2692 -11.2677 -11.2653 -11.2641 -11.2597
-11.2534 -11.2524 -11.2429  -8.9752  -6.6558  -6.6548  -6.6542  -1.4265
 -1.4125  -1.4011  -1.3916  -1.2654  -1.2559  -1.2310  -1.1860  -1.1486
 -1.1151  -1.0862  -1.0483  -0.9945  -0.9888  -0.9788  -0.9559  -0.9489
 -0.8974  -0.8901  -0.8786  -0.8616  -0.7920  -0.7799  -0.7738  -0.7604
 -0.7326  -0.7203  -0.7021  -0.6911  -0.6852  -0.6758  -0.6682  -0.6583
 -0.6496  -0.6459  -0.6372  -0.6328  -0.6316  -0.6314  -0.6218  -0.6060
 -0.5884  -0.5736  -0.5653  -0.5620  -0.5596  -0.5535  -0.5521  -0.5490
 -0.5481  -0.5450  -0.5226  -0.5115  -0.5103  -0.4861  -0.4750  -0.4622
 -0.4554  -0.4444  -0.4371  -0.4249  -0.4085  -0.4068  -0.3548  -0.3435
 -0.3291  -0.2775
 -- Virtual --
  0.0111   0.0413   0.0888   0.0979   0.1389   0.1500   0.1587   0.1603
  0.1634   0.1728   0.1797   0.1812   0.1865   0.1908   0.1997   0.2037
  0.2158   0.2221   0.2282   0.2306   0.2311   0.2361   0.2590   0.2625
  0.2712   0.2760   0.3026   0.3088   0.3154   0.3215   0.3226   0.3289
  0.3383   0.3433   0.3465   0.3486   0.3534   0.3632   0.3667   0.3685
  0.3734   0.3821   0.3851   0.3892   0.3919   0.3958   0.4046   0.4137
  0.4164   0.4250   0.4291   0.4322   0.4361   0.4435   0.4478   0.4495
  0.4527   0.4584   0.4654   0.4712   0.4754   0.4869   0.4894   0.4932
  0.4952   0.5040   0.5093   0.5104   0.5116   0.5188   0.5229   0.5261
  0.5357   0.5391   0.5466   0.5540   0.5555   0.5591   0.5627   0.5677
  0.5724   0.5745   0.5821   0.5854   0.5913   0.5927   0.5979   0.6004
  0.6033   0.6063   0.6082   0.6110   0.6151   0.6188   0.6228   0.6267
  0.6304   0.6320   0.6357   0.6373   0.6393   0.6433   0.6472   0.6556
  0.6578   0.6728   0.6793   0.6852   0.6904   0.6954   0.6969   0.7045
  0.7075   0.7238   0.7300   0.7363   0.7393   0.7422   0.7564   0.7615
  0.7672   0.7679   0.7735   0.7819   0.7856   0.8001   0.8025   0.8067
  0.8134   0.8229   0.8238   0.8311   0.8328   0.8412   0.8435   0.8489
  0.8500   0.8548   0.8645   0.8696   0.8732   0.8814   0.8859   0.8913
  0.8947   0.9057   0.9085   0.9151   0.9173   0.9214   0.9262   0.9328
  0.9351   0.9359   0.9498   0.9608   0.9642   0.9670   0.9768   0.9817
  0.9832   0.9859   0.9932   0.9979   1.0041   1.0071   1.0109   1.0173
  1.0276   1.0355   1.0398   1.0412   1.0440   1.0510   1.0597   1.0645
  1.0648   1.0732   1.0769   1.0810   1.0852   1.0908   1.0961   1.1009
  1.1097   1.1134   1.1215   1.1272   1.1297   1.1306   1.1358   1.1469
  1.1476   1.1544   1.1618   1.1653   1.1698   1.1757   1.1829   1.1921
  1.1924   1.1998   1.2019   1.2084   1.2136   1.2149   1.2174   1.2267
  1.2350   1.2372   1.2408   1.2489   1.2493   1.2620   1.2719   1.2783
  1.2820   1.2833   1.3006   1.3082   1.3098   1.3261   1.3366   1.3416
  1.3450   1.3474   1.3597   1.3617   1.3694   1.3775   1.3830   1.3857
  1.3897   1.3936   1.3959   1.4085   1.4136   1.4214   1.4348   1.4419
  1.4517   1.4530   1.4619   1.4724   1.4758   1.4806   1.4879   1.4937
  1.5010   1.5043   1.5090   1.5149   1.5211   1.5288   1.5329   1.5373
  1.5478   1.5516   1.5568   1.5583   1.5686   1.5709   1.5729   1.5794
  1.5909   1.5976   1.6018   1.6109   1.6176   1.6221   1.6402   1.6432
  1.6445   1.6584   1.6653   1.6775   1.6860   1.6893   1.6960   1.7033
  1.7057   1.7153   1.7251   1.7323   1.7329   1.7403   1.7528   1.7551
  1.7638   1.7711   1.7810   1.7839   1.7965   1.8021   1.8109   1.8178
  1.8229   1.8322   1.8372   1.8454   1.8567   1.8623   1.8690   1.8720
  1.8750   1.8801   1.8890   1.8999   1.9087   1.9205   1.9353   1.9472
  1.9627   1.9670   1.9678   1.9839   1.9934   1.9984   2.0118   2.0225
  2.0420   2.0559   2.0671   2.0795   2.0932   2.1031   2.1242   2.1359
  2.1443   2.1525   2.1622   2.1759   2.1812   2.2135   2.2235   2.2328
  2.2358   2.2434   2.2671   2.2846   2.2864   2.2944   2.3005   2.3125
  2.3163   2.3273   2.3363   2.3497   2.3618   2.3679   2.3847   2.4077
  2.4166   2.4231   2.4348   2.4449   2.4570   2.4642   2.4656   2.4743
  2.4815   2.4936   2.5019   2.5169   2.5248   2.5401   2.5419   2.5578
  2.5674   2.5755   2.5763   2.5853   2.5956   2.6014   2.6111   2.6160
  2.6253   2.6315   2.6429   2.6437   2.6598   2.6637   2.6711   2.6748
  2.6818   2.6906   2.6944   2.7169   2.7190   2.7257   2.7376   2.7390
  2.7415   2.7522   2.7561   2.7622   2.7680   2.7757   2.7821   2.7874
  2.8025   2.8187   2.8394   2.8396   2.8514   2.8572   2.8624   2.8650
  2.8742   2.8802   2.8851   2.8949   2.8983   2.9001   2.9072   2.9150
  2.9200   2.9243   2.9317   2.9380   2.9499   2.9648   2.9710   2.9715
  2.9811   2.9911   2.9985   3.0002   3.0123   3.0151   3.0220   3.0297
  3.0340   3.0485   3.0521   3.0545   3.0620   3.0692   3.0750   3.0884
  3.0957   3.0996   3.1006   3.1068   3.1085   3.1113   3.1141   3.1260
  3.1293   3.1376   3.1439   3.1508   3.1589   3.1602   3.1684   3.1738
  3.1809   3.1829   3.1972   3.2017   3.2054   3.2143   3.2168   3.2266
  3.2280   3.2342   3.2390   3.2424   3.2508   3.2533   3.2627   3.2637
  3.2694   3.2769   3.2795   3.2818   3.2856   3.2902   3.2988   3.3068
  3.3110   3.3138   3.3154   3.3202   3.3240   3.3295   3.3369   3.3385
  3.3462   3.3509   3.3521   3.3555   3.3624   3.3656   3.3700   3.3772
  3.3795   3.3854   3.3900   3.3949   3.3973   3.4046   3.4053   3.4086
  3.4156   3.4242   3.4259   3.4307   3.4310   3.4408   3.4433   3.4478
  3.4545   3.4606   3.4716   3.4737   3.4775   3.4828   3.4863   3.4929
  3.4957   3.5008   3.5051   3.5101   3.5154   3.5191   3.5251   3.5290
  3.5324   3.5350   3.5431   3.5564   3.5570   3.5726   3.5747   3.5792
  3.5854   3.5894   3.5973   3.6082   3.6095   3.6188   3.6222   3.6284
  3.6304   3.6336   3.6369   3.6426   3.6464   3.6532   3.6549   3.6591
  3.6653   3.6720   3.6836   3.6898   3.6907   3.6944   3.7083   3.7134
  3.7158   3.7278   3.7301   3.7368   3.7394   3.7465   3.7529   3.7546
  3.7615   3.7674   3.7734   3.7783   3.7851   3.7865   3.7965   3.8007
  3.8072   3.8120   3.8149   3.8271   3.8308   3.8355   3.8386   3.8439
  3.8509   3.8589   3.8682   3.8806   3.8810   3.8858   3.8932   3.9080
  3.9159   3.9196   3.9230   3.9306   3.9431   3.9476   3.9523   3.9560
  3.9648   3.9700   3.9764   3.9786   3.9904   3.9988   4.0000   4.0121
  4.0137   4.0299   4.0316   4.0431   4.0461   4.0583   4.0624   4.0770
  4.0929   4.1024   4.1122   4.1202   4.1275   4.1300   4.1415   4.1481
  4.1548   4.1582   4.1648   4.1665   4.1741   4.1778   4.1898   4.2079
  4.2137   4.2327   4.2369   4.2416   4.2454   4.2507   4.2598   4.2628
  4.2712   4.2831   4.2849   4.2876   4.2950   4.2995   4.3027   4.3131
  4.3158   4.3246   4.3279   4.3395   4.3421   4.3459   4.3484   4.3567
  4.3628   4.3692   4.3708   4.3739   4.3809   4.3866   4.3917   4.3950
  4.4017   4.4115   4.4133   4.4224   4.4312   4.4403   4.4457   4.4550
  4.4708   4.4845   4.4892   4.4978   4.5102   4.5173   4.5261   4.5300
  4.5339   4.5391   4.5474   4.5546   4.5632   4.5736   4.5851   4.5869
  4.5931   4.5976   4.6032   4.6154   4.6208   4.6265   4.6328   4.6436
  4.6437   4.6652   4.6714   4.6834   4.6941   4.7003   4.7047   4.7090
  4.7203   4.7331   4.7390   4.7766   4.7810   4.7865   4.7877   4.8021
  4.8203   4.8235   4.8373   4.8473   4.8505   4.8603   4.8710   4.8807
  4.8917   4.9016   4.9082   4.9265   4.9344   4.9466   4.9656   4.9789
  4.9919   5.0090   5.0133   5.0308   5.0325   5.0369   5.0478   5.0648
  5.0786   5.0954   5.1089   5.1193   5.1216   5.1257   5.1351   5.1417
  5.1500   5.1562   5.1729   5.1823   5.1911   5.2016   5.2169   5.2237
  5.2531   5.2618   5.2755   5.2853   5.3018   5.3059   5.3184   5.3297
  5.3306   5.3397   5.3530   5.3705   5.3774   5.3920   5.4040   5.4158
  5.4383   5.4539   5.4599   5.4891   5.4987   5.5105   5.5136   5.5166
  5.5203   5.5279   5.5445   5.5543   5.5593   5.5622   5.5668   5.5765
  5.5802   5.5858   5.5915   5.6046   5.6086   5.6173   5.6258   5.6359
  5.6436   5.6495   5.6602   5.6619   5.6661   5.6685   5.6936   5.6970
  5.7000   5.7128   5.7400   5.7415   5.7525   5.7598   5.7686   5.7736
  5.7854   5.7964   5.8126   5.8296   5.8431   5.8616   5.8893   5.9173
  5.9270   5.9499   5.9719   5.9908   6.0175   6.0306   6.0394   6.0471
  6.0492   6.0555   6.1046   6.1117   6.1244   6.1436   6.1580   6.1868
  6.1954   6.2194   6.2221   6.2253   6.2451   6.2507   6.2807   6.2826
  6.3007   6.3111   6.3237   6.3468   6.3675   6.3792   6.4379   6.4856
  6.5203   6.5338   6.5719   6.5824   6.6003   6.6203   6.6385   6.6569
  6.6736   6.7006   6.8492   6.8526   6.8896   6.9024   6.9062   6.9266
  6.9278   7.0049   7.1051   7.1248   7.1538   7.1955   7.2051   7.2425
  7.3471   7.3515   7.3580   7.3632   7.4751   7.5409   7.5710   7.5829
  7.5932   7.6197   7.6544   7.6862   7.6912   7.7160   8.8806  10.1006
 10.3224  11.2806  11.5316  11.7798  12.0164  12.2059  12.4401  12.4679
 12.9415  13.2495  13.3093  13.5685  13.8091  13.9300  14.0785  14.3070
 14.3533  14.3970  14.5472  14.6528  15.0060  15.6299  15.8035  16.3121
 --------------------------------------------------------------
 
          Ground-State Mulliken Net Atomic Charges

     Atom                 Charge (a.u.)
  ----------------------------------------
      1 C                    -0.084318
      2 C                    -0.029795
      3 C                    -0.107708
      4 C                    -0.123814
      5 H                     0.199553
      6 C                     0.025435
      7 C                     0.124382
      8 C                    -0.092969
      9 C                    -0.173577
     10 C                    -0.152864
     11 C                     0.198657
     12 H                     0.189671
     13 C                     0.340765
     14 C                     0.349413
     15 N                    -0.090130
     16 C                     0.357502
     17 C                     0.374911
     18 N                    -0.090071
     19 O                    -0.494915
     20 O                    -0.508939
     21 O                    -0.500212
     22 O                    -0.471967
     23 C                    -0.204991
     24 H                     0.139605
     25 H                     0.109388
     26 H                     0.109084
     27 C                    -0.197909
     28 H                     0.134375
     29 H                     0.112014
     30 H                     0.112879
     31 C                    -0.000498
     32 S                     0.078416
     33 C                    -0.248900
     34 C                    -0.243125
     35 C                    -0.200433
     36 H                     0.179806
     37 H                     0.186419
     38 H                     0.205129
     39 H                     0.137823
     40 H                     0.138357
     41 H                     0.213553
  ----------------------------------------
  Sum of atomic charges =     0.000000

 -----------------------------------------------------------------
                    Cartesian Multipole Moments
 -----------------------------------------------------------------
    Charge (ESU x 10^10)
                 0.0000
    Dipole Moment (Debye)
         X      -0.8519      Y       1.1580      Z       0.3850
       Tot       1.4883
    Quadrupole Moments (Debye-Ang)
        XX    -164.6481     XY       8.1521     YY    -180.1653
        XZ      10.2523     YZ      -8.2381     ZZ    -184.0267
    Octopole Moments (Debye-Ang^2)
       XXX     -46.4749    XXY     482.4578    XYY     -25.6528
       YYY    1679.9675    XXZ     -30.4229    XYZ     -41.1757
       YYZ      34.4710    XZZ     -11.7333    YZZ     592.5261
       ZZZ     -90.9697
    Hexadecapole Moments (Debye-Ang^3)
      XXXX    -975.4663   XXXY      15.8646   XXYY   -2839.1703
      XYYY     353.0727   YYYY  -17989.9209   XXXZ     916.5547
      XXYZ     -94.5946   XYYZ     595.2426   YYYZ   -1152.2700
      XXZZ   -1125.8284   XYZZ     -75.2851   YYZZ   -4273.0789
      XZZZ    1020.0278   YZZZ    -130.1512   ZZZZ   -5846.9281
 -----------------------------------------------------------------
 Total job time:  301.50s(wall), 9234.94s(cpu) 
 Tue Sep 26 23:43:16 2023

        *************************************************************
        *                                                           *
        *  Thank you very much for using Q-Chem.  Have a nice day.  *
        *                                                           *
        *************************************************************


0 sent ACK to 0 
now end server 0 ... 
cleanup process ... done
remove work dirs ./qchem2002387.0 -- ./qchem2002387.0
rm -rf ./qchem2002387.0
rm -rf ./qchem2002387
