You are running Q-Chem version: 5.4.0

#
# job setting
#
local host:  exp-4-53
current dir: /expanse/lustre/projects/csd626/rramji/aromodel/PNDIT/Hydrogenated_Rotation_Test
input file:  Dimethyl_Naphthalene_Dicarboximide_Phi_15_Theta_20_Thiophene_Hydrogenated.qcin
output file: 
nprocs     : 1
nthreads   : 64
#
# qchem installation setting
#
QC:          /cm/shared/apps/spack/cpu/opt/spack/linux-centos8-zen2/gcc-10.2.0/qchem-5.4-akfmr7b3t57bfs6qan3padb2wnb2i7cl
QCAUX:       /cm/shared/apps/spack/cpu/opt/spack/linux-centos8-zen2/gcc-10.2.0/qchem-5.4-akfmr7b3t57bfs6qan3padb2wnb2i7cl/qcaux
QCPROG:      /cm/shared/apps/spack/cpu/opt/spack/linux-centos8-zen2/gcc-10.2.0/qchem-5.4-akfmr7b3t57bfs6qan3padb2wnb2i7cl/exe/qcprog.exe
QCPROG_S:    /cm/shared/apps/spack/cpu/opt/spack/linux-centos8-zen2/gcc-10.2.0/qchem-5.4-akfmr7b3t57bfs6qan3padb2wnb2i7cl/exe/qcprog.exe_s
PARALLEL:    -DPARALLEL
QCMPI:       mpich
#
# qchem directory setting
#
qcrun:       qchem1587869
QCSCRATCH:   .
QCLOCALSCR:  
QCTMPDIR:    .
QCFILEPREF:  ./qchem1587869
QCSAVEDIR:   
workdirs:    ./qchem1587869
workdir0:    ./qchem1587869
partmpdirs =  
#
# parallel setting
#
QCRSH:           ssh
QCMPI:           mpich
QCMPIRUN:        /cm/shared/apps/spack/cpu/opt/spack/linux-centos8-zen2/gcc-10.2.0/qchem-5.4-akfmr7b3t57bfs6qan3padb2wnb2i7cl/bin/mpi/mpirun_qchem
QCMACHINEFILE:   ./qchem1587869/hostfile
exp-4-53

#
# env setting
#
exported envs:   QC QCAUX QCSCRATCH QCRUNNAME QCFILEPREF QCPROG QCPROG_S GUIFILE

Running Job 1 of 1 Dimethyl_Naphthalene_Dicarboximide_Phi_15_Theta_20_Thiophene_Hydrogenated.qcin
qchem Dimethyl_Naphthalene_Dicarboximide_Phi_15_Theta_20_Thiophene_Hydrogenated.qcin_1587869.0 ./qchem1587869/ 1
/cm/shared/apps/spack/cpu/opt/spack/linux-centos8-zen2/gcc-10.2.0/qchem-5.4-akfmr7b3t57bfs6qan3padb2wnb2i7cl/bin/mpi/mpirun_qchem -machinefile ./qchem1587869/hostfile -np 1 /cm/shared/apps/spack/cpu/opt/spack/linux-centos8-zen2/gcc-10.2.0/qchem-5.4-akfmr7b3t57bfs6qan3padb2wnb2i7cl/exe/qcprog.exe Dimethyl_Naphthalene_Dicarboximide_Phi_15_Theta_20_Thiophene_Hydrogenated.qcin_1587869.0 ./qchem1587869/

Process 0 of 1 is on exp-4-53 - thread support 0
initial socket setup ...start
initial socket setup ...done 
now start server 0 ... 
                  Welcome to Q-Chem
     A Quantum Leap Into The Future Of Chemistry


 Q-Chem 5.4, Q-Chem, Inc., Pleasanton, CA (2021)

 License issued to: University of California, San Diego (site)

 E. Epifanovsky,  A. T. B. Gilbert,  Xintian Feng,  Joonho Lee,  Yuezhi Mao,  
 N. Mardirossian,  P. Pokhilko,  A. White,  M. Wormit,  M. P. Coons,  
 A. L. Dempwolff,  Zhengting Gan,  D. Hait,  P. R. Horn,  L. D. Jacobson,  
 I. Kaliman,  J. Kussmann,  A. W. Lange,  Ka Un Lao,  D. S. Levine,  Jie Liu,  
 S. C. McKenzie,  A. F. Morrison,  K. Nanda,  F. Plasser,  D. R. Rehn,  
 M. L. Vidal,  Zhi-Qiang You,  Ying Zhu,  B. Alam,  B. Albrecht,  
 A. Aldossary,  E. Alguire,  J. H. Andersen,  D. Barton,  K. Begam,  A. Behn,  
 Y. A. Bernard,  E. J. Berquist,  H. Burton,  A. Carreras,  K. Carter-Fenk,  
 R. Chakraborty,  A. D. Chien,  K. D. Closser,  V. Cofer-Shabica,  
 S. Dasgupta,  Jia Deng,  M. de Wergifosse,  M. Diedenhofen,  Hainam Do,  
 S. Ehlert,  Po-Tung Fang,  S. Fatehi,  Qingguo Feng,  J. Gayvert,  
 Qinghui Ge,  G. Gidofalvi,  M. Goldey,  J. Gomes,  C. Gonzalez-Espinoza,  
 S. Gulania,  A. Gunina,  M. W. D. Hanson-Heine,  P. H. P. Harbach,  
 A. W. Hauser,  M. F. Herbst,  M. Hernandez Vera,  M. Hodecker,  
 Z. C. Holden,  S. Houck,  Xunkun Huang,  Kerwin Hui,  B. C. Huynh,  
 M. Ivanov,  Hyunjun Ji,  Hanjie Jiang,  B. Kaduk,  S. Kaehler,  
 K. Khistyaev,  Jaehoon Kim,  P. Klunzinger,  Z. Koczor-Benda,  
 Joong Hoon Koh,  D. Kosenkov,  L. Koulias,  T. Kowalczyk,  C. M. Krauter,  
 K. Kue,  A. Kunitsa,  T. Kus,  A. Landau,  K. V. Lawler,  D. Lefrancois,  
 S. Lehtola,  Rain Li,  Yi-Pei Li,  Jiashu Liang,  M. Liebenthal,  
 Hung-Hsuan Lin,  You-Sheng Lin,  Fenglai Liu,  Kuan-Yu Liu,  
 M. Loipersberger,  A. Luenser,  A. Manjanath,  P. Manohar,  E. Mansoor,  
 S. F. Manzer,  Shan-Ping Mao,  A. V. Marenich,  T. Markovich,  S. Mason,  
 S. A. Maurer,  P. F. McLaughlin,  M. F. S. J. Menger,  J.-M. Mewes,  
 S. A. Mewes,  P. Morgante,  J. W. Mullinax,  T. S. Nguyen-Beck,  
 K. J. Oosterbaan,  G. Paran,  Alexander C. Paul,  Suranjan K. Paul,  
 F. Pavosevic,  Zheng Pei,  S. Prager,  E. I. Proynov,  E. Ramos,  B. Rana,  
 A. E. Rask,  A. Rettig,  R. M. Richard,  F. Rob,  E. Rossomme,  T. Scheele,  
 M. Scheurer,  M. Schneider,  N. Sergueev,  S. M. Sharada,  W. Skomorowski,  
 D. W. Small,  C. J. Stein,  Yu-Chuan Su,  E. J. Sundstrom,  Zhen Tao,  
 J. Thirman,  T. Tsuchimochi,  N. M. Tubman,  S. P. Veccham,  O. Vydrov,  
 J. Wenzel,  J. Witte,  A. Yamada,  Kun Yao,  S. Yeganeh,  S. R. Yost,  
 A. Zech,  Igor Ying Zhang,  Xing Zhang,  Yu Zhang,  D. Zuev,  
 A. Aspuru-Guzik,  A. T. Bell,  N. A. Besley,  K. B. Bravaya,  B. R. Brooks,  
 D. Casanova,  Jeng-Da Chai,  S. Coriani,  C. J. Cramer,  
 A. E. DePrince, III,  R. A. DiStasio Jr.,  A. Dreuw,  B. D. Dunietz,  
 T. R. Furlani,  W. A. Goddard III,  S. Grimme,  S. Hammes-Schiffer,  
 T. Head-Gordon,  W. J. Hehre,  Chao-Ping Hsu,  T.-C. Jagau,  Yousung Jung,  
 A. Klamt,  Jing Kong,  D. S. Lambrecht,  WanZhen Liang,  N. J. Mayhall,  
 C. W. McCurdy,  J. B. Neaton,  C. Ochsenfeld,  J. A. Parkhill,  R. Peverati,  
 V. A. Rassolov,  Yihan Shao,  L. V. Slipchenko,  T. Stauch,  R. P. Steele,  
 J. E. Subotnik,  A. J. W. Thom,  A. Tkatchenko,  D. G. Truhlar,  
 T. Van Voorhis,  T. A. Wesolowski,  K. B. Whaley,  H. L. Woodcock III,  
 P. M. Zimmerman,  S. Faraji,  P. M. W. Gill,  M. Head-Gordon,  
 J. M. Herbert,  A. I. Krylov

 Contributors to earlier versions of Q-Chem not listed above: 
 R. D. Adamson,  B. Austin,  R. Baer,  J. Baker,  G. J. O. Beran,  
 K. Brandhorst,  S. T. Brown,  E. F. C. Byrd,  A. K. Chakraborty,  
 G. K. L. Chan,  Chun-Min Chang,  Yunqing Chen,  C.-L. Cheng,  
 Siu Hung Chien,  D. M. Chipman,  D. L. Crittenden,  H. Dachsel,  
 R. J. Doerksen,  A. D. Dutoi,  R. G. Edgar,  J. Fosso-Tande,  
 L. Fusti-Molnar,  D. Ghosh,  A. Ghysels,  A. Golubeva-Zadorozhnaya,  
 J. Gonthier,  M. S. Gordon,  S. R. Gwaltney,  G. Hawkins,  J. E. Herr,  
 A. Heyden,  S. Hirata,  E. G. Hohenstein,  G. Kedziora,  F. J. Keil,  
 C. Kelley,  Jihan Kim,  R. A. King,  R. Z. Khaliullin,  P. P. Korambath,  
 W. Kurlancheek,  A. Laurent,  A. M. Lee,  M. S. Lee,  S. V. Levchenko,  
 Ching Yeh Lin,  D. Liotard,  E. Livshits,  R. C. Lochan,  I. Lotan,  
 L. A. Martinez-Martinez,  P. E. Maslen,  N. Nair,  D. P. O'Neill,  
 D. Neuhauser,  E. Neuscamman,  C. M. Oana,  R. Olivares-Amaya,  R. Olson,  
 T. M. Perrine,  B. Peters,  P. A. Pieniazek,  A. Prociuk,  Y. M. Rhee,  
 J. Ritchie,  M. A. Rohrdanz,  E. Rosta,  N. J. Russ,  H. F. Schaefer III,  
 M. W. Schmidt,  N. E. Schultz,  S. Sharma,  N. Shenvi,  C. D. Sherrill,  
 A. C. Simmonett,  A. Sodt,  T. Stein,  D. Stuck,  K. S. Thanthiriwatte,  
 V. Vanovschi,  L. Vogt,  Tao Wang,  A. Warshel,  M. A. Watson,  
 C. F. Williams,  Q. Wu,  X. Xu,  Jun Yang,  W. Zhang,  Yan Zhao

 Please cite Q-Chem as follows:
 Y. Shao et al., Mol. Phys. 113, 184-215 (2015)
 DOI: 10.1080/00268976.2014.952696

 Q-Chem 5.4.0 for Intel X86 EM64T Linux

 Parts of Q-Chem use Armadillo 9.800.1 (Horizon Scraper).
 http://arma.sourceforge.net/

 Q-Chem begins on Tue Sep 26 22:03:51 2023  

 Host: 
0

     Scratch files written to ./qchem1587869//
 May1621 |scratch|qcdevops|jenkins|workspace|build_RNUM    
 Parallel job on  1  processors
 Processing $rem in /cm/shared/apps/spack/cpu/opt/spack/linux-centos8-zen2/gcc-10.2.0/qchem-5.4-akfmr7b3t57bfs6qan3padb2wnb2i7cl/config/preferences:
 Processing $rem in /home/rramji/.qchemrc:
 Symmetry turned off for PCM/SM12/SMD calculation
 Core orbitals will be frozen

 Checking the input file for inconsistencies... 	...done.

 Q-Chem warning in module forms1/BasisType.C, line 2236:

 You are not using the predefined 5D/6D in this basis set.


--------------------------------------------------------------
User input:
--------------------------------------------------------------
$molecule
0 1
C	0.086486	-6.741404	-0.241938
C	0.532960	-6.155638	-1.468983
C	-0.284733	-5.791452	0.776651
C	0.628455	-4.803786	-1.730681
H	0.833086	-6.821518	-2.294130
C	-0.184300	-4.378638	0.502775
C	0.271086	-3.838032	-0.747353
C	-0.541191	-3.413062	1.484986
C	0.370703	-2.426473	-1.019042
C	-0.446468	-2.059348	1.226525
C	0.000000	-1.478216	0.000000
H	-0.746717	-1.394783	2.052666
C	-0.779832	-6.187987	2.131549
C	-1.030596	-3.798164	2.829295
N	-1.115461	-5.170003	3.057496
C	1.119034	-4.424987	-3.078712
C	0.865151	-2.036627	-2.375300
N	1.201176	-3.049156	-3.301374
O	-0.916355	-7.353131	2.498300
O	-1.345486	-2.986854	3.697195
O	1.430379	-5.248946	-3.936224
O	1.007714	-0.878829	-2.762805
C	-1.599576	-5.563799	4.384539
H	-1.616121	-6.664085	4.426636
H	-2.611458	-5.147101	4.550487
H	-0.931037	-5.148785	5.162921
C	1.677382	-2.587487	-4.608454
H	1.896168	-3.483329	-5.212668
H	2.583531	-1.964972	-4.482719
H	0.903674	-1.962932	-5.093988
C	0.000000	0.000000	0.000000
S	0.205093	0.766196	1.580530
C	0.628939	2.348114	0.904911
C	0.258137	0.964028	-0.985400
C	0.599745	2.239309	-0.493528
H	0.197169	0.736404	-2.059934
H	0.827678	3.090243	-1.152593
H	0.856796	3.198808	1.556025
H	0.893959	-7.361589	0.165874
H	-0.794290	-7.361192	-0.449423
H	1.014686	-1.478831	0.369880
$end

$rem
JOBTYPE		SP
EXCHANGE	HF
CORRELATION	pRIMP2
BASIS		cc-pvtz
METHOD		rimp2
AUX_BASIS	rimp2-cc-pvtz
SOLVENT_METHOD	PCM
PURECART	11111
SYMMETRY	false
MEM_TOTAL	110000
SCF_CONVERGENCE = 6
THRESH=10
GUI = 2
$end



$solvent
dielectric 4.90
$end
--------------------------------------------------------------
 ----------------------------------------------------------------
             Standard Nuclear Orientation (Angstroms)
    I     Atom           X                Y                Z
 ----------------------------------------------------------------
    1      C       0.0864860000    -6.7414040000    -0.2419380000
    2      C       0.5329600000    -6.1556380000    -1.4689830000
    3      C      -0.2847330000    -5.7914520000     0.7766510000
    4      C       0.6284550000    -4.8037860000    -1.7306810000
    5      H       0.8330860000    -6.8215180000    -2.2941300000
    6      C      -0.1843000000    -4.3786380000     0.5027750000
    7      C       0.2710860000    -3.8380320000    -0.7473530000
    8      C      -0.5411910000    -3.4130620000     1.4849860000
    9      C       0.3707030000    -2.4264730000    -1.0190420000
   10      C      -0.4464680000    -2.0593480000     1.2265250000
   11      C       0.0000000000    -1.4782160000     0.0000000000
   12      H      -0.7467170000    -1.3947830000     2.0526660000
   13      C      -0.7798320000    -6.1879870000     2.1315490000
   14      C      -1.0305960000    -3.7981640000     2.8292950000
   15      N      -1.1154610000    -5.1700030000     3.0574960000
   16      C       1.1190340000    -4.4249870000    -3.0787120000
   17      C       0.8651510000    -2.0366270000    -2.3753000000
   18      N       1.2011760000    -3.0491560000    -3.3013740000
   19      O      -0.9163550000    -7.3531310000     2.4983000000
   20      O      -1.3454860000    -2.9868540000     3.6971950000
   21      O       1.4303790000    -5.2489460000    -3.9362240000
   22      O       1.0077140000    -0.8788290000    -2.7628050000
   23      C      -1.5995760000    -5.5637990000     4.3845390000
   24      H      -1.6161210000    -6.6640850000     4.4266360000
   25      H      -2.6114580000    -5.1471010000     4.5504870000
   26      H      -0.9310370000    -5.1487850000     5.1629210000
   27      C       1.6773820000    -2.5874870000    -4.6084540000
   28      H       1.8961680000    -3.4833290000    -5.2126680000
   29      H       2.5835310000    -1.9649720000    -4.4827190000
   30      H       0.9036740000    -1.9629320000    -5.0939880000
   31      C       0.0000000000     0.0000000000     0.0000000000
   32      S       0.2050930000     0.7661960000     1.5805300000
   33      C       0.6289390000     2.3481140000     0.9049110000
   34      C       0.2581370000     0.9640280000    -0.9854000000
   35      C       0.5997450000     2.2393090000    -0.4935280000
   36      H       0.1971690000     0.7364040000    -2.0599340000
   37      H       0.8276780000     3.0902430000    -1.1525930000
   38      H       0.8567960000     3.1988080000     1.5560250000
   39      H       0.8939590000    -7.3615890000     0.1658740000
   40      H      -0.7942900000    -7.3611920000    -0.4494230000
   41      H       1.0146860000    -1.4788310000     0.3698800000
 ----------------------------------------------------------------
 Nuclear Repulsion Energy =        2555.57023500 hartrees
 There are       98 alpha and       98 beta electrons
 Requested basis set is cc-pVTZ
 There are 356 shells and 1010 basis functions

 Total QAlloc Memory Limit 110000 MB
 Mega-Array Size       188 MB
 MEM_STATIC part       192 MB
 Discretize the solute cavity surface with Lebedev spheres
	Using 110 Lebedev grid points for each H atom
	Using 194 Lebedev grid points for other atoms
	Atomic van der Waals radii will be scaled by 1.20
 Remove points where switching function is < 1.0e-08
 Keep 2566 surface tesserae and discard 4212 interior tesserae
 Molecular Surface Area = 362.863 Angst**2
 Requested basis set is rimp2-cc-pVTZ
 There are 770 shells and 2648 basis functions
 A cutoff of  1.0D-10 yielded  34283 shell pairs
 There are    259335 function pairs (    335666 Cartesian)
 Smallest overlap matrix eigenvalue = 9.28E-06

 Q-Chem warning in module stvman/mkSTV.C, line 323:

 Overlap eigenvalue is smaller than square root of threshold
 Use THRESH >= 12 to get rid of this warning


 Scale SEOQF with 1.000000e-01/1.000000e-02/1.000000e-01

 Standard Electronic Orientation quadrupole field applied
 Nucleus-field energy     =    -0.0000000969 hartrees
 Guess from superposition of atomic densities
 Warning:  Energy on first SCF cycle will be non-variational
 SAD guess density has 196.000000 electrons

 -----------------------------------------------------------------------
  General SCF calculation program by
  Eric Jon Sundstrom, Paul Horn, Yuezhi Mao, Dmitri Zuev, Alec White,
  David Stuck, Shaama M.S., Shane Yost, Joonho Lee, David Small,
  Daniel Levine, Susi Lehtola, Hugh Burton, Evgeny Epifanovsky,
  Bang C. Huynh
 -----------------------------------------------------------------------
 Hartree-Fock
 using 64 threads for integral computing
 -------------------------------------------------------
 OpenMP Integral computing Module                
 Release: version 1.0, May 2013, Q-Chem Inc. Pittsburgh 
 -------------------------------------------------------
 A restricted SCF calculation will be
 performed using DIIS
 SCF converges when DIIS error is below 1.0e-06
 ---------------------------------------
  Cycle       Energy         DIIS error
 ---------------------------------------
    1   -1583.1867915520      1.87e-02  
    2   -1571.1511171730      2.03e-03  
    3   -1571.4933872187      1.55e-03  
    4   -1571.7160293736      2.54e-04  
    5   -1571.7299295099      7.88e-05  
    6   -1571.7313717148      3.05e-05  
    7   -1571.7318009526      1.56e-05  
    8   -1571.7319181257      6.16e-06  
    9   -1571.7319379761      2.87e-06  
   10   -1571.7319418537      1.22e-06  
   11   -1571.7319430707      5.86e-07  Convergence criterion met
 ---------------------------------------
 SCF time:   CPU 6778.83s  wall 272.00s 

************** Final PCM Free Energy Summary **************
 G_electrostatic  =      -0.02720017 hartree =     -17.06836430 kcal/mol
 G_cavitation     =       0.00000000 hartree =       0.00000000 kcal/mol
 G_dispersion     =       0.00000000 hartree =       0.00000000 kcal/mol
 G_repulsion      =       0.00000000 hartree =       0.00000000 kcal/mol
 --------------------------------------------------
 Non-electrostatic Free Energy =       0.00000000 hartree =       0.00000000 kcal/mol
 Total                         =      -0.02720017 hartree =     -17.06836430 kcal/mol
 --------------------------------------------------
 SCF Energy (H0 + V/2)                       =   -1571.73194307 
 Solute Internal Energy (H0)                 =   -1571.70474290 
 Total Free Energy (H0 + V/2 + non-elec)     =   -1571.73194307 hartree
                                             = -986276.68015008 kcal/mol
***********************************************************

 SCF   energy in the final basis set =    -1571.7319430707
 Total energy in the final basis set =    -1571.7319430707


 --------------------------------------------------------------
  Generalized many-body perturbation theory program
  by Joonho Lee, Fazle Rob, Xintian Feng, Evgeny Epifanovsky

 No regularization used 
 (reg. param. = 0.0000e+00)
  (P|Q)^-1/2 Time:  CPU 124.25 s  wall 1.98 s

 In RI-MP2 calculation: 
 # of frozen core orbitals: 31

 Components of the RIMP2 correlation energy:
        aaaa    correlation energy =        -0.6158855906 a.u.
        abab    correlation energy =        -3.4267450599 a.u.
        bbbb    correlation energy =        -0.6158855906 a.u.
        non-Brillouin singles      =        -0.0000000000 a.u.
        total same-spin energy     =        -1.2317711811 a.u.
        total opposite-spin energy =        -3.4267450599 a.u.

 Total  RIMP2   correlation energy =        -4.6585162410 a.u.
        RIMP2         total energy =     -1576.3904593117 a.u.

 RI-MP2 Energy Time:  CPU 1913.08 s  wall 32.15 s
 
 --------------------------------------------------------------
 
                    Orbital Energies (a.u.)
 --------------------------------------------------------------
 
 Alpha MOs
 -- Occupied --
-91.9887 -20.5522 -20.5457 -20.5426 -20.5415 -15.6288 -15.6219 -11.3968
-11.3864 -11.3844 -11.3801 -11.3098 -11.3094 -11.3063 -11.3055 -11.2976
-11.2950 -11.2916 -11.2769 -11.2707 -11.2691 -11.2674 -11.2642 -11.2597
-11.2536 -11.2467 -11.2386  -8.9888  -6.6697  -6.6693  -6.6686  -1.4229
 -1.4130  -1.3996  -1.3921  -1.2643  -1.2563  -1.2318  -1.1878  -1.1504
 -1.1153  -1.0874  -1.0485  -0.9958  -0.9887  -0.9814  -0.9559  -0.9494
 -0.8978  -0.8902  -0.8783  -0.8616  -0.7943  -0.7798  -0.7726  -0.7604
 -0.7409  -0.7193  -0.7026  -0.6894  -0.6801  -0.6753  -0.6681  -0.6582
 -0.6489  -0.6471  -0.6385  -0.6322  -0.6317  -0.6292  -0.6238  -0.6055
 -0.5912  -0.5713  -0.5643  -0.5599  -0.5579  -0.5525  -0.5510  -0.5486
 -0.5483  -0.5430  -0.5183  -0.5152  -0.5107  -0.4857  -0.4747  -0.4620
 -0.4579  -0.4502  -0.4433  -0.4361  -0.4154  -0.4083  -0.3566  -0.3497
 -0.3311  -0.2789
 -- Virtual --
  0.0119   0.0394   0.0877   0.0979   0.1445   0.1504   0.1570   0.1609
  0.1638   0.1702   0.1784   0.1798   0.1885   0.1960   0.2034   0.2061
  0.2135   0.2218   0.2275   0.2282   0.2319   0.2347   0.2501   0.2597
  0.2641   0.2718   0.3026   0.3047   0.3207   0.3215   0.3267   0.3328
  0.3388   0.3400   0.3436   0.3525   0.3547   0.3588   0.3639   0.3680
  0.3724   0.3836   0.3859   0.3863   0.3930   0.4001   0.4077   0.4113
  0.4188   0.4247   0.4283   0.4333   0.4413   0.4432   0.4500   0.4515
  0.4548   0.4569   0.4615   0.4689   0.4712   0.4838   0.4903   0.4966
  0.4999   0.5004   0.5071   0.5134   0.5157   0.5216   0.5229   0.5291
  0.5346   0.5364   0.5428   0.5486   0.5505   0.5599   0.5627   0.5661
  0.5740   0.5799   0.5802   0.5872   0.5910   0.5945   0.5956   0.6014
  0.6033   0.6066   0.6080   0.6125   0.6151   0.6184   0.6242   0.6269
  0.6306   0.6336   0.6359   0.6398   0.6409   0.6464   0.6551   0.6597
  0.6655   0.6701   0.6798   0.6833   0.6855   0.6914   0.6983   0.6990
  0.7098   0.7210   0.7294   0.7337   0.7380   0.7421   0.7600   0.7616
  0.7670   0.7704   0.7760   0.7815   0.7864   0.7975   0.8026   0.8037
  0.8074   0.8118   0.8228   0.8269   0.8334   0.8387   0.8428   0.8458
  0.8539   0.8541   0.8615   0.8692   0.8725   0.8742   0.8846   0.8934
  0.8951   0.8994   0.9065   0.9149   0.9158   0.9221   0.9236   0.9281
  0.9395   0.9419   0.9531   0.9562   0.9620   0.9657   0.9690   0.9742
  0.9825   0.9891   0.9926   0.9999   1.0057   1.0073   1.0134   1.0204
  1.0251   1.0309   1.0407   1.0431   1.0521   1.0560   1.0582   1.0621
  1.0703   1.0719   1.0745   1.0798   1.0840   1.0933   1.0979   1.1006
  1.1118   1.1151   1.1191   1.1271   1.1317   1.1325   1.1398   1.1478
  1.1530   1.1601   1.1635   1.1695   1.1706   1.1802   1.1825   1.1883
  1.1937   1.2023   1.2043   1.2096   1.2160   1.2192   1.2251   1.2273
  1.2349   1.2379   1.2392   1.2450   1.2537   1.2556   1.2644   1.2727
  1.2769   1.2850   1.2987   1.3058   1.3099   1.3215   1.3285   1.3399
  1.3481   1.3547   1.3613   1.3679   1.3714   1.3829   1.3848   1.3878
  1.3928   1.3956   1.3979   1.4032   1.4183   1.4223   1.4348   1.4441
  1.4466   1.4590   1.4646   1.4737   1.4760   1.4821   1.4919   1.4930
  1.4998   1.5030   1.5062   1.5134   1.5221   1.5263   1.5315   1.5412
  1.5481   1.5542   1.5555   1.5616   1.5662   1.5694   1.5710   1.5855
  1.5895   1.5964   1.5997   1.6016   1.6218   1.6347   1.6403   1.6434
  1.6515   1.6539   1.6613   1.6700   1.6806   1.6937   1.6939   1.7033
  1.7074   1.7173   1.7304   1.7390   1.7413   1.7465   1.7485   1.7579
  1.7624   1.7701   1.7742   1.7890   1.7962   1.8030   1.8110   1.8125
  1.8198   1.8376   1.8425   1.8529   1.8594   1.8652   1.8680   1.8722
  1.8746   1.8832   1.8902   1.8980   1.9137   1.9251   1.9306   1.9482
  1.9593   1.9680   1.9768   1.9858   1.9874   1.9985   2.0160   2.0233
  2.0311   2.0410   2.0667   2.0788   2.0837   2.1025   2.1142   2.1313
  2.1371   2.1492   2.1625   2.1676   2.1922   2.1948   2.2134   2.2222
  2.2340   2.2457   2.2552   2.2786   2.2864   2.2911   2.3057   2.3114
  2.3228   2.3318   2.3404   2.3490   2.3619   2.3630   2.3810   2.3861
  2.4066   2.4127   2.4310   2.4368   2.4493   2.4519   2.4608   2.4709
  2.4851   2.4913   2.4957   2.5038   2.5194   2.5252   2.5354   2.5532
  2.5586   2.5716   2.5799   2.5859   2.5920   2.6024   2.6063   2.6198
  2.6242   2.6358   2.6430   2.6445   2.6592   2.6646   2.6691   2.6764
  2.6834   2.6928   2.6988   2.7057   2.7104   2.7283   2.7327   2.7411
  2.7456   2.7502   2.7588   2.7606   2.7648   2.7795   2.7842   2.7930
  2.8098   2.8289   2.8362   2.8389   2.8539   2.8567   2.8671   2.8727
  2.8769   2.8795   2.8877   2.8930   2.8995   2.9011   2.9092   2.9184
  2.9190   2.9277   2.9363   2.9441   2.9560   2.9602   2.9651   2.9748
  2.9787   2.9815   2.9893   3.0014   3.0053   3.0150   3.0203   3.0282
  3.0320   3.0429   3.0479   3.0512   3.0637   3.0718   3.0779   3.0882
  3.0940   3.1005   3.1012   3.1015   3.1071   3.1097   3.1190   3.1284
  3.1342   3.1385   3.1439   3.1518   3.1590   3.1636   3.1666   3.1789
  3.1817   3.1894   3.1967   3.2011   3.2039   3.2117   3.2169   3.2213
  3.2290   3.2396   3.2435   3.2469   3.2541   3.2582   3.2616   3.2631
  3.2668   3.2724   3.2799   3.2827   3.2830   3.2979   3.3018   3.3087
  3.3117   3.3191   3.3229   3.3257   3.3266   3.3305   3.3355   3.3405
  3.3456   3.3458   3.3559   3.3612   3.3633   3.3696   3.3731   3.3759
  3.3792   3.3831   3.3889   3.3970   3.4004   3.4011   3.4068   3.4141
  3.4179   3.4252   3.4296   3.4315   3.4366   3.4388   3.4411   3.4497
  3.4591   3.4634   3.4654   3.4672   3.4745   3.4796   3.4906   3.4928
  3.4952   3.5016   3.5053   3.5108   3.5124   3.5170   3.5244   3.5326
  3.5374   3.5420   3.5503   3.5567   3.5665   3.5700   3.5766   3.5786
  3.5852   3.5904   3.5949   3.6002   3.6089   3.6185   3.6235   3.6266
  3.6294   3.6341   3.6379   3.6413   3.6491   3.6545   3.6564   3.6637
  3.6685   3.6791   3.6861   3.6881   3.6952   3.7018   3.7048   3.7117
  3.7147   3.7227   3.7347   3.7402   3.7413   3.7467   3.7495   3.7572
  3.7641   3.7670   3.7710   3.7796   3.7849   3.7901   3.7936   3.8074
  3.8100   3.8170   3.8203   3.8288   3.8347   3.8386   3.8440   3.8482
  3.8560   3.8580   3.8640   3.8743   3.8835   3.8890   3.8925   3.9118
  3.9166   3.9209   3.9269   3.9289   3.9345   3.9456   3.9509   3.9533
  3.9600   3.9681   3.9716   3.9825   3.9852   3.9913   4.0065   4.0136
  4.0207   4.0340   4.0463   4.0477   4.0562   4.0588   4.0664   4.0739
  4.0873   4.1078   4.1152   4.1185   4.1263   4.1372   4.1387   4.1451
  4.1522   4.1642   4.1664   4.1705   4.1736   4.1779   4.1820   4.2026
  4.2152   4.2254   4.2335   4.2407   4.2416   4.2510   4.2587   4.2661
  4.2709   4.2786   4.2821   4.2870   4.2934   4.2993   4.3013   4.3145
  4.3167   4.3248   4.3297   4.3306   4.3391   4.3404   4.3481   4.3573
  4.3625   4.3681   4.3689   4.3743   4.3783   4.3875   4.3984   4.4018
  4.4083   4.4117   4.4176   4.4218   4.4403   4.4453   4.4597   4.4623
  4.4786   4.4862   4.4970   4.4993   4.5085   4.5147   4.5234   4.5310
  4.5380   4.5458   4.5528   4.5563   4.5670   4.5771   4.5794   4.5900
  4.5955   4.6044   4.6063   4.6144   4.6182   4.6279   4.6358   4.6473
  4.6584   4.6730   4.6773   4.6822   4.6888   4.6959   4.7086   4.7093
  4.7144   4.7329   4.7480   4.7520   4.7800   4.7868   4.7942   4.7988
  4.8113   4.8237   4.8391   4.8432   4.8492   4.8651   4.8771   4.8820
  4.8968   4.8987   4.9110   4.9266   4.9286   4.9533   4.9603   4.9803
  4.9899   5.0095   5.0158   5.0216   5.0361   5.0398   5.0517   5.0685
  5.0764   5.1013   5.1095   5.1188   5.1249   5.1323   5.1404   5.1448
  5.1613   5.1640   5.1706   5.1820   5.1899   5.1990   5.2178   5.2334
  5.2622   5.2628   5.2842   5.2927   5.3019   5.3132   5.3250   5.3303
  5.3319   5.3396   5.3564   5.3726   5.3771   5.3867   5.4028   5.4152
  5.4332   5.4447   5.4702   5.4872   5.4951   5.5122   5.5136   5.5170
  5.5196   5.5370   5.5513   5.5535   5.5617   5.5645   5.5673   5.5690
  5.5774   5.5854   5.5914   5.6027   5.6055   5.6174   5.6251   5.6286
  5.6396   5.6490   5.6596   5.6613   5.6658   5.6714   5.6839   5.6935
  5.7022   5.7112   5.7178   5.7488   5.7556   5.7635   5.7733   5.7820
  5.7858   5.7935   5.8240   5.8350   5.8445   5.8532   5.8933   5.9125
  5.9398   5.9593   5.9658   5.9836   6.0117   6.0359   6.0403   6.0475
  6.0587   6.0858   6.1081   6.1129   6.1257   6.1452   6.1627   6.1885
  6.2041   6.2206   6.2253   6.2270   6.2486   6.2707   6.2829   6.2836
  6.3092   6.3150   6.3237   6.3532   6.3681   6.3905   6.4481   6.4872
  6.5217   6.5326   6.5779   6.5826   6.6030   6.6279   6.6588   6.6640
  6.6744   6.7405   6.8501   6.8529   6.8909   6.9015   6.9055   6.9264
  6.9286   6.9902   7.1043   7.1302   7.1525   7.1991   7.2080   7.2512
  7.3471   7.3513   7.3579   7.3721   7.4773   7.5446   7.5712   7.5833
  7.5925   7.6177   7.6544   7.6915   7.7042   7.7592   8.9319  10.0546
 10.4079  11.2903  11.5638  11.7718  12.0259  12.1390  12.4294  12.4995
 12.9553  13.2482  13.3664  13.5666  13.8006  13.9347  14.1360  14.2959
 14.3216  14.3787  14.5473  14.7579  15.0630  15.6226  15.8391  16.3298
 --------------------------------------------------------------
 
          Ground-State Mulliken Net Atomic Charges

     Atom                 Charge (a.u.)
  ----------------------------------------
      1 C                    -0.083897
      2 C                    -0.030280
      3 C                    -0.107611
      4 C                    -0.125653
      5 H                     0.199137
      6 C                     0.021911
      7 C                     0.122170
      8 C                    -0.054918
      9 C                    -0.186956
     10 C                    -0.177103
     11 C                     0.216447
     12 H                     0.179731
     13 C                     0.343141
     14 C                     0.349653
     15 N                    -0.090297
     16 C                     0.358208
     17 C                     0.381538
     18 N                    -0.087879
     19 O                    -0.493102
     20 O                    -0.505748
     21 O                    -0.500648
     22 O                    -0.479251
     23 C                    -0.204610
     24 H                     0.139496
     25 H                     0.109560
     26 H                     0.109526
     27 C                    -0.198535
     28 H                     0.134323
     29 H                     0.111674
     30 H                     0.111902
     31 C                    -0.033559
     32 S                    -0.001973
     33 C                    -0.237501
     34 C                    -0.190174
     35 C                    -0.202046
     36 H                     0.205129
     37 H                     0.190275
     38 H                     0.213310
     39 H                     0.138133
     40 H                     0.138562
     41 H                     0.217913
  ----------------------------------------
  Sum of atomic charges =     0.000000

 -----------------------------------------------------------------
                    Cartesian Multipole Moments
 -----------------------------------------------------------------
    Charge (ESU x 10^10)
                 0.0000
    Dipole Moment (Debye)
         X       1.6821      Y       1.5052      Z      -1.9524
       Tot       2.9844
    Quadrupole Moments (Debye-Ang)
        XX    -165.5279     XY      -1.5313     YY    -176.7217
        XZ      10.3451     YZ       8.1507     ZZ    -185.0637
    Octopole Moments (Debye-Ang^2)
       XXX     -55.1207    XXY     475.1651    XYY      14.7768
       YYY    1673.0216    XXZ      -2.1609    XYZ     -41.7931
       YYZ     -51.9928    XZZ     -15.4998    YZZ     591.1074
       ZZZ     -11.7461
    Hexadecapole Moments (Debye-Ang^3)
      XXXX    -912.7683   XXXY    -189.9031   XXYY   -2851.0853
      XYYY    -439.1565   YYYY  -17959.2171   XXXZ     923.8187
      XXYZ      64.9339   XYYZ     593.6590   YYYZ    1066.9941
      XXZZ   -1120.3990   XYZZ      46.1123   YYZZ   -4269.3446
      XZZZ    1029.5966   YZZZ      33.4537   ZZZZ   -5859.6396
 -----------------------------------------------------------------
 Total job time:  307.66s(wall), 8795.69s(cpu) 
 Tue Sep 26 22:08:59 2023

        *************************************************************
        *                                                           *
        *  Thank you very much for using Q-Chem.  Have a nice day.  *
        *                                                           *
        *************************************************************


0 sent ACK to 0 
now end server 0 ... 
cleanup process ... done
remove work dirs ./qchem1587869.0 -- ./qchem1587869.0
rm -rf ./qchem1587869.0
rm -rf ./qchem1587869
