You are running Q-Chem version: 5.4.0

#
# job setting
#
local host:  exp-2-30
current dir: /expanse/lustre/projects/csd626/rramji/aromodel/PNDIT/Hydrogenated_Rotation_Test
input file:  Dimethyl_Naphthalene_Dicarboximide_Phi_50_Theta_240_Thiophene_Hydrogenated.qcin
output file: 
nprocs     : 1
nthreads   : 64
#
# qchem installation setting
#
QC:          /cm/shared/apps/spack/cpu/opt/spack/linux-centos8-zen2/gcc-10.2.0/qchem-5.4-akfmr7b3t57bfs6qan3padb2wnb2i7cl
QCAUX:       /cm/shared/apps/spack/cpu/opt/spack/linux-centos8-zen2/gcc-10.2.0/qchem-5.4-akfmr7b3t57bfs6qan3padb2wnb2i7cl/qcaux
QCPROG:      /cm/shared/apps/spack/cpu/opt/spack/linux-centos8-zen2/gcc-10.2.0/qchem-5.4-akfmr7b3t57bfs6qan3padb2wnb2i7cl/exe/qcprog.exe
QCPROG_S:    /cm/shared/apps/spack/cpu/opt/spack/linux-centos8-zen2/gcc-10.2.0/qchem-5.4-akfmr7b3t57bfs6qan3padb2wnb2i7cl/exe/qcprog.exe_s
PARALLEL:    -DPARALLEL
QCMPI:       mpich
#
# qchem directory setting
#
qcrun:       qchem3532545
QCSCRATCH:   .
QCLOCALSCR:  
QCTMPDIR:    .
QCFILEPREF:  ./qchem3532545
QCSAVEDIR:   
workdirs:    ./qchem3532545
workdir0:    ./qchem3532545
partmpdirs =  
#
# parallel setting
#
QCRSH:           ssh
QCMPI:           mpich
QCMPIRUN:        /cm/shared/apps/spack/cpu/opt/spack/linux-centos8-zen2/gcc-10.2.0/qchem-5.4-akfmr7b3t57bfs6qan3padb2wnb2i7cl/bin/mpi/mpirun_qchem
QCMACHINEFILE:   ./qchem3532545/hostfile
exp-2-30

#
# env setting
#
exported envs:   QC QCAUX QCSCRATCH QCRUNNAME QCFILEPREF QCPROG QCPROG_S GUIFILE

Running Job 1 of 1 Dimethyl_Naphthalene_Dicarboximide_Phi_50_Theta_240_Thiophene_Hydrogenated.qcin
qchem Dimethyl_Naphthalene_Dicarboximide_Phi_50_Theta_240_Thiophene_Hydrogenated.qcin_3532545.0 ./qchem3532545/ 1
/cm/shared/apps/spack/cpu/opt/spack/linux-centos8-zen2/gcc-10.2.0/qchem-5.4-akfmr7b3t57bfs6qan3padb2wnb2i7cl/bin/mpi/mpirun_qchem -machinefile ./qchem3532545/hostfile -np 1 /cm/shared/apps/spack/cpu/opt/spack/linux-centos8-zen2/gcc-10.2.0/qchem-5.4-akfmr7b3t57bfs6qan3padb2wnb2i7cl/exe/qcprog.exe Dimethyl_Naphthalene_Dicarboximide_Phi_50_Theta_240_Thiophene_Hydrogenated.qcin_3532545.0 ./qchem3532545/

Process 0 of 1 is on exp-2-30 - thread support 0
initial socket setup ...start
initial socket setup ...done 
now start server 0 ... 
                  Welcome to Q-Chem
     A Quantum Leap Into The Future Of Chemistry


 Q-Chem 5.4, Q-Chem, Inc., Pleasanton, CA (2021)

 License issued to: University of California, San Diego (site)

 E. Epifanovsky,  A. T. B. Gilbert,  Xintian Feng,  Joonho Lee,  Yuezhi Mao,  
 N. Mardirossian,  P. Pokhilko,  A. White,  M. Wormit,  M. P. Coons,  
 A. L. Dempwolff,  Zhengting Gan,  D. Hait,  P. R. Horn,  L. D. Jacobson,  
 I. Kaliman,  J. Kussmann,  A. W. Lange,  Ka Un Lao,  D. S. Levine,  Jie Liu,  
 S. C. McKenzie,  A. F. Morrison,  K. Nanda,  F. Plasser,  D. R. Rehn,  
 M. L. Vidal,  Zhi-Qiang You,  Ying Zhu,  B. Alam,  B. Albrecht,  
 A. Aldossary,  E. Alguire,  J. H. Andersen,  D. Barton,  K. Begam,  A. Behn,  
 Y. A. Bernard,  E. J. Berquist,  H. Burton,  A. Carreras,  K. Carter-Fenk,  
 R. Chakraborty,  A. D. Chien,  K. D. Closser,  V. Cofer-Shabica,  
 S. Dasgupta,  Jia Deng,  M. de Wergifosse,  M. Diedenhofen,  Hainam Do,  
 S. Ehlert,  Po-Tung Fang,  S. Fatehi,  Qingguo Feng,  J. Gayvert,  
 Qinghui Ge,  G. Gidofalvi,  M. Goldey,  J. Gomes,  C. Gonzalez-Espinoza,  
 S. Gulania,  A. Gunina,  M. W. D. Hanson-Heine,  P. H. P. Harbach,  
 A. W. Hauser,  M. F. Herbst,  M. Hernandez Vera,  M. Hodecker,  
 Z. C. Holden,  S. Houck,  Xunkun Huang,  Kerwin Hui,  B. C. Huynh,  
 M. Ivanov,  Hyunjun Ji,  Hanjie Jiang,  B. Kaduk,  S. Kaehler,  
 K. Khistyaev,  Jaehoon Kim,  P. Klunzinger,  Z. Koczor-Benda,  
 Joong Hoon Koh,  D. Kosenkov,  L. Koulias,  T. Kowalczyk,  C. M. Krauter,  
 K. Kue,  A. Kunitsa,  T. Kus,  A. Landau,  K. V. Lawler,  D. Lefrancois,  
 S. Lehtola,  Rain Li,  Yi-Pei Li,  Jiashu Liang,  M. Liebenthal,  
 Hung-Hsuan Lin,  You-Sheng Lin,  Fenglai Liu,  Kuan-Yu Liu,  
 M. Loipersberger,  A. Luenser,  A. Manjanath,  P. Manohar,  E. Mansoor,  
 S. F. Manzer,  Shan-Ping Mao,  A. V. Marenich,  T. Markovich,  S. Mason,  
 S. A. Maurer,  P. F. McLaughlin,  M. F. S. J. Menger,  J.-M. Mewes,  
 S. A. Mewes,  P. Morgante,  J. W. Mullinax,  T. S. Nguyen-Beck,  
 K. J. Oosterbaan,  G. Paran,  Alexander C. Paul,  Suranjan K. Paul,  
 F. Pavosevic,  Zheng Pei,  S. Prager,  E. I. Proynov,  E. Ramos,  B. Rana,  
 A. E. Rask,  A. Rettig,  R. M. Richard,  F. Rob,  E. Rossomme,  T. Scheele,  
 M. Scheurer,  M. Schneider,  N. Sergueev,  S. M. Sharada,  W. Skomorowski,  
 D. W. Small,  C. J. Stein,  Yu-Chuan Su,  E. J. Sundstrom,  Zhen Tao,  
 J. Thirman,  T. Tsuchimochi,  N. M. Tubman,  S. P. Veccham,  O. Vydrov,  
 J. Wenzel,  J. Witte,  A. Yamada,  Kun Yao,  S. Yeganeh,  S. R. Yost,  
 A. Zech,  Igor Ying Zhang,  Xing Zhang,  Yu Zhang,  D. Zuev,  
 A. Aspuru-Guzik,  A. T. Bell,  N. A. Besley,  K. B. Bravaya,  B. R. Brooks,  
 D. Casanova,  Jeng-Da Chai,  S. Coriani,  C. J. Cramer,  
 A. E. DePrince, III,  R. A. DiStasio Jr.,  A. Dreuw,  B. D. Dunietz,  
 T. R. Furlani,  W. A. Goddard III,  S. Grimme,  S. Hammes-Schiffer,  
 T. Head-Gordon,  W. J. Hehre,  Chao-Ping Hsu,  T.-C. Jagau,  Yousung Jung,  
 A. Klamt,  Jing Kong,  D. S. Lambrecht,  WanZhen Liang,  N. J. Mayhall,  
 C. W. McCurdy,  J. B. Neaton,  C. Ochsenfeld,  J. A. Parkhill,  R. Peverati,  
 V. A. Rassolov,  Yihan Shao,  L. V. Slipchenko,  T. Stauch,  R. P. Steele,  
 J. E. Subotnik,  A. J. W. Thom,  A. Tkatchenko,  D. G. Truhlar,  
 T. Van Voorhis,  T. A. Wesolowski,  K. B. Whaley,  H. L. Woodcock III,  
 P. M. Zimmerman,  S. Faraji,  P. M. W. Gill,  M. Head-Gordon,  
 J. M. Herbert,  A. I. Krylov

 Contributors to earlier versions of Q-Chem not listed above: 
 R. D. Adamson,  B. Austin,  R. Baer,  J. Baker,  G. J. O. Beran,  
 K. Brandhorst,  S. T. Brown,  E. F. C. Byrd,  A. K. Chakraborty,  
 G. K. L. Chan,  Chun-Min Chang,  Yunqing Chen,  C.-L. Cheng,  
 Siu Hung Chien,  D. M. Chipman,  D. L. Crittenden,  H. Dachsel,  
 R. J. Doerksen,  A. D. Dutoi,  R. G. Edgar,  J. Fosso-Tande,  
 L. Fusti-Molnar,  D. Ghosh,  A. Ghysels,  A. Golubeva-Zadorozhnaya,  
 J. Gonthier,  M. S. Gordon,  S. R. Gwaltney,  G. Hawkins,  J. E. Herr,  
 A. Heyden,  S. Hirata,  E. G. Hohenstein,  G. Kedziora,  F. J. Keil,  
 C. Kelley,  Jihan Kim,  R. A. King,  R. Z. Khaliullin,  P. P. Korambath,  
 W. Kurlancheek,  A. Laurent,  A. M. Lee,  M. S. Lee,  S. V. Levchenko,  
 Ching Yeh Lin,  D. Liotard,  E. Livshits,  R. C. Lochan,  I. Lotan,  
 L. A. Martinez-Martinez,  P. E. Maslen,  N. Nair,  D. P. O'Neill,  
 D. Neuhauser,  E. Neuscamman,  C. M. Oana,  R. Olivares-Amaya,  R. Olson,  
 T. M. Perrine,  B. Peters,  P. A. Pieniazek,  A. Prociuk,  Y. M. Rhee,  
 J. Ritchie,  M. A. Rohrdanz,  E. Rosta,  N. J. Russ,  H. F. Schaefer III,  
 M. W. Schmidt,  N. E. Schultz,  S. Sharma,  N. Shenvi,  C. D. Sherrill,  
 A. C. Simmonett,  A. Sodt,  T. Stein,  D. Stuck,  K. S. Thanthiriwatte,  
 V. Vanovschi,  L. Vogt,  Tao Wang,  A. Warshel,  M. A. Watson,  
 C. F. Williams,  Q. Wu,  X. Xu,  Jun Yang,  W. Zhang,  Yan Zhao

 Please cite Q-Chem as follows:
 Y. Shao et al., Mol. Phys. 113, 184-215 (2015)
 DOI: 10.1080/00268976.2014.952696

 Q-Chem 5.4.0 for Intel X86 EM64T Linux

 Parts of Q-Chem use Armadillo 9.800.1 (Horizon Scraper).
 http://arma.sourceforge.net/

 Q-Chem begins on Sun Sep 24 17:07:35 2023  

 Host: 
0

     Scratch files written to ./qchem3532545//
 May1621 |scratch|qcdevops|jenkins|workspace|build_RNUM    
 Parallel job on  1  processors
 Processing $rem in /cm/shared/apps/spack/cpu/opt/spack/linux-centos8-zen2/gcc-10.2.0/qchem-5.4-akfmr7b3t57bfs6qan3padb2wnb2i7cl/config/preferences:
 Processing $rem in /home/rramji/.qchemrc:
 Symmetry turned off for PCM/SM12/SMD calculation
 Core orbitals will be frozen

 Checking the input file for inconsistencies... 	...done.

 Q-Chem warning in module forms1/BasisType.C, line 2236:

 You are not using the predefined 5D/6D in this basis set.


--------------------------------------------------------------
User input:
--------------------------------------------------------------
$molecule
0 1
C	-0.221766	-6.741404	0.129743
C	-1.352515	-6.155638	0.782726
C	0.717339	-5.791452	-0.411926
C	-1.593885	-4.803786	0.921816
H	-2.112819	-6.821518	1.221908
C	0.464360	-4.378638	-0.266682
C	-0.688053	-3.838032	0.398255
C	1.369108	-3.413062	-0.789694
C	-0.939002	-2.426473	0.542349
C	1.130409	-2.059348	-0.652589
C	-0.000000	-1.478216	-0.000000
H	1.891446	-1.394783	-1.092453
C	1.967519	-6.187987	-1.131595
C	2.608118	-3.798164	-1.504912
N	2.819813	-5.170003	-1.625174
C	-2.836188	-4.424987	1.639129
C	-2.189558	-2.036627	1.263477
N	-3.042237	-3.049156	1.756898
O	2.307845	-7.353131	-1.324787
O	3.407213	-2.986854	-1.967354
O	-3.625890	-5.248946	2.095892
O	-2.547850	-0.878829	1.468685
C	4.043674	-5.563799	-2.330564
H	4.083407	-6.664085	-2.352178
H	4.925490	-5.147101	-1.807263
H	4.031877	-5.148785	-3.356568
C	-4.247206	-2.587487	2.452080
H	-4.803187	-3.483329	2.774302
H	-4.860536	-1.964972	1.773301
H	-3.966607	-1.962932	3.321351
C	0.000000	0.000000	0.000000
S	0.607475	0.509994	1.580530
C	1.862020	1.562717	0.904911
C	0.764397	0.641624	-0.985400
C	1.775697	1.490335	-0.493528
H	0.583895	0.490135	-2.059934
H	2.450484	2.056643	-1.152593
H	2.536607	2.128872	1.556025
H	-0.578191	-7.361589	-0.701693
H	0.319578	-7.361192	0.854838
H	-0.539540	-1.478831	-0.935572
$end

$rem
JOBTYPE		SP
EXCHANGE	HF
CORRELATION	pRIMP2
BASIS		cc-pvtz
METHOD		rimp2
AUX_BASIS	rimp2-cc-pvtz
SOLVENT_METHOD	PCM
PURECART	11111
SYMMETRY	false
MEM_TOTAL	110000
SCF_CONVERGENCE = 6
THRESH=10
GUI = 2
$end



$solvent
dielectric 4.90
$end
--------------------------------------------------------------
 ----------------------------------------------------------------
             Standard Nuclear Orientation (Angstroms)
    I     Atom           X                Y                Z
 ----------------------------------------------------------------
    1      C      -0.2217660000    -6.7414040000     0.1297430000
    2      C      -1.3525150000    -6.1556380000     0.7827260000
    3      C       0.7173390000    -5.7914520000    -0.4119260000
    4      C      -1.5938850000    -4.8037860000     0.9218160000
    5      H      -2.1128190000    -6.8215180000     1.2219080000
    6      C       0.4643600000    -4.3786380000    -0.2666820000
    7      C      -0.6880530000    -3.8380320000     0.3982550000
    8      C       1.3691080000    -3.4130620000    -0.7896940000
    9      C      -0.9390020000    -2.4264730000     0.5423490000
   10      C       1.1304090000    -2.0593480000    -0.6525890000
   11      C       0.0000000000    -1.4782160000     0.0000000000
   12      H       1.8914460000    -1.3947830000    -1.0924530000
   13      C       1.9675190000    -6.1879870000    -1.1315950000
   14      C       2.6081180000    -3.7981640000    -1.5049120000
   15      N       2.8198130000    -5.1700030000    -1.6251740000
   16      C      -2.8361880000    -4.4249870000     1.6391290000
   17      C      -2.1895580000    -2.0366270000     1.2634770000
   18      N      -3.0422370000    -3.0491560000     1.7568980000
   19      O       2.3078450000    -7.3531310000    -1.3247870000
   20      O       3.4072130000    -2.9868540000    -1.9673540000
   21      O      -3.6258900000    -5.2489460000     2.0958920000
   22      O      -2.5478500000    -0.8788290000     1.4686850000
   23      C       4.0436740000    -5.5637990000    -2.3305640000
   24      H       4.0834070000    -6.6640850000    -2.3521780000
   25      H       4.9254900000    -5.1471010000    -1.8072630000
   26      H       4.0318770000    -5.1487850000    -3.3565680000
   27      C      -4.2472060000    -2.5874870000     2.4520800000
   28      H      -4.8031870000    -3.4833290000     2.7743020000
   29      H      -4.8605360000    -1.9649720000     1.7733010000
   30      H      -3.9666070000    -1.9629320000     3.3213510000
   31      C       0.0000000000     0.0000000000     0.0000000000
   32      S       0.6074750000     0.5099940000     1.5805300000
   33      C       1.8620200000     1.5627170000     0.9049110000
   34      C       0.7643970000     0.6416240000    -0.9854000000
   35      C       1.7756970000     1.4903350000    -0.4935280000
   36      H       0.5838950000     0.4901350000    -2.0599340000
   37      H       2.4504840000     2.0566430000    -1.1525930000
   38      H       2.5366070000     2.1288720000     1.5560250000
   39      H      -0.5781910000    -7.3615890000    -0.7016930000
   40      H       0.3195780000    -7.3611920000     0.8548380000
   41      H      -0.5395400000    -1.4788310000    -0.9355720000
 ----------------------------------------------------------------
 Nuclear Repulsion Energy =        2572.56350677 hartrees
 There are       98 alpha and       98 beta electrons
 Requested basis set is cc-pVTZ
 There are 356 shells and 1010 basis functions

 Total QAlloc Memory Limit 110000 MB
 Mega-Array Size       188 MB
 MEM_STATIC part       192 MB
 Discretize the solute cavity surface with Lebedev spheres
	Using 110 Lebedev grid points for each H atom
	Using 194 Lebedev grid points for other atoms
	Atomic van der Waals radii will be scaled by 1.20
 Remove points where switching function is < 1.0e-08
 Keep 2580 surface tesserae and discard 4198 interior tesserae
 Molecular Surface Area = 368.203 Angst**2
 Requested basis set is rimp2-cc-pVTZ
 There are 770 shells and 2648 basis functions
 A cutoff of  1.0D-10 yielded  34623 shell pairs
 There are    261643 function pairs (    338570 Cartesian)
 Smallest overlap matrix eigenvalue = 8.60E-06

 Q-Chem warning in module stvman/mkSTV.C, line 323:

 Overlap eigenvalue is smaller than square root of threshold
 Use THRESH >= 12 to get rid of this warning


 Scale SEOQF with 1.000000e-01/1.000000e-02/1.000000e-01

 Standard Electronic Orientation quadrupole field applied
 Nucleus-field energy     =     0.0000000180 hartrees
 Guess from superposition of atomic densities
 Warning:  Energy on first SCF cycle will be non-variational
 SAD guess density has 196.000000 electrons

 -----------------------------------------------------------------------
  General SCF calculation program by
  Eric Jon Sundstrom, Paul Horn, Yuezhi Mao, Dmitri Zuev, Alec White,
  David Stuck, Shaama M.S., Shane Yost, Joonho Lee, David Small,
  Daniel Levine, Susi Lehtola, Hugh Burton, Evgeny Epifanovsky,
  Bang C. Huynh
 -----------------------------------------------------------------------
 Hartree-Fock
 using 64 threads for integral computing
 -------------------------------------------------------
 OpenMP Integral computing Module                
 Release: version 1.0, May 2013, Q-Chem Inc. Pittsburgh 
 -------------------------------------------------------
 A restricted SCF calculation will be
 performed using DIIS
 SCF converges when DIIS error is below 1.0e-06
 ---------------------------------------
  Cycle       Energy         DIIS error
 ---------------------------------------
    1   -1583.1795274908      1.87e-02  
    2   -1571.1344892878      2.02e-03  
    3   -1571.4724419150      1.54e-03  
    4   -1571.6888140696      2.53e-04  
    5   -1571.7026782825      7.80e-05  
    6   -1571.7041140185      3.00e-05  
    7   -1571.7045540242      1.54e-05  
    8   -1571.7046743516      6.52e-06  
    9   -1571.7046959195      2.98e-06  
   10   -1571.7047005231      1.31e-06  
   11   -1571.7047018914      5.78e-07  Convergence criterion met
 ---------------------------------------
 SCF time:   CPU 6922.45s  wall 256.00s 

************** Final PCM Free Energy Summary **************
 G_electrostatic  =      -0.03162608 hartree =     -19.84566324 kcal/mol
 G_cavitation     =       0.00000000 hartree =       0.00000000 kcal/mol
 G_dispersion     =       0.00000000 hartree =       0.00000000 kcal/mol
 G_repulsion      =       0.00000000 hartree =       0.00000000 kcal/mol
 --------------------------------------------------
 Non-electrostatic Free Energy =       0.00000000 hartree =       0.00000000 kcal/mol
 Total                         =      -0.03162608 hartree =     -19.84566324 kcal/mol
 --------------------------------------------------
 SCF Energy (H0 + V/2)                       =   -1571.70470189 
 Solute Internal Energy (H0)                 =   -1571.67307581 
 Total Free Energy (H0 + V/2 + non-elec)     =   -1571.70470189 hartree
                                             = -986259.58605208 kcal/mol
***********************************************************

 SCF   energy in the final basis set =    -1571.7047018914
 Total energy in the final basis set =    -1571.7047018914


 --------------------------------------------------------------
  Generalized many-body perturbation theory program
  by Joonho Lee, Fazle Rob, Xintian Feng, Evgeny Epifanovsky

 No regularization used 
 (reg. param. = 0.0000e+00)
  (P|Q)^-1/2 Time:  CPU 105.34 s  wall 2.06 s

 In RI-MP2 calculation: 
 # of frozen core orbitals: 31

 Components of the RIMP2 correlation energy:
        aaaa    correlation energy =        -0.6173161743 a.u.
        abab    correlation energy =        -3.4318800826 a.u.
        bbbb    correlation energy =        -0.6173161743 a.u.
        non-Brillouin singles      =        -0.0000000000 a.u.
        total same-spin energy     =        -1.2346323485 a.u.
        total opposite-spin energy =        -3.4318800826 a.u.

 Total  RIMP2   correlation energy =        -4.6665124311 a.u.
        RIMP2         total energy =     -1576.3712143225 a.u.

 RI-MP2 Energy Time:  CPU 2002.34 s  wall 32.96 s
 
 --------------------------------------------------------------
 
                    Orbital Energies (a.u.)
 --------------------------------------------------------------
 
 Alpha MOs
 -- Occupied --
-91.9878 -20.5525 -20.5437 -20.5397 -20.5395 -15.6263 -15.6202 -11.3929
-11.3843 -11.3816 -11.3779 -11.3058 -11.3058 -11.3030 -11.3024 -11.2981
-11.2949 -11.2858 -11.2804 -11.2693 -11.2666 -11.2656 -11.2622 -11.2616
-11.2589 -11.2550 -11.2510  -8.9881  -6.6688  -6.6680  -6.6677  -1.4192
 -1.4109  -1.3967  -1.3901  -1.2614  -1.2542  -1.2307  -1.1913  -1.1527
 -1.1123  -1.0844  -1.0451  -0.9988  -0.9911  -0.9866  -0.9545  -0.9490
 -0.8955  -0.8862  -0.8749  -0.8575  -0.7933  -0.7765  -0.7715  -0.7665
 -0.7404  -0.7164  -0.7037  -0.6912  -0.6822  -0.6716  -0.6660  -0.6563
 -0.6459  -0.6430  -0.6372  -0.6325  -0.6295  -0.6262  -0.6205  -0.6047
 -0.5844  -0.5769  -0.5730  -0.5609  -0.5568  -0.5508  -0.5499  -0.5468
 -0.5454  -0.5429  -0.5262  -0.5088  -0.5027  -0.4797  -0.4740  -0.4600
 -0.4554  -0.4503  -0.4415  -0.4330  -0.4127  -0.4064  -0.3566  -0.3507
 -0.3334  -0.2832
 -- Virtual --
  0.0160   0.0449   0.0591   0.0924   0.1383   0.1506   0.1521   0.1613
  0.1640   0.1715   0.1773   0.1784   0.1853   0.1863   0.2002   0.2053
  0.2155   0.2234   0.2248   0.2285   0.2302   0.2332   0.2363   0.2391
  0.2667   0.2699   0.2947   0.3041   0.3114   0.3193   0.3246   0.3276
  0.3321   0.3391   0.3411   0.3521   0.3549   0.3611   0.3630   0.3730
  0.3750   0.3754   0.3790   0.3842   0.3904   0.3941   0.4028   0.4063
  0.4083   0.4164   0.4227   0.4282   0.4318   0.4429   0.4455   0.4481
  0.4525   0.4575   0.4640   0.4652   0.4750   0.4775   0.4862   0.4902
  0.4931   0.5004   0.5061   0.5086   0.5146   0.5156   0.5215   0.5243
  0.5339   0.5361   0.5447   0.5503   0.5559   0.5612   0.5654   0.5680
  0.5742   0.5772   0.5797   0.5850   0.5893   0.5941   0.5960   0.5975
  0.6024   0.6051   0.6064   0.6092   0.6134   0.6186   0.6237   0.6264
  0.6278   0.6340   0.6344   0.6369   0.6391   0.6423   0.6483   0.6507
  0.6641   0.6706   0.6740   0.6844   0.6869   0.6878   0.6981   0.7026
  0.7053   0.7174   0.7275   0.7319   0.7371   0.7443   0.7491   0.7559
  0.7640   0.7668   0.7687   0.7721   0.7807   0.7877   0.7962   0.8000
  0.8084   0.8136   0.8149   0.8197   0.8340   0.8369   0.8439   0.8488
  0.8518   0.8556   0.8622   0.8655   0.8706   0.8734   0.8820   0.8912
  0.8950   0.8976   0.9028   0.9083   0.9137   0.9182   0.9243   0.9317
  0.9357   0.9405   0.9428   0.9568   0.9685   0.9693   0.9746   0.9790
  0.9869   0.9932   0.9963   0.9998   1.0011   1.0067   1.0123   1.0150
  1.0326   1.0364   1.0390   1.0414   1.0548   1.0582   1.0598   1.0639
  1.0683   1.0721   1.0811   1.0812   1.0888   1.0902   1.0982   1.1017
  1.1082   1.1145   1.1226   1.1280   1.1326   1.1338   1.1427   1.1458
  1.1518   1.1546   1.1577   1.1673   1.1768   1.1811   1.1899   1.1930
  1.1938   1.2038   1.2066   1.2079   1.2148   1.2164   1.2210   1.2312
  1.2348   1.2407   1.2444   1.2541   1.2579   1.2624   1.2696   1.2786
  1.2917   1.2956   1.3051   1.3124   1.3209   1.3259   1.3338   1.3437
  1.3477   1.3509   1.3648   1.3676   1.3713   1.3813   1.3848   1.3910
  1.3956   1.3970   1.4024   1.4083   1.4153   1.4247   1.4328   1.4361
  1.4455   1.4573   1.4650   1.4729   1.4748   1.4802   1.4825   1.4958
  1.4976   1.5023   1.5106   1.5174   1.5232   1.5323   1.5374   1.5404
  1.5420   1.5466   1.5529   1.5608   1.5665   1.5725   1.5774   1.5793
  1.5833   1.5898   1.5977   1.6074   1.6181   1.6335   1.6433   1.6482
  1.6573   1.6604   1.6704   1.6719   1.6806   1.6864   1.6901   1.7063
  1.7100   1.7132   1.7208   1.7258   1.7411   1.7491   1.7535   1.7559
  1.7611   1.7700   1.7723   1.7824   1.7865   1.7950   1.8046   1.8167
  1.8187   1.8253   1.8429   1.8464   1.8595   1.8624   1.8678   1.8738
  1.8751   1.8801   1.8892   1.9016   1.9045   1.9213   1.9420   1.9490
  1.9605   1.9622   1.9716   1.9852   1.9887   1.9983   2.0018   2.0245
  2.0324   2.0361   2.0479   2.0679   2.0911   2.1002   2.1114   2.1276
  2.1331   2.1407   2.1496   2.1665   2.1719   2.1780   2.2012   2.2089
  2.2279   2.2378   2.2514   2.2560   2.2807   2.2897   2.2980   2.2992
  2.3146   2.3184   2.3281   2.3395   2.3502   2.3716   2.3799   2.3862
  2.4101   2.4182   2.4218   2.4363   2.4464   2.4558   2.4638   2.4681
  2.4707   2.4781   2.4970   2.5093   2.5111   2.5381   2.5565   2.5608
  2.5692   2.5735   2.5771   2.5876   2.5970   2.6011   2.6108   2.6254
  2.6296   2.6334   2.6385   2.6448   2.6584   2.6613   2.6708   2.6800
  2.6827   2.6924   2.7017   2.7120   2.7182   2.7243   2.7366   2.7389
  2.7446   2.7568   2.7589   2.7712   2.7781   2.7813   2.7947   2.8087
  2.8344   2.8369   2.8438   2.8468   2.8507   2.8599   2.8677   2.8737
  2.8759   2.8880   2.8905   2.8962   2.8972   2.9073   2.9148   2.9165
  2.9245   2.9263   2.9303   2.9460   2.9563   2.9575   2.9659   2.9700
  2.9864   2.9897   2.9973   2.9996   3.0073   3.0160   3.0241   3.0280
  3.0304   3.0458   3.0488   3.0595   3.0648   3.0671   3.0779   3.0865
  3.0973   3.1023   3.1034   3.1091   3.1157   3.1167   3.1203   3.1280
  3.1337   3.1417   3.1465   3.1527   3.1570   3.1646   3.1664   3.1738
  3.1824   3.1905   3.1928   3.2010   3.2110   3.2173   3.2209   3.2235
  3.2326   3.2368   3.2452   3.2487   3.2531   3.2569   3.2636   3.2674
  3.2726   3.2754   3.2773   3.2839   3.2841   3.2894   3.3048   3.3075
  3.3114   3.3136   3.3162   3.3233   3.3286   3.3331   3.3360   3.3422
  3.3480   3.3523   3.3537   3.3547   3.3596   3.3679   3.3695   3.3736
  3.3773   3.3842   3.3888   3.3936   3.3962   3.3998   3.4081   3.4094
  3.4210   3.4241   3.4265   3.4290   3.4348   3.4393   3.4461   3.4505
  3.4527   3.4560   3.4656   3.4704   3.4761   3.4811   3.4840   3.4903
  3.4933   3.5046   3.5079   3.5118   3.5181   3.5196   3.5240   3.5305
  3.5372   3.5463   3.5492   3.5598   3.5660   3.5711   3.5796   3.5825
  3.5898   3.5939   3.5968   3.6126   3.6184   3.6206   3.6256   3.6308
  3.6362   3.6395   3.6440   3.6450   3.6482   3.6558   3.6612   3.6652
  3.6765   3.6810   3.6836   3.6915   3.6949   3.7041   3.7098   3.7194
  3.7235   3.7314   3.7334   3.7403   3.7428   3.7504   3.7539   3.7587
  3.7648   3.7666   3.7740   3.7809   3.7932   3.7956   3.8056   3.8096
  3.8141   3.8162   3.8223   3.8257   3.8323   3.8414   3.8446   3.8500
  3.8540   3.8633   3.8727   3.8784   3.8795   3.8902   3.9022   3.9121
  3.9167   3.9224   3.9363   3.9428   3.9443   3.9499   3.9542   3.9614
  3.9652   3.9700   3.9766   3.9835   3.9934   4.0000   4.0042   4.0130
  4.0186   4.0252   4.0375   4.0451   4.0597   4.0628   4.0698   4.0807
  4.1023   4.1054   4.1093   4.1190   4.1223   4.1388   4.1413   4.1455
  4.1502   4.1576   4.1696   4.1723   4.1822   4.1865   4.2012   4.2113
  4.2182   4.2270   4.2353   4.2441   4.2483   4.2558   4.2643   4.2676
  4.2753   4.2761   4.2849   4.2890   4.3040   4.3044   4.3079   4.3110
  4.3170   4.3221   4.3257   4.3326   4.3406   4.3428   4.3485   4.3548
  4.3575   4.3700   4.3711   4.3756   4.3783   4.3879   4.3981   4.3985
  4.4062   4.4098   4.4142   4.4218   4.4282   4.4440   4.4485   4.4507
  4.4752   4.4840   4.4934   4.5021   4.5141   4.5219   4.5232   4.5345
  4.5385   4.5428   4.5452   4.5704   4.5735   4.5747   4.5837   4.5921
  4.5973   4.6025   4.6050   4.6136   4.6172   4.6273   4.6328   4.6391
  4.6468   4.6572   4.6659   4.6716   4.6913   4.6981   4.7070   4.7205
  4.7299   4.7349   4.7437   4.7575   4.7811   4.7917   4.7960   4.8023
  4.8048   4.8260   4.8330   4.8435   4.8524   4.8594   4.8620   4.8782
  4.8864   4.8987   4.9103   4.9277   4.9399   4.9450   4.9599   4.9674
  4.9743   5.0071   5.0115   5.0225   5.0366   5.0469   5.0516   5.0616
  5.0738   5.0975   5.1109   5.1172   5.1239   5.1254   5.1345   5.1408
  5.1466   5.1588   5.1647   5.1772   5.1857   5.2076   5.2189   5.2259
  5.2560   5.2634   5.2721   5.2793   5.2899   5.3080   5.3167   5.3302
  5.3310   5.3396   5.3554   5.3746   5.3804   5.3888   5.4043   5.4172
  5.4391   5.4472   5.4626   5.4819   5.4998   5.5009   5.5150   5.5166
  5.5183   5.5393   5.5434   5.5557   5.5568   5.5667   5.5687   5.5744
  5.5796   5.5872   5.5960   5.6089   5.6118   5.6222   5.6273   5.6345
  5.6502   5.6545   5.6617   5.6647   5.6676   5.6751   5.6850   5.6948
  5.6959   5.7116   5.7149   5.7398   5.7478   5.7591   5.7642   5.7709
  5.7855   5.7897   5.7967   5.8309   5.8471   5.8583   5.8744   5.9008
  5.9368   5.9496   5.9624   5.9809   5.9928   6.0145   6.0312   6.0419
  6.0432   6.0511   6.0997   6.1127   6.1242   6.1413   6.1503   6.1862
  6.1979   6.2195   6.2218   6.2261   6.2426   6.2570   6.2752   6.2850
  6.3115   6.3148   6.3250   6.3490   6.3673   6.3816   6.4001   6.4864
  6.5220   6.5354   6.5755   6.5784   6.5843   6.6107   6.6187   6.6605
  6.6755   6.6815   6.8464   6.8527   6.8909   6.9016   6.9058   6.9241
  6.9263   6.9301   7.1035   7.1102   7.1498   7.1938   7.2001   7.2367
  7.3480   7.3529   7.3568   7.3608   7.4775   7.5430   7.5731   7.5840
  7.5877   7.5969   7.6559   7.6826   7.6935   7.7146   8.9074  10.1407
 10.3036  11.3035  11.5163  11.7834  11.9826  12.2948  12.4635  12.4746
 12.9617  13.1964  13.3683  13.5628  13.7892  13.9329  14.1720  14.3020
 14.3418  14.3772  14.5292  14.5798  14.9935  15.6153  15.7968  16.3571
 --------------------------------------------------------------
 
          Ground-State Mulliken Net Atomic Charges

     Atom                 Charge (a.u.)
  ----------------------------------------
      1 C                    -0.085186
      2 C                    -0.033337
      3 C                    -0.113158
      4 C                    -0.120073
      5 H                     0.198116
      6 C                     0.020672
      7 C                     0.115838
      8 C                    -0.091491
      9 C                    -0.201298
     10 C                    -0.155852
     11 C                     0.221061
     12 H                     0.195279
     13 C                     0.340909
     14 C                     0.345490
     15 N                    -0.088989
     16 C                     0.355558
     17 C                     0.353023
     18 N                    -0.090299
     19 O                    -0.497405
     20 O                    -0.511130
     21 O                    -0.501872
     22 O                    -0.472045
     23 C                    -0.205459
     24 H                     0.139439
     25 H                     0.108831
     26 H                     0.108397
     27 C                    -0.198279
     28 H                     0.133079
     29 H                     0.111474
     30 H                     0.111947
     31 C                    -0.064949
     32 S                     0.029462
     33 C                    -0.162980
     34 C                    -0.160803
     35 C                    -0.214917
     36 H                     0.199712
     37 H                     0.195085
     38 H                     0.214331
     39 H                     0.136023
     40 H                     0.136461
     41 H                     0.199335
  ----------------------------------------
  Sum of atomic charges =     0.000000

 -----------------------------------------------------------------
                    Cartesian Multipole Moments
 -----------------------------------------------------------------
    Charge (ESU x 10^10)
                 0.0000
    Dipole Moment (Debye)
         X       0.7972      Y       2.6912      Z      -1.1837
       Tot       3.0462
    Quadrupole Moments (Debye-Ang)
        XX    -180.8156     XY      15.2127     YY    -187.2577
        XZ      15.5267     YZ      -3.0392     ZZ    -164.3774
    Octopole Moments (Debye-Ang^2)
       XXX     -52.6346    XXY     599.5521    XYY     -67.1437
       YYY    1737.7331    XXZ     -19.4056    XYZ     -56.8166
       YYZ       9.9772    XZZ     -14.3368    YZZ     520.4951
       ZZZ     -77.8575
    Hexadecapole Moments (Debye-Ang^3)
      XXXX   -5032.9897   XXXY      28.2865   XXYY   -4010.7053
      XYYY     934.6025   YYYY  -18033.3698   XXXZ    1361.6412
      XXYZ      59.9354   XYYZ     806.7093   YYYZ    -621.1643
      XXZZ   -1185.8009   XYZZ      17.0906   YYZZ   -3091.9989
      XZZZ    1258.3997   YZZZ    -177.3311   ZZZZ   -1928.7897
 -----------------------------------------------------------------
 Total job time:  318.68s(wall), 9047.31s(cpu) 
 Sun Sep 24 17:12:54 2023

        *************************************************************
        *                                                           *
        *  Thank you very much for using Q-Chem.  Have a nice day.  *
        *                                                           *
        *************************************************************


0 sent ACK to 0 
now end server 0 ... 
cleanup process ... done
remove work dirs ./qchem3532545.0 -- ./qchem3532545.0
rm -rf ./qchem3532545.0
rm -rf ./qchem3532545
