You are running Q-Chem version: 5.4.0

#
# job setting
#
local host:  exp-8-21
current dir: /expanse/lustre/projects/csd626/rramji/aromodel/PNDIT/Hydrogenated_Rotation_Test
input file:  Dimethyl_Naphthalene_Dicarboximide_Phi_25_Theta_120_Thiophene_Hydrogenated.qcin
output file: 
nprocs     : 1
nthreads   : 64
#
# qchem installation setting
#
QC:          /cm/shared/apps/spack/cpu/opt/spack/linux-centos8-zen2/gcc-10.2.0/qchem-5.4-akfmr7b3t57bfs6qan3padb2wnb2i7cl
QCAUX:       /cm/shared/apps/spack/cpu/opt/spack/linux-centos8-zen2/gcc-10.2.0/qchem-5.4-akfmr7b3t57bfs6qan3padb2wnb2i7cl/qcaux
QCPROG:      /cm/shared/apps/spack/cpu/opt/spack/linux-centos8-zen2/gcc-10.2.0/qchem-5.4-akfmr7b3t57bfs6qan3padb2wnb2i7cl/exe/qcprog.exe
QCPROG_S:    /cm/shared/apps/spack/cpu/opt/spack/linux-centos8-zen2/gcc-10.2.0/qchem-5.4-akfmr7b3t57bfs6qan3padb2wnb2i7cl/exe/qcprog.exe_s
PARALLEL:    -DPARALLEL
QCMPI:       mpich
#
# qchem directory setting
#
qcrun:       qchem1995043
QCSCRATCH:   .
QCLOCALSCR:  
QCTMPDIR:    .
QCFILEPREF:  ./qchem1995043
QCSAVEDIR:   
workdirs:    ./qchem1995043
workdir0:    ./qchem1995043
partmpdirs =  
#
# parallel setting
#
QCRSH:           ssh
QCMPI:           mpich
QCMPIRUN:        /cm/shared/apps/spack/cpu/opt/spack/linux-centos8-zen2/gcc-10.2.0/qchem-5.4-akfmr7b3t57bfs6qan3padb2wnb2i7cl/bin/mpi/mpirun_qchem
QCMACHINEFILE:   ./qchem1995043/hostfile
exp-8-21

#
# env setting
#
exported envs:   QC QCAUX QCSCRATCH QCRUNNAME QCFILEPREF QCPROG QCPROG_S GUIFILE

Running Job 1 of 1 Dimethyl_Naphthalene_Dicarboximide_Phi_25_Theta_120_Thiophene_Hydrogenated.qcin
qchem Dimethyl_Naphthalene_Dicarboximide_Phi_25_Theta_120_Thiophene_Hydrogenated.qcin_1995043.0 ./qchem1995043/ 1
/cm/shared/apps/spack/cpu/opt/spack/linux-centos8-zen2/gcc-10.2.0/qchem-5.4-akfmr7b3t57bfs6qan3padb2wnb2i7cl/bin/mpi/mpirun_qchem -machinefile ./qchem1995043/hostfile -np 1 /cm/shared/apps/spack/cpu/opt/spack/linux-centos8-zen2/gcc-10.2.0/qchem-5.4-akfmr7b3t57bfs6qan3padb2wnb2i7cl/exe/qcprog.exe Dimethyl_Naphthalene_Dicarboximide_Phi_25_Theta_120_Thiophene_Hydrogenated.qcin_1995043.0 ./qchem1995043/

Process 0 of 1 is on exp-8-21 - thread support 0
initial socket setup ...start
initial socket setup ...done 
now start server 0 ... 
                  Welcome to Q-Chem
     A Quantum Leap Into The Future Of Chemistry


 Q-Chem 5.4, Q-Chem, Inc., Pleasanton, CA (2021)

 License issued to: University of California, San Diego (site)

 E. Epifanovsky,  A. T. B. Gilbert,  Xintian Feng,  Joonho Lee,  Yuezhi Mao,  
 N. Mardirossian,  P. Pokhilko,  A. White,  M. Wormit,  M. P. Coons,  
 A. L. Dempwolff,  Zhengting Gan,  D. Hait,  P. R. Horn,  L. D. Jacobson,  
 I. Kaliman,  J. Kussmann,  A. W. Lange,  Ka Un Lao,  D. S. Levine,  Jie Liu,  
 S. C. McKenzie,  A. F. Morrison,  K. Nanda,  F. Plasser,  D. R. Rehn,  
 M. L. Vidal,  Zhi-Qiang You,  Ying Zhu,  B. Alam,  B. Albrecht,  
 A. Aldossary,  E. Alguire,  J. H. Andersen,  D. Barton,  K. Begam,  A. Behn,  
 Y. A. Bernard,  E. J. Berquist,  H. Burton,  A. Carreras,  K. Carter-Fenk,  
 R. Chakraborty,  A. D. Chien,  K. D. Closser,  V. Cofer-Shabica,  
 S. Dasgupta,  Jia Deng,  M. de Wergifosse,  M. Diedenhofen,  Hainam Do,  
 S. Ehlert,  Po-Tung Fang,  S. Fatehi,  Qingguo Feng,  J. Gayvert,  
 Qinghui Ge,  G. Gidofalvi,  M. Goldey,  J. Gomes,  C. Gonzalez-Espinoza,  
 S. Gulania,  A. Gunina,  M. W. D. Hanson-Heine,  P. H. P. Harbach,  
 A. W. Hauser,  M. F. Herbst,  M. Hernandez Vera,  M. Hodecker,  
 Z. C. Holden,  S. Houck,  Xunkun Huang,  Kerwin Hui,  B. C. Huynh,  
 M. Ivanov,  Hyunjun Ji,  Hanjie Jiang,  B. Kaduk,  S. Kaehler,  
 K. Khistyaev,  Jaehoon Kim,  P. Klunzinger,  Z. Koczor-Benda,  
 Joong Hoon Koh,  D. Kosenkov,  L. Koulias,  T. Kowalczyk,  C. M. Krauter,  
 K. Kue,  A. Kunitsa,  T. Kus,  A. Landau,  K. V. Lawler,  D. Lefrancois,  
 S. Lehtola,  Rain Li,  Yi-Pei Li,  Jiashu Liang,  M. Liebenthal,  
 Hung-Hsuan Lin,  You-Sheng Lin,  Fenglai Liu,  Kuan-Yu Liu,  
 M. Loipersberger,  A. Luenser,  A. Manjanath,  P. Manohar,  E. Mansoor,  
 S. F. Manzer,  Shan-Ping Mao,  A. V. Marenich,  T. Markovich,  S. Mason,  
 S. A. Maurer,  P. F. McLaughlin,  M. F. S. J. Menger,  J.-M. Mewes,  
 S. A. Mewes,  P. Morgante,  J. W. Mullinax,  T. S. Nguyen-Beck,  
 K. J. Oosterbaan,  G. Paran,  Alexander C. Paul,  Suranjan K. Paul,  
 F. Pavosevic,  Zheng Pei,  S. Prager,  E. I. Proynov,  E. Ramos,  B. Rana,  
 A. E. Rask,  A. Rettig,  R. M. Richard,  F. Rob,  E. Rossomme,  T. Scheele,  
 M. Scheurer,  M. Schneider,  N. Sergueev,  S. M. Sharada,  W. Skomorowski,  
 D. W. Small,  C. J. Stein,  Yu-Chuan Su,  E. J. Sundstrom,  Zhen Tao,  
 J. Thirman,  T. Tsuchimochi,  N. M. Tubman,  S. P. Veccham,  O. Vydrov,  
 J. Wenzel,  J. Witte,  A. Yamada,  Kun Yao,  S. Yeganeh,  S. R. Yost,  
 A. Zech,  Igor Ying Zhang,  Xing Zhang,  Yu Zhang,  D. Zuev,  
 A. Aspuru-Guzik,  A. T. Bell,  N. A. Besley,  K. B. Bravaya,  B. R. Brooks,  
 D. Casanova,  Jeng-Da Chai,  S. Coriani,  C. J. Cramer,  
 A. E. DePrince, III,  R. A. DiStasio Jr.,  A. Dreuw,  B. D. Dunietz,  
 T. R. Furlani,  W. A. Goddard III,  S. Grimme,  S. Hammes-Schiffer,  
 T. Head-Gordon,  W. J. Hehre,  Chao-Ping Hsu,  T.-C. Jagau,  Yousung Jung,  
 A. Klamt,  Jing Kong,  D. S. Lambrecht,  WanZhen Liang,  N. J. Mayhall,  
 C. W. McCurdy,  J. B. Neaton,  C. Ochsenfeld,  J. A. Parkhill,  R. Peverati,  
 V. A. Rassolov,  Yihan Shao,  L. V. Slipchenko,  T. Stauch,  R. P. Steele,  
 J. E. Subotnik,  A. J. W. Thom,  A. Tkatchenko,  D. G. Truhlar,  
 T. Van Voorhis,  T. A. Wesolowski,  K. B. Whaley,  H. L. Woodcock III,  
 P. M. Zimmerman,  S. Faraji,  P. M. W. Gill,  M. Head-Gordon,  
 J. M. Herbert,  A. I. Krylov

 Contributors to earlier versions of Q-Chem not listed above: 
 R. D. Adamson,  B. Austin,  R. Baer,  J. Baker,  G. J. O. Beran,  
 K. Brandhorst,  S. T. Brown,  E. F. C. Byrd,  A. K. Chakraborty,  
 G. K. L. Chan,  Chun-Min Chang,  Yunqing Chen,  C.-L. Cheng,  
 Siu Hung Chien,  D. M. Chipman,  D. L. Crittenden,  H. Dachsel,  
 R. J. Doerksen,  A. D. Dutoi,  R. G. Edgar,  J. Fosso-Tande,  
 L. Fusti-Molnar,  D. Ghosh,  A. Ghysels,  A. Golubeva-Zadorozhnaya,  
 J. Gonthier,  M. S. Gordon,  S. R. Gwaltney,  G. Hawkins,  J. E. Herr,  
 A. Heyden,  S. Hirata,  E. G. Hohenstein,  G. Kedziora,  F. J. Keil,  
 C. Kelley,  Jihan Kim,  R. A. King,  R. Z. Khaliullin,  P. P. Korambath,  
 W. Kurlancheek,  A. Laurent,  A. M. Lee,  M. S. Lee,  S. V. Levchenko,  
 Ching Yeh Lin,  D. Liotard,  E. Livshits,  R. C. Lochan,  I. Lotan,  
 L. A. Martinez-Martinez,  P. E. Maslen,  N. Nair,  D. P. O'Neill,  
 D. Neuhauser,  E. Neuscamman,  C. M. Oana,  R. Olivares-Amaya,  R. Olson,  
 T. M. Perrine,  B. Peters,  P. A. Pieniazek,  A. Prociuk,  Y. M. Rhee,  
 J. Ritchie,  M. A. Rohrdanz,  E. Rosta,  N. J. Russ,  H. F. Schaefer III,  
 M. W. Schmidt,  N. E. Schultz,  S. Sharma,  N. Shenvi,  C. D. Sherrill,  
 A. C. Simmonett,  A. Sodt,  T. Stein,  D. Stuck,  K. S. Thanthiriwatte,  
 V. Vanovschi,  L. Vogt,  Tao Wang,  A. Warshel,  M. A. Watson,  
 C. F. Williams,  Q. Wu,  X. Xu,  Jun Yang,  W. Zhang,  Yan Zhao

 Please cite Q-Chem as follows:
 Y. Shao et al., Mol. Phys. 113, 184-215 (2015)
 DOI: 10.1080/00268976.2014.952696

 Q-Chem 5.4.0 for Intel X86 EM64T Linux

 Parts of Q-Chem use Armadillo 9.800.1 (Horizon Scraper).
 http://arma.sourceforge.net/

 Q-Chem begins on Tue Sep 26 22:57:08 2023  

 Host: 
0

     Scratch files written to ./qchem1995043//
 May1621 |scratch|qcdevops|jenkins|workspace|build_RNUM    
 Parallel job on  1  processors
 Processing $rem in /cm/shared/apps/spack/cpu/opt/spack/linux-centos8-zen2/gcc-10.2.0/qchem-5.4-akfmr7b3t57bfs6qan3padb2wnb2i7cl/config/preferences:
 Processing $rem in /home/rramji/.qchemrc:
 Symmetry turned off for PCM/SM12/SMD calculation
 Core orbitals will be frozen

 Checking the input file for inconsistencies... 	...done.

 Q-Chem warning in module forms1/BasisType.C, line 2236:

 You are not using the predefined 5D/6D in this basis set.


--------------------------------------------------------------
User input:
--------------------------------------------------------------
$molecule
0 1
C	0.223244	-6.741404	0.127184
C	1.354118	-6.155638	0.779949
C	-0.715408	-5.791452	-0.415271
C	1.595259	-4.803786	0.919437
H	2.114613	-6.821518	1.218801
C	-0.463133	-4.378638	-0.268806
C	0.688925	-3.838032	0.396744
C	-1.368449	-3.413062	-0.790835
C	0.939189	-2.426473	0.542026
C	-1.130363	-2.059348	-0.652669
C	-0.000000	-1.478216	-0.000000
H	-1.891815	-1.394783	-1.091814
C	-1.963749	-6.187987	-1.138124
C	-2.607351	-3.798164	-1.506241
N	-2.817348	-5.170003	-1.629443
C	2.837621	-4.424987	1.636646
C	2.188982	-2.036627	1.264474
N	3.042637	-3.049156	1.756205
O	-2.301222	-7.353131	-1.336258
O	-3.407386	-2.986854	-1.967056
O	3.628041	-5.248946	2.092167
O	2.545844	-0.878829	1.472160
C	-4.040164	-5.563799	-2.336642
H	-4.078749	-6.664085	-2.360245
H	-4.027880	-5.147101	-3.361968
H	-4.922811	-5.148785	-1.813424
C	4.247167	-2.587487	2.452149
H	4.804209	-3.483329	2.772531
H	3.965991	-1.964972	3.322697
H	4.859678	-1.962932	1.774507
C	0.000000	0.000000	0.000000
S	0.335026	0.718942	1.580530
C	1.027130	2.203226	0.904911
C	0.421617	0.904557	-0.985400
C	0.979485	2.101144	-0.493528
H	0.322049	0.690978	-2.059934
H	1.351718	2.899571	-1.152593
H	1.399246	3.001430	1.556025
H	-0.318588	-7.361589	0.851574
H	0.580522	-7.361192	-0.704181
H	-0.540459	-1.478831	0.935042
$end

$rem
JOBTYPE		SP
EXCHANGE	HF
CORRELATION	pRIMP2
BASIS		cc-pvtz
METHOD		rimp2
AUX_BASIS	rimp2-cc-pvtz
SOLVENT_METHOD	PCM
PURECART	11111
SYMMETRY	false
MEM_TOTAL	110000
SCF_CONVERGENCE = 6
THRESH=10
GUI = 2
$end



$solvent
dielectric 4.90
$end
--------------------------------------------------------------
 ----------------------------------------------------------------
             Standard Nuclear Orientation (Angstroms)
    I     Atom           X                Y                Z
 ----------------------------------------------------------------
    1      C       0.2232440000    -6.7414040000     0.1271840000
    2      C       1.3541180000    -6.1556380000     0.7799490000
    3      C      -0.7154080000    -5.7914520000    -0.4152710000
    4      C       1.5952590000    -4.8037860000     0.9194370000
    5      H       2.1146130000    -6.8215180000     1.2188010000
    6      C      -0.4631330000    -4.3786380000    -0.2688060000
    7      C       0.6889250000    -3.8380320000     0.3967440000
    8      C      -1.3684490000    -3.4130620000    -0.7908350000
    9      C       0.9391890000    -2.4264730000     0.5420260000
   10      C      -1.1303630000    -2.0593480000    -0.6526690000
   11      C       0.0000000000    -1.4782160000     0.0000000000
   12      H      -1.8918150000    -1.3947830000    -1.0918140000
   13      C      -1.9637490000    -6.1879870000    -1.1381240000
   14      C      -2.6073510000    -3.7981640000    -1.5062410000
   15      N      -2.8173480000    -5.1700030000    -1.6294430000
   16      C       2.8376210000    -4.4249870000     1.6366460000
   17      C       2.1889820000    -2.0366270000     1.2644740000
   18      N       3.0426370000    -3.0491560000     1.7562050000
   19      O      -2.3012220000    -7.3531310000    -1.3362580000
   20      O      -3.4073860000    -2.9868540000    -1.9670560000
   21      O       3.6280410000    -5.2489460000     2.0921670000
   22      O       2.5458440000    -0.8788290000     1.4721600000
   23      C      -4.0401640000    -5.5637990000    -2.3366420000
   24      H      -4.0787490000    -6.6640850000    -2.3602450000
   25      H      -4.0278800000    -5.1471010000    -3.3619680000
   26      H      -4.9228110000    -5.1487850000    -1.8134240000
   27      C       4.2471670000    -2.5874870000     2.4521490000
   28      H       4.8042090000    -3.4833290000     2.7725310000
   29      H       3.9659910000    -1.9649720000     3.3226970000
   30      H       4.8596780000    -1.9629320000     1.7745070000
   31      C       0.0000000000     0.0000000000     0.0000000000
   32      S       0.3350260000     0.7189420000     1.5805300000
   33      C       1.0271300000     2.2032260000     0.9049110000
   34      C       0.4216170000     0.9045570000    -0.9854000000
   35      C       0.9794850000     2.1011440000    -0.4935280000
   36      H       0.3220490000     0.6909780000    -2.0599340000
   37      H       1.3517180000     2.8995710000    -1.1525930000
   38      H       1.3992460000     3.0014300000     1.5560250000
   39      H      -0.3185880000    -7.3615890000     0.8515740000
   40      H       0.5805220000    -7.3611920000    -0.7041810000
   41      H      -0.5404590000    -1.4788310000     0.9350420000
 ----------------------------------------------------------------
 Nuclear Repulsion Energy =        2568.12302930 hartrees
 There are       98 alpha and       98 beta electrons
 Requested basis set is cc-pVTZ
 There are 356 shells and 1010 basis functions

 Total QAlloc Memory Limit 110000 MB
 Mega-Array Size       188 MB
 MEM_STATIC part       192 MB
 Discretize the solute cavity surface with Lebedev spheres
	Using 110 Lebedev grid points for each H atom
	Using 194 Lebedev grid points for other atoms
	Atomic van der Waals radii will be scaled by 1.20
 Remove points where switching function is < 1.0e-08
 Keep 2596 surface tesserae and discard 4182 interior tesserae
 Molecular Surface Area = 366.874 Angst**2
 Requested basis set is rimp2-cc-pVTZ
 There are 770 shells and 2648 basis functions
 A cutoff of  1.0D-10 yielded  34408 shell pairs
 There are    260044 function pairs (    336555 Cartesian)
 Smallest overlap matrix eigenvalue = 8.98E-06

 Q-Chem warning in module stvman/mkSTV.C, line 323:

 Overlap eigenvalue is smaller than square root of threshold
 Use THRESH >= 12 to get rid of this warning


 Scale SEOQF with 1.000000e-01/1.000000e-02/1.000000e-01

 Standard Electronic Orientation quadrupole field applied
 Nucleus-field energy     =     0.0000000167 hartrees
 Guess from superposition of atomic densities
 Warning:  Energy on first SCF cycle will be non-variational
 SAD guess density has 196.000000 electrons

 -----------------------------------------------------------------------
  General SCF calculation program by
  Eric Jon Sundstrom, Paul Horn, Yuezhi Mao, Dmitri Zuev, Alec White,
  David Stuck, Shaama M.S., Shane Yost, Joonho Lee, David Small,
  Daniel Levine, Susi Lehtola, Hugh Burton, Evgeny Epifanovsky,
  Bang C. Huynh
 -----------------------------------------------------------------------
 Hartree-Fock
 using 64 threads for integral computing
 -------------------------------------------------------
 OpenMP Integral computing Module                
 Release: version 1.0, May 2013, Q-Chem Inc. Pittsburgh 
 -------------------------------------------------------
 A restricted SCF calculation will be
 performed using DIIS
 SCF converges when DIIS error is below 1.0e-06
 ---------------------------------------
  Cycle       Energy         DIIS error
 ---------------------------------------
    1   -1583.1346742798      1.86e-02  
    2   -1571.1467436130      2.03e-03  
    3   -1571.4847358949      1.55e-03  
    4   -1571.7069648053      2.53e-04  
    5   -1571.7207974272      7.84e-05  
    6   -1571.7222255106      3.03e-05  
    7   -1571.7226533337      1.56e-05  
    8   -1571.7227723404      6.46e-06  
    9   -1571.7227933871      3.00e-06  
   10   -1571.7227977677      1.27e-06  
   11   -1571.7227990543      5.74e-07  Convergence criterion met
 ---------------------------------------
 SCF time:   CPU 6915.27s  wall 259.00s 

************** Final PCM Free Energy Summary **************
 G_electrostatic  =      -0.02968658 hartree =     -18.62861303 kcal/mol
 G_cavitation     =       0.00000000 hartree =       0.00000000 kcal/mol
 G_dispersion     =       0.00000000 hartree =       0.00000000 kcal/mol
 G_repulsion      =       0.00000000 hartree =       0.00000000 kcal/mol
 --------------------------------------------------
 Non-electrostatic Free Energy =       0.00000000 hartree =       0.00000000 kcal/mol
 Total                         =      -0.02968658 hartree =     -18.62861303 kcal/mol
 --------------------------------------------------
 SCF Energy (H0 + V/2)                       =   -1571.72279905 
 Solute Internal Energy (H0)                 =   -1571.69311247 
 Total Free Energy (H0 + V/2 + non-elec)     =   -1571.72279905 hartree
                                             = -986270.94219318 kcal/mol
***********************************************************

 SCF   energy in the final basis set =    -1571.7227990543
 Total energy in the final basis set =    -1571.7227990543


 --------------------------------------------------------------
  Generalized many-body perturbation theory program
  by Joonho Lee, Fazle Rob, Xintian Feng, Evgeny Epifanovsky

 No regularization used 
 (reg. param. = 0.0000e+00)
  (P|Q)^-1/2 Time:  CPU 111.05 s  wall 2.47 s

 In RI-MP2 calculation: 
 # of frozen core orbitals: 31

 Components of the RIMP2 correlation energy:
        aaaa    correlation energy =        -0.6165617545 a.u.
        abab    correlation energy =        -3.4294111656 a.u.
        bbbb    correlation energy =        -0.6165617545 a.u.
        non-Brillouin singles      =        -0.0000000000 a.u.
        total same-spin energy     =        -1.2331235089 a.u.
        total opposite-spin energy =        -3.4294111656 a.u.

 Total  RIMP2   correlation energy =        -4.6625346745 a.u.
        RIMP2         total energy =     -1576.3853337288 a.u.

 RI-MP2 Energy Time:  CPU 1991.72 s  wall 33.11 s
 
 --------------------------------------------------------------
 
                    Orbital Energies (a.u.)
 --------------------------------------------------------------
 
 Alpha MOs
 -- Occupied --
-91.9837 -20.5484 -20.5438 -20.5410 -20.5399 -15.6259 -15.6207 -11.3915
-11.3845 -11.3829 -11.3783 -11.3079 -11.3066 -11.3045 -11.3041 -11.2959
-11.2868 -11.2844 -11.2844 -11.2680 -11.2676 -11.2629 -11.2625 -11.2591
-11.2550 -11.2521 -11.2473  -8.9838  -6.6645  -6.6639  -6.6636  -1.4188
 -1.4116  -1.3967  -1.3908  -1.2613  -1.2548  -1.2286  -1.1851  -1.1507
 -1.1131  -1.0852  -1.0458  -0.9940  -0.9873  -0.9820  -0.9544  -0.9502
 -0.8948  -0.8860  -0.8764  -0.8596  -0.7905  -0.7750  -0.7737  -0.7667
 -0.7341  -0.7173  -0.7030  -0.6903  -0.6773  -0.6690  -0.6671  -0.6566
 -0.6464  -0.6392  -0.6382  -0.6315  -0.6304  -0.6263  -0.6232  -0.6039
 -0.5842  -0.5726  -0.5671  -0.5612  -0.5570  -0.5509  -0.5500  -0.5477
 -0.5474  -0.5430  -0.5169  -0.5121  -0.5076  -0.4812  -0.4721  -0.4629
 -0.4542  -0.4486  -0.4421  -0.4339  -0.4128  -0.4070  -0.3520  -0.3402
 -0.3282  -0.2872
 -- Virtual --
  0.0153   0.0439   0.0845   0.0920   0.1321   0.1497   0.1548   0.1598
  0.1642   0.1722   0.1797   0.1835   0.1844   0.1923   0.1940   0.2039
  0.2102   0.2195   0.2246   0.2289   0.2321   0.2353   0.2376   0.2422
  0.2659   0.2694   0.2974   0.3039   0.3114   0.3176   0.3227   0.3253
  0.3287   0.3400   0.3439   0.3518   0.3556   0.3595   0.3626   0.3645
  0.3718   0.3765   0.3810   0.3865   0.3895   0.3906   0.3992   0.4034
  0.4177   0.4204   0.4311   0.4329   0.4352   0.4389   0.4473   0.4492
  0.4522   0.4533   0.4568   0.4649   0.4755   0.4850   0.4930   0.4948
  0.4978   0.5083   0.5148   0.5155   0.5169   0.5221   0.5224   0.5282
  0.5334   0.5357   0.5452   0.5488   0.5535   0.5583   0.5620   0.5658
  0.5722   0.5729   0.5767   0.5822   0.5899   0.5922   0.5941   0.6026
  0.6044   0.6073   0.6081   0.6105   0.6174   0.6183   0.6221   0.6261
  0.6274   0.6326   0.6354   0.6375   0.6397   0.6430   0.6468   0.6486
  0.6604   0.6657   0.6772   0.6787   0.6866   0.6900   0.6941   0.6990
  0.7071   0.7148   0.7167   0.7274   0.7361   0.7381   0.7453   0.7570
  0.7644   0.7689   0.7740   0.7797   0.7823   0.7883   0.7948   0.8021
  0.8068   0.8079   0.8164   0.8253   0.8279   0.8321   0.8413   0.8478
  0.8523   0.8580   0.8630   0.8642   0.8708   0.8753   0.8775   0.8840
  0.8912   0.8990   0.9040   0.9085   0.9156   0.9237   0.9282   0.9296
  0.9360   0.9418   0.9495   0.9523   0.9621   0.9639   0.9700   0.9777
  0.9786   0.9911   0.9952   0.9998   1.0034   1.0106   1.0169   1.0237
  1.0277   1.0310   1.0397   1.0411   1.0486   1.0516   1.0590   1.0653
  1.0662   1.0704   1.0724   1.0805   1.0869   1.0897   1.1016   1.1068
  1.1081   1.1155   1.1214   1.1312   1.1317   1.1355   1.1370   1.1440
  1.1505   1.1524   1.1583   1.1648   1.1659   1.1720   1.1791   1.1865
  1.1945   1.1974   1.2027   1.2069   1.2091   1.2138   1.2205   1.2282
  1.2336   1.2368   1.2383   1.2440   1.2537   1.2540   1.2608   1.2747
  1.2824   1.2894   1.2964   1.3098   1.3188   1.3297   1.3317   1.3353
  1.3463   1.3492   1.3576   1.3669   1.3720   1.3794   1.3855   1.3866
  1.3893   1.3917   1.4035   1.4053   1.4128   1.4195   1.4226   1.4349
  1.4484   1.4552   1.4626   1.4717   1.4767   1.4876   1.4939   1.4946
  1.4979   1.5029   1.5146   1.5183   1.5200   1.5246   1.5347   1.5366
  1.5439   1.5486   1.5525   1.5557   1.5635   1.5683   1.5724   1.5748
  1.5835   1.5887   1.5956   1.6082   1.6101   1.6308   1.6335   1.6390
  1.6459   1.6575   1.6638   1.6714   1.6798   1.6855   1.6901   1.6983
  1.7028   1.7117   1.7200   1.7248   1.7378   1.7463   1.7495   1.7552
  1.7574   1.7667   1.7772   1.7803   1.7837   1.7921   1.8098   1.8102
  1.8178   1.8265   1.8369   1.8478   1.8539   1.8649   1.8722   1.8732
  1.8751   1.8818   1.8841   1.9048   1.9179   1.9243   1.9318   1.9498
  1.9596   1.9673   1.9721   1.9880   1.9917   1.9966   2.0103   2.0275
  2.0328   2.0411   2.0501   2.0774   2.0965   2.0983   2.1147   2.1298
  2.1353   2.1397   2.1531   2.1574   2.1782   2.1931   2.2085   2.2251
  2.2395   2.2466   2.2507   2.2699   2.2844   2.2906   2.3084   2.3112
  2.3158   2.3234   2.3309   2.3375   2.3647   2.3654   2.3705   2.3883
  2.4005   2.4305   2.4373   2.4405   2.4477   2.4563   2.4602   2.4705
  2.4762   2.4832   2.5007   2.5026   2.5156   2.5233   2.5393   2.5478
  2.5583   2.5702   2.5761   2.5860   2.5933   2.6035   2.6055   2.6249
  2.6275   2.6373   2.6412   2.6457   2.6597   2.6702   2.6761   2.6809
  2.6919   2.6965   2.7025   2.7135   2.7282   2.7293   2.7322   2.7407
  2.7430   2.7506   2.7589   2.7634   2.7687   2.7758   2.7856   2.8060
  2.8089   2.8334   2.8363   2.8413   2.8512   2.8548   2.8578   2.8774
  2.8792   2.8833   2.8845   2.8926   2.8958   2.9039   2.9069   2.9213
  2.9239   2.9245   2.9334   2.9415   2.9471   2.9574   2.9608   2.9781
  2.9857   2.9884   2.9943   3.0070   3.0172   3.0197   3.0236   3.0298
  3.0344   3.0382   3.0523   3.0565   3.0592   3.0741   3.0827   3.0933
  3.0956   3.1013   3.1054   3.1091   3.1116   3.1193   3.1231   3.1280
  3.1326   3.1385   3.1480   3.1491   3.1577   3.1590   3.1717   3.1729
  3.1858   3.1943   3.1963   3.2058   3.2114   3.2142   3.2176   3.2240
  3.2297   3.2345   3.2403   3.2496   3.2549   3.2578   3.2616   3.2666
  3.2736   3.2758   3.2788   3.2881   3.2973   3.3023   3.3043   3.3077
  3.3097   3.3163   3.3193   3.3235   3.3288   3.3353   3.3362   3.3397
  3.3445   3.3500   3.3523   3.3549   3.3586   3.3676   3.3709   3.3774
  3.3835   3.3872   3.3926   3.3939   3.3994   3.4024   3.4037   3.4077
  3.4172   3.4201   3.4236   3.4309   3.4339   3.4413   3.4432   3.4560
  3.4598   3.4624   3.4650   3.4699   3.4743   3.4788   3.4856   3.4893
  3.4929   3.4992   3.5060   3.5089   3.5109   3.5132   3.5219   3.5316
  3.5337   3.5396   3.5475   3.5548   3.5574   3.5625   3.5688   3.5808
  3.5882   3.5939   3.5995   3.6035   3.6077   3.6210   3.6230   3.6259
  3.6280   3.6316   3.6378   3.6439   3.6487   3.6516   3.6544   3.6588
  3.6676   3.6787   3.6819   3.6902   3.6984   3.7015   3.7082   3.7127
  3.7218   3.7299   3.7335   3.7415   3.7417   3.7451   3.7510   3.7544
  3.7617   3.7678   3.7694   3.7746   3.7773   3.7921   3.7996   3.8039
  3.8112   3.8146   3.8170   3.8274   3.8324   3.8362   3.8411   3.8460
  3.8492   3.8525   3.8571   3.8669   3.8874   3.8931   3.8998   3.9077
  3.9106   3.9199   3.9230   3.9311   3.9396   3.9435   3.9506   3.9524
  3.9581   3.9647   3.9662   3.9734   3.9823   3.9881   3.9933   4.0083
  4.0184   4.0250   4.0301   4.0367   4.0472   4.0574   4.0714   4.0770
  4.0957   4.0975   4.1122   4.1215   4.1233   4.1342   4.1380   4.1429
  4.1453   4.1575   4.1667   4.1711   4.1760   4.1823   4.1920   4.2089
  4.2133   4.2196   4.2276   4.2409   4.2455   4.2480   4.2571   4.2656
  4.2691   4.2757   4.2826   4.2840   4.2926   4.2949   4.3007   4.3076
  4.3134   4.3210   4.3238   4.3277   4.3356   4.3420   4.3495   4.3576
  4.3647   4.3694   4.3704   4.3722   4.3777   4.3799   4.3873   4.3952
  4.3976   4.4073   4.4148   4.4225   4.4311   4.4456   4.4483   4.4560
  4.4627   4.4740   4.4875   4.4994   4.5038   4.5154   4.5186   4.5290
  4.5386   4.5421   4.5463   4.5510   4.5569   4.5681   4.5804   4.5841
  4.5874   4.5949   4.5985   4.6134   4.6179   4.6234   4.6264   4.6403
  4.6469   4.6497   4.6674   4.6758   4.6887   4.6903   4.6991   4.7111
  4.7138   4.7245   4.7429   4.7512   4.7730   4.7818   4.7921   4.7954
  4.8109   4.8271   4.8293   4.8457   4.8527   4.8557   4.8762   4.8796
  4.8843   4.8962   4.9096   4.9218   4.9319   4.9424   4.9570   4.9772
  4.9964   4.9987   5.0218   5.0238   5.0371   5.0448   5.0534   5.0640
  5.0720   5.0771   5.1017   5.1065   5.1224   5.1259   5.1308   5.1379
  5.1432   5.1513   5.1710   5.1747   5.1882   5.1971   5.2216   5.2353
  5.2616   5.2644   5.2718   5.2832   5.2894   5.3022   5.3197   5.3293
  5.3323   5.3478   5.3558   5.3715   5.3787   5.3856   5.4043   5.4167
  5.4337   5.4493   5.4774   5.4848   5.4924   5.5012   5.5142   5.5156
  5.5183   5.5411   5.5482   5.5516   5.5593   5.5628   5.5676   5.5767
  5.5790   5.5855   5.5880   5.5903   5.6100   5.6164   5.6208   5.6327
  5.6495   5.6519   5.6611   5.6649   5.6669   5.6700   5.6942   5.6975
  5.7021   5.7104   5.7327   5.7409   5.7581   5.7616   5.7718   5.7759
  5.7860   5.7910   5.8039   5.8311   5.8441   5.8563   5.9018   5.9235
  5.9332   5.9568   5.9812   5.9903   6.0157   6.0228   6.0405   6.0458
  6.0497   6.0592   6.1025   6.1129   6.1237   6.1414   6.1460   6.1915
  6.2018   6.2205   6.2255   6.2265   6.2464   6.2615   6.2727   6.2839
  6.3088   6.3114   6.3245   6.3488   6.3665   6.3850   6.4262   6.4852
  6.5204   6.5348   6.5766   6.5833   6.6040   6.6203   6.6399   6.6605
  6.6719   6.6775   6.8497   6.8506   6.8897   6.9032   6.9069   6.9240
  6.9278   6.9627   7.1032   7.1123   7.1478   7.1953   7.2001   7.2366
  7.3483   7.3527   7.3587   7.3643   7.4762   7.5446   7.5715   7.5841
  7.5923   7.6119   7.6548   7.6840   7.6953   7.7172   8.8356  10.0375
 10.3272  11.3162  11.5170  11.7526  12.0022  12.1292  12.4129  12.4600
 12.8991  13.2083  13.3380  13.5525  13.7837  13.9348  14.1076  14.2756
 14.3136  14.3678  14.5151  14.5398  15.0275  15.6046  15.8238  16.3132
 --------------------------------------------------------------
 
          Ground-State Mulliken Net Atomic Charges

     Atom                 Charge (a.u.)
  ----------------------------------------
      1 C                    -0.084133
      2 C                    -0.031197
      3 C                    -0.113200
      4 C                    -0.120145
      5 H                     0.198461
      6 C                     0.008939
      7 C                     0.119252
      8 C                    -0.082330
      9 C                    -0.189418
     10 C                    -0.151826
     11 C                     0.232217
     12 H                     0.192073
     13 C                     0.342881
     14 C                     0.349064
     15 N                    -0.089770
     16 C                     0.355643
     17 C                     0.376384
     18 N                    -0.090021
     19 O                    -0.495257
     20 O                    -0.507928
     21 O                    -0.502268
     22 O                    -0.467915
     23 C                    -0.204842
     24 H                     0.139356
     25 H                     0.108893
     26 H                     0.108960
     27 C                    -0.197295
     28 H                     0.133258
     29 H                     0.110765
     30 H                     0.111328
     31 C                    -0.068017
     32 S                     0.027167
     33 C                    -0.193877
     34 C                    -0.174532
     35 C                    -0.208998
     36 H                     0.189926
     37 H                     0.189890
     38 H                     0.210820
     39 H                     0.137167
     40 H                     0.137246
     41 H                     0.193279
  ----------------------------------------
  Sum of atomic charges =     0.000000

 -----------------------------------------------------------------
                    Cartesian Multipole Moments
 -----------------------------------------------------------------
    Charge (ESU x 10^10)
                 0.0000
    Dipole Moment (Debye)
         X       1.7555      Y       2.3624      Z       0.4599
       Tot       2.9790
    Quadrupole Moments (Debye-Ang)
        XX    -185.6896     XY      -2.4540     YY    -181.2547
        XZ     -13.3910     YZ      -4.8334     ZZ    -164.2159
    Octopole Moments (Debye-Ang^2)
       XXX    -101.1546    XXY     574.1516    XYY      33.7971
       YYY    1700.5882    XXZ     -23.4982    XYZ      64.4711
       YYZ      14.2231    XZZ     -27.8098    YZZ     509.3939
       ZZZ     -77.7469
    Hexadecapole Moments (Debye-Ang^3)
      XXXX   -4852.5663   XXXY    -209.3740   XXYY   -4021.0148
      XYYY   -1073.9072   YYYY  -18078.3432   XXXZ   -1405.9930
      XXYZ      51.2640   XYYZ    -805.6331   YYYZ    -622.8592
      XXZZ   -1164.8599   XYZZ     -54.3946   YYZZ   -3110.8124
      XZZZ   -1306.0041   YZZZ    -188.5753   ZZZZ   -1929.8319
 -----------------------------------------------------------------
 Total job time:  297.10s(wall), 9018.68s(cpu) 
 Tue Sep 26 23:02:05 2023

        *************************************************************
        *                                                           *
        *  Thank you very much for using Q-Chem.  Have a nice day.  *
        *                                                           *
        *************************************************************


0 sent ACK to 0 
now end server 0 ... 
cleanup process ... done
remove work dirs ./qchem1995043.0 -- ./qchem1995043.0
rm -rf ./qchem1995043.0
rm -rf ./qchem1995043
