You are running Q-Chem version: 5.4.0

#
# job setting
#
local host:  exp-2-40
current dir: /expanse/lustre/projects/csd626/rramji/aromodel/PNDIT/Hydrogenated_Rotation_Test
input file:  Dimethyl_Naphthalene_Dicarboximide_Phi_10_Theta_310_Thiophene_Hydrogenated.qcin
output file: 
nprocs     : 1
nthreads   : 64
#
# qchem installation setting
#
QC:          /cm/shared/apps/spack/cpu/opt/spack/linux-centos8-zen2/gcc-10.2.0/qchem-5.4-akfmr7b3t57bfs6qan3padb2wnb2i7cl
QCAUX:       /cm/shared/apps/spack/cpu/opt/spack/linux-centos8-zen2/gcc-10.2.0/qchem-5.4-akfmr7b3t57bfs6qan3padb2wnb2i7cl/qcaux
QCPROG:      /cm/shared/apps/spack/cpu/opt/spack/linux-centos8-zen2/gcc-10.2.0/qchem-5.4-akfmr7b3t57bfs6qan3padb2wnb2i7cl/exe/qcprog.exe
QCPROG_S:    /cm/shared/apps/spack/cpu/opt/spack/linux-centos8-zen2/gcc-10.2.0/qchem-5.4-akfmr7b3t57bfs6qan3padb2wnb2i7cl/exe/qcprog.exe_s
PARALLEL:    -DPARALLEL
QCMPI:       mpich
#
# qchem directory setting
#
qcrun:       qchem3854206
QCSCRATCH:   .
QCLOCALSCR:  
QCTMPDIR:    .
QCFILEPREF:  ./qchem3854206
QCSAVEDIR:   
workdirs:    ./qchem3854206
workdir0:    ./qchem3854206
partmpdirs =  
#
# parallel setting
#
QCRSH:           ssh
QCMPI:           mpich
QCMPIRUN:        /cm/shared/apps/spack/cpu/opt/spack/linux-centos8-zen2/gcc-10.2.0/qchem-5.4-akfmr7b3t57bfs6qan3padb2wnb2i7cl/bin/mpi/mpirun_qchem
QCMACHINEFILE:   ./qchem3854206/hostfile
exp-2-40

#
# env setting
#
exported envs:   QC QCAUX QCSCRATCH QCRUNNAME QCFILEPREF QCPROG QCPROG_S GUIFILE

Running Job 1 of 1 Dimethyl_Naphthalene_Dicarboximide_Phi_10_Theta_310_Thiophene_Hydrogenated.qcin
qchem Dimethyl_Naphthalene_Dicarboximide_Phi_10_Theta_310_Thiophene_Hydrogenated.qcin_3854206.0 ./qchem3854206/ 1
/cm/shared/apps/spack/cpu/opt/spack/linux-centos8-zen2/gcc-10.2.0/qchem-5.4-akfmr7b3t57bfs6qan3padb2wnb2i7cl/bin/mpi/mpirun_qchem -machinefile ./qchem3854206/hostfile -np 1 /cm/shared/apps/spack/cpu/opt/spack/linux-centos8-zen2/gcc-10.2.0/qchem-5.4-akfmr7b3t57bfs6qan3padb2wnb2i7cl/exe/qcprog.exe Dimethyl_Naphthalene_Dicarboximide_Phi_10_Theta_310_Thiophene_Hydrogenated.qcin_3854206.0 ./qchem3854206/

Process 0 of 1 is on exp-2-40 - thread support 0
initial socket setup ...start
initial socket setup ...done 
now start server 0 ... 
                  Welcome to Q-Chem
     A Quantum Leap Into The Future Of Chemistry


 Q-Chem 5.4, Q-Chem, Inc., Pleasanton, CA (2021)

 License issued to: University of California, San Diego (site)

 E. Epifanovsky,  A. T. B. Gilbert,  Xintian Feng,  Joonho Lee,  Yuezhi Mao,  
 N. Mardirossian,  P. Pokhilko,  A. White,  M. Wormit,  M. P. Coons,  
 A. L. Dempwolff,  Zhengting Gan,  D. Hait,  P. R. Horn,  L. D. Jacobson,  
 I. Kaliman,  J. Kussmann,  A. W. Lange,  Ka Un Lao,  D. S. Levine,  Jie Liu,  
 S. C. McKenzie,  A. F. Morrison,  K. Nanda,  F. Plasser,  D. R. Rehn,  
 M. L. Vidal,  Zhi-Qiang You,  Ying Zhu,  B. Alam,  B. Albrecht,  
 A. Aldossary,  E. Alguire,  J. H. Andersen,  D. Barton,  K. Begam,  A. Behn,  
 Y. A. Bernard,  E. J. Berquist,  H. Burton,  A. Carreras,  K. Carter-Fenk,  
 R. Chakraborty,  A. D. Chien,  K. D. Closser,  V. Cofer-Shabica,  
 S. Dasgupta,  Jia Deng,  M. de Wergifosse,  M. Diedenhofen,  Hainam Do,  
 S. Ehlert,  Po-Tung Fang,  S. Fatehi,  Qingguo Feng,  J. Gayvert,  
 Qinghui Ge,  G. Gidofalvi,  M. Goldey,  J. Gomes,  C. Gonzalez-Espinoza,  
 S. Gulania,  A. Gunina,  M. W. D. Hanson-Heine,  P. H. P. Harbach,  
 A. W. Hauser,  M. F. Herbst,  M. Hernandez Vera,  M. Hodecker,  
 Z. C. Holden,  S. Houck,  Xunkun Huang,  Kerwin Hui,  B. C. Huynh,  
 M. Ivanov,  Hyunjun Ji,  Hanjie Jiang,  B. Kaduk,  S. Kaehler,  
 K. Khistyaev,  Jaehoon Kim,  P. Klunzinger,  Z. Koczor-Benda,  
 Joong Hoon Koh,  D. Kosenkov,  L. Koulias,  T. Kowalczyk,  C. M. Krauter,  
 K. Kue,  A. Kunitsa,  T. Kus,  A. Landau,  K. V. Lawler,  D. Lefrancois,  
 S. Lehtola,  Rain Li,  Yi-Pei Li,  Jiashu Liang,  M. Liebenthal,  
 Hung-Hsuan Lin,  You-Sheng Lin,  Fenglai Liu,  Kuan-Yu Liu,  
 M. Loipersberger,  A. Luenser,  A. Manjanath,  P. Manohar,  E. Mansoor,  
 S. F. Manzer,  Shan-Ping Mao,  A. V. Marenich,  T. Markovich,  S. Mason,  
 S. A. Maurer,  P. F. McLaughlin,  M. F. S. J. Menger,  J.-M. Mewes,  
 S. A. Mewes,  P. Morgante,  J. W. Mullinax,  T. S. Nguyen-Beck,  
 K. J. Oosterbaan,  G. Paran,  Alexander C. Paul,  Suranjan K. Paul,  
 F. Pavosevic,  Zheng Pei,  S. Prager,  E. I. Proynov,  E. Ramos,  B. Rana,  
 A. E. Rask,  A. Rettig,  R. M. Richard,  F. Rob,  E. Rossomme,  T. Scheele,  
 M. Scheurer,  M. Schneider,  N. Sergueev,  S. M. Sharada,  W. Skomorowski,  
 D. W. Small,  C. J. Stein,  Yu-Chuan Su,  E. J. Sundstrom,  Zhen Tao,  
 J. Thirman,  T. Tsuchimochi,  N. M. Tubman,  S. P. Veccham,  O. Vydrov,  
 J. Wenzel,  J. Witte,  A. Yamada,  Kun Yao,  S. Yeganeh,  S. R. Yost,  
 A. Zech,  Igor Ying Zhang,  Xing Zhang,  Yu Zhang,  D. Zuev,  
 A. Aspuru-Guzik,  A. T. Bell,  N. A. Besley,  K. B. Bravaya,  B. R. Brooks,  
 D. Casanova,  Jeng-Da Chai,  S. Coriani,  C. J. Cramer,  
 A. E. DePrince, III,  R. A. DiStasio Jr.,  A. Dreuw,  B. D. Dunietz,  
 T. R. Furlani,  W. A. Goddard III,  S. Grimme,  S. Hammes-Schiffer,  
 T. Head-Gordon,  W. J. Hehre,  Chao-Ping Hsu,  T.-C. Jagau,  Yousung Jung,  
 A. Klamt,  Jing Kong,  D. S. Lambrecht,  WanZhen Liang,  N. J. Mayhall,  
 C. W. McCurdy,  J. B. Neaton,  C. Ochsenfeld,  J. A. Parkhill,  R. Peverati,  
 V. A. Rassolov,  Yihan Shao,  L. V. Slipchenko,  T. Stauch,  R. P. Steele,  
 J. E. Subotnik,  A. J. W. Thom,  A. Tkatchenko,  D. G. Truhlar,  
 T. Van Voorhis,  T. A. Wesolowski,  K. B. Whaley,  H. L. Woodcock III,  
 P. M. Zimmerman,  S. Faraji,  P. M. W. Gill,  M. Head-Gordon,  
 J. M. Herbert,  A. I. Krylov

 Contributors to earlier versions of Q-Chem not listed above: 
 R. D. Adamson,  B. Austin,  R. Baer,  J. Baker,  G. J. O. Beran,  
 K. Brandhorst,  S. T. Brown,  E. F. C. Byrd,  A. K. Chakraborty,  
 G. K. L. Chan,  Chun-Min Chang,  Yunqing Chen,  C.-L. Cheng,  
 Siu Hung Chien,  D. M. Chipman,  D. L. Crittenden,  H. Dachsel,  
 R. J. Doerksen,  A. D. Dutoi,  R. G. Edgar,  J. Fosso-Tande,  
 L. Fusti-Molnar,  D. Ghosh,  A. Ghysels,  A. Golubeva-Zadorozhnaya,  
 J. Gonthier,  M. S. Gordon,  S. R. Gwaltney,  G. Hawkins,  J. E. Herr,  
 A. Heyden,  S. Hirata,  E. G. Hohenstein,  G. Kedziora,  F. J. Keil,  
 C. Kelley,  Jihan Kim,  R. A. King,  R. Z. Khaliullin,  P. P. Korambath,  
 W. Kurlancheek,  A. Laurent,  A. M. Lee,  M. S. Lee,  S. V. Levchenko,  
 Ching Yeh Lin,  D. Liotard,  E. Livshits,  R. C. Lochan,  I. Lotan,  
 L. A. Martinez-Martinez,  P. E. Maslen,  N. Nair,  D. P. O'Neill,  
 D. Neuhauser,  E. Neuscamman,  C. M. Oana,  R. Olivares-Amaya,  R. Olson,  
 T. M. Perrine,  B. Peters,  P. A. Pieniazek,  A. Prociuk,  Y. M. Rhee,  
 J. Ritchie,  M. A. Rohrdanz,  E. Rosta,  N. J. Russ,  H. F. Schaefer III,  
 M. W. Schmidt,  N. E. Schultz,  S. Sharma,  N. Shenvi,  C. D. Sherrill,  
 A. C. Simmonett,  A. Sodt,  T. Stein,  D. Stuck,  K. S. Thanthiriwatte,  
 V. Vanovschi,  L. Vogt,  Tao Wang,  A. Warshel,  M. A. Watson,  
 C. F. Williams,  Q. Wu,  X. Xu,  Jun Yang,  W. Zhang,  Yan Zhao

 Please cite Q-Chem as follows:
 Y. Shao et al., Mol. Phys. 113, 184-215 (2015)
 DOI: 10.1080/00268976.2014.952696

 Q-Chem 5.4.0 for Intel X86 EM64T Linux

 Parts of Q-Chem use Armadillo 9.800.1 (Horizon Scraper).
 http://arma.sourceforge.net/

 Q-Chem begins on Sun Sep 24 18:00:24 2023  

 Host: 
0

     Scratch files written to ./qchem3854206//
 May1621 |scratch|qcdevops|jenkins|workspace|build_RNUM    
 Parallel job on  1  processors
 Processing $rem in /cm/shared/apps/spack/cpu/opt/spack/linux-centos8-zen2/gcc-10.2.0/qchem-5.4-akfmr7b3t57bfs6qan3padb2wnb2i7cl/config/preferences:
 Processing $rem in /home/rramji/.qchemrc:
 Symmetry turned off for PCM/SM12/SMD calculation
 Core orbitals will be frozen

 Checking the input file for inconsistencies... 	...done.

 Q-Chem warning in module forms1/BasisType.C, line 2236:

 You are not using the predefined 5D/6D in this basis set.


--------------------------------------------------------------
User input:
--------------------------------------------------------------
$molecule
0 1
C	-0.197767	-6.741404	-0.164018
C	-1.198109	-6.155638	-1.003240
C	0.632428	-5.791452	0.533192
C	-1.411364	-4.803786	-1.182482
H	-1.870845	-6.821518	-1.567483
C	0.409419	-4.378638	0.345145
C	-0.609565	-3.838032	-0.510347
C	1.210332	-3.413062	1.016449
C	-0.830799	-2.426473	-0.696879
C	0.999856	-2.059348	0.839039
C	0.000000	-1.478216	0.000000
H	1.673483	-1.394783	1.403737
C	1.736282	-6.187987	1.461835
C	2.306183	-3.798164	1.936119
N	2.491597	-5.170003	2.093916
C	-2.510310	-4.424987	-2.104529
C	-1.936153	-2.036627	-1.625377
N	-2.691451	-3.049156	-2.257873
O	2.034222	-7.353131	1.715561
O	3.014044	-2.986854	2.528858
O	-3.209622	-5.248946	-2.690385
O	-2.251529	-0.878829	-1.891876
C	3.573032	-5.563799	3.002711
H	3.606932	-6.664085	3.032655
H	3.382888	-5.147101	4.010326
H	4.533125	-5.148785	2.640711
C	-3.756832	-2.587487	-3.152408
H	-4.249778	-3.483329	-3.564653
H	-3.328759	-1.964972	-3.960905
H	-4.477709	-1.962932	-2.591422
C	0.000000	0.000000	0.000000
S	0.137535	0.781156	1.580530
C	0.421895	2.393994	0.904911
C	0.173134	0.982857	-0.985400
C	0.402294	2.283058	-0.493528
H	0.132237	0.750786	-2.059934
H	0.555196	3.150621	-1.152593
H	0.574741	3.261310	1.556025
H	0.461623	-7.361589	-0.783314
H	-0.693983	-7.361192	0.592677
H	0.694617	-1.478831	-0.826987
$end

$rem
JOBTYPE		SP
EXCHANGE	HF
CORRELATION	pRIMP2
BASIS		cc-pvtz
METHOD		rimp2
AUX_BASIS	rimp2-cc-pvtz
SOLVENT_METHOD	PCM
PURECART	11111
SYMMETRY	false
MEM_TOTAL	110000
SCF_CONVERGENCE = 6
THRESH=10
GUI = 2
$end



$solvent
dielectric 4.90
$end
--------------------------------------------------------------
 ----------------------------------------------------------------
             Standard Nuclear Orientation (Angstroms)
    I     Atom           X                Y                Z
 ----------------------------------------------------------------
    1      C      -0.1977670000    -6.7414040000    -0.1640180000
    2      C      -1.1981090000    -6.1556380000    -1.0032400000
    3      C       0.6324280000    -5.7914520000     0.5331920000
    4      C      -1.4113640000    -4.8037860000    -1.1824820000
    5      H      -1.8708450000    -6.8215180000    -1.5674830000
    6      C       0.4094190000    -4.3786380000     0.3451450000
    7      C      -0.6095650000    -3.8380320000    -0.5103470000
    8      C       1.2103320000    -3.4130620000     1.0164490000
    9      C      -0.8307990000    -2.4264730000    -0.6968790000
   10      C       0.9998560000    -2.0593480000     0.8390390000
   11      C       0.0000000000    -1.4782160000     0.0000000000
   12      H       1.6734830000    -1.3947830000     1.4037370000
   13      C       1.7362820000    -6.1879870000     1.4618350000
   14      C       2.3061830000    -3.7981640000     1.9361190000
   15      N       2.4915970000    -5.1700030000     2.0939160000
   16      C      -2.5103100000    -4.4249870000    -2.1045290000
   17      C      -1.9361530000    -2.0366270000    -1.6253770000
   18      N      -2.6914510000    -3.0491560000    -2.2578730000
   19      O       2.0342220000    -7.3531310000     1.7155610000
   20      O       3.0140440000    -2.9868540000     2.5288580000
   21      O      -3.2096220000    -5.2489460000    -2.6903850000
   22      O      -2.2515290000    -0.8788290000    -1.8918760000
   23      C       3.5730320000    -5.5637990000     3.0027110000
   24      H       3.6069320000    -6.6640850000     3.0326550000
   25      H       3.3828880000    -5.1471010000     4.0103260000
   26      H       4.5331250000    -5.1487850000     2.6407110000
   27      C      -3.7568320000    -2.5874870000    -3.1524080000
   28      H      -4.2497780000    -3.4833290000    -3.5646530000
   29      H      -3.3287590000    -1.9649720000    -3.9609050000
   30      H      -4.4777090000    -1.9629320000    -2.5914220000
   31      C       0.0000000000     0.0000000000     0.0000000000
   32      S       0.1375350000     0.7811560000     1.5805300000
   33      C       0.4218950000     2.3939940000     0.9049110000
   34      C       0.1731340000     0.9828570000    -0.9854000000
   35      C       0.4022940000     2.2830580000    -0.4935280000
   36      H       0.1322370000     0.7507860000    -2.0599340000
   37      H       0.5551960000     3.1506210000    -1.1525930000
   38      H       0.5747410000     3.2613100000     1.5560250000
   39      H       0.4616230000    -7.3615890000    -0.7833140000
   40      H      -0.6939830000    -7.3611920000     0.5926770000
   41      H       0.6946170000    -1.4788310000    -0.8269870000
 ----------------------------------------------------------------
 Nuclear Repulsion Energy =        2547.76261424 hartrees
 There are       98 alpha and       98 beta electrons
 Requested basis set is cc-pVTZ
 There are 356 shells and 1010 basis functions

 Total QAlloc Memory Limit 110000 MB
 Mega-Array Size       188 MB
 MEM_STATIC part       192 MB
 Discretize the solute cavity surface with Lebedev spheres
	Using 110 Lebedev grid points for each H atom
	Using 194 Lebedev grid points for other atoms
	Atomic van der Waals radii will be scaled by 1.20
 Remove points where switching function is < 1.0e-08
 Keep 2597 surface tesserae and discard 4181 interior tesserae
 Molecular Surface Area = 369.129 Angst**2
 Requested basis set is rimp2-cc-pVTZ
 There are 770 shells and 2648 basis functions
 A cutoff of  1.0D-10 yielded  34024 shell pairs
 There are    257374 function pairs (    333175 Cartesian)
 Smallest overlap matrix eigenvalue = 9.08E-06

 Q-Chem warning in module stvman/mkSTV.C, line 323:

 Overlap eigenvalue is smaller than square root of threshold
 Use THRESH >= 12 to get rid of this warning


 Scale SEOQF with 1.000000e-01/1.000000e-02/1.000000e-01

 Standard Electronic Orientation quadrupole field applied
 Nucleus-field energy     =    -0.0000000129 hartrees
 Guess from superposition of atomic densities
 Warning:  Energy on first SCF cycle will be non-variational
 SAD guess density has 196.000000 electrons

 -----------------------------------------------------------------------
  General SCF calculation program by
  Eric Jon Sundstrom, Paul Horn, Yuezhi Mao, Dmitri Zuev, Alec White,
  David Stuck, Shaama M.S., Shane Yost, Joonho Lee, David Small,
  Daniel Levine, Susi Lehtola, Hugh Burton, Evgeny Epifanovsky,
  Bang C. Huynh
 -----------------------------------------------------------------------
 Hartree-Fock
 using 64 threads for integral computing
 -------------------------------------------------------
 OpenMP Integral computing Module                
 Release: version 1.0, May 2013, Q-Chem Inc. Pittsburgh 
 -------------------------------------------------------
 A restricted SCF calculation will be
 performed using DIIS
 SCF converges when DIIS error is below 1.0e-06
 ---------------------------------------
  Cycle       Energy         DIIS error
 ---------------------------------------
    1   -1583.1068082083      1.86e-02  
    2   -1571.1672722318      2.03e-03  
    3   -1571.5070218530      1.55e-03  
    4   -1571.7295933507      2.52e-04  
    5   -1571.7433030765      7.76e-05  
    6   -1571.7446999165      2.99e-05  
    7   -1571.7451101662      1.54e-05  
    8   -1571.7452219078      6.16e-06  
    9   -1571.7452409677      2.85e-06  
   10   -1571.7452447146      1.20e-06  
   11   -1571.7452458681      5.67e-07  Convergence criterion met
 ---------------------------------------
 SCF time:   CPU 7097.77s  wall 275.00s 

************** Final PCM Free Energy Summary **************
 G_electrostatic  =      -0.03024314 hartree =     -18.97785709 kcal/mol
 G_cavitation     =       0.00000000 hartree =       0.00000000 kcal/mol
 G_dispersion     =       0.00000000 hartree =       0.00000000 kcal/mol
 G_repulsion      =       0.00000000 hartree =       0.00000000 kcal/mol
 --------------------------------------------------
 Non-electrostatic Free Energy =       0.00000000 hartree =       0.00000000 kcal/mol
 Total                         =      -0.03024314 hartree =     -18.97785709 kcal/mol
 --------------------------------------------------
 SCF Energy (H0 + V/2)                       =   -1571.74524587 
 Solute Internal Energy (H0)                 =   -1571.71500273 
 Total Free Energy (H0 + V/2 + non-elec)     =   -1571.74524587 hartree
                                             = -986285.02778145 kcal/mol
***********************************************************

 SCF   energy in the final basis set =    -1571.7452458681
 Total energy in the final basis set =    -1571.7452458681


 --------------------------------------------------------------
  Generalized many-body perturbation theory program
  by Joonho Lee, Fazle Rob, Xintian Feng, Evgeny Epifanovsky

 No regularization used 
 (reg. param. = 0.0000e+00)
  (P|Q)^-1/2 Time:  CPU 154.76 s  wall 2.62 s

 In RI-MP2 calculation: 
 # of frozen core orbitals: 31

 Components of the RIMP2 correlation energy:
        aaaa    correlation energy =        -0.6151831110 a.u.
        abab    correlation energy =        -3.4255400042 a.u.
        bbbb    correlation energy =        -0.6151831110 a.u.
        non-Brillouin singles      =        -0.0000000000 a.u.
        total same-spin energy     =        -1.2303662219 a.u.
        total opposite-spin energy =        -3.4255400042 a.u.

 Total  RIMP2   correlation energy =        -4.6559062261 a.u.
        RIMP2         total energy =     -1576.4011520942 a.u.

 RI-MP2 Energy Time:  CPU 2111.42 s  wall 34.78 s
 
 --------------------------------------------------------------
 
                    Orbital Energies (a.u.)
 --------------------------------------------------------------
 
 Alpha MOs
 -- Occupied --
-91.9903 -20.5525 -20.5447 -20.5419 -20.5409 -15.6272 -15.6215 -11.3939
-11.3853 -11.3837 -11.3796 -11.3090 -11.3085 -11.3054 -11.3048 -11.2984
-11.2966 -11.2908 -11.2793 -11.2693 -11.2682 -11.2659 -11.2631 -11.2595
-11.2528 -11.2522 -11.2503  -8.9900  -6.6708  -6.6703  -6.6697  -1.4198
 -1.4124  -1.3975  -1.3916  -1.2624  -1.2557  -1.2306  -1.1871  -1.1521
 -1.1145  -1.0868  -1.0472  -0.9955  -0.9880  -0.9845  -0.9553  -0.9506
 -0.8969  -0.8884  -0.8770  -0.8601  -0.7957  -0.7782  -0.7711  -0.7603
 -0.7413  -0.7166  -0.7033  -0.6917  -0.6815  -0.6719  -0.6669  -0.6574
 -0.6472  -0.6446  -0.6371  -0.6325  -0.6310  -0.6279  -0.6225  -0.6046
 -0.5868  -0.5746  -0.5653  -0.5611  -0.5569  -0.5515  -0.5507  -0.5492
 -0.5478  -0.5437  -0.5176  -0.5167  -0.5106  -0.4844  -0.4758  -0.4649
 -0.4580  -0.4515  -0.4431  -0.4349  -0.4136  -0.4077  -0.3548  -0.3518
 -0.3298  -0.2844
 -- Virtual --
  0.0140   0.0416   0.0903   0.0930   0.1371   0.1499   0.1544   0.1600
  0.1637   0.1717   0.1783   0.1840   0.1882   0.1960   0.1981   0.2045
  0.2092   0.2218   0.2247   0.2283   0.2300   0.2321   0.2355   0.2384
  0.2649   0.2691   0.3009   0.3037   0.3132   0.3209   0.3260   0.3275
  0.3302   0.3402   0.3466   0.3479   0.3535   0.3572   0.3639   0.3664
  0.3715   0.3784   0.3815   0.3879   0.3888   0.3948   0.4018   0.4054
  0.4168   0.4220   0.4280   0.4348   0.4403   0.4434   0.4468   0.4508
  0.4561   0.4591   0.4645   0.4677   0.4743   0.4812   0.4859   0.4903
  0.4925   0.5012   0.5030   0.5100   0.5160   0.5189   0.5247   0.5281
  0.5308   0.5341   0.5434   0.5452   0.5498   0.5578   0.5593   0.5657
  0.5729   0.5763   0.5794   0.5845   0.5869   0.5874   0.5956   0.5983
  0.6030   0.6039   0.6068   0.6083   0.6118   0.6167   0.6213   0.6243
  0.6290   0.6333   0.6348   0.6376   0.6404   0.6429   0.6469   0.6519
  0.6599   0.6600   0.6688   0.6760   0.6825   0.6922   0.6946   0.7031
  0.7062   0.7073   0.7184   0.7282   0.7357   0.7424   0.7477   0.7617
  0.7646   0.7656   0.7738   0.7771   0.7823   0.7872   0.7917   0.7975
  0.8040   0.8145   0.8192   0.8265   0.8300   0.8390   0.8431   0.8445
  0.8505   0.8545   0.8618   0.8637   0.8705   0.8716   0.8747   0.8840
  0.8907   0.8992   0.9031   0.9103   0.9167   0.9215   0.9264   0.9293
  0.9342   0.9408   0.9443   0.9475   0.9628   0.9702   0.9739   0.9760
  0.9790   0.9810   0.9914   0.9990   1.0008   1.0079   1.0120   1.0159
  1.0234   1.0271   1.0377   1.0420   1.0448   1.0565   1.0578   1.0613
  1.0654   1.0697   1.0725   1.0755   1.0888   1.0918   1.0978   1.1011
  1.1042   1.1106   1.1229   1.1264   1.1296   1.1319   1.1373   1.1404
  1.1534   1.1545   1.1578   1.1632   1.1696   1.1757   1.1785   1.1819
  1.1896   1.1944   1.2018   1.2060   1.2102   1.2151   1.2212   1.2284
  1.2290   1.2349   1.2357   1.2422   1.2509   1.2613   1.2653   1.2744
  1.2816   1.2875   1.2897   1.2959   1.3083   1.3199   1.3318   1.3406
  1.3483   1.3511   1.3574   1.3618   1.3683   1.3697   1.3829   1.3869
  1.3890   1.3952   1.4013   1.4017   1.4181   1.4191   1.4241   1.4407
  1.4511   1.4531   1.4654   1.4709   1.4773   1.4842   1.4878   1.4965
  1.5004   1.5080   1.5138   1.5194   1.5214   1.5254   1.5346   1.5365
  1.5442   1.5501   1.5532   1.5579   1.5617   1.5696   1.5701   1.5736
  1.5835   1.5875   1.5950   1.6024   1.6134   1.6275   1.6411   1.6421
  1.6517   1.6539   1.6573   1.6775   1.6847   1.6908   1.6922   1.6952
  1.7042   1.7153   1.7202   1.7269   1.7304   1.7457   1.7492   1.7597
  1.7665   1.7671   1.7792   1.7816   1.7885   1.7993   1.8022   1.8154
  1.8193   1.8232   1.8415   1.8463   1.8473   1.8557   1.8662   1.8687
  1.8750   1.8825   1.8870   1.9001   1.9034   1.9141   1.9268   1.9366
  1.9527   1.9643   1.9646   1.9756   1.9874   1.9904   2.0063   2.0272
  2.0303   2.0336   2.0422   2.0578   2.0890   2.0922   2.1030   2.1189
  2.1309   2.1357   2.1563   2.1611   2.1872   2.2048   2.2088   2.2220
  2.2277   2.2358   2.2633   2.2725   2.2830   2.2927   2.3035   2.3087
  2.3141   2.3291   2.3317   2.3422   2.3579   2.3645   2.3666   2.3862
  2.3878   2.4166   2.4323   2.4365   2.4411   2.4546   2.4592   2.4661
  2.4730   2.4811   2.4821   2.5064   2.5129   2.5248   2.5324   2.5520
  2.5608   2.5659   2.5813   2.5856   2.5958   2.6049   2.6096   2.6159
  2.6253   2.6298   2.6395   2.6428   2.6506   2.6641   2.6730   2.6788
  2.6851   2.6923   2.6949   2.7026   2.7173   2.7195   2.7306   2.7371
  2.7392   2.7461   2.7503   2.7629   2.7657   2.7738   2.7838   2.8015
  2.8151   2.8247   2.8373   2.8388   2.8516   2.8569   2.8594   2.8648
  2.8693   2.8793   2.8857   2.8925   2.8940   2.9003   2.9053   2.9162
  2.9196   2.9229   2.9283   2.9367   2.9407   2.9486   2.9601   2.9734
  2.9804   2.9812   2.9894   3.0011   3.0040   3.0133   3.0248   3.0258
  3.0299   3.0376   3.0422   3.0519   3.0598   3.0747   3.0769   3.0805
  3.0943   3.0951   3.1027   3.1065   3.1081   3.1103   3.1134   3.1241
  3.1359   3.1408   3.1477   3.1551   3.1574   3.1643   3.1657   3.1760
  3.1777   3.1886   3.1973   3.2041   3.2100   3.2138   3.2161   3.2200
  3.2258   3.2370   3.2415   3.2437   3.2462   3.2588   3.2596   3.2641
  3.2703   3.2740   3.2799   3.2879   3.2923   3.2964   3.3040   3.3066
  3.3107   3.3113   3.3199   3.3241   3.3300   3.3327   3.3351   3.3395
  3.3455   3.3474   3.3524   3.3572   3.3631   3.3651   3.3716   3.3738
  3.3791   3.3799   3.3879   3.3900   3.3952   3.3991   3.3999   3.4112
  3.4141   3.4205   3.4235   3.4283   3.4317   3.4373   3.4426   3.4448
  3.4564   3.4610   3.4630   3.4720   3.4777   3.4808   3.4828   3.4861
  3.4899   3.4966   3.5019   3.5115   3.5145   3.5190   3.5215   3.5266
  3.5310   3.5363   3.5421   3.5473   3.5535   3.5590   3.5608   3.5807
  3.5855   3.5917   3.5934   3.5947   3.6100   3.6147   3.6198   3.6249
  3.6263   3.6293   3.6361   3.6407   3.6449   3.6465   3.6518   3.6559
  3.6611   3.6717   3.6755   3.6917   3.6939   3.6974   3.7065   3.7177
  3.7260   3.7285   3.7315   3.7350   3.7441   3.7452   3.7496   3.7527
  3.7584   3.7613   3.7686   3.7756   3.7810   3.7887   3.7969   3.8041
  3.8086   3.8122   3.8144   3.8217   3.8258   3.8363   3.8402   3.8477
  3.8499   3.8556   3.8626   3.8706   3.8745   3.8849   3.8910   3.8985
  3.9112   3.9132   3.9267   3.9325   3.9356   3.9483   3.9526   3.9561
  3.9571   3.9641   3.9670   3.9801   3.9830   3.9860   4.0054   4.0087
  4.0148   4.0235   4.0319   4.0367   4.0464   4.0512   4.0617   4.0793
  4.0858   4.0883   4.1124   4.1191   4.1216   4.1316   4.1374   4.1401
  4.1445   4.1527   4.1617   4.1682   4.1726   4.1766   4.1957   4.1993
  4.2049   4.2120   4.2326   4.2399   4.2421   4.2507   4.2549   4.2682
  4.2751   4.2775   4.2803   4.2834   4.2919   4.2959   4.3030   4.3073
  4.3117   4.3179   4.3253   4.3285   4.3395   4.3448   4.3487   4.3513
  4.3558   4.3622   4.3680   4.3716   4.3749   4.3823   4.3936   4.3953
  4.4041   4.4056   4.4112   4.4207   4.4283   4.4360   4.4480   4.4589
  4.4678   4.4719   4.4856   4.4902   4.5005   4.5116   4.5181   4.5278
  4.5337   4.5425   4.5492   4.5565   4.5681   4.5764   4.5801   4.5905
  4.5932   4.5956   4.6064   4.6090   4.6166   4.6207   4.6256   4.6388
  4.6510   4.6580   4.6655   4.6730   4.6952   4.6958   4.7031   4.7106
  4.7229   4.7274   4.7402   4.7432   4.7679   4.7904   4.7938   4.7976
  4.8115   4.8217   4.8382   4.8432   4.8505   4.8603   4.8771   4.8843
  4.8859   4.8898   4.9008   4.9243   4.9352   4.9497   4.9599   4.9768
  4.9872   4.9985   5.0158   5.0182   5.0295   5.0408   5.0491   5.0538
  5.0682   5.0940   5.1127   5.1164   5.1223   5.1282   5.1318   5.1375
  5.1451   5.1581   5.1725   5.1779   5.1952   5.2032   5.2114   5.2234
  5.2615   5.2675   5.2719   5.2828   5.2978   5.3044   5.3234   5.3297
  5.3321   5.3405   5.3478   5.3644   5.3782   5.3834   5.4027   5.4146
  5.4317   5.4434   5.4801   5.4852   5.4955   5.5048   5.5115   5.5145
  5.5174   5.5282   5.5372   5.5530   5.5542   5.5596   5.5642   5.5672
  5.5789   5.5860   5.5886   5.6064   5.6119   5.6195   5.6237   5.6260
  5.6405   5.6497   5.6593   5.6613   5.6663   5.6718   5.6818   5.6937
  5.6962   5.7049   5.7200   5.7386   5.7444   5.7581   5.7692   5.7797
  5.7853   5.7869   5.8072   5.8319   5.8442   5.8615   5.8834   5.9104
  5.9400   5.9603   5.9772   5.9902   6.0151   6.0299   6.0365   6.0414
  6.0500   6.0729   6.0944   6.1114   6.1229   6.1433   6.1511   6.1851
  6.2023   6.2192   6.2255   6.2268   6.2415   6.2594   6.2646   6.2832
  6.3088   6.3129   6.3236   6.3504   6.3656   6.3867   6.4283   6.4852
  6.5189   6.5300   6.5741   6.5826   6.6035   6.6150   6.6587   6.6660
  6.6731   6.6852   6.8449   6.8501   6.8884   6.9016   6.9048   6.9220
  6.9267   6.9359   7.1025   7.1075   7.1474   7.1918   7.1994   7.2346
  7.3471   7.3517   7.3566   7.3605   7.4750   7.5416   7.5699   7.5827
  7.5890   7.5976   7.6535   7.6758   7.6906   7.7128   8.8372  10.0155
 10.3242  11.3040  11.5243  11.7510  12.0307  12.0490  12.4161  12.4668
 12.9809  13.2253  13.3549  13.5657  13.7860  13.9264  14.1012  14.2748
 14.3136  14.3585  14.5273  14.6114  15.0028  15.6128  15.8110  16.3388
 --------------------------------------------------------------
 
          Ground-State Mulliken Net Atomic Charges

     Atom                 Charge (a.u.)
  ----------------------------------------
      1 C                    -0.084991
      2 C                    -0.030451
      3 C                    -0.111348
      4 C                    -0.125390
      5 H                     0.198886
      6 C                     0.020716
      7 C                     0.114601
      8 C                    -0.086804
      9 C                    -0.173712
     10 C                    -0.138373
     11 C                     0.196823
     12 H                     0.198086
     13 C                     0.343200
     14 C                     0.347914
     15 N                    -0.090043
     16 C                     0.357494
     17 C                     0.344814
     18 N                    -0.090568
     19 O                    -0.494193
     20 O                    -0.506358
     21 O                    -0.501515
     22 O                    -0.470495
     23 C                    -0.204668
     24 H                     0.139476
     25 H                     0.109427
     26 H                     0.109030
     27 C                    -0.197304
     28 H                     0.133399
     29 H                     0.110730
     30 H                     0.112307
     31 C                    -0.011411
     32 S                     0.011790
     33 C                    -0.215840
     34 C                    -0.176858
     35 C                    -0.208257
     36 H                     0.183838
     37 H                     0.190895
     38 H                     0.210875
     39 H                     0.137556
     40 H                     0.137783
     41 H                     0.208939
  ----------------------------------------
  Sum of atomic charges =     0.000000

 -----------------------------------------------------------------
                    Cartesian Multipole Moments
 -----------------------------------------------------------------
    Charge (ESU x 10^10)
                 0.0000
    Dipole Moment (Debye)
         X       0.1979      Y       2.0293      Z      -2.2599
       Tot       3.0437
    Quadrupole Moments (Debye-Ang)
        XX    -181.8052     XY       7.5389     YY    -177.9706
        XZ     -16.2980     YZ       7.1419     ZZ    -169.9725
    Octopole Moments (Debye-Ang^2)
       XXX       9.4869    XXY     538.1914    XYY     -34.5897
       YYY    1686.9190    XXZ      -6.3149    XYZ      69.1521
       YYZ     -40.4610    XZZ       6.8394    YZZ     528.0998
       ZZZ     -23.2172
    Hexadecapole Moments (Debye-Ang^3)
      XXXX   -3729.1063   XXXY      87.8717   XXYY   -3729.0096
      XYYY     872.2369   YYYY  -18049.0248   XXXZ   -1546.8919
      XXYZ     -62.4699   XYYZ    -911.0053   YYYZ     727.4208
      XXZZ   -1180.4739   XYZZ     -20.1039   YYZZ   -3414.8872
      XZZZ   -1508.6642   YZZZ     111.2235   ZZZZ   -2914.0983
 -----------------------------------------------------------------
 Total job time:  314.24s(wall), 9321.34s(cpu) 
 Sun Sep 24 18:05:38 2023

        *************************************************************
        *                                                           *
        *  Thank you very much for using Q-Chem.  Have a nice day.  *
        *                                                           *
        *************************************************************


0 sent ACK to 0 
now end server 0 ... 
cleanup process ... done
remove work dirs ./qchem3854206.0 -- ./qchem3854206.0
rm -rf ./qchem3854206.0
rm -rf ./qchem3854206
