You are running Q-Chem version: 5.4.0

#
# job setting
#
local host:  exp-8-21
current dir: /expanse/lustre/projects/csd626/rramji/aromodel/PNDIT/Hydrogenated_Rotation_Test
input file:  Dimethyl_Naphthalene_Dicarboximide_Phi_25_Theta_90_Thiophene_Hydrogenated.qcin
output file: 
nprocs     : 1
nthreads   : 64
#
# qchem installation setting
#
QC:          /cm/shared/apps/spack/cpu/opt/spack/linux-centos8-zen2/gcc-10.2.0/qchem-5.4-akfmr7b3t57bfs6qan3padb2wnb2i7cl
QCAUX:       /cm/shared/apps/spack/cpu/opt/spack/linux-centos8-zen2/gcc-10.2.0/qchem-5.4-akfmr7b3t57bfs6qan3padb2wnb2i7cl/qcaux
QCPROG:      /cm/shared/apps/spack/cpu/opt/spack/linux-centos8-zen2/gcc-10.2.0/qchem-5.4-akfmr7b3t57bfs6qan3padb2wnb2i7cl/exe/qcprog.exe
QCPROG_S:    /cm/shared/apps/spack/cpu/opt/spack/linux-centos8-zen2/gcc-10.2.0/qchem-5.4-akfmr7b3t57bfs6qan3padb2wnb2i7cl/exe/qcprog.exe_s
PARALLEL:    -DPARALLEL
QCMPI:       mpich
#
# qchem directory setting
#
qcrun:       qchem1992565
QCSCRATCH:   .
QCLOCALSCR:  
QCTMPDIR:    .
QCFILEPREF:  ./qchem1992565
QCSAVEDIR:   
workdirs:    ./qchem1992565
workdir0:    ./qchem1992565
partmpdirs =  
#
# parallel setting
#
QCRSH:           ssh
QCMPI:           mpich
QCMPIRUN:        /cm/shared/apps/spack/cpu/opt/spack/linux-centos8-zen2/gcc-10.2.0/qchem-5.4-akfmr7b3t57bfs6qan3padb2wnb2i7cl/bin/mpi/mpirun_qchem
QCMACHINEFILE:   ./qchem1992565/hostfile
exp-8-21

#
# env setting
#
exported envs:   QC QCAUX QCSCRATCH QCRUNNAME QCFILEPREF QCPROG QCPROG_S GUIFILE

Running Job 1 of 1 Dimethyl_Naphthalene_Dicarboximide_Phi_25_Theta_90_Thiophene_Hydrogenated.qcin
qchem Dimethyl_Naphthalene_Dicarboximide_Phi_25_Theta_90_Thiophene_Hydrogenated.qcin_1992565.0 ./qchem1992565/ 1
/cm/shared/apps/spack/cpu/opt/spack/linux-centos8-zen2/gcc-10.2.0/qchem-5.4-akfmr7b3t57bfs6qan3padb2wnb2i7cl/bin/mpi/mpirun_qchem -machinefile ./qchem1992565/hostfile -np 1 /cm/shared/apps/spack/cpu/opt/spack/linux-centos8-zen2/gcc-10.2.0/qchem-5.4-akfmr7b3t57bfs6qan3padb2wnb2i7cl/exe/qcprog.exe Dimethyl_Naphthalene_Dicarboximide_Phi_25_Theta_90_Thiophene_Hydrogenated.qcin_1992565.0 ./qchem1992565/

Process 0 of 1 is on exp-8-21 - thread support 0
initial socket setup ...start
initial socket setup ...done 
now start server 0 ... 
                  Welcome to Q-Chem
     A Quantum Leap Into The Future Of Chemistry


 Q-Chem 5.4, Q-Chem, Inc., Pleasanton, CA (2021)

 License issued to: University of California, San Diego (site)

 E. Epifanovsky,  A. T. B. Gilbert,  Xintian Feng,  Joonho Lee,  Yuezhi Mao,  
 N. Mardirossian,  P. Pokhilko,  A. White,  M. Wormit,  M. P. Coons,  
 A. L. Dempwolff,  Zhengting Gan,  D. Hait,  P. R. Horn,  L. D. Jacobson,  
 I. Kaliman,  J. Kussmann,  A. W. Lange,  Ka Un Lao,  D. S. Levine,  Jie Liu,  
 S. C. McKenzie,  A. F. Morrison,  K. Nanda,  F. Plasser,  D. R. Rehn,  
 M. L. Vidal,  Zhi-Qiang You,  Ying Zhu,  B. Alam,  B. Albrecht,  
 A. Aldossary,  E. Alguire,  J. H. Andersen,  D. Barton,  K. Begam,  A. Behn,  
 Y. A. Bernard,  E. J. Berquist,  H. Burton,  A. Carreras,  K. Carter-Fenk,  
 R. Chakraborty,  A. D. Chien,  K. D. Closser,  V. Cofer-Shabica,  
 S. Dasgupta,  Jia Deng,  M. de Wergifosse,  M. Diedenhofen,  Hainam Do,  
 S. Ehlert,  Po-Tung Fang,  S. Fatehi,  Qingguo Feng,  J. Gayvert,  
 Qinghui Ge,  G. Gidofalvi,  M. Goldey,  J. Gomes,  C. Gonzalez-Espinoza,  
 S. Gulania,  A. Gunina,  M. W. D. Hanson-Heine,  P. H. P. Harbach,  
 A. W. Hauser,  M. F. Herbst,  M. Hernandez Vera,  M. Hodecker,  
 Z. C. Holden,  S. Houck,  Xunkun Huang,  Kerwin Hui,  B. C. Huynh,  
 M. Ivanov,  Hyunjun Ji,  Hanjie Jiang,  B. Kaduk,  S. Kaehler,  
 K. Khistyaev,  Jaehoon Kim,  P. Klunzinger,  Z. Koczor-Benda,  
 Joong Hoon Koh,  D. Kosenkov,  L. Koulias,  T. Kowalczyk,  C. M. Krauter,  
 K. Kue,  A. Kunitsa,  T. Kus,  A. Landau,  K. V. Lawler,  D. Lefrancois,  
 S. Lehtola,  Rain Li,  Yi-Pei Li,  Jiashu Liang,  M. Liebenthal,  
 Hung-Hsuan Lin,  You-Sheng Lin,  Fenglai Liu,  Kuan-Yu Liu,  
 M. Loipersberger,  A. Luenser,  A. Manjanath,  P. Manohar,  E. Mansoor,  
 S. F. Manzer,  Shan-Ping Mao,  A. V. Marenich,  T. Markovich,  S. Mason,  
 S. A. Maurer,  P. F. McLaughlin,  M. F. S. J. Menger,  J.-M. Mewes,  
 S. A. Mewes,  P. Morgante,  J. W. Mullinax,  T. S. Nguyen-Beck,  
 K. J. Oosterbaan,  G. Paran,  Alexander C. Paul,  Suranjan K. Paul,  
 F. Pavosevic,  Zheng Pei,  S. Prager,  E. I. Proynov,  E. Ramos,  B. Rana,  
 A. E. Rask,  A. Rettig,  R. M. Richard,  F. Rob,  E. Rossomme,  T. Scheele,  
 M. Scheurer,  M. Schneider,  N. Sergueev,  S. M. Sharada,  W. Skomorowski,  
 D. W. Small,  C. J. Stein,  Yu-Chuan Su,  E. J. Sundstrom,  Zhen Tao,  
 J. Thirman,  T. Tsuchimochi,  N. M. Tubman,  S. P. Veccham,  O. Vydrov,  
 J. Wenzel,  J. Witte,  A. Yamada,  Kun Yao,  S. Yeganeh,  S. R. Yost,  
 A. Zech,  Igor Ying Zhang,  Xing Zhang,  Yu Zhang,  D. Zuev,  
 A. Aspuru-Guzik,  A. T. Bell,  N. A. Besley,  K. B. Bravaya,  B. R. Brooks,  
 D. Casanova,  Jeng-Da Chai,  S. Coriani,  C. J. Cramer,  
 A. E. DePrince, III,  R. A. DiStasio Jr.,  A. Dreuw,  B. D. Dunietz,  
 T. R. Furlani,  W. A. Goddard III,  S. Grimme,  S. Hammes-Schiffer,  
 T. Head-Gordon,  W. J. Hehre,  Chao-Ping Hsu,  T.-C. Jagau,  Yousung Jung,  
 A. Klamt,  Jing Kong,  D. S. Lambrecht,  WanZhen Liang,  N. J. Mayhall,  
 C. W. McCurdy,  J. B. Neaton,  C. Ochsenfeld,  J. A. Parkhill,  R. Peverati,  
 V. A. Rassolov,  Yihan Shao,  L. V. Slipchenko,  T. Stauch,  R. P. Steele,  
 J. E. Subotnik,  A. J. W. Thom,  A. Tkatchenko,  D. G. Truhlar,  
 T. Van Voorhis,  T. A. Wesolowski,  K. B. Whaley,  H. L. Woodcock III,  
 P. M. Zimmerman,  S. Faraji,  P. M. W. Gill,  M. Head-Gordon,  
 J. M. Herbert,  A. I. Krylov

 Contributors to earlier versions of Q-Chem not listed above: 
 R. D. Adamson,  B. Austin,  R. Baer,  J. Baker,  G. J. O. Beran,  
 K. Brandhorst,  S. T. Brown,  E. F. C. Byrd,  A. K. Chakraborty,  
 G. K. L. Chan,  Chun-Min Chang,  Yunqing Chen,  C.-L. Cheng,  
 Siu Hung Chien,  D. M. Chipman,  D. L. Crittenden,  H. Dachsel,  
 R. J. Doerksen,  A. D. Dutoi,  R. G. Edgar,  J. Fosso-Tande,  
 L. Fusti-Molnar,  D. Ghosh,  A. Ghysels,  A. Golubeva-Zadorozhnaya,  
 J. Gonthier,  M. S. Gordon,  S. R. Gwaltney,  G. Hawkins,  J. E. Herr,  
 A. Heyden,  S. Hirata,  E. G. Hohenstein,  G. Kedziora,  F. J. Keil,  
 C. Kelley,  Jihan Kim,  R. A. King,  R. Z. Khaliullin,  P. P. Korambath,  
 W. Kurlancheek,  A. Laurent,  A. M. Lee,  M. S. Lee,  S. V. Levchenko,  
 Ching Yeh Lin,  D. Liotard,  E. Livshits,  R. C. Lochan,  I. Lotan,  
 L. A. Martinez-Martinez,  P. E. Maslen,  N. Nair,  D. P. O'Neill,  
 D. Neuhauser,  E. Neuscamman,  C. M. Oana,  R. Olivares-Amaya,  R. Olson,  
 T. M. Perrine,  B. Peters,  P. A. Pieniazek,  A. Prociuk,  Y. M. Rhee,  
 J. Ritchie,  M. A. Rohrdanz,  E. Rosta,  N. J. Russ,  H. F. Schaefer III,  
 M. W. Schmidt,  N. E. Schultz,  S. Sharma,  N. Shenvi,  C. D. Sherrill,  
 A. C. Simmonett,  A. Sodt,  T. Stein,  D. Stuck,  K. S. Thanthiriwatte,  
 V. Vanovschi,  L. Vogt,  Tao Wang,  A. Warshel,  M. A. Watson,  
 C. F. Williams,  Q. Wu,  X. Xu,  Jun Yang,  W. Zhang,  Yan Zhao

 Please cite Q-Chem as follows:
 Y. Shao et al., Mol. Phys. 113, 184-215 (2015)
 DOI: 10.1080/00268976.2014.952696

 Q-Chem 5.4.0 for Intel X86 EM64T Linux

 Parts of Q-Chem use Armadillo 9.800.1 (Horizon Scraper).
 http://arma.sourceforge.net/

 Q-Chem begins on Tue Sep 26 22:41:46 2023  

 Host: 
0

     Scratch files written to ./qchem1992565//
 May1621 |scratch|qcdevops|jenkins|workspace|build_RNUM    
 Parallel job on  1  processors
 Processing $rem in /cm/shared/apps/spack/cpu/opt/spack/linux-centos8-zen2/gcc-10.2.0/qchem-5.4-akfmr7b3t57bfs6qan3padb2wnb2i7cl/config/preferences:
 Processing $rem in /home/rramji/.qchemrc:
 Symmetry turned off for PCM/SM12/SMD calculation
 Core orbitals will be frozen

 Checking the input file for inconsistencies... 	...done.

 Q-Chem warning in module forms1/BasisType.C, line 2236:

 You are not using the predefined 5D/6D in this basis set.


--------------------------------------------------------------
User input:
--------------------------------------------------------------
$molecule
0 1
C	0.256927	-6.741404	-0.001478
C	1.562675	-6.155638	-0.001603
C	-0.827197	-5.791452	-0.001931
C	1.841253	-4.803786	-0.001374
H	2.440709	-6.821518	-0.001794
C	-0.535488	-4.378638	-0.001227
C	0.794999	-3.838032	-0.000872
C	-1.580529	-3.413062	-0.000658
C	1.084374	-2.426473	-0.000186
C	-1.305258	-2.059348	-0.000046
C	-0.000000	-1.478216	-0.000000
H	-2.184267	-1.394783	0.000369
C	-2.269719	-6.187987	-0.003770
C	-3.011152	-3.798164	-0.000767
N	-3.254617	-5.170003	-0.002465
C	3.275775	-4.424987	-0.001433
C	2.527951	-2.036627	0.000576
N	3.513104	-3.049156	-0.000400
O	-2.661046	-7.353131	-0.006623
O	-3.934410	-2.986854	0.000172
O	4.188059	-5.248946	-0.002151
O	2.940845	-0.878829	0.002006
C	-4.667206	-5.563799	-0.003509
H	-4.712423	-6.664085	-0.004658
H	-5.169231	-5.147101	-0.897610
H	-5.169992	-5.148785	0.890935
C	4.904229	-2.587487	0.000039
H	5.546833	-3.483329	-0.001022
H	5.095998	-1.964972	0.894545
H	5.095858	-1.962932	-0.893071
C	0.000000	0.000000	0.000000
S	0.335026	0.718942	1.580530
C	1.027130	2.203226	0.904911
C	0.421617	0.904557	-0.985400
C	0.979485	2.101144	-0.493528
H	0.322049	0.690978	-2.059934
H	1.351718	2.899571	-1.152593
H	1.399246	3.001430	1.556025
H	0.149881	-7.361589	0.896779
H	0.150656	-7.361192	-0.900100
H	-0.000531	-1.478831	1.080000
$end

$rem
JOBTYPE		SP
EXCHANGE	HF
CORRELATION	pRIMP2
BASIS		cc-pvtz
METHOD		rimp2
AUX_BASIS	rimp2-cc-pvtz
SOLVENT_METHOD	PCM
PURECART	11111
SYMMETRY	false
MEM_TOTAL	110000
SCF_CONVERGENCE = 6
THRESH=10
GUI = 2
$end



$solvent
dielectric 4.90
$end
--------------------------------------------------------------
 ----------------------------------------------------------------
             Standard Nuclear Orientation (Angstroms)
    I     Atom           X                Y                Z
 ----------------------------------------------------------------
    1      C       0.2569270000    -6.7414040000    -0.0014780000
    2      C       1.5626750000    -6.1556380000    -0.0016030000
    3      C      -0.8271970000    -5.7914520000    -0.0019310000
    4      C       1.8412530000    -4.8037860000    -0.0013740000
    5      H       2.4407090000    -6.8215180000    -0.0017940000
    6      C      -0.5354880000    -4.3786380000    -0.0012270000
    7      C       0.7949990000    -3.8380320000    -0.0008720000
    8      C      -1.5805290000    -3.4130620000    -0.0006580000
    9      C       1.0843740000    -2.4264730000    -0.0001860000
   10      C      -1.3052580000    -2.0593480000    -0.0000460000
   11      C       0.0000000000    -1.4782160000     0.0000000000
   12      H      -2.1842670000    -1.3947830000     0.0003690000
   13      C      -2.2697190000    -6.1879870000    -0.0037700000
   14      C      -3.0111520000    -3.7981640000    -0.0007670000
   15      N      -3.2546170000    -5.1700030000    -0.0024650000
   16      C       3.2757750000    -4.4249870000    -0.0014330000
   17      C       2.5279510000    -2.0366270000     0.0005760000
   18      N       3.5131040000    -3.0491560000    -0.0004000000
   19      O      -2.6610460000    -7.3531310000    -0.0066230000
   20      O      -3.9344100000    -2.9868540000     0.0001720000
   21      O       4.1880590000    -5.2489460000    -0.0021510000
   22      O       2.9408450000    -0.8788290000     0.0020060000
   23      C      -4.6672060000    -5.5637990000    -0.0035090000
   24      H      -4.7124230000    -6.6640850000    -0.0046580000
   25      H      -5.1692310000    -5.1471010000    -0.8976100000
   26      H      -5.1699920000    -5.1487850000     0.8909350000
   27      C       4.9042290000    -2.5874870000     0.0000390000
   28      H       5.5468330000    -3.4833290000    -0.0010220000
   29      H       5.0959980000    -1.9649720000     0.8945450000
   30      H       5.0958580000    -1.9629320000    -0.8930710000
   31      C       0.0000000000     0.0000000000     0.0000000000
   32      S       0.3350260000     0.7189420000     1.5805300000
   33      C       1.0271300000     2.2032260000     0.9049110000
   34      C       0.4216170000     0.9045570000    -0.9854000000
   35      C       0.9794850000     2.1011440000    -0.4935280000
   36      H       0.3220490000     0.6909780000    -2.0599340000
   37      H       1.3517180000     2.8995710000    -1.1525930000
   38      H       1.3992460000     3.0014300000     1.5560250000
   39      H       0.1498810000    -7.3615890000     0.8967790000
   40      H       0.1506560000    -7.3611920000    -0.9001000000
   41      H      -0.0005310000    -1.4788310000     1.0800000000
 ----------------------------------------------------------------
 Nuclear Repulsion Energy =        2561.38419959 hartrees
 There are       98 alpha and       98 beta electrons
 Requested basis set is cc-pVTZ
 There are 356 shells and 1010 basis functions

 Total QAlloc Memory Limit 110000 MB
 Mega-Array Size       188 MB
 MEM_STATIC part       192 MB
 Discretize the solute cavity surface with Lebedev spheres
	Using 110 Lebedev grid points for each H atom
	Using 194 Lebedev grid points for other atoms
	Atomic van der Waals radii will be scaled by 1.20
 Remove points where switching function is < 1.0e-08
 Keep 2591 surface tesserae and discard 4187 interior tesserae
 Molecular Surface Area = 369.785 Angst**2
 Requested basis set is rimp2-cc-pVTZ
 There are 770 shells and 2648 basis functions
 A cutoff of  1.0D-10 yielded  34358 shell pairs
 There are    260064 function pairs (    336774 Cartesian)
 Smallest overlap matrix eigenvalue = 8.90E-06

 Q-Chem warning in module stvman/mkSTV.C, line 323:

 Overlap eigenvalue is smaller than square root of threshold
 Use THRESH >= 12 to get rid of this warning


 Scale SEOQF with 1.000000e-02/1.000000e-02/1.000000e-01

 Standard Electronic Orientation quadrupole field applied
 Nucleus-field energy     =     0.0000000205 hartrees
 Guess from superposition of atomic densities
 Warning:  Energy on first SCF cycle will be non-variational
 SAD guess density has 196.000000 electrons

 -----------------------------------------------------------------------
  General SCF calculation program by
  Eric Jon Sundstrom, Paul Horn, Yuezhi Mao, Dmitri Zuev, Alec White,
  David Stuck, Shaama M.S., Shane Yost, Joonho Lee, David Small,
  Daniel Levine, Susi Lehtola, Hugh Burton, Evgeny Epifanovsky,
  Bang C. Huynh
 -----------------------------------------------------------------------
 Hartree-Fock
 using 64 threads for integral computing
 -------------------------------------------------------
 OpenMP Integral computing Module                
 Release: version 1.0, May 2013, Q-Chem Inc. Pittsburgh 
 -------------------------------------------------------
 A restricted SCF calculation will be
 performed using DIIS
 SCF converges when DIIS error is below 1.0e-06
 ---------------------------------------
  Cycle       Energy         DIIS error
 ---------------------------------------
    1   -1583.1202892241      1.86e-02  
    2   -1571.1565172248      2.03e-03  
    3   -1571.4958771799      1.55e-03  
    4   -1571.7171394466      2.53e-04  
    5   -1571.7310188084      7.80e-05  
    6   -1571.7324479398      3.03e-05  
    7   -1571.7328740500      1.54e-05  
    8   -1571.7329897366      6.34e-06  
    9   -1571.7330094722      2.88e-06  
   10   -1571.7330134296      1.24e-06  
   11   -1571.7330146103      5.60e-07  Convergence criterion met
 ---------------------------------------
 SCF time:   CPU 7020.49s  wall 264.00s 

************** Final PCM Free Energy Summary **************
 G_electrostatic  =      -0.03016733 hartree =     -18.93028790 kcal/mol
 G_cavitation     =       0.00000000 hartree =       0.00000000 kcal/mol
 G_dispersion     =       0.00000000 hartree =       0.00000000 kcal/mol
 G_repulsion      =       0.00000000 hartree =       0.00000000 kcal/mol
 --------------------------------------------------
 Non-electrostatic Free Energy =       0.00000000 hartree =       0.00000000 kcal/mol
 Total                         =      -0.03016733 hartree =     -18.93028790 kcal/mol
 --------------------------------------------------
 SCF Energy (H0 + V/2)                       =   -1571.73301461 
 Solute Internal Energy (H0)                 =   -1571.70284728 
 Total Free Energy (H0 + V/2 + non-elec)     =   -1571.73301461 hartree
                                             = -986277.35255134 kcal/mol
***********************************************************

 SCF   energy in the final basis set =    -1571.7330146103
 Total energy in the final basis set =    -1571.7330146103


 --------------------------------------------------------------
  Generalized many-body perturbation theory program
  by Joonho Lee, Fazle Rob, Xintian Feng, Evgeny Epifanovsky

 No regularization used 
 (reg. param. = 0.0000e+00)
  (P|Q)^-1/2 Time:  CPU 102.60 s  wall 2.02 s

 In RI-MP2 calculation: 
 # of frozen core orbitals: 31

 Components of the RIMP2 correlation energy:
        aaaa    correlation energy =        -0.6154007000 a.u.
        abab    correlation energy =        -3.4269537360 a.u.
        bbbb    correlation energy =        -0.6154007000 a.u.
        non-Brillouin singles      =        -0.0000000000 a.u.
        total same-spin energy     =        -1.2308014001 a.u.
        total opposite-spin energy =        -3.4269537360 a.u.

 Total  RIMP2   correlation energy =        -4.6577551361 a.u.
        RIMP2         total energy =     -1576.3907697464 a.u.

 RI-MP2 Energy Time:  CPU 2105.56 s  wall 34.67 s
 
 --------------------------------------------------------------
 
                    Orbital Energies (a.u.)
 --------------------------------------------------------------
 
 Alpha MOs
 -- Occupied --
-91.9910 -20.5500 -20.5438 -20.5408 -20.5394 -15.6259 -15.6204 -11.3916
-11.3845 -11.3827 -11.3779 -11.3074 -11.3061 -11.3038 -11.3036 -11.2957
-11.2871 -11.2863 -11.2853 -11.2677 -11.2674 -11.2624 -11.2621 -11.2589
-11.2565 -11.2520 -11.2503  -8.9908  -6.6716  -6.6711  -6.6705  -1.4180
 -1.4113  -1.3961  -1.3905  -1.2610  -1.2545  -1.2286  -1.1863  -1.1519
 -1.1127  -1.0854  -1.0453  -0.9953  -0.9870  -0.9850  -0.9542  -0.9507
 -0.8947  -0.8852  -0.8759  -0.8591  -0.7913  -0.7752  -0.7736  -0.7680
 -0.7377  -0.7162  -0.7038  -0.6905  -0.6756  -0.6691  -0.6667  -0.6564
 -0.6461  -0.6401  -0.6368  -0.6310  -0.6301  -0.6257  -0.6224  -0.6041
 -0.5835  -0.5740  -0.5675  -0.5608  -0.5560  -0.5506  -0.5495  -0.5473
 -0.5459  -0.5430  -0.5202  -0.5130  -0.5064  -0.4793  -0.4727  -0.4685
 -0.4550  -0.4491  -0.4417  -0.4336  -0.4127  -0.4067  -0.3547  -0.3504
 -0.3282  -0.2894
 -- Virtual --
  0.0159   0.0447   0.0807   0.0927   0.1286   0.1496   0.1551   0.1611
  0.1641   0.1732   0.1810   0.1828   0.1868   0.1909   0.1943   0.1992
  0.2054   0.2202   0.2238   0.2282   0.2308   0.2330   0.2367   0.2451
  0.2677   0.2695   0.2893   0.3042   0.3110   0.3151   0.3216   0.3250
  0.3291   0.3412   0.3426   0.3520   0.3553   0.3603   0.3636   0.3709
  0.3724   0.3770   0.3828   0.3862   0.3871   0.3918   0.4034   0.4054
  0.4124   0.4194   0.4267   0.4314   0.4354   0.4391   0.4449   0.4500
  0.4513   0.4547   0.4569   0.4672   0.4709   0.4857   0.4887   0.4934
  0.4996   0.5019   0.5038   0.5132   0.5161   0.5209   0.5231   0.5279
  0.5306   0.5357   0.5422   0.5471   0.5524   0.5540   0.5631   0.5663
  0.5694   0.5738   0.5772   0.5841   0.5903   0.5911   0.5941   0.6004
  0.6025   0.6045   0.6079   0.6118   0.6151   0.6201   0.6225   0.6257
  0.6299   0.6349   0.6358   0.6391   0.6400   0.6457   0.6472   0.6548
  0.6624   0.6682   0.6732   0.6796   0.6854   0.6888   0.6948   0.7016
  0.7052   0.7111   0.7173   0.7264   0.7313   0.7396   0.7464   0.7534
  0.7608   0.7654   0.7693   0.7749   0.7807   0.7856   0.7895   0.8013
  0.8029   0.8086   0.8159   0.8240   0.8282   0.8349   0.8401   0.8479
  0.8486   0.8583   0.8598   0.8632   0.8688   0.8715   0.8768   0.8820
  0.8901   0.8967   0.9036   0.9138   0.9189   0.9195   0.9246   0.9322
  0.9337   0.9434   0.9460   0.9535   0.9584   0.9647   0.9740   0.9778
  0.9831   0.9884   0.9908   0.9932   0.9991   1.0053   1.0085   1.0228
  1.0249   1.0329   1.0358   1.0384   1.0444   1.0496   1.0605   1.0629
  1.0669   1.0695   1.0762   1.0795   1.0853   1.0932   1.0970   1.1030
  1.1061   1.1164   1.1195   1.1232   1.1327   1.1352   1.1416   1.1431
  1.1463   1.1536   1.1608   1.1631   1.1719   1.1769   1.1803   1.1840
  1.1867   1.1993   1.2027   1.2060   1.2131   1.2143   1.2203   1.2279
  1.2300   1.2383   1.2410   1.2440   1.2532   1.2592   1.2703   1.2781
  1.2839   1.2894   1.2967   1.3054   1.3118   1.3238   1.3320   1.3380
  1.3486   1.3507   1.3539   1.3644   1.3681   1.3776   1.3810   1.3890
  1.3922   1.3930   1.3965   1.4129   1.4169   1.4220   1.4315   1.4370
  1.4447   1.4515   1.4651   1.4677   1.4781   1.4813   1.4920   1.4991
  1.5011   1.5032   1.5059   1.5146   1.5241   1.5260   1.5318   1.5399
  1.5445   1.5459   1.5536   1.5567   1.5644   1.5693   1.5755   1.5780
  1.5837   1.5852   1.5960   1.6017   1.6194   1.6246   1.6309   1.6430
  1.6491   1.6610   1.6648   1.6746   1.6809   1.6863   1.6916   1.6946
  1.7033   1.7103   1.7250   1.7368   1.7401   1.7497   1.7518   1.7556
  1.7583   1.7692   1.7707   1.7772   1.7902   1.7925   1.8094   1.8111
  1.8134   1.8226   1.8288   1.8442   1.8493   1.8644   1.8690   1.8748
  1.8759   1.8777   1.8876   1.8979   1.9061   1.9207   1.9304   1.9490
  1.9533   1.9646   1.9681   1.9721   1.9882   1.9916   2.0023   2.0207
  2.0311   2.0396   2.0559   2.0589   2.0894   2.1052   2.1085   2.1210
  2.1335   2.1515   2.1536   2.1673   2.1741   2.1815   2.2109   2.2168
  2.2224   2.2344   2.2473   2.2664   2.2836   2.2939   2.2953   2.3003
  2.3164   2.3198   2.3333   2.3362   2.3669   2.3677   2.3828   2.3889
  2.4089   2.4224   2.4337   2.4444   2.4483   2.4577   2.4646   2.4693
  2.4728   2.4824   2.4939   2.5035   2.5095   2.5292   2.5396   2.5415
  2.5581   2.5631   2.5767   2.5854   2.5914   2.6004   2.6056   2.6212
  2.6249   2.6355   2.6383   2.6422   2.6541   2.6631   2.6739   2.6809
  2.6828   2.6914   2.6962   2.7161   2.7172   2.7252   2.7284   2.7351
  2.7369   2.7482   2.7585   2.7610   2.7727   2.7752   2.7851   2.7989
  2.8146   2.8234   2.8335   2.8417   2.8523   2.8539   2.8641   2.8685
  2.8792   2.8813   2.8890   2.8957   2.8996   2.9059   2.9092   2.9171
  2.9234   2.9263   2.9361   2.9455   2.9586   2.9606   2.9655   2.9721
  2.9805   2.9834   2.9924   3.0009   3.0104   3.0158   3.0217   3.0269
  3.0335   3.0414   3.0467   3.0536   3.0573   3.0709   3.0838   3.0886
  3.0950   3.1017   3.1080   3.1084   3.1114   3.1148   3.1233   3.1237
  3.1344   3.1405   3.1453   3.1558   3.1574   3.1603   3.1650   3.1741
  3.1886   3.1956   3.1971   3.2031   3.2112   3.2166   3.2191   3.2256
  3.2266   3.2330   3.2355   3.2462   3.2537   3.2550   3.2605   3.2685
  3.2730   3.2769   3.2851   3.2878   3.2965   3.3007   3.3052   3.3080
  3.3126   3.3148   3.3217   3.3279   3.3322   3.3354   3.3378   3.3419
  3.3463   3.3490   3.3502   3.3569   3.3586   3.3652   3.3704   3.3748
  3.3835   3.3858   3.3915   3.3948   3.4000   3.4015   3.4044   3.4119
  3.4146   3.4202   3.4215   3.4315   3.4394   3.4459   3.4480   3.4501
  3.4580   3.4601   3.4671   3.4685   3.4741   3.4787   3.4843   3.4942
  3.4991   3.5014   3.5042   3.5061   3.5095   3.5214   3.5248   3.5265
  3.5380   3.5426   3.5505   3.5535   3.5608   3.5678   3.5764   3.5801
  3.5863   3.5892   3.5961   3.6050   3.6076   3.6200   3.6263   3.6275
  3.6318   3.6338   3.6413   3.6443   3.6478   3.6513   3.6541   3.6583
  3.6679   3.6763   3.6813   3.6882   3.6959   3.6991   3.7040   3.7122
  3.7213   3.7296   3.7349   3.7373   3.7456   3.7482   3.7521   3.7582
  3.7612   3.7665   3.7696   3.7742   3.7772   3.7889   3.7938   3.8053
  3.8117   3.8126   3.8158   3.8206   3.8314   3.8397   3.8423   3.8487
  3.8540   3.8590   3.8635   3.8683   3.8796   3.8871   3.8952   3.9055
  3.9070   3.9137   3.9200   3.9321   3.9399   3.9409   3.9449   3.9536
  3.9567   3.9638   3.9682   3.9782   3.9834   3.9961   3.9973   4.0121
  4.0187   4.0261   4.0286   4.0359   4.0429   4.0588   4.0633   4.0737
  4.0988   4.1048   4.1097   4.1150   4.1223   4.1278   4.1337   4.1431
  4.1462   4.1551   4.1601   4.1692   4.1771   4.1846   4.2029   4.2072
  4.2097   4.2255   4.2283   4.2407   4.2459   4.2476   4.2589   4.2624
  4.2715   4.2735   4.2795   4.2847   4.2887   4.2928   4.2975   4.3069
  4.3094   4.3167   4.3206   4.3288   4.3374   4.3390   4.3469   4.3512
  4.3608   4.3667   4.3698   4.3719   4.3734   4.3797   4.3889   4.3950
  4.4003   4.4073   4.4094   4.4161   4.4311   4.4406   4.4471   4.4535
  4.4762   4.4835   4.4838   4.4988   4.5020   4.5110   4.5224   4.5252
  4.5370   4.5444   4.5479   4.5509   4.5664   4.5732   4.5786   4.5849
  4.5889   4.5942   4.5995   4.6096   4.6159   4.6233   4.6291   4.6377
  4.6478   4.6543   4.6682   4.6742   4.6893   4.6945   4.7016   4.7040
  4.7148   4.7289   4.7365   4.7431   4.7774   4.7830   4.7908   4.8014
  4.8122   4.8299   4.8367   4.8424   4.8530   4.8595   4.8716   4.8782
  4.8871   4.8931   4.9083   4.9238   4.9260   4.9456   4.9589   4.9611
  4.9849   5.0041   5.0156   5.0300   5.0353   5.0422   5.0514   5.0604
  5.0859   5.0899   5.1033   5.1226   5.1248   5.1270   5.1330   5.1438
  5.1470   5.1530   5.1708   5.1771   5.1852   5.1985   5.2242   5.2353
  5.2634   5.2653   5.2745   5.2843   5.2876   5.3050   5.3199   5.3288
  5.3312   5.3461   5.3584   5.3633   5.3783   5.3862   5.4035   5.4168
  5.4336   5.4453   5.4773   5.4881   5.4961   5.4985   5.5132   5.5151
  5.5182   5.5386   5.5472   5.5496   5.5581   5.5597   5.5672   5.5694
  5.5761   5.5820   5.5868   5.5926   5.6100   5.6173   5.6228   5.6320
  5.6493   5.6567   5.6618   5.6671   5.6722   5.6760   5.6941   5.6957
  5.7034   5.7108   5.7229   5.7439   5.7544   5.7668   5.7692   5.7750
  5.7853   5.7940   5.8114   5.8314   5.8425   5.8536   5.8842   5.9065
  5.9219   5.9528   5.9594   5.9777   5.9952   6.0054   6.0334   6.0425
  6.0466   6.0633   6.0874   6.1124   6.1239   6.1261   6.1468   6.1885
  6.2006   6.2201   6.2254   6.2262   6.2424   6.2633   6.2690   6.2840
  6.3102   6.3186   6.3239   6.3486   6.3669   6.3853   6.4192   6.4849
  6.5192   6.5334   6.5762   6.5836   6.6025   6.6186   6.6536   6.6602
  6.6720   6.6788   6.8491   6.8505   6.8894   6.9027   6.9059   6.9242
  6.9280   6.9400   7.1020   7.1114   7.1481   7.1959   7.2004   7.2365
  7.3482   7.3528   7.3586   7.3628   7.4764   7.5457   7.5716   7.5839
  7.5916   7.6009   7.6544   7.6789   7.6929   7.7151   8.8393  10.0238
 10.2899  11.3249  11.5154  11.7520  12.0122  12.1395  12.4225  12.4636
 12.8601  13.2027  13.3260  13.5511  13.7669  13.9300  14.1005  14.2719
 14.3119  14.3658  14.4852  14.5378  15.0283  15.6045  15.8183  16.2930
 --------------------------------------------------------------
 
          Ground-State Mulliken Net Atomic Charges

     Atom                 Charge (a.u.)
  ----------------------------------------
      1 C                    -0.084114
      2 C                    -0.031451
      3 C                    -0.114242
      4 C                    -0.119315
      5 H                     0.198187
      6 C                     0.007943
      7 C                     0.115006
      8 C                    -0.069746
      9 C                    -0.147816
     10 C                    -0.166711
     11 C                     0.236477
     12 H                     0.189871
     13 C                     0.343007
     14 C                     0.349778
     15 N                    -0.089846
     16 C                     0.356280
     17 C                     0.355269
     18 N                    -0.089475
     19 O                    -0.495511
     20 O                    -0.507953
     21 O                    -0.502116
     22 O                    -0.469555
     23 C                    -0.204935
     24 H                     0.139278
     25 H                     0.108876
     26 H                     0.108932
     27 C                    -0.197912
     28 H                     0.133194
     29 H                     0.111285
     30 H                     0.110956
     31 C                    -0.057872
     32 S                     0.007630
     33 C                    -0.204664
     34 C                    -0.183090
     35 C                    -0.187760
     36 H                     0.187229
     37 H                     0.190501
     38 H                     0.213251
     39 H                     0.137056
     40 H                     0.137209
     41 H                     0.186865
  ----------------------------------------
  Sum of atomic charges =     0.000000

 -----------------------------------------------------------------
                    Cartesian Multipole Moments
 -----------------------------------------------------------------
    Charge (ESU x 10^10)
                 0.0000
    Dipole Moment (Debye)
         X       2.0705      Y       2.7162      Z      -0.2846
       Tot       3.4272
    Quadrupole Moments (Debye-Ang)
        XX    -194.3623     XY      -4.3725     YY    -180.8861
        XZ       0.4785     YZ      -0.4751     ZZ    -156.0757
    Octopole Moments (Debye-Ang^2)
       XXX    -109.0280    XXY     609.8676    XYY      41.9191
       YYY    1703.9868    XXZ     -16.4785    XYZ       3.1666
       YYZ      -8.4582    XZZ     -30.2774    YZZ     475.0636
       ZZZ     -55.3391
    Hexadecapole Moments (Debye-Ang^3)
      XXXX   -6484.9268   XXXY    -144.7614   XXYY   -4488.8291
      XYYY   -1237.3427   YYYY  -18087.3155   XXXZ     -20.2785
      XXYZ     -11.7770   XYYZ       1.6269   YYYZ     -34.6920
      XXZZ   -1083.1759   XYZZ    -144.6246   YYZZ   -2642.1717
      XZZZ     -17.9839   YZZZ     -40.8098   ZZZZ    -466.5663
 -----------------------------------------------------------------
 Total job time:  313.38s(wall), 9231.02s(cpu) 
 Tue Sep 26 22:47:00 2023

        *************************************************************
        *                                                           *
        *  Thank you very much for using Q-Chem.  Have a nice day.  *
        *                                                           *
        *************************************************************


0 sent ACK to 0 
now end server 0 ... 
cleanup process ... done
remove work dirs ./qchem1992565.0 -- ./qchem1992565.0
rm -rf ./qchem1992565.0
rm -rf ./qchem1992565
