You are running Q-Chem version: 5.4.0

#
# job setting
#
local host:  exp-2-20
current dir: /expanse/lustre/projects/csd626/rramji/aromodel/PNDIT/Hydrogenated_Rotation_Test
input file:  Dimethyl_Naphthalene_Dicarboximide_Phi_0_Theta_30_Thiophene_Hydrogenated.qcin
output file: 
nprocs     : 1
nthreads   : 64
#
# qchem installation setting
#
QC:          /cm/shared/apps/spack/cpu/opt/spack/linux-centos8-zen2/gcc-10.2.0/qchem-5.4-akfmr7b3t57bfs6qan3padb2wnb2i7cl
QCAUX:       /cm/shared/apps/spack/cpu/opt/spack/linux-centos8-zen2/gcc-10.2.0/qchem-5.4-akfmr7b3t57bfs6qan3padb2wnb2i7cl/qcaux
QCPROG:      /cm/shared/apps/spack/cpu/opt/spack/linux-centos8-zen2/gcc-10.2.0/qchem-5.4-akfmr7b3t57bfs6qan3padb2wnb2i7cl/exe/qcprog.exe
QCPROG_S:    /cm/shared/apps/spack/cpu/opt/spack/linux-centos8-zen2/gcc-10.2.0/qchem-5.4-akfmr7b3t57bfs6qan3padb2wnb2i7cl/exe/qcprog.exe_s
PARALLEL:    -DPARALLEL
QCMPI:       mpich
#
# qchem directory setting
#
qcrun:       qchem3016118
QCSCRATCH:   .
QCLOCALSCR:  
QCTMPDIR:    .
QCFILEPREF:  ./qchem3016118
QCSAVEDIR:   
workdirs:    ./qchem3016118
workdir0:    ./qchem3016118
partmpdirs =  
#
# parallel setting
#
QCRSH:           ssh
QCMPI:           mpich
QCMPIRUN:        /cm/shared/apps/spack/cpu/opt/spack/linux-centos8-zen2/gcc-10.2.0/qchem-5.4-akfmr7b3t57bfs6qan3padb2wnb2i7cl/bin/mpi/mpirun_qchem
QCMACHINEFILE:   ./qchem3016118/hostfile
exp-2-20

#
# env setting
#
exported envs:   QC QCAUX QCSCRATCH QCRUNNAME QCFILEPREF QCPROG QCPROG_S GUIFILE

Running Job 1 of 1 Dimethyl_Naphthalene_Dicarboximide_Phi_0_Theta_30_Thiophene_Hydrogenated.qcin
qchem Dimethyl_Naphthalene_Dicarboximide_Phi_0_Theta_30_Thiophene_Hydrogenated.qcin_3016118.0 ./qchem3016118/ 1
/cm/shared/apps/spack/cpu/opt/spack/linux-centos8-zen2/gcc-10.2.0/qchem-5.4-akfmr7b3t57bfs6qan3padb2wnb2i7cl/bin/mpi/mpirun_qchem -machinefile ./qchem3016118/hostfile -np 1 /cm/shared/apps/spack/cpu/opt/spack/linux-centos8-zen2/gcc-10.2.0/qchem-5.4-akfmr7b3t57bfs6qan3padb2wnb2i7cl/exe/qcprog.exe Dimethyl_Naphthalene_Dicarboximide_Phi_0_Theta_30_Thiophene_Hydrogenated.qcin_3016118.0 ./qchem3016118/

Process 0 of 1 is on exp-2-20 - thread support 0
initial socket setup ...start
initial socket setup ...done 
now start server 0 ... 
                  Welcome to Q-Chem
     A Quantum Leap Into The Future Of Chemistry


 Q-Chem 5.4, Q-Chem, Inc., Pleasanton, CA (2021)

 License issued to: University of California, San Diego (site)

 E. Epifanovsky,  A. T. B. Gilbert,  Xintian Feng,  Joonho Lee,  Yuezhi Mao,  
 N. Mardirossian,  P. Pokhilko,  A. White,  M. Wormit,  M. P. Coons,  
 A. L. Dempwolff,  Zhengting Gan,  D. Hait,  P. R. Horn,  L. D. Jacobson,  
 I. Kaliman,  J. Kussmann,  A. W. Lange,  Ka Un Lao,  D. S. Levine,  Jie Liu,  
 S. C. McKenzie,  A. F. Morrison,  K. Nanda,  F. Plasser,  D. R. Rehn,  
 M. L. Vidal,  Zhi-Qiang You,  Ying Zhu,  B. Alam,  B. Albrecht,  
 A. Aldossary,  E. Alguire,  J. H. Andersen,  D. Barton,  K. Begam,  A. Behn,  
 Y. A. Bernard,  E. J. Berquist,  H. Burton,  A. Carreras,  K. Carter-Fenk,  
 R. Chakraborty,  A. D. Chien,  K. D. Closser,  V. Cofer-Shabica,  
 S. Dasgupta,  Jia Deng,  M. de Wergifosse,  M. Diedenhofen,  Hainam Do,  
 S. Ehlert,  Po-Tung Fang,  S. Fatehi,  Qingguo Feng,  J. Gayvert,  
 Qinghui Ge,  G. Gidofalvi,  M. Goldey,  J. Gomes,  C. Gonzalez-Espinoza,  
 S. Gulania,  A. Gunina,  M. W. D. Hanson-Heine,  P. H. P. Harbach,  
 A. W. Hauser,  M. F. Herbst,  M. Hernandez Vera,  M. Hodecker,  
 Z. C. Holden,  S. Houck,  Xunkun Huang,  Kerwin Hui,  B. C. Huynh,  
 M. Ivanov,  Hyunjun Ji,  Hanjie Jiang,  B. Kaduk,  S. Kaehler,  
 K. Khistyaev,  Jaehoon Kim,  P. Klunzinger,  Z. Koczor-Benda,  
 Joong Hoon Koh,  D. Kosenkov,  L. Koulias,  T. Kowalczyk,  C. M. Krauter,  
 K. Kue,  A. Kunitsa,  T. Kus,  A. Landau,  K. V. Lawler,  D. Lefrancois,  
 S. Lehtola,  Rain Li,  Yi-Pei Li,  Jiashu Liang,  M. Liebenthal,  
 Hung-Hsuan Lin,  You-Sheng Lin,  Fenglai Liu,  Kuan-Yu Liu,  
 M. Loipersberger,  A. Luenser,  A. Manjanath,  P. Manohar,  E. Mansoor,  
 S. F. Manzer,  Shan-Ping Mao,  A. V. Marenich,  T. Markovich,  S. Mason,  
 S. A. Maurer,  P. F. McLaughlin,  M. F. S. J. Menger,  J.-M. Mewes,  
 S. A. Mewes,  P. Morgante,  J. W. Mullinax,  T. S. Nguyen-Beck,  
 K. J. Oosterbaan,  G. Paran,  Alexander C. Paul,  Suranjan K. Paul,  
 F. Pavosevic,  Zheng Pei,  S. Prager,  E. I. Proynov,  E. Ramos,  B. Rana,  
 A. E. Rask,  A. Rettig,  R. M. Richard,  F. Rob,  E. Rossomme,  T. Scheele,  
 M. Scheurer,  M. Schneider,  N. Sergueev,  S. M. Sharada,  W. Skomorowski,  
 D. W. Small,  C. J. Stein,  Yu-Chuan Su,  E. J. Sundstrom,  Zhen Tao,  
 J. Thirman,  T. Tsuchimochi,  N. M. Tubman,  S. P. Veccham,  O. Vydrov,  
 J. Wenzel,  J. Witte,  A. Yamada,  Kun Yao,  S. Yeganeh,  S. R. Yost,  
 A. Zech,  Igor Ying Zhang,  Xing Zhang,  Yu Zhang,  D. Zuev,  
 A. Aspuru-Guzik,  A. T. Bell,  N. A. Besley,  K. B. Bravaya,  B. R. Brooks,  
 D. Casanova,  Jeng-Da Chai,  S. Coriani,  C. J. Cramer,  
 A. E. DePrince, III,  R. A. DiStasio Jr.,  A. Dreuw,  B. D. Dunietz,  
 T. R. Furlani,  W. A. Goddard III,  S. Grimme,  S. Hammes-Schiffer,  
 T. Head-Gordon,  W. J. Hehre,  Chao-Ping Hsu,  T.-C. Jagau,  Yousung Jung,  
 A. Klamt,  Jing Kong,  D. S. Lambrecht,  WanZhen Liang,  N. J. Mayhall,  
 C. W. McCurdy,  J. B. Neaton,  C. Ochsenfeld,  J. A. Parkhill,  R. Peverati,  
 V. A. Rassolov,  Yihan Shao,  L. V. Slipchenko,  T. Stauch,  R. P. Steele,  
 J. E. Subotnik,  A. J. W. Thom,  A. Tkatchenko,  D. G. Truhlar,  
 T. Van Voorhis,  T. A. Wesolowski,  K. B. Whaley,  H. L. Woodcock III,  
 P. M. Zimmerman,  S. Faraji,  P. M. W. Gill,  M. Head-Gordon,  
 J. M. Herbert,  A. I. Krylov

 Contributors to earlier versions of Q-Chem not listed above: 
 R. D. Adamson,  B. Austin,  R. Baer,  J. Baker,  G. J. O. Beran,  
 K. Brandhorst,  S. T. Brown,  E. F. C. Byrd,  A. K. Chakraborty,  
 G. K. L. Chan,  Chun-Min Chang,  Yunqing Chen,  C.-L. Cheng,  
 Siu Hung Chien,  D. M. Chipman,  D. L. Crittenden,  H. Dachsel,  
 R. J. Doerksen,  A. D. Dutoi,  R. G. Edgar,  J. Fosso-Tande,  
 L. Fusti-Molnar,  D. Ghosh,  A. Ghysels,  A. Golubeva-Zadorozhnaya,  
 J. Gonthier,  M. S. Gordon,  S. R. Gwaltney,  G. Hawkins,  J. E. Herr,  
 A. Heyden,  S. Hirata,  E. G. Hohenstein,  G. Kedziora,  F. J. Keil,  
 C. Kelley,  Jihan Kim,  R. A. King,  R. Z. Khaliullin,  P. P. Korambath,  
 W. Kurlancheek,  A. Laurent,  A. M. Lee,  M. S. Lee,  S. V. Levchenko,  
 Ching Yeh Lin,  D. Liotard,  E. Livshits,  R. C. Lochan,  I. Lotan,  
 L. A. Martinez-Martinez,  P. E. Maslen,  N. Nair,  D. P. O'Neill,  
 D. Neuhauser,  E. Neuscamman,  C. M. Oana,  R. Olivares-Amaya,  R. Olson,  
 T. M. Perrine,  B. Peters,  P. A. Pieniazek,  A. Prociuk,  Y. M. Rhee,  
 J. Ritchie,  M. A. Rohrdanz,  E. Rosta,  N. J. Russ,  H. F. Schaefer III,  
 M. W. Schmidt,  N. E. Schultz,  S. Sharma,  N. Shenvi,  C. D. Sherrill,  
 A. C. Simmonett,  A. Sodt,  T. Stein,  D. Stuck,  K. S. Thanthiriwatte,  
 V. Vanovschi,  L. Vogt,  Tao Wang,  A. Warshel,  M. A. Watson,  
 C. F. Williams,  Q. Wu,  X. Xu,  Jun Yang,  W. Zhang,  Yan Zhao

 Please cite Q-Chem as follows:
 Y. Shao et al., Mol. Phys. 113, 184-215 (2015)
 DOI: 10.1080/00268976.2014.952696

 Q-Chem 5.4.0 for Intel X86 EM64T Linux

 Parts of Q-Chem use Armadillo 9.800.1 (Horizon Scraper).
 http://arma.sourceforge.net/

 Q-Chem begins on Sun Sep 24 15:09:42 2023  

 Host: 
0

     Scratch files written to ./qchem3016118//
 May1621 |scratch|qcdevops|jenkins|workspace|build_RNUM    
 Parallel job on  1  processors
 Processing $rem in /cm/shared/apps/spack/cpu/opt/spack/linux-centos8-zen2/gcc-10.2.0/qchem-5.4-akfmr7b3t57bfs6qan3padb2wnb2i7cl/config/preferences:
 Processing $rem in /home/rramji/.qchemrc:
 Symmetry turned off for PCM/SM12/SMD calculation
 Core orbitals will be frozen

 Checking the input file for inconsistencies... 	...done.

 Q-Chem warning in module forms1/BasisType.C, line 2236:

 You are not using the predefined 5D/6D in this basis set.


--------------------------------------------------------------
User input:
--------------------------------------------------------------
$molecule
0 1
C	0.127184	-6.741404	-0.223244
C	0.779949	-6.155638	-1.354118
C	-0.415271	-5.791452	0.715408
C	0.919437	-4.803786	-1.595259
H	1.218801	-6.821518	-2.114613
C	-0.268806	-4.378638	0.463133
C	0.396744	-3.838032	-0.688925
C	-0.790835	-3.413062	1.368449
C	0.542026	-2.426473	-0.939189
C	-0.652669	-2.059348	1.130363
C	-0.000000	-1.478216	-0.000000
H	-1.091814	-1.394783	1.891815
C	-1.138124	-6.187987	1.963749
C	-1.506241	-3.798164	2.607351
N	-1.629443	-5.170003	2.817348
C	1.636646	-4.424987	-2.837621
C	1.264474	-2.036627	-2.188982
N	1.756205	-3.049156	-3.042637
O	-1.336258	-7.353131	2.301222
O	-1.967056	-2.986854	3.407386
O	2.092167	-5.248946	-3.628041
O	1.472160	-0.878829	-2.545844
C	-2.336642	-5.563799	4.040164
H	-2.360245	-6.664085	4.078749
H	-3.361968	-5.147101	4.027880
H	-1.813424	-5.148785	4.922811
C	2.452149	-2.587487	-4.247167
H	2.772531	-3.483329	-4.804209
H	3.322697	-1.964972	-3.965991
H	1.774507	-1.962932	-4.859678
C	0.000000	0.000000	0.000000
S	-0.000201	0.793171	1.580530
C	-0.000228	2.430885	0.904911
C	-0.000168	0.997990	-0.985400
C	-0.000267	2.318231	-0.493528
H	-0.000145	0.762343	-2.059934
H	-0.000339	3.199164	-1.152593
H	-0.000311	3.311566	1.556025
H	0.851574	-7.361589	0.318588
H	-0.704181	-7.361192	-0.580522
H	0.935042	-1.478831	0.540459
$end

$rem
JOBTYPE		SP
EXCHANGE	HF
CORRELATION	pRIMP2
BASIS		cc-pvtz
METHOD		rimp2
AUX_BASIS	rimp2-cc-pvtz
SOLVENT_METHOD	PCM
PURECART	11111
SYMMETRY	false
MEM_TOTAL	110000
SCF_CONVERGENCE = 6
THRESH=10
GUI = 2
$end



$solvent
dielectric 4.90
$end
--------------------------------------------------------------
 ----------------------------------------------------------------
             Standard Nuclear Orientation (Angstroms)
    I     Atom           X                Y                Z
 ----------------------------------------------------------------
    1      C       0.1271840000    -6.7414040000    -0.2232440000
    2      C       0.7799490000    -6.1556380000    -1.3541180000
    3      C      -0.4152710000    -5.7914520000     0.7154080000
    4      C       0.9194370000    -4.8037860000    -1.5952590000
    5      H       1.2188010000    -6.8215180000    -2.1146130000
    6      C      -0.2688060000    -4.3786380000     0.4631330000
    7      C       0.3967440000    -3.8380320000    -0.6889250000
    8      C      -0.7908350000    -3.4130620000     1.3684490000
    9      C       0.5420260000    -2.4264730000    -0.9391890000
   10      C      -0.6526690000    -2.0593480000     1.1303630000
   11      C       0.0000000000    -1.4782160000     0.0000000000
   12      H      -1.0918140000    -1.3947830000     1.8918150000
   13      C      -1.1381240000    -6.1879870000     1.9637490000
   14      C      -1.5062410000    -3.7981640000     2.6073510000
   15      N      -1.6294430000    -5.1700030000     2.8173480000
   16      C       1.6366460000    -4.4249870000    -2.8376210000
   17      C       1.2644740000    -2.0366270000    -2.1889820000
   18      N       1.7562050000    -3.0491560000    -3.0426370000
   19      O      -1.3362580000    -7.3531310000     2.3012220000
   20      O      -1.9670560000    -2.9868540000     3.4073860000
   21      O       2.0921670000    -5.2489460000    -3.6280410000
   22      O       1.4721600000    -0.8788290000    -2.5458440000
   23      C      -2.3366420000    -5.5637990000     4.0401640000
   24      H      -2.3602450000    -6.6640850000     4.0787490000
   25      H      -3.3619680000    -5.1471010000     4.0278800000
   26      H      -1.8134240000    -5.1487850000     4.9228110000
   27      C       2.4521490000    -2.5874870000    -4.2471670000
   28      H       2.7725310000    -3.4833290000    -4.8042090000
   29      H       3.3226970000    -1.9649720000    -3.9659910000
   30      H       1.7745070000    -1.9629320000    -4.8596780000
   31      C       0.0000000000     0.0000000000     0.0000000000
   32      S      -0.0002010000     0.7931710000     1.5805300000
   33      C      -0.0002280000     2.4308850000     0.9049110000
   34      C      -0.0001680000     0.9979900000    -0.9854000000
   35      C      -0.0002670000     2.3182310000    -0.4935280000
   36      H      -0.0001450000     0.7623430000    -2.0599340000
   37      H      -0.0003390000     3.1991640000    -1.1525930000
   38      H      -0.0003110000     3.3115660000     1.5560250000
   39      H       0.8515740000    -7.3615890000     0.3185880000
   40      H      -0.7041810000    -7.3611920000    -0.5805220000
   41      H       0.9350420000    -1.4788310000     0.5404590000
 ----------------------------------------------------------------
 Nuclear Repulsion Energy =        2550.86652674 hartrees
 There are       98 alpha and       98 beta electrons
 Requested basis set is cc-pVTZ
 There are 356 shells and 1010 basis functions

 Total QAlloc Memory Limit 110000 MB
 Mega-Array Size       188 MB
 MEM_STATIC part       192 MB
 Discretize the solute cavity surface with Lebedev spheres
	Using 110 Lebedev grid points for each H atom
	Using 194 Lebedev grid points for other atoms
	Atomic van der Waals radii will be scaled by 1.20
 Remove points where switching function is < 1.0e-08
 Keep 2578 surface tesserae and discard 4200 interior tesserae
 Molecular Surface Area = 366.283 Angst**2
 Requested basis set is rimp2-cc-pVTZ
 There are 770 shells and 2648 basis functions
 A cutoff of  1.0D-10 yielded  34138 shell pairs
 There are    258334 function pairs (    334376 Cartesian)
 Smallest overlap matrix eigenvalue = 9.24E-06

 Q-Chem warning in module stvman/mkSTV.C, line 323:

 Overlap eigenvalue is smaller than square root of threshold
 Use THRESH >= 12 to get rid of this warning


 Scale SEOQF with 1.000000e-01/1.000000e-02/1.000000e-01

 Standard Electronic Orientation quadrupole field applied
 Nucleus-field energy     =    -0.0000000733 hartrees
 Guess from superposition of atomic densities
 Warning:  Energy on first SCF cycle will be non-variational
 SAD guess density has 196.000000 electrons

 -----------------------------------------------------------------------
  General SCF calculation program by
  Eric Jon Sundstrom, Paul Horn, Yuezhi Mao, Dmitri Zuev, Alec White,
  David Stuck, Shaama M.S., Shane Yost, Joonho Lee, David Small,
  Daniel Levine, Susi Lehtola, Hugh Burton, Evgeny Epifanovsky,
  Bang C. Huynh
 -----------------------------------------------------------------------
 Hartree-Fock
 using 64 threads for integral computing
 -------------------------------------------------------
 OpenMP Integral computing Module                
 Release: version 1.0, May 2013, Q-Chem Inc. Pittsburgh 
 -------------------------------------------------------
 A restricted SCF calculation will be
 performed using DIIS
 SCF converges when DIIS error is below 1.0e-06
 ---------------------------------------
  Cycle       Energy         DIIS error
 ---------------------------------------
    1   -1583.1432438655      1.86e-02  
    2   -1571.1604625595      2.03e-03  
    3   -1571.5022753606      1.55e-03  
    4   -1571.7257141397      2.53e-04  
    5   -1571.7395437551      7.85e-05  
    6   -1571.7409828089      3.05e-05  
    7   -1571.7414109933      1.56e-05  
    8   -1571.7415291415      6.22e-06  
    9   -1571.7415491971      2.89e-06  
   10   -1571.7415531350      1.23e-06  
   11   -1571.7415543722      5.85e-07  Convergence criterion met
 ---------------------------------------
 SCF time:   CPU 6633.78s  wall 259.00s 

************** Final PCM Free Energy Summary **************
 G_electrostatic  =      -0.02816281 hartree =     -17.67242992 kcal/mol
 G_cavitation     =       0.00000000 hartree =       0.00000000 kcal/mol
 G_dispersion     =       0.00000000 hartree =       0.00000000 kcal/mol
 G_repulsion      =       0.00000000 hartree =       0.00000000 kcal/mol
 --------------------------------------------------
 Non-electrostatic Free Energy =       0.00000000 hartree =       0.00000000 kcal/mol
 Total                         =      -0.02816281 hartree =     -17.67242992 kcal/mol
 --------------------------------------------------
 SCF Energy (H0 + V/2)                       =   -1571.74155437 
 Solute Internal Energy (H0)                 =   -1571.71339156 
 Total Free Energy (H0 + V/2 + non-elec)     =   -1571.74155437 hartree
                                             = -986282.71133282 kcal/mol
***********************************************************

 SCF   energy in the final basis set =    -1571.7415543722
 Total energy in the final basis set =    -1571.7415543722


 --------------------------------------------------------------
  Generalized many-body perturbation theory program
  by Joonho Lee, Fazle Rob, Xintian Feng, Evgeny Epifanovsky

 No regularization used 
 (reg. param. = 0.0000e+00)
  (P|Q)^-1/2 Time:  CPU 154.75 s  wall 2.48 s

 In RI-MP2 calculation: 
 # of frozen core orbitals: 31

 Components of the RIMP2 correlation energy:
        aaaa    correlation energy =        -0.6153210561 a.u.
        abab    correlation energy =        -3.4256504405 a.u.
        bbbb    correlation energy =        -0.6153210561 a.u.
        non-Brillouin singles      =        -0.0000000000 a.u.
        total same-spin energy     =        -1.2306421122 a.u.
        total opposite-spin energy =        -3.4256504405 a.u.

 Total  RIMP2   correlation energy =        -4.6562925527 a.u.
        RIMP2         total energy =     -1576.3978469249 a.u.

 RI-MP2 Energy Time:  CPU 2495.25 s  wall 41.03 s
 
 --------------------------------------------------------------
 
                    Orbital Energies (a.u.)
 --------------------------------------------------------------
 
 Alpha MOs
 -- Occupied --
-91.9907 -20.5523 -20.5452 -20.5423 -20.5413 -15.6279 -15.6218 -11.3950
-11.3859 -11.3842 -11.3799 -11.3097 -11.3092 -11.3061 -11.3053 -11.2973
-11.2973 -11.2918 -11.2778 -11.2703 -11.2688 -11.2668 -11.2637 -11.2596
-11.2534 -11.2484 -11.2440  -8.9907  -6.6716  -6.6711  -6.6704  -1.4210
 -1.4128  -1.3984  -1.3919  -1.2632  -1.2560  -1.2315  -1.1876  -1.1513
 -1.1150  -1.0876  -1.0481  -0.9959  -0.9884  -0.9821  -0.9557  -0.9500
 -0.8976  -0.8896  -0.8777  -0.8610  -0.7947  -0.7786  -0.7717  -0.7623
 -0.7414  -0.7157  -0.7024  -0.6907  -0.6784  -0.6743  -0.6679  -0.6578
 -0.6482  -0.6459  -0.6389  -0.6319  -0.6314  -0.6281  -0.6231  -0.6057
 -0.5895  -0.5730  -0.5645  -0.5598  -0.5579  -0.5523  -0.5504  -0.5485
 -0.5481  -0.5434  -0.5177  -0.5169  -0.5117  -0.4858  -0.4756  -0.4646
 -0.4582  -0.4516  -0.4434  -0.4356  -0.4142  -0.4081  -0.3553  -0.3517
 -0.3308  -0.2810
 -- Virtual --
  0.0127   0.0404   0.0888   0.0981   0.1412   0.1501   0.1542   0.1610
  0.1642   0.1716   0.1791   0.1820   0.1894   0.1972   0.2027   0.2063
  0.2101   0.2190   0.2249   0.2285   0.2318   0.2337   0.2453   0.2503
  0.2650   0.2700   0.2988   0.3031   0.3183   0.3216   0.3263   0.3303
  0.3339   0.3409   0.3441   0.3508   0.3546   0.3590   0.3636   0.3697
  0.3717   0.3829   0.3855   0.3867   0.3941   0.3963   0.4048   0.4095
  0.4207   0.4229   0.4282   0.4346   0.4418   0.4422   0.4462   0.4517
  0.4567   0.4626   0.4652   0.4667   0.4769   0.4839   0.4886   0.4908
  0.4976   0.5005   0.5064   0.5130   0.5161   0.5205   0.5223   0.5297
  0.5339   0.5393   0.5420   0.5465   0.5509   0.5570   0.5615   0.5668
  0.5735   0.5778   0.5803   0.5833   0.5886   0.5937   0.5945   0.5979
  0.6034   0.6059   0.6073   0.6090   0.6132   0.6165   0.6207   0.6268
  0.6305   0.6350   0.6375   0.6389   0.6414   0.6470   0.6526   0.6599
  0.6633   0.6693   0.6750   0.6789   0.6861   0.6955   0.6963   0.6986
  0.7090   0.7136   0.7201   0.7350   0.7388   0.7415   0.7580   0.7617
  0.7667   0.7689   0.7756   0.7792   0.7848   0.7885   0.7987   0.8029
  0.8067   0.8124   0.8174   0.8286   0.8343   0.8387   0.8440   0.8450
  0.8493   0.8509   0.8608   0.8653   0.8699   0.8704   0.8826   0.8851
  0.8923   0.8949   0.9014   0.9104   0.9169   0.9213   0.9278   0.9332
  0.9376   0.9472   0.9484   0.9566   0.9603   0.9637   0.9688   0.9744
  0.9850   0.9888   0.9958   0.9997   1.0048   1.0066   1.0119   1.0186
  1.0214   1.0353   1.0401   1.0449   1.0510   1.0543   1.0575   1.0640
  1.0649   1.0718   1.0742   1.0781   1.0797   1.0924   1.0955   1.1033
  1.1083   1.1155   1.1212   1.1250   1.1324   1.1340   1.1362   1.1465
  1.1509   1.1532   1.1625   1.1633   1.1678   1.1759   1.1841   1.1879
  1.1887   1.2026   1.2039   1.2059   1.2169   1.2191   1.2255   1.2263
  1.2320   1.2362   1.2387   1.2421   1.2456   1.2567   1.2629   1.2725
  1.2822   1.2919   1.2926   1.3061   1.3164   1.3177   1.3278   1.3370
  1.3452   1.3528   1.3576   1.3688   1.3720   1.3781   1.3830   1.3847
  1.3894   1.3927   1.3975   1.4049   1.4134   1.4160   1.4218   1.4431
  1.4459   1.4485   1.4617   1.4683   1.4778   1.4823   1.4861   1.4910
  1.4984   1.5030   1.5040   1.5158   1.5220   1.5285   1.5332   1.5424
  1.5457   1.5519   1.5561   1.5589   1.5635   1.5679   1.5701   1.5794
  1.5861   1.5921   1.6027   1.6086   1.6198   1.6328   1.6388   1.6424
  1.6464   1.6570   1.6577   1.6783   1.6817   1.6925   1.6932   1.6968
  1.7116   1.7192   1.7254   1.7301   1.7434   1.7558   1.7592   1.7609
  1.7646   1.7684   1.7764   1.7820   1.7903   1.8009   1.8108   1.8132
  1.8227   1.8301   1.8421   1.8457   1.8580   1.8639   1.8671   1.8696
  1.8763   1.8815   1.8888   1.8995   1.9058   1.9209   1.9358   1.9429
  1.9583   1.9627   1.9679   1.9781   1.9874   2.0042   2.0100   2.0180
  2.0269   2.0433   2.0560   2.0648   2.0762   2.0938   2.1046   2.1232
  2.1356   2.1393   2.1614   2.1700   2.1819   2.1927   2.2140   2.2190
  2.2363   2.2439   2.2529   2.2739   2.2835   2.2925   2.2995   2.3132
  2.3204   2.3278   2.3339   2.3528   2.3585   2.3673   2.3771   2.3830
  2.3972   2.4164   2.4226   2.4337   2.4432   2.4532   2.4594   2.4708
  2.4817   2.4896   2.4952   2.5021   2.5134   2.5289   2.5330   2.5529
  2.5584   2.5675   2.5804   2.5841   2.5904   2.6020   2.6083   2.6148
  2.6253   2.6316   2.6372   2.6444   2.6588   2.6643   2.6649   2.6743
  2.6861   2.6907   2.6980   2.7026   2.7174   2.7239   2.7301   2.7357
  2.7470   2.7522   2.7569   2.7607   2.7712   2.7798   2.7817   2.7878
  2.8139   2.8282   2.8370   2.8398   2.8534   2.8569   2.8616   2.8670
  2.8754   2.8776   2.8837   2.8905   2.8949   2.9015   2.9042   2.9199
  2.9225   2.9284   2.9348   2.9372   2.9554   2.9590   2.9667   2.9716
  2.9725   2.9847   2.9931   2.9950   3.0056   3.0092   3.0189   3.0292
  3.0326   3.0361   3.0457   3.0525   3.0565   3.0647   3.0765   3.0842
  3.0885   3.0935   3.1017   3.1036   3.1060   3.1092   3.1182   3.1209
  3.1367   3.1378   3.1412   3.1532   3.1610   3.1643   3.1651   3.1765
  3.1794   3.1901   3.1949   3.2028   3.2065   3.2105   3.2172   3.2214
  3.2301   3.2362   3.2438   3.2504   3.2545   3.2568   3.2630   3.2655
  3.2672   3.2738   3.2831   3.2864   3.2925   3.3003   3.3052   3.3085
  3.3109   3.3139   3.3155   3.3250   3.3260   3.3300   3.3345   3.3387
  3.3445   3.3507   3.3528   3.3570   3.3640   3.3679   3.3696   3.3733
  3.3788   3.3839   3.3923   3.3934   3.3971   3.4029   3.4052   3.4092
  3.4183   3.4266   3.4269   3.4304   3.4391   3.4395   3.4425   3.4489
  3.4533   3.4569   3.4672   3.4697   3.4777   3.4790   3.4861   3.4908
  3.4933   3.4996   3.5053   3.5100   3.5157   3.5193   3.5256   3.5289
  3.5326   3.5343   3.5393   3.5455   3.5548   3.5640   3.5709   3.5771
  3.5825   3.5865   3.5932   3.6020   3.6066   3.6154   3.6227   3.6244
  3.6329   3.6364   3.6379   3.6428   3.6477   3.6520   3.6539   3.6634
  3.6679   3.6796   3.6815   3.6871   3.6894   3.6976   3.7034   3.7099
  3.7208   3.7225   3.7246   3.7353   3.7406   3.7453   3.7493   3.7574
  3.7615   3.7650   3.7652   3.7736   3.7868   3.7883   3.7975   3.8015
  3.8075   3.8142   3.8177   3.8259   3.8350   3.8371   3.8430   3.8458
  3.8531   3.8582   3.8628   3.8732   3.8789   3.8869   3.8915   3.9000
  3.9160   3.9182   3.9231   3.9258   3.9280   3.9494   3.9524   3.9531
  3.9586   3.9684   3.9693   3.9814   3.9833   3.9915   4.0119   4.0167
  4.0228   4.0312   4.0354   4.0464   4.0504   4.0559   4.0669   4.0749
  4.0859   4.1027   4.1116   4.1247   4.1255   4.1339   4.1404   4.1462
  4.1485   4.1555   4.1610   4.1673   4.1706   4.1777   4.1916   4.2017
  4.2164   4.2208   4.2304   4.2380   4.2395   4.2460   4.2517   4.2619
  4.2700   4.2760   4.2807   4.2895   4.2933   4.2987   4.3027   4.3083
  4.3151   4.3208   4.3256   4.3319   4.3377   4.3425   4.3462   4.3539
  4.3624   4.3652   4.3701   4.3717   4.3773   4.3787   4.3945   4.4005
  4.4012   4.4066   4.4100   4.4195   4.4322   4.4401   4.4453   4.4570
  4.4748   4.4774   4.4912   4.4950   4.5087   4.5110   4.5219   4.5304
  4.5348   4.5419   4.5521   4.5553   4.5655   4.5749   4.5797   4.5868
  4.5951   4.5997   4.6061   4.6168   4.6203   4.6301   4.6336   4.6408
  4.6518   4.6628   4.6782   4.6842   4.6904   4.6977   4.7044   4.7081
  4.7135   4.7357   4.7426   4.7463   4.7743   4.7829   4.7963   4.8010
  4.8138   4.8209   4.8344   4.8452   4.8503   4.8642   4.8698   4.8796
  4.8823   4.8907   4.9072   4.9157   4.9292   4.9541   4.9615   4.9715
  4.9814   5.0045   5.0069   5.0223   5.0320   5.0404   5.0471   5.0533
  5.0737   5.1009   5.1082   5.1179   5.1259   5.1277   5.1343   5.1435
  5.1586   5.1697   5.1760   5.1805   5.1970   5.2113   5.2199   5.2371
  5.2628   5.2648   5.2807   5.2865   5.3065   5.3134   5.3237   5.3270
  5.3306   5.3363   5.3533   5.3749   5.3776   5.3840   5.4027   5.4160
  5.4373   5.4448   5.4748   5.4897   5.5034   5.5095   5.5129   5.5151
  5.5176   5.5367   5.5413   5.5540   5.5588   5.5619   5.5643   5.5673
  5.5790   5.5854   5.5910   5.6014   5.6077   5.6144   5.6221   5.6350
  5.6461   5.6519   5.6598   5.6617   5.6661   5.6721   5.6859   5.6936
  5.6985   5.7081   5.7209   5.7421   5.7513   5.7631   5.7712   5.7759
  5.7837   5.7888   5.8027   5.8311   5.8428   5.8536   5.9020   5.9163
  5.9288   5.9568   5.9627   5.9864   6.0085   6.0305   6.0408   6.0462
  6.0800   6.0896   6.1008   6.1132   6.1233   6.1435   6.1569   6.1889
  6.2057   6.2204   6.2254   6.2286   6.2418   6.2641   6.2799   6.2832
  6.3095   6.3143   6.3234   6.3502   6.3680   6.3943   6.4527   6.4865
  6.5211   6.5305   6.5746   6.5823   6.6030   6.6197   6.6583   6.6645
  6.6740   6.7415   6.8492   6.8509   6.8895   6.9018   6.9057   6.9267
  6.9272   6.9712   7.1020   7.1097   7.1496   7.1944   7.2008   7.2369
  7.3468   7.3514   7.3568   7.3610   7.4767   7.5444   7.5705   7.5827
  7.5919   7.6079   7.6540   7.6895   7.6943   7.7204   8.9200  10.0812
 10.3917  11.2729  11.5521  11.7596  12.0923  12.1298  12.4289  12.4698
 12.9673  13.2682  13.3493  13.5736  13.7889  13.9285  14.1460  14.3010
 14.3201  14.3688  14.5524  14.6810  15.0510  15.6233  15.8365  16.3428
 --------------------------------------------------------------
 
          Ground-State Mulliken Net Atomic Charges

     Atom                 Charge (a.u.)
  ----------------------------------------
      1 C                    -0.084604
      2 C                    -0.029771
      3 C                    -0.108092
      4 C                    -0.126924
      5 H                     0.199289
      6 C                     0.022500
      7 C                     0.118896
      8 C                    -0.060610
      9 C                    -0.167499
     10 C                    -0.186245
     11 C                     0.246478
     12 H                     0.184234
     13 C                     0.342697
     14 C                     0.350501
     15 N                    -0.090243
     16 C                     0.357918
     17 C                     0.362970
     18 N                    -0.088461
     19 O                    -0.493461
     20 O                    -0.506172
     21 O                    -0.501159
     22 O                    -0.475813
     23 C                    -0.204623
     24 H                     0.139501
     25 H                     0.109503
     26 H                     0.109375
     27 C                    -0.197643
     28 H                     0.133883
     29 H                     0.111665
     30 H                     0.111475
     31 C                    -0.082253
     32 S                    -0.000175
     33 C                    -0.222600
     34 C                    -0.139582
     35 C                    -0.218209
     36 H                     0.194271
     37 H                     0.189454
     38 H                     0.213100
     39 H                     0.137977
     40 H                     0.138337
     41 H                     0.210111
  ----------------------------------------
  Sum of atomic charges =     0.000000

 -----------------------------------------------------------------
                    Cartesian Multipole Moments
 -----------------------------------------------------------------
    Charge (ESU x 10^10)
                 0.0000
    Dipole Moment (Debye)
         X       1.2445      Y       1.7546      Z      -1.5322
       Tot       2.6411
    Quadrupole Moments (Debye-Ang)
        XX    -170.6954     XY      -5.4201     YY    -176.3805
        XZ      14.1248     YZ       7.3261     ZZ    -181.0746
    Octopole Moments (Debye-Ang^2)
       XXX     -24.0246    XXY     488.8869    XYY      24.0732
       YYY    1676.5811    XXZ      -3.0931    XYZ     -59.1470
       YYZ     -47.8087    XZZ      -8.8086    YZZ     572.9758
       ZZZ     -14.1355
    Hexadecapole Moments (Debye-Ang^3)
      XXXX   -1657.9266   XXXY    -148.4219   XXYY   -3109.1047
      XYYY    -590.2902   YYYY  -17997.2790   XXXZ    1288.2216
      XXYZ      16.9773   XYYZ     799.2976   YYYZ     980.6701
      XXZZ   -1153.8744   XYZZ      63.5150   YYZZ   -4031.7851
      XZZZ    1380.6731   YZZZ      64.2161   ZZZZ   -5010.1466
 -----------------------------------------------------------------
 Total job time:  303.90s(wall), 9234.85s(cpu) 
 Sun Sep 24 15:14:45 2023

        *************************************************************
        *                                                           *
        *  Thank you very much for using Q-Chem.  Have a nice day.  *
        *                                                           *
        *************************************************************


0 sent ACK to 0 
now end server 0 ... 
cleanup process ... done
remove work dirs ./qchem3016118.0 -- ./qchem3016118.0
rm -rf ./qchem3016118.0
rm -rf ./qchem3016118
