You are running Q-Chem version: 5.4.0

#
# job setting
#
local host:  exp-3-02
current dir: /expanse/lustre/projects/csd626/rramji/aromodel/PNDIT/Hydrogenated_Rotation_Test
input file:  Dimethyl_Naphthalene_Dicarboximide_Phi_40_Theta_130_Thiophene_Hydrogenated.qcin
output file: 
nprocs     : 1
nthreads   : 64
#
# qchem installation setting
#
QC:          /cm/shared/apps/spack/cpu/opt/spack/linux-centos8-zen2/gcc-10.2.0/qchem-5.4-akfmr7b3t57bfs6qan3padb2wnb2i7cl
QCAUX:       /cm/shared/apps/spack/cpu/opt/spack/linux-centos8-zen2/gcc-10.2.0/qchem-5.4-akfmr7b3t57bfs6qan3padb2wnb2i7cl/qcaux
QCPROG:      /cm/shared/apps/spack/cpu/opt/spack/linux-centos8-zen2/gcc-10.2.0/qchem-5.4-akfmr7b3t57bfs6qan3padb2wnb2i7cl/exe/qcprog.exe
QCPROG_S:    /cm/shared/apps/spack/cpu/opt/spack/linux-centos8-zen2/gcc-10.2.0/qchem-5.4-akfmr7b3t57bfs6qan3padb2wnb2i7cl/exe/qcprog.exe_s
PARALLEL:    -DPARALLEL
QCMPI:       mpich
#
# qchem directory setting
#
qcrun:       qchem1054834
QCSCRATCH:   .
QCLOCALSCR:  
QCTMPDIR:    .
QCFILEPREF:  ./qchem1054834
QCSAVEDIR:   
workdirs:    ./qchem1054834
workdir0:    ./qchem1054834
partmpdirs =  
#
# parallel setting
#
QCRSH:           ssh
QCMPI:           mpich
QCMPIRUN:        /cm/shared/apps/spack/cpu/opt/spack/linux-centos8-zen2/gcc-10.2.0/qchem-5.4-akfmr7b3t57bfs6qan3padb2wnb2i7cl/bin/mpi/mpirun_qchem
QCMACHINEFILE:   ./qchem1054834/hostfile
exp-3-02

#
# env setting
#
exported envs:   QC QCAUX QCSCRATCH QCRUNNAME QCFILEPREF QCPROG QCPROG_S GUIFILE

Running Job 1 of 1 Dimethyl_Naphthalene_Dicarboximide_Phi_40_Theta_130_Thiophene_Hydrogenated.qcin
qchem Dimethyl_Naphthalene_Dicarboximide_Phi_40_Theta_130_Thiophene_Hydrogenated.qcin_1054834.0 ./qchem1054834/ 1
/cm/shared/apps/spack/cpu/opt/spack/linux-centos8-zen2/gcc-10.2.0/qchem-5.4-akfmr7b3t57bfs6qan3padb2wnb2i7cl/bin/mpi/mpirun_qchem -machinefile ./qchem1054834/hostfile -np 1 /cm/shared/apps/spack/cpu/opt/spack/linux-centos8-zen2/gcc-10.2.0/qchem-5.4-akfmr7b3t57bfs6qan3padb2wnb2i7cl/exe/qcprog.exe Dimethyl_Naphthalene_Dicarboximide_Phi_40_Theta_130_Thiophene_Hydrogenated.qcin_1054834.0 ./qchem1054834/

Process 0 of 1 is on exp-3-02 - thread support 0
initial socket setup ...start
initial socket setup ...done 
now start server 0 ... 
                  Welcome to Q-Chem
     A Quantum Leap Into The Future Of Chemistry


 Q-Chem 5.4, Q-Chem, Inc., Pleasanton, CA (2021)

 License issued to: University of California, San Diego (site)

 E. Epifanovsky,  A. T. B. Gilbert,  Xintian Feng,  Joonho Lee,  Yuezhi Mao,  
 N. Mardirossian,  P. Pokhilko,  A. White,  M. Wormit,  M. P. Coons,  
 A. L. Dempwolff,  Zhengting Gan,  D. Hait,  P. R. Horn,  L. D. Jacobson,  
 I. Kaliman,  J. Kussmann,  A. W. Lange,  Ka Un Lao,  D. S. Levine,  Jie Liu,  
 S. C. McKenzie,  A. F. Morrison,  K. Nanda,  F. Plasser,  D. R. Rehn,  
 M. L. Vidal,  Zhi-Qiang You,  Ying Zhu,  B. Alam,  B. Albrecht,  
 A. Aldossary,  E. Alguire,  J. H. Andersen,  D. Barton,  K. Begam,  A. Behn,  
 Y. A. Bernard,  E. J. Berquist,  H. Burton,  A. Carreras,  K. Carter-Fenk,  
 R. Chakraborty,  A. D. Chien,  K. D. Closser,  V. Cofer-Shabica,  
 S. Dasgupta,  Jia Deng,  M. de Wergifosse,  M. Diedenhofen,  Hainam Do,  
 S. Ehlert,  Po-Tung Fang,  S. Fatehi,  Qingguo Feng,  J. Gayvert,  
 Qinghui Ge,  G. Gidofalvi,  M. Goldey,  J. Gomes,  C. Gonzalez-Espinoza,  
 S. Gulania,  A. Gunina,  M. W. D. Hanson-Heine,  P. H. P. Harbach,  
 A. W. Hauser,  M. F. Herbst,  M. Hernandez Vera,  M. Hodecker,  
 Z. C. Holden,  S. Houck,  Xunkun Huang,  Kerwin Hui,  B. C. Huynh,  
 M. Ivanov,  Hyunjun Ji,  Hanjie Jiang,  B. Kaduk,  S. Kaehler,  
 K. Khistyaev,  Jaehoon Kim,  P. Klunzinger,  Z. Koczor-Benda,  
 Joong Hoon Koh,  D. Kosenkov,  L. Koulias,  T. Kowalczyk,  C. M. Krauter,  
 K. Kue,  A. Kunitsa,  T. Kus,  A. Landau,  K. V. Lawler,  D. Lefrancois,  
 S. Lehtola,  Rain Li,  Yi-Pei Li,  Jiashu Liang,  M. Liebenthal,  
 Hung-Hsuan Lin,  You-Sheng Lin,  Fenglai Liu,  Kuan-Yu Liu,  
 M. Loipersberger,  A. Luenser,  A. Manjanath,  P. Manohar,  E. Mansoor,  
 S. F. Manzer,  Shan-Ping Mao,  A. V. Marenich,  T. Markovich,  S. Mason,  
 S. A. Maurer,  P. F. McLaughlin,  M. F. S. J. Menger,  J.-M. Mewes,  
 S. A. Mewes,  P. Morgante,  J. W. Mullinax,  T. S. Nguyen-Beck,  
 K. J. Oosterbaan,  G. Paran,  Alexander C. Paul,  Suranjan K. Paul,  
 F. Pavosevic,  Zheng Pei,  S. Prager,  E. I. Proynov,  E. Ramos,  B. Rana,  
 A. E. Rask,  A. Rettig,  R. M. Richard,  F. Rob,  E. Rossomme,  T. Scheele,  
 M. Scheurer,  M. Schneider,  N. Sergueev,  S. M. Sharada,  W. Skomorowski,  
 D. W. Small,  C. J. Stein,  Yu-Chuan Su,  E. J. Sundstrom,  Zhen Tao,  
 J. Thirman,  T. Tsuchimochi,  N. M. Tubman,  S. P. Veccham,  O. Vydrov,  
 J. Wenzel,  J. Witte,  A. Yamada,  Kun Yao,  S. Yeganeh,  S. R. Yost,  
 A. Zech,  Igor Ying Zhang,  Xing Zhang,  Yu Zhang,  D. Zuev,  
 A. Aspuru-Guzik,  A. T. Bell,  N. A. Besley,  K. B. Bravaya,  B. R. Brooks,  
 D. Casanova,  Jeng-Da Chai,  S. Coriani,  C. J. Cramer,  
 A. E. DePrince, III,  R. A. DiStasio Jr.,  A. Dreuw,  B. D. Dunietz,  
 T. R. Furlani,  W. A. Goddard III,  S. Grimme,  S. Hammes-Schiffer,  
 T. Head-Gordon,  W. J. Hehre,  Chao-Ping Hsu,  T.-C. Jagau,  Yousung Jung,  
 A. Klamt,  Jing Kong,  D. S. Lambrecht,  WanZhen Liang,  N. J. Mayhall,  
 C. W. McCurdy,  J. B. Neaton,  C. Ochsenfeld,  J. A. Parkhill,  R. Peverati,  
 V. A. Rassolov,  Yihan Shao,  L. V. Slipchenko,  T. Stauch,  R. P. Steele,  
 J. E. Subotnik,  A. J. W. Thom,  A. Tkatchenko,  D. G. Truhlar,  
 T. Van Voorhis,  T. A. Wesolowski,  K. B. Whaley,  H. L. Woodcock III,  
 P. M. Zimmerman,  S. Faraji,  P. M. W. Gill,  M. Head-Gordon,  
 J. M. Herbert,  A. I. Krylov

 Contributors to earlier versions of Q-Chem not listed above: 
 R. D. Adamson,  B. Austin,  R. Baer,  J. Baker,  G. J. O. Beran,  
 K. Brandhorst,  S. T. Brown,  E. F. C. Byrd,  A. K. Chakraborty,  
 G. K. L. Chan,  Chun-Min Chang,  Yunqing Chen,  C.-L. Cheng,  
 Siu Hung Chien,  D. M. Chipman,  D. L. Crittenden,  H. Dachsel,  
 R. J. Doerksen,  A. D. Dutoi,  R. G. Edgar,  J. Fosso-Tande,  
 L. Fusti-Molnar,  D. Ghosh,  A. Ghysels,  A. Golubeva-Zadorozhnaya,  
 J. Gonthier,  M. S. Gordon,  S. R. Gwaltney,  G. Hawkins,  J. E. Herr,  
 A. Heyden,  S. Hirata,  E. G. Hohenstein,  G. Kedziora,  F. J. Keil,  
 C. Kelley,  Jihan Kim,  R. A. King,  R. Z. Khaliullin,  P. P. Korambath,  
 W. Kurlancheek,  A. Laurent,  A. M. Lee,  M. S. Lee,  S. V. Levchenko,  
 Ching Yeh Lin,  D. Liotard,  E. Livshits,  R. C. Lochan,  I. Lotan,  
 L. A. Martinez-Martinez,  P. E. Maslen,  N. Nair,  D. P. O'Neill,  
 D. Neuhauser,  E. Neuscamman,  C. M. Oana,  R. Olivares-Amaya,  R. Olson,  
 T. M. Perrine,  B. Peters,  P. A. Pieniazek,  A. Prociuk,  Y. M. Rhee,  
 J. Ritchie,  M. A. Rohrdanz,  E. Rosta,  N. J. Russ,  H. F. Schaefer III,  
 M. W. Schmidt,  N. E. Schultz,  S. Sharma,  N. Shenvi,  C. D. Sherrill,  
 A. C. Simmonett,  A. Sodt,  T. Stein,  D. Stuck,  K. S. Thanthiriwatte,  
 V. Vanovschi,  L. Vogt,  Tao Wang,  A. Warshel,  M. A. Watson,  
 C. F. Williams,  Q. Wu,  X. Xu,  Jun Yang,  W. Zhang,  Yan Zhao

 Please cite Q-Chem as follows:
 Y. Shao et al., Mol. Phys. 113, 184-215 (2015)
 DOI: 10.1080/00268976.2014.952696

 Q-Chem 5.4.0 for Intel X86 EM64T Linux

 Parts of Q-Chem use Armadillo 9.800.1 (Horizon Scraper).
 http://arma.sourceforge.net/

 Q-Chem begins on Sun Sep 24 16:07:24 2023  

 Host: 
0

     Scratch files written to ./qchem1054834//
 May1621 |scratch|qcdevops|jenkins|workspace|build_RNUM    
 Parallel job on  1  processors
 Processing $rem in /cm/shared/apps/spack/cpu/opt/spack/linux-centos8-zen2/gcc-10.2.0/qchem-5.4-akfmr7b3t57bfs6qan3padb2wnb2i7cl/config/preferences:
 Processing $rem in /home/rramji/.qchemrc:
 Symmetry turned off for PCM/SM12/SMD calculation
 Core orbitals will be frozen

 Checking the input file for inconsistencies... 	...done.

 Q-Chem warning in module forms1/BasisType.C, line 2236:

 You are not using the predefined 5D/6D in this basis set.


--------------------------------------------------------------
User input:
--------------------------------------------------------------
$molecule
0 1
C	0.197767	-6.741404	0.164018
C	1.198109	-6.155638	1.003240
C	-0.632428	-5.791452	-0.533192
C	1.411364	-4.803786	1.182482
H	1.870845	-6.821518	1.567483
C	-0.409419	-4.378638	-0.345145
C	0.609565	-3.838032	0.510347
C	-1.210332	-3.413062	-1.016449
C	0.830799	-2.426473	0.696879
C	-0.999856	-2.059348	-0.839039
C	0.000000	-1.478216	0.000000
H	-1.673483	-1.394783	-1.403737
C	-1.736282	-6.187987	-1.461835
C	-2.306183	-3.798164	-1.936119
N	-2.491597	-5.170003	-2.093916
C	2.510310	-4.424987	2.104529
C	1.936153	-2.036627	1.625377
N	2.691451	-3.049156	2.257873
O	-2.034222	-7.353131	-1.715561
O	-3.014044	-2.986854	-2.528858
O	3.209622	-5.248946	2.690385
O	2.251529	-0.878829	1.891876
C	-3.573032	-5.563799	-3.002711
H	-3.606932	-6.664085	-3.032655
H	-3.382888	-5.147101	-4.010326
H	-4.533125	-5.148785	-2.640711
C	3.756832	-2.587487	3.152408
H	4.249778	-3.483329	3.564653
H	3.328759	-1.964972	3.960905
H	4.477709	-1.962932	2.591422
C	0.000000	0.000000	0.000000
S	0.509686	0.607733	1.580530
C	1.562368	1.862312	0.904911
C	0.641367	0.764613	-0.985400
C	1.489926	1.776040	-0.493528
H	0.489914	0.584081	-2.059934
H	2.056124	2.450920	-1.152593
H	2.128395	2.537007	1.556025
H	-0.461623	-7.361589	0.783314
H	0.693983	-7.361192	-0.592677
H	-0.694617	-1.478831	0.826987
$end

$rem
JOBTYPE		SP
EXCHANGE	HF
CORRELATION	pRIMP2
BASIS		cc-pvtz
METHOD		rimp2
AUX_BASIS	rimp2-cc-pvtz
SOLVENT_METHOD	PCM
PURECART	11111
SYMMETRY	false
MEM_TOTAL	110000
SCF_CONVERGENCE = 6
THRESH=10
GUI = 2
$end



$solvent
dielectric 4.90
$end
--------------------------------------------------------------
 ----------------------------------------------------------------
             Standard Nuclear Orientation (Angstroms)
    I     Atom           X                Y                Z
 ----------------------------------------------------------------
    1      C       0.1977670000    -6.7414040000     0.1640180000
    2      C       1.1981090000    -6.1556380000     1.0032400000
    3      C      -0.6324280000    -5.7914520000    -0.5331920000
    4      C       1.4113640000    -4.8037860000     1.1824820000
    5      H       1.8708450000    -6.8215180000     1.5674830000
    6      C      -0.4094190000    -4.3786380000    -0.3451450000
    7      C       0.6095650000    -3.8380320000     0.5103470000
    8      C      -1.2103320000    -3.4130620000    -1.0164490000
    9      C       0.8307990000    -2.4264730000     0.6968790000
   10      C      -0.9998560000    -2.0593480000    -0.8390390000
   11      C       0.0000000000    -1.4782160000     0.0000000000
   12      H      -1.6734830000    -1.3947830000    -1.4037370000
   13      C      -1.7362820000    -6.1879870000    -1.4618350000
   14      C      -2.3061830000    -3.7981640000    -1.9361190000
   15      N      -2.4915970000    -5.1700030000    -2.0939160000
   16      C       2.5103100000    -4.4249870000     2.1045290000
   17      C       1.9361530000    -2.0366270000     1.6253770000
   18      N       2.6914510000    -3.0491560000     2.2578730000
   19      O      -2.0342220000    -7.3531310000    -1.7155610000
   20      O      -3.0140440000    -2.9868540000    -2.5288580000
   21      O       3.2096220000    -5.2489460000     2.6903850000
   22      O       2.2515290000    -0.8788290000     1.8918760000
   23      C      -3.5730320000    -5.5637990000    -3.0027110000
   24      H      -3.6069320000    -6.6640850000    -3.0326550000
   25      H      -3.3828880000    -5.1471010000    -4.0103260000
   26      H      -4.5331250000    -5.1487850000    -2.6407110000
   27      C       3.7568320000    -2.5874870000     3.1524080000
   28      H       4.2497780000    -3.4833290000     3.5646530000
   29      H       3.3287590000    -1.9649720000     3.9609050000
   30      H       4.4777090000    -1.9629320000     2.5914220000
   31      C       0.0000000000     0.0000000000     0.0000000000
   32      S       0.5096860000     0.6077330000     1.5805300000
   33      C       1.5623680000     1.8623120000     0.9049110000
   34      C       0.6413670000     0.7646130000    -0.9854000000
   35      C       1.4899260000     1.7760400000    -0.4935280000
   36      H       0.4899140000     0.5840810000    -2.0599340000
   37      H       2.0561240000     2.4509200000    -1.1525930000
   38      H       2.1283950000     2.5370070000     1.5560250000
   39      H      -0.4616230000    -7.3615890000     0.7833140000
   40      H       0.6939830000    -7.3611920000    -0.5926770000
   41      H      -0.6946170000    -1.4788310000     0.8269870000
 ----------------------------------------------------------------
 Nuclear Repulsion Energy =        2588.35368321 hartrees
 There are       98 alpha and       98 beta electrons
 Requested basis set is cc-pVTZ
 There are 356 shells and 1010 basis functions

 Total QAlloc Memory Limit 110000 MB
 Mega-Array Size       188 MB
 MEM_STATIC part       192 MB
 Discretize the solute cavity surface with Lebedev spheres
	Using 110 Lebedev grid points for each H atom
	Using 194 Lebedev grid points for other atoms
	Atomic van der Waals radii will be scaled by 1.20
 Remove points where switching function is < 1.0e-08
 Keep 2553 surface tesserae and discard 4225 interior tesserae
 Molecular Surface Area = 361.456 Angst**2
 Requested basis set is rimp2-cc-pVTZ
 There are 770 shells and 2648 basis functions
 A cutoff of  1.0D-10 yielded  34737 shell pairs
 There are    262497 function pairs (    339718 Cartesian)
 Smallest overlap matrix eigenvalue = 8.95E-06

 Q-Chem warning in module stvman/mkSTV.C, line 323:

 Overlap eigenvalue is smaller than square root of threshold
 Use THRESH >= 12 to get rid of this warning


 Scale SEOQF with 1.000000e-01/1.000000e-02/1.000000e-01

 Standard Electronic Orientation quadrupole field applied
 Nucleus-field energy     =    -0.0000000118 hartrees
 Guess from superposition of atomic densities
 Warning:  Energy on first SCF cycle will be non-variational
 SAD guess density has 196.000000 electrons

 -----------------------------------------------------------------------
  General SCF calculation program by
  Eric Jon Sundstrom, Paul Horn, Yuezhi Mao, Dmitri Zuev, Alec White,
  David Stuck, Shaama M.S., Shane Yost, Joonho Lee, David Small,
  Daniel Levine, Susi Lehtola, Hugh Burton, Evgeny Epifanovsky,
  Bang C. Huynh
 -----------------------------------------------------------------------
 Hartree-Fock
 using 64 threads for integral computing
 -------------------------------------------------------
 OpenMP Integral computing Module                
 Release: version 1.0, May 2013, Q-Chem Inc. Pittsburgh 
 -------------------------------------------------------
 A restricted SCF calculation will be
 performed using DIIS
 SCF converges when DIIS error is below 1.0e-06
 ---------------------------------------
  Cycle       Energy         DIIS error
 ---------------------------------------
    1   -1583.2411730417      1.87e-02  
    2   -1571.1017167107      2.02e-03  
    3   -1571.4371247411      1.54e-03  
    4   -1571.6561199067      2.56e-04  
    5   -1571.6700871975      8.01e-05  
    6   -1571.6715645190      3.12e-05  
    7   -1571.6720190375      1.62e-05  
    8   -1571.6721536302      6.97e-06  
    9   -1571.6721802191      3.26e-06  
   10   -1571.6721862432      1.44e-06  
   11   -1571.6721879885      6.46e-07  Convergence criterion met
 ---------------------------------------
 SCF time:   CPU 7125.82s  wall 283.00s 

************** Final PCM Free Energy Summary **************
 G_electrostatic  =      -0.02834117 hartree =     -17.78435327 kcal/mol
 G_cavitation     =       0.00000000 hartree =       0.00000000 kcal/mol
 G_dispersion     =       0.00000000 hartree =       0.00000000 kcal/mol
 G_repulsion      =       0.00000000 hartree =       0.00000000 kcal/mol
 --------------------------------------------------
 Non-electrostatic Free Energy =       0.00000000 hartree =       0.00000000 kcal/mol
 Total                         =      -0.02834117 hartree =     -17.78435327 kcal/mol
 --------------------------------------------------
 SCF Energy (H0 + V/2)                       =   -1571.67218799 
 Solute Internal Energy (H0)                 =   -1571.64384682 
 Total Free Energy (H0 + V/2 + non-elec)     =   -1571.67218799 hartree
                                             = -986239.18327005 kcal/mol
***********************************************************

 SCF   energy in the final basis set =    -1571.6721879885
 Total energy in the final basis set =    -1571.6721879885


 --------------------------------------------------------------
  Generalized many-body perturbation theory program
  by Joonho Lee, Fazle Rob, Xintian Feng, Evgeny Epifanovsky

 No regularization used 
 (reg. param. = 0.0000e+00)
  (P|Q)^-1/2 Time:  CPU 145.72 s  wall 2.75 s

 In RI-MP2 calculation: 
 # of frozen core orbitals: 31

 Components of the RIMP2 correlation energy:
        aaaa    correlation energy =        -0.6200335950 a.u.
        abab    correlation energy =        -3.4373559036 a.u.
        bbbb    correlation energy =        -0.6200335950 a.u.
        non-Brillouin singles      =        -0.0000000000 a.u.
        total same-spin energy     =        -1.2400671900 a.u.
        total opposite-spin energy =        -3.4373559036 a.u.

 Total  RIMP2   correlation energy =        -4.6774230937 a.u.
        RIMP2         total energy =     -1576.3496110821 a.u.

 RI-MP2 Energy Time:  CPU 2024.78 s  wall 33.32 s
 
 --------------------------------------------------------------
 
                    Orbital Energies (a.u.)
 --------------------------------------------------------------
 
 Alpha MOs
 -- Occupied --
-91.9807 -20.5492 -20.5446 -20.5402 -20.5390 -15.6278 -15.6201 -11.3944
-11.3852 -11.3822 -11.3774 -11.3084 -11.3049 -11.3045 -11.3038 -11.2966
-11.2835 -11.2835 -11.2716 -11.2680 -11.2669 -11.2637 -11.2614 -11.2588
-11.2524 -11.2521 -11.2433  -8.9812  -6.6614  -6.6612  -6.6607  -1.4246
 -1.4109  -1.3998  -1.3901  -1.2639  -1.2544  -1.2282  -1.1846  -1.1487
 -1.1127  -1.0838  -1.0458  -0.9934  -0.9877  -0.9811  -0.9546  -0.9490
 -0.8952  -0.8855  -0.8770  -0.8600  -0.7877  -0.7772  -0.7729  -0.7658
 -0.7316  -0.7200  -0.7019  -0.6901  -0.6808  -0.6684  -0.6672  -0.6570
 -0.6486  -0.6420  -0.6372  -0.6313  -0.6304  -0.6275  -0.6246  -0.6029
 -0.5852  -0.5692  -0.5675  -0.5630  -0.5587  -0.5526  -0.5512  -0.5484
 -0.5471  -0.5432  -0.5151  -0.5121  -0.5069  -0.4820  -0.4695  -0.4593
 -0.4529  -0.4452  -0.4416  -0.4331  -0.4136  -0.4065  -0.3520  -0.3282
 -0.3127  -0.2838
 -- Virtual --
  0.0136   0.0444   0.0777   0.0923   0.1326   0.1496   0.1534   0.1597
  0.1647   0.1732   0.1800   0.1833   0.1847   0.1925   0.1959   0.2039
  0.2100   0.2204   0.2270   0.2279   0.2321   0.2361   0.2369   0.2454
  0.2646   0.2698   0.2928   0.3034   0.3120   0.3176   0.3235   0.3264
  0.3314   0.3391   0.3438   0.3531   0.3550   0.3585   0.3635   0.3647
  0.3726   0.3752   0.3778   0.3883   0.3904   0.3922   0.3991   0.4040
  0.4164   0.4209   0.4292   0.4335   0.4367   0.4417   0.4461   0.4493
  0.4513   0.4553   0.4570   0.4667   0.4791   0.4865   0.4929   0.4964
  0.5005   0.5056   0.5113   0.5141   0.5171   0.5208   0.5225   0.5258
  0.5330   0.5348   0.5458   0.5506   0.5526   0.5573   0.5622   0.5700
  0.5732   0.5770   0.5801   0.5827   0.5876   0.5922   0.5979   0.6026
  0.6062   0.6083   0.6086   0.6115   0.6135   0.6194   0.6217   0.6245
  0.6330   0.6339   0.6356   0.6376   0.6420   0.6439   0.6464   0.6498
  0.6643   0.6690   0.6761   0.6860   0.6898   0.6912   0.6980   0.6997
  0.7117   0.7142   0.7188   0.7359   0.7376   0.7412   0.7467   0.7538
  0.7645   0.7684   0.7732   0.7818   0.7847   0.7881   0.7956   0.8072
  0.8124   0.8169   0.8242   0.8299   0.8374   0.8402   0.8440   0.8478
  0.8548   0.8602   0.8632   0.8648   0.8731   0.8746   0.8844   0.8858
  0.8889   0.8938   0.9050   0.9099   0.9152   0.9252   0.9299   0.9314
  0.9396   0.9443   0.9484   0.9558   0.9659   0.9675   0.9748   0.9797
  0.9806   0.9857   0.9962   0.9993   1.0039   1.0094   1.0244   1.0265
  1.0310   1.0393   1.0419   1.0452   1.0499   1.0561   1.0663   1.0679
  1.0720   1.0737   1.0759   1.0802   1.0917   1.0952   1.1021   1.1136
  1.1152   1.1222   1.1268   1.1305   1.1335   1.1392   1.1435   1.1476
  1.1509   1.1634   1.1643   1.1693   1.1719   1.1763   1.1833   1.1925
  1.1974   1.2005   1.2041   1.2055   1.2119   1.2173   1.2272   1.2298
  1.2348   1.2397   1.2420   1.2490   1.2563   1.2588   1.2752   1.2772
  1.2879   1.2944   1.2993   1.3138   1.3262   1.3330   1.3383   1.3407
  1.3463   1.3555   1.3641   1.3677   1.3725   1.3811   1.3828   1.3845
  1.3921   1.3954   1.4014   1.4091   1.4151   1.4210   1.4316   1.4384
  1.4515   1.4550   1.4674   1.4756   1.4808   1.4912   1.4984   1.4992
  1.5044   1.5094   1.5119   1.5156   1.5224   1.5271   1.5358   1.5399
  1.5453   1.5474   1.5508   1.5551   1.5619   1.5683   1.5707   1.5750
  1.5882   1.5935   1.5958   1.5993   1.6108   1.6330   1.6378   1.6455
  1.6475   1.6636   1.6671   1.6734   1.6815   1.6852   1.6932   1.7061
  1.7079   1.7158   1.7210   1.7302   1.7413   1.7448   1.7502   1.7594
  1.7617   1.7680   1.7790   1.7805   1.7877   1.7936   1.8072   1.8096
  1.8178   1.8215   1.8393   1.8504   1.8526   1.8625   1.8690   1.8749
  1.8769   1.8818   1.8832   1.9048   1.9145   1.9277   1.9375   1.9420
  1.9512   1.9623   1.9740   1.9772   1.9892   2.0035   2.0253   2.0351
  2.0365   2.0525   2.0633   2.0738   2.0945   2.1027   2.1105   2.1200
  2.1332   2.1434   2.1568   2.1833   2.1845   2.1986   2.2046   2.2171
  2.2369   2.2462   2.2626   2.2815   2.2926   2.2945   2.3084   2.3151
  2.3223   2.3334   2.3363   2.3609   2.3652   2.3695   2.3834   2.3971
  2.4133   2.4331   2.4402   2.4446   2.4568   2.4617   2.4667   2.4751
  2.4812   2.5033   2.5082   2.5156   2.5312   2.5469   2.5546   2.5596
  2.5702   2.5752   2.5872   2.5954   2.5972   2.6173   2.6252   2.6297
  2.6349   2.6394   2.6452   2.6527   2.6670   2.6760   2.6830   2.6854
  2.6977   2.7007   2.7115   2.7159   2.7259   2.7270   2.7374   2.7422
  2.7502   2.7608   2.7629   2.7715   2.7792   2.7867   2.7954   2.8129
  2.8264   2.8348   2.8384   2.8535   2.8544   2.8680   2.8738   2.8753
  2.8801   2.8854   2.8899   2.8961   2.8990   2.9033   2.9139   2.9210
  2.9286   2.9307   2.9385   2.9470   2.9515   2.9595   2.9662   2.9796
  2.9863   2.9970   2.9984   3.0137   3.0199   3.0219   3.0291   3.0301
  3.0364   3.0443   3.0556   3.0591   3.0623   3.0728   3.0819   3.0920
  3.0959   3.1017   3.1053   3.1095   3.1113   3.1208   3.1259   3.1312
  3.1398   3.1417   3.1471   3.1566   3.1608   3.1639   3.1727   3.1799
  3.1869   3.1939   3.1992   3.2055   3.2139   3.2167   3.2188   3.2287
  3.2332   3.2367   3.2455   3.2469   3.2519   3.2554   3.2621   3.2645
  3.2733   3.2762   3.2784   3.2875   3.2984   3.3034   3.3074   3.3085
  3.3135   3.3163   3.3192   3.3224   3.3318   3.3347   3.3388   3.3423
  3.3475   3.3487   3.3572   3.3585   3.3621   3.3687   3.3766   3.3780
  3.3832   3.3902   3.3939   3.3977   3.4027   3.4061   3.4089   3.4142
  3.4191   3.4224   3.4281   3.4306   3.4399   3.4428   3.4486   3.4571
  3.4579   3.4634   3.4711   3.4730   3.4780   3.4810   3.4846   3.4921
  3.4942   3.5015   3.5074   3.5110   3.5128   3.5169   3.5285   3.5359
  3.5377   3.5412   3.5424   3.5604   3.5611   3.5711   3.5748   3.5871
  3.5900   3.5944   3.5965   3.6056   3.6145   3.6185   3.6241   3.6306
  3.6326   3.6378   3.6458   3.6497   3.6547   3.6558   3.6626   3.6648
  3.6736   3.6796   3.6865   3.6957   3.6996   3.7053   3.7097   3.7156
  3.7274   3.7303   3.7388   3.7454   3.7486   3.7533   3.7583   3.7595
  3.7631   3.7683   3.7692   3.7767   3.7892   3.7940   3.8037   3.8078
  3.8110   3.8165   3.8266   3.8278   3.8341   3.8383   3.8453   3.8500
  3.8535   3.8596   3.8653   3.8732   3.8912   3.8949   3.9071   3.9126
  3.9189   3.9245   3.9315   3.9359   3.9416   3.9494   3.9517   3.9562
  3.9630   3.9674   3.9718   3.9753   3.9869   3.9957   4.0077   4.0176
  4.0200   4.0271   4.0325   4.0417   4.0530   4.0604   4.0741   4.0818
  4.0935   4.1062   4.1129   4.1199   4.1272   4.1349   4.1400   4.1438
  4.1498   4.1625   4.1703   4.1740   4.1760   4.1775   4.1866   4.2089
  4.2167   4.2235   4.2327   4.2407   4.2475   4.2480   4.2632   4.2693
  4.2731   4.2796   4.2852   4.2946   4.2956   4.2991   4.3020   4.3039
  4.3182   4.3245   4.3277   4.3303   4.3377   4.3465   4.3522   4.3594
  4.3629   4.3671   4.3717   4.3745   4.3861   4.3889   4.3923   4.3996
  4.4029   4.4084   4.4146   4.4254   4.4363   4.4434   4.4492   4.4588
  4.4663   4.4741   4.4831   4.4971   4.4999   4.5138   4.5203   4.5343
  4.5391   4.5475   4.5503   4.5557   4.5609   4.5722   4.5838   4.5849
  4.5863   4.5952   4.6021   4.6144   4.6227   4.6269   4.6271   4.6477
  4.6499   4.6607   4.6686   4.6752   4.6870   4.6927   4.7036   4.7163
  4.7174   4.7271   4.7461   4.7606   4.7725   4.7914   4.7964   4.7995
  4.8083   4.8169   4.8364   4.8456   4.8541   4.8565   4.8769   4.8797
  4.8904   4.8970   4.9047   4.9298   4.9347   4.9435   4.9553   4.9833
  4.9863   4.9965   5.0166   5.0279   5.0326   5.0462   5.0501   5.0586
  5.0642   5.0782   5.1019   5.1171   5.1219   5.1268   5.1304   5.1376
  5.1416   5.1500   5.1736   5.1781   5.1934   5.2015   5.2146   5.2406
  5.2597   5.2659   5.2735   5.2858   5.2925   5.3054   5.3182   5.3296
  5.3320   5.3558   5.3578   5.3736   5.3792   5.3843   5.4044   5.4165
  5.4322   5.4492   5.4797   5.4895   5.4976   5.5077   5.5138   5.5157
  5.5182   5.5402   5.5437   5.5532   5.5588   5.5643   5.5679   5.5762
  5.5859   5.5884   5.5950   5.5988   5.6103   5.6172   5.6216   5.6336
  5.6498   5.6524   5.6613   5.6649   5.6674   5.6696   5.6949   5.7022
  5.7092   5.7133   5.7379   5.7415   5.7505   5.7593   5.7767   5.7787
  5.7871   5.7889   5.8021   5.8313   5.8450   5.8627   5.9009   5.9196
  5.9405   5.9592   5.9806   5.9912   6.0279   6.0366   6.0395   6.0454
  6.0497   6.0690   6.1113   6.1125   6.1238   6.1502   6.1607   6.1930
  6.2019   6.2209   6.2235   6.2263   6.2485   6.2605   6.2833   6.2855
  6.3090   6.3128   6.3252   6.3524   6.3670   6.3850   6.4182   6.4878
  6.5217   6.5377   6.5748   6.5836   6.5973   6.6082   6.6270   6.6592
  6.6738   6.6789   6.8513   6.8544   6.8912   6.9038   6.9074   6.9258
  6.9286   7.0185   7.1053   7.1300   7.1551   7.1969   7.2103   7.2481
  7.3484   7.3528   7.3597   7.3667   7.4760   7.5446   7.5724   7.5843
  7.5935   7.6413   7.6560   7.6872   7.6974   7.7242   8.8617  10.0517
 10.3494  11.3341  11.5367  11.7696  11.9895  12.2122  12.4112  12.4814
 12.9579  13.2044  13.3581  13.5556  13.7980  13.9417  14.1086  14.2689
 14.3159  14.3692  14.5404  14.5796  15.0240  15.6049  15.8165  16.3127
 --------------------------------------------------------------
 
          Ground-State Mulliken Net Atomic Charges

     Atom                 Charge (a.u.)
  ----------------------------------------
      1 C                    -0.084826
      2 C                    -0.029767
      3 C                    -0.115904
      4 C                    -0.119814
      5 H                     0.198614
      6 C                     0.012481
      7 C                     0.122686
      8 C                    -0.088339
      9 C                    -0.237074
     10 C                    -0.156099
     11 C                     0.225585
     12 H                     0.192267
     13 C                     0.342812
     14 C                     0.346120
     15 N                    -0.089346
     16 C                     0.356038
     17 C                     0.413738
     18 N                    -0.088733
     19 O                    -0.496715
     20 O                    -0.508996
     21 O                    -0.501997
     22 O                    -0.462466
     23 C                    -0.205081
     24 H                     0.139227
     25 H                     0.108751
     26 H                     0.108807
     27 C                    -0.197550
     28 H                     0.134162
     29 H                     0.111181
     30 H                     0.111308
     31 C                    -0.092248
     32 S                     0.038937
     33 C                    -0.168889
     34 C                    -0.145568
     35 C                    -0.235634
     36 H                     0.190091
     37 H                     0.186911
     38 H                     0.208972
     39 H                     0.137107
     40 H                     0.137344
     41 H                     0.201909
  ----------------------------------------
  Sum of atomic charges =     0.000000

 -----------------------------------------------------------------
                    Cartesian Multipole Moments
 -----------------------------------------------------------------
    Charge (ESU x 10^10)
                 0.0000
    Dipole Moment (Debye)
         X       2.6537      Y       1.8537      Z       1.1963
       Tot       3.4511
    Quadrupole Moments (Debye-Ang)
        XX    -176.8559     XY      -0.9217     YY    -185.1309
        XZ     -14.0586     YZ      -6.7890     ZZ    -168.8703
    Octopole Moments (Debye-Ang^2)
       XXX    -117.7343    XXY     565.2930    XYY      21.5497
       YYY    1711.3530    XXZ     -20.5321    XYZ      73.8876
       YYZ      20.9261    XZZ     -31.9751    YZZ     536.4241
       ZZZ     -81.1334
    Hexadecapole Moments (Debye-Ang^3)
      XXXX   -3926.7908   XXXY    -251.5804   XXYY   -3701.7570
      XYYY   -1011.6920   YYYY  -18032.9446   XXXZ   -1561.6392
      XXYZ      37.7509   XYYZ    -919.5160   YYYZ    -806.4866
      XXZZ   -1197.5017   XYZZ     -17.6052   YYZZ   -3406.9234
      XZZZ   -1522.6237   YZZZ    -194.3380   ZZZZ   -2909.1018
 -----------------------------------------------------------------
 Total job time:  320.67s(wall), 9274.47s(cpu) 
 Sun Sep 24 16:12:44 2023

        *************************************************************
        *                                                           *
        *  Thank you very much for using Q-Chem.  Have a nice day.  *
        *                                                           *
        *************************************************************


0 sent ACK to 0 
now end server 0 ... 
cleanup process ... done
remove work dirs ./qchem1054834.0 -- ./qchem1054834.0
rm -rf ./qchem1054834.0
rm -rf ./qchem1054834
