LAMMPS data file Created by LigParGen - (Written by Leela S. Dodda)

      42 atoms
      46 bonds
      76 angles
      99 dihedrals
      23 impropers
 
      42 atom types
      46 bond types
      76 angle types
      99 dihedral types
      23 improper types
 
  -12.794610    37.205390 xlo xhi
   -0.404500    49.595500 ylo yhi
   -9.703020    40.296980 zlo zhi

Masses

       1     12.011  
       2     12.011  
       3     32.060  
       4     12.011  
       5      1.008  
       6     12.011  
       7     12.011  
       8     12.011  
       9     12.011  
      10     12.011  
      11     15.999  
      12     15.999  
      13     12.011  
      14      1.008  
      15      1.008  
      16      1.008  
      17     12.011  
      18      1.008  
      19      1.008  
      20      1.008  
      21     12.011  
      22     32.060  
      23     12.011  
      24      1.008  
      25      1.008  
      26     12.011  
      27     32.060  
      28     12.011  
      29     12.011  
      30     12.011  
      31     12.011  
      32     12.011  
      33     32.060  
      34     12.011  
      35     15.999  
      36     15.999  
      37     18.998  
      38     12.011  
      39      1.008  
      40      1.008  
      41      1.008  
      42      1.008  

Pair Coeffs 

       1      0.070  3.5500000 
       2      0.070  3.5500000 
       3      0.355  3.6000000 
       4      0.070  3.5500000 
       5      0.030  2.4200000 
       6      0.080  3.5000000 
       7      0.070  3.5500000 
       8      0.070  3.5500000 
       9      0.080  3.5000000 
      10      0.070  3.5500000 
      11      0.140  2.9000000 
      12      0.140  2.9000000 
      13      0.066  3.5000000 
      14      0.030  2.5000000 
      15      0.030  2.5000000 
      16      0.030  2.5000000 
      17      0.066  3.5000000 
      18      0.030  2.5000000 
      19      0.030  2.5000000 
      20      0.030  2.5000000 
      21      0.070  3.5500000 
      22      0.355  3.6000000 
      23      0.070  3.5500000 
      24      0.030  2.4200000 
      25      0.030  2.4200000 
      26      0.070  3.5500000 
      27      0.355  3.6000000 
      28      0.070  3.5500000 
      29      0.076  3.5500000 
      30      0.070  3.5500000 
      31      0.070  3.5500000 
      32      0.070  3.5500000 
      33      0.355  3.6000000 
      34      0.070  3.5500000 
      35      0.210  2.9600000 
      36      0.140  2.9000000 
      37      0.060  2.9000000 
      38      0.066  3.5000000 
      39      0.030  2.5000000 
      40      0.030  2.5000000 
      41      0.030  2.5000000 
      42      0.030  2.4200000 

Bond Coeffs 

       1   546.0000     1.3670 
       2   250.0000     1.7400 
       3   469.0000     1.4240 
       4   367.0000     1.0800 
       5   250.0000     1.7600 
       6   469.0000     1.4040 
       7   469.0000     1.4000 
       8   469.0000     1.4040 
       9   469.0000     1.4000 
      10   450.0000     1.3640 
      11   450.0000     1.3640 
      12   320.0000     1.4100 
      13   340.0000     1.0900 
      14   340.0000     1.0900 
      15   340.0000     1.0900 
      16   320.0000     1.4100 
      17   340.0000     1.0900 
      18   340.0000     1.0900 
      19   340.0000     1.0900 
      20   469.0000     1.4240 
      21   250.0000     1.7600 
      22   469.0000     1.4240 
      23   367.0000     1.0800 
      24   367.0000     1.0800 
      25   469.0000     1.4240 
      26   250.0000     1.7600 
      27   250.0000     1.7400 
      28   427.0000     1.4330 
      29   546.0000     1.3670 
      30   427.0000     1.4330 
      31   546.0000     1.3670 
      32   250.0000     1.7600 
      33   400.0000     1.4900 
      34   570.0000     1.2290 
      35   214.0000     1.3270 
      36   420.0000     1.3540 
      37   320.0000     1.4100 
      38   340.0000     1.0900 
      39   340.0000     1.0900 
      40   340.0000     1.0900 
      41   367.0000     1.0800 
      42   469.0000     1.4240 
      43   469.0000     1.4240 
      44   250.0000     1.7600 
      45   427.0000     1.4330 
      46   250.0000     1.7400 

Angle Coeffs 

       1     70.000    111.170
       2     70.000    107.300
       3     35.000    125.700
       4     63.000    112.400
       5     85.000    119.400
       6     63.000    120.000
       7     63.000    120.000
       8     63.000    120.000
       9     70.000    120.000
      10     70.000    120.000
      11     75.000    111.000
      12     35.000    109.500
      13     35.000    109.500
      14     35.000    109.500
      15     75.000    111.000
      16     35.000    109.500
      17     35.000    109.500
      18     35.000    109.500
      19     63.000    120.000
      20     85.000    119.400
      21     63.000    120.000
      22     35.000    127.500
      23     35.000    132.100
      24     63.000    120.000
      25     85.000    119.400
      26     63.000    112.400
      27     70.000    124.000
      28     70.000    111.170
      29     45.740    115.690
      30     62.750    119.200
      31     62.750    119.200
      32     85.000    120.000
      33     80.000    120.400
      34     69.900    118.180
      35     62.750    119.200
      36     83.000    116.900
      37     35.000    109.500
      38     35.000    109.500
      39     35.000    109.500
      40     35.000    125.000
      41     70.000    107.300
      42     45.740    115.690
      43     33.000    107.800
      44     45.740    115.690
      45     35.000    127.500
      46     62.750    119.200
      47     85.000    134.900
      48     33.000    107.800
      49     33.000    107.800
      50     33.000    107.800
      51     63.000    120.000
      52     33.000    107.800
      53     62.750    119.200
      54     33.000    107.800
      55     70.000    120.000
      56     85.000    119.400
      57     33.000    107.800
      58     70.000    111.170
      59     33.000    107.800
      60     70.000    111.170
      61     35.000    125.000
      62     63.000    112.400
      63     85.000    119.400
      64     35.000    127.500
      65     63.000    120.000
      66     63.000    112.400
      67     70.000    107.300
      68     70.000    120.000
      69     33.000    107.800
      70     83.000    123.400
      71     62.750    119.200
      72     85.000    134.900
      73     85.000    119.400
      74     85.000    119.400
      75     35.000    132.100
      76     62.750    119.200

Dihedral Coeffs  

       1      0.000      2.100      0.000      0.000 
       2      0.000      0.000      0.000      0.000 
       3      0.000      2.170      0.000      0.000 
       4      0.000      7.000      0.000      0.000 
       5      0.000      3.000      0.000      0.000 
       6      0.000      0.000      0.760      0.000 
       7      0.000      3.000      0.000      0.000 
       8      0.000      0.000      0.760      0.000 
       9      0.000      2.170      0.000      0.000 
      10      0.000      2.170      0.000      0.000 
      11      0.000      2.170      0.000      0.000 
      12      0.000      0.000      0.000      0.000 
      13      0.000      2.170      0.000      0.000 
      14      0.000      2.100      0.000      0.000 
      15      4.669      5.124      0.000      0.000 
      16      0.000      0.000      0.198      0.000 
      17      0.000      7.250      0.000      0.000 
      18      0.000      2.170      0.000      0.000 
      19      0.000      0.000      0.760      0.000 
      20      0.000      2.170      0.000      0.000 
      21      0.000      0.000     -0.553      0.000 
      22      0.000      7.250      0.000      0.000 
      23      0.000      2.170      0.000      0.000 
      24      0.000      2.170      0.000      0.000 
      25      0.000      0.000      0.760      0.000 
      26      0.000      7.000      0.000      0.000 
      27      0.000      2.170      0.000      0.000 
      28      0.000      7.250      0.000      0.000 
      29      0.000      2.170      0.000      0.000 
      30      0.000      7.000      0.000      0.000 
      31      0.000      7.250      0.000      0.000 
      32      0.000      0.000      0.000      0.000 
      33      0.000      7.250      0.000      0.000 
      34      0.000      7.250      0.000      0.000 
      35      0.000      0.000      0.000      0.000 
      36      0.000      2.100      0.000      0.000 
      37      0.000      3.000      0.000      0.000 
      38      0.000      7.000      0.000      0.000 
      39      0.000      7.250      0.000      0.000 
      40      0.000      7.250      0.000      0.000 
      41      0.000      7.250      0.000      0.000 
      42      0.000      0.000      0.000      0.000 
      43      0.000      7.250      0.000      0.000 
      44      0.000      7.250      0.000      0.000 
      45      0.000      5.124      0.000      0.000 
      46      0.000      0.000      0.000      0.000 
      47      0.000      0.000      0.760      0.000 
      48      0.000      0.000      0.000      0.000 
      49      0.000      2.170      0.000      0.000 
      50      0.000      3.000      0.000      0.000 
      51      0.000      7.000      0.000      0.000 
      52      0.000      7.250      0.000      0.000 
      53      0.000      2.170      0.000      0.000 
      54      0.000      2.170      0.000      0.000 
      55      0.000      7.250      0.000      0.000 
      56      0.000      7.250      0.000      0.000 
      57      0.000      2.170      0.000      0.000 
      58      0.000      7.250      0.000      0.000 
      59      0.000      7.000      0.000      0.000 
      60      0.000      0.000      0.000      0.000 
      61      0.000      7.250      0.000      0.000 
      62      0.000      7.250      0.000      0.000 
      63      0.000      7.250      0.000      0.000 
      64      0.000      0.000      0.000      0.000 
      65      0.000      7.250      0.000      0.000 
      66      0.000      2.170      0.000      0.000 
      67      0.000      7.250      0.000      0.000 
      68      0.000      7.250      0.000      0.000 
      69      0.000      7.000      0.000      0.000 
      70      0.000      0.000      0.198      0.000 
      71      0.000      7.250      0.000      0.000 
      72      0.000      2.170      0.000      0.000 
      73      0.000      2.100      0.000      0.000 
      74      0.000      2.170      0.000      0.000 
      75      0.000      2.170      0.000      0.000 
      76      0.000      7.250      0.000      0.000 
      77      0.000      7.250      0.000      0.000 
      78      0.000      7.250      0.000      0.000 
      79      0.000      2.170      0.000      0.000 
      80      0.000      7.250      0.000      0.000 
      81      0.000      7.250      0.000      0.000 
      82      0.000      7.250      0.000      0.000 
      83      0.000      7.000      0.000      0.000 
      84      0.000      2.170      0.000      0.000 
      85      0.000      7.250      0.000      0.000 
      86      0.000      0.000      0.760      0.000 
      87      0.000      0.000      0.198      0.000 
      88      0.000      2.170      0.000      0.000 
      89      0.000      7.250      0.000      0.000 
      90      0.000      2.170      0.000      0.000 
      91      0.000      2.170      0.000      0.000 
      92      0.000      7.250      0.000      0.000 
      93      0.000      7.250      0.000      0.000 
      94      0.000      2.170      0.000      0.000 
      95      0.000      7.250      0.000      0.000 
      96      0.000      2.100      0.000      0.000 
      97      0.000      2.170      0.000      0.000 
      98      0.000      7.250      0.000      0.000 
      99      0.000      7.250      0.000      0.000 

Improper Coeffs 

       1      2.500      -1       2 
       2      2.500      -1       2 
       3      2.500      -1       2 
       4      2.500      -1       2 
       5      2.500      -1       2 
       6      0.000      -1       2 
       7      0.000      -1       2 
       8      0.000      -1       2 
       9      0.000      -1       2 
      10      2.500      -1       2 
      11      2.500      -1       2 
      12      2.500      -1       2 
      13      2.500      -1       2 
      14      2.500      -1       2 
      15      2.500      -1       2 
      16      2.500      -1       2 
      17      2.500      -1       2 
      18      2.500      -1       2 
      19     10.500      -1       2 
      20      2.500      -1       2 
      21      0.000      -1       2 
      22      0.000      -1       2 
      23      2.500      -1       2 

Atoms 

1	1	1	-0.19450000	-0.092419	-8.519741	-0.255929
2	1	2	-0.12170000	0.449364	-7.635967	0.666007
3	1	3	-0.00220000	-0.885736	-7.651740	-1.592708
4	1	4	-0.04770000	0.254813	-6.261894	0.332317
5	1	5	0.19500000	0.980526	-7.954738	1.571741
6	1	6	-0.13880000	-0.458965	-6.079985	-0.904324
7	1	7	0.18120000	-0.767823	-4.798382	-1.385968
8	1	8	0.18680000	0.681909	-5.153542	1.118303
9	1	9	-0.14730000	0.369139	-3.869626	0.638514
10	1	10	-0.05390000	-0.342916	-3.688927	-0.600871
11	1	11	-0.30180000	1.368544	-5.481075	2.248132
12	1	12	-0.30550000	-1.458570	-4.479871	-2.520275
13	1	13	-0.05680000	-1.405396	-5.356026	-3.639637
14	1	14	0.10250000	-1.820940	-4.790496	-4.495304
15	1	15	0.10250000	-2.023129	-6.268513	-3.490336
16	1	16	0.10250000	-0.361595	-5.658187	-3.873314
17	1	17	-0.05880000	1.480048	-4.546999	3.314934
18	1	18	0.10650000	1.899255	-5.107564	4.171837
19	1	19	0.10650000	0.490123	-4.131473	3.601473
20	1	20	0.10650000	2.171521	-3.712085	3.068969
21	1	21	-0.08420000	-0.537642	-2.314326	-0.930308
22	1	22	0.04940000	0.785807	-2.295487	1.334769
23	1	23	-0.07910000	-0.000000	-1.435180	-0.000000
24	1	24	0.19320000	-1.066134	-1.993211	-1.836691
25	1	25	0.20000000	-0.091781	-9.615985	-0.249906
26	1	26	0.02310000	0.000000	0.000000	0.000000
27	1	27	0.10020000	0.690437	0.576430	1.510732
28	1	28	-0.18030000	1.896512	1.589852	0.727629
29	1	29	-0.12610000	0.695720	0.583817	-1.064665
30	1	30	-0.14370000	1.758621	1.477674	-0.678287
31	1	31	0.18330000	0.645928	0.539878	-2.486150
32	1	32	-0.28110000	1.614763	1.352997	-3.106916
33	1	33	0.19800000	2.568261	2.157430	-1.965735
34	1	34	0.53510000	1.812707	1.512991	-4.559972
35	1	35	-0.44510000	1.099523	0.910662	-5.350277
36	1	36	-0.37890000	2.797769	2.335330	-5.004375
37	1	37	-0.01140000	-0.205024	-0.179266	-3.246290
38	1	38	-0.02200000	3.079074	2.558124	-6.334976
39	1	39	0.09790000	3.925910	3.267919	-6.370268
40	1	40	0.09790000	2.208109	2.990367	-6.875609
41	1	41	0.09790000	3.358147	1.618843	-6.861878
42	1	42	0.21520000	2.601331	2.181180	1.321510

Bonds 

     1      1      2      1
     2      2      3      1
     3      3      4      2
     4      4      5      2
     5      5      6      3
     6      6      7      6
     7      7      8      4
     8      8      9      8
     9      9     10      7
    10     10     11      8
    11     11     12      7
    12     12     13     12
    13     13     14     13
    14     14     15     13
    15     15     16     13
    16     16     17     11
    17     17     18     17
    18     18     19     17
    19     19     20     17
    20     20     21     10
    21     21     22      9
    22     22     23     21
    23     23     24     21
    24     24     25      1
    25     25     26     23
    26     26     27     26
    27     27     28     27
    28     28     29     26
    29     29     30     28
    30     30     31     29
    31     31     32     31
    32     32     33     30
    33     33     34     32
    34     34     35     34
    35     35     36     34
    36     36     37     31
    37     37     38     36
    38     38     39     38
    39     39     40     38
    40     40     41     38
    41     41     42     28
    42     42      6      4
    43     43     10      9
    44     44     23     22
    45     45     30     29
    46     46     33     32

Angles 

     1      1      2      1      3
     2      2      1      2      4
     3      3      1      2      5
     4      4      1      3      6
     5      5      3      6      7
     6      6      2      4      8
     7      7      4      8      9
     8      8      6      7     10
     9      9      4      8     11
    10     10      6      7     12
    11     11      7     12     13
    12     12     12     13     14
    13     13     12     13     15
    14     14     12     13     16
    15     15      8     11     17
    16     16     11     17     18
    17     17     11     17     19
    18     18     11     17     20
    19     19      7     10     21
    20     20      8      9     22
    21     21     10     21     23
    22     22     10     21     24
    23     23      2      1     25
    24     24     21     23     26
    25     25     23     26     27
    26     26     26     27     28
    27     27     23     26     29
    28     28     27     28     30
    29     29     26     29     31
    30     30     29     31     32
    31     31     28     30     33
    32     32     31     32     34
    33     33     32     34     35
    34     34     32     34     36
    35     35     29     31     37
    36     36     34     36     38
    37     37     36     38     39
    38     38     36     38     40
    39     39     36     38     41
    40     40     27     28     42
    41     41      9     10     21
    42     42     30     29     31
    43     43     39     38     41
    44     44     26     29     30
    45     45     23     21     24
    46     46     28     30     29
    47     47      4      6      7
    48     48     19     17     20
    49     49     15     13     16
    50     50     39     38     40
    51     51      7     10      9
    52     52     18     17     20
    53     53     29     30     33
    54     54     14     13     15
    55     55     10      7     12
    56     56     21     23     22
    57     57     40     38     41
    58     58     33     32     34
    59     59     18     17     19
    60     60     31     32     33
    61     61      3      1     25
    62     62     30     33     32
    63     63     10      9     22
    64     64      4      2      5
    65     65      6      4      8
    66     66      9     22     23
    67     67      2      4      6
    68     68      9      8     11
    69     69     14     13     16
    70     70     35     34     36
    71     71     32     31     37
    72     72      8      9     10
    73     73     22     23     26
    74     74      3      6      4
    75     75     30     28     42
    76     76     27     26     29

Dihedrals

     1      1      4      2      1      3 
     2      2      6      3      1      2 
     3      3      9      8      4      2 
     4      4     10      7      6      3 
     5      5     13     12      7      6 
     6      6     14     13     12      7 
     7      7     17     11      8      4 
     8      8     18     17     11      8 
     9      9     23     21     10      7 
    10     10     27     26     23     21 
    11     11     28     27     26     23 
    12     12     30     28     27     26 
    13     13     32     31     29     26 
    14     14     35     34     32     31 
    15     15     38     36     34     32 
    16     16     39     38     36     34 
    17     17     24     21     23     22 
    18     18     21     23     22      9 
    19     19     16     13     12      7 
    20     20     11      8      4      2 
    21     21     36     34     32     31 
    22     22      3      6      4      2 
    23     23     29     26     23     22 
    24     24     31     29     26     23 
    25     25     15     13     12      7 
    26     26     10      7      6      4 
    27     27     32     31     29     30 
    28     28     33     30     28     27 
    29     29      6      4      2      1 
    30     30     22      9      8     11 
    31     31     25      1      2      4 
    32     32     37     31     32     34 
    33     33     30     29     26     27 
    34     34     34     32     31     29 
    35     35     29     26     27     28 
    36     36     29     30     28     27 
    37     37     17     11      8      9 
    38     38     10      9      8      4 
    39     39     21     10      9      8 
    40     40     37     31     32     33 
    41     41      9      8      4      6 
    42     42     34     32     33     30 
    43     43     42     28     30     29 
    44     44     25      1      2      5 
    45     45     38     36     34     35 
    46     46     32     33     30     28 
    47     47     19     17     11      8 
    48     48     35     34     32     33 
    49     49     26     23     22      9 
    50     50     13     12      7     10 
    51     51     11      8      9     10 
    52     52      8      9     10      7 
    53     53      8      4      2      1 
    54     54     28     30     29     26 
    55     55     42     28     30     33 
    56     56     42     28     27     26 
    57     57     22     23     21     10 
    58     58     27     26     23     22 
    59     59     12      7      6      4 
    60     60     31     32     33     30 
    61     61     26     23     21     24 
    62     62      7      6      4      2 
    63     63      7      6      3      1 
    64     64     32     33     30     29 
    65     65     33     30     29     31 
    66     66     37     31     29     26 
    67     67      8      4      6      7 
    68     68      6      4      2      5 
    69     69     12      7      6      3 
    70     70     40     38     36     34 
    71     71     22      9     10      7 
    72     72     29     26     23     21 
    73     73     36     34     32     33 
    74     74     30     29     26     23 
    75     75     21     10      7      6 
    76     76     24     21     10      9 
    77     77     24     21     10      7 
    78     78      5      2      1      3 
    79     79     12      7     10      9 
    80     80      9     10      7      6 
    81     81     33     30     29     26 
    82     82      8      4      6      3 
    83     83     22      9      8      4 
    84     84     11      8      4      6 
    85     85     23     22      9     10 
    86     86     20     17     11      8 
    87     87     41     38     36     34 
    88     88     23     21     10      9 
    89     89     23     22      9      8 
    90     90     21     10      7     12 
    91     91     37     31     29     30 
    92     92      8      4      2      5 
    93     93     22      9     10     21 
    94     94     26     23     21     10 
    95     95     31     29     26     27 
    96     96     33     32     31     29 
    97     97     31     29     30     28 
    98     98      4      6      3      1 
    99     99     25      1      3      6 

Impropers

     1      1      2      1      4      5 
     2      2      6      3      4      7 
     3      3      4      2      6      8 
     4      4      8      9     11      4 
     5      5      7     10     12      6 
     6      6     13     12     14     15 
     7      7     13     12     14     16 
     8      8     17     18     19     11 
     9      9     17     18     11     20 
    10     10     10      9     21      7 
    11     11      9     10     22      8 
    12     12     21     10     23     24 
    13     13      1     25      3      2 
    14     14     23     26     21     22 
    15     15     26     27     29     23 
    16     16     29     26     30     31 
    17     17     30     33     28     29 
    18     18     32     33     34     31 
    19     19     34     35     36     32 
    20     20     31     29     37     32 
    21     21     38     36     39     40 
    22     22     38     41     36     39 
    23     23     28     42     27     30 
