LAMMPS (29 Sep 2021 - Update 2)
OMP_NUM_THREADS environment is not set. Defaulting to 1 thread. (src/comm.cpp:98)
  using 1 OpenMP thread(s) per MPI task
units           real
atom_style      full
pair_style      lj/cut/coul/cut 10.0 13.4
bond_style      harmonic
angle_style     harmonic
dihedral_style  opls
special_bonds   lj/coul 0 0 0.5
improper_style  cvff
pair_modify mix geometric
dielectric 4.9
read_data       ./lammps_files_ligpargen/fin_bdt_Phi_50_Theta_60_fin_ftt.lmp
Reading data file ...
  orthogonal box = (-12.794610 -0.40450000 -9.7030200) to (37.205390 49.595500 40.296980)
  1 by 1 by 1 MPI processor grid
  reading atoms ...
  42 atoms
  scanning bonds ...
  2 = max bonds/atom
  scanning angles ...
  6 = max angles/atom
  scanning dihedrals ...
  6 = max dihedrals/atom
  scanning impropers ...
  3 = max impropers/atom
  reading bonds ...
  46 bonds
  reading angles ...
  76 angles
  reading dihedrals ...
  99 dihedrals
  reading impropers ...
  23 impropers
Finding 1-2 1-3 1-4 neighbors ...
  special bond factors lj:    0        0        0.5     
  special bond factors coul:  0        0        0.5     
     4 = max # of 1-2 neighbors
     6 = max # of 1-3 neighbors
    15 = max # of 1-4 neighbors
    17 = max # of special neighbors
  special bonds CPU = 0.000 seconds
  read_data CPU = 0.005 seconds
timestep 1.0
thermo 1
thermo_style multi
neighbor 2.0 bin
run_style verlet
run 0
WARNING: No fixes defined, atoms won't move (src/verlet.cpp:55)
Neighbor list info ...
  update every 1 steps, delay 10 steps, check yes
  max neighbors/atom: 2000, page size: 100000
  master list distance cutoff = 15.4
  ghost atom cutoff = 15.4
  binsize = 7.7, bins = 7 7 7
  1 neighbor lists, perpetual/occasional/extra = 1 0 0
  (1) pair lj/cut/coul/cut, perpetual
      attributes: half, newton on
      pair build: half/bin/newton
      stencil: half/bin/3d
      bin: standard
Per MPI rank memory allocation (min/avg/max) = 11.59 | 11.59 | 11.59 Mbytes
---------------- Step        0 ----- CPU =      0.0000 (sec) ----------------
TotEng   =       125.4478 KinEng   =         0.0000 Temp     =         0.0000 
PotEng   =       125.4478 E_bond   =        10.3694 E_angle  =        91.4679 
E_dihed  =        17.4097 E_impro  =         1.3380 E_vdwl   =         9.2323 
E_coul   =        -4.3695 E_long   =         0.0000 Press    =        -9.8925 
Loop time of 4.81e-06 on 1 procs for 0 steps with 42 atoms

41.6% CPU use with 1 MPI tasks x 1 OpenMP threads

MPI task timing breakdown:
Section |  min time  |  avg time  |  max time  |%varavg| %total
---------------------------------------------------------------
Pair    | 0          | 0          | 0          |   0.0 |  0.00
Bond    | 0          | 0          | 0          |   0.0 |  0.00
Neigh   | 0          | 0          | 0          |   0.0 |  0.00
Comm    | 0          | 0          | 0          |   0.0 |  0.00
Output  | 0          | 0          | 0          |   0.0 |  0.00
Modify  | 0          | 0          | 0          |   0.0 |  0.00
Other   |            | 4.81e-06   |            |       |100.00

Nlocal:        42.0000 ave          42 max          42 min
Histogram: 1 0 0 0 0 0 0 0 0 0
Nghost:        262.000 ave         262 max         262 min
Histogram: 1 0 0 0 0 0 0 0 0 0
Neighs:        739.000 ave         739 max         739 min
Histogram: 1 0 0 0 0 0 0 0 0 0

Total # of neighbors = 739
Ave neighs/atom = 17.595238
Ave special neighs/atom = 9.4285714
Neighbor list builds = 0
Dangerous builds = 0
Total wall time: 0:00:00
