You are running Q-Chem version: 5.4.0

#
# job setting
#
local host:  exp-1-19
current dir: /home/rramji/project-csd799/aromodel/pndit-qchem/rotation_run
input file:  Dimethyl_Naphthalene_Dicarboximide_Phi_10_Theta_190_Thiophene.qcin
output file: 
nprocs     : 1
nthreads   : 64
#
# qchem installation setting
#
QC:          /cm/shared/apps/spack/cpu/opt/spack/linux-centos8-zen2/gcc-10.2.0/qchem-5.4-akfmr7b3t57bfs6qan3padb2wnb2i7cl
QCAUX:       /cm/shared/apps/spack/cpu/opt/spack/linux-centos8-zen2/gcc-10.2.0/qchem-5.4-akfmr7b3t57bfs6qan3padb2wnb2i7cl/qcaux
QCPROG:      /cm/shared/apps/spack/cpu/opt/spack/linux-centos8-zen2/gcc-10.2.0/qchem-5.4-akfmr7b3t57bfs6qan3padb2wnb2i7cl/exe/qcprog.exe
QCPROG_S:    /cm/shared/apps/spack/cpu/opt/spack/linux-centos8-zen2/gcc-10.2.0/qchem-5.4-akfmr7b3t57bfs6qan3padb2wnb2i7cl/exe/qcprog.exe_s
PARALLEL:    -DPARALLEL
QCMPI:       mpich
#
# qchem directory setting
#
qcrun:       qchem404074
QCSCRATCH:   .
QCLOCALSCR:  
QCTMPDIR:    .
QCFILEPREF:  ./qchem404074
QCSAVEDIR:   
workdirs:    ./qchem404074
workdir0:    ./qchem404074
partmpdirs =  
#
# parallel setting
#
QCRSH:           ssh
QCMPI:           mpich
QCMPIRUN:        /cm/shared/apps/spack/cpu/opt/spack/linux-centos8-zen2/gcc-10.2.0/qchem-5.4-akfmr7b3t57bfs6qan3padb2wnb2i7cl/bin/mpi/mpirun_qchem
QCMACHINEFILE:   ./qchem404074/hostfile
exp-1-19

#
# env setting
#
exported envs:   QC QCAUX QCSCRATCH QCRUNNAME QCFILEPREF QCPROG QCPROG_S GUIFILE

Running Job 1 of 1 Dimethyl_Naphthalene_Dicarboximide_Phi_10_Theta_190_Thiophene.qcin
qchem Dimethyl_Naphthalene_Dicarboximide_Phi_10_Theta_190_Thiophene.qcin_404074.0 ./qchem404074/ 1
/cm/shared/apps/spack/cpu/opt/spack/linux-centos8-zen2/gcc-10.2.0/qchem-5.4-akfmr7b3t57bfs6qan3padb2wnb2i7cl/bin/mpi/mpirun_qchem -machinefile ./qchem404074/hostfile -np 1 /cm/shared/apps/spack/cpu/opt/spack/linux-centos8-zen2/gcc-10.2.0/qchem-5.4-akfmr7b3t57bfs6qan3padb2wnb2i7cl/exe/qcprog.exe Dimethyl_Naphthalene_Dicarboximide_Phi_10_Theta_190_Thiophene.qcin_404074.0 ./qchem404074/

Process 0 of 1 is on exp-1-19 - thread support 0
initial socket setup ...start
initial socket setup ...done 
now start server 0 ... 
                  Welcome to Q-Chem
     A Quantum Leap Into The Future Of Chemistry


 Q-Chem 5.4, Q-Chem, Inc., Pleasanton, CA (2021)

 License issued to: University of California, San Diego (site)

 E. Epifanovsky,  A. T. B. Gilbert,  Xintian Feng,  Joonho Lee,  Yuezhi Mao,  
 N. Mardirossian,  P. Pokhilko,  A. White,  M. Wormit,  M. P. Coons,  
 A. L. Dempwolff,  Zhengting Gan,  D. Hait,  P. R. Horn,  L. D. Jacobson,  
 I. Kaliman,  J. Kussmann,  A. W. Lange,  Ka Un Lao,  D. S. Levine,  Jie Liu,  
 S. C. McKenzie,  A. F. Morrison,  K. Nanda,  F. Plasser,  D. R. Rehn,  
 M. L. Vidal,  Zhi-Qiang You,  Ying Zhu,  B. Alam,  B. Albrecht,  
 A. Aldossary,  E. Alguire,  J. H. Andersen,  D. Barton,  K. Begam,  A. Behn,  
 Y. A. Bernard,  E. J. Berquist,  H. Burton,  A. Carreras,  K. Carter-Fenk,  
 R. Chakraborty,  A. D. Chien,  K. D. Closser,  V. Cofer-Shabica,  
 S. Dasgupta,  Jia Deng,  M. de Wergifosse,  M. Diedenhofen,  Hainam Do,  
 S. Ehlert,  Po-Tung Fang,  S. Fatehi,  Qingguo Feng,  J. Gayvert,  
 Qinghui Ge,  G. Gidofalvi,  M. Goldey,  J. Gomes,  C. Gonzalez-Espinoza,  
 S. Gulania,  A. Gunina,  M. W. D. Hanson-Heine,  P. H. P. Harbach,  
 A. W. Hauser,  M. F. Herbst,  M. Hernandez Vera,  M. Hodecker,  
 Z. C. Holden,  S. Houck,  Xunkun Huang,  Kerwin Hui,  B. C. Huynh,  
 M. Ivanov,  Hyunjun Ji,  Hanjie Jiang,  B. Kaduk,  S. Kaehler,  
 K. Khistyaev,  Jaehoon Kim,  P. Klunzinger,  Z. Koczor-Benda,  
 Joong Hoon Koh,  D. Kosenkov,  L. Koulias,  T. Kowalczyk,  C. M. Krauter,  
 K. Kue,  A. Kunitsa,  T. Kus,  A. Landau,  K. V. Lawler,  D. Lefrancois,  
 S. Lehtola,  Rain Li,  Yi-Pei Li,  Jiashu Liang,  M. Liebenthal,  
 Hung-Hsuan Lin,  You-Sheng Lin,  Fenglai Liu,  Kuan-Yu Liu,  
 M. Loipersberger,  A. Luenser,  A. Manjanath,  P. Manohar,  E. Mansoor,  
 S. F. Manzer,  Shan-Ping Mao,  A. V. Marenich,  T. Markovich,  S. Mason,  
 S. A. Maurer,  P. F. McLaughlin,  M. F. S. J. Menger,  J.-M. Mewes,  
 S. A. Mewes,  P. Morgante,  J. W. Mullinax,  T. S. Nguyen-Beck,  
 K. J. Oosterbaan,  G. Paran,  Alexander C. Paul,  Suranjan K. Paul,  
 F. Pavosevic,  Zheng Pei,  S. Prager,  E. I. Proynov,  E. Ramos,  B. Rana,  
 A. E. Rask,  A. Rettig,  R. M. Richard,  F. Rob,  E. Rossomme,  T. Scheele,  
 M. Scheurer,  M. Schneider,  N. Sergueev,  S. M. Sharada,  W. Skomorowski,  
 D. W. Small,  C. J. Stein,  Yu-Chuan Su,  E. J. Sundstrom,  Zhen Tao,  
 J. Thirman,  T. Tsuchimochi,  N. M. Tubman,  S. P. Veccham,  O. Vydrov,  
 J. Wenzel,  J. Witte,  A. Yamada,  Kun Yao,  S. Yeganeh,  S. R. Yost,  
 A. Zech,  Igor Ying Zhang,  Xing Zhang,  Yu Zhang,  D. Zuev,  
 A. Aspuru-Guzik,  A. T. Bell,  N. A. Besley,  K. B. Bravaya,  B. R. Brooks,  
 D. Casanova,  Jeng-Da Chai,  S. Coriani,  C. J. Cramer,  
 A. E. DePrince, III,  R. A. DiStasio Jr.,  A. Dreuw,  B. D. Dunietz,  
 T. R. Furlani,  W. A. Goddard III,  S. Grimme,  S. Hammes-Schiffer,  
 T. Head-Gordon,  W. J. Hehre,  Chao-Ping Hsu,  T.-C. Jagau,  Yousung Jung,  
 A. Klamt,  Jing Kong,  D. S. Lambrecht,  WanZhen Liang,  N. J. Mayhall,  
 C. W. McCurdy,  J. B. Neaton,  C. Ochsenfeld,  J. A. Parkhill,  R. Peverati,  
 V. A. Rassolov,  Yihan Shao,  L. V. Slipchenko,  T. Stauch,  R. P. Steele,  
 J. E. Subotnik,  A. J. W. Thom,  A. Tkatchenko,  D. G. Truhlar,  
 T. Van Voorhis,  T. A. Wesolowski,  K. B. Whaley,  H. L. Woodcock III,  
 P. M. Zimmerman,  S. Faraji,  P. M. W. Gill,  M. Head-Gordon,  
 J. M. Herbert,  A. I. Krylov

 Contributors to earlier versions of Q-Chem not listed above: 
 R. D. Adamson,  B. Austin,  R. Baer,  J. Baker,  G. J. O. Beran,  
 K. Brandhorst,  S. T. Brown,  E. F. C. Byrd,  A. K. Chakraborty,  
 G. K. L. Chan,  Chun-Min Chang,  Yunqing Chen,  C.-L. Cheng,  
 Siu Hung Chien,  D. M. Chipman,  D. L. Crittenden,  H. Dachsel,  
 R. J. Doerksen,  A. D. Dutoi,  R. G. Edgar,  J. Fosso-Tande,  
 L. Fusti-Molnar,  D. Ghosh,  A. Ghysels,  A. Golubeva-Zadorozhnaya,  
 J. Gonthier,  M. S. Gordon,  S. R. Gwaltney,  G. Hawkins,  J. E. Herr,  
 A. Heyden,  S. Hirata,  E. G. Hohenstein,  G. Kedziora,  F. J. Keil,  
 C. Kelley,  Jihan Kim,  R. A. King,  R. Z. Khaliullin,  P. P. Korambath,  
 W. Kurlancheek,  A. Laurent,  A. M. Lee,  M. S. Lee,  S. V. Levchenko,  
 Ching Yeh Lin,  D. Liotard,  E. Livshits,  R. C. Lochan,  I. Lotan,  
 L. A. Martinez-Martinez,  P. E. Maslen,  N. Nair,  D. P. O'Neill,  
 D. Neuhauser,  E. Neuscamman,  C. M. Oana,  R. Olivares-Amaya,  R. Olson,  
 T. M. Perrine,  B. Peters,  P. A. Pieniazek,  A. Prociuk,  Y. M. Rhee,  
 J. Ritchie,  M. A. Rohrdanz,  E. Rosta,  N. J. Russ,  H. F. Schaefer III,  
 M. W. Schmidt,  N. E. Schultz,  S. Sharma,  N. Shenvi,  C. D. Sherrill,  
 A. C. Simmonett,  A. Sodt,  T. Stein,  D. Stuck,  K. S. Thanthiriwatte,  
 V. Vanovschi,  L. Vogt,  Tao Wang,  A. Warshel,  M. A. Watson,  
 C. F. Williams,  Q. Wu,  X. Xu,  Jun Yang,  W. Zhang,  Yan Zhao

 Please cite Q-Chem as follows:
 Y. Shao et al., Mol. Phys. 113, 184-215 (2015)
 DOI: 10.1080/00268976.2014.952696

 Q-Chem 5.4.0 for Intel X86 EM64T Linux

 Parts of Q-Chem use Armadillo 9.800.1 (Horizon Scraper).
 http://arma.sourceforge.net/

 Q-Chem begins on Fri Dec 15 14:55:48 2023  

 Host: 
0

     Scratch files written to ./qchem404074//
 May1621 |scratch|qcdevops|jenkins|workspace|build_RNUM    
 Parallel job on  1  processors
 Processing $rem in /cm/shared/apps/spack/cpu/opt/spack/linux-centos8-zen2/gcc-10.2.0/qchem-5.4-akfmr7b3t57bfs6qan3padb2wnb2i7cl/config/preferences:
 Processing $rem in /home/rramji/.qchemrc:
 Symmetry turned off for PCM/SM12/SMD calculation
 Core orbitals will be frozen

 Checking the input file for inconsistencies... 	...done.

 Q-Chem warning in module forms1/BasisType.C, line 2236:

 You are not using the predefined 5D/6D in this basis set.


--------------------------------------------------------------
User input:
--------------------------------------------------------------
$molecule
0 1
C	-0.043160	-6.741404	0.253280
C	-0.269777	-6.155638	1.539213
C	0.145543	-5.791452	-0.814295
C	-0.318377	-4.803786	1.813519
H	-0.422058	-6.821518	2.403941
C	0.094194	-4.378638	-0.527140
C	-0.137191	-3.838032	0.783072
C	0.275104	-3.413062	-1.556403
C	-0.188116	-2.426473	1.067932
C	0.226701	-2.059348	-1.285420
C	-0.000000	-1.478216	-0.000000
H	0.378931	-1.394783	-2.151147
C	0.397845	-6.187987	-2.234582
C	0.523637	-3.798164	-2.965273
N	0.567586	-5.170003	-3.204744
C	-0.567421	-4.424987	3.226257
C	-0.439541	-2.036627	2.489446
N	-0.609650	-3.049156	3.459801
O	0.468608	-7.353131	-2.619468
O	0.683034	-2.986854	-3.874668
O	-0.725131	-5.248946	4.124806
O	-0.512648	-0.878829	2.895819
C	0.813908	-5.563799	-4.595691
H	0.822891	-6.664085	-4.640022
H	1.781600	-5.147101	-4.934830
H	0.020360	-5.148785	-5.246157
C	-0.851649	-2.587487	4.829716
H	-0.962191	-3.483329	5.462742
H	-1.765865	-1.964972	4.863242
H	-0.005383	-1.962932	5.173521
H	-0.010555	-7.822318	0.070208
C	0.000000	0.000000	0.000000
S	0.137535	0.781156	1.580530
C	0.421895	2.393994	0.904911
C	0.173134	0.982857	-0.985400
C	0.402294	2.283058	-0.493528
H	0.132237	0.750786	-2.059934
H	0.555196	3.150621	-1.152593
H	0.574741	3.261310	1.556025
$end

$rem
JOBTYPE		SP
EXCHANGE	HF
CORRELATION	pRIMP2
BASIS		cc-pvtz
METHOD		rimp2
AUX_BASIS	rimp2-cc-pvtz
SOLVENT_METHOD	PCM
PURECART	11111
SYMMETRY	false
MEM_TOTAL	110000
SCF_CONVERGENCE = 6
THRESH=10
GUI = 2
$end



$solvent
dielectric 4.90
$end
--------------------------------------------------------------
 ----------------------------------------------------------------
             Standard Nuclear Orientation (Angstroms)
    I     Atom           X                Y                Z
 ----------------------------------------------------------------
    1      C      -0.0431600000    -6.7414040000     0.2532800000
    2      C      -0.2697770000    -6.1556380000     1.5392130000
    3      C       0.1455430000    -5.7914520000    -0.8142950000
    4      C      -0.3183770000    -4.8037860000     1.8135190000
    5      H      -0.4220580000    -6.8215180000     2.4039410000
    6      C       0.0941940000    -4.3786380000    -0.5271400000
    7      C      -0.1371910000    -3.8380320000     0.7830720000
    8      C       0.2751040000    -3.4130620000    -1.5564030000
    9      C      -0.1881160000    -2.4264730000     1.0679320000
   10      C       0.2267010000    -2.0593480000    -1.2854200000
   11      C       0.0000000000    -1.4782160000     0.0000000000
   12      H       0.3789310000    -1.3947830000    -2.1511470000
   13      C       0.3978450000    -6.1879870000    -2.2345820000
   14      C       0.5236370000    -3.7981640000    -2.9652730000
   15      N       0.5675860000    -5.1700030000    -3.2047440000
   16      C      -0.5674210000    -4.4249870000     3.2262570000
   17      C      -0.4395410000    -2.0366270000     2.4894460000
   18      N      -0.6096500000    -3.0491560000     3.4598010000
   19      O       0.4686080000    -7.3531310000    -2.6194680000
   20      O       0.6830340000    -2.9868540000    -3.8746680000
   21      O      -0.7251310000    -5.2489460000     4.1248060000
   22      O      -0.5126480000    -0.8788290000     2.8958190000
   23      C       0.8139080000    -5.5637990000    -4.5956910000
   24      H       0.8228910000    -6.6640850000    -4.6400220000
   25      H       1.7816000000    -5.1471010000    -4.9348300000
   26      H       0.0203600000    -5.1487850000    -5.2461570000
   27      C      -0.8516490000    -2.5874870000     4.8297160000
   28      H      -0.9621910000    -3.4833290000     5.4627420000
   29      H      -1.7658650000    -1.9649720000     4.8632420000
   30      H      -0.0053830000    -1.9629320000     5.1735210000
   31      H      -0.0105550000    -7.8223180000     0.0702080000
   32      C       0.0000000000     0.0000000000     0.0000000000
   33      S       0.1375350000     0.7811560000     1.5805300000
   34      C       0.4218950000     2.3939940000     0.9049110000
   35      C       0.1731340000     0.9828570000    -0.9854000000
   36      C       0.4022940000     2.2830580000    -0.4935280000
   37      H       0.1322370000     0.7507860000    -2.0599340000
   38      H       0.5551960000     3.1506210000    -1.1525930000
   39      H       0.5747410000     3.2613100000     1.5560250000
 ----------------------------------------------------------------
 Nuclear Repulsion Energy =        2512.40982948 hartrees
 There are       97 alpha and       97 beta electrons
 Requested basis set is cc-pVTZ
 There are 344 shells and 982 basis functions

 Total QAlloc Memory Limit 110000 MB
 Mega-Array Size       188 MB
 MEM_STATIC part       192 MB
 Discretize the solute cavity surface with Lebedev spheres
	Using 110 Lebedev grid points for each H atom
	Using 194 Lebedev grid points for other atoms
	Atomic van der Waals radii will be scaled by 1.20
 Remove points where switching function is < 1.0e-08
 Keep 2550 surface tesserae and discard 4008 interior tesserae
 Molecular Surface Area = 357.801 Angst**2
 Requested basis set is rimp2-cc-pVTZ
 There are 750 shells and 2588 basis functions
 A cutoff of  1.0D-10 yielded  31716 shell pairs
 There are    244298 function pairs (    317408 Cartesian)
 Smallest overlap matrix eigenvalue = 9.64E-06

 Q-Chem warning in module stvman/mkSTV.C, line 323:

 Overlap eigenvalue is smaller than square root of threshold
 Use THRESH >= 12 to get rid of this warning


 Scale SEOQF with 1.000000e-01/1.000000e-02/1.000000e-02

 Standard Electronic Orientation quadrupole field applied
 Nucleus-field energy     =     0.0000000106 hartrees
 Guess from superposition of atomic densities
 Warning:  Energy on first SCF cycle will be non-variational
 SAD guess density has 194.000000 electrons

 -----------------------------------------------------------------------
  General SCF calculation program by
  Eric Jon Sundstrom, Paul Horn, Yuezhi Mao, Dmitri Zuev, Alec White,
  David Stuck, Shaama M.S., Shane Yost, Joonho Lee, David Small,
  Daniel Levine, Susi Lehtola, Hugh Burton, Evgeny Epifanovsky,
  Bang C. Huynh
 -----------------------------------------------------------------------
 Hartree-Fock
 using 64 threads for integral computing
 -------------------------------------------------------
 OpenMP Integral computing Module                
 Release: version 1.0, May 2013, Q-Chem Inc. Pittsburgh 
 -------------------------------------------------------
 A restricted SCF calculation will be
 performed using DIIS
 SCF converges when DIIS error is below 1.0e-06
 ---------------------------------------
  Cycle       Energy         DIIS error
 ---------------------------------------
    1   -1581.4395031380      1.87e-02  
    2   -1570.0908657068      2.08e-03  
    3   -1570.4165970162      1.61e-03  
    4   -1570.6420977156      2.60e-04  
    5   -1570.6542929915      7.66e-05  
    6   -1570.6553613062      2.83e-05  
    7   -1570.6556130342      1.46e-05  
    8   -1570.6556961506      5.90e-06  
    9   -1570.6557096695      2.28e-06  
   10   -1570.6557119803      8.36e-07  Convergence criterion met
 ---------------------------------------
 SCF time:   CPU 5735.92s  wall 239.00s 

************** Final PCM Free Energy Summary **************
 G_electrostatic  =      -0.02221778 hartree =     -13.94186520 kcal/mol
 G_cavitation     =       0.00000000 hartree =       0.00000000 kcal/mol
 G_dispersion     =       0.00000000 hartree =       0.00000000 kcal/mol
 G_repulsion      =       0.00000000 hartree =       0.00000000 kcal/mol
 --------------------------------------------------
 Non-electrostatic Free Energy =       0.00000000 hartree =       0.00000000 kcal/mol
 Total                         =      -0.02221778 hartree =     -13.94186520 kcal/mol
 --------------------------------------------------
 SCF Energy (H0 + V/2)                       =   -1570.65571198 
 Solute Internal Energy (H0)                 =   -1570.63349420 
 Total Free Energy (H0 + V/2 + non-elec)     =   -1570.65571198 hartree
                                             = -985601.33494791 kcal/mol
***********************************************************

 SCF   energy in the final basis set =    -1570.6557119803
 Total energy in the final basis set =    -1570.6557119803


 --------------------------------------------------------------
  Generalized many-body perturbation theory program
  by Joonho Lee, Fazle Rob, Xintian Feng, Evgeny Epifanovsky

 No regularization used 
 (reg. param. = 0.0000e+00)
  (P|Q)^-1/2 Time:  CPU 178.91 s  wall 3.23 s

 In RI-MP2 calculation: 
 # of frozen core orbitals: 31

 Components of the RIMP2 correlation energy:
        aaaa    correlation energy =        -0.6197073742 a.u.
        abab    correlation energy =        -3.3975075688 a.u.
        bbbb    correlation energy =        -0.6197073742 a.u.
        non-Brillouin singles      =        -0.0000000000 a.u.
        total same-spin energy     =        -1.2394147483 a.u.
        total opposite-spin energy =        -3.3975075688 a.u.

 Total  RIMP2   correlation energy =        -4.6369223171 a.u.
        RIMP2         total energy =     -1575.2926342974 a.u.

 RI-MP2 Energy Time:  CPU 1958.68 s  wall 34.04 s
 
 --------------------------------------------------------------
 
                    Orbital Energies (a.u.)
 --------------------------------------------------------------
 
 Alpha MOs
 -- Occupied --
-91.9773 -20.5592 -20.5591 -20.5571 -20.5543 -15.6323 -15.6317 -11.4003
-11.4002 -11.3921 -11.3914 -11.3216 -11.3026 -11.3016 -11.3000 -11.2958
-11.2943 -11.2901 -11.2879 -11.2838 -11.2795 -11.2790 -11.2710 -11.2655
-11.2649 -11.2612 -11.2435  -8.9769  -6.6573  -6.6560  -6.6552  -1.4328
 -1.4254  -1.4076  -1.4048  -1.2698  -1.2668  -1.2174  -1.1726  -1.1428
 -1.1171  -1.0621  -1.0500  -0.9934  -0.9896  -0.9809  -0.9596  -0.9470
 -0.8977  -0.8806  -0.8785  -0.8635  -0.7938  -0.7786  -0.7770  -0.7602
 -0.7323  -0.7263  -0.7029  -0.6934  -0.6894  -0.6748  -0.6682  -0.6635
 -0.6576  -0.6410  -0.6388  -0.6367  -0.6276  -0.6148  -0.5843  -0.5831
 -0.5816  -0.5752  -0.5710  -0.5652  -0.5628  -0.5564  -0.5562  -0.5494
 -0.5330  -0.5250  -0.5214  -0.5193  -0.4898  -0.4732  -0.4680  -0.4637
 -0.4572  -0.4327  -0.4212  -0.4105  -0.3948  -0.3754  -0.3428  -0.3378
 -0.2961
 -- Virtual --
 -0.0203   0.0549   0.0674   0.1073   0.1248   0.1557   0.1577   0.1603
  0.1662   0.1800   0.1813   0.1848   0.1876   0.2015   0.2073   0.2145
  0.2269   0.2274   0.2283   0.2370   0.2574   0.2607   0.2679   0.2727
  0.2807   0.3076   0.3127   0.3154   0.3255   0.3305   0.3339   0.3391
  0.3448   0.3513   0.3532   0.3564   0.3613   0.3633   0.3750   0.3776
  0.3829   0.3884   0.3943   0.3964   0.4018   0.4079   0.4111   0.4183
  0.4254   0.4359   0.4361   0.4387   0.4429   0.4441   0.4538   0.4581
  0.4600   0.4645   0.4700   0.4719   0.4773   0.4801   0.4891   0.4956
  0.5036   0.5080   0.5104   0.5131   0.5172   0.5248   0.5302   0.5316
  0.5344   0.5400   0.5504   0.5540   0.5545   0.5604   0.5655   0.5670
  0.5746   0.5792   0.5829   0.5855   0.5915   0.5966   0.5997   0.6027
  0.6040   0.6076   0.6122   0.6163   0.6222   0.6256   0.6261   0.6288
  0.6351   0.6365   0.6383   0.6424   0.6458   0.6589   0.6621   0.6737
  0.6873   0.6918   0.6934   0.6999   0.7066   0.7128   0.7169   0.7325
  0.7355   0.7394   0.7422   0.7545   0.7555   0.7600   0.7655   0.7712
  0.7774   0.7817   0.7920   0.7993   0.8075   0.8108   0.8171   0.8285
  0.8333   0.8361   0.8401   0.8461   0.8504   0.8508   0.8605   0.8655
  0.8662   0.8689   0.8810   0.8877   0.8885   0.8989   0.9010   0.9124
  0.9166   0.9202   0.9247   0.9272   0.9332   0.9380   0.9393   0.9473
  0.9539   0.9566   0.9652   0.9698   0.9739   0.9765   0.9847   0.9888
  0.9976   0.9987   1.0020   1.0074   1.0121   1.0221   1.0240   1.0316
  1.0383   1.0445   1.0595   1.0628   1.0666   1.0685   1.0712   1.0776
  1.0795   1.0805   1.0861   1.0924   1.0966   1.1027   1.1069   1.1124
  1.1163   1.1301   1.1342   1.1409   1.1427   1.1489   1.1518   1.1587
  1.1669   1.1691   1.1779   1.1817   1.1830   1.1892   1.1976   1.2001
  1.2107   1.2112   1.2183   1.2253   1.2269   1.2310   1.2328   1.2390
  1.2444   1.2507   1.2583   1.2664   1.2675   1.2702   1.2937   1.3055
  1.3157   1.3246   1.3275   1.3350   1.3373   1.3430   1.3571   1.3654
  1.3690   1.3745   1.3816   1.3853   1.3896   1.3961   1.4064   1.4163
  1.4196   1.4321   1.4365   1.4424   1.4507   1.4568   1.4633   1.4653
  1.4793   1.4817   1.4874   1.4905   1.4944   1.5094   1.5145   1.5259
  1.5320   1.5367   1.5459   1.5488   1.5563   1.5615   1.5639   1.5700
  1.5715   1.5777   1.5875   1.5954   1.6061   1.6106   1.6253   1.6325
  1.6375   1.6449   1.6528   1.6596   1.6670   1.6792   1.6809   1.6972
  1.7061   1.7142   1.7231   1.7277   1.7309   1.7373   1.7491   1.7518
  1.7611   1.7707   1.7748   1.7832   1.7930   1.8029   1.8049   1.8219
  1.8314   1.8346   1.8428   1.8496   1.8558   1.8613   1.8638   1.8740
  1.8794   1.8896   1.9089   1.9146   1.9214   1.9358   1.9403   1.9494
  1.9530   1.9683   1.9730   1.9860   1.9885   2.0156   2.0289   2.0397
  2.0596   2.0767   2.0896   2.0991   2.1105   2.1204   2.1373   2.1431
  2.1561   2.1633   2.1767   2.1982   2.2079   2.2205   2.2257   2.2424
  2.2500   2.2578   2.2720   2.2757   2.2867   2.2936   2.2999   2.3125
  2.3260   2.3330   2.3356   2.3543   2.3589   2.3697   2.3804   2.4112
  2.4160   2.4315   2.4397   2.4449   2.4527   2.4568   2.4619   2.4784
  2.4796   2.4960   2.4976   2.5053   2.5128   2.5312   2.5339   2.5412
  2.5567   2.5679   2.5839   2.5858   2.5949   2.5980   2.6071   2.6162
  2.6182   2.6243   2.6481   2.6505   2.6570   2.6617   2.6652   2.6765
  2.6784   2.6860   2.6952   2.7021   2.7128   2.7222   2.7277   2.7349
  2.7410   2.7437   2.7528   2.7610   2.7695   2.7753   2.7787   2.7941
  2.7950   2.8126   2.8232   2.8297   2.8413   2.8502   2.8511   2.8573
  2.8704   2.8743   2.8780   2.8845   2.8901   2.8928   2.8987   2.9081
  2.9145   2.9192   2.9298   2.9353   2.9514   2.9525   2.9649   2.9738
  2.9743   2.9783   2.9827   3.0002   3.0010   3.0077   3.0130   3.0195
  3.0234   3.0386   3.0427   3.0460   3.0487   3.0597   3.0737   3.0797
  3.0868   3.0922   3.0975   3.1009   3.1040   3.1114   3.1125   3.1203
  3.1252   3.1294   3.1332   3.1587   3.1678   3.1736   3.1769   3.1792
  3.1895   3.1962   3.2049   3.2074   3.2145   3.2153   3.2238   3.2268
  3.2295   3.2341   3.2391   3.2458   3.2508   3.2534   3.2565   3.2667
  3.2692   3.2779   3.2811   3.2893   3.2924   3.2945   3.2977   3.3016
  3.3085   3.3099   3.3138   3.3197   3.3237   3.3263   3.3342   3.3369
  3.3393   3.3437   3.3468   3.3584   3.3603   3.3626   3.3668   3.3714
  3.3822   3.3857   3.3930   3.3986   3.3996   3.4026   3.4107   3.4185
  3.4228   3.4287   3.4340   3.4402   3.4447   3.4490   3.4533   3.4586
  3.4603   3.4649   3.4678   3.4748   3.4773   3.4867   3.4894   3.4973
  3.4985   3.5003   3.5061   3.5124   3.5180   3.5201   3.5232   3.5264
  3.5312   3.5369   3.5408   3.5493   3.5523   3.5649   3.5785   3.5822
  3.5930   3.5948   3.6013   3.6018   3.6106   3.6182   3.6274   3.6313
  3.6332   3.6396   3.6408   3.6498   3.6512   3.6683   3.6719   3.6745
  3.6780   3.6821   3.6926   3.7023   3.7056   3.7099   3.7124   3.7278
  3.7315   3.7360   3.7397   3.7441   3.7523   3.7565   3.7585   3.7644
  3.7794   3.7819   3.7830   3.7862   3.7951   3.7969   3.8011   3.8056
  3.8205   3.8240   3.8342   3.8378   3.8402   3.8428   3.8548   3.8575
  3.8634   3.8701   3.8751   3.8871   3.8925   3.8973   3.9152   3.9256
  3.9315   3.9366   3.9398   3.9447   3.9483   3.9566   3.9786   3.9795
  3.9865   4.0008   4.0106   4.0165   4.0213   4.0315   4.0419   4.0450
  4.0578   4.0622   4.0667   4.0860   4.0865   4.1041   4.1087   4.1174
  4.1182   4.1337   4.1371   4.1404   4.1449   4.1589   4.1634   4.1720
  4.1748   4.1883   4.1911   4.2023   4.2057   4.2161   4.2330   4.2384
  4.2455   4.2569   4.2688   4.2740   4.2753   4.2813   4.2856   4.2887
  4.2960   4.3004   4.3031   4.3072   4.3300   4.3328   4.3384   4.3415
  4.3528   4.3557   4.3639   4.3662   4.3704   4.3720   4.3752   4.3848
  4.3965   4.3999   4.4042   4.4141   4.4161   4.4198   4.4260   4.4391
  4.4587   4.4639   4.4683   4.4850   4.5070   4.5090   4.5144   4.5197
  4.5230   4.5311   4.5405   4.5473   4.5482   4.5519   4.5648   4.5751
  4.5789   4.5830   4.5917   4.6001   4.6151   4.6189   4.6258   4.6331
  4.6439   4.6572   4.6661   4.6711   4.6742   4.6844   4.6880   4.6981
  4.7082   4.7253   4.7363   4.7373   4.7671   4.7719   4.7795   4.7844
  4.8237   4.8262   4.8324   4.8350   4.8581   4.8658   4.8716   4.8803
  4.8988   4.9171   4.9215   4.9383   4.9462   4.9731   4.9794   4.9819
  5.0054   5.0155   5.0300   5.0386   5.0483   5.0524   5.0543   5.0636
  5.0998   5.1031   5.1082   5.1163   5.1249   5.1345   5.1463   5.1521
  5.1697   5.1762   5.1936   5.1957   5.2045   5.2386   5.2500   5.2554
  5.2699   5.2764   5.2923   5.2988   5.3067   5.3231   5.3309   5.3538
  5.3598   5.3950   5.3978   5.4023   5.4251   5.4320   5.4464   5.4489
  5.4874   5.5073   5.5082   5.5117   5.5160   5.5450   5.5496   5.5535
  5.5594   5.5620   5.5733   5.5757   5.5771   5.5908   5.6063   5.6109
  5.6263   5.6344   5.6519   5.6541   5.6650   5.6742   5.6761   5.6915
  5.6986   5.7146   5.7362   5.7487   5.7527   5.7575   5.7623   5.7753
  5.7838   5.7857   5.8203   5.8336   5.8674   5.8906   5.9112   5.9373
  5.9476   5.9684   6.0179   6.0224   6.0258   6.0328   6.0433   6.0642
  6.0827   6.0996   6.1061   6.1150   6.1387   6.1826   6.2073   6.2105
  6.2171   6.2200   6.2244   6.2661   6.2750   6.2875   6.3120   6.3491
  6.3509   6.3713   6.4453   6.4607   6.4835   6.5279   6.5608   6.5661
  6.5888   6.6189   6.6392   6.6456   6.6574   6.6917   6.7243   6.8338
  6.8395   6.8819   6.8855   6.8971   6.9106   6.9321   6.9779   7.0795
  7.1320   7.1473   7.1856   7.2136   7.2690   7.3319   7.3413   7.3434
  7.3549   7.4668   7.5468   7.5571   7.5746   7.5802   7.6315   7.6351
  7.6771   7.7023   7.7404   8.4398   9.9245  10.3456  11.1817  11.2363
 11.7049  11.7731  12.0097  12.3951  12.4559  12.7740  12.8570  12.9442
 13.4148  13.5436  13.8200  13.9353  14.0533  14.2037  14.3272  14.3801
 14.5162  14.7501  15.3518  15.7629  15.9969
 --------------------------------------------------------------
 
          Ground-State Mulliken Net Atomic Charges

     Atom                 Charge (a.u.)
  ----------------------------------------
      1 C                    -0.146028
      2 C                    -0.111409
      3 C                    -0.028938
      4 C                    -0.003009
      5 H                     0.188162
      6 C                     0.004477
      7 C                     0.082354
      8 C                     0.001529
      9 C                    -0.077559
     10 C                    -0.131197
     11 C                     0.067499
     12 H                     0.181578
     13 C                     0.358858
     14 C                     0.364105
     15 N                    -0.101857
     16 C                     0.359321
     17 C                     0.372871
     18 N                    -0.092678
     19 O                    -0.463687
     20 O                    -0.476937
     21 O                    -0.482150
     22 O                    -0.450891
     23 C                    -0.201208
     24 H                     0.141330
     25 H                     0.112453
     26 H                     0.112478
     27 C                    -0.198397
     28 H                     0.135073
     29 H                     0.113678
     30 H                     0.113571
     31 H                     0.212684
     32 C                     0.001914
     33 S                     0.100286
     34 C                    -0.230930
     35 C                    -0.175407
     36 C                    -0.230693
     37 H                     0.187265
     38 H                     0.184298
     39 H                     0.207186
  ----------------------------------------
  Sum of atomic charges =     0.000000

 -----------------------------------------------------------------
                    Cartesian Multipole Moments
 -----------------------------------------------------------------
    Charge (ESU x 10^10)
                 0.0000
    Dipole Moment (Debye)
         X       0.1720      Y       1.1085      Z      -0.2533
       Tot       1.1500
    Quadrupole Moments (Debye-Ang)
        XX    -164.4055     XY       1.7464     YY    -169.9446
        XZ       3.2350     YZ       0.3477     ZZ    -175.3030
    Octopole Moments (Debye-Ang^2)
       XXX     -18.4327    XXY     467.5452    XYY       0.3134
       YYY    1606.2330    XXZ     -33.0775    XYZ     -12.7500
       YYZ     -23.2970    XZZ      -3.6534    YZZ     556.0249
       ZZZ    -102.2525
    Hexadecapole Moments (Debye-Ang^3)
      XXXX    -380.2194   XXXY      12.3511   XXYY   -2741.4495
      XYYY     118.0415   YYYY  -17271.2847   XXXZ     478.9327
      XXYZ    -122.0328   XYYZ     267.7748   YYYZ    -780.1264
      XXZZ   -1072.6375   XYZZ     -48.3357   YYZZ   -4206.5416
      XZZZ     527.0475   YZZZ     -47.4463   ZZZZ   -6242.0774
 -----------------------------------------------------------------
 Total job time:  288.44s(wall), 7865.30s(cpu) 
 Fri Dec 15 15:00:36 2023

        *************************************************************
        *                                                           *
        *  Thank you very much for using Q-Chem.  Have a nice day.  *
        *                                                           *
        *************************************************************


0 sent ACK to 0 
now end server 0 ... 
cleanup process ... done
remove work dirs ./qchem404074.0 -- ./qchem404074.0
rm -rf ./qchem404074.0
rm -rf ./qchem404074
