You are running Q-Chem version: 5.4.0

#
# job setting
#
local host:  exp-5-28
current dir: /home/rramji/project-csd799/aromodel/pndit-qchem/rotation_run
input file:  Dimethyl_Naphthalene_Dicarboximide_Phi_60_Theta_250_Thiophene.qcin
output file: 
nprocs     : 1
nthreads   : 64
#
# qchem installation setting
#
QC:          /cm/shared/apps/spack/cpu/opt/spack/linux-centos8-zen2/gcc-10.2.0/qchem-5.4-akfmr7b3t57bfs6qan3padb2wnb2i7cl
QCAUX:       /cm/shared/apps/spack/cpu/opt/spack/linux-centos8-zen2/gcc-10.2.0/qchem-5.4-akfmr7b3t57bfs6qan3padb2wnb2i7cl/qcaux
QCPROG:      /cm/shared/apps/spack/cpu/opt/spack/linux-centos8-zen2/gcc-10.2.0/qchem-5.4-akfmr7b3t57bfs6qan3padb2wnb2i7cl/exe/qcprog.exe
QCPROG_S:    /cm/shared/apps/spack/cpu/opt/spack/linux-centos8-zen2/gcc-10.2.0/qchem-5.4-akfmr7b3t57bfs6qan3padb2wnb2i7cl/exe/qcprog.exe_s
PARALLEL:    -DPARALLEL
QCMPI:       mpich
#
# qchem directory setting
#
qcrun:       qchem208249
QCSCRATCH:   .
QCLOCALSCR:  
QCTMPDIR:    .
QCFILEPREF:  ./qchem208249
QCSAVEDIR:   
workdirs:    ./qchem208249
workdir0:    ./qchem208249
partmpdirs =  
#
# parallel setting
#
QCRSH:           ssh
QCMPI:           mpich
QCMPIRUN:        /cm/shared/apps/spack/cpu/opt/spack/linux-centos8-zen2/gcc-10.2.0/qchem-5.4-akfmr7b3t57bfs6qan3padb2wnb2i7cl/bin/mpi/mpirun_qchem
QCMACHINEFILE:   ./qchem208249/hostfile
exp-5-28

#
# env setting
#
exported envs:   QC QCAUX QCSCRATCH QCRUNNAME QCFILEPREF QCPROG QCPROG_S GUIFILE

Running Job 1 of 1 Dimethyl_Naphthalene_Dicarboximide_Phi_60_Theta_250_Thiophene.qcin
qchem Dimethyl_Naphthalene_Dicarboximide_Phi_60_Theta_250_Thiophene.qcin_208249.0 ./qchem208249/ 1
/cm/shared/apps/spack/cpu/opt/spack/linux-centos8-zen2/gcc-10.2.0/qchem-5.4-akfmr7b3t57bfs6qan3padb2wnb2i7cl/bin/mpi/mpirun_qchem -machinefile ./qchem208249/hostfile -np 1 /cm/shared/apps/spack/cpu/opt/spack/linux-centos8-zen2/gcc-10.2.0/qchem-5.4-akfmr7b3t57bfs6qan3padb2wnb2i7cl/exe/qcprog.exe Dimethyl_Naphthalene_Dicarboximide_Phi_60_Theta_250_Thiophene.qcin_208249.0 ./qchem208249/

Process 0 of 1 is on exp-5-28 - thread support 0
initial socket setup ...start
initial socket setup ...done 
now start server 0 ... 
                  Welcome to Q-Chem
     A Quantum Leap Into The Future Of Chemistry


 Q-Chem 5.4, Q-Chem, Inc., Pleasanton, CA (2021)

 License issued to: University of California, San Diego (site)

 E. Epifanovsky,  A. T. B. Gilbert,  Xintian Feng,  Joonho Lee,  Yuezhi Mao,  
 N. Mardirossian,  P. Pokhilko,  A. White,  M. Wormit,  M. P. Coons,  
 A. L. Dempwolff,  Zhengting Gan,  D. Hait,  P. R. Horn,  L. D. Jacobson,  
 I. Kaliman,  J. Kussmann,  A. W. Lange,  Ka Un Lao,  D. S. Levine,  Jie Liu,  
 S. C. McKenzie,  A. F. Morrison,  K. Nanda,  F. Plasser,  D. R. Rehn,  
 M. L. Vidal,  Zhi-Qiang You,  Ying Zhu,  B. Alam,  B. Albrecht,  
 A. Aldossary,  E. Alguire,  J. H. Andersen,  D. Barton,  K. Begam,  A. Behn,  
 Y. A. Bernard,  E. J. Berquist,  H. Burton,  A. Carreras,  K. Carter-Fenk,  
 R. Chakraborty,  A. D. Chien,  K. D. Closser,  V. Cofer-Shabica,  
 S. Dasgupta,  Jia Deng,  M. de Wergifosse,  M. Diedenhofen,  Hainam Do,  
 S. Ehlert,  Po-Tung Fang,  S. Fatehi,  Qingguo Feng,  J. Gayvert,  
 Qinghui Ge,  G. Gidofalvi,  M. Goldey,  J. Gomes,  C. Gonzalez-Espinoza,  
 S. Gulania,  A. Gunina,  M. W. D. Hanson-Heine,  P. H. P. Harbach,  
 A. W. Hauser,  M. F. Herbst,  M. Hernandez Vera,  M. Hodecker,  
 Z. C. Holden,  S. Houck,  Xunkun Huang,  Kerwin Hui,  B. C. Huynh,  
 M. Ivanov,  Hyunjun Ji,  Hanjie Jiang,  B. Kaduk,  S. Kaehler,  
 K. Khistyaev,  Jaehoon Kim,  P. Klunzinger,  Z. Koczor-Benda,  
 Joong Hoon Koh,  D. Kosenkov,  L. Koulias,  T. Kowalczyk,  C. M. Krauter,  
 K. Kue,  A. Kunitsa,  T. Kus,  A. Landau,  K. V. Lawler,  D. Lefrancois,  
 S. Lehtola,  Rain Li,  Yi-Pei Li,  Jiashu Liang,  M. Liebenthal,  
 Hung-Hsuan Lin,  You-Sheng Lin,  Fenglai Liu,  Kuan-Yu Liu,  
 M. Loipersberger,  A. Luenser,  A. Manjanath,  P. Manohar,  E. Mansoor,  
 S. F. Manzer,  Shan-Ping Mao,  A. V. Marenich,  T. Markovich,  S. Mason,  
 S. A. Maurer,  P. F. McLaughlin,  M. F. S. J. Menger,  J.-M. Mewes,  
 S. A. Mewes,  P. Morgante,  J. W. Mullinax,  T. S. Nguyen-Beck,  
 K. J. Oosterbaan,  G. Paran,  Alexander C. Paul,  Suranjan K. Paul,  
 F. Pavosevic,  Zheng Pei,  S. Prager,  E. I. Proynov,  E. Ramos,  B. Rana,  
 A. E. Rask,  A. Rettig,  R. M. Richard,  F. Rob,  E. Rossomme,  T. Scheele,  
 M. Scheurer,  M. Schneider,  N. Sergueev,  S. M. Sharada,  W. Skomorowski,  
 D. W. Small,  C. J. Stein,  Yu-Chuan Su,  E. J. Sundstrom,  Zhen Tao,  
 J. Thirman,  T. Tsuchimochi,  N. M. Tubman,  S. P. Veccham,  O. Vydrov,  
 J. Wenzel,  J. Witte,  A. Yamada,  Kun Yao,  S. Yeganeh,  S. R. Yost,  
 A. Zech,  Igor Ying Zhang,  Xing Zhang,  Yu Zhang,  D. Zuev,  
 A. Aspuru-Guzik,  A. T. Bell,  N. A. Besley,  K. B. Bravaya,  B. R. Brooks,  
 D. Casanova,  Jeng-Da Chai,  S. Coriani,  C. J. Cramer,  
 A. E. DePrince, III,  R. A. DiStasio Jr.,  A. Dreuw,  B. D. Dunietz,  
 T. R. Furlani,  W. A. Goddard III,  S. Grimme,  S. Hammes-Schiffer,  
 T. Head-Gordon,  W. J. Hehre,  Chao-Ping Hsu,  T.-C. Jagau,  Yousung Jung,  
 A. Klamt,  Jing Kong,  D. S. Lambrecht,  WanZhen Liang,  N. J. Mayhall,  
 C. W. McCurdy,  J. B. Neaton,  C. Ochsenfeld,  J. A. Parkhill,  R. Peverati,  
 V. A. Rassolov,  Yihan Shao,  L. V. Slipchenko,  T. Stauch,  R. P. Steele,  
 J. E. Subotnik,  A. J. W. Thom,  A. Tkatchenko,  D. G. Truhlar,  
 T. Van Voorhis,  T. A. Wesolowski,  K. B. Whaley,  H. L. Woodcock III,  
 P. M. Zimmerman,  S. Faraji,  P. M. W. Gill,  M. Head-Gordon,  
 J. M. Herbert,  A. I. Krylov

 Contributors to earlier versions of Q-Chem not listed above: 
 R. D. Adamson,  B. Austin,  R. Baer,  J. Baker,  G. J. O. Beran,  
 K. Brandhorst,  S. T. Brown,  E. F. C. Byrd,  A. K. Chakraborty,  
 G. K. L. Chan,  Chun-Min Chang,  Yunqing Chen,  C.-L. Cheng,  
 Siu Hung Chien,  D. M. Chipman,  D. L. Crittenden,  H. Dachsel,  
 R. J. Doerksen,  A. D. Dutoi,  R. G. Edgar,  J. Fosso-Tande,  
 L. Fusti-Molnar,  D. Ghosh,  A. Ghysels,  A. Golubeva-Zadorozhnaya,  
 J. Gonthier,  M. S. Gordon,  S. R. Gwaltney,  G. Hawkins,  J. E. Herr,  
 A. Heyden,  S. Hirata,  E. G. Hohenstein,  G. Kedziora,  F. J. Keil,  
 C. Kelley,  Jihan Kim,  R. A. King,  R. Z. Khaliullin,  P. P. Korambath,  
 W. Kurlancheek,  A. Laurent,  A. M. Lee,  M. S. Lee,  S. V. Levchenko,  
 Ching Yeh Lin,  D. Liotard,  E. Livshits,  R. C. Lochan,  I. Lotan,  
 L. A. Martinez-Martinez,  P. E. Maslen,  N. Nair,  D. P. O'Neill,  
 D. Neuhauser,  E. Neuscamman,  C. M. Oana,  R. Olivares-Amaya,  R. Olson,  
 T. M. Perrine,  B. Peters,  P. A. Pieniazek,  A. Prociuk,  Y. M. Rhee,  
 J. Ritchie,  M. A. Rohrdanz,  E. Rosta,  N. J. Russ,  H. F. Schaefer III,  
 M. W. Schmidt,  N. E. Schultz,  S. Sharma,  N. Shenvi,  C. D. Sherrill,  
 A. C. Simmonett,  A. Sodt,  T. Stein,  D. Stuck,  K. S. Thanthiriwatte,  
 V. Vanovschi,  L. Vogt,  Tao Wang,  A. Warshel,  M. A. Watson,  
 C. F. Williams,  Q. Wu,  X. Xu,  Jun Yang,  W. Zhang,  Yan Zhao

 Please cite Q-Chem as follows:
 Y. Shao et al., Mol. Phys. 113, 184-215 (2015)
 DOI: 10.1080/00268976.2014.952696

 Q-Chem 5.4.0 for Intel X86 EM64T Linux

 Parts of Q-Chem use Armadillo 9.800.1 (Horizon Scraper).
 http://arma.sourceforge.net/

 Q-Chem begins on Fri Dec 15 15:26:12 2023  

 Host: 
0

     Scratch files written to ./qchem208249//
 May1621 |scratch|qcdevops|jenkins|workspace|build_RNUM    
 Parallel job on  1  processors
 Processing $rem in /cm/shared/apps/spack/cpu/opt/spack/linux-centos8-zen2/gcc-10.2.0/qchem-5.4-akfmr7b3t57bfs6qan3padb2wnb2i7cl/config/preferences:
 Processing $rem in /home/rramji/.qchemrc:
 Symmetry turned off for PCM/SM12/SMD calculation
 Core orbitals will be frozen

 Checking the input file for inconsistencies... 	...done.

 Q-Chem warning in module forms1/BasisType.C, line 2236:

 You are not using the predefined 5D/6D in this basis set.


--------------------------------------------------------------
User input:
--------------------------------------------------------------
$molecule
0 1
C	-0.240927	-6.741404	0.089263
C	-1.467886	-6.155638	0.535973
C	0.777972	-5.791452	-0.281103
C	-1.729742	-4.803786	0.631036
H	-2.292903	-6.821518	0.836458
C	0.503614	-4.378638	-0.181995
C	-0.746756	-3.838032	0.272725
C	1.485437	-3.413062	-0.539954
C	-1.018915	-2.426473	0.371053
C	1.226557	-2.059348	-0.446381
C	-0.000000	-1.478216	-0.000000
H	2.052413	-1.394783	-0.747410
C	2.134128	-6.187987	-0.772747
C	2.829820	-3.798164	-1.029154
N	3.059182	-5.170003	-1.110828
C	-3.077731	-4.424987	1.121728
C	-2.375694	-2.036627	0.864069
N	-3.301101	-3.049156	1.201928
O	2.502830	-7.353131	-0.903908
O	3.697078	-2.986854	-1.345809
O	-3.934752	-5.248946	1.434422
O	-2.764177	-0.878829	1.003943
C	4.386939	-5.563799	-1.592981
H	4.429822	-6.664085	-1.607367
H	5.164489	-5.147101	-0.924504
H	4.553486	-5.148785	-2.605446
C	-4.608481	-2.587487	1.677308
H	-5.211969	-3.483329	1.898089
H	-5.094624	-1.964972	0.902337
H	-4.483092	-1.962932	2.582098
H	-0.066080	-7.822318	0.025963
C	0.000000	0.000000	0.000000
S	0.686805	0.396760	1.580530
C	2.105095	1.215640	0.904911
C	0.864201	0.499140	-0.985400
C	2.007514	1.159347	-0.493528
H	0.660136	0.381296	-2.059934
H	2.770388	1.599875	-1.152593
H	2.867745	1.656053	1.556025
$end

$rem
JOBTYPE		SP
EXCHANGE	HF
CORRELATION	pRIMP2
BASIS		cc-pvtz
METHOD		rimp2
AUX_BASIS	rimp2-cc-pvtz
SOLVENT_METHOD	PCM
PURECART	11111
SYMMETRY	false
MEM_TOTAL	110000
SCF_CONVERGENCE = 6
THRESH=10
GUI = 2
$end



$solvent
dielectric 4.90
$end
--------------------------------------------------------------
 ----------------------------------------------------------------
             Standard Nuclear Orientation (Angstroms)
    I     Atom           X                Y                Z
 ----------------------------------------------------------------
    1      C      -0.2409270000    -6.7414040000     0.0892630000
    2      C      -1.4678860000    -6.1556380000     0.5359730000
    3      C       0.7779720000    -5.7914520000    -0.2811030000
    4      C      -1.7297420000    -4.8037860000     0.6310360000
    5      H      -2.2929030000    -6.8215180000     0.8364580000
    6      C       0.5036140000    -4.3786380000    -0.1819950000
    7      C      -0.7467560000    -3.8380320000     0.2727250000
    8      C       1.4854370000    -3.4130620000    -0.5399540000
    9      C      -1.0189150000    -2.4264730000     0.3710530000
   10      C       1.2265570000    -2.0593480000    -0.4463810000
   11      C       0.0000000000    -1.4782160000     0.0000000000
   12      H       2.0524130000    -1.3947830000    -0.7474100000
   13      C       2.1341280000    -6.1879870000    -0.7727470000
   14      C       2.8298200000    -3.7981640000    -1.0291540000
   15      N       3.0591820000    -5.1700030000    -1.1108280000
   16      C      -3.0777310000    -4.4249870000     1.1217280000
   17      C      -2.3756940000    -2.0366270000     0.8640690000
   18      N      -3.3011010000    -3.0491560000     1.2019280000
   19      O       2.5028300000    -7.3531310000    -0.9039080000
   20      O       3.6970780000    -2.9868540000    -1.3458090000
   21      O      -3.9347520000    -5.2489460000     1.4344220000
   22      O      -2.7641770000    -0.8788290000     1.0039430000
   23      C       4.3869390000    -5.5637990000    -1.5929810000
   24      H       4.4298220000    -6.6640850000    -1.6073670000
   25      H       5.1644890000    -5.1471010000    -0.9245040000
   26      H       4.5534860000    -5.1487850000    -2.6054460000
   27      C      -4.6084810000    -2.5874870000     1.6773080000
   28      H      -5.2119690000    -3.4833290000     1.8980890000
   29      H      -5.0946240000    -1.9649720000     0.9023370000
   30      H      -4.4830920000    -1.9629320000     2.5820980000
   31      H      -0.0660800000    -7.8223180000     0.0259630000
   32      C       0.0000000000     0.0000000000     0.0000000000
   33      S       0.6868050000     0.3967600000     1.5805300000
   34      C       2.1050950000     1.2156400000     0.9049110000
   35      C       0.8642010000     0.4991400000    -0.9854000000
   36      C       2.0075140000     1.1593470000    -0.4935280000
   37      H       0.6601360000     0.3812960000    -2.0599340000
   38      H       2.7703880000     1.5998750000    -1.1525930000
   39      H       2.8677450000     1.6560530000     1.5560250000
 ----------------------------------------------------------------
 Nuclear Repulsion Energy =        2526.97378715 hartrees
 There are       97 alpha and       97 beta electrons
 Requested basis set is cc-pVTZ
 There are 344 shells and 982 basis functions

 Total QAlloc Memory Limit 110000 MB
 Mega-Array Size       188 MB
 MEM_STATIC part       192 MB
 Discretize the solute cavity surface with Lebedev spheres
	Using 110 Lebedev grid points for each H atom
	Using 194 Lebedev grid points for other atoms
	Atomic van der Waals radii will be scaled by 1.20
 Remove points where switching function is < 1.0e-08
 Keep 2512 surface tesserae and discard 4046 interior tesserae
 Molecular Surface Area = 364.410 Angst**2
 Requested basis set is rimp2-cc-pVTZ
 There are 750 shells and 2588 basis functions
 A cutoff of  1.0D-10 yielded  32510 shell pairs
 There are    250208 function pairs (    325034 Cartesian)
 Smallest overlap matrix eigenvalue = 8.69E-06

 Q-Chem warning in module stvman/mkSTV.C, line 323:

 Overlap eigenvalue is smaller than square root of threshold
 Use THRESH >= 12 to get rid of this warning


 Scale SEOQF with 1.000000e-01/1.000000e-02/1.000000e-01

 Standard Electronic Orientation quadrupole field applied
 Nucleus-field energy     =     0.0000000423 hartrees
 Guess from superposition of atomic densities
 Warning:  Energy on first SCF cycle will be non-variational
 SAD guess density has 194.000000 electrons

 -----------------------------------------------------------------------
  General SCF calculation program by
  Eric Jon Sundstrom, Paul Horn, Yuezhi Mao, Dmitri Zuev, Alec White,
  David Stuck, Shaama M.S., Shane Yost, Joonho Lee, David Small,
  Daniel Levine, Susi Lehtola, Hugh Burton, Evgeny Epifanovsky,
  Bang C. Huynh
 -----------------------------------------------------------------------
 Hartree-Fock
 using 64 threads for integral computing
 -------------------------------------------------------
 OpenMP Integral computing Module                
 Release: version 1.0, May 2013, Q-Chem Inc. Pittsburgh 
 -------------------------------------------------------
 A restricted SCF calculation will be
 performed using DIIS
 SCF converges when DIIS error is below 1.0e-06
 ---------------------------------------
  Cycle       Energy         DIIS error
 ---------------------------------------
    1   -1581.4274843139      1.88e-02  
    2   -1570.0644678419      2.08e-03  
    3   -1570.3905058218      1.61e-03  
    4   -1570.6160682731      2.58e-04  
    5   -1570.6283519420      7.82e-05  
    6   -1570.6295012494      2.93e-05  
    7   -1570.6297855108      1.49e-05  
    8   -1570.6298831793      6.94e-06  
    9   -1570.6299021165      2.68e-06  
   10   -1570.6299063757      1.21e-06  
   11   -1570.6299072170      5.04e-07  Convergence criterion met
 ---------------------------------------
 SCF time:   CPU 6423.07s  wall 240.00s 

************** Final PCM Free Energy Summary **************
 G_electrostatic  =      -0.02639151 hartree =     -16.56091976 kcal/mol
 G_cavitation     =       0.00000000 hartree =       0.00000000 kcal/mol
 G_dispersion     =       0.00000000 hartree =       0.00000000 kcal/mol
 G_repulsion      =       0.00000000 hartree =       0.00000000 kcal/mol
 --------------------------------------------------
 Non-electrostatic Free Energy =       0.00000000 hartree =       0.00000000 kcal/mol
 Total                         =      -0.02639151 hartree =     -16.56091976 kcal/mol
 --------------------------------------------------
 SCF Energy (H0 + V/2)                       =   -1570.62990722 
 Solute Internal Energy (H0)                 =   -1570.60351571 
 Total Free Energy (H0 + V/2 + non-elec)     =   -1570.62990722 hartree
                                             = -985585.14221451 kcal/mol
***********************************************************

 SCF   energy in the final basis set =    -1570.6299072170
 Total energy in the final basis set =    -1570.6299072170


 --------------------------------------------------------------
  Generalized many-body perturbation theory program
  by Joonho Lee, Fazle Rob, Xintian Feng, Evgeny Epifanovsky

 No regularization used 
 (reg. param. = 0.0000e+00)
  (P|Q)^-1/2 Time:  CPU 105.60 s  wall 1.67 s

 In RI-MP2 calculation: 
 # of frozen core orbitals: 31

 Components of the RIMP2 correlation energy:
        aaaa    correlation energy =        -0.6193222742 a.u.
        abab    correlation energy =        -3.4005429835 a.u.
        bbbb    correlation energy =        -0.6193222742 a.u.
        non-Brillouin singles      =        -0.0000000000 a.u.
        total same-spin energy     =        -1.2386445484 a.u.
        total opposite-spin energy =        -3.4005429835 a.u.

 Total  RIMP2   correlation energy =        -4.6391875319 a.u.
        RIMP2         total energy =     -1575.2690947489 a.u.

 RI-MP2 Energy Time:  CPU 1837.26 s  wall 29.71 s
 
 --------------------------------------------------------------
 
                    Orbital Energies (a.u.)
 --------------------------------------------------------------
 
 Alpha MOs
 -- Occupied --
-91.9981 -20.5578 -20.5556 -20.5524 -20.5523 -15.6305 -15.6279 -11.3990
-11.3923 -11.3899 -11.3897 -11.3152 -11.3077 -11.3004 -11.2968 -11.2936
-11.2934 -11.2929 -11.2829 -11.2821 -11.2774 -11.2746 -11.2717 -11.2699
-11.2644 -11.2628 -11.2569  -8.9977  -6.6784  -6.6777  -6.6773  -1.4242
 -1.4208  -1.4035  -1.3999  -1.2662  -1.2626  -1.2178  -1.1911  -1.1402
 -1.1139  -1.0621  -1.0466  -0.9965  -0.9941  -0.9907  -0.9574  -0.9452
 -0.8947  -0.8767  -0.8730  -0.8564  -0.7941  -0.7764  -0.7740  -0.7664
 -0.7352  -0.7174  -0.7064  -0.6927  -0.6821  -0.6741  -0.6649  -0.6604
 -0.6550  -0.6426  -0.6357  -0.6315  -0.6266  -0.6116  -0.5897  -0.5847
 -0.5789  -0.5760  -0.5670  -0.5629  -0.5618  -0.5544  -0.5521  -0.5468
 -0.5361  -0.5264  -0.5165  -0.4986  -0.4816  -0.4775  -0.4648  -0.4591
 -0.4556  -0.4512  -0.4260  -0.4168  -0.4064  -0.3726  -0.3419  -0.3349
 -0.3161
 -- Virtual --
 -0.0152   0.0500   0.0694   0.0796   0.1163   0.1488   0.1582   0.1594
  0.1656   0.1674   0.1732   0.1847   0.1891   0.1900   0.2049   0.2086
  0.2188   0.2240   0.2284   0.2297   0.2373   0.2391   0.2627   0.2630
  0.2657   0.2901   0.3094   0.3139   0.3159   0.3224   0.3243   0.3302
  0.3396   0.3453   0.3496   0.3547   0.3583   0.3606   0.3660   0.3738
  0.3773   0.3811   0.3829   0.3962   0.3988   0.4006   0.4047   0.4105
  0.4127   0.4256   0.4274   0.4354   0.4399   0.4444   0.4486   0.4532
  0.4594   0.4651   0.4691   0.4701   0.4787   0.4845   0.4872   0.4923
  0.4972   0.4986   0.5074   0.5132   0.5149   0.5199   0.5275   0.5302
  0.5331   0.5385   0.5467   0.5508   0.5565   0.5603   0.5652   0.5703
  0.5722   0.5784   0.5837   0.5872   0.5882   0.5981   0.5992   0.6001
  0.6017   0.6052   0.6126   0.6147   0.6200   0.6240   0.6290   0.6295
  0.6337   0.6370   0.6388   0.6417   0.6473   0.6506   0.6595   0.6714
  0.6728   0.6921   0.6939   0.6977   0.7040   0.7080   0.7193   0.7207
  0.7237   0.7294   0.7353   0.7398   0.7556   0.7613   0.7622   0.7655
  0.7729   0.7756   0.7834   0.7900   0.7947   0.7986   0.8074   0.8159
  0.8192   0.8339   0.8354   0.8420   0.8459   0.8538   0.8553   0.8606
  0.8644   0.8680   0.8687   0.8769   0.8795   0.8881   0.8957   0.9046
  0.9099   0.9190   0.9250   0.9308   0.9323   0.9394   0.9420   0.9497
  0.9541   0.9634   0.9682   0.9713   0.9767   0.9845   0.9908   0.9946
  0.9974   1.0046   1.0097   1.0119   1.0175   1.0196   1.0316   1.0414
  1.0448   1.0479   1.0556   1.0613   1.0635   1.0706   1.0729   1.0790
  1.0834   1.0859   1.0887   1.0939   1.0959   1.1015   1.1080   1.1126
  1.1171   1.1276   1.1317   1.1370   1.1433   1.1531   1.1580   1.1634
  1.1656   1.1726   1.1740   1.1777   1.1881   1.1897   1.1996   1.2070
  1.2093   1.2119   1.2142   1.2279   1.2285   1.2379   1.2395   1.2434
  1.2502   1.2565   1.2651   1.2716   1.2795   1.2955   1.3056   1.3088
  1.3193   1.3292   1.3311   1.3369   1.3433   1.3496   1.3598   1.3685
  1.3771   1.3811   1.3838   1.3889   1.3930   1.3977   1.4050   1.4152
  1.4219   1.4297   1.4383   1.4448   1.4491   1.4555   1.4587   1.4685
  1.4766   1.4837   1.4874   1.4910   1.5037   1.5109   1.5152   1.5236
  1.5310   1.5329   1.5364   1.5467   1.5558   1.5560   1.5649   1.5686
  1.5745   1.5771   1.5870   1.5935   1.5993   1.6082   1.6149   1.6379
  1.6405   1.6456   1.6505   1.6697   1.6742   1.6774   1.6848   1.6910
  1.7021   1.7052   1.7100   1.7128   1.7344   1.7348   1.7433   1.7445
  1.7534   1.7715   1.7784   1.7843   1.7954   1.7994   1.8054   1.8092
  1.8192   1.8289   1.8411   1.8484   1.8518   1.8568   1.8642   1.8694
  1.8739   1.8875   1.8929   1.9139   1.9206   1.9274   1.9348   1.9464
  1.9573   1.9696   1.9719   1.9742   1.9882   1.9914   2.0116   2.0265
  2.0347   2.0467   2.0597   2.0698   2.0944   2.1098   2.1243   2.1298
  2.1405   2.1451   2.1593   2.1753   2.1768   2.1924   2.2130   2.2224
  2.2350   2.2461   2.2490   2.2617   2.2763   2.2890   2.2924   2.2992
  2.3101   2.3215   2.3275   2.3332   2.3528   2.3637   2.3695   2.3829
  2.4110   2.4275   2.4340   2.4350   2.4431   2.4507   2.4581   2.4605
  2.4676   2.4895   2.4920   2.5001   2.5083   2.5235   2.5299   2.5508
  2.5657   2.5735   2.5801   2.5896   2.5963   2.6062   2.6115   2.6168
  2.6231   2.6311   2.6337   2.6350   2.6610   2.6640   2.6715   2.6740
  2.6756   2.6872   2.6897   2.6958   2.7089   2.7177   2.7188   2.7252
  2.7310   2.7533   2.7599   2.7634   2.7711   2.7843   2.7911   2.7949
  2.8059   2.8271   2.8347   2.8377   2.8491   2.8527   2.8625   2.8681
  2.8759   2.8821   2.8863   2.8910   2.9015   2.9079   2.9127   2.9162
  2.9235   2.9299   2.9322   2.9376   2.9510   2.9534   2.9568   2.9686
  2.9789   2.9799   2.9884   2.9987   3.0018   3.0086   3.0119   3.0212
  3.0254   3.0352   3.0406   3.0416   3.0598   3.0638   3.0698   3.0872
  3.0913   3.0966   3.1005   3.1042   3.1060   3.1123   3.1213   3.1288
  3.1331   3.1341   3.1467   3.1540   3.1597   3.1731   3.1794   3.1867
  3.1888   3.1961   3.2011   3.2046   3.2104   3.2196   3.2220   3.2250
  3.2313   3.2355   3.2397   3.2451   3.2457   3.2555   3.2578   3.2616
  3.2701   3.2734   3.2802   3.2878   3.2904   3.2947   3.2956   3.3021
  3.3057   3.3088   3.3195   3.3254   3.3269   3.3303   3.3360   3.3395
  3.3480   3.3524   3.3538   3.3607   3.3651   3.3661   3.3679   3.3753
  3.3830   3.3893   3.3931   3.3963   3.3993   3.4031   3.4120   3.4201
  3.4241   3.4304   3.4329   3.4375   3.4419   3.4513   3.4575   3.4650
  3.4693   3.4724   3.4778   3.4795   3.4858   3.4918   3.4930   3.4931
  3.5007   3.5039   3.5062   3.5142   3.5195   3.5231   3.5289   3.5315
  3.5477   3.5495   3.5574   3.5663   3.5673   3.5754   3.5786   3.5869
  3.5956   3.5974   3.6098   3.6193   3.6254   3.6282   3.6322   3.6355
  3.6364   3.6414   3.6455   3.6474   3.6622   3.6674   3.6797   3.6813
  3.6886   3.6976   3.7012   3.7067   3.7146   3.7209   3.7264   3.7313
  3.7324   3.7368   3.7417   3.7531   3.7571   3.7607   3.7672   3.7767
  3.7782   3.7831   3.7869   3.7902   3.7975   3.7981   3.8059   3.8085
  3.8256   3.8282   3.8439   3.8480   3.8518   3.8543   3.8607   3.8683
  3.8701   3.8821   3.8865   3.8949   3.9004   3.9182   3.9198   3.9292
  3.9373   3.9451   3.9467   3.9509   3.9569   3.9652   3.9753   3.9807
  3.9890   4.0032   4.0143   4.0192   4.0229   4.0321   4.0375   4.0593
  4.0630   4.0659   4.0717   4.0795   4.0977   4.1047   4.1077   4.1224
  4.1258   4.1363   4.1428   4.1522   4.1555   4.1634   4.1672   4.1842
  4.1864   4.1892   4.1970   4.2121   4.2210   4.2250   4.2335   4.2512
  4.2532   4.2613   4.2653   4.2724   4.2825   4.2841   4.2952   4.2968
  4.3012   4.3065   4.3140   4.3208   4.3292   4.3334   4.3368   4.3438
  4.3490   4.3526   4.3658   4.3692   4.3704   4.3822   4.3851   4.3874
  4.3901   4.4050   4.4064   4.4173   4.4182   4.4244   4.4384   4.4479
  4.4636   4.4669   4.4753   4.4878   4.4968   4.5165   4.5227   4.5276
  4.5328   4.5364   4.5438   4.5503   4.5559   4.5709   4.5751   4.5778
  4.5819   4.5870   4.5986   4.6104   4.6150   4.6173   4.6292   4.6370
  4.6437   4.6481   4.6564   4.6703   4.6797   4.6817   4.6955   4.7069
  4.7163   4.7266   4.7342   4.7528   4.7634   4.7752   4.7850   4.7930
  4.7962   4.8192   4.8347   4.8435   4.8488   4.8668   4.8717   4.8770
  4.8856   4.9051   4.9238   4.9368   4.9393   4.9562   4.9635   4.9808
  4.9936   5.0025   5.0174   5.0351   5.0477   5.0534   5.0610   5.0658
  5.0893   5.1061   5.1143   5.1206   5.1266   5.1350   5.1400   5.1503
  5.1637   5.1703   5.1814   5.1874   5.1934   5.2245   5.2399   5.2577
  5.2629   5.2768   5.2810   5.2968   5.3103   5.3245   5.3322   5.3451
  5.3789   5.3966   5.4040   5.4146   5.4243   5.4331   5.4345   5.4533
  5.4833   5.4931   5.5091   5.5104   5.5147   5.5218   5.5473   5.5571
  5.5605   5.5608   5.5752   5.5773   5.5786   5.5939   5.6066   5.6123
  5.6255   5.6347   5.6434   5.6531   5.6558   5.6682   5.6774   5.6803
  5.6898   5.7075   5.7154   5.7336   5.7429   5.7582   5.7596   5.7707
  5.7780   5.7813   5.8143   5.8307   5.8504   5.8763   5.8930   5.9098
  5.9412   5.9574   5.9751   6.0034   6.0230   6.0243   6.0308   6.0355
  6.0838   6.0973   6.1018   6.1177   6.1250   6.1630   6.1884   6.2080
  6.2178   6.2211   6.2220   6.2527   6.2675   6.2789   6.3038   6.3433
  6.3538   6.3717   6.3960   6.4474   6.4659   6.5295   6.5629   6.5671
  6.5720   6.5892   6.6063   6.6491   6.6583   6.6614   6.7067   6.8317
  6.8346   6.8816   6.8868   6.8953   6.9120   6.9252   6.9265   7.0795
  7.0999   7.1416   7.1841   7.1903   7.2288   7.3332   7.3426   7.3447
  7.3533   7.4692   7.5458   7.5592   7.5753   7.5776   7.5895   7.6349
  7.6749   7.6848   7.7238   8.4008  10.0590  10.2997  11.1035  11.1990
 11.7097  11.7973  12.2460  12.4148  12.4624  12.6847  12.8574  13.0599
 13.2729  13.6116  13.8197  13.9436  14.0672  14.1410  14.1959  14.3455
 14.4142  14.7561  15.3072  15.7430  16.0491
 --------------------------------------------------------------
 
          Ground-State Mulliken Net Atomic Charges

     Atom                 Charge (a.u.)
  ----------------------------------------
      1 C                    -0.143304
      2 C                    -0.110805
      3 C                    -0.032031
      4 C                     0.001158
      5 H                     0.187611
      6 C                    -0.011965
      7 C                     0.073908
      8 C                     0.012339
      9 C                    -0.051699
     10 C                    -0.178468
     11 C                     0.087276
     12 H                     0.186343
     13 C                     0.358553
     14 C                     0.360114
     15 N                    -0.100778
     16 C                     0.356194
     17 C                     0.363239
     18 N                    -0.095620
     19 O                    -0.465527
     20 O                    -0.480249
     21 O                    -0.483413
     22 O                    -0.463547
     23 C                    -0.201689
     24 H                     0.141116
     25 H                     0.111998
     26 H                     0.111813
     27 C                    -0.197915
     28 H                     0.132877
     29 H                     0.112702
     30 H                     0.112506
     31 H                     0.212439
     32 C                    -0.130465
     33 S                     0.061053
     34 C                    -0.136960
     35 C                    -0.074437
     36 C                    -0.240094
     37 H                     0.199927
     38 H                     0.197455
     39 H                     0.218343
  ----------------------------------------
  Sum of atomic charges =     0.000000

 -----------------------------------------------------------------
                    Cartesian Multipole Moments
 -----------------------------------------------------------------
    Charge (ESU x 10^10)
                 0.0000
    Dipole Moment (Debye)
         X       3.2212      Y       1.6898      Z      -0.8600
       Tot       3.7379
    Quadrupole Moments (Debye-Ang)
        XX    -173.5758     XY       6.2435     YY    -178.1935
        XZ       8.2959     YZ       0.6193     ZZ    -158.8730
    Octopole Moments (Debye-Ang^2)
       XXX     -41.6110    XXY     585.7827    XYY     -21.0046
       YYY    1662.1942    XXZ     -18.0224    XYZ     -23.5596
       YYZ     -18.9144    XZZ     -13.0743    YZZ     508.0318
       ZZZ     -72.3325
    Hexadecapole Moments (Debye-Ang^3)
      XXXX   -5808.1594   XXXY     -32.7176   XXYY   -4056.0867
      XYYY     628.3300   YYYY  -17074.8970   XXXZ     988.2275
      XXYZ      75.7039   XYYZ     498.8551   YYYZ    -282.2298
      XXZZ   -1133.1382   XYZZ      51.2306   YYZZ   -2847.9247
      XZZZ     891.4331   YZZZ    -125.4332   ZZZZ   -1123.8883
 -----------------------------------------------------------------
 Total job time:  274.38s(wall), 8361.27s(cpu) 
 Fri Dec 15 15:30:47 2023

        *************************************************************
        *                                                           *
        *  Thank you very much for using Q-Chem.  Have a nice day.  *
        *                                                           *
        *************************************************************


0 sent ACK to 0 
now end server 0 ... 
cleanup process ... done
remove work dirs ./qchem208249.0 -- ./qchem208249.0
rm -rf ./qchem208249.0
rm -rf ./qchem208249
