You are running Q-Chem version: 5.4.0

#
# job setting
#
local host:  exp-1-56
current dir: /home/rramji/project-csd799/aromodel/pndit-qchem/rotation_run
input file:  Dimethyl_Naphthalene_Dicarboximide_Phi_20_Theta_350_Thiophene.qcin
output file: 
nprocs     : 1
nthreads   : 64
#
# qchem installation setting
#
QC:          /cm/shared/apps/spack/cpu/opt/spack/linux-centos8-zen2/gcc-10.2.0/qchem-5.4-akfmr7b3t57bfs6qan3padb2wnb2i7cl
QCAUX:       /cm/shared/apps/spack/cpu/opt/spack/linux-centos8-zen2/gcc-10.2.0/qchem-5.4-akfmr7b3t57bfs6qan3padb2wnb2i7cl/qcaux
QCPROG:      /cm/shared/apps/spack/cpu/opt/spack/linux-centos8-zen2/gcc-10.2.0/qchem-5.4-akfmr7b3t57bfs6qan3padb2wnb2i7cl/exe/qcprog.exe
QCPROG_S:    /cm/shared/apps/spack/cpu/opt/spack/linux-centos8-zen2/gcc-10.2.0/qchem-5.4-akfmr7b3t57bfs6qan3padb2wnb2i7cl/exe/qcprog.exe_s
PARALLEL:    -DPARALLEL
QCMPI:       mpich
#
# qchem directory setting
#
qcrun:       qchem3192663
QCSCRATCH:   .
QCLOCALSCR:  
QCTMPDIR:    .
QCFILEPREF:  ./qchem3192663
QCSAVEDIR:   
workdirs:    ./qchem3192663
workdir0:    ./qchem3192663
partmpdirs =  
#
# parallel setting
#
QCRSH:           ssh
QCMPI:           mpich
QCMPIRUN:        /cm/shared/apps/spack/cpu/opt/spack/linux-centos8-zen2/gcc-10.2.0/qchem-5.4-akfmr7b3t57bfs6qan3padb2wnb2i7cl/bin/mpi/mpirun_qchem
QCMACHINEFILE:   ./qchem3192663/hostfile
exp-1-56

#
# env setting
#
exported envs:   QC QCAUX QCSCRATCH QCRUNNAME QCFILEPREF QCPROG QCPROG_S GUIFILE

Running Job 1 of 1 Dimethyl_Naphthalene_Dicarboximide_Phi_20_Theta_350_Thiophene.qcin
qchem Dimethyl_Naphthalene_Dicarboximide_Phi_20_Theta_350_Thiophene.qcin_3192663.0 ./qchem3192663/ 1
/cm/shared/apps/spack/cpu/opt/spack/linux-centos8-zen2/gcc-10.2.0/qchem-5.4-akfmr7b3t57bfs6qan3padb2wnb2i7cl/bin/mpi/mpirun_qchem -machinefile ./qchem3192663/hostfile -np 1 /cm/shared/apps/spack/cpu/opt/spack/linux-centos8-zen2/gcc-10.2.0/qchem-5.4-akfmr7b3t57bfs6qan3padb2wnb2i7cl/exe/qcprog.exe Dimethyl_Naphthalene_Dicarboximide_Phi_20_Theta_350_Thiophene.qcin_3192663.0 ./qchem3192663/

Process 0 of 1 is on exp-1-56 - thread support 0
initial socket setup ...start
initial socket setup ...done 
now start server 0 ... 
                  Welcome to Q-Chem
     A Quantum Leap Into The Future Of Chemistry


 Q-Chem 5.4, Q-Chem, Inc., Pleasanton, CA (2021)

 License issued to: University of California, San Diego (site)

 E. Epifanovsky,  A. T. B. Gilbert,  Xintian Feng,  Joonho Lee,  Yuezhi Mao,  
 N. Mardirossian,  P. Pokhilko,  A. White,  M. Wormit,  M. P. Coons,  
 A. L. Dempwolff,  Zhengting Gan,  D. Hait,  P. R. Horn,  L. D. Jacobson,  
 I. Kaliman,  J. Kussmann,  A. W. Lange,  Ka Un Lao,  D. S. Levine,  Jie Liu,  
 S. C. McKenzie,  A. F. Morrison,  K. Nanda,  F. Plasser,  D. R. Rehn,  
 M. L. Vidal,  Zhi-Qiang You,  Ying Zhu,  B. Alam,  B. Albrecht,  
 A. Aldossary,  E. Alguire,  J. H. Andersen,  D. Barton,  K. Begam,  A. Behn,  
 Y. A. Bernard,  E. J. Berquist,  H. Burton,  A. Carreras,  K. Carter-Fenk,  
 R. Chakraborty,  A. D. Chien,  K. D. Closser,  V. Cofer-Shabica,  
 S. Dasgupta,  Jia Deng,  M. de Wergifosse,  M. Diedenhofen,  Hainam Do,  
 S. Ehlert,  Po-Tung Fang,  S. Fatehi,  Qingguo Feng,  J. Gayvert,  
 Qinghui Ge,  G. Gidofalvi,  M. Goldey,  J. Gomes,  C. Gonzalez-Espinoza,  
 S. Gulania,  A. Gunina,  M. W. D. Hanson-Heine,  P. H. P. Harbach,  
 A. W. Hauser,  M. F. Herbst,  M. Hernandez Vera,  M. Hodecker,  
 Z. C. Holden,  S. Houck,  Xunkun Huang,  Kerwin Hui,  B. C. Huynh,  
 M. Ivanov,  Hyunjun Ji,  Hanjie Jiang,  B. Kaduk,  S. Kaehler,  
 K. Khistyaev,  Jaehoon Kim,  P. Klunzinger,  Z. Koczor-Benda,  
 Joong Hoon Koh,  D. Kosenkov,  L. Koulias,  T. Kowalczyk,  C. M. Krauter,  
 K. Kue,  A. Kunitsa,  T. Kus,  A. Landau,  K. V. Lawler,  D. Lefrancois,  
 S. Lehtola,  Rain Li,  Yi-Pei Li,  Jiashu Liang,  M. Liebenthal,  
 Hung-Hsuan Lin,  You-Sheng Lin,  Fenglai Liu,  Kuan-Yu Liu,  
 M. Loipersberger,  A. Luenser,  A. Manjanath,  P. Manohar,  E. Mansoor,  
 S. F. Manzer,  Shan-Ping Mao,  A. V. Marenich,  T. Markovich,  S. Mason,  
 S. A. Maurer,  P. F. McLaughlin,  M. F. S. J. Menger,  J.-M. Mewes,  
 S. A. Mewes,  P. Morgante,  J. W. Mullinax,  T. S. Nguyen-Beck,  
 K. J. Oosterbaan,  G. Paran,  Alexander C. Paul,  Suranjan K. Paul,  
 F. Pavosevic,  Zheng Pei,  S. Prager,  E. I. Proynov,  E. Ramos,  B. Rana,  
 A. E. Rask,  A. Rettig,  R. M. Richard,  F. Rob,  E. Rossomme,  T. Scheele,  
 M. Scheurer,  M. Schneider,  N. Sergueev,  S. M. Sharada,  W. Skomorowski,  
 D. W. Small,  C. J. Stein,  Yu-Chuan Su,  E. J. Sundstrom,  Zhen Tao,  
 J. Thirman,  T. Tsuchimochi,  N. M. Tubman,  S. P. Veccham,  O. Vydrov,  
 J. Wenzel,  J. Witte,  A. Yamada,  Kun Yao,  S. Yeganeh,  S. R. Yost,  
 A. Zech,  Igor Ying Zhang,  Xing Zhang,  Yu Zhang,  D. Zuev,  
 A. Aspuru-Guzik,  A. T. Bell,  N. A. Besley,  K. B. Bravaya,  B. R. Brooks,  
 D. Casanova,  Jeng-Da Chai,  S. Coriani,  C. J. Cramer,  
 A. E. DePrince, III,  R. A. DiStasio Jr.,  A. Dreuw,  B. D. Dunietz,  
 T. R. Furlani,  W. A. Goddard III,  S. Grimme,  S. Hammes-Schiffer,  
 T. Head-Gordon,  W. J. Hehre,  Chao-Ping Hsu,  T.-C. Jagau,  Yousung Jung,  
 A. Klamt,  Jing Kong,  D. S. Lambrecht,  WanZhen Liang,  N. J. Mayhall,  
 C. W. McCurdy,  J. B. Neaton,  C. Ochsenfeld,  J. A. Parkhill,  R. Peverati,  
 V. A. Rassolov,  Yihan Shao,  L. V. Slipchenko,  T. Stauch,  R. P. Steele,  
 J. E. Subotnik,  A. J. W. Thom,  A. Tkatchenko,  D. G. Truhlar,  
 T. Van Voorhis,  T. A. Wesolowski,  K. B. Whaley,  H. L. Woodcock III,  
 P. M. Zimmerman,  S. Faraji,  P. M. W. Gill,  M. Head-Gordon,  
 J. M. Herbert,  A. I. Krylov

 Contributors to earlier versions of Q-Chem not listed above: 
 R. D. Adamson,  B. Austin,  R. Baer,  J. Baker,  G. J. O. Beran,  
 K. Brandhorst,  S. T. Brown,  E. F. C. Byrd,  A. K. Chakraborty,  
 G. K. L. Chan,  Chun-Min Chang,  Yunqing Chen,  C.-L. Cheng,  
 Siu Hung Chien,  D. M. Chipman,  D. L. Crittenden,  H. Dachsel,  
 R. J. Doerksen,  A. D. Dutoi,  R. G. Edgar,  J. Fosso-Tande,  
 L. Fusti-Molnar,  D. Ghosh,  A. Ghysels,  A. Golubeva-Zadorozhnaya,  
 J. Gonthier,  M. S. Gordon,  S. R. Gwaltney,  G. Hawkins,  J. E. Herr,  
 A. Heyden,  S. Hirata,  E. G. Hohenstein,  G. Kedziora,  F. J. Keil,  
 C. Kelley,  Jihan Kim,  R. A. King,  R. Z. Khaliullin,  P. P. Korambath,  
 W. Kurlancheek,  A. Laurent,  A. M. Lee,  M. S. Lee,  S. V. Levchenko,  
 Ching Yeh Lin,  D. Liotard,  E. Livshits,  R. C. Lochan,  I. Lotan,  
 L. A. Martinez-Martinez,  P. E. Maslen,  N. Nair,  D. P. O'Neill,  
 D. Neuhauser,  E. Neuscamman,  C. M. Oana,  R. Olivares-Amaya,  R. Olson,  
 T. M. Perrine,  B. Peters,  P. A. Pieniazek,  A. Prociuk,  Y. M. Rhee,  
 J. Ritchie,  M. A. Rohrdanz,  E. Rosta,  N. J. Russ,  H. F. Schaefer III,  
 M. W. Schmidt,  N. E. Schultz,  S. Sharma,  N. Shenvi,  C. D. Sherrill,  
 A. C. Simmonett,  A. Sodt,  T. Stein,  D. Stuck,  K. S. Thanthiriwatte,  
 V. Vanovschi,  L. Vogt,  Tao Wang,  A. Warshel,  M. A. Watson,  
 C. F. Williams,  Q. Wu,  X. Xu,  Jun Yang,  W. Zhang,  Yan Zhao

 Please cite Q-Chem as follows:
 Y. Shao et al., Mol. Phys. 113, 184-215 (2015)
 DOI: 10.1080/00268976.2014.952696

 Q-Chem 5.4.0 for Intel X86 EM64T Linux

 Parts of Q-Chem use Armadillo 9.800.1 (Horizon Scraper).
 http://arma.sourceforge.net/

 Q-Chem begins on Fri Dec 15 16:16:10 2023  

 Host: 
0

     Scratch files written to ./qchem3192663//
 May1621 |scratch|qcdevops|jenkins|workspace|build_RNUM    
 Parallel job on  1  processors
 Processing $rem in /cm/shared/apps/spack/cpu/opt/spack/linux-centos8-zen2/gcc-10.2.0/qchem-5.4-akfmr7b3t57bfs6qan3padb2wnb2i7cl/config/preferences:
 Processing $rem in /home/rramji/.qchemrc:
 Symmetry turned off for PCM/SM12/SMD calculation
 Core orbitals will be frozen

 Checking the input file for inconsistencies... 	...done.

 Q-Chem warning in module forms1/BasisType.C, line 2236:

 You are not using the predefined 5D/6D in this basis set.


--------------------------------------------------------------
User input:
--------------------------------------------------------------
$molecule
0 1
C	-0.046070	-6.741404	-0.252767
C	-0.272935	-6.155638	-1.538656
C	0.141739	-5.791452	0.814966
C	-0.321083	-4.803786	-1.813042
H	-0.425592	-6.821518	-2.403318
C	0.091779	-4.378638	0.527566
C	-0.138909	-3.838032	-0.782769
C	0.273808	-3.413062	1.556632
C	-0.188483	-2.426473	-1.067868
C	0.226610	-2.059348	1.285436
C	-0.000000	-1.478216	-0.000000
H	0.379657	-1.394783	2.151019
C	0.390420	-6.187987	2.235891
C	0.522125	-3.798164	2.965540
N	0.562731	-5.170003	3.205600
C	-0.570244	-4.424987	-3.225760
C	-0.438407	-2.036627	-2.489646
N	-0.610438	-3.049156	-3.459662
O	0.455563	-7.353131	2.621768
O	0.683373	-2.986854	3.874608
O	-0.729367	-5.248946	-4.124059
O	-0.508697	-0.878829	-2.896516
C	0.806996	-5.563799	4.596910
H	0.813717	-6.664085	4.641640
H	0.013655	-5.147101	5.246567
H	1.775159	-5.148785	4.936739
C	-0.851572	-2.587487	-4.829729
H	-0.964204	-3.483329	-5.462387
H	-0.003956	-1.964972	-5.173914
H	-1.764390	-1.962932	-4.863360
H	-0.014094	-7.822318	-0.069584
C	0.000000	0.000000	0.000000
S	0.271091	0.745405	1.580530
C	0.831198	2.284363	0.904911
C	0.341175	0.937861	-0.985400
C	0.792631	2.178516	-0.493528
H	0.260601	0.716417	-2.059934
H	1.093860	3.006347	-1.152593
H	1.132330	3.111961	1.556025
$end

$rem
JOBTYPE		SP
EXCHANGE	HF
CORRELATION	pRIMP2
BASIS		cc-pvtz
METHOD		rimp2
AUX_BASIS	rimp2-cc-pvtz
SOLVENT_METHOD	PCM
PURECART	11111
SYMMETRY	false
MEM_TOTAL	110000
SCF_CONVERGENCE = 6
THRESH=10
GUI = 2
$end



$solvent
dielectric 4.90
$end
--------------------------------------------------------------
 ----------------------------------------------------------------
             Standard Nuclear Orientation (Angstroms)
    I     Atom           X                Y                Z
 ----------------------------------------------------------------
    1      C      -0.0460700000    -6.7414040000    -0.2527670000
    2      C      -0.2729350000    -6.1556380000    -1.5386560000
    3      C       0.1417390000    -5.7914520000     0.8149660000
    4      C      -0.3210830000    -4.8037860000    -1.8130420000
    5      H      -0.4255920000    -6.8215180000    -2.4033180000
    6      C       0.0917790000    -4.3786380000     0.5275660000
    7      C      -0.1389090000    -3.8380320000    -0.7827690000
    8      C       0.2738080000    -3.4130620000     1.5566320000
    9      C      -0.1884830000    -2.4264730000    -1.0678680000
   10      C       0.2266100000    -2.0593480000     1.2854360000
   11      C       0.0000000000    -1.4782160000     0.0000000000
   12      H       0.3796570000    -1.3947830000     2.1510190000
   13      C       0.3904200000    -6.1879870000     2.2358910000
   14      C       0.5221250000    -3.7981640000     2.9655400000
   15      N       0.5627310000    -5.1700030000     3.2056000000
   16      C      -0.5702440000    -4.4249870000    -3.2257600000
   17      C      -0.4384070000    -2.0366270000    -2.4896460000
   18      N      -0.6104380000    -3.0491560000    -3.4596620000
   19      O       0.4555630000    -7.3531310000     2.6217680000
   20      O       0.6833730000    -2.9868540000     3.8746080000
   21      O      -0.7293670000    -5.2489460000    -4.1240590000
   22      O      -0.5086970000    -0.8788290000    -2.8965160000
   23      C       0.8069960000    -5.5637990000     4.5969100000
   24      H       0.8137170000    -6.6640850000     4.6416400000
   25      H       0.0136550000    -5.1471010000     5.2465670000
   26      H       1.7751590000    -5.1487850000     4.9367390000
   27      C      -0.8515720000    -2.5874870000    -4.8297290000
   28      H      -0.9642040000    -3.4833290000    -5.4623870000
   29      H      -0.0039560000    -1.9649720000    -5.1739140000
   30      H      -1.7643900000    -1.9629320000    -4.8633600000
   31      H      -0.0140940000    -7.8223180000    -0.0695840000
   32      C       0.0000000000     0.0000000000     0.0000000000
   33      S       0.2710910000     0.7454050000     1.5805300000
   34      C       0.8311980000     2.2843630000     0.9049110000
   35      C       0.3411750000     0.9378610000    -0.9854000000
   36      C       0.7926310000     2.1785160000    -0.4935280000
   37      H       0.2606010000     0.7164170000    -2.0599340000
   38      H       1.0938600000     3.0063470000    -1.1525930000
   39      H       1.1323300000     3.1119610000     1.5560250000
 ----------------------------------------------------------------
 Nuclear Repulsion Energy =        2500.33220326 hartrees
 There are       97 alpha and       97 beta electrons
 Requested basis set is cc-pVTZ
 There are 344 shells and 982 basis functions

 Total QAlloc Memory Limit 110000 MB
 Mega-Array Size       188 MB
 MEM_STATIC part       192 MB
 Discretize the solute cavity surface with Lebedev spheres
	Using 110 Lebedev grid points for each H atom
	Using 194 Lebedev grid points for other atoms
	Atomic van der Waals radii will be scaled by 1.20
 Remove points where switching function is < 1.0e-08
 Keep 2542 surface tesserae and discard 4016 interior tesserae
 Molecular Surface Area = 359.889 Angst**2
 Requested basis set is rimp2-cc-pVTZ
 There are 750 shells and 2588 basis functions
 A cutoff of  1.0D-10 yielded  31765 shell pairs
 There are    244665 function pairs (    317923 Cartesian)
 Smallest overlap matrix eigenvalue = 9.57E-06

 Q-Chem warning in module stvman/mkSTV.C, line 323:

 Overlap eigenvalue is smaller than square root of threshold
 Use THRESH >= 12 to get rid of this warning


 Scale SEOQF with 1.000000e-01/1.000000e-02/1.000000e-02

 Standard Electronic Orientation quadrupole field applied
 Nucleus-field energy     =     0.0000000108 hartrees
 Guess from superposition of atomic densities
 Warning:  Energy on first SCF cycle will be non-variational
 SAD guess density has 194.000000 electrons

 -----------------------------------------------------------------------
  General SCF calculation program by
  Eric Jon Sundstrom, Paul Horn, Yuezhi Mao, Dmitri Zuev, Alec White,
  David Stuck, Shaama M.S., Shane Yost, Joonho Lee, David Small,
  Daniel Levine, Susi Lehtola, Hugh Burton, Evgeny Epifanovsky,
  Bang C. Huynh
 -----------------------------------------------------------------------
 Hartree-Fock
 using 64 threads for integral computing
 -------------------------------------------------------
 OpenMP Integral computing Module                
 Release: version 1.0, May 2013, Q-Chem Inc. Pittsburgh 
 -------------------------------------------------------
 A restricted SCF calculation will be
 performed using DIIS
 SCF converges when DIIS error is below 1.0e-06
 ---------------------------------------
  Cycle       Energy         DIIS error
 ---------------------------------------
    1   -1581.4017095188      1.87e-02  
    2   -1570.1107408152      2.08e-03  
    3   -1570.4400547944      1.61e-03  
    4   -1570.6652029437      2.59e-04  
    5   -1570.6774714061      7.77e-05  
    6   -1570.6785909989      2.87e-05  
    7   -1570.6788527396      1.43e-05  
    8   -1570.6789346491      6.02e-06  
    9   -1570.6789475977      2.29e-06  
   10   -1570.6789498602      8.27e-07  Convergence criterion met
 ---------------------------------------
 SCF time:   CPU 5971.36s  wall 225.00s 

************** Final PCM Free Energy Summary **************
 G_electrostatic  =      -0.02116587 hartree =     -13.28178316 kcal/mol
 G_cavitation     =       0.00000000 hartree =       0.00000000 kcal/mol
 G_dispersion     =       0.00000000 hartree =       0.00000000 kcal/mol
 G_repulsion      =       0.00000000 hartree =       0.00000000 kcal/mol
 --------------------------------------------------
 Non-electrostatic Free Energy =       0.00000000 hartree =       0.00000000 kcal/mol
 Total                         =      -0.02116587 hartree =     -13.28178316 kcal/mol
 --------------------------------------------------
 SCF Energy (H0 + V/2)                       =   -1570.67894986 
 Solute Internal Energy (H0)                 =   -1570.65778399 
 Total Free Energy (H0 + V/2 + non-elec)     =   -1570.67894986 hartree
                                             = -985615.91693761 kcal/mol
***********************************************************

 SCF   energy in the final basis set =    -1570.6789498602
 Total energy in the final basis set =    -1570.6789498602


 --------------------------------------------------------------
  Generalized many-body perturbation theory program
  by Joonho Lee, Fazle Rob, Xintian Feng, Evgeny Epifanovsky

 No regularization used 
 (reg. param. = 0.0000e+00)
  (P|Q)^-1/2 Time:  CPU 166.42 s  wall 3.40 s

 In RI-MP2 calculation: 
 # of frozen core orbitals: 31

 Components of the RIMP2 correlation energy:
        aaaa    correlation energy =        -0.6178845226 a.u.
        abab    correlation energy =        -3.3934942495 a.u.
        bbbb    correlation energy =        -0.6178845226 a.u.
        non-Brillouin singles      =        -0.0000000000 a.u.
        total same-spin energy     =        -1.2357690452 a.u.
        total opposite-spin energy =        -3.3934942495 a.u.

 Total  RIMP2   correlation energy =        -4.6292632947 a.u.
        RIMP2         total energy =     -1575.3082131549 a.u.

 RI-MP2 Energy Time:  CPU 2646.93 s  wall 44.26 s
 
 --------------------------------------------------------------
 
                    Orbital Energies (a.u.)
 --------------------------------------------------------------
 
 Alpha MOs
 -- Occupied --
-91.9930 -20.5583 -20.5563 -20.5554 -20.5532 -15.6310 -15.6302 -11.3996
-11.3964 -11.3910 -11.3906 -11.3197 -11.3017 -11.2996 -11.2971 -11.2945
-11.2936 -11.2927 -11.2903 -11.2869 -11.2828 -11.2787 -11.2767 -11.2647
-11.2643 -11.2573 -11.2508  -8.9931  -6.6739  -6.6734  -6.6728  -1.4249
 -1.4246  -1.4040  -1.4034  -1.2672  -1.2650  -1.2167  -1.1791  -1.1436
 -1.1158  -1.0636  -1.0490  -0.9923  -0.9907  -0.9885  -0.9585  -0.9470
 -0.8969  -0.8787  -0.8783  -0.8609  -0.7966  -0.7801  -0.7727  -0.7626
 -0.7355  -0.7220  -0.7033  -0.6943  -0.6819  -0.6739  -0.6662  -0.6620
 -0.6558  -0.6414  -0.6369  -0.6335  -0.6277  -0.6128  -0.5910  -0.5836
 -0.5798  -0.5717  -0.5671  -0.5635  -0.5619  -0.5560  -0.5535  -0.5471
 -0.5371  -0.5255  -0.5243  -0.5135  -0.4819  -0.4685  -0.4656  -0.4612
 -0.4585  -0.4514  -0.4288  -0.4188  -0.4096  -0.3770  -0.3558  -0.3361
 -0.2998
 -- Virtual --
 -0.0193   0.0508   0.0680   0.1028   0.1317   0.1541   0.1586   0.1588
  0.1667   0.1716   0.1769   0.1860   0.1962   0.1994   0.2069   0.2109
  0.2231   0.2277   0.2295   0.2351   0.2500   0.2522   0.2634   0.2660
  0.2680   0.3074   0.3109   0.3157   0.3204   0.3343   0.3394   0.3429
  0.3473   0.3488   0.3525   0.3567   0.3581   0.3641   0.3703   0.3786
  0.3820   0.3886   0.3947   0.3986   0.4041   0.4073   0.4110   0.4187
  0.4246   0.4267   0.4334   0.4374   0.4414   0.4480   0.4513   0.4570
  0.4609   0.4663   0.4680   0.4713   0.4784   0.4842   0.4891   0.4912
  0.4993   0.5073   0.5108   0.5143   0.5201   0.5239   0.5263   0.5305
  0.5370   0.5385   0.5488   0.5542   0.5560   0.5592   0.5663   0.5684
  0.5712   0.5735   0.5809   0.5879   0.5916   0.5948   0.5956   0.5981
  0.6053   0.6063   0.6149   0.6192   0.6216   0.6237   0.6289   0.6319
  0.6345   0.6351   0.6359   0.6465   0.6532   0.6640   0.6690   0.6759
  0.6810   0.6845   0.6943   0.6988   0.7043   0.7120   0.7133   0.7250
  0.7289   0.7340   0.7396   0.7424   0.7551   0.7582   0.7632   0.7657
  0.7710   0.7780   0.7834   0.7876   0.8043   0.8085   0.8115   0.8227
  0.8238   0.8344   0.8430   0.8445   0.8468   0.8553   0.8609   0.8612
  0.8645   0.8664   0.8724   0.8787   0.8837   0.8970   0.9030   0.9052
  0.9140   0.9174   0.9270   0.9284   0.9305   0.9360   0.9369   0.9486
  0.9543   0.9591   0.9632   0.9687   0.9760   0.9778   0.9794   0.9898
  0.9908   0.9979   1.0056   1.0088   1.0123   1.0169   1.0273   1.0322
  1.0369   1.0411   1.0522   1.0577   1.0577   1.0612   1.0696   1.0732
  1.0762   1.0827   1.0847   1.0884   1.0913   1.1016   1.1094   1.1203
  1.1266   1.1297   1.1353   1.1373   1.1460   1.1489   1.1582   1.1594
  1.1629   1.1649   1.1724   1.1767   1.1827   1.1870   1.1899   1.2006
  1.2058   1.2127   1.2144   1.2178   1.2271   1.2311   1.2314   1.2393
  1.2425   1.2441   1.2546   1.2618   1.2668   1.2679   1.2777   1.3064
  1.3151   1.3268   1.3288   1.3347   1.3365   1.3438   1.3495   1.3595
  1.3637   1.3799   1.3829   1.3845   1.3939   1.3950   1.4044   1.4176
  1.4205   1.4251   1.4383   1.4435   1.4497   1.4518   1.4541   1.4618
  1.4718   1.4808   1.4877   1.4925   1.4953   1.5068   1.5158   1.5220
  1.5279   1.5321   1.5368   1.5473   1.5560   1.5584   1.5604   1.5707
  1.5733   1.5768   1.5903   1.5967   1.6092   1.6127   1.6320   1.6397
  1.6407   1.6464   1.6530   1.6554   1.6639   1.6769   1.6853   1.6909
  1.6931   1.7120   1.7236   1.7335   1.7373   1.7401   1.7471   1.7506
  1.7653   1.7718   1.7734   1.7827   1.7928   1.8036   1.8075   1.8178
  1.8267   1.8405   1.8432   1.8494   1.8556   1.8605   1.8620   1.8682
  1.8786   1.8916   1.8943   1.9144   1.9257   1.9302   1.9417   1.9540
  1.9560   1.9689   1.9733   1.9843   1.9996   2.0151   2.0187   2.0376
  2.0484   2.0625   2.0759   2.0873   2.0958   2.1197   2.1240   2.1383
  2.1504   2.1646   2.1662   2.1709   2.1883   2.2085   2.2153   2.2332
  2.2396   2.2436   2.2603   2.2696   2.2838   2.2873   2.2935   2.3101
  2.3146   2.3231   2.3305   2.3534   2.3607   2.3655   2.3747   2.3792
  2.4099   2.4255   2.4323   2.4441   2.4515   2.4583   2.4726   2.4844
  2.4886   2.4928   2.4979   2.5006   2.5084   2.5246   2.5396   2.5465
  2.5587   2.5635   2.5854   2.5873   2.5934   2.5966   2.6052   2.6138
  2.6162   2.6260   2.6368   2.6470   2.6564   2.6649   2.6669   2.6678
  2.6782   2.6904   2.6934   2.7065   2.7117   2.7161   2.7247   2.7283
  2.7414   2.7466   2.7512   2.7595   2.7684   2.7711   2.7821   2.7909
  2.8041   2.8077   2.8280   2.8386   2.8424   2.8455   2.8577   2.8616
  2.8641   2.8734   2.8783   2.8830   2.8853   2.8909   2.9091   2.9117
  2.9212   2.9259   2.9348   2.9442   2.9466   2.9565   2.9675   2.9741
  2.9762   2.9799   2.9948   2.9997   3.0020   3.0064   3.0111   3.0166
  3.0225   3.0369   3.0409   3.0434   3.0485   3.0605   3.0706   3.0844
  3.0875   3.0903   3.0978   3.1013   3.1068   3.1094   3.1194   3.1219
  3.1305   3.1355   3.1380   3.1398   3.1611   3.1707   3.1735   3.1821
  3.1949   3.1965   3.2031   3.2115   3.2159   3.2177   3.2221   3.2245
  3.2304   3.2322   3.2352   3.2468   3.2523   3.2542   3.2626   3.2641
  3.2699   3.2725   3.2765   3.2828   3.2881   3.2940   3.2986   3.3084
  3.3130   3.3152   3.3207   3.3278   3.3318   3.3335   3.3365   3.3420
  3.3433   3.3467   3.3516   3.3555   3.3635   3.3661   3.3692   3.3723
  3.3789   3.3850   3.3906   3.3986   3.4020   3.4085   3.4123   3.4187
  3.4223   3.4290   3.4342   3.4435   3.4448   3.4545   3.4558   3.4579
  3.4642   3.4649   3.4702   3.4756   3.4793   3.4830   3.4921   3.4980
  3.4997   3.5022   3.5052   3.5137   3.5177   3.5203   3.5235   3.5273
  3.5423   3.5442   3.5506   3.5563   3.5647   3.5719   3.5758   3.5789
  3.5861   3.5950   3.6043   3.6107   3.6162   3.6224   3.6266   3.6325
  3.6345   3.6350   3.6416   3.6439   3.6460   3.6643   3.6722   3.6787
  3.6847   3.6879   3.6959   3.7018   3.7044   3.7089   3.7131   3.7296
  3.7315   3.7340   3.7394   3.7457   3.7519   3.7539   3.7612   3.7624
  3.7749   3.7831   3.7853   3.7933   3.7971   3.8019   3.8041   3.8129
  3.8145   3.8156   3.8256   3.8414   3.8451   3.8522   3.8599   3.8664
  3.8700   3.8781   3.8810   3.8861   3.9005   3.9170   3.9177   3.9237
  3.9302   3.9348   3.9398   3.9436   3.9601   3.9631   3.9674   3.9831
  3.9906   4.0041   4.0069   4.0137   4.0197   4.0245   4.0427   4.0459
  4.0540   4.0686   4.0744   4.0808   4.0831   4.0885   4.1014   4.1107
  4.1232   4.1328   4.1344   4.1395   4.1515   4.1548   4.1648   4.1723
  4.1784   4.1853   4.1908   4.1947   4.2081   4.2203   4.2307   4.2386
  4.2523   4.2583   4.2714   4.2758   4.2783   4.2837   4.2873   4.2936
  4.2990   4.3026   4.3049   4.3154   4.3225   4.3318   4.3381   4.3464
  4.3479   4.3559   4.3628   4.3665   4.3687   4.3764   4.3798   4.3870
  4.3957   4.3977   4.4042   4.4072   4.4132   4.4234   4.4354   4.4398
  4.4577   4.4631   4.4723   4.4890   4.4990   4.5077   4.5157   4.5217
  4.5250   4.5273   4.5433   4.5446   4.5558   4.5620   4.5727   4.5744
  4.5777   4.5828   4.5858   4.5971   4.6078   4.6169   4.6312   4.6390
  4.6424   4.6553   4.6572   4.6721   4.6757   4.6848   4.6914   4.7042
  4.7137   4.7278   4.7360   4.7497   4.7755   4.7790   4.7905   4.7981
  4.8187   4.8300   4.8375   4.8425   4.8496   4.8641   4.8800   4.8852
  4.8927   4.8990   4.9356   4.9409   4.9455   4.9684   4.9721   4.9949
  5.0040   5.0077   5.0215   5.0396   5.0417   5.0507   5.0537   5.0648
  5.1024   5.1046   5.1121   5.1172   5.1257   5.1326   5.1454   5.1616
  5.1674   5.1782   5.1873   5.2059   5.2169   5.2369   5.2567   5.2607
  5.2672   5.2810   5.2904   5.2991   5.3138   5.3238   5.3357   5.3421
  5.3590   5.3958   5.3999   5.4030   5.4281   5.4294   5.4326   5.4653
  5.4797   5.5074   5.5089   5.5128   5.5148   5.5343   5.5472   5.5576
  5.5602   5.5623   5.5718   5.5744   5.5778   5.5937   5.6083   5.6123
  5.6310   5.6400   5.6527   5.6552   5.6643   5.6768   5.6789   5.6960
  5.7076   5.7202   5.7259   5.7421   5.7533   5.7609   5.7681   5.7753
  5.7803   5.7934   5.8130   5.8282   5.8504   5.8873   5.9078   5.9264
  5.9530   5.9603   5.9931   6.0180   6.0241   6.0354   6.0451   6.0548
  6.1007   6.1020   6.1080   6.1223   6.1292   6.1866   6.2024   6.2112
  6.2178   6.2212   6.2344   6.2665   6.2707   6.2806   6.3052   6.3479
  6.3558   6.3931   6.4362   6.4479   6.4680   6.5284   6.5625   6.5753
  6.5883   6.6115   6.6478   6.6486   6.6602   6.6866   6.7102   6.8328
  6.8396   6.8825   6.8863   6.8980   6.9115   6.9327   6.9892   7.0806
  7.1262   7.1459   7.1902   7.2026   7.2408   7.3326   7.3428   7.3446
  7.3675   7.4693   7.5483   7.5587   7.5754   7.5817   7.6226   7.6351
  7.6820   7.7090   7.7567   8.4464   9.9049  10.3814  11.1233  11.2136
 11.7108  11.7791  12.0283  12.3847  12.5025  12.6301  12.8500  13.1417
 13.3851  13.5581  13.8185  13.9527  14.0306  14.1460  14.3004  14.3831
 14.4416  14.7543  15.3472  15.7466  16.0335
 --------------------------------------------------------------
 
          Ground-State Mulliken Net Atomic Charges

     Atom                 Charge (a.u.)
  ----------------------------------------
      1 C                    -0.145675
      2 C                    -0.111302
      3 C                    -0.028000
      4 C                    -0.004274
      5 H                     0.187848
      6 C                     0.001034
      7 C                     0.073963
      8 C                     0.054622
      9 C                    -0.077787
     10 C                    -0.173019
     11 C                     0.039446
     12 H                     0.172425
     13 C                     0.358062
     14 C                     0.362255
     15 N                    -0.101417
     16 C                     0.358862
     17 C                     0.381005
     18 N                    -0.093154
     19 O                    -0.464265
     20 O                    -0.476891
     21 O                    -0.483567
     22 O                    -0.482143
     23 C                    -0.201269
     24 H                     0.141119
     25 H                     0.112499
     26 H                     0.112389
     27 C                    -0.198026
     28 H                     0.134351
     29 H                     0.112115
     30 H                     0.112877
     31 H                     0.212480
     32 C                     0.004340
     33 S                     0.007447
     34 C                    -0.172839
     35 C                    -0.120975
     36 C                    -0.243668
     37 H                     0.227527
     38 H                     0.192613
     39 H                     0.218994
  ----------------------------------------
  Sum of atomic charges =     0.000000

 -----------------------------------------------------------------
                    Cartesian Multipole Moments
 -----------------------------------------------------------------
    Charge (ESU x 10^10)
                -0.0000
    Dipole Moment (Debye)
         X       0.9732      Y       2.2881      Z      -0.7270
       Tot       2.5905
    Quadrupole Moments (Debye-Ang)
        XX    -163.1795     XY       3.7257     YY    -169.7434
        XZ      -3.3023     YZ       0.4573     ZZ    -177.6169
    Octopole Moments (Debye-Ang^2)
       XXX     -40.5193    XXY     474.8185    XYY       0.6786
       YYY    1620.9250    XXZ       0.5098    XYZ      17.1132
       YYZ       5.1155    XZZ      -7.1714    YZZ     563.3211
       ZZZ       3.8046
    Hexadecapole Moments (Debye-Ang^3)
      XXXX    -427.3554   XXXY     -31.2269   XXYY   -2725.8309
      XYYY      84.5361   YYYY  -17273.1614   XXXZ    -504.5420
      XXYZ      91.4763   XYYZ    -262.5087   YYYZ     728.8415
      XXZZ   -1078.7122   XYZZ     -58.8254   YYZZ   -4208.9679
      XZZZ    -553.8430   YZZZ     -48.8085   ZZZZ   -6279.9549
 -----------------------------------------------------------------
 Total job time:  276.40s(wall), 8815.06s(cpu) 
 Fri Dec 15 16:20:47 2023

        *************************************************************
        *                                                           *
        *  Thank you very much for using Q-Chem.  Have a nice day.  *
        *                                                           *
        *************************************************************


0 sent ACK to 0 
now end server 0 ... 
cleanup process ... done
remove work dirs ./qchem3192663.0 -- ./qchem3192663.0
rm -rf ./qchem3192663.0
rm -rf ./qchem3192663
