You are running Q-Chem version: 5.4.0

#
# job setting
#
local host:  exp-4-09
current dir: /home/rramji/project-csd799/aromodel/pndit-qchem/rotation_run
input file:  Dimethyl_Naphthalene_Dicarboximide_Phi_40_Theta_120_Thiophene.qcin
output file: 
nprocs     : 1
nthreads   : 64
#
# qchem installation setting
#
QC:          /cm/shared/apps/spack/cpu/opt/spack/linux-centos8-zen2/gcc-10.2.0/qchem-5.4-akfmr7b3t57bfs6qan3padb2wnb2i7cl
QCAUX:       /cm/shared/apps/spack/cpu/opt/spack/linux-centos8-zen2/gcc-10.2.0/qchem-5.4-akfmr7b3t57bfs6qan3padb2wnb2i7cl/qcaux
QCPROG:      /cm/shared/apps/spack/cpu/opt/spack/linux-centos8-zen2/gcc-10.2.0/qchem-5.4-akfmr7b3t57bfs6qan3padb2wnb2i7cl/exe/qcprog.exe
QCPROG_S:    /cm/shared/apps/spack/cpu/opt/spack/linux-centos8-zen2/gcc-10.2.0/qchem-5.4-akfmr7b3t57bfs6qan3padb2wnb2i7cl/exe/qcprog.exe_s
PARALLEL:    -DPARALLEL
QCMPI:       mpich
#
# qchem directory setting
#
qcrun:       qchem2779587
QCSCRATCH:   .
QCLOCALSCR:  
QCTMPDIR:    .
QCFILEPREF:  ./qchem2779587
QCSAVEDIR:   
workdirs:    ./qchem2779587
workdir0:    ./qchem2779587
partmpdirs =  
#
# parallel setting
#
QCRSH:           ssh
QCMPI:           mpich
QCMPIRUN:        /cm/shared/apps/spack/cpu/opt/spack/linux-centos8-zen2/gcc-10.2.0/qchem-5.4-akfmr7b3t57bfs6qan3padb2wnb2i7cl/bin/mpi/mpirun_qchem
QCMACHINEFILE:   ./qchem2779587/hostfile
exp-4-09

#
# env setting
#
exported envs:   QC QCAUX QCSCRATCH QCRUNNAME QCFILEPREF QCPROG QCPROG_S GUIFILE

Running Job 1 of 1 Dimethyl_Naphthalene_Dicarboximide_Phi_40_Theta_120_Thiophene.qcin
qchem Dimethyl_Naphthalene_Dicarboximide_Phi_40_Theta_120_Thiophene.qcin_2779587.0 ./qchem2779587/ 1
/cm/shared/apps/spack/cpu/opt/spack/linux-centos8-zen2/gcc-10.2.0/qchem-5.4-akfmr7b3t57bfs6qan3padb2wnb2i7cl/bin/mpi/mpirun_qchem -machinefile ./qchem2779587/hostfile -np 1 /cm/shared/apps/spack/cpu/opt/spack/linux-centos8-zen2/gcc-10.2.0/qchem-5.4-akfmr7b3t57bfs6qan3padb2wnb2i7cl/exe/qcprog.exe Dimethyl_Naphthalene_Dicarboximide_Phi_40_Theta_120_Thiophene.qcin_2779587.0 ./qchem2779587/

Process 0 of 1 is on exp-4-09 - thread support 0
initial socket setup ...start
initial socket setup ...done 
now start server 0 ... 
                  Welcome to Q-Chem
     A Quantum Leap Into The Future Of Chemistry


 Q-Chem 5.4, Q-Chem, Inc., Pleasanton, CA (2021)

 License issued to: University of California, San Diego (site)

 E. Epifanovsky,  A. T. B. Gilbert,  Xintian Feng,  Joonho Lee,  Yuezhi Mao,  
 N. Mardirossian,  P. Pokhilko,  A. White,  M. Wormit,  M. P. Coons,  
 A. L. Dempwolff,  Zhengting Gan,  D. Hait,  P. R. Horn,  L. D. Jacobson,  
 I. Kaliman,  J. Kussmann,  A. W. Lange,  Ka Un Lao,  D. S. Levine,  Jie Liu,  
 S. C. McKenzie,  A. F. Morrison,  K. Nanda,  F. Plasser,  D. R. Rehn,  
 M. L. Vidal,  Zhi-Qiang You,  Ying Zhu,  B. Alam,  B. Albrecht,  
 A. Aldossary,  E. Alguire,  J. H. Andersen,  D. Barton,  K. Begam,  A. Behn,  
 Y. A. Bernard,  E. J. Berquist,  H. Burton,  A. Carreras,  K. Carter-Fenk,  
 R. Chakraborty,  A. D. Chien,  K. D. Closser,  V. Cofer-Shabica,  
 S. Dasgupta,  Jia Deng,  M. de Wergifosse,  M. Diedenhofen,  Hainam Do,  
 S. Ehlert,  Po-Tung Fang,  S. Fatehi,  Qingguo Feng,  J. Gayvert,  
 Qinghui Ge,  G. Gidofalvi,  M. Goldey,  J. Gomes,  C. Gonzalez-Espinoza,  
 S. Gulania,  A. Gunina,  M. W. D. Hanson-Heine,  P. H. P. Harbach,  
 A. W. Hauser,  M. F. Herbst,  M. Hernandez Vera,  M. Hodecker,  
 Z. C. Holden,  S. Houck,  Xunkun Huang,  Kerwin Hui,  B. C. Huynh,  
 M. Ivanov,  Hyunjun Ji,  Hanjie Jiang,  B. Kaduk,  S. Kaehler,  
 K. Khistyaev,  Jaehoon Kim,  P. Klunzinger,  Z. Koczor-Benda,  
 Joong Hoon Koh,  D. Kosenkov,  L. Koulias,  T. Kowalczyk,  C. M. Krauter,  
 K. Kue,  A. Kunitsa,  T. Kus,  A. Landau,  K. V. Lawler,  D. Lefrancois,  
 S. Lehtola,  Rain Li,  Yi-Pei Li,  Jiashu Liang,  M. Liebenthal,  
 Hung-Hsuan Lin,  You-Sheng Lin,  Fenglai Liu,  Kuan-Yu Liu,  
 M. Loipersberger,  A. Luenser,  A. Manjanath,  P. Manohar,  E. Mansoor,  
 S. F. Manzer,  Shan-Ping Mao,  A. V. Marenich,  T. Markovich,  S. Mason,  
 S. A. Maurer,  P. F. McLaughlin,  M. F. S. J. Menger,  J.-M. Mewes,  
 S. A. Mewes,  P. Morgante,  J. W. Mullinax,  T. S. Nguyen-Beck,  
 K. J. Oosterbaan,  G. Paran,  Alexander C. Paul,  Suranjan K. Paul,  
 F. Pavosevic,  Zheng Pei,  S. Prager,  E. I. Proynov,  E. Ramos,  B. Rana,  
 A. E. Rask,  A. Rettig,  R. M. Richard,  F. Rob,  E. Rossomme,  T. Scheele,  
 M. Scheurer,  M. Schneider,  N. Sergueev,  S. M. Sharada,  W. Skomorowski,  
 D. W. Small,  C. J. Stein,  Yu-Chuan Su,  E. J. Sundstrom,  Zhen Tao,  
 J. Thirman,  T. Tsuchimochi,  N. M. Tubman,  S. P. Veccham,  O. Vydrov,  
 J. Wenzel,  J. Witte,  A. Yamada,  Kun Yao,  S. Yeganeh,  S. R. Yost,  
 A. Zech,  Igor Ying Zhang,  Xing Zhang,  Yu Zhang,  D. Zuev,  
 A. Aspuru-Guzik,  A. T. Bell,  N. A. Besley,  K. B. Bravaya,  B. R. Brooks,  
 D. Casanova,  Jeng-Da Chai,  S. Coriani,  C. J. Cramer,  
 A. E. DePrince, III,  R. A. DiStasio Jr.,  A. Dreuw,  B. D. Dunietz,  
 T. R. Furlani,  W. A. Goddard III,  S. Grimme,  S. Hammes-Schiffer,  
 T. Head-Gordon,  W. J. Hehre,  Chao-Ping Hsu,  T.-C. Jagau,  Yousung Jung,  
 A. Klamt,  Jing Kong,  D. S. Lambrecht,  WanZhen Liang,  N. J. Mayhall,  
 C. W. McCurdy,  J. B. Neaton,  C. Ochsenfeld,  J. A. Parkhill,  R. Peverati,  
 V. A. Rassolov,  Yihan Shao,  L. V. Slipchenko,  T. Stauch,  R. P. Steele,  
 J. E. Subotnik,  A. J. W. Thom,  A. Tkatchenko,  D. G. Truhlar,  
 T. Van Voorhis,  T. A. Wesolowski,  K. B. Whaley,  H. L. Woodcock III,  
 P. M. Zimmerman,  S. Faraji,  P. M. W. Gill,  M. Head-Gordon,  
 J. M. Herbert,  A. I. Krylov

 Contributors to earlier versions of Q-Chem not listed above: 
 R. D. Adamson,  B. Austin,  R. Baer,  J. Baker,  G. J. O. Beran,  
 K. Brandhorst,  S. T. Brown,  E. F. C. Byrd,  A. K. Chakraborty,  
 G. K. L. Chan,  Chun-Min Chang,  Yunqing Chen,  C.-L. Cheng,  
 Siu Hung Chien,  D. M. Chipman,  D. L. Crittenden,  H. Dachsel,  
 R. J. Doerksen,  A. D. Dutoi,  R. G. Edgar,  J. Fosso-Tande,  
 L. Fusti-Molnar,  D. Ghosh,  A. Ghysels,  A. Golubeva-Zadorozhnaya,  
 J. Gonthier,  M. S. Gordon,  S. R. Gwaltney,  G. Hawkins,  J. E. Herr,  
 A. Heyden,  S. Hirata,  E. G. Hohenstein,  G. Kedziora,  F. J. Keil,  
 C. Kelley,  Jihan Kim,  R. A. King,  R. Z. Khaliullin,  P. P. Korambath,  
 W. Kurlancheek,  A. Laurent,  A. M. Lee,  M. S. Lee,  S. V. Levchenko,  
 Ching Yeh Lin,  D. Liotard,  E. Livshits,  R. C. Lochan,  I. Lotan,  
 L. A. Martinez-Martinez,  P. E. Maslen,  N. Nair,  D. P. O'Neill,  
 D. Neuhauser,  E. Neuscamman,  C. M. Oana,  R. Olivares-Amaya,  R. Olson,  
 T. M. Perrine,  B. Peters,  P. A. Pieniazek,  A. Prociuk,  Y. M. Rhee,  
 J. Ritchie,  M. A. Rohrdanz,  E. Rosta,  N. J. Russ,  H. F. Schaefer III,  
 M. W. Schmidt,  N. E. Schultz,  S. Sharma,  N. Shenvi,  C. D. Sherrill,  
 A. C. Simmonett,  A. Sodt,  T. Stein,  D. Stuck,  K. S. Thanthiriwatte,  
 V. Vanovschi,  L. Vogt,  Tao Wang,  A. Warshel,  M. A. Watson,  
 C. F. Williams,  Q. Wu,  X. Xu,  Jun Yang,  W. Zhang,  Yan Zhao

 Please cite Q-Chem as follows:
 Y. Shao et al., Mol. Phys. 113, 184-215 (2015)
 DOI: 10.1080/00268976.2014.952696

 Q-Chem 5.4.0 for Intel X86 EM64T Linux

 Parts of Q-Chem use Armadillo 9.800.1 (Horizon Scraper).
 http://arma.sourceforge.net/

 Q-Chem begins on Fri Dec 15 14:22:06 2023  

 Host: 
0

     Scratch files written to ./qchem2779587//
 May1621 |scratch|qcdevops|jenkins|workspace|build_RNUM    
 Parallel job on  1  processors
 Processing $rem in /cm/shared/apps/spack/cpu/opt/spack/linux-centos8-zen2/gcc-10.2.0/qchem-5.4-akfmr7b3t57bfs6qan3padb2wnb2i7cl/config/preferences:
 Processing $rem in /home/rramji/.qchemrc:
 Symmetry turned off for PCM/SM12/SMD calculation
 Core orbitals will be frozen

 Checking the input file for inconsistencies... 	...done.

 Q-Chem warning in module forms1/BasisType.C, line 2236:

 You are not using the predefined 5D/6D in this basis set.


--------------------------------------------------------------
User input:
--------------------------------------------------------------
$molecule
0 1
C	0.223244	-6.741404	0.127184
C	1.354118	-6.155638	0.779949
C	-0.715408	-5.791452	-0.415271
C	1.595259	-4.803786	0.919437
H	2.114613	-6.821518	1.218801
C	-0.463133	-4.378638	-0.268806
C	0.688925	-3.838032	0.396744
C	-1.368449	-3.413062	-0.790835
C	0.939189	-2.426473	0.542026
C	-1.130363	-2.059348	-0.652669
C	0.000000	-1.478216	0.000000
H	-1.891815	-1.394783	-1.091814
C	-1.963749	-6.187987	-1.138124
C	-2.607351	-3.798164	-1.506241
N	-2.817348	-5.170003	-1.629443
C	2.837621	-4.424987	1.636646
C	2.188982	-2.036627	1.264474
N	3.042637	-3.049156	1.756205
O	-2.301222	-7.353131	-1.336258
O	-3.407386	-2.986854	-1.967056
O	3.628041	-5.248946	2.092167
O	2.545844	-0.878829	1.472160
C	-4.040164	-5.563799	-2.336642
H	-4.078749	-6.664085	-2.360245
H	-4.027880	-5.147101	-3.361968
H	-4.922811	-5.148785	-1.813424
C	4.247167	-2.587487	2.452149
H	4.804209	-3.483329	2.772531
H	3.965991	-1.964972	3.322697
H	4.859678	-1.962932	1.774507
H	0.062364	-7.822318	0.033931
C	0.000000	0.000000	0.000000
S	0.509686	0.607733	1.580530
C	1.562368	1.862312	0.904911
C	0.641367	0.764613	-0.985400
C	1.489926	1.776040	-0.493528
H	0.489914	0.584081	-2.059934
H	2.056124	2.450920	-1.152593
H	2.128395	2.537007	1.556025
$end

$rem
JOBTYPE		SP
EXCHANGE	HF
CORRELATION	pRIMP2
BASIS		cc-pvtz
METHOD		rimp2
AUX_BASIS	rimp2-cc-pvtz
SOLVENT_METHOD	PCM
PURECART	11111
SYMMETRY	false
MEM_TOTAL	110000
SCF_CONVERGENCE = 6
THRESH=10
GUI = 2
$end



$solvent
dielectric 4.90
$end
--------------------------------------------------------------
 ----------------------------------------------------------------
             Standard Nuclear Orientation (Angstroms)
    I     Atom           X                Y                Z
 ----------------------------------------------------------------
    1      C       0.2232440000    -6.7414040000     0.1271840000
    2      C       1.3541180000    -6.1556380000     0.7799490000
    3      C      -0.7154080000    -5.7914520000    -0.4152710000
    4      C       1.5952590000    -4.8037860000     0.9194370000
    5      H       2.1146130000    -6.8215180000     1.2188010000
    6      C      -0.4631330000    -4.3786380000    -0.2688060000
    7      C       0.6889250000    -3.8380320000     0.3967440000
    8      C      -1.3684490000    -3.4130620000    -0.7908350000
    9      C       0.9391890000    -2.4264730000     0.5420260000
   10      C      -1.1303630000    -2.0593480000    -0.6526690000
   11      C       0.0000000000    -1.4782160000     0.0000000000
   12      H      -1.8918150000    -1.3947830000    -1.0918140000
   13      C      -1.9637490000    -6.1879870000    -1.1381240000
   14      C      -2.6073510000    -3.7981640000    -1.5062410000
   15      N      -2.8173480000    -5.1700030000    -1.6294430000
   16      C       2.8376210000    -4.4249870000     1.6366460000
   17      C       2.1889820000    -2.0366270000     1.2644740000
   18      N       3.0426370000    -3.0491560000     1.7562050000
   19      O      -2.3012220000    -7.3531310000    -1.3362580000
   20      O      -3.4073860000    -2.9868540000    -1.9670560000
   21      O       3.6280410000    -5.2489460000     2.0921670000
   22      O       2.5458440000    -0.8788290000     1.4721600000
   23      C      -4.0401640000    -5.5637990000    -2.3366420000
   24      H      -4.0787490000    -6.6640850000    -2.3602450000
   25      H      -4.0278800000    -5.1471010000    -3.3619680000
   26      H      -4.9228110000    -5.1487850000    -1.8134240000
   27      C       4.2471670000    -2.5874870000     2.4521490000
   28      H       4.8042090000    -3.4833290000     2.7725310000
   29      H       3.9659910000    -1.9649720000     3.3226970000
   30      H       4.8596780000    -1.9629320000     1.7745070000
   31      H       0.0623640000    -7.8223180000     0.0339310000
   32      C       0.0000000000     0.0000000000     0.0000000000
   33      S       0.5096860000     0.6077330000     1.5805300000
   34      C       1.5623680000     1.8623120000     0.9049110000
   35      C       0.6413670000     0.7646130000    -0.9854000000
   36      C       1.4899260000     1.7760400000    -0.4935280000
   37      H       0.4899140000     0.5840810000    -2.0599340000
   38      H       2.0561240000     2.4509200000    -1.1525930000
   39      H       2.1283950000     2.5370070000     1.5560250000
 ----------------------------------------------------------------
 Nuclear Repulsion Energy =        2528.84593084 hartrees
 There are       97 alpha and       97 beta electrons
 Requested basis set is cc-pVTZ
 There are 344 shells and 982 basis functions

 Total QAlloc Memory Limit 110000 MB
 Mega-Array Size       188 MB
 MEM_STATIC part       192 MB
 Discretize the solute cavity surface with Lebedev spheres
	Using 110 Lebedev grid points for each H atom
	Using 194 Lebedev grid points for other atoms
	Atomic van der Waals radii will be scaled by 1.20
 Remove points where switching function is < 1.0e-08
 Keep 2493 surface tesserae and discard 4065 interior tesserae
 Molecular Surface Area = 361.653 Angst**2
 Requested basis set is rimp2-cc-pVTZ
 There are 750 shells and 2588 basis functions
 A cutoff of  1.0D-10 yielded  32231 shell pairs
 There are    248103 function pairs (    322475 Cartesian)
 Smallest overlap matrix eigenvalue = 9.47E-06

 Q-Chem warning in module stvman/mkSTV.C, line 323:

 Overlap eigenvalue is smaller than square root of threshold
 Use THRESH >= 12 to get rid of this warning


 Scale SEOQF with 1.000000e-01/1.000000e-02/1.000000e-01

 Standard Electronic Orientation quadrupole field applied
 Nucleus-field energy     =     0.0000000173 hartrees
 Guess from superposition of atomic densities
 Warning:  Energy on first SCF cycle will be non-variational
 SAD guess density has 194.000000 electrons

 -----------------------------------------------------------------------
  General SCF calculation program by
  Eric Jon Sundstrom, Paul Horn, Yuezhi Mao, Dmitri Zuev, Alec White,
  David Stuck, Shaama M.S., Shane Yost, Joonho Lee, David Small,
  Daniel Levine, Susi Lehtola, Hugh Burton, Evgeny Epifanovsky,
  Bang C. Huynh
 -----------------------------------------------------------------------
 Hartree-Fock
 using 64 threads for integral computing
 -------------------------------------------------------
 OpenMP Integral computing Module                
 Release: version 1.0, May 2013, Q-Chem Inc. Pittsburgh 
 -------------------------------------------------------
 A restricted SCF calculation will be
 performed using DIIS
 SCF converges when DIIS error is below 1.0e-06
 ---------------------------------------
  Cycle       Energy         DIIS error
 ---------------------------------------
    1   -1581.3716029827      1.87e-02  
    2   -1570.0733880959      2.09e-03  
    3   -1570.3962389131      1.63e-03  
    4   -1570.6269827495      2.58e-04  
    5   -1570.6392118196      7.61e-05  
    6   -1570.6402914196      2.77e-05  
    7   -1570.6405473229      1.43e-05  
    8   -1570.6406297989      6.12e-06  
    9   -1570.6406441143      2.47e-06  
   10   -1570.6406470183      9.71e-07  Convergence criterion met
 ---------------------------------------
 SCF time:   CPU 5864.13s  wall 217.00s 

************** Final PCM Free Energy Summary **************
 G_electrostatic  =      -0.02297626 hartree =     -14.41782305 kcal/mol
 G_cavitation     =       0.00000000 hartree =       0.00000000 kcal/mol
 G_dispersion     =       0.00000000 hartree =       0.00000000 kcal/mol
 G_repulsion      =       0.00000000 hartree =       0.00000000 kcal/mol
 --------------------------------------------------
 Non-electrostatic Free Energy =       0.00000000 hartree =       0.00000000 kcal/mol
 Total                         =      -0.02297626 hartree =     -14.41782305 kcal/mol
 --------------------------------------------------
 SCF Energy (H0 + V/2)                       =   -1570.64064702 
 Solute Internal Energy (H0)                 =   -1570.61767075 
 Total Free Energy (H0 + V/2 + non-elec)     =   -1570.64064702 hartree
                                             = -985591.88154158 kcal/mol
***********************************************************

 SCF   energy in the final basis set =    -1570.6406470183
 Total energy in the final basis set =    -1570.6406470183


 --------------------------------------------------------------
  Generalized many-body perturbation theory program
  by Joonho Lee, Fazle Rob, Xintian Feng, Evgeny Epifanovsky

 No regularization used 
 (reg. param. = 0.0000e+00)
  (P|Q)^-1/2 Time:  CPU 109.61 s  wall 1.76 s

 In RI-MP2 calculation: 
 # of frozen core orbitals: 31

 Components of the RIMP2 correlation energy:
        aaaa    correlation energy =        -0.6196510419 a.u.
        abab    correlation energy =        -3.4004224705 a.u.
        bbbb    correlation energy =        -0.6196510419 a.u.
        non-Brillouin singles      =        -0.0000000000 a.u.
        total same-spin energy     =        -1.2393020837 a.u.
        total opposite-spin energy =        -3.4004224705 a.u.

 Total  RIMP2   correlation energy =        -4.6397245543 a.u.
        RIMP2         total energy =     -1575.2803715726 a.u.

 RI-MP2 Energy Time:  CPU 1839.34 s  wall 29.72 s
 
 --------------------------------------------------------------
 
                    Orbital Energies (a.u.)
 --------------------------------------------------------------
 
 Alpha MOs
 -- Occupied --
-91.9800 -20.5580 -20.5554 -20.5533 -20.5502 -15.6305 -15.6290 -11.3994
-11.3927 -11.3909 -11.3894 -11.3146 -11.3016 -11.3001 -11.2990 -11.2954
-11.2954 -11.2886 -11.2840 -11.2840 -11.2790 -11.2746 -11.2726 -11.2657
-11.2642 -11.2641 -11.2472  -8.9802  -6.6607  -6.6601  -6.6600  -1.4242
 -1.4231  -1.4035  -1.4023  -1.2666  -1.2641  -1.2158  -1.1752  -1.1417
 -1.1153  -1.0605  -1.0478  -0.9920  -0.9877  -0.9827  -0.9582  -0.9474
 -0.8950  -0.8785  -0.8732  -0.8602  -0.7909  -0.7759  -0.7730  -0.7595
 -0.7334  -0.7185  -0.7038  -0.6935  -0.6809  -0.6716  -0.6652  -0.6612
 -0.6558  -0.6428  -0.6366  -0.6352  -0.6279  -0.6114  -0.5851  -0.5827
 -0.5756  -0.5728  -0.5668  -0.5636  -0.5613  -0.5549  -0.5531  -0.5479
 -0.5377  -0.5247  -0.5197  -0.5042  -0.4800  -0.4694  -0.4626  -0.4568
 -0.4538  -0.4457  -0.4266  -0.4181  -0.4081  -0.3591  -0.3344  -0.3305
 -0.3127
 -- Virtual --
 -0.0175   0.0611   0.0710   0.0876   0.1191   0.1528   0.1578   0.1626
  0.1665   0.1667   0.1791   0.1835   0.1862   0.1870   0.2010   0.2075
  0.2171   0.2225   0.2276   0.2308   0.2352   0.2437   0.2588   0.2621
  0.2652   0.2909   0.3067   0.3126   0.3177   0.3221   0.3278   0.3325
  0.3404   0.3469   0.3511   0.3546   0.3587   0.3614   0.3667   0.3691
  0.3777   0.3795   0.3884   0.3979   0.3995   0.4024   0.4057   0.4112
  0.4158   0.4237   0.4304   0.4365   0.4397   0.4439   0.4476   0.4532
  0.4563   0.4591   0.4613   0.4762   0.4765   0.4855   0.4892   0.4969
  0.5037   0.5074   0.5132   0.5166   0.5219   0.5258   0.5295   0.5339
  0.5360   0.5369   0.5412   0.5503   0.5532   0.5568   0.5651   0.5657
  0.5765   0.5773   0.5830   0.5855   0.5916   0.5932   0.5960   0.6000
  0.6050   0.6092   0.6148   0.6171   0.6215   0.6237   0.6249   0.6328
  0.6349   0.6369   0.6392   0.6412   0.6423   0.6475   0.6522   0.6732
  0.6836   0.6862   0.6878   0.7004   0.7022   0.7082   0.7126   0.7196
  0.7205   0.7319   0.7360   0.7410   0.7461   0.7574   0.7613   0.7666
  0.7703   0.7805   0.7861   0.7932   0.7995   0.8080   0.8094   0.8160
  0.8188   0.8280   0.8328   0.8382   0.8455   0.8520   0.8524   0.8627
  0.8665   0.8707   0.8751   0.8786   0.8859   0.8892   0.8955   0.9016
  0.9091   0.9179   0.9234   0.9277   0.9328   0.9338   0.9395   0.9477
  0.9556   0.9620   0.9677   0.9703   0.9774   0.9807   0.9836   0.9874
  0.9894   0.9996   1.0040   1.0085   1.0131   1.0254   1.0307   1.0324
  1.0390   1.0449   1.0465   1.0540   1.0603   1.0684   1.0739   1.0795
  1.0821   1.0858   1.0880   1.0918   1.1008   1.1092   1.1180   1.1208
  1.1318   1.1347   1.1386   1.1387   1.1449   1.1489   1.1569   1.1606
  1.1639   1.1712   1.1729   1.1786   1.1848   1.1869   1.1943   1.1962
  1.2041   1.2118   1.2124   1.2232   1.2280   1.2333   1.2364   1.2404
  1.2450   1.2493   1.2612   1.2661   1.2690   1.2874   1.2897   1.2959
  1.3157   1.3309   1.3314   1.3373   1.3464   1.3516   1.3572   1.3653
  1.3736   1.3813   1.3839   1.3865   1.3945   1.4016   1.4055   1.4152
  1.4232   1.4268   1.4373   1.4427   1.4476   1.4556   1.4614   1.4641
  1.4828   1.4853   1.4902   1.4945   1.4953   1.5067   1.5103   1.5264
  1.5282   1.5324   1.5384   1.5456   1.5508   1.5561   1.5612   1.5633
  1.5677   1.5727   1.5764   1.5887   1.5958   1.6037   1.6117   1.6295
  1.6420   1.6468   1.6518   1.6589   1.6660   1.6767   1.6794   1.6910
  1.6935   1.7053   1.7141   1.7230   1.7294   1.7367   1.7451   1.7502
  1.7530   1.7635   1.7688   1.7808   1.7853   1.7941   1.8045   1.8086
  1.8202   1.8290   1.8393   1.8452   1.8548   1.8560   1.8629   1.8703
  1.8722   1.8821   1.8853   1.9126   1.9281   1.9327   1.9425   1.9564
  1.9646   1.9730   1.9770   1.9815   1.9961   2.0149   2.0285   2.0379
  2.0406   2.0558   2.0607   2.0677   2.1026   2.1167   2.1275   2.1369
  2.1437   2.1565   2.1677   2.1779   2.1976   2.2091   2.2261   2.2319
  2.2360   2.2498   2.2578   2.2786   2.2880   2.2960   2.2986   2.3043
  2.3135   2.3228   2.3344   2.3350   2.3588   2.3653   2.3776   2.3940
  2.4051   2.4271   2.4338   2.4450   2.4518   2.4574   2.4666   2.4737
  2.4819   2.4932   2.4986   2.5050   2.5233   2.5353   2.5381   2.5441
  2.5597   2.5669   2.5812   2.5910   2.5961   2.6019   2.6084   2.6120
  2.6160   2.6277   2.6317   2.6447   2.6604   2.6636   2.6698   2.6738
  2.6775   2.6929   2.6997   2.7086   2.7147   2.7201   2.7291   2.7342
  2.7410   2.7469   2.7548   2.7615   2.7664   2.7718   2.7801   2.7925
  2.8055   2.8225   2.8279   2.8337   2.8438   2.8478   2.8564   2.8631
  2.8695   2.8746   2.8827   2.8873   2.8937   2.8995   2.9018   2.9129
  2.9233   2.9289   2.9330   2.9362   2.9481   2.9517   2.9603   2.9740
  2.9808   2.9825   2.9858   2.9998   3.0058   3.0114   3.0190   3.0230
  3.0309   3.0323   3.0379   3.0395   3.0476   3.0712   3.0729   3.0806
  3.0880   3.0906   3.0967   3.1029   3.1091   3.1173   3.1190   3.1242
  3.1304   3.1376   3.1514   3.1606   3.1633   3.1724   3.1747   3.1852
  3.1902   3.2008   3.2031   3.2086   3.2156   3.2200   3.2225   3.2248
  3.2281   3.2320   3.2434   3.2497   3.2524   3.2552   3.2576   3.2669
  3.2727   3.2767   3.2791   3.2820   3.2870   3.2926   3.2958   3.3018
  3.3052   3.3165   3.3195   3.3212   3.3260   3.3306   3.3357   3.3393
  3.3444   3.3452   3.3514   3.3578   3.3632   3.3656   3.3738   3.3766
  3.3776   3.3855   3.3887   3.4008   3.4045   3.4142   3.4159   3.4192
  3.4225   3.4289   3.4338   3.4370   3.4437   3.4475   3.4530   3.4565
  3.4634   3.4666   3.4712   3.4762   3.4834   3.4872   3.4875   3.4988
  3.4996   3.5028   3.5050   3.5103   3.5165   3.5202   3.5263   3.5284
  3.5348   3.5433   3.5470   3.5517   3.5641   3.5674   3.5751   3.5804
  3.5872   3.5955   3.6022   3.6128   3.6142   3.6182   3.6265   3.6335
  3.6360   3.6395   3.6439   3.6538   3.6564   3.6657   3.6698   3.6765
  3.6808   3.6931   3.7037   3.7107   3.7119   3.7164   3.7228   3.7279
  3.7338   3.7357   3.7409   3.7507   3.7540   3.7599   3.7645   3.7671
  3.7765   3.7826   3.7842   3.7922   3.7939   3.8003   3.8030   3.8055
  3.8125   3.8304   3.8333   3.8389   3.8434   3.8506   3.8556   3.8600
  3.8636   3.8789   3.8820   3.8834   3.8914   3.9141   3.9196   3.9285
  3.9342   3.9380   3.9433   3.9484   3.9540   3.9572   3.9675   3.9716
  3.9858   3.9985   4.0027   4.0117   4.0219   4.0230   4.0285   4.0487
  4.0571   4.0631   4.0662   4.0769   4.0842   4.0945   4.1039   4.1139
  4.1255   4.1269   4.1382   4.1488   4.1554   4.1592   4.1759   4.1772
  4.1781   4.1884   4.1923   4.1981   4.2118   4.2157   4.2359   4.2410
  4.2442   4.2524   4.2608   4.2743   4.2769   4.2828   4.2880   4.2942
  4.2950   4.2983   4.3029   4.3094   4.3205   4.3248   4.3275   4.3343
  4.3446   4.3530   4.3550   4.3661   4.3686   4.3740   4.3779   4.3805
  4.3894   4.4005   4.4019   4.4088   4.4185   4.4228   4.4266   4.4465
  4.4491   4.4628   4.4693   4.4770   4.4884   4.5094   4.5177   4.5218
  4.5264   4.5307   4.5409   4.5464   4.5485   4.5595   4.5622   4.5711
  4.5745   4.5832   4.5840   4.5902   4.6032   4.6142   4.6328   4.6388
  4.6499   4.6516   4.6568   4.6731   4.6766   4.6826   4.6873   4.6902
  4.7190   4.7259   4.7411   4.7445   4.7547   4.7676   4.7725   4.7874
  4.8022   4.8250   4.8310   4.8400   4.8466   4.8565   4.8715   4.8766
  4.8935   4.9073   4.9084   4.9191   4.9410   4.9456   4.9658   4.9816
  4.9883   5.0147   5.0332   5.0366   5.0425   5.0474   5.0508   5.0538
  5.0867   5.1037   5.1059   5.1145   5.1247   5.1307   5.1432   5.1468
  5.1591   5.1748   5.1838   5.1890   5.1993   5.2263   5.2350   5.2565
  5.2586   5.2791   5.2822   5.2943   5.3215   5.3295   5.3356   5.3424
  5.3642   5.3968   5.3993   5.4044   5.4132   5.4307   5.4354   5.4654
  5.4883   5.4973   5.5082   5.5093   5.5139   5.5376   5.5422   5.5502
  5.5575   5.5606   5.5612   5.5752   5.5782   5.5907   5.6047   5.6140
  5.6188   5.6356   5.6531   5.6560   5.6573   5.6771   5.6775   5.6975
  5.7006   5.7070   5.7191   5.7384   5.7455   5.7598   5.7602   5.7732
  5.7755   5.7816   5.8102   5.8251   5.8540   5.8799   5.9104   5.9223
  5.9488   5.9731   5.9989   6.0129   6.0209   6.0254   6.0381   6.0556
  6.0763   6.1009   6.1056   6.1169   6.1286   6.1657   6.1911   6.2109
  6.2181   6.2197   6.2232   6.2577   6.2658   6.2716   6.3049   6.3443
  6.3517   6.3744   6.4109   6.4464   6.4679   6.5255   6.5626   6.5719
  6.5807   6.5942   6.6088   6.6459   6.6490   6.6607   6.7056   6.8306
  6.8405   6.8816   6.8866   6.8983   6.9121   6.9307   6.9887   7.0787
  7.1118   7.1398   7.1872   7.1958   7.2299   7.3329   7.3427   7.3450
  7.3621   7.4678   7.5464   7.5595   7.5744   7.5792   7.6271   7.6346
  7.6736   7.6987   7.7291   8.3145   9.8969  10.3219  11.1009  11.2306
 11.6891  11.7604  12.0813  12.3583  12.4459  12.7833  12.8523  12.9342
 13.2586  13.5786  13.8182  13.9502  14.0458  14.1034  14.2198  14.3599
 14.4115  14.7418  15.3213  15.7127  15.9720
 --------------------------------------------------------------
 
          Ground-State Mulliken Net Atomic Charges

     Atom                 Charge (a.u.)
  ----------------------------------------
      1 C                    -0.139766
      2 C                    -0.108413
      3 C                    -0.038010
      4 C                    -0.001839
      5 H                     0.188009
      6 C                    -0.011385
      7 C                     0.070451
      8 C                     0.011770
      9 C                    -0.043412
     10 C                    -0.150872
     11 C                     0.082749
     12 H                     0.179692
     13 C                     0.360697
     14 C                     0.364770
     15 N                    -0.101340
     16 C                     0.356176
     17 C                     0.393782
     18 N                    -0.093601
     19 O                    -0.465145
     20 O                    -0.476483
     21 O                    -0.483219
     22 O                    -0.461723
     23 C                    -0.201257
     24 H                     0.140903
     25 H                     0.112045
     26 H                     0.112349
     27 C                    -0.196529
     28 H                     0.133993
     29 H                     0.111941
     30 H                     0.111841
     31 H                     0.213110
     32 C                    -0.088415
     33 S                     0.034743
     34 C                    -0.142784
     35 C                    -0.134618
     36 C                    -0.230355
     37 H                     0.191214
     38 H                     0.189733
     39 H                     0.209198
  ----------------------------------------
  Sum of atomic charges =     0.000000

 -----------------------------------------------------------------
                    Cartesian Multipole Moments
 -----------------------------------------------------------------
    Charge (ESU x 10^10)
                 0.0000
    Dipole Moment (Debye)
         X       2.1818      Y       1.3340      Z      -0.6668
       Tot       2.6428
    Quadrupole Moments (Debye-Ang)
        XX    -174.4680     XY       5.9725     YY    -173.3827
        XZ      -7.4433     YZ       0.2455     ZZ    -162.2270
    Octopole Moments (Debye-Ang^2)
       XXX    -132.0483    XXY     555.6005    XYY     -25.3957
       YYY    1620.8665    XXZ     -23.1047    XYZ      42.1470
       YYZ     -17.6162    XZZ     -37.0442    YZZ     507.9785
       ZZZ     -79.1087
    Hexadecapole Moments (Debye-Ang^3)
      XXXX   -4854.3802   XXXY    -168.9107   XXYY   -3831.4179
      XYYY    -765.3135   YYYY  -17143.4911   XXXZ   -1362.1448
      XXYZ      75.3904   XYYZ    -680.6647   YYYZ    -425.5089
      XXZZ   -1142.8827   XYZZ     -45.9109   YYZZ   -3075.2621
      XZZZ   -1291.6264   YZZZ    -169.0797   ZZZZ   -1902.9621
 -----------------------------------------------------------------
 Total job time:  251.90s(wall), 7882.42s(cpu) 
 Fri Dec 15 14:26:18 2023

        *************************************************************
        *                                                           *
        *  Thank you very much for using Q-Chem.  Have a nice day.  *
        *                                                           *
        *************************************************************


0 sent ACK to 0 
now end server 0 ... 
cleanup process ... done
remove work dirs ./qchem2779587.0 -- ./qchem2779587.0
rm -rf ./qchem2779587.0
rm -rf ./qchem2779587
