You are running Q-Chem version: 5.4.0

#
# job setting
#
local host:  exp-2-40
current dir: /home/rramji/project-csd799/aromodel/pndit-qchem/rotation_run
input file:  Dimethyl_Naphthalene_Dicarboximide_Phi_25_Theta_180_Thiophene.qcin
output file: 
nprocs     : 1
nthreads   : 64
#
# qchem installation setting
#
QC:          /cm/shared/apps/spack/cpu/opt/spack/linux-centos8-zen2/gcc-10.2.0/qchem-5.4-akfmr7b3t57bfs6qan3padb2wnb2i7cl
QCAUX:       /cm/shared/apps/spack/cpu/opt/spack/linux-centos8-zen2/gcc-10.2.0/qchem-5.4-akfmr7b3t57bfs6qan3padb2wnb2i7cl/qcaux
QCPROG:      /cm/shared/apps/spack/cpu/opt/spack/linux-centos8-zen2/gcc-10.2.0/qchem-5.4-akfmr7b3t57bfs6qan3padb2wnb2i7cl/exe/qcprog.exe
QCPROG_S:    /cm/shared/apps/spack/cpu/opt/spack/linux-centos8-zen2/gcc-10.2.0/qchem-5.4-akfmr7b3t57bfs6qan3padb2wnb2i7cl/exe/qcprog.exe_s
PARALLEL:    -DPARALLEL
QCMPI:       mpich
#
# qchem directory setting
#
qcrun:       qchem741879
QCSCRATCH:   .
QCLOCALSCR:  
QCTMPDIR:    .
QCFILEPREF:  ./qchem741879
QCSAVEDIR:   
workdirs:    ./qchem741879
workdir0:    ./qchem741879
partmpdirs =  
#
# parallel setting
#
QCRSH:           ssh
QCMPI:           mpich
QCMPIRUN:        /cm/shared/apps/spack/cpu/opt/spack/linux-centos8-zen2/gcc-10.2.0/qchem-5.4-akfmr7b3t57bfs6qan3padb2wnb2i7cl/bin/mpi/mpirun_qchem
QCMACHINEFILE:   ./qchem741879/hostfile
exp-2-40

#
# env setting
#
exported envs:   QC QCAUX QCSCRATCH QCRUNNAME QCFILEPREF QCPROG QCPROG_S GUIFILE

Running Job 1 of 1 Dimethyl_Naphthalene_Dicarboximide_Phi_25_Theta_180_Thiophene.qcin
qchem Dimethyl_Naphthalene_Dicarboximide_Phi_25_Theta_180_Thiophene.qcin_741879.0 ./qchem741879/ 1
/cm/shared/apps/spack/cpu/opt/spack/linux-centos8-zen2/gcc-10.2.0/qchem-5.4-akfmr7b3t57bfs6qan3padb2wnb2i7cl/bin/mpi/mpirun_qchem -machinefile ./qchem741879/hostfile -np 1 /cm/shared/apps/spack/cpu/opt/spack/linux-centos8-zen2/gcc-10.2.0/qchem-5.4-akfmr7b3t57bfs6qan3padb2wnb2i7cl/exe/qcprog.exe Dimethyl_Naphthalene_Dicarboximide_Phi_25_Theta_180_Thiophene.qcin_741879.0 ./qchem741879/

Process 0 of 1 is on exp-2-40 - thread support 0
initial socket setup ...start
initial socket setup ...done 
now start server 0 ... 
                  Welcome to Q-Chem
     A Quantum Leap Into The Future Of Chemistry


 Q-Chem 5.4, Q-Chem, Inc., Pleasanton, CA (2021)

 License issued to: University of California, San Diego (site)

 E. Epifanovsky,  A. T. B. Gilbert,  Xintian Feng,  Joonho Lee,  Yuezhi Mao,  
 N. Mardirossian,  P. Pokhilko,  A. White,  M. Wormit,  M. P. Coons,  
 A. L. Dempwolff,  Zhengting Gan,  D. Hait,  P. R. Horn,  L. D. Jacobson,  
 I. Kaliman,  J. Kussmann,  A. W. Lange,  Ka Un Lao,  D. S. Levine,  Jie Liu,  
 S. C. McKenzie,  A. F. Morrison,  K. Nanda,  F. Plasser,  D. R. Rehn,  
 M. L. Vidal,  Zhi-Qiang You,  Ying Zhu,  B. Alam,  B. Albrecht,  
 A. Aldossary,  E. Alguire,  J. H. Andersen,  D. Barton,  K. Begam,  A. Behn,  
 Y. A. Bernard,  E. J. Berquist,  H. Burton,  A. Carreras,  K. Carter-Fenk,  
 R. Chakraborty,  A. D. Chien,  K. D. Closser,  V. Cofer-Shabica,  
 S. Dasgupta,  Jia Deng,  M. de Wergifosse,  M. Diedenhofen,  Hainam Do,  
 S. Ehlert,  Po-Tung Fang,  S. Fatehi,  Qingguo Feng,  J. Gayvert,  
 Qinghui Ge,  G. Gidofalvi,  M. Goldey,  J. Gomes,  C. Gonzalez-Espinoza,  
 S. Gulania,  A. Gunina,  M. W. D. Hanson-Heine,  P. H. P. Harbach,  
 A. W. Hauser,  M. F. Herbst,  M. Hernandez Vera,  M. Hodecker,  
 Z. C. Holden,  S. Houck,  Xunkun Huang,  Kerwin Hui,  B. C. Huynh,  
 M. Ivanov,  Hyunjun Ji,  Hanjie Jiang,  B. Kaduk,  S. Kaehler,  
 K. Khistyaev,  Jaehoon Kim,  P. Klunzinger,  Z. Koczor-Benda,  
 Joong Hoon Koh,  D. Kosenkov,  L. Koulias,  T. Kowalczyk,  C. M. Krauter,  
 K. Kue,  A. Kunitsa,  T. Kus,  A. Landau,  K. V. Lawler,  D. Lefrancois,  
 S. Lehtola,  Rain Li,  Yi-Pei Li,  Jiashu Liang,  M. Liebenthal,  
 Hung-Hsuan Lin,  You-Sheng Lin,  Fenglai Liu,  Kuan-Yu Liu,  
 M. Loipersberger,  A. Luenser,  A. Manjanath,  P. Manohar,  E. Mansoor,  
 S. F. Manzer,  Shan-Ping Mao,  A. V. Marenich,  T. Markovich,  S. Mason,  
 S. A. Maurer,  P. F. McLaughlin,  M. F. S. J. Menger,  J.-M. Mewes,  
 S. A. Mewes,  P. Morgante,  J. W. Mullinax,  T. S. Nguyen-Beck,  
 K. J. Oosterbaan,  G. Paran,  Alexander C. Paul,  Suranjan K. Paul,  
 F. Pavosevic,  Zheng Pei,  S. Prager,  E. I. Proynov,  E. Ramos,  B. Rana,  
 A. E. Rask,  A. Rettig,  R. M. Richard,  F. Rob,  E. Rossomme,  T. Scheele,  
 M. Scheurer,  M. Schneider,  N. Sergueev,  S. M. Sharada,  W. Skomorowski,  
 D. W. Small,  C. J. Stein,  Yu-Chuan Su,  E. J. Sundstrom,  Zhen Tao,  
 J. Thirman,  T. Tsuchimochi,  N. M. Tubman,  S. P. Veccham,  O. Vydrov,  
 J. Wenzel,  J. Witte,  A. Yamada,  Kun Yao,  S. Yeganeh,  S. R. Yost,  
 A. Zech,  Igor Ying Zhang,  Xing Zhang,  Yu Zhang,  D. Zuev,  
 A. Aspuru-Guzik,  A. T. Bell,  N. A. Besley,  K. B. Bravaya,  B. R. Brooks,  
 D. Casanova,  Jeng-Da Chai,  S. Coriani,  C. J. Cramer,  
 A. E. DePrince, III,  R. A. DiStasio Jr.,  A. Dreuw,  B. D. Dunietz,  
 T. R. Furlani,  W. A. Goddard III,  S. Grimme,  S. Hammes-Schiffer,  
 T. Head-Gordon,  W. J. Hehre,  Chao-Ping Hsu,  T.-C. Jagau,  Yousung Jung,  
 A. Klamt,  Jing Kong,  D. S. Lambrecht,  WanZhen Liang,  N. J. Mayhall,  
 C. W. McCurdy,  J. B. Neaton,  C. Ochsenfeld,  J. A. Parkhill,  R. Peverati,  
 V. A. Rassolov,  Yihan Shao,  L. V. Slipchenko,  T. Stauch,  R. P. Steele,  
 J. E. Subotnik,  A. J. W. Thom,  A. Tkatchenko,  D. G. Truhlar,  
 T. Van Voorhis,  T. A. Wesolowski,  K. B. Whaley,  H. L. Woodcock III,  
 P. M. Zimmerman,  S. Faraji,  P. M. W. Gill,  M. Head-Gordon,  
 J. M. Herbert,  A. I. Krylov

 Contributors to earlier versions of Q-Chem not listed above: 
 R. D. Adamson,  B. Austin,  R. Baer,  J. Baker,  G. J. O. Beran,  
 K. Brandhorst,  S. T. Brown,  E. F. C. Byrd,  A. K. Chakraborty,  
 G. K. L. Chan,  Chun-Min Chang,  Yunqing Chen,  C.-L. Cheng,  
 Siu Hung Chien,  D. M. Chipman,  D. L. Crittenden,  H. Dachsel,  
 R. J. Doerksen,  A. D. Dutoi,  R. G. Edgar,  J. Fosso-Tande,  
 L. Fusti-Molnar,  D. Ghosh,  A. Ghysels,  A. Golubeva-Zadorozhnaya,  
 J. Gonthier,  M. S. Gordon,  S. R. Gwaltney,  G. Hawkins,  J. E. Herr,  
 A. Heyden,  S. Hirata,  E. G. Hohenstein,  G. Kedziora,  F. J. Keil,  
 C. Kelley,  Jihan Kim,  R. A. King,  R. Z. Khaliullin,  P. P. Korambath,  
 W. Kurlancheek,  A. Laurent,  A. M. Lee,  M. S. Lee,  S. V. Levchenko,  
 Ching Yeh Lin,  D. Liotard,  E. Livshits,  R. C. Lochan,  I. Lotan,  
 L. A. Martinez-Martinez,  P. E. Maslen,  N. Nair,  D. P. O'Neill,  
 D. Neuhauser,  E. Neuscamman,  C. M. Oana,  R. Olivares-Amaya,  R. Olson,  
 T. M. Perrine,  B. Peters,  P. A. Pieniazek,  A. Prociuk,  Y. M. Rhee,  
 J. Ritchie,  M. A. Rohrdanz,  E. Rosta,  N. J. Russ,  H. F. Schaefer III,  
 M. W. Schmidt,  N. E. Schultz,  S. Sharma,  N. Shenvi,  C. D. Sherrill,  
 A. C. Simmonett,  A. Sodt,  T. Stein,  D. Stuck,  K. S. Thanthiriwatte,  
 V. Vanovschi,  L. Vogt,  Tao Wang,  A. Warshel,  M. A. Watson,  
 C. F. Williams,  Q. Wu,  X. Xu,  Jun Yang,  W. Zhang,  Yan Zhao

 Please cite Q-Chem as follows:
 Y. Shao et al., Mol. Phys. 113, 184-215 (2015)
 DOI: 10.1080/00268976.2014.952696

 Q-Chem 5.4.0 for Intel X86 EM64T Linux

 Parts of Q-Chem use Armadillo 9.800.1 (Horizon Scraper).
 http://arma.sourceforge.net/

 Q-Chem begins on Fri Dec 15 14:46:24 2023  

 Host: 
0

     Scratch files written to ./qchem741879//
 May1621 |scratch|qcdevops|jenkins|workspace|build_RNUM    
 Parallel job on  1  processors
 Processing $rem in /cm/shared/apps/spack/cpu/opt/spack/linux-centos8-zen2/gcc-10.2.0/qchem-5.4-akfmr7b3t57bfs6qan3padb2wnb2i7cl/config/preferences:
 Processing $rem in /home/rramji/.qchemrc:
 Symmetry turned off for PCM/SM12/SMD calculation
 Core orbitals will be frozen

 Checking the input file for inconsistencies... 	...done.

 Q-Chem warning in module forms1/BasisType.C, line 2236:

 You are not using the predefined 5D/6D in this basis set.


--------------------------------------------------------------
User input:
--------------------------------------------------------------
$molecule
0 1
C	0.001478	-6.741404	0.256927
C	0.001603	-6.155638	1.562675
C	0.001931	-5.791452	-0.827197
C	0.001374	-4.803786	1.841253
H	0.001794	-6.821518	2.440709
C	0.001227	-4.378638	-0.535488
C	0.000872	-3.838032	0.794999
C	0.000658	-3.413062	-1.580529
C	0.000186	-2.426473	1.084374
C	0.000046	-2.059348	-1.305258
C	-0.000000	-1.478216	-0.000000
H	-0.000369	-1.394783	-2.184267
C	0.003770	-6.187987	-2.269719
C	0.000767	-3.798164	-3.011152
N	0.002465	-5.170003	-3.254617
C	0.001433	-4.424987	3.275775
C	-0.000576	-2.036627	2.527951
N	0.000400	-3.049156	3.513104
O	0.006623	-7.353131	-2.661046
O	-0.000172	-2.986854	-3.934410
O	0.002151	-5.248946	4.188059
O	-0.002006	-0.878829	2.940845
C	0.003509	-5.563799	-4.667206
H	0.004658	-6.664085	-4.712423
H	0.897610	-5.147101	-5.169231
H	-0.890935	-5.148785	-5.169992
C	-0.000039	-2.587487	4.904229
H	0.001022	-3.483329	5.546833
H	-0.894545	-1.964972	5.095998
H	0.893071	-1.962932	5.095858
H	0.001797	-7.822318	0.070974
C	0.000000	0.000000	0.000000
S	0.335026	0.718942	1.580530
C	1.027130	2.203226	0.904911
C	0.421617	0.904557	-0.985400
C	0.979485	2.101144	-0.493528
H	0.322049	0.690978	-2.059934
H	1.351718	2.899571	-1.152593
H	1.399246	3.001430	1.556025
$end

$rem
JOBTYPE		SP
EXCHANGE	HF
CORRELATION	pRIMP2
BASIS		cc-pvtz
METHOD		rimp2
AUX_BASIS	rimp2-cc-pvtz
SOLVENT_METHOD	PCM
PURECART	11111
SYMMETRY	false
MEM_TOTAL	110000
SCF_CONVERGENCE = 6
THRESH=10
GUI = 2
$end



$solvent
dielectric 4.90
$end
--------------------------------------------------------------
 ----------------------------------------------------------------
             Standard Nuclear Orientation (Angstroms)
    I     Atom           X                Y                Z
 ----------------------------------------------------------------
    1      C       0.0014780000    -6.7414040000     0.2569270000
    2      C       0.0016030000    -6.1556380000     1.5626750000
    3      C       0.0019310000    -5.7914520000    -0.8271970000
    4      C       0.0013740000    -4.8037860000     1.8412530000
    5      H       0.0017940000    -6.8215180000     2.4407090000
    6      C       0.0012270000    -4.3786380000    -0.5354880000
    7      C       0.0008720000    -3.8380320000     0.7949990000
    8      C       0.0006580000    -3.4130620000    -1.5805290000
    9      C       0.0001860000    -2.4264730000     1.0843740000
   10      C       0.0000460000    -2.0593480000    -1.3052580000
   11      C       0.0000000000    -1.4782160000     0.0000000000
   12      H      -0.0003690000    -1.3947830000    -2.1842670000
   13      C       0.0037700000    -6.1879870000    -2.2697190000
   14      C       0.0007670000    -3.7981640000    -3.0111520000
   15      N       0.0024650000    -5.1700030000    -3.2546170000
   16      C       0.0014330000    -4.4249870000     3.2757750000
   17      C      -0.0005760000    -2.0366270000     2.5279510000
   18      N       0.0004000000    -3.0491560000     3.5131040000
   19      O       0.0066230000    -7.3531310000    -2.6610460000
   20      O      -0.0001720000    -2.9868540000    -3.9344100000
   21      O       0.0021510000    -5.2489460000     4.1880590000
   22      O      -0.0020060000    -0.8788290000     2.9408450000
   23      C       0.0035090000    -5.5637990000    -4.6672060000
   24      H       0.0046580000    -6.6640850000    -4.7124230000
   25      H       0.8976100000    -5.1471010000    -5.1692310000
   26      H      -0.8909350000    -5.1487850000    -5.1699920000
   27      C      -0.0000390000    -2.5874870000     4.9042290000
   28      H       0.0010220000    -3.4833290000     5.5468330000
   29      H      -0.8945450000    -1.9649720000     5.0959980000
   30      H       0.8930710000    -1.9629320000     5.0958580000
   31      H       0.0017970000    -7.8223180000     0.0709740000
   32      C       0.0000000000     0.0000000000     0.0000000000
   33      S       0.3350260000     0.7189420000     1.5805300000
   34      C       1.0271300000     2.2032260000     0.9049110000
   35      C       0.4216170000     0.9045570000    -0.9854000000
   36      C       0.9794850000     2.1011440000    -0.4935280000
   37      H       0.3220490000     0.6909780000    -2.0599340000
   38      H       1.3517180000     2.8995710000    -1.1525930000
   39      H       1.3992460000     3.0014300000     1.5560250000
 ----------------------------------------------------------------
 Nuclear Repulsion Energy =        2520.01238654 hartrees
 There are       97 alpha and       97 beta electrons
 Requested basis set is cc-pVTZ
 There are 344 shells and 982 basis functions

 Total QAlloc Memory Limit 110000 MB
 Mega-Array Size       188 MB
 MEM_STATIC part       192 MB
 Discretize the solute cavity surface with Lebedev spheres
	Using 110 Lebedev grid points for each H atom
	Using 194 Lebedev grid points for other atoms
	Atomic van der Waals radii will be scaled by 1.20
 Remove points where switching function is < 1.0e-08
 Keep 2482 surface tesserae and discard 4076 interior tesserae
 Molecular Surface Area = 359.366 Angst**2
 Requested basis set is rimp2-cc-pVTZ
 There are 750 shells and 2588 basis functions
 A cutoff of  1.0D-10 yielded  31873 shell pairs
 There are    245393 function pairs (    318782 Cartesian)
 Smallest overlap matrix eigenvalue = 9.50E-06

 Q-Chem warning in module stvman/mkSTV.C, line 323:

 Overlap eigenvalue is smaller than square root of threshold
 Use THRESH >= 12 to get rid of this warning


 Scale SEOQF with 1.000000e+00/1.000000e-02/1.000000e-02

 Standard Electronic Orientation quadrupole field applied
 Nucleus-field energy     =     0.0000000164 hartrees
 Guess from superposition of atomic densities
 Warning:  Energy on first SCF cycle will be non-variational
 SAD guess density has 194.000000 electrons

 -----------------------------------------------------------------------
  General SCF calculation program by
  Eric Jon Sundstrom, Paul Horn, Yuezhi Mao, Dmitri Zuev, Alec White,
  David Stuck, Shaama M.S., Shane Yost, Joonho Lee, David Small,
  Daniel Levine, Susi Lehtola, Hugh Burton, Evgeny Epifanovsky,
  Bang C. Huynh
 -----------------------------------------------------------------------
 Hartree-Fock
 using 64 threads for integral computing
 -------------------------------------------------------
 OpenMP Integral computing Module                
 Release: version 1.0, May 2013, Q-Chem Inc. Pittsburgh 
 -------------------------------------------------------
 A restricted SCF calculation will be
 performed using DIIS
 SCF converges when DIIS error is below 1.0e-06
 ---------------------------------------
  Cycle       Energy         DIIS error
 ---------------------------------------
    1   -1581.4978491474      1.88e-02  
    2   -1570.0705774668      2.07e-03  
    3   -1570.3963931883      1.59e-03  
    4   -1570.6187470820      2.61e-04  
    5   -1570.6310284276      7.67e-05  
    6   -1570.6321163077      2.88e-05  
    7   -1570.6323816176      1.48e-05  
    8   -1570.6324723497      6.21e-06  
    9   -1570.6324883747      2.45e-06  
   10   -1570.6324914133      1.01e-06  
   11   -1570.6324920648      4.57e-07  Convergence criterion met
 ---------------------------------------
 SCF time:   CPU 6583.02s  wall 238.00s 

************** Final PCM Free Energy Summary **************
 G_electrostatic  =      -0.02191890 hartree =     -13.75431503 kcal/mol
 G_cavitation     =       0.00000000 hartree =       0.00000000 kcal/mol
 G_dispersion     =       0.00000000 hartree =       0.00000000 kcal/mol
 G_repulsion      =       0.00000000 hartree =       0.00000000 kcal/mol
 --------------------------------------------------
 Non-electrostatic Free Energy =       0.00000000 hartree =       0.00000000 kcal/mol
 Total                         =      -0.02191890 hartree =     -13.75431503 kcal/mol
 --------------------------------------------------
 SCF Energy (H0 + V/2)                       =   -1570.63249206 
 Solute Internal Energy (H0)                 =   -1570.61057317 
 Total Free Energy (H0 + V/2 + non-elec)     =   -1570.63249206 hartree
                                             = -985586.76423100 kcal/mol
***********************************************************

 SCF   energy in the final basis set =    -1570.6324920648
 Total energy in the final basis set =    -1570.6324920648


 --------------------------------------------------------------
  Generalized many-body perturbation theory program
  by Joonho Lee, Fazle Rob, Xintian Feng, Evgeny Epifanovsky

 No regularization used 
 (reg. param. = 0.0000e+00)
  (P|Q)^-1/2 Time:  CPU 123.06 s  wall 2.23 s

 In RI-MP2 calculation: 
 # of frozen core orbitals: 31

 Components of the RIMP2 correlation energy:
        aaaa    correlation energy =        -0.6208108886 a.u.
        abab    correlation energy =        -3.4002416032 a.u.
        bbbb    correlation energy =        -0.6208108886 a.u.
        non-Brillouin singles      =        -0.0000000000 a.u.
        total same-spin energy     =        -1.2416217771 a.u.
        total opposite-spin energy =        -3.4002416032 a.u.

 Total  RIMP2   correlation energy =        -4.6418633803 a.u.
        RIMP2         total energy =     -1575.2743554451 a.u.

 RI-MP2 Energy Time:  CPU 1899.20 s  wall 31.16 s
 
 --------------------------------------------------------------
 
                    Orbital Energies (a.u.)
 --------------------------------------------------------------
 
 Alpha MOs
 -- Occupied --
-91.9757 -20.5607 -20.5589 -20.5570 -20.5537 -15.6324 -15.6315 -11.4006
-11.4000 -11.3916 -11.3912 -11.3221 -11.3020 -11.3009 -11.2973 -11.2943
-11.2925 -11.2875 -11.2866 -11.2825 -11.2786 -11.2778 -11.2704 -11.2657
-11.2648 -11.2635 -11.2428  -8.9755  -6.6559  -6.6543  -6.6534  -1.4363
 -1.4252  -1.4081  -1.4046  -1.2704  -1.2667  -1.2168  -1.1735  -1.1419
 -1.1163  -1.0613  -1.0493  -0.9932  -0.9905  -0.9816  -0.9594  -0.9465
 -0.8977  -0.8803  -0.8776  -0.8634  -0.7929  -0.7793  -0.7774  -0.7602
 -0.7324  -0.7289  -0.7027  -0.6931  -0.6896  -0.6745  -0.6686  -0.6635
 -0.6575  -0.6413  -0.6385  -0.6365  -0.6267  -0.6148  -0.5849  -0.5835
 -0.5813  -0.5766  -0.5715  -0.5651  -0.5628  -0.5568  -0.5562  -0.5493
 -0.5329  -0.5268  -0.5213  -0.5171  -0.4900  -0.4732  -0.4665  -0.4631
 -0.4569  -0.4329  -0.4208  -0.4099  -0.3832  -0.3753  -0.3402  -0.3369
 -0.2948
 -- Virtual --
 -0.0181   0.0550   0.0669   0.1066   0.1199   0.1557   0.1576   0.1609
  0.1666   0.1800   0.1811   0.1861   0.1893   0.1972   0.2076   0.2148
  0.2267   0.2277   0.2283   0.2368   0.2579   0.2617   0.2669   0.2714
  0.2770   0.3062   0.3120   0.3156   0.3255   0.3302   0.3336   0.3405
  0.3464   0.3501   0.3565   0.3583   0.3616   0.3664   0.3730   0.3799
  0.3819   0.3897   0.3941   0.3965   0.4062   0.4085   0.4092   0.4170
  0.4230   0.4307   0.4377   0.4416   0.4426   0.4486   0.4520   0.4573
  0.4581   0.4632   0.4707   0.4733   0.4754   0.4832   0.4891   0.4956
  0.5010   0.5018   0.5099   0.5158   0.5174   0.5244   0.5256   0.5331
  0.5394   0.5414   0.5489   0.5529   0.5554   0.5595   0.5640   0.5699
  0.5735   0.5783   0.5814   0.5880   0.5888   0.5957   0.5990   0.6027
  0.6067   0.6085   0.6118   0.6167   0.6221   0.6265   0.6291   0.6294
  0.6339   0.6372   0.6390   0.6434   0.6446   0.6527   0.6636   0.6743
  0.6858   0.6911   0.6969   0.6993   0.7049   0.7106   0.7146   0.7266
  0.7328   0.7391   0.7482   0.7521   0.7562   0.7615   0.7628   0.7716
  0.7770   0.7830   0.7890   0.7984   0.8052   0.8111   0.8130   0.8198
  0.8316   0.8357   0.8379   0.8460   0.8471   0.8531   0.8572   0.8635
  0.8656   0.8667   0.8800   0.8837   0.8909   0.8990   0.9061   0.9137
  0.9177   0.9212   0.9219   0.9275   0.9341   0.9381   0.9427   0.9466
  0.9488   0.9602   0.9629   0.9650   0.9762   0.9781   0.9832   0.9881
  0.9948   0.9983   1.0064   1.0094   1.0172   1.0215   1.0230   1.0319
  1.0366   1.0421   1.0498   1.0584   1.0661   1.0695   1.0755   1.0772
  1.0795   1.0819   1.0901   1.0916   1.0952   1.0970   1.1063   1.1125
  1.1179   1.1283   1.1340   1.1377   1.1428   1.1475   1.1563   1.1612
  1.1659   1.1713   1.1756   1.1827   1.1858   1.1890   1.1953   1.2003
  1.2035   1.2113   1.2146   1.2220   1.2274   1.2351   1.2385   1.2397
  1.2450   1.2562   1.2631   1.2662   1.2716   1.2738   1.2810   1.3002
  1.3168   1.3228   1.3288   1.3344   1.3408   1.3444   1.3608   1.3621
  1.3722   1.3783   1.3790   1.3850   1.3892   1.3944   1.4119   1.4151
  1.4199   1.4272   1.4342   1.4419   1.4519   1.4577   1.4647   1.4666
  1.4814   1.4830   1.4898   1.4933   1.4936   1.5067   1.5111   1.5244
  1.5314   1.5416   1.5458   1.5491   1.5573   1.5587   1.5666   1.5691
  1.5758   1.5787   1.5863   1.5890   1.6038   1.6104   1.6150   1.6300
  1.6369   1.6435   1.6538   1.6550   1.6688   1.6798   1.6817   1.6953
  1.6997   1.7097   1.7187   1.7260   1.7333   1.7361   1.7476   1.7557
  1.7666   1.7704   1.7724   1.7850   1.7915   1.7971   1.8089   1.8190
  1.8234   1.8303   1.8443   1.8493   1.8535   1.8608   1.8645   1.8734
  1.8829   1.8857   1.9076   1.9111   1.9205   1.9403   1.9423   1.9561
  1.9601   1.9695   1.9747   1.9978   2.0034   2.0279   2.0347   2.0475
  2.0548   2.0733   2.0843   2.1111   2.1145   2.1322   2.1362   2.1378
  2.1460   2.1619   2.1831   2.1912   2.2015   2.2203   2.2251   2.2357
  2.2472   2.2538   2.2605   2.2810   2.2859   2.2957   2.2993   2.3166
  2.3299   2.3340   2.3370   2.3524   2.3589   2.3660   2.3771   2.3929
  2.4096   2.4341   2.4390   2.4445   2.4535   2.4578   2.4747   2.4782
  2.4847   2.4972   2.5006   2.5077   2.5219   2.5248   2.5304   2.5465
  2.5622   2.5685   2.5801   2.5890   2.5899   2.5966   2.6049   2.6152
  2.6206   2.6232   2.6444   2.6553   2.6594   2.6652   2.6672   2.6757
  2.6778   2.6855   2.6952   2.7078   2.7156   2.7203   2.7236   2.7338
  2.7423   2.7488   2.7496   2.7599   2.7668   2.7754   2.7882   2.7990
  2.8050   2.8123   2.8307   2.8339   2.8460   2.8547   2.8560   2.8598
  2.8737   2.8756   2.8834   2.8851   2.8920   2.8951   2.9017   2.9061
  2.9156   2.9257   2.9321   2.9427   2.9513   2.9594   2.9681   2.9750
  2.9770   2.9779   2.9835   3.0003   3.0024   3.0096   3.0177   3.0190
  3.0297   3.0374   3.0456   3.0512   3.0564   3.0655   3.0778   3.0817
  3.0876   3.0946   3.0980   3.1009   3.1064   3.1118   3.1180   3.1205
  3.1269   3.1364   3.1418   3.1527   3.1655   3.1754   3.1803   3.1825
  3.1916   3.1963   3.2032   3.2080   3.2115   3.2169   3.2225   3.2251
  3.2264   3.2290   3.2355   3.2425   3.2522   3.2560   3.2580   3.2668
  3.2680   3.2723   3.2811   3.2873   3.2908   3.2973   3.2989   3.3020
  3.3057   3.3111   3.3183   3.3249   3.3282   3.3309   3.3344   3.3395
  3.3402   3.3430   3.3486   3.3586   3.3641   3.3679   3.3703   3.3788
  3.3846   3.3879   3.3928   3.3989   3.4032   3.4106   3.4124   3.4182
  3.4229   3.4345   3.4372   3.4410   3.4479   3.4494   3.4604   3.4624
  3.4637   3.4669   3.4756   3.4764   3.4779   3.4901   3.4929   3.4966
  3.5036   3.5050   3.5076   3.5146   3.5165   3.5210   3.5242   3.5280
  3.5349   3.5369   3.5479   3.5587   3.5625   3.5751   3.5783   3.5828
  3.5899   3.5949   3.6013   3.6061   3.6147   3.6242   3.6256   3.6310
  3.6369   3.6406   3.6444   3.6491   3.6530   3.6577   3.6744   3.6787
  3.6859   3.6886   3.6952   3.6980   3.7082   3.7102   3.7116   3.7275
  3.7340   3.7374   3.7466   3.7489   3.7542   3.7607   3.7639   3.7720
  3.7783   3.7846   3.7878   3.7921   3.7968   3.8005   3.8024   3.8106
  3.8184   3.8198   3.8299   3.8361   3.8434   3.8444   3.8532   3.8589
  3.8669   3.8702   3.8727   3.8881   3.8945   3.9013   3.9157   3.9237
  3.9334   3.9388   3.9401   3.9456   3.9477   3.9574   3.9776   3.9788
  3.9881   4.0030   4.0065   4.0104   4.0182   4.0274   4.0345   4.0478
  4.0508   4.0611   4.0721   4.0802   4.0863   4.0997   4.1010   4.1018
  4.1111   4.1320   4.1385   4.1483   4.1513   4.1578   4.1659   4.1747
  4.1801   4.1850   4.1932   4.2025   4.2094   4.2232   4.2307   4.2338
  4.2539   4.2653   4.2689   4.2740   4.2769   4.2816   4.2864   4.2920
  4.2965   4.3009   4.3096   4.3182   4.3238   4.3340   4.3386   4.3462
  4.3518   4.3580   4.3645   4.3652   4.3691   4.3728   4.3783   4.3864
  4.3946   4.4036   4.4064   4.4083   4.4195   4.4225   4.4272   4.4461
  4.4594   4.4698   4.4735   4.4805   4.5023   4.5087   4.5148   4.5176
  4.5235   4.5273   4.5414   4.5478   4.5513   4.5540   4.5751   4.5770
  4.5777   4.5837   4.5866   4.5935   4.6070   4.6162   4.6285   4.6321
  4.6394   4.6638   4.6663   4.6681   4.6754   4.6850   4.6870   4.6954
  4.7200   4.7299   4.7313   4.7430   4.7652   4.7789   4.7842   4.7906
  4.8183   4.8255   4.8324   4.8366   4.8585   4.8683   4.8692   4.8800
  4.8954   4.9089   4.9138   4.9368   4.9442   4.9725   4.9834   4.9893
  5.0069   5.0109   5.0244   5.0383   5.0422   5.0493   5.0535   5.0703
  5.0933   5.1038   5.1080   5.1169   5.1254   5.1313   5.1476   5.1584
  5.1610   5.1759   5.1865   5.1970   5.2059   5.2313   5.2462   5.2555
  5.2703   5.2770   5.2883   5.2988   5.3066   5.3233   5.3308   5.3551
  5.3574   5.3948   5.4010   5.4020   5.4271   5.4330   5.4433   5.4557
  5.4874   5.5081   5.5083   5.5112   5.5124   5.5316   5.5473   5.5535
  5.5595   5.5631   5.5717   5.5770   5.5842   5.5911   5.6077   5.6156
  5.6275   5.6403   5.6520   5.6542   5.6665   5.6755   5.6769   5.6946
  5.7025   5.7142   5.7339   5.7496   5.7523   5.7582   5.7631   5.7770
  5.7847   5.7876   5.8194   5.8288   5.8681   5.8787   5.9075   5.9261
  5.9481   5.9698   5.9972   6.0149   6.0229   6.0283   6.0338   6.0469
  6.0813   6.0975   6.1000   6.1149   6.1307   6.1765   6.1980   6.2091
  6.2172   6.2206   6.2257   6.2688   6.2740   6.2854   6.3089   6.3506
  6.3521   6.3745   6.4413   6.4548   6.4731   6.5301   6.5605   6.5649
  6.5876   6.6234   6.6337   6.6454   6.6570   6.6629   6.7108   6.8334
  6.8391   6.8832   6.8857   6.8975   6.9108   6.9314   6.9819   7.0796
  7.1339   7.1489   7.1856   7.2150   7.2950   7.3321   7.3417   7.3435
  7.3539   7.4663   7.5478   7.5578   7.5755   7.5808   7.6343   7.6464
  7.6776   7.7109   7.7660   8.4229   9.9054  10.3417  11.1491  11.2016
 11.6998  11.7941  12.0344  12.3957  12.4739  12.7389  12.8547  12.9190
 13.3598  13.5420  13.8198  13.9388  14.0494  14.1744  14.3021  14.3725
 14.4510  14.7487  15.3367  15.7499  16.0047
 --------------------------------------------------------------
 
          Ground-State Mulliken Net Atomic Charges

     Atom                 Charge (a.u.)
  ----------------------------------------
      1 C                    -0.150173
      2 C                    -0.111474
      3 C                    -0.026679
      4 C                    -0.004060
      5 H                     0.187745
      6 C                     0.002319
      7 C                     0.079880
      8 C                     0.005104
      9 C                    -0.098677
     10 C                    -0.130302
     11 C                     0.065158
     12 H                     0.182436
     13 C                     0.359148
     14 C                     0.362342
     15 N                    -0.101811
     16 C                     0.358408
     17 C                     0.381424
     18 N                    -0.091340
     19 O                    -0.463664
     20 O                    -0.477088
     21 O                    -0.482836
     22 O                    -0.438508
     23 C                    -0.201208
     24 H                     0.141266
     25 H                     0.112331
     26 H                     0.112403
     27 C                    -0.199008
     28 H                     0.135443
     29 H                     0.113519
     30 H                     0.113439
     31 H                     0.212034
     32 C                     0.003647
     33 S                     0.102076
     34 C                    -0.228435
     35 C                    -0.169799
     36 C                    -0.232114
     37 H                     0.187749
     38 H                     0.183989
     39 H                     0.205317
  ----------------------------------------
  Sum of atomic charges =     0.000000

 -----------------------------------------------------------------
                    Cartesian Multipole Moments
 -----------------------------------------------------------------
    Charge (ESU x 10^10)
                 0.0000
    Dipole Moment (Debye)
         X       0.7867      Y       1.2349      Z      -0.1460
       Tot       1.4715
    Quadrupole Moments (Debye-Ang)
        XX    -162.3294     XY       3.7544     YY    -173.1691
        XZ       0.5290     YZ       0.3558     ZZ    -175.5863
    Octopole Moments (Debye-Ang^2)
       XXX     -61.8695    XXY     475.1309    XYY      -7.1920
       YYY    1620.3432    XXZ     -31.9092    XYZ       2.7676
       YYZ     -25.8241    XZZ     -15.4543    YZZ     561.7924
       ZZZ    -101.7825
    Hexadecapole Moments (Debye-Ang^3)
      XXXX    -290.9851   XXXY     -99.3455   XXYY   -2675.4918
      XYYY     -53.1285   YYYY  -17305.7964   XXXZ     -19.1958
      XXYZ    -129.2734   XYYZ       3.9697   YYYZ    -785.6278
      XXZZ   -1071.8168   XYZZ     -19.5671   YYZZ   -4251.4172
      XZZZ     -16.4395   YZZZ     -34.8097   ZZZZ   -6429.5714
 -----------------------------------------------------------------
 Total job time:  274.18s(wall), 8587.23s(cpu) 
 Fri Dec 15 14:50:58 2023

        *************************************************************
        *                                                           *
        *  Thank you very much for using Q-Chem.  Have a nice day.  *
        *                                                           *
        *************************************************************


0 sent ACK to 0 
now end server 0 ... 
cleanup process ... done
remove work dirs ./qchem741879.0 -- ./qchem741879.0
rm -rf ./qchem741879.0
rm -rf ./qchem741879
