You are running Q-Chem version: 5.4.0

#
# job setting
#
local host:  exp-5-28
current dir: /home/rramji/project-csd799/aromodel/pndit-qchem/rotation_run
input file:  Dimethyl_Naphthalene_Dicarboximide_Phi_60_Theta_140_Thiophene.qcin
output file: 
nprocs     : 1
nthreads   : 64
#
# qchem installation setting
#
QC:          /cm/shared/apps/spack/cpu/opt/spack/linux-centos8-zen2/gcc-10.2.0/qchem-5.4-akfmr7b3t57bfs6qan3padb2wnb2i7cl
QCAUX:       /cm/shared/apps/spack/cpu/opt/spack/linux-centos8-zen2/gcc-10.2.0/qchem-5.4-akfmr7b3t57bfs6qan3padb2wnb2i7cl/qcaux
QCPROG:      /cm/shared/apps/spack/cpu/opt/spack/linux-centos8-zen2/gcc-10.2.0/qchem-5.4-akfmr7b3t57bfs6qan3padb2wnb2i7cl/exe/qcprog.exe
QCPROG_S:    /cm/shared/apps/spack/cpu/opt/spack/linux-centos8-zen2/gcc-10.2.0/qchem-5.4-akfmr7b3t57bfs6qan3padb2wnb2i7cl/exe/qcprog.exe_s
PARALLEL:    -DPARALLEL
QCMPI:       mpich
#
# qchem directory setting
#
qcrun:       qchem194954
QCSCRATCH:   .
QCLOCALSCR:  
QCTMPDIR:    .
QCFILEPREF:  ./qchem194954
QCSAVEDIR:   
workdirs:    ./qchem194954
workdir0:    ./qchem194954
partmpdirs =  
#
# parallel setting
#
QCRSH:           ssh
QCMPI:           mpich
QCMPIRUN:        /cm/shared/apps/spack/cpu/opt/spack/linux-centos8-zen2/gcc-10.2.0/qchem-5.4-akfmr7b3t57bfs6qan3padb2wnb2i7cl/bin/mpi/mpirun_qchem
QCMACHINEFILE:   ./qchem194954/hostfile
exp-5-28

#
# env setting
#
exported envs:   QC QCAUX QCSCRATCH QCRUNNAME QCFILEPREF QCPROG QCPROG_S GUIFILE

Running Job 1 of 1 Dimethyl_Naphthalene_Dicarboximide_Phi_60_Theta_140_Thiophene.qcin
qchem Dimethyl_Naphthalene_Dicarboximide_Phi_60_Theta_140_Thiophene.qcin_194954.0 ./qchem194954/ 1
/cm/shared/apps/spack/cpu/opt/spack/linux-centos8-zen2/gcc-10.2.0/qchem-5.4-akfmr7b3t57bfs6qan3padb2wnb2i7cl/bin/mpi/mpirun_qchem -machinefile ./qchem194954/hostfile -np 1 /cm/shared/apps/spack/cpu/opt/spack/linux-centos8-zen2/gcc-10.2.0/qchem-5.4-akfmr7b3t57bfs6qan3padb2wnb2i7cl/exe/qcprog.exe Dimethyl_Naphthalene_Dicarboximide_Phi_60_Theta_140_Thiophene.qcin_194954.0 ./qchem194954/

Process 0 of 1 is on exp-5-28 - thread support 0
initial socket setup ...start
initial socket setup ...done 
now start server 0 ... 
                  Welcome to Q-Chem
     A Quantum Leap Into The Future Of Chemistry


 Q-Chem 5.4, Q-Chem, Inc., Pleasanton, CA (2021)

 License issued to: University of California, San Diego (site)

 E. Epifanovsky,  A. T. B. Gilbert,  Xintian Feng,  Joonho Lee,  Yuezhi Mao,  
 N. Mardirossian,  P. Pokhilko,  A. White,  M. Wormit,  M. P. Coons,  
 A. L. Dempwolff,  Zhengting Gan,  D. Hait,  P. R. Horn,  L. D. Jacobson,  
 I. Kaliman,  J. Kussmann,  A. W. Lange,  Ka Un Lao,  D. S. Levine,  Jie Liu,  
 S. C. McKenzie,  A. F. Morrison,  K. Nanda,  F. Plasser,  D. R. Rehn,  
 M. L. Vidal,  Zhi-Qiang You,  Ying Zhu,  B. Alam,  B. Albrecht,  
 A. Aldossary,  E. Alguire,  J. H. Andersen,  D. Barton,  K. Begam,  A. Behn,  
 Y. A. Bernard,  E. J. Berquist,  H. Burton,  A. Carreras,  K. Carter-Fenk,  
 R. Chakraborty,  A. D. Chien,  K. D. Closser,  V. Cofer-Shabica,  
 S. Dasgupta,  Jia Deng,  M. de Wergifosse,  M. Diedenhofen,  Hainam Do,  
 S. Ehlert,  Po-Tung Fang,  S. Fatehi,  Qingguo Feng,  J. Gayvert,  
 Qinghui Ge,  G. Gidofalvi,  M. Goldey,  J. Gomes,  C. Gonzalez-Espinoza,  
 S. Gulania,  A. Gunina,  M. W. D. Hanson-Heine,  P. H. P. Harbach,  
 A. W. Hauser,  M. F. Herbst,  M. Hernandez Vera,  M. Hodecker,  
 Z. C. Holden,  S. Houck,  Xunkun Huang,  Kerwin Hui,  B. C. Huynh,  
 M. Ivanov,  Hyunjun Ji,  Hanjie Jiang,  B. Kaduk,  S. Kaehler,  
 K. Khistyaev,  Jaehoon Kim,  P. Klunzinger,  Z. Koczor-Benda,  
 Joong Hoon Koh,  D. Kosenkov,  L. Koulias,  T. Kowalczyk,  C. M. Krauter,  
 K. Kue,  A. Kunitsa,  T. Kus,  A. Landau,  K. V. Lawler,  D. Lefrancois,  
 S. Lehtola,  Rain Li,  Yi-Pei Li,  Jiashu Liang,  M. Liebenthal,  
 Hung-Hsuan Lin,  You-Sheng Lin,  Fenglai Liu,  Kuan-Yu Liu,  
 M. Loipersberger,  A. Luenser,  A. Manjanath,  P. Manohar,  E. Mansoor,  
 S. F. Manzer,  Shan-Ping Mao,  A. V. Marenich,  T. Markovich,  S. Mason,  
 S. A. Maurer,  P. F. McLaughlin,  M. F. S. J. Menger,  J.-M. Mewes,  
 S. A. Mewes,  P. Morgante,  J. W. Mullinax,  T. S. Nguyen-Beck,  
 K. J. Oosterbaan,  G. Paran,  Alexander C. Paul,  Suranjan K. Paul,  
 F. Pavosevic,  Zheng Pei,  S. Prager,  E. I. Proynov,  E. Ramos,  B. Rana,  
 A. E. Rask,  A. Rettig,  R. M. Richard,  F. Rob,  E. Rossomme,  T. Scheele,  
 M. Scheurer,  M. Schneider,  N. Sergueev,  S. M. Sharada,  W. Skomorowski,  
 D. W. Small,  C. J. Stein,  Yu-Chuan Su,  E. J. Sundstrom,  Zhen Tao,  
 J. Thirman,  T. Tsuchimochi,  N. M. Tubman,  S. P. Veccham,  O. Vydrov,  
 J. Wenzel,  J. Witte,  A. Yamada,  Kun Yao,  S. Yeganeh,  S. R. Yost,  
 A. Zech,  Igor Ying Zhang,  Xing Zhang,  Yu Zhang,  D. Zuev,  
 A. Aspuru-Guzik,  A. T. Bell,  N. A. Besley,  K. B. Bravaya,  B. R. Brooks,  
 D. Casanova,  Jeng-Da Chai,  S. Coriani,  C. J. Cramer,  
 A. E. DePrince, III,  R. A. DiStasio Jr.,  A. Dreuw,  B. D. Dunietz,  
 T. R. Furlani,  W. A. Goddard III,  S. Grimme,  S. Hammes-Schiffer,  
 T. Head-Gordon,  W. J. Hehre,  Chao-Ping Hsu,  T.-C. Jagau,  Yousung Jung,  
 A. Klamt,  Jing Kong,  D. S. Lambrecht,  WanZhen Liang,  N. J. Mayhall,  
 C. W. McCurdy,  J. B. Neaton,  C. Ochsenfeld,  J. A. Parkhill,  R. Peverati,  
 V. A. Rassolov,  Yihan Shao,  L. V. Slipchenko,  T. Stauch,  R. P. Steele,  
 J. E. Subotnik,  A. J. W. Thom,  A. Tkatchenko,  D. G. Truhlar,  
 T. Van Voorhis,  T. A. Wesolowski,  K. B. Whaley,  H. L. Woodcock III,  
 P. M. Zimmerman,  S. Faraji,  P. M. W. Gill,  M. Head-Gordon,  
 J. M. Herbert,  A. I. Krylov

 Contributors to earlier versions of Q-Chem not listed above: 
 R. D. Adamson,  B. Austin,  R. Baer,  J. Baker,  G. J. O. Beran,  
 K. Brandhorst,  S. T. Brown,  E. F. C. Byrd,  A. K. Chakraborty,  
 G. K. L. Chan,  Chun-Min Chang,  Yunqing Chen,  C.-L. Cheng,  
 Siu Hung Chien,  D. M. Chipman,  D. L. Crittenden,  H. Dachsel,  
 R. J. Doerksen,  A. D. Dutoi,  R. G. Edgar,  J. Fosso-Tande,  
 L. Fusti-Molnar,  D. Ghosh,  A. Ghysels,  A. Golubeva-Zadorozhnaya,  
 J. Gonthier,  M. S. Gordon,  S. R. Gwaltney,  G. Hawkins,  J. E. Herr,  
 A. Heyden,  S. Hirata,  E. G. Hohenstein,  G. Kedziora,  F. J. Keil,  
 C. Kelley,  Jihan Kim,  R. A. King,  R. Z. Khaliullin,  P. P. Korambath,  
 W. Kurlancheek,  A. Laurent,  A. M. Lee,  M. S. Lee,  S. V. Levchenko,  
 Ching Yeh Lin,  D. Liotard,  E. Livshits,  R. C. Lochan,  I. Lotan,  
 L. A. Martinez-Martinez,  P. E. Maslen,  N. Nair,  D. P. O'Neill,  
 D. Neuhauser,  E. Neuscamman,  C. M. Oana,  R. Olivares-Amaya,  R. Olson,  
 T. M. Perrine,  B. Peters,  P. A. Pieniazek,  A. Prociuk,  Y. M. Rhee,  
 J. Ritchie,  M. A. Rohrdanz,  E. Rosta,  N. J. Russ,  H. F. Schaefer III,  
 M. W. Schmidt,  N. E. Schultz,  S. Sharma,  N. Shenvi,  C. D. Sherrill,  
 A. C. Simmonett,  A. Sodt,  T. Stein,  D. Stuck,  K. S. Thanthiriwatte,  
 V. Vanovschi,  L. Vogt,  Tao Wang,  A. Warshel,  M. A. Watson,  
 C. F. Williams,  Q. Wu,  X. Xu,  Jun Yang,  W. Zhang,  Yan Zhao

 Please cite Q-Chem as follows:
 Y. Shao et al., Mol. Phys. 113, 184-215 (2015)
 DOI: 10.1080/00268976.2014.952696

 Q-Chem 5.4.0 for Intel X86 EM64T Linux

 Parts of Q-Chem use Armadillo 9.800.1 (Horizon Scraper).
 http://arma.sourceforge.net/

 Q-Chem begins on Fri Dec 15 14:34:16 2023  

 Host: 
0

     Scratch files written to ./qchem194954//
 May1621 |scratch|qcdevops|jenkins|workspace|build_RNUM    
 Parallel job on  1  processors
 Processing $rem in /cm/shared/apps/spack/cpu/opt/spack/linux-centos8-zen2/gcc-10.2.0/qchem-5.4-akfmr7b3t57bfs6qan3padb2wnb2i7cl/config/preferences:
 Processing $rem in /home/rramji/.qchemrc:
 Symmetry turned off for PCM/SM12/SMD calculation
 Core orbitals will be frozen

 Checking the input file for inconsistencies... 	...done.

 Q-Chem warning in module forms1/BasisType.C, line 2236:

 You are not using the predefined 5D/6D in this basis set.


--------------------------------------------------------------
User input:
--------------------------------------------------------------
$molecule
0 1
C	0.166281	-6.741404	0.195868
C	1.005696	-6.155638	1.196048
C	-0.530233	-5.791452	-0.634911
C	1.184587	-4.803786	1.409599
H	1.570232	-6.821518	1.868538
C	-0.343266	-4.378638	-0.410996
C	0.511683	-3.838032	0.608444
C	-1.015440	-3.413062	-1.211179
C	0.697165	-2.426473	0.830559
C	-0.838968	-2.059348	-0.999915
C	-0.000000	-1.478216	-0.000000
H	-1.404302	-1.394783	-1.673009
C	-1.456059	-6.187987	-1.741129
C	-1.934944	-3.798164	-2.307170
N	-2.090139	-5.170003	-2.494766
C	2.106725	-4.424987	2.508468
C	1.624494	-2.036627	1.936893
N	2.258486	-3.049156	2.690936
O	-1.705414	-7.353131	-2.042736
O	-2.529122	-2.986854	-3.013823
O	2.693680	-5.248946	3.206857
O	1.888802	-0.878829	2.254108
C	-2.997334	-5.563799	-3.577543
H	-3.025519	-6.664085	-3.612920
H	-2.635109	-5.147101	-4.536833
H	-4.005702	-5.148785	-3.387762
C	3.152347	-2.587487	3.756883
H	3.566218	-3.483329	4.248464
H	2.590383	-1.964972	4.478763
H	3.959687	-1.962932	3.329599
H	0.046998	-7.822318	0.053215
C	0.000000	0.000000	0.000000
S	0.686805	0.396760	1.580530
C	2.105095	1.215640	0.904911
C	0.864201	0.499140	-0.985400
C	2.007514	1.159347	-0.493528
H	0.660136	0.381296	-2.059934
H	2.770388	1.599875	-1.152593
H	2.867745	1.656053	1.556025
$end

$rem
JOBTYPE		SP
EXCHANGE	HF
CORRELATION	pRIMP2
BASIS		cc-pvtz
METHOD		rimp2
AUX_BASIS	rimp2-cc-pvtz
SOLVENT_METHOD	PCM
PURECART	11111
SYMMETRY	false
MEM_TOTAL	110000
SCF_CONVERGENCE = 6
THRESH=10
GUI = 2
$end



$solvent
dielectric 4.90
$end
--------------------------------------------------------------
 ----------------------------------------------------------------
             Standard Nuclear Orientation (Angstroms)
    I     Atom           X                Y                Z
 ----------------------------------------------------------------
    1      C       0.1662810000    -6.7414040000     0.1958680000
    2      C       1.0056960000    -6.1556380000     1.1960480000
    3      C      -0.5302330000    -5.7914520000    -0.6349110000
    4      C       1.1845870000    -4.8037860000     1.4095990000
    5      H       1.5702320000    -6.8215180000     1.8685380000
    6      C      -0.3432660000    -4.3786380000    -0.4109960000
    7      C       0.5116830000    -3.8380320000     0.6084440000
    8      C      -1.0154400000    -3.4130620000    -1.2111790000
    9      C       0.6971650000    -2.4264730000     0.8305590000
   10      C      -0.8389680000    -2.0593480000    -0.9999150000
   11      C       0.0000000000    -1.4782160000     0.0000000000
   12      H      -1.4043020000    -1.3947830000    -1.6730090000
   13      C      -1.4560590000    -6.1879870000    -1.7411290000
   14      C      -1.9349440000    -3.7981640000    -2.3071700000
   15      N      -2.0901390000    -5.1700030000    -2.4947660000
   16      C       2.1067250000    -4.4249870000     2.5084680000
   17      C       1.6244940000    -2.0366270000     1.9368930000
   18      N       2.2584860000    -3.0491560000     2.6909360000
   19      O      -1.7054140000    -7.3531310000    -2.0427360000
   20      O      -2.5291220000    -2.9868540000    -3.0138230000
   21      O       2.6936800000    -5.2489460000     3.2068570000
   22      O       1.8888020000    -0.8788290000     2.2541080000
   23      C      -2.9973340000    -5.5637990000    -3.5775430000
   24      H      -3.0255190000    -6.6640850000    -3.6129200000
   25      H      -2.6351090000    -5.1471010000    -4.5368330000
   26      H      -4.0057020000    -5.1487850000    -3.3877620000
   27      C       3.1523470000    -2.5874870000     3.7568830000
   28      H       3.5662180000    -3.4833290000     4.2484640000
   29      H       2.5903830000    -1.9649720000     4.4787630000
   30      H       3.9596870000    -1.9629320000     3.3295990000
   31      H       0.0469980000    -7.8223180000     0.0532150000
   32      C       0.0000000000     0.0000000000     0.0000000000
   33      S       0.6868050000     0.3967600000     1.5805300000
   34      C       2.1050950000     1.2156400000     0.9049110000
   35      C       0.8642010000     0.4991400000    -0.9854000000
   36      C       2.0075140000     1.1593470000    -0.4935280000
   37      H       0.6601360000     0.3812960000    -2.0599340000
   38      H       2.7703880000     1.5998750000    -1.1525930000
   39      H       2.8677450000     1.6560530000     1.5560250000
 ----------------------------------------------------------------
 Nuclear Repulsion Energy =        2567.02489459 hartrees
 There are       97 alpha and       97 beta electrons
 Requested basis set is cc-pVTZ
 There are 344 shells and 982 basis functions

 Total QAlloc Memory Limit 110000 MB
 Mega-Array Size       188 MB
 MEM_STATIC part       192 MB
 Discretize the solute cavity surface with Lebedev spheres
	Using 110 Lebedev grid points for each H atom
	Using 194 Lebedev grid points for other atoms
	Atomic van der Waals radii will be scaled by 1.20
 Remove points where switching function is < 1.0e-08
 Keep 2463 surface tesserae and discard 4095 interior tesserae
 Molecular Surface Area = 353.194 Angst**2
 Requested basis set is rimp2-cc-pVTZ
 There are 750 shells and 2588 basis functions
 A cutoff of  1.0D-10 yielded  32841 shell pairs
 There are    252977 function pairs (    328861 Cartesian)
 Smallest overlap matrix eigenvalue = 9.46E-06

 Q-Chem warning in module stvman/mkSTV.C, line 323:

 Overlap eigenvalue is smaller than square root of threshold
 Use THRESH >= 12 to get rid of this warning


 Scale SEOQF with 1.000000e-01/1.000000e-02/1.000000e-01

 Standard Electronic Orientation quadrupole field applied
 Nucleus-field energy     =    -0.0000000422 hartrees
 Guess from superposition of atomic densities
 Warning:  Energy on first SCF cycle will be non-variational
 SAD guess density has 194.000000 electrons

 -----------------------------------------------------------------------
  General SCF calculation program by
  Eric Jon Sundstrom, Paul Horn, Yuezhi Mao, Dmitri Zuev, Alec White,
  David Stuck, Shaama M.S., Shane Yost, Joonho Lee, David Small,
  Daniel Levine, Susi Lehtola, Hugh Burton, Evgeny Epifanovsky,
  Bang C. Huynh
 -----------------------------------------------------------------------
 Hartree-Fock
 using 64 threads for integral computing
 -------------------------------------------------------
 OpenMP Integral computing Module                
 Release: version 1.0, May 2013, Q-Chem Inc. Pittsburgh 
 -------------------------------------------------------
 A restricted SCF calculation will be
 performed using DIIS
 SCF converges when DIIS error is below 1.0e-06
 ---------------------------------------
  Cycle       Energy         DIIS error
 ---------------------------------------
    1   -1581.8020622916      1.89e-02  
    2   -1569.9509381008      2.04e-03  
    3   -1570.2806580243      1.53e-03  
    4   -1570.4887188694      2.66e-04  
    5   -1570.5012681155      8.03e-05  
    6   -1570.5024564128      2.90e-05  
    7   -1570.5027374536      1.47e-05  
    8   -1570.5028339738      6.64e-06  
    9   -1570.5028539442      2.91e-06  
   10   -1570.5028595062      1.60e-06  
   11   -1570.5028615976      8.98e-07  Convergence criterion met
 ---------------------------------------
 SCF time:   CPU 6524.79s  wall 240.00s 

************** Final PCM Free Energy Summary **************
 G_electrostatic  =      -0.02221388 hartree =     -13.93942041 kcal/mol
 G_cavitation     =       0.00000000 hartree =       0.00000000 kcal/mol
 G_dispersion     =       0.00000000 hartree =       0.00000000 kcal/mol
 G_repulsion      =       0.00000000 hartree =       0.00000000 kcal/mol
 --------------------------------------------------
 Non-electrostatic Free Energy =       0.00000000 hartree =       0.00000000 kcal/mol
 Total                         =      -0.02221388 hartree =     -13.93942041 kcal/mol
 --------------------------------------------------
 SCF Energy (H0 + V/2)                       =   -1570.50286160 
 Solute Internal Energy (H0)                 =   -1570.48064772 
 Total Free Energy (H0 + V/2 + non-elec)     =   -1570.50286160 hartree
                                             = -985505.41988512 kcal/mol
***********************************************************

 SCF   energy in the final basis set =    -1570.5028615976
 Total energy in the final basis set =    -1570.5028615976


 --------------------------------------------------------------
  Generalized many-body perturbation theory program
  by Joonho Lee, Fazle Rob, Xintian Feng, Evgeny Epifanovsky

 No regularization used 
 (reg. param. = 0.0000e+00)
  (P|Q)^-1/2 Time:  CPU 101.81 s  wall 1.84 s

 In RI-MP2 calculation: 
 # of frozen core orbitals: 31

 Components of the RIMP2 correlation energy:
        aaaa    correlation energy =        -0.6275379563 a.u.
        abab    correlation energy =        -3.4180689392 a.u.
        bbbb    correlation energy =        -0.6275379563 a.u.
        non-Brillouin singles      =        -0.0000000000 a.u.
        total same-spin energy     =        -1.2550759125 a.u.
        total opposite-spin energy =        -3.4180689392 a.u.

 Total  RIMP2   correlation energy =        -4.6731448517 a.u.
        RIMP2         total energy =     -1575.1760064494 a.u.

 RI-MP2 Energy Time:  CPU 1842.60 s  wall 29.97 s
 
 --------------------------------------------------------------
 
                    Orbital Energies (a.u.)
 --------------------------------------------------------------
 
 Alpha MOs
 -- Occupied --
-92.0150 -20.5839 -20.5596 -20.5587 -20.5571 -15.6440 -15.6315 -11.4207
-11.4004 -11.3966 -11.3909 -11.3242 -11.3034 -11.3022 -11.2927 -11.2923
-11.2905 -11.2882 -11.2821 -11.2800 -11.2714 -11.2711 -11.2665 -11.2646
-11.2528 -11.2399 -11.2378  -9.0114  -6.6925  -6.6905  -6.6891  -1.4730
 -1.4254  -1.4157  -1.4047  -1.2836  -1.2670  -1.2181  -1.1776  -1.1404
 -1.1165  -1.0601  -1.0500  -1.0000  -0.9961  -0.9836  -0.9623  -0.9479
 -0.9022  -0.8828  -0.8725  -0.8647  -0.7929  -0.7858  -0.7803  -0.7586
 -0.7473  -0.7276  -0.7056  -0.6924  -0.6899  -0.6792  -0.6725  -0.6643
 -0.6592  -0.6518  -0.6408  -0.6398  -0.6296  -0.6152  -0.5989  -0.5938
 -0.5837  -0.5767  -0.5666  -0.5642  -0.5602  -0.5592  -0.5548  -0.5506
 -0.5394  -0.5330  -0.5184  -0.5124  -0.4821  -0.4784  -0.4672  -0.4604
 -0.4554  -0.4398  -0.4263  -0.4208  -0.4098  -0.3634  -0.3388  -0.3043
 -0.2532
 -- Virtual --
 -0.0186   0.0581   0.0688   0.0905   0.1140   0.1468   0.1576   0.1653
  0.1665   0.1697   0.1782   0.1853   0.1868   0.1936   0.2039   0.2067
  0.2182   0.2258   0.2281   0.2332   0.2370   0.2531   0.2547   0.2604
  0.2633   0.2869   0.3039   0.3068   0.3153   0.3211   0.3263   0.3358
  0.3365   0.3474   0.3513   0.3524   0.3561   0.3586   0.3676   0.3709
  0.3775   0.3794   0.3905   0.3969   0.3981   0.4030   0.4049   0.4083
  0.4127   0.4198   0.4280   0.4341   0.4370   0.4425   0.4474   0.4556
  0.4561   0.4597   0.4670   0.4745   0.4786   0.4840   0.4908   0.4979
  0.5006   0.5027   0.5104   0.5139   0.5161   0.5234   0.5284   0.5333
  0.5336   0.5439   0.5449   0.5484   0.5516   0.5561   0.5635   0.5706
  0.5765   0.5820   0.5836   0.5857   0.5928   0.5962   0.5987   0.6005
  0.6104   0.6122   0.6135   0.6155   0.6225   0.6251   0.6286   0.6335
  0.6352   0.6353   0.6391   0.6424   0.6465   0.6519   0.6549   0.6816
  0.6843   0.6898   0.6924   0.6986   0.7045   0.7114   0.7138   0.7223
  0.7306   0.7417   0.7464   0.7511   0.7559   0.7577   0.7624   0.7660
  0.7734   0.7838   0.7860   0.7915   0.8009   0.8059   0.8119   0.8223
  0.8274   0.8332   0.8385   0.8408   0.8457   0.8527   0.8548   0.8639
  0.8654   0.8688   0.8724   0.8837   0.8900   0.8960   0.9073   0.9111
  0.9121   0.9190   0.9226   0.9251   0.9338   0.9376   0.9413   0.9459
  0.9513   0.9616   0.9687   0.9751   0.9776   0.9819   0.9861   0.9903
  0.9966   0.9986   1.0088   1.0122   1.0224   1.0244   1.0291   1.0376
  1.0397   1.0482   1.0537   1.0565   1.0636   1.0680   1.0717   1.0771
  1.0833   1.0856   1.0940   1.0970   1.1001   1.1169   1.1200   1.1283
  1.1304   1.1322   1.1419   1.1436   1.1473   1.1527   1.1591   1.1611
  1.1702   1.1751   1.1785   1.1878   1.1905   1.1940   1.2001   1.2019
  1.2097   1.2105   1.2196   1.2216   1.2246   1.2336   1.2376   1.2505
  1.2535   1.2560   1.2643   1.2758   1.2800   1.2892   1.3018   1.3147
  1.3250   1.3287   1.3377   1.3413   1.3467   1.3546   1.3587   1.3663
  1.3785   1.3793   1.3842   1.3902   1.3912   1.4063   1.4142   1.4226
  1.4285   1.4325   1.4392   1.4467   1.4494   1.4552   1.4680   1.4758
  1.4805   1.4856   1.4938   1.4994   1.5010   1.5124   1.5213   1.5284
  1.5328   1.5360   1.5424   1.5496   1.5541   1.5588   1.5609   1.5648
  1.5678   1.5706   1.5772   1.5924   1.6010   1.6107   1.6136   1.6399
  1.6466   1.6555   1.6604   1.6664   1.6724   1.6794   1.6859   1.6998
  1.7030   1.7087   1.7225   1.7251   1.7377   1.7399   1.7423   1.7512
  1.7586   1.7599   1.7663   1.7731   1.7953   1.7992   1.8058   1.8098
  1.8158   1.8310   1.8390   1.8422   1.8501   1.8582   1.8636   1.8653
  1.8720   1.8770   1.8862   1.9045   1.9210   1.9243   1.9379   1.9458
  1.9568   1.9659   1.9732   1.9965   1.9990   2.0056   2.0294   2.0323
  2.0405   2.0591   2.0774   2.0887   2.1075   2.1175   2.1274   2.1370
  2.1476   2.1580   2.1690   2.1924   2.2019   2.2231   2.2284   2.2444
  2.2554   2.2642   2.2683   2.2838   2.2887   2.2946   2.3093   2.3126
  2.3242   2.3372   2.3529   2.3604   2.3721   2.3842   2.3853   2.4158
  2.4248   2.4396   2.4456   2.4512   2.4564   2.4644   2.4755   2.4790
  2.4907   2.4973   2.5020   2.5179   2.5267   2.5331   2.5465   2.5596
  2.5711   2.5803   2.5881   2.5988   2.6093   2.6108   2.6169   2.6193
  2.6247   2.6349   2.6432   2.6518   2.6616   2.6669   2.6728   2.6797
  2.6855   2.7002   2.7105   2.7206   2.7243   2.7260   2.7372   2.7417
  2.7499   2.7517   2.7544   2.7690   2.7717   2.7872   2.8001   2.8088
  2.8219   2.8267   2.8317   2.8406   2.8513   2.8600   2.8639   2.8690
  2.8703   2.8808   2.8842   2.8986   2.9000   2.9056   2.9108   2.9197
  2.9300   2.9355   2.9492   2.9502   2.9560   2.9656   2.9731   2.9774
  2.9801   2.9895   2.9960   3.0057   3.0111   3.0196   3.0212   3.0224
  3.0331   3.0379   3.0460   3.0527   3.0648   3.0742   3.0812   3.0862
  3.0931   3.0950   3.1001   3.1139   3.1155   3.1195   3.1277   3.1336
  3.1398   3.1446   3.1609   3.1641   3.1720   3.1757   3.1775   3.1865
  3.1987   3.2006   3.2051   3.2106   3.2128   3.2147   3.2246   3.2316
  3.2340   3.2382   3.2429   3.2541   3.2570   3.2608   3.2657   3.2690
  3.2702   3.2805   3.2855   3.2880   3.2927   3.2967   3.3019   3.3085
  3.3126   3.3178   3.3238   3.3261   3.3301   3.3330   3.3362   3.3468
  3.3490   3.3541   3.3572   3.3618   3.3655   3.3706   3.3734   3.3831
  3.3864   3.3945   3.3983   3.4009   3.4085   3.4119   3.4185   3.4233
  3.4315   3.4365   3.4418   3.4446   3.4468   3.4490   3.4516   3.4570
  3.4611   3.4741   3.4764   3.4779   3.4846   3.4920   3.4969   3.4994
  3.5022   3.5106   3.5134   3.5204   3.5315   3.5335   3.5381   3.5437
  3.5475   3.5588   3.5625   3.5711   3.5760   3.5805   3.5878   3.5970
  3.6012   3.6050   3.6142   3.6188   3.6278   3.6293   3.6335   3.6385
  3.6434   3.6519   3.6599   3.6649   3.6725   3.6753   3.6833   3.6919
  3.7016   3.7035   3.7075   3.7150   3.7170   3.7229   3.7305   3.7367
  3.7414   3.7446   3.7533   3.7553   3.7628   3.7703   3.7724   3.7763
  3.7815   3.7844   3.7926   3.7979   3.8021   3.8042   3.8071   3.8151
  3.8200   3.8373   3.8422   3.8442   3.8515   3.8580   3.8612   3.8627
  3.8770   3.8877   3.8905   3.8969   3.9063   3.9188   3.9370   3.9381
  3.9388   3.9492   3.9540   3.9553   3.9622   3.9694   3.9783   3.9809
  4.0019   4.0043   4.0139   4.0178   4.0237   4.0362   4.0455   4.0548
  4.0645   4.0731   4.0793   4.0843   4.0950   4.1099   4.1115   4.1170
  4.1303   4.1349   4.1386   4.1461   4.1658   4.1677   4.1702   4.1800
  4.1889   4.1964   4.1980   4.2022   4.2190   4.2310   4.2382   4.2426
  4.2441   4.2607   4.2636   4.2765   4.2820   4.2832   4.2914   4.2925
  4.3023   4.3059   4.3129   4.3206   4.3246   4.3288   4.3408   4.3455
  4.3518   4.3534   4.3593   4.3631   4.3665   4.3745   4.3792   4.3850
  4.3883   4.4001   4.4076   4.4160   4.4236   4.4305   4.4363   4.4450
  4.4613   4.4710   4.4812   4.4910   4.5019   4.5181   4.5198   4.5234
  4.5272   4.5401   4.5444   4.5471   4.5527   4.5572   4.5674   4.5747
  4.5806   4.5881   4.5973   4.6021   4.6097   4.6259   4.6326   4.6443
  4.6576   4.6620   4.6669   4.6742   4.6838   4.6897   4.6962   4.7075
  4.7250   4.7318   4.7420   4.7571   4.7672   4.7751   4.7957   4.8159
  4.8224   4.8302   4.8358   4.8393   4.8542   4.8615   4.8741   4.8819
  4.8929   4.9042   4.9057   4.9262   4.9415   4.9563   4.9694   4.9862
  5.0089   5.0152   5.0326   5.0348   5.0409   5.0489   5.0528   5.0644
  5.0935   5.1010   5.1088   5.1203   5.1265   5.1325   5.1448   5.1570
  5.1721   5.1781   5.1852   5.1987   5.2122   5.2244   5.2366   5.2560
  5.2651   5.2766   5.2933   5.3127   5.3135   5.3232   5.3279   5.3407
  5.3652   5.3934   5.4020   5.4094   5.4156   5.4316   5.4330   5.4652
  5.4946   5.5008   5.5030   5.5049   5.5089   5.5377   5.5423   5.5493
  5.5576   5.5587   5.5601   5.5654   5.5768   5.5886   5.6021   5.6175
  5.6224   5.6340   5.6491   5.6514   5.6528   5.6699   5.6764   5.6817
  5.7033   5.7053   5.7207   5.7308   5.7439   5.7593   5.7644   5.7670
  5.7800   5.7918   5.8108   5.8315   5.8710   5.8907   5.9112   5.9342
  5.9496   5.9688   5.9966   6.0201   6.0210   6.0258   6.0372   6.0733
  6.0850   6.0955   6.1092   6.1171   6.1432   6.1885   6.1923   6.2070
  6.2165   6.2195   6.2399   6.2643   6.2725   6.2999   6.3159   6.3481
  6.3659   6.3779   6.4059   6.4511   6.4645   6.5222   6.5430   6.5623
  6.5759   6.5875   6.6310   6.6426   6.6503   6.6551   6.7065   6.8306
  6.8364   6.8817   6.8852   6.8942   6.9108   6.9239   7.0697   7.0783
  7.1287   7.1524   7.1791   7.2140   7.3221   7.3317   7.3392   7.3442
  7.3866   7.4605   7.5461   7.5567   7.5726   7.5786   7.6337   7.6627
  7.6780   7.7117   7.8371   8.3617  10.0144  10.3351  11.1166  11.2846
 11.7095  11.7960  12.1848  12.3725  12.5162  12.7685  12.8767  13.0687
 13.3010  13.5678  13.8218  13.9497  14.0898  14.1462  14.2652  14.3912
 14.4218  14.7854  15.3271  15.7313  16.0071
 --------------------------------------------------------------
 
          Ground-State Mulliken Net Atomic Charges

     Atom                 Charge (a.u.)
  ----------------------------------------
      1 C                    -0.160744
      2 C                    -0.103477
      3 C                    -0.022388
      4 C                    -0.012202
      5 H                     0.187726
      6 C                    -0.013167
      7 C                     0.089735
      8 C                     0.002015
      9 C                    -0.142988
     10 C                    -0.156003
     11 C                     0.140421
     12 H                     0.180320
     13 C                     0.361274
     14 C                     0.364601
     15 N                    -0.101654
     16 C                     0.362341
     17 C                     0.451248
     18 N                    -0.082089
     19 O                    -0.462105
     20 O                    -0.473060
     21 O                    -0.476853
     22 O                    -0.371688
     23 C                    -0.201105
     24 H                     0.141044
     25 H                     0.112447
     26 H                     0.112719
     27 C                    -0.198298
     28 H                     0.138159
     29 H                     0.116216
     30 H                     0.114975
     31 H                     0.211261
     32 C                    -0.171536
     33 S                     0.133367
     34 C                    -0.214426
     35 C                    -0.179617
     36 C                    -0.247919
     37 H                     0.186398
     38 H                     0.185146
     39 H                     0.199907
  ----------------------------------------
  Sum of atomic charges =     0.000000

 -----------------------------------------------------------------
                    Cartesian Multipole Moments
 -----------------------------------------------------------------
    Charge (ESU x 10^10)
                 0.0000
    Dipole Moment (Debye)
         X       3.2720      Y      -0.7003      Z       1.8047
       Tot       3.8018
    Quadrupole Moments (Debye-Ang)
        XX    -162.1685     XY       2.5036     YY    -178.7127
        XZ      -3.6852     YZ      -1.6414     ZZ    -164.1841
    Octopole Moments (Debye-Ang^2)
       XXX    -130.3820    XXY     531.9311    XYY     -43.1557
       YYY    1650.1547    XXZ     -15.3829    XYZ      36.5094
       YYZ     -22.1771    XZZ     -34.1729    YZZ     534.8811
       ZZZ     -75.9503
    Hexadecapole Moments (Debye-Ang^3)
      XXXX   -2915.4860   XXXY    -216.0410   XXYY   -3293.3412
      XYYY    -609.6188   YYYY  -17079.8009   XXXZ   -1462.3673
      XXYZ      10.0045   XYYZ    -752.0689   YYYZ    -626.3742
      XXZZ   -1150.0132   XYZZ      20.3758   YYZZ   -3554.1666
      XZZZ   -1485.0180   YZZZ    -156.1802   ZZZZ   -3850.6427
 -----------------------------------------------------------------
 Total job time:  280.63s(wall), 8822.89s(cpu) 
 Fri Dec 15 14:38:57 2023

        *************************************************************
        *                                                           *
        *  Thank you very much for using Q-Chem.  Have a nice day.  *
        *                                                           *
        *************************************************************


0 sent ACK to 0 
now end server 0 ... 
cleanup process ... done
remove work dirs ./qchem194954.0 -- ./qchem194954.0
rm -rf ./qchem194954.0
rm -rf ./qchem194954
