You are running Q-Chem version: 5.4.0

#
# job setting
#
local host:  exp-1-26
current dir: /home/rramji/project-csd799/aromodel/pndit-qchem/rotation_run
input file:  Dimethyl_Naphthalene_Dicarboximide_Phi_15_Theta_220_Thiophene.qcin
output file: 
nprocs     : 1
nthreads   : 64
#
# qchem installation setting
#
QC:          /cm/shared/apps/spack/cpu/opt/spack/linux-centos8-zen2/gcc-10.2.0/qchem-5.4-akfmr7b3t57bfs6qan3padb2wnb2i7cl
QCAUX:       /cm/shared/apps/spack/cpu/opt/spack/linux-centos8-zen2/gcc-10.2.0/qchem-5.4-akfmr7b3t57bfs6qan3padb2wnb2i7cl/qcaux
QCPROG:      /cm/shared/apps/spack/cpu/opt/spack/linux-centos8-zen2/gcc-10.2.0/qchem-5.4-akfmr7b3t57bfs6qan3padb2wnb2i7cl/exe/qcprog.exe
QCPROG_S:    /cm/shared/apps/spack/cpu/opt/spack/linux-centos8-zen2/gcc-10.2.0/qchem-5.4-akfmr7b3t57bfs6qan3padb2wnb2i7cl/exe/qcprog.exe_s
PARALLEL:    -DPARALLEL
QCMPI:       mpich
#
# qchem directory setting
#
qcrun:       qchem2227398
QCSCRATCH:   .
QCLOCALSCR:  
QCTMPDIR:    .
QCFILEPREF:  ./qchem2227398
QCSAVEDIR:   
workdirs:    ./qchem2227398
workdir0:    ./qchem2227398
partmpdirs =  
#
# parallel setting
#
QCRSH:           ssh
QCMPI:           mpich
QCMPIRUN:        /cm/shared/apps/spack/cpu/opt/spack/linux-centos8-zen2/gcc-10.2.0/qchem-5.4-akfmr7b3t57bfs6qan3padb2wnb2i7cl/bin/mpi/mpirun_qchem
QCMACHINEFILE:   ./qchem2227398/hostfile
exp-1-26

#
# env setting
#
exported envs:   QC QCAUX QCSCRATCH QCRUNNAME QCFILEPREF QCPROG QCPROG_S GUIFILE

Running Job 1 of 1 Dimethyl_Naphthalene_Dicarboximide_Phi_15_Theta_220_Thiophene.qcin
qchem Dimethyl_Naphthalene_Dicarboximide_Phi_15_Theta_220_Thiophene.qcin_2227398.0 ./qchem2227398/ 1
/cm/shared/apps/spack/cpu/opt/spack/linux-centos8-zen2/gcc-10.2.0/qchem-5.4-akfmr7b3t57bfs6qan3padb2wnb2i7cl/bin/mpi/mpirun_qchem -machinefile ./qchem2227398/hostfile -np 1 /cm/shared/apps/spack/cpu/opt/spack/linux-centos8-zen2/gcc-10.2.0/qchem-5.4-akfmr7b3t57bfs6qan3padb2wnb2i7cl/exe/qcprog.exe Dimethyl_Naphthalene_Dicarboximide_Phi_15_Theta_220_Thiophene.qcin_2227398.0 ./qchem2227398/

Process 0 of 1 is on exp-1-26 - thread support 0
initial socket setup ...start
initial socket setup ...done 
now start server 0 ... 
                  Welcome to Q-Chem
     A Quantum Leap Into The Future Of Chemistry


 Q-Chem 5.4, Q-Chem, Inc., Pleasanton, CA (2021)

 License issued to: University of California, San Diego (site)

 E. Epifanovsky,  A. T. B. Gilbert,  Xintian Feng,  Joonho Lee,  Yuezhi Mao,  
 N. Mardirossian,  P. Pokhilko,  A. White,  M. Wormit,  M. P. Coons,  
 A. L. Dempwolff,  Zhengting Gan,  D. Hait,  P. R. Horn,  L. D. Jacobson,  
 I. Kaliman,  J. Kussmann,  A. W. Lange,  Ka Un Lao,  D. S. Levine,  Jie Liu,  
 S. C. McKenzie,  A. F. Morrison,  K. Nanda,  F. Plasser,  D. R. Rehn,  
 M. L. Vidal,  Zhi-Qiang You,  Ying Zhu,  B. Alam,  B. Albrecht,  
 A. Aldossary,  E. Alguire,  J. H. Andersen,  D. Barton,  K. Begam,  A. Behn,  
 Y. A. Bernard,  E. J. Berquist,  H. Burton,  A. Carreras,  K. Carter-Fenk,  
 R. Chakraborty,  A. D. Chien,  K. D. Closser,  V. Cofer-Shabica,  
 S. Dasgupta,  Jia Deng,  M. de Wergifosse,  M. Diedenhofen,  Hainam Do,  
 S. Ehlert,  Po-Tung Fang,  S. Fatehi,  Qingguo Feng,  J. Gayvert,  
 Qinghui Ge,  G. Gidofalvi,  M. Goldey,  J. Gomes,  C. Gonzalez-Espinoza,  
 S. Gulania,  A. Gunina,  M. W. D. Hanson-Heine,  P. H. P. Harbach,  
 A. W. Hauser,  M. F. Herbst,  M. Hernandez Vera,  M. Hodecker,  
 Z. C. Holden,  S. Houck,  Xunkun Huang,  Kerwin Hui,  B. C. Huynh,  
 M. Ivanov,  Hyunjun Ji,  Hanjie Jiang,  B. Kaduk,  S. Kaehler,  
 K. Khistyaev,  Jaehoon Kim,  P. Klunzinger,  Z. Koczor-Benda,  
 Joong Hoon Koh,  D. Kosenkov,  L. Koulias,  T. Kowalczyk,  C. M. Krauter,  
 K. Kue,  A. Kunitsa,  T. Kus,  A. Landau,  K. V. Lawler,  D. Lefrancois,  
 S. Lehtola,  Rain Li,  Yi-Pei Li,  Jiashu Liang,  M. Liebenthal,  
 Hung-Hsuan Lin,  You-Sheng Lin,  Fenglai Liu,  Kuan-Yu Liu,  
 M. Loipersberger,  A. Luenser,  A. Manjanath,  P. Manohar,  E. Mansoor,  
 S. F. Manzer,  Shan-Ping Mao,  A. V. Marenich,  T. Markovich,  S. Mason,  
 S. A. Maurer,  P. F. McLaughlin,  M. F. S. J. Menger,  J.-M. Mewes,  
 S. A. Mewes,  P. Morgante,  J. W. Mullinax,  T. S. Nguyen-Beck,  
 K. J. Oosterbaan,  G. Paran,  Alexander C. Paul,  Suranjan K. Paul,  
 F. Pavosevic,  Zheng Pei,  S. Prager,  E. I. Proynov,  E. Ramos,  B. Rana,  
 A. E. Rask,  A. Rettig,  R. M. Richard,  F. Rob,  E. Rossomme,  T. Scheele,  
 M. Scheurer,  M. Schneider,  N. Sergueev,  S. M. Sharada,  W. Skomorowski,  
 D. W. Small,  C. J. Stein,  Yu-Chuan Su,  E. J. Sundstrom,  Zhen Tao,  
 J. Thirman,  T. Tsuchimochi,  N. M. Tubman,  S. P. Veccham,  O. Vydrov,  
 J. Wenzel,  J. Witte,  A. Yamada,  Kun Yao,  S. Yeganeh,  S. R. Yost,  
 A. Zech,  Igor Ying Zhang,  Xing Zhang,  Yu Zhang,  D. Zuev,  
 A. Aspuru-Guzik,  A. T. Bell,  N. A. Besley,  K. B. Bravaya,  B. R. Brooks,  
 D. Casanova,  Jeng-Da Chai,  S. Coriani,  C. J. Cramer,  
 A. E. DePrince, III,  R. A. DiStasio Jr.,  A. Dreuw,  B. D. Dunietz,  
 T. R. Furlani,  W. A. Goddard III,  S. Grimme,  S. Hammes-Schiffer,  
 T. Head-Gordon,  W. J. Hehre,  Chao-Ping Hsu,  T.-C. Jagau,  Yousung Jung,  
 A. Klamt,  Jing Kong,  D. S. Lambrecht,  WanZhen Liang,  N. J. Mayhall,  
 C. W. McCurdy,  J. B. Neaton,  C. Ochsenfeld,  J. A. Parkhill,  R. Peverati,  
 V. A. Rassolov,  Yihan Shao,  L. V. Slipchenko,  T. Stauch,  R. P. Steele,  
 J. E. Subotnik,  A. J. W. Thom,  A. Tkatchenko,  D. G. Truhlar,  
 T. Van Voorhis,  T. A. Wesolowski,  K. B. Whaley,  H. L. Woodcock III,  
 P. M. Zimmerman,  S. Faraji,  P. M. W. Gill,  M. Head-Gordon,  
 J. M. Herbert,  A. I. Krylov

 Contributors to earlier versions of Q-Chem not listed above: 
 R. D. Adamson,  B. Austin,  R. Baer,  J. Baker,  G. J. O. Beran,  
 K. Brandhorst,  S. T. Brown,  E. F. C. Byrd,  A. K. Chakraborty,  
 G. K. L. Chan,  Chun-Min Chang,  Yunqing Chen,  C.-L. Cheng,  
 Siu Hung Chien,  D. M. Chipman,  D. L. Crittenden,  H. Dachsel,  
 R. J. Doerksen,  A. D. Dutoi,  R. G. Edgar,  J. Fosso-Tande,  
 L. Fusti-Molnar,  D. Ghosh,  A. Ghysels,  A. Golubeva-Zadorozhnaya,  
 J. Gonthier,  M. S. Gordon,  S. R. Gwaltney,  G. Hawkins,  J. E. Herr,  
 A. Heyden,  S. Hirata,  E. G. Hohenstein,  G. Kedziora,  F. J. Keil,  
 C. Kelley,  Jihan Kim,  R. A. King,  R. Z. Khaliullin,  P. P. Korambath,  
 W. Kurlancheek,  A. Laurent,  A. M. Lee,  M. S. Lee,  S. V. Levchenko,  
 Ching Yeh Lin,  D. Liotard,  E. Livshits,  R. C. Lochan,  I. Lotan,  
 L. A. Martinez-Martinez,  P. E. Maslen,  N. Nair,  D. P. O'Neill,  
 D. Neuhauser,  E. Neuscamman,  C. M. Oana,  R. Olivares-Amaya,  R. Olson,  
 T. M. Perrine,  B. Peters,  P. A. Pieniazek,  A. Prociuk,  Y. M. Rhee,  
 J. Ritchie,  M. A. Rohrdanz,  E. Rosta,  N. J. Russ,  H. F. Schaefer III,  
 M. W. Schmidt,  N. E. Schultz,  S. Sharma,  N. Shenvi,  C. D. Sherrill,  
 A. C. Simmonett,  A. Sodt,  T. Stein,  D. Stuck,  K. S. Thanthiriwatte,  
 V. Vanovschi,  L. Vogt,  Tao Wang,  A. Warshel,  M. A. Watson,  
 C. F. Williams,  Q. Wu,  X. Xu,  Jun Yang,  W. Zhang,  Yan Zhao

 Please cite Q-Chem as follows:
 Y. Shao et al., Mol. Phys. 113, 184-215 (2015)
 DOI: 10.1080/00268976.2014.952696

 Q-Chem 5.4.0 for Intel X86 EM64T Linux

 Parts of Q-Chem use Armadillo 9.800.1 (Horizon Scraper).
 http://arma.sourceforge.net/

 Q-Chem begins on Fri Dec 15 15:26:38 2023  

 Host: 
0

     Scratch files written to ./qchem2227398//
 May1621 |scratch|qcdevops|jenkins|workspace|build_RNUM    
 Parallel job on  1  processors
 Processing $rem in /cm/shared/apps/spack/cpu/opt/spack/linux-centos8-zen2/gcc-10.2.0/qchem-5.4-akfmr7b3t57bfs6qan3padb2wnb2i7cl/config/preferences:
 Processing $rem in /home/rramji/.qchemrc:
 Symmetry turned off for PCM/SM12/SMD calculation
 Core orbitals will be frozen

 Checking the input file for inconsistencies... 	...done.

 Q-Chem warning in module forms1/BasisType.C, line 2236:

 You are not using the predefined 5D/6D in this basis set.


--------------------------------------------------------------
User input:
--------------------------------------------------------------
$molecule
0 1
C	-0.164018	-6.741404	0.197767
C	-1.003240	-6.155638	1.198109
C	0.533192	-5.791452	-0.632428
C	-1.182482	-4.803786	1.411364
H	-1.567483	-6.821518	1.870845
C	0.345145	-4.378638	-0.409419
C	-0.510347	-3.838032	0.609565
C	1.016449	-3.413062	-1.210332
C	-0.696879	-2.426473	0.830799
C	0.839039	-2.059348	-0.999856
C	0.000000	-1.478216	0.000000
H	1.403737	-1.394783	-1.673483
C	1.461835	-6.187987	-1.736282
C	1.936119	-3.798164	-2.306183
N	2.093916	-5.170003	-2.491597
C	-2.104529	-4.424987	2.510310
C	-1.625377	-2.036627	1.936153
N	-2.257873	-3.049156	2.691451
O	1.715561	-7.353131	-2.034222
O	2.528858	-2.986854	-3.014044
O	-2.690385	-5.248946	3.209622
O	-1.891876	-0.878829	2.251529
C	3.002711	-5.563799	-3.573032
H	3.032655	-6.664085	-3.606932
H	4.010326	-5.147101	-3.382888
H	2.640711	-5.148785	-4.533125
C	-3.152408	-2.587487	3.756832
H	-3.564653	-3.483329	4.249778
H	-3.960905	-1.964972	3.328759
H	-2.591422	-1.962932	4.477709
H	-0.044245	-7.822318	0.055524
C	0.000000	0.000000	0.000000
S	0.205093	0.766196	1.580530
C	0.628939	2.348114	0.904911
C	0.258137	0.964028	-0.985400
C	0.599745	2.239309	-0.493528
H	0.197169	0.736404	-2.059934
H	0.827678	3.090243	-1.152593
H	0.856796	3.198808	1.556025
$end

$rem
JOBTYPE		SP
EXCHANGE	HF
CORRELATION	pRIMP2
BASIS		cc-pvtz
METHOD		rimp2
AUX_BASIS	rimp2-cc-pvtz
SOLVENT_METHOD	PCM
PURECART	11111
SYMMETRY	false
MEM_TOTAL	110000
SCF_CONVERGENCE = 6
THRESH=10
GUI = 2
$end



$solvent
dielectric 4.90
$end
--------------------------------------------------------------
 ----------------------------------------------------------------
             Standard Nuclear Orientation (Angstroms)
    I     Atom           X                Y                Z
 ----------------------------------------------------------------
    1      C      -0.1640180000    -6.7414040000     0.1977670000
    2      C      -1.0032400000    -6.1556380000     1.1981090000
    3      C       0.5331920000    -5.7914520000    -0.6324280000
    4      C      -1.1824820000    -4.8037860000     1.4113640000
    5      H      -1.5674830000    -6.8215180000     1.8708450000
    6      C       0.3451450000    -4.3786380000    -0.4094190000
    7      C      -0.5103470000    -3.8380320000     0.6095650000
    8      C       1.0164490000    -3.4130620000    -1.2103320000
    9      C      -0.6968790000    -2.4264730000     0.8307990000
   10      C       0.8390390000    -2.0593480000    -0.9998560000
   11      C       0.0000000000    -1.4782160000     0.0000000000
   12      H       1.4037370000    -1.3947830000    -1.6734830000
   13      C       1.4618350000    -6.1879870000    -1.7362820000
   14      C       1.9361190000    -3.7981640000    -2.3061830000
   15      N       2.0939160000    -5.1700030000    -2.4915970000
   16      C      -2.1045290000    -4.4249870000     2.5103100000
   17      C      -1.6253770000    -2.0366270000     1.9361530000
   18      N      -2.2578730000    -3.0491560000     2.6914510000
   19      O       1.7155610000    -7.3531310000    -2.0342220000
   20      O       2.5288580000    -2.9868540000    -3.0140440000
   21      O      -2.6903850000    -5.2489460000     3.2096220000
   22      O      -1.8918760000    -0.8788290000     2.2515290000
   23      C       3.0027110000    -5.5637990000    -3.5730320000
   24      H       3.0326550000    -6.6640850000    -3.6069320000
   25      H       4.0103260000    -5.1471010000    -3.3828880000
   26      H       2.6407110000    -5.1487850000    -4.5331250000
   27      C      -3.1524080000    -2.5874870000     3.7568320000
   28      H      -3.5646530000    -3.4833290000     4.2497780000
   29      H      -3.9609050000    -1.9649720000     3.3287590000
   30      H      -2.5914220000    -1.9629320000     4.4777090000
   31      H      -0.0442450000    -7.8223180000     0.0555240000
   32      C       0.0000000000     0.0000000000     0.0000000000
   33      S       0.2050930000     0.7661960000     1.5805300000
   34      C       0.6289390000     2.3481140000     0.9049110000
   35      C       0.2581370000     0.9640280000    -0.9854000000
   36      C       0.5997450000     2.2393090000    -0.4935280000
   37      H       0.1971690000     0.7364040000    -2.0599340000
   38      H       0.8276780000     3.0902430000    -1.1525930000
   39      H       0.8567960000     3.1988080000     1.5560250000
 ----------------------------------------------------------------
 Nuclear Repulsion Energy =        2502.54066653 hartrees
 There are       97 alpha and       97 beta electrons
 Requested basis set is cc-pVTZ
 There are 344 shells and 982 basis functions

 Total QAlloc Memory Limit 110000 MB
 Mega-Array Size       188 MB
 MEM_STATIC part       192 MB
 Discretize the solute cavity surface with Lebedev spheres
	Using 110 Lebedev grid points for each H atom
	Using 194 Lebedev grid points for other atoms
	Atomic van der Waals radii will be scaled by 1.20
 Remove points where switching function is < 1.0e-08
 Keep 2508 surface tesserae and discard 4050 interior tesserae
 Molecular Surface Area = 363.591 Angst**2
 Requested basis set is rimp2-cc-pVTZ
 There are 750 shells and 2588 basis functions
 A cutoff of  1.0D-10 yielded  31597 shell pairs
 There are    243255 function pairs (    316101 Cartesian)
 Smallest overlap matrix eigenvalue = 9.72E-06

 Q-Chem warning in module stvman/mkSTV.C, line 323:

 Overlap eigenvalue is smaller than square root of threshold
 Use THRESH >= 12 to get rid of this warning


 Scale SEOQF with 1.000000e-01/1.000000e-02/1.000000e-01

 Standard Electronic Orientation quadrupole field applied
 Nucleus-field energy     =    -0.0000000441 hartrees
 Guess from superposition of atomic densities
 Warning:  Energy on first SCF cycle will be non-variational
 SAD guess density has 194.000000 electrons

 -----------------------------------------------------------------------
  General SCF calculation program by
  Eric Jon Sundstrom, Paul Horn, Yuezhi Mao, Dmitri Zuev, Alec White,
  David Stuck, Shaama M.S., Shane Yost, Joonho Lee, David Small,
  Daniel Levine, Susi Lehtola, Hugh Burton, Evgeny Epifanovsky,
  Bang C. Huynh
 -----------------------------------------------------------------------
 Hartree-Fock
 using 64 threads for integral computing
 -------------------------------------------------------
 OpenMP Integral computing Module                
 Release: version 1.0, May 2013, Q-Chem Inc. Pittsburgh 
 -------------------------------------------------------
 A restricted SCF calculation will be
 performed using DIIS
 SCF converges when DIIS error is below 1.0e-06
 ---------------------------------------
  Cycle       Energy         DIIS error
 ---------------------------------------
    1   -1581.3177137354      1.87e-02  
    2   -1570.1146425363      2.09e-03  
    3   -1570.4407085716      1.63e-03  
    4   -1570.6704864783      2.57e-04  
    5   -1570.6825419415      7.60e-05  
    6   -1570.6836024181      2.79e-05  
    7   -1570.6838461924      1.43e-05  
    8   -1570.6839238663      5.89e-06  
    9   -1570.6839361996      2.28e-06  
   10   -1570.6839382825      7.43e-07  Convergence criterion met
 ---------------------------------------
 SCF time:   CPU 5658.97s  wall 217.00s 

************** Final PCM Free Energy Summary **************
 G_electrostatic  =      -0.02388553 hartree =     -14.98839760 kcal/mol
 G_cavitation     =       0.00000000 hartree =       0.00000000 kcal/mol
 G_dispersion     =       0.00000000 hartree =       0.00000000 kcal/mol
 G_repulsion      =       0.00000000 hartree =       0.00000000 kcal/mol
 --------------------------------------------------
 Non-electrostatic Free Energy =       0.00000000 hartree =       0.00000000 kcal/mol
 Total                         =      -0.02388553 hartree =     -14.98839760 kcal/mol
 --------------------------------------------------
 SCF Energy (H0 + V/2)                       =   -1570.68393828 
 Solute Internal Energy (H0)                 =   -1570.66005275 
 Total Free Energy (H0 + V/2 + non-elec)     =   -1570.68393828 hartree
                                             = -985619.04721988 kcal/mol
***********************************************************

 SCF   energy in the final basis set =    -1570.6839382825
 Total energy in the final basis set =    -1570.6839382825


 --------------------------------------------------------------
  Generalized many-body perturbation theory program
  by Joonho Lee, Fazle Rob, Xintian Feng, Evgeny Epifanovsky

 No regularization used 
 (reg. param. = 0.0000e+00)
  (P|Q)^-1/2 Time:  CPU 156.62 s  wall 2.96 s

 In RI-MP2 calculation: 
 # of frozen core orbitals: 31

 Components of the RIMP2 correlation energy:
        aaaa    correlation energy =        -0.6174622485 a.u.
        abab    correlation energy =        -3.3937789923 a.u.
        bbbb    correlation energy =        -0.6174622485 a.u.
        non-Brillouin singles      =        -0.0000000000 a.u.
        total same-spin energy     =        -1.2349244969 a.u.
        total opposite-spin energy =        -3.3937789923 a.u.

 Total  RIMP2   correlation energy =        -4.6287034892 a.u.
        RIMP2         total energy =     -1575.3126417718 a.u.

 RI-MP2 Energy Time:  CPU 2203.49 s  wall 37.25 s
 
 --------------------------------------------------------------
 
                    Orbital Energies (a.u.)
 --------------------------------------------------------------
 
 Alpha MOs
 -- Occupied --
-91.9867 -20.5588 -20.5567 -20.5547 -20.5542 -15.6315 -15.6303 -11.4002
-11.3961 -11.3918 -11.3910 -11.3182 -11.3026 -11.3024 -11.3007 -11.2971
-11.2964 -11.2909 -11.2867 -11.2849 -11.2839 -11.2799 -11.2781 -11.2648
-11.2643 -11.2607 -11.2483  -8.9862  -6.6668  -6.6663  -6.6657  -1.4252
 -1.4243  -1.4045  -1.4033  -1.2676  -1.2651  -1.2173  -1.1751  -1.1437
 -1.1171  -1.0627  -1.0497  -0.9929  -0.9892  -0.9837  -0.9589  -0.9477
 -0.8968  -0.8794  -0.8776  -0.8612  -0.7946  -0.7770  -0.7740  -0.7623
 -0.7331  -0.7183  -0.7049  -0.6943  -0.6831  -0.6743  -0.6664  -0.6622
 -0.6567  -0.6410  -0.6372  -0.6336  -0.6286  -0.6134  -0.5842  -0.5837
 -0.5794  -0.5716  -0.5670  -0.5666  -0.5642  -0.5555  -0.5540  -0.5484
 -0.5325  -0.5232  -0.5218  -0.5189  -0.4845  -0.4727  -0.4644  -0.4606
 -0.4580  -0.4477  -0.4279  -0.4180  -0.4090  -0.3691  -0.3476  -0.3366
 -0.3047
 -- Virtual --
 -0.0211   0.0571   0.0700   0.1016   0.1242   0.1545   0.1585   0.1591
  0.1661   0.1725   0.1801   0.1812   0.1844   0.1966   0.2071   0.2096
  0.2232   0.2271   0.2283   0.2340   0.2410   0.2480   0.2622   0.2644
  0.2696   0.3062   0.3142   0.3159   0.3236   0.3264   0.3279   0.3384
  0.3427   0.3459   0.3523   0.3547   0.3584   0.3605   0.3746   0.3764
  0.3777   0.3860   0.3881   0.3917   0.3990   0.4037   0.4087   0.4116
  0.4212   0.4273   0.4345   0.4395   0.4421   0.4444   0.4525   0.4546
  0.4585   0.4597   0.4701   0.4761   0.4793   0.4834   0.4905   0.4943
  0.5037   0.5067   0.5088   0.5103   0.5154   0.5221   0.5287   0.5320
  0.5346   0.5407   0.5482   0.5499   0.5522   0.5553   0.5634   0.5661
  0.5721   0.5742   0.5776   0.5857   0.5926   0.5929   0.5970   0.6012
  0.6048   0.6081   0.6122   0.6152   0.6198   0.6236   0.6254   0.6298
  0.6315   0.6334   0.6355   0.6379   0.6431   0.6493   0.6615   0.6640
  0.6798   0.6853   0.6927   0.6938   0.6964   0.7083   0.7114   0.7174
  0.7257   0.7346   0.7420   0.7435   0.7462   0.7555   0.7610   0.7626
  0.7695   0.7773   0.7859   0.7892   0.8018   0.8108   0.8109   0.8207
  0.8235   0.8302   0.8362   0.8430   0.8477   0.8489   0.8530   0.8628
  0.8646   0.8658   0.8682   0.8771   0.8803   0.8857   0.8922   0.9056
  0.9071   0.9156   0.9231   0.9253   0.9293   0.9340   0.9389   0.9481
  0.9487   0.9608   0.9645   0.9665   0.9721   0.9803   0.9815   0.9878
  0.9903   0.9966   1.0003   1.0048   1.0111   1.0157   1.0225   1.0283
  1.0309   1.0409   1.0415   1.0577   1.0627   1.0640   1.0715   1.0735
  1.0791   1.0825   1.0849   1.0906   1.0962   1.1037   1.1058   1.1068
  1.1275   1.1303   1.1356   1.1376   1.1412   1.1464   1.1527   1.1581
  1.1622   1.1688   1.1721   1.1756   1.1814   1.1858   1.1932   1.1976
  1.2023   1.2028   1.2123   1.2217   1.2250   1.2346   1.2379   1.2422
  1.2451   1.2512   1.2567   1.2576   1.2634   1.2694   1.2772   1.3039
  1.3042   1.3236   1.3303   1.3354   1.3413   1.3488   1.3500   1.3579
  1.3609   1.3746   1.3773   1.3837   1.3893   1.3896   1.4034   1.4174
  1.4234   1.4322   1.4386   1.4420   1.4453   1.4501   1.4559   1.4641
  1.4734   1.4806   1.4864   1.4894   1.4928   1.5070   1.5130   1.5181
  1.5245   1.5317   1.5395   1.5463   1.5500   1.5573   1.5607   1.5655
  1.5716   1.5739   1.5833   1.5937   1.6056   1.6085   1.6180   1.6273
  1.6374   1.6440   1.6506   1.6554   1.6664   1.6722   1.6816   1.6887
  1.6960   1.7002   1.7134   1.7193   1.7246   1.7356   1.7425   1.7454
  1.7477   1.7556   1.7677   1.7831   1.7905   1.7991   1.8077   1.8117
  1.8151   1.8321   1.8364   1.8432   1.8514   1.8595   1.8600   1.8728
  1.8745   1.8783   1.8908   1.9115   1.9178   1.9254   1.9450   1.9493
  1.9585   1.9719   1.9742   1.9831   1.9911   2.0071   2.0246   2.0359
  2.0422   2.0511   2.0558   2.0790   2.0994   2.1104   2.1282   2.1402
  2.1506   2.1529   2.1660   2.1747   2.1943   2.2015   2.2218   2.2312
  2.2363   2.2495   2.2589   2.2812   2.2845   2.2892   2.2931   2.2973
  2.3062   2.3275   2.3322   2.3410   2.3564   2.3624   2.3666   2.3799
  2.4053   2.4178   2.4331   2.4438   2.4535   2.4564   2.4608   2.4656
  2.4751   2.4867   2.4939   2.4983   2.5053   2.5110   2.5252   2.5409
  2.5533   2.5571   2.5757   2.5855   2.5947   2.5963   2.6028   2.6038
  2.6135   2.6217   2.6280   2.6457   2.6557   2.6583   2.6641   2.6645
  2.6733   2.6786   2.6862   2.6946   2.7086   2.7160   2.7199   2.7280
  2.7376   2.7420   2.7483   2.7512   2.7605   2.7691   2.7753   2.7827
  2.7917   2.7959   2.8216   2.8225   2.8348   2.8490   2.8503   2.8571
  2.8681   2.8725   2.8746   2.8781   2.8893   2.8915   2.8985   2.9032
  2.9092   2.9161   2.9289   2.9347   2.9475   2.9521   2.9620   2.9695
  2.9719   2.9746   2.9806   2.9948   3.0018   3.0068   3.0094   3.0155
  3.0219   3.0282   3.0334   3.0414   3.0515   3.0614   3.0626   3.0744
  3.0838   3.0903   3.0975   3.1013   3.1063   3.1077   3.1115   3.1181
  3.1244   3.1308   3.1333   3.1426   3.1566   3.1635   3.1703   3.1775
  3.1856   3.1949   3.1974   3.2029   3.2074   3.2166   3.2223   3.2229
  3.2246   3.2269   3.2360   3.2453   3.2482   3.2513   3.2540   3.2607
  3.2730   3.2746   3.2777   3.2807   3.2863   3.2912   3.2940   3.2979
  3.3046   3.3148   3.3211   3.3248   3.3278   3.3311   3.3330   3.3373
  3.3408   3.3428   3.3475   3.3520   3.3622   3.3669   3.3680   3.3716
  3.3780   3.3826   3.3917   3.3967   3.3977   3.4018   3.4076   3.4170
  3.4248   3.4277   3.4318   3.4423   3.4453   3.4484   3.4542   3.4575
  3.4595   3.4633   3.4687   3.4753   3.4759   3.4829   3.4876   3.4920
  3.4965   3.4982   3.5011   3.5094   3.5163   3.5182   3.5206   3.5271
  3.5323   3.5397   3.5438   3.5470   3.5552   3.5593   3.5720   3.5767
  3.5840   3.5892   3.5929   3.6033   3.6145   3.6201   3.6232   3.6279
  3.6289   3.6348   3.6378   3.6435   3.6535   3.6584   3.6695   3.6749
  3.6842   3.6880   3.6957   3.6995   3.7034   3.7104   3.7124   3.7194
  3.7292   3.7327   3.7365   3.7424   3.7498   3.7567   3.7587   3.7651
  3.7693   3.7768   3.7836   3.7866   3.7925   3.7965   3.8005   3.8032
  3.8139   3.8188   3.8284   3.8398   3.8435   3.8536   3.8545   3.8594
  3.8662   3.8679   3.8784   3.8793   3.8847   3.8935   3.9084   3.9259
  3.9307   3.9318   3.9411   3.9473   3.9526   3.9565   3.9672   3.9709
  3.9796   3.9965   4.0046   4.0104   4.0179   4.0228   4.0358   4.0371
  4.0532   4.0628   4.0677   4.0845   4.0931   4.0942   4.1074   4.1155
  4.1259   4.1282   4.1319   4.1359   4.1425   4.1603   4.1623   4.1679
  4.1720   4.1830   4.1868   4.1990   4.2055   4.2084   4.2176   4.2349
  4.2434   4.2526   4.2578   4.2677   4.2735   4.2748   4.2773   4.2899
  4.2941   4.2975   4.2986   4.3136   4.3227   4.3266   4.3360   4.3390
  4.3438   4.3557   4.3606   4.3654   4.3666   4.3687   4.3729   4.3845
  4.3920   4.4006   4.4015   4.4086   4.4173   4.4183   4.4283   4.4348
  4.4504   4.4609   4.4719   4.4764   4.4917   4.5088   4.5165   4.5181
  4.5220   4.5304   4.5324   4.5456   4.5486   4.5538   4.5604   4.5723
  4.5773   4.5823   4.5889   4.5949   4.6104   4.6184   4.6245   4.6300
  4.6424   4.6582   4.6644   4.6668   4.6725   4.6840   4.6865   4.6919
  4.7097   4.7254   4.7359   4.7425   4.7560   4.7634   4.7739   4.7901
  4.8054   4.8283   4.8298   4.8377   4.8446   4.8571   4.8699   4.8724
  4.8824   4.8934   4.9102   4.9219   4.9376   4.9554   4.9710   4.9758
  5.0039   5.0069   5.0221   5.0330   5.0399   5.0474   5.0514   5.0626
  5.0889   5.0966   5.1056   5.1174   5.1225   5.1265   5.1422   5.1455
  5.1567   5.1746   5.1860   5.1936   5.1988   5.2245   5.2409   5.2566
  5.2668   5.2774   5.2863   5.2965   5.3161   5.3233   5.3311   5.3377
  5.3508   5.3858   5.3963   5.4037   5.4138   5.4288   5.4311   5.4469
  5.4882   5.5044   5.5085   5.5122   5.5134   5.5368   5.5472   5.5551
  5.5559   5.5599   5.5642   5.5748   5.5776   5.5901   5.5959   5.6042
  5.6224   5.6304   5.6524   5.6555   5.6571   5.6731   5.6765   5.6935
  5.6970   5.7028   5.7341   5.7393   5.7421   5.7580   5.7607   5.7723
  5.7736   5.7799   5.8179   5.8333   5.8383   5.8736   5.8845   5.9287
  5.9385   5.9632   6.0043   6.0154   6.0232   6.0305   6.0332   6.0511
  6.0732   6.0938   6.1005   6.1158   6.1195   6.1709   6.1968   6.2080
  6.2174   6.2184   6.2217   6.2570   6.2655   6.2709   6.3042   6.3412
  6.3499   6.3723   6.4355   6.4481   6.4638   6.5218   6.5617   6.5692
  6.5817   6.5989   6.6282   6.6471   6.6593   6.6852   6.7148   6.8319
  6.8324   6.8797   6.8858   6.8968   6.9110   6.9275   6.9567   7.0781
  7.1018   7.1413   7.1853   7.1884   7.2276   7.3321   7.3416   7.3439
  7.3564   7.4663   7.5428   7.5574   7.5729   7.5776   7.5953   7.6337
  7.6746   7.6886   7.7224   8.3600   9.9192  10.2909  11.1115  11.2217
 11.6614  11.7242  11.9700  12.3585  12.4193  12.7028  12.8465  12.9098
 13.3133  13.5525  13.8114  13.9209  14.0216  14.1455  14.2761  14.3493
 14.4347  14.7240  15.3171  15.7397  15.9641
 --------------------------------------------------------------
 
          Ground-State Mulliken Net Atomic Charges

     Atom                 Charge (a.u.)
  ----------------------------------------
      1 C                    -0.138981
      2 C                    -0.108622
      3 C                    -0.037194
      4 C                    -0.004755
      5 H                     0.188729
      6 C                     0.002924
      7 C                     0.080006
      8 C                     0.001930
      9 C                    -0.060136
     10 C                    -0.134062
     11 C                     0.089016
     12 H                     0.185160
     13 C                     0.359822
     14 C                     0.364706
     15 N                    -0.101583
     16 C                     0.359279
     17 C                     0.358292
     18 N                    -0.095860
     19 O                    -0.464371
     20 O                    -0.476682
     21 O                    -0.481699
     22 O                    -0.465563
     23 C                    -0.201136
     24 H                     0.141197
     25 H                     0.112457
     26 H                     0.112229
     27 C                    -0.196531
     28 H                     0.133786
     29 H                     0.113188
     30 H                     0.112948
     31 H                     0.213512
     32 C                    -0.020224
     33 S                     0.074149
     34 C                    -0.208951
     35 C                    -0.197246
     36 C                    -0.204690
     37 H                     0.192977
     38 H                     0.190427
     39 H                     0.211552
  ----------------------------------------
  Sum of atomic charges =     0.000000

 -----------------------------------------------------------------
                    Cartesian Multipole Moments
 -----------------------------------------------------------------
    Charge (ESU x 10^10)
                 0.0000
    Dipole Moment (Debye)
         X       0.4755      Y       1.3616      Z      -0.7323
       Tot       1.6175
    Quadrupole Moments (Debye-Ang)
        XX    -171.8850     XY       3.0047     YY    -167.4080
        XZ      10.0975     YZ       0.6111     ZZ    -169.0685
    Octopole Moments (Debye-Ang^2)
       XXX      -5.4045    XXY     502.0163    XYY       4.9153
       YYY    1598.9509    XXZ     -31.6058    XYZ     -38.9097
       YYZ     -18.4687    XZZ       3.2008    YZZ     528.1477
       ZZZ     -94.3734
    Hexadecapole Moments (Debye-Ang^3)
      XXXX   -2635.0583   XXXY      61.9190   XXYY   -3329.5372
      XYYY     476.8587   YYYY  -17172.2174   XXXZ    1451.0533
      XXYZ      10.5886   XYYZ     768.9449   YYYZ    -621.0564
      XXZZ   -1142.4372   XYZZ     -73.6061   YYZZ   -3608.5063
      XZZZ    1479.1723   YZZZ    -146.8054   ZZZZ   -3901.7252
 -----------------------------------------------------------------
 Total job time:  262.98s(wall), 8267.67s(cpu) 
 Fri Dec 15 15:31:01 2023

        *************************************************************
        *                                                           *
        *  Thank you very much for using Q-Chem.  Have a nice day.  *
        *                                                           *
        *************************************************************


0 sent ACK to 0 
now end server 0 ... 
cleanup process ... done
remove work dirs ./qchem2227398.0 -- ./qchem2227398.0
rm -rf ./qchem2227398.0
rm -rf ./qchem2227398
