You are running Q-Chem version: 5.4.0

#
# job setting
#
local host:  exp-1-56
current dir: /home/rramji/project-csd799/aromodel/pndit-qchem/rotation_run
input file:  Dimethyl_Naphthalene_Dicarboximide_Phi_20_Theta_250_Thiophene.qcin
output file: 
nprocs     : 1
nthreads   : 64
#
# qchem installation setting
#
QC:          /cm/shared/apps/spack/cpu/opt/spack/linux-centos8-zen2/gcc-10.2.0/qchem-5.4-akfmr7b3t57bfs6qan3padb2wnb2i7cl
QCAUX:       /cm/shared/apps/spack/cpu/opt/spack/linux-centos8-zen2/gcc-10.2.0/qchem-5.4-akfmr7b3t57bfs6qan3padb2wnb2i7cl/qcaux
QCPROG:      /cm/shared/apps/spack/cpu/opt/spack/linux-centos8-zen2/gcc-10.2.0/qchem-5.4-akfmr7b3t57bfs6qan3padb2wnb2i7cl/exe/qcprog.exe
QCPROG_S:    /cm/shared/apps/spack/cpu/opt/spack/linux-centos8-zen2/gcc-10.2.0/qchem-5.4-akfmr7b3t57bfs6qan3padb2wnb2i7cl/exe/qcprog.exe_s
PARALLEL:    -DPARALLEL
QCMPI:       mpich
#
# qchem directory setting
#
qcrun:       qchem3181134
QCSCRATCH:   .
QCLOCALSCR:  
QCTMPDIR:    .
QCFILEPREF:  ./qchem3181134
QCSAVEDIR:   
workdirs:    ./qchem3181134
workdir0:    ./qchem3181134
partmpdirs =  
#
# parallel setting
#
QCRSH:           ssh
QCMPI:           mpich
QCMPIRUN:        /cm/shared/apps/spack/cpu/opt/spack/linux-centos8-zen2/gcc-10.2.0/qchem-5.4-akfmr7b3t57bfs6qan3padb2wnb2i7cl/bin/mpi/mpirun_qchem
QCMACHINEFILE:   ./qchem3181134/hostfile
exp-1-56

#
# env setting
#
exported envs:   QC QCAUX QCSCRATCH QCRUNNAME QCFILEPREF QCPROG QCPROG_S GUIFILE

Running Job 1 of 1 Dimethyl_Naphthalene_Dicarboximide_Phi_20_Theta_250_Thiophene.qcin
qchem Dimethyl_Naphthalene_Dicarboximide_Phi_20_Theta_250_Thiophene.qcin_3181134.0 ./qchem3181134/ 1
/cm/shared/apps/spack/cpu/opt/spack/linux-centos8-zen2/gcc-10.2.0/qchem-5.4-akfmr7b3t57bfs6qan3padb2wnb2i7cl/bin/mpi/mpirun_qchem -machinefile ./qchem3181134/hostfile -np 1 /cm/shared/apps/spack/cpu/opt/spack/linux-centos8-zen2/gcc-10.2.0/qchem-5.4-akfmr7b3t57bfs6qan3padb2wnb2i7cl/exe/qcprog.exe Dimethyl_Naphthalene_Dicarboximide_Phi_20_Theta_250_Thiophene.qcin_3181134.0 ./qchem3181134/

Process 0 of 1 is on exp-1-56 - thread support 0
initial socket setup ...start
initial socket setup ...done 
now start server 0 ... 
                  Welcome to Q-Chem
     A Quantum Leap Into The Future Of Chemistry


 Q-Chem 5.4, Q-Chem, Inc., Pleasanton, CA (2021)

 License issued to: University of California, San Diego (site)

 E. Epifanovsky,  A. T. B. Gilbert,  Xintian Feng,  Joonho Lee,  Yuezhi Mao,  
 N. Mardirossian,  P. Pokhilko,  A. White,  M. Wormit,  M. P. Coons,  
 A. L. Dempwolff,  Zhengting Gan,  D. Hait,  P. R. Horn,  L. D. Jacobson,  
 I. Kaliman,  J. Kussmann,  A. W. Lange,  Ka Un Lao,  D. S. Levine,  Jie Liu,  
 S. C. McKenzie,  A. F. Morrison,  K. Nanda,  F. Plasser,  D. R. Rehn,  
 M. L. Vidal,  Zhi-Qiang You,  Ying Zhu,  B. Alam,  B. Albrecht,  
 A. Aldossary,  E. Alguire,  J. H. Andersen,  D. Barton,  K. Begam,  A. Behn,  
 Y. A. Bernard,  E. J. Berquist,  H. Burton,  A. Carreras,  K. Carter-Fenk,  
 R. Chakraborty,  A. D. Chien,  K. D. Closser,  V. Cofer-Shabica,  
 S. Dasgupta,  Jia Deng,  M. de Wergifosse,  M. Diedenhofen,  Hainam Do,  
 S. Ehlert,  Po-Tung Fang,  S. Fatehi,  Qingguo Feng,  J. Gayvert,  
 Qinghui Ge,  G. Gidofalvi,  M. Goldey,  J. Gomes,  C. Gonzalez-Espinoza,  
 S. Gulania,  A. Gunina,  M. W. D. Hanson-Heine,  P. H. P. Harbach,  
 A. W. Hauser,  M. F. Herbst,  M. Hernandez Vera,  M. Hodecker,  
 Z. C. Holden,  S. Houck,  Xunkun Huang,  Kerwin Hui,  B. C. Huynh,  
 M. Ivanov,  Hyunjun Ji,  Hanjie Jiang,  B. Kaduk,  S. Kaehler,  
 K. Khistyaev,  Jaehoon Kim,  P. Klunzinger,  Z. Koczor-Benda,  
 Joong Hoon Koh,  D. Kosenkov,  L. Koulias,  T. Kowalczyk,  C. M. Krauter,  
 K. Kue,  A. Kunitsa,  T. Kus,  A. Landau,  K. V. Lawler,  D. Lefrancois,  
 S. Lehtola,  Rain Li,  Yi-Pei Li,  Jiashu Liang,  M. Liebenthal,  
 Hung-Hsuan Lin,  You-Sheng Lin,  Fenglai Liu,  Kuan-Yu Liu,  
 M. Loipersberger,  A. Luenser,  A. Manjanath,  P. Manohar,  E. Mansoor,  
 S. F. Manzer,  Shan-Ping Mao,  A. V. Marenich,  T. Markovich,  S. Mason,  
 S. A. Maurer,  P. F. McLaughlin,  M. F. S. J. Menger,  J.-M. Mewes,  
 S. A. Mewes,  P. Morgante,  J. W. Mullinax,  T. S. Nguyen-Beck,  
 K. J. Oosterbaan,  G. Paran,  Alexander C. Paul,  Suranjan K. Paul,  
 F. Pavosevic,  Zheng Pei,  S. Prager,  E. I. Proynov,  E. Ramos,  B. Rana,  
 A. E. Rask,  A. Rettig,  R. M. Richard,  F. Rob,  E. Rossomme,  T. Scheele,  
 M. Scheurer,  M. Schneider,  N. Sergueev,  S. M. Sharada,  W. Skomorowski,  
 D. W. Small,  C. J. Stein,  Yu-Chuan Su,  E. J. Sundstrom,  Zhen Tao,  
 J. Thirman,  T. Tsuchimochi,  N. M. Tubman,  S. P. Veccham,  O. Vydrov,  
 J. Wenzel,  J. Witte,  A. Yamada,  Kun Yao,  S. Yeganeh,  S. R. Yost,  
 A. Zech,  Igor Ying Zhang,  Xing Zhang,  Yu Zhang,  D. Zuev,  
 A. Aspuru-Guzik,  A. T. Bell,  N. A. Besley,  K. B. Bravaya,  B. R. Brooks,  
 D. Casanova,  Jeng-Da Chai,  S. Coriani,  C. J. Cramer,  
 A. E. DePrince, III,  R. A. DiStasio Jr.,  A. Dreuw,  B. D. Dunietz,  
 T. R. Furlani,  W. A. Goddard III,  S. Grimme,  S. Hammes-Schiffer,  
 T. Head-Gordon,  W. J. Hehre,  Chao-Ping Hsu,  T.-C. Jagau,  Yousung Jung,  
 A. Klamt,  Jing Kong,  D. S. Lambrecht,  WanZhen Liang,  N. J. Mayhall,  
 C. W. McCurdy,  J. B. Neaton,  C. Ochsenfeld,  J. A. Parkhill,  R. Peverati,  
 V. A. Rassolov,  Yihan Shao,  L. V. Slipchenko,  T. Stauch,  R. P. Steele,  
 J. E. Subotnik,  A. J. W. Thom,  A. Tkatchenko,  D. G. Truhlar,  
 T. Van Voorhis,  T. A. Wesolowski,  K. B. Whaley,  H. L. Woodcock III,  
 P. M. Zimmerman,  S. Faraji,  P. M. W. Gill,  M. Head-Gordon,  
 J. M. Herbert,  A. I. Krylov

 Contributors to earlier versions of Q-Chem not listed above: 
 R. D. Adamson,  B. Austin,  R. Baer,  J. Baker,  G. J. O. Beran,  
 K. Brandhorst,  S. T. Brown,  E. F. C. Byrd,  A. K. Chakraborty,  
 G. K. L. Chan,  Chun-Min Chang,  Yunqing Chen,  C.-L. Cheng,  
 Siu Hung Chien,  D. M. Chipman,  D. L. Crittenden,  H. Dachsel,  
 R. J. Doerksen,  A. D. Dutoi,  R. G. Edgar,  J. Fosso-Tande,  
 L. Fusti-Molnar,  D. Ghosh,  A. Ghysels,  A. Golubeva-Zadorozhnaya,  
 J. Gonthier,  M. S. Gordon,  S. R. Gwaltney,  G. Hawkins,  J. E. Herr,  
 A. Heyden,  S. Hirata,  E. G. Hohenstein,  G. Kedziora,  F. J. Keil,  
 C. Kelley,  Jihan Kim,  R. A. King,  R. Z. Khaliullin,  P. P. Korambath,  
 W. Kurlancheek,  A. Laurent,  A. M. Lee,  M. S. Lee,  S. V. Levchenko,  
 Ching Yeh Lin,  D. Liotard,  E. Livshits,  R. C. Lochan,  I. Lotan,  
 L. A. Martinez-Martinez,  P. E. Maslen,  N. Nair,  D. P. O'Neill,  
 D. Neuhauser,  E. Neuscamman,  C. M. Oana,  R. Olivares-Amaya,  R. Olson,  
 T. M. Perrine,  B. Peters,  P. A. Pieniazek,  A. Prociuk,  Y. M. Rhee,  
 J. Ritchie,  M. A. Rohrdanz,  E. Rosta,  N. J. Russ,  H. F. Schaefer III,  
 M. W. Schmidt,  N. E. Schultz,  S. Sharma,  N. Shenvi,  C. D. Sherrill,  
 A. C. Simmonett,  A. Sodt,  T. Stein,  D. Stuck,  K. S. Thanthiriwatte,  
 V. Vanovschi,  L. Vogt,  Tao Wang,  A. Warshel,  M. A. Watson,  
 C. F. Williams,  Q. Wu,  X. Xu,  Jun Yang,  W. Zhang,  Yan Zhao

 Please cite Q-Chem as follows:
 Y. Shao et al., Mol. Phys. 113, 184-215 (2015)
 DOI: 10.1080/00268976.2014.952696

 Q-Chem 5.4.0 for Intel X86 EM64T Linux

 Parts of Q-Chem use Armadillo 9.800.1 (Horizon Scraper).
 http://arma.sourceforge.net/

 Q-Chem begins on Fri Dec 15 15:25:00 2023  

 Host: 
0

     Scratch files written to ./qchem3181134//
 May1621 |scratch|qcdevops|jenkins|workspace|build_RNUM    
 Parallel job on  1  processors
 Processing $rem in /cm/shared/apps/spack/cpu/opt/spack/linux-centos8-zen2/gcc-10.2.0/qchem-5.4-akfmr7b3t57bfs6qan3padb2wnb2i7cl/config/preferences:
 Processing $rem in /home/rramji/.qchemrc:
 Symmetry turned off for PCM/SM12/SMD calculation
 Core orbitals will be frozen

 Checking the input file for inconsistencies... 	...done.

 Q-Chem warning in module forms1/BasisType.C, line 2236:

 You are not using the predefined 5D/6D in this basis set.


--------------------------------------------------------------
User input:
--------------------------------------------------------------
$molecule
0 1
C	-0.240927	-6.741404	0.089263
C	-1.467886	-6.155638	0.535973
C	0.777972	-5.791452	-0.281103
C	-1.729742	-4.803786	0.631036
H	-2.292903	-6.821518	0.836458
C	0.503614	-4.378638	-0.181995
C	-0.746756	-3.838032	0.272725
C	1.485437	-3.413062	-0.539954
C	-1.018915	-2.426473	0.371053
C	1.226557	-2.059348	-0.446381
C	-0.000000	-1.478216	-0.000000
H	2.052413	-1.394783	-0.747410
C	2.134128	-6.187987	-0.772747
C	2.829820	-3.798164	-1.029154
N	3.059182	-5.170003	-1.110828
C	-3.077731	-4.424987	1.121728
C	-2.375694	-2.036627	0.864069
N	-3.301101	-3.049156	1.201928
O	2.502830	-7.353131	-0.903908
O	3.697078	-2.986854	-1.345809
O	-3.934752	-5.248946	1.434422
O	-2.764177	-0.878829	1.003943
C	4.386939	-5.563799	-1.592981
H	4.429822	-6.664085	-1.607367
H	5.164489	-5.147101	-0.924504
H	4.553486	-5.148785	-2.605446
C	-4.608481	-2.587487	1.677308
H	-5.211969	-3.483329	1.898089
H	-5.094624	-1.964972	0.902337
H	-4.483092	-1.962932	2.582098
H	-0.066080	-7.822318	0.025963
C	0.000000	0.000000	0.000000
S	0.271091	0.745405	1.580530
C	0.831198	2.284363	0.904911
C	0.341175	0.937861	-0.985400
C	0.792631	2.178516	-0.493528
H	0.260601	0.716417	-2.059934
H	1.093860	3.006347	-1.152593
H	1.132330	3.111961	1.556025
$end

$rem
JOBTYPE		SP
EXCHANGE	HF
CORRELATION	pRIMP2
BASIS		cc-pvtz
METHOD		rimp2
AUX_BASIS	rimp2-cc-pvtz
SOLVENT_METHOD	PCM
PURECART	11111
SYMMETRY	false
MEM_TOTAL	110000
SCF_CONVERGENCE = 6
THRESH=10
GUI = 2
$end



$solvent
dielectric 4.90
$end
--------------------------------------------------------------
 ----------------------------------------------------------------
             Standard Nuclear Orientation (Angstroms)
    I     Atom           X                Y                Z
 ----------------------------------------------------------------
    1      C      -0.2409270000    -6.7414040000     0.0892630000
    2      C      -1.4678860000    -6.1556380000     0.5359730000
    3      C       0.7779720000    -5.7914520000    -0.2811030000
    4      C      -1.7297420000    -4.8037860000     0.6310360000
    5      H      -2.2929030000    -6.8215180000     0.8364580000
    6      C       0.5036140000    -4.3786380000    -0.1819950000
    7      C      -0.7467560000    -3.8380320000     0.2727250000
    8      C       1.4854370000    -3.4130620000    -0.5399540000
    9      C      -1.0189150000    -2.4264730000     0.3710530000
   10      C       1.2265570000    -2.0593480000    -0.4463810000
   11      C       0.0000000000    -1.4782160000     0.0000000000
   12      H       2.0524130000    -1.3947830000    -0.7474100000
   13      C       2.1341280000    -6.1879870000    -0.7727470000
   14      C       2.8298200000    -3.7981640000    -1.0291540000
   15      N       3.0591820000    -5.1700030000    -1.1108280000
   16      C      -3.0777310000    -4.4249870000     1.1217280000
   17      C      -2.3756940000    -2.0366270000     0.8640690000
   18      N      -3.3011010000    -3.0491560000     1.2019280000
   19      O       2.5028300000    -7.3531310000    -0.9039080000
   20      O       3.6970780000    -2.9868540000    -1.3458090000
   21      O      -3.9347520000    -5.2489460000     1.4344220000
   22      O      -2.7641770000    -0.8788290000     1.0039430000
   23      C       4.3869390000    -5.5637990000    -1.5929810000
   24      H       4.4298220000    -6.6640850000    -1.6073670000
   25      H       5.1644890000    -5.1471010000    -0.9245040000
   26      H       4.5534860000    -5.1487850000    -2.6054460000
   27      C      -4.6084810000    -2.5874870000     1.6773080000
   28      H      -5.2119690000    -3.4833290000     1.8980890000
   29      H      -5.0946240000    -1.9649720000     0.9023370000
   30      H      -4.4830920000    -1.9629320000     2.5820980000
   31      H      -0.0660800000    -7.8223180000     0.0259630000
   32      C       0.0000000000     0.0000000000     0.0000000000
   33      S       0.2710910000     0.7454050000     1.5805300000
   34      C       0.8311980000     2.2843630000     0.9049110000
   35      C       0.3411750000     0.9378610000    -0.9854000000
   36      C       0.7926310000     2.1785160000    -0.4935280000
   37      H       0.2606010000     0.7164170000    -2.0599340000
   38      H       1.0938600000     3.0063470000    -1.1525930000
   39      H       1.1323300000     3.1119610000     1.5560250000
 ----------------------------------------------------------------
 Nuclear Repulsion Energy =        2494.37908552 hartrees
 There are       97 alpha and       97 beta electrons
 Requested basis set is cc-pVTZ
 There are 344 shells and 982 basis functions

 Total QAlloc Memory Limit 110000 MB
 Mega-Array Size       188 MB
 MEM_STATIC part       192 MB
 Discretize the solute cavity surface with Lebedev spheres
	Using 110 Lebedev grid points for each H atom
	Using 194 Lebedev grid points for other atoms
	Atomic van der Waals radii will be scaled by 1.20
 Remove points where switching function is < 1.0e-08
 Keep 2563 surface tesserae and discard 3995 interior tesserae
 Molecular Surface Area = 369.750 Angst**2
 Requested basis set is rimp2-cc-pVTZ
 There are 750 shells and 2588 basis functions
 A cutoff of  1.0D-10 yielded  31525 shell pairs
 There are    242607 function pairs (    315237 Cartesian)
 Smallest overlap matrix eigenvalue = 9.30E-06

 Q-Chem warning in module stvman/mkSTV.C, line 323:

 Overlap eigenvalue is smaller than square root of threshold
 Use THRESH >= 12 to get rid of this warning


 Scale SEOQF with 1.000000e-01/1.000000e-02/1.000000e-01

 Standard Electronic Orientation quadrupole field applied
 Nucleus-field energy     =     0.0000000403 hartrees
 Guess from superposition of atomic densities
 Warning:  Energy on first SCF cycle will be non-variational
 SAD guess density has 194.000000 electrons

 -----------------------------------------------------------------------
  General SCF calculation program by
  Eric Jon Sundstrom, Paul Horn, Yuezhi Mao, Dmitri Zuev, Alec White,
  David Stuck, Shaama M.S., Shane Yost, Joonho Lee, David Small,
  Daniel Levine, Susi Lehtola, Hugh Burton, Evgeny Epifanovsky,
  Bang C. Huynh
 -----------------------------------------------------------------------
 Hartree-Fock
 using 64 threads for integral computing
 -------------------------------------------------------
 OpenMP Integral computing Module                
 Release: version 1.0, May 2013, Q-Chem Inc. Pittsburgh 
 -------------------------------------------------------
 A restricted SCF calculation will be
 performed using DIIS
 SCF converges when DIIS error is below 1.0e-06
 ---------------------------------------
  Cycle       Energy         DIIS error
 ---------------------------------------
    1   -1581.2842446073      1.87e-02  
    2   -1570.1152970741      2.09e-03  
    3   -1570.4416632111      1.63e-03  
    4   -1570.6729232368      2.56e-04  
    5   -1570.6849005131      7.52e-05  
    6   -1570.6859399043      2.78e-05  
    7   -1570.6861743488      1.43e-05  
    8   -1570.6862491105      5.92e-06  
    9   -1570.6862608694      2.30e-06  
   10   -1570.6862628537      7.29e-07  Convergence criterion met
 ---------------------------------------
 SCF time:   CPU 5828.38s  wall 219.00s 

************** Final PCM Free Energy Summary **************
 G_electrostatic  =      -0.02527552 hartree =     -15.86062545 kcal/mol
 G_cavitation     =       0.00000000 hartree =       0.00000000 kcal/mol
 G_dispersion     =       0.00000000 hartree =       0.00000000 kcal/mol
 G_repulsion      =       0.00000000 hartree =       0.00000000 kcal/mol
 --------------------------------------------------
 Non-electrostatic Free Energy =       0.00000000 hartree =       0.00000000 kcal/mol
 Total                         =      -0.02527552 hartree =     -15.86062545 kcal/mol
 --------------------------------------------------
 SCF Energy (H0 + V/2)                       =   -1570.68626285 
 Solute Internal Energy (H0)                 =   -1570.66098734 
 Total Free Energy (H0 + V/2 + non-elec)     =   -1570.68626285 hartree
                                             = -985620.50591032 kcal/mol
***********************************************************

 SCF   energy in the final basis set =    -1570.6862628537
 Total energy in the final basis set =    -1570.6862628537


 --------------------------------------------------------------
  Generalized many-body perturbation theory program
  by Joonho Lee, Fazle Rob, Xintian Feng, Evgeny Epifanovsky

 No regularization used 
 (reg. param. = 0.0000e+00)
  (P|Q)^-1/2 Time:  CPU 140.77 s  wall 2.60 s

 In RI-MP2 calculation: 
 # of frozen core orbitals: 31

 Components of the RIMP2 correlation energy:
        aaaa    correlation energy =        -0.6163073391 a.u.
        abab    correlation energy =        -3.3924400077 a.u.
        bbbb    correlation energy =        -0.6163073391 a.u.
        non-Brillouin singles      =        -0.0000000000 a.u.
        total same-spin energy     =        -1.2326146783 a.u.
        total opposite-spin energy =        -3.3924400077 a.u.

 Total  RIMP2   correlation energy =        -4.6250546860 a.u.
        RIMP2         total energy =     -1575.3113175397 a.u.

 RI-MP2 Energy Time:  CPU 2293.56 s  wall 38.87 s
 
 --------------------------------------------------------------
 
                    Orbital Energies (a.u.)
 --------------------------------------------------------------
 
 Alpha MOs
 -- Occupied --
-91.9916 -20.5588 -20.5572 -20.5565 -20.5554 -15.6315 -15.6312 -11.4005
-11.3973 -11.3930 -11.3909 -11.3165 -11.3064 -11.3031 -11.3011 -11.2993
-11.2988 -11.2927 -11.2868 -11.2864 -11.2830 -11.2808 -11.2788 -11.2648
-11.2646 -11.2571 -11.2507  -8.9909  -6.6717  -6.6712  -6.6706  -1.4252
 -1.4245  -1.4045  -1.4036  -1.2679  -1.2656  -1.2182  -1.1763  -1.1443
 -1.1181  -1.0635  -1.0504  -0.9933  -0.9900  -0.9842  -0.9594  -0.9483
 -0.8977  -0.8797  -0.8781  -0.8610  -0.7956  -0.7775  -0.7736  -0.7615
 -0.7355  -0.7191  -0.7057  -0.6951  -0.6818  -0.6741  -0.6667  -0.6625
 -0.6573  -0.6422  -0.6380  -0.6342  -0.6302  -0.6131  -0.5852  -0.5848
 -0.5782  -0.5734  -0.5669  -0.5644  -0.5636  -0.5555  -0.5534  -0.5486
 -0.5331  -0.5261  -0.5213  -0.5162  -0.4837  -0.4719  -0.4671  -0.4610
 -0.4593  -0.4538  -0.4285  -0.4184  -0.4091  -0.3600  -0.3498  -0.3359
 -0.3186
 -- Virtual --
 -0.0198   0.0633   0.0711   0.0933   0.1154   0.1544   0.1579   0.1589
  0.1653   0.1674   0.1774   0.1828   0.1849   0.1936   0.2042   0.2070
  0.2133   0.2228   0.2278   0.2292   0.2328   0.2387   0.2594   0.2612
  0.2643   0.3045   0.3095   0.3151   0.3166   0.3212   0.3243   0.3349
  0.3405   0.3433   0.3508   0.3574   0.3592   0.3607   0.3707   0.3748
  0.3777   0.3813   0.3881   0.3933   0.3967   0.4020   0.4066   0.4093
  0.4134   0.4249   0.4311   0.4361   0.4423   0.4449   0.4510   0.4546
  0.4583   0.4619   0.4677   0.4707   0.4715   0.4799   0.4823   0.4902
  0.4943   0.4986   0.5022   0.5106   0.5133   0.5223   0.5244   0.5293
  0.5333   0.5418   0.5476   0.5519   0.5526   0.5569   0.5611   0.5658
  0.5670   0.5724   0.5769   0.5833   0.5880   0.5938   0.5978   0.5981
  0.6024   0.6037   0.6091   0.6152   0.6185   0.6236   0.6269   0.6317
  0.6325   0.6341   0.6361   0.6384   0.6412   0.6465   0.6533   0.6655
  0.6678   0.6746   0.6895   0.6933   0.6970   0.7048   0.7112   0.7153
  0.7284   0.7336   0.7352   0.7391   0.7498   0.7564   0.7602   0.7629
  0.7637   0.7689   0.7791   0.7895   0.7965   0.7990   0.8055   0.8132
  0.8158   0.8232   0.8348   0.8356   0.8399   0.8487   0.8517   0.8550
  0.8641   0.8645   0.8666   0.8736   0.8807   0.8882   0.8970   0.9004
  0.9062   0.9155   0.9185   0.9269   0.9299   0.9338   0.9382   0.9458
  0.9476   0.9527   0.9584   0.9635   0.9707   0.9756   0.9803   0.9806
  0.9850   0.9954   0.9999   1.0042   1.0099   1.0144   1.0186   1.0252
  1.0316   1.0372   1.0437   1.0487   1.0605   1.0644   1.0673   1.0757
  1.0773   1.0816   1.0821   1.0899   1.0944   1.1014   1.1025   1.1088
  1.1222   1.1247   1.1313   1.1390   1.1443   1.1455   1.1526   1.1568
  1.1595   1.1642   1.1715   1.1783   1.1797   1.1866   1.1933   1.1970
  1.2018   1.2120   1.2165   1.2202   1.2241   1.2286   1.2353   1.2391
  1.2409   1.2469   1.2499   1.2617   1.2673   1.2701   1.2913   1.2987
  1.3078   1.3248   1.3275   1.3331   1.3413   1.3436   1.3466   1.3534
  1.3658   1.3791   1.3816   1.3846   1.3905   1.4018   1.4122   1.4156
  1.4200   1.4250   1.4319   1.4406   1.4438   1.4501   1.4569   1.4705
  1.4820   1.4862   1.4867   1.4909   1.4968   1.5063   1.5102   1.5180
  1.5211   1.5322   1.5342   1.5416   1.5470   1.5548   1.5561   1.5628
  1.5648   1.5723   1.5750   1.5872   1.5975   1.6121   1.6157   1.6280
  1.6312   1.6420   1.6513   1.6595   1.6656   1.6698   1.6782   1.6873
  1.6947   1.7024   1.7146   1.7150   1.7278   1.7304   1.7405   1.7451
  1.7516   1.7539   1.7690   1.7805   1.7871   1.7987   1.8030   1.8106
  1.8117   1.8292   1.8342   1.8362   1.8531   1.8591   1.8605   1.8633
  1.8654   1.8794   1.9012   1.9122   1.9174   1.9303   1.9405   1.9463
  1.9573   1.9653   1.9719   1.9787   1.9859   2.0031   2.0147   2.0330
  2.0366   2.0450   2.0592   2.0702   2.0788   2.1128   2.1178   2.1327
  2.1422   2.1560   2.1597   2.1682   2.1965   2.2026   2.2116   2.2141
  2.2248   2.2335   2.2493   2.2579   2.2777   2.2882   2.2916   2.2966
  2.3157   2.3187   2.3273   2.3348   2.3484   2.3588   2.3644   2.3863
  2.3993   2.4246   2.4326   2.4405   2.4507   2.4524   2.4562   2.4632
  2.4774   2.4860   2.4911   2.4990   2.5095   2.5160   2.5205   2.5413
  2.5535   2.5615   2.5769   2.5813   2.5853   2.5933   2.5977   2.6024
  2.6151   2.6184   2.6245   2.6458   2.6531   2.6556   2.6636   2.6673
  2.6708   2.6811   2.6907   2.6955   2.7095   2.7122   2.7128   2.7224
  2.7329   2.7444   2.7470   2.7514   2.7563   2.7666   2.7814   2.7857
  2.8026   2.8061   2.8193   2.8268   2.8328   2.8382   2.8508   2.8586
  2.8631   2.8729   2.8742   2.8785   2.8866   2.8932   2.8988   2.9042
  2.9108   2.9179   2.9287   2.9307   2.9465   2.9509   2.9561   2.9692
  2.9724   2.9816   2.9858   2.9934   2.9996   3.0043   3.0059   3.0161
  3.0195   3.0259   3.0314   3.0406   3.0498   3.0619   3.0649   3.0719
  3.0822   3.0896   3.0933   3.1007   3.1087   3.1110   3.1175   3.1235
  3.1269   3.1347   3.1418   3.1486   3.1627   3.1676   3.1708   3.1788
  3.1906   3.1934   3.1979   3.2044   3.2090   3.2137   3.2168   3.2216
  3.2270   3.2309   3.2354   3.2390   3.2492   3.2514   3.2541   3.2611
  3.2632   3.2662   3.2772   3.2799   3.2852   3.2872   3.2911   3.2970
  3.3006   3.3129   3.3205   3.3222   3.3240   3.3266   3.3319   3.3359
  3.3384   3.3416   3.3466   3.3525   3.3584   3.3609   3.3660   3.3703
  3.3766   3.3819   3.3864   3.3966   3.3999   3.4027   3.4105   3.4247
  3.4264   3.4298   3.4393   3.4414   3.4462   3.4482   3.4502   3.4548
  3.4603   3.4605   3.4712   3.4767   3.4776   3.4805   3.4876   3.4924
  3.4971   3.4989   3.5030   3.5051   3.5084   3.5145   3.5202   3.5319
  3.5330   3.5383   3.5425   3.5581   3.5619   3.5665   3.5741   3.5795
  3.5856   3.5872   3.6034   3.6045   3.6116   3.6161   3.6228   3.6269
  3.6319   3.6372   3.6379   3.6434   3.6544   3.6623   3.6669   3.6767
  3.6870   3.6898   3.6985   3.7005   3.7039   3.7130   3.7151   3.7174
  3.7289   3.7312   3.7372   3.7434   3.7485   3.7563   3.7581   3.7616
  3.7682   3.7776   3.7811   3.7849   3.7916   3.7955   3.8011   3.8037
  3.8052   3.8103   3.8228   3.8354   3.8427   3.8477   3.8535   3.8572
  3.8584   3.8737   3.8780   3.8822   3.8892   3.9018   3.9043   3.9174
  3.9239   3.9301   3.9418   3.9446   3.9486   3.9568   3.9589   3.9691
  3.9793   3.9887   4.0002   4.0069   4.0117   4.0188   4.0226   4.0281
  4.0534   4.0609   4.0641   4.0822   4.0838   4.0921   4.0970   4.1053
  4.1177   4.1223   4.1297   4.1335   4.1487   4.1571   4.1619   4.1695
  4.1810   4.1821   4.1844   4.1920   4.2017   4.2112   4.2232   4.2352
  4.2428   4.2522   4.2583   4.2614   4.2695   4.2764   4.2811   4.2892
  4.2952   4.2984   4.3030   4.3089   4.3153   4.3270   4.3322   4.3362
  4.3406   4.3536   4.3605   4.3627   4.3670   4.3679   4.3747   4.3807
  4.3888   4.3991   4.4002   4.4050   4.4063   4.4155   4.4228   4.4270
  4.4474   4.4622   4.4656   4.4817   4.4940   4.5069   4.5129   4.5169
  4.5205   4.5261   4.5296   4.5396   4.5410   4.5513   4.5672   4.5722
  4.5777   4.5789   4.5852   4.5932   4.6050   4.6080   4.6225   4.6302
  4.6414   4.6603   4.6633   4.6682   4.6698   4.6801   4.6864   4.6915
  4.7102   4.7302   4.7326   4.7450   4.7541   4.7606   4.7640   4.7960
  4.8161   4.8202   4.8318   4.8378   4.8465   4.8613   4.8666   4.8687
  4.8800   4.8898   4.9035   4.9136   4.9297   4.9454   4.9747   4.9779
  4.9893   5.0023   5.0205   5.0306   5.0424   5.0501   5.0529   5.0638
  5.0899   5.0999   5.1039   5.1075   5.1231   5.1265   5.1403   5.1442
  5.1614   5.1759   5.1800   5.1865   5.1990   5.2137   5.2331   5.2558
  5.2592   5.2744   5.2792   5.2919   5.3213   5.3285   5.3304   5.3404
  5.3536   5.3901   5.3955   5.4018   5.4148   5.4301   5.4320   5.4458
  5.4924   5.5051   5.5072   5.5086   5.5124   5.5296   5.5401   5.5490
  5.5547   5.5598   5.5640   5.5734   5.5772   5.5883   5.6019   5.6037
  5.6196   5.6298   5.6519   5.6537   5.6569   5.6728   5.6765   5.6871
  5.6955   5.6988   5.7316   5.7396   5.7505   5.7526   5.7586   5.7686
  5.7727   5.7769   5.8115   5.8283   5.8471   5.8499   5.8790   5.9220
  5.9379   5.9578   5.9989   6.0100   6.0211   6.0275   6.0287   6.0438
  6.0832   6.0928   6.1002   6.1118   6.1158   6.1594   6.1904   6.2057
  6.2171   6.2177   6.2204   6.2518   6.2618   6.2697   6.2984   6.3387
  6.3501   6.3823   6.4197   6.4438   6.4624   6.5215   6.5616   6.5681
  6.5811   6.5948   6.6255   6.6469   6.6586   6.6705   6.7077   6.8282
  6.8309   6.8778   6.8858   6.8930   6.9109   6.9220   6.9230   7.0769
  7.0980   7.1394   7.1829   7.1868   7.2263   7.3320   7.3400   7.3439
  7.3507   7.4653   7.5415   7.5565   7.5707   7.5727   7.5842   7.6330
  7.6654   7.6792   7.7199   8.3160   9.9080  10.2878  11.0995  11.1896
 11.6432  11.7291  11.9709  12.3557  12.4461  12.6635  12.8464  12.8700
 13.2850  13.5534  13.8037  13.9262  14.0127  14.1065  14.2079  14.3420
 14.4111  14.7161  15.2995  15.7299  15.9989
 --------------------------------------------------------------
 
          Ground-State Mulliken Net Atomic Charges

     Atom                 Charge (a.u.)
  ----------------------------------------
      1 C                    -0.130958
      2 C                    -0.108870
      3 C                    -0.042824
      4 C                     0.001273
      5 H                     0.189047
      6 C                     0.002164
      7 C                     0.071265
      8 C                     0.002694
      9 C                    -0.016544
     10 C                    -0.100265
     11 C                     0.024694
     12 H                     0.188356
     13 C                     0.360513
     14 C                     0.363934
     15 N                    -0.101766
     16 C                     0.359575
     17 C                     0.349552
     18 N                    -0.097934
     19 O                    -0.464756
     20 O                    -0.476295
     21 O                    -0.479743
     22 O                    -0.458509
     23 C                    -0.201088
     24 H                     0.141104
     25 H                     0.112624
     26 H                     0.112303
     27 C                    -0.195894
     28 H                     0.133611
     29 H                     0.113421
     30 H                     0.113417
     31 H                     0.214485
     32 C                     0.003567
     33 S                     0.038433
     34 C                    -0.211141
     35 C                    -0.217109
     36 C                    -0.188239
     37 H                     0.191857
     38 H                     0.192716
     39 H                     0.211329
  ----------------------------------------
  Sum of atomic charges =     0.000000

 -----------------------------------------------------------------
                    Cartesian Multipole Moments
 -----------------------------------------------------------------
    Charge (ESU x 10^10)
                 0.0000
    Dipole Moment (Debye)
         X       0.6970      Y       0.7975      Z      -0.8885
       Tot       1.3825
    Quadrupole Moments (Debye-Ang)
        XX    -180.7303     XY       4.6838     YY    -165.3871
        XZ       6.7122     YZ       0.3899     ZZ    -159.7799
    Octopole Moments (Debye-Ang^2)
       XXX       0.7724    XXY     542.2909    XYY       4.1136
       YYY    1584.4806    XXZ     -23.9415    XYZ     -23.6327
       YYZ     -13.5077    XZZ       3.5424    YZZ     489.6128
       ZZZ     -71.8120
    Hexadecapole Moments (Debye-Ang^3)
      XXXX   -5519.2837   XXXY     -51.1909   XXYY   -4045.2045
      XYYY     710.8534   YYYY  -17059.2239   XXXZ     983.2331
      XXYZ      55.2666   XYYZ     499.9713   YYYZ    -295.7839
      XXZZ   -1101.0052   XYZZ      56.7832   YYZZ   -2871.0574
      XZZZ     910.4699   YZZZ    -144.9739   ZZZZ   -1127.8405
 -----------------------------------------------------------------
 Total job time:  262.40s(wall), 8229.27s(cpu) 
 Fri Dec 15 15:29:23 2023

        *************************************************************
        *                                                           *
        *  Thank you very much for using Q-Chem.  Have a nice day.  *
        *                                                           *
        *************************************************************


0 sent ACK to 0 
now end server 0 ... 
cleanup process ... done
remove work dirs ./qchem3181134.0 -- ./qchem3181134.0
rm -rf ./qchem3181134.0
rm -rf ./qchem3181134
