You are running Q-Chem version: 5.4.0

#
# job setting
#
local host:  exp-5-28
current dir: /home/rramji/project-csd799/aromodel/pndit-qchem/rotation_run
input file:  Dimethyl_Naphthalene_Dicarboximide_Phi_60_Theta_350_Thiophene.qcin
output file: 
nprocs     : 1
nthreads   : 64
#
# qchem installation setting
#
QC:          /cm/shared/apps/spack/cpu/opt/spack/linux-centos8-zen2/gcc-10.2.0/qchem-5.4-akfmr7b3t57bfs6qan3padb2wnb2i7cl
QCAUX:       /cm/shared/apps/spack/cpu/opt/spack/linux-centos8-zen2/gcc-10.2.0/qchem-5.4-akfmr7b3t57bfs6qan3padb2wnb2i7cl/qcaux
QCPROG:      /cm/shared/apps/spack/cpu/opt/spack/linux-centos8-zen2/gcc-10.2.0/qchem-5.4-akfmr7b3t57bfs6qan3padb2wnb2i7cl/exe/qcprog.exe
QCPROG_S:    /cm/shared/apps/spack/cpu/opt/spack/linux-centos8-zen2/gcc-10.2.0/qchem-5.4-akfmr7b3t57bfs6qan3padb2wnb2i7cl/exe/qcprog.exe_s
PARALLEL:    -DPARALLEL
QCMPI:       mpich
#
# qchem directory setting
#
qcrun:       qchem218327
QCSCRATCH:   .
QCLOCALSCR:  
QCTMPDIR:    .
QCFILEPREF:  ./qchem218327
QCSAVEDIR:   
workdirs:    ./qchem218327
workdir0:    ./qchem218327
partmpdirs =  
#
# parallel setting
#
QCRSH:           ssh
QCMPI:           mpich
QCMPIRUN:        /cm/shared/apps/spack/cpu/opt/spack/linux-centos8-zen2/gcc-10.2.0/qchem-5.4-akfmr7b3t57bfs6qan3padb2wnb2i7cl/bin/mpi/mpirun_qchem
QCMACHINEFILE:   ./qchem218327/hostfile
exp-5-28

#
# env setting
#
exported envs:   QC QCAUX QCSCRATCH QCRUNNAME QCFILEPREF QCPROG QCPROG_S GUIFILE

Running Job 1 of 1 Dimethyl_Naphthalene_Dicarboximide_Phi_60_Theta_350_Thiophene.qcin
qchem Dimethyl_Naphthalene_Dicarboximide_Phi_60_Theta_350_Thiophene.qcin_218327.0 ./qchem218327/ 1
/cm/shared/apps/spack/cpu/opt/spack/linux-centos8-zen2/gcc-10.2.0/qchem-5.4-akfmr7b3t57bfs6qan3padb2wnb2i7cl/bin/mpi/mpirun_qchem -machinefile ./qchem218327/hostfile -np 1 /cm/shared/apps/spack/cpu/opt/spack/linux-centos8-zen2/gcc-10.2.0/qchem-5.4-akfmr7b3t57bfs6qan3padb2wnb2i7cl/exe/qcprog.exe Dimethyl_Naphthalene_Dicarboximide_Phi_60_Theta_350_Thiophene.qcin_218327.0 ./qchem218327/

Process 0 of 1 is on exp-5-28 - thread support 0
initial socket setup ...start
initial socket setup ...done 
now start server 0 ... 
                  Welcome to Q-Chem
     A Quantum Leap Into The Future Of Chemistry


 Q-Chem 5.4, Q-Chem, Inc., Pleasanton, CA (2021)

 License issued to: University of California, San Diego (site)

 E. Epifanovsky,  A. T. B. Gilbert,  Xintian Feng,  Joonho Lee,  Yuezhi Mao,  
 N. Mardirossian,  P. Pokhilko,  A. White,  M. Wormit,  M. P. Coons,  
 A. L. Dempwolff,  Zhengting Gan,  D. Hait,  P. R. Horn,  L. D. Jacobson,  
 I. Kaliman,  J. Kussmann,  A. W. Lange,  Ka Un Lao,  D. S. Levine,  Jie Liu,  
 S. C. McKenzie,  A. F. Morrison,  K. Nanda,  F. Plasser,  D. R. Rehn,  
 M. L. Vidal,  Zhi-Qiang You,  Ying Zhu,  B. Alam,  B. Albrecht,  
 A. Aldossary,  E. Alguire,  J. H. Andersen,  D. Barton,  K. Begam,  A. Behn,  
 Y. A. Bernard,  E. J. Berquist,  H. Burton,  A. Carreras,  K. Carter-Fenk,  
 R. Chakraborty,  A. D. Chien,  K. D. Closser,  V. Cofer-Shabica,  
 S. Dasgupta,  Jia Deng,  M. de Wergifosse,  M. Diedenhofen,  Hainam Do,  
 S. Ehlert,  Po-Tung Fang,  S. Fatehi,  Qingguo Feng,  J. Gayvert,  
 Qinghui Ge,  G. Gidofalvi,  M. Goldey,  J. Gomes,  C. Gonzalez-Espinoza,  
 S. Gulania,  A. Gunina,  M. W. D. Hanson-Heine,  P. H. P. Harbach,  
 A. W. Hauser,  M. F. Herbst,  M. Hernandez Vera,  M. Hodecker,  
 Z. C. Holden,  S. Houck,  Xunkun Huang,  Kerwin Hui,  B. C. Huynh,  
 M. Ivanov,  Hyunjun Ji,  Hanjie Jiang,  B. Kaduk,  S. Kaehler,  
 K. Khistyaev,  Jaehoon Kim,  P. Klunzinger,  Z. Koczor-Benda,  
 Joong Hoon Koh,  D. Kosenkov,  L. Koulias,  T. Kowalczyk,  C. M. Krauter,  
 K. Kue,  A. Kunitsa,  T. Kus,  A. Landau,  K. V. Lawler,  D. Lefrancois,  
 S. Lehtola,  Rain Li,  Yi-Pei Li,  Jiashu Liang,  M. Liebenthal,  
 Hung-Hsuan Lin,  You-Sheng Lin,  Fenglai Liu,  Kuan-Yu Liu,  
 M. Loipersberger,  A. Luenser,  A. Manjanath,  P. Manohar,  E. Mansoor,  
 S. F. Manzer,  Shan-Ping Mao,  A. V. Marenich,  T. Markovich,  S. Mason,  
 S. A. Maurer,  P. F. McLaughlin,  M. F. S. J. Menger,  J.-M. Mewes,  
 S. A. Mewes,  P. Morgante,  J. W. Mullinax,  T. S. Nguyen-Beck,  
 K. J. Oosterbaan,  G. Paran,  Alexander C. Paul,  Suranjan K. Paul,  
 F. Pavosevic,  Zheng Pei,  S. Prager,  E. I. Proynov,  E. Ramos,  B. Rana,  
 A. E. Rask,  A. Rettig,  R. M. Richard,  F. Rob,  E. Rossomme,  T. Scheele,  
 M. Scheurer,  M. Schneider,  N. Sergueev,  S. M. Sharada,  W. Skomorowski,  
 D. W. Small,  C. J. Stein,  Yu-Chuan Su,  E. J. Sundstrom,  Zhen Tao,  
 J. Thirman,  T. Tsuchimochi,  N. M. Tubman,  S. P. Veccham,  O. Vydrov,  
 J. Wenzel,  J. Witte,  A. Yamada,  Kun Yao,  S. Yeganeh,  S. R. Yost,  
 A. Zech,  Igor Ying Zhang,  Xing Zhang,  Yu Zhang,  D. Zuev,  
 A. Aspuru-Guzik,  A. T. Bell,  N. A. Besley,  K. B. Bravaya,  B. R. Brooks,  
 D. Casanova,  Jeng-Da Chai,  S. Coriani,  C. J. Cramer,  
 A. E. DePrince, III,  R. A. DiStasio Jr.,  A. Dreuw,  B. D. Dunietz,  
 T. R. Furlani,  W. A. Goddard III,  S. Grimme,  S. Hammes-Schiffer,  
 T. Head-Gordon,  W. J. Hehre,  Chao-Ping Hsu,  T.-C. Jagau,  Yousung Jung,  
 A. Klamt,  Jing Kong,  D. S. Lambrecht,  WanZhen Liang,  N. J. Mayhall,  
 C. W. McCurdy,  J. B. Neaton,  C. Ochsenfeld,  J. A. Parkhill,  R. Peverati,  
 V. A. Rassolov,  Yihan Shao,  L. V. Slipchenko,  T. Stauch,  R. P. Steele,  
 J. E. Subotnik,  A. J. W. Thom,  A. Tkatchenko,  D. G. Truhlar,  
 T. Van Voorhis,  T. A. Wesolowski,  K. B. Whaley,  H. L. Woodcock III,  
 P. M. Zimmerman,  S. Faraji,  P. M. W. Gill,  M. Head-Gordon,  
 J. M. Herbert,  A. I. Krylov

 Contributors to earlier versions of Q-Chem not listed above: 
 R. D. Adamson,  B. Austin,  R. Baer,  J. Baker,  G. J. O. Beran,  
 K. Brandhorst,  S. T. Brown,  E. F. C. Byrd,  A. K. Chakraborty,  
 G. K. L. Chan,  Chun-Min Chang,  Yunqing Chen,  C.-L. Cheng,  
 Siu Hung Chien,  D. M. Chipman,  D. L. Crittenden,  H. Dachsel,  
 R. J. Doerksen,  A. D. Dutoi,  R. G. Edgar,  J. Fosso-Tande,  
 L. Fusti-Molnar,  D. Ghosh,  A. Ghysels,  A. Golubeva-Zadorozhnaya,  
 J. Gonthier,  M. S. Gordon,  S. R. Gwaltney,  G. Hawkins,  J. E. Herr,  
 A. Heyden,  S. Hirata,  E. G. Hohenstein,  G. Kedziora,  F. J. Keil,  
 C. Kelley,  Jihan Kim,  R. A. King,  R. Z. Khaliullin,  P. P. Korambath,  
 W. Kurlancheek,  A. Laurent,  A. M. Lee,  M. S. Lee,  S. V. Levchenko,  
 Ching Yeh Lin,  D. Liotard,  E. Livshits,  R. C. Lochan,  I. Lotan,  
 L. A. Martinez-Martinez,  P. E. Maslen,  N. Nair,  D. P. O'Neill,  
 D. Neuhauser,  E. Neuscamman,  C. M. Oana,  R. Olivares-Amaya,  R. Olson,  
 T. M. Perrine,  B. Peters,  P. A. Pieniazek,  A. Prociuk,  Y. M. Rhee,  
 J. Ritchie,  M. A. Rohrdanz,  E. Rosta,  N. J. Russ,  H. F. Schaefer III,  
 M. W. Schmidt,  N. E. Schultz,  S. Sharma,  N. Shenvi,  C. D. Sherrill,  
 A. C. Simmonett,  A. Sodt,  T. Stein,  D. Stuck,  K. S. Thanthiriwatte,  
 V. Vanovschi,  L. Vogt,  Tao Wang,  A. Warshel,  M. A. Watson,  
 C. F. Williams,  Q. Wu,  X. Xu,  Jun Yang,  W. Zhang,  Yan Zhao

 Please cite Q-Chem as follows:
 Y. Shao et al., Mol. Phys. 113, 184-215 (2015)
 DOI: 10.1080/00268976.2014.952696

 Q-Chem 5.4.0 for Intel X86 EM64T Linux

 Parts of Q-Chem use Armadillo 9.800.1 (Horizon Scraper).
 http://arma.sourceforge.net/

 Q-Chem begins on Fri Dec 15 16:12:36 2023  

 Host: 
0

     Scratch files written to ./qchem218327//
 May1621 |scratch|qcdevops|jenkins|workspace|build_RNUM    
 Parallel job on  1  processors
 Processing $rem in /cm/shared/apps/spack/cpu/opt/spack/linux-centos8-zen2/gcc-10.2.0/qchem-5.4-akfmr7b3t57bfs6qan3padb2wnb2i7cl/config/preferences:
 Processing $rem in /home/rramji/.qchemrc:
 Symmetry turned off for PCM/SM12/SMD calculation
 Core orbitals will be frozen

 Checking the input file for inconsistencies... 	...done.

 Q-Chem warning in module forms1/BasisType.C, line 2236:

 You are not using the predefined 5D/6D in this basis set.


--------------------------------------------------------------
User input:
--------------------------------------------------------------
$molecule
0 1
C	-0.046070	-6.741404	-0.252767
C	-0.272935	-6.155638	-1.538656
C	0.141739	-5.791452	0.814966
C	-0.321083	-4.803786	-1.813042
H	-0.425592	-6.821518	-2.403318
C	0.091779	-4.378638	0.527566
C	-0.138909	-3.838032	-0.782769
C	0.273808	-3.413062	1.556632
C	-0.188483	-2.426473	-1.067868
C	0.226610	-2.059348	1.285436
C	-0.000000	-1.478216	-0.000000
H	0.379657	-1.394783	2.151019
C	0.390420	-6.187987	2.235891
C	0.522125	-3.798164	2.965540
N	0.562731	-5.170003	3.205600
C	-0.570244	-4.424987	-3.225760
C	-0.438407	-2.036627	-2.489646
N	-0.610438	-3.049156	-3.459662
O	0.455563	-7.353131	2.621768
O	0.683373	-2.986854	3.874608
O	-0.729367	-5.248946	-4.124059
O	-0.508697	-0.878829	-2.896516
C	0.806996	-5.563799	4.596910
H	0.813717	-6.664085	4.641640
H	0.013655	-5.147101	5.246567
H	1.775159	-5.148785	4.936739
C	-0.851572	-2.587487	-4.829729
H	-0.964204	-3.483329	-5.462387
H	-0.003956	-1.964972	-5.173914
H	-1.764390	-1.962932	-4.863360
H	-0.014094	-7.822318	-0.069584
C	0.000000	0.000000	0.000000
S	0.686805	0.396760	1.580530
C	2.105095	1.215640	0.904911
C	0.864201	0.499140	-0.985400
C	2.007514	1.159347	-0.493528
H	0.660136	0.381296	-2.059934
H	2.770388	1.599875	-1.152593
H	2.867745	1.656053	1.556025
$end

$rem
JOBTYPE		SP
EXCHANGE	HF
CORRELATION	pRIMP2
BASIS		cc-pvtz
METHOD		rimp2
AUX_BASIS	rimp2-cc-pvtz
SOLVENT_METHOD	PCM
PURECART	11111
SYMMETRY	false
MEM_TOTAL	110000
SCF_CONVERGENCE = 6
THRESH=10
GUI = 2
$end



$solvent
dielectric 4.90
$end
--------------------------------------------------------------
 ----------------------------------------------------------------
             Standard Nuclear Orientation (Angstroms)
    I     Atom           X                Y                Z
 ----------------------------------------------------------------
    1      C      -0.0460700000    -6.7414040000    -0.2527670000
    2      C      -0.2729350000    -6.1556380000    -1.5386560000
    3      C       0.1417390000    -5.7914520000     0.8149660000
    4      C      -0.3210830000    -4.8037860000    -1.8130420000
    5      H      -0.4255920000    -6.8215180000    -2.4033180000
    6      C       0.0917790000    -4.3786380000     0.5275660000
    7      C      -0.1389090000    -3.8380320000    -0.7827690000
    8      C       0.2738080000    -3.4130620000     1.5566320000
    9      C      -0.1884830000    -2.4264730000    -1.0678680000
   10      C       0.2266100000    -2.0593480000     1.2854360000
   11      C       0.0000000000    -1.4782160000     0.0000000000
   12      H       0.3796570000    -1.3947830000     2.1510190000
   13      C       0.3904200000    -6.1879870000     2.2358910000
   14      C       0.5221250000    -3.7981640000     2.9655400000
   15      N       0.5627310000    -5.1700030000     3.2056000000
   16      C      -0.5702440000    -4.4249870000    -3.2257600000
   17      C      -0.4384070000    -2.0366270000    -2.4896460000
   18      N      -0.6104380000    -3.0491560000    -3.4596620000
   19      O       0.4555630000    -7.3531310000     2.6217680000
   20      O       0.6833730000    -2.9868540000     3.8746080000
   21      O      -0.7293670000    -5.2489460000    -4.1240590000
   22      O      -0.5086970000    -0.8788290000    -2.8965160000
   23      C       0.8069960000    -5.5637990000     4.5969100000
   24      H       0.8137170000    -6.6640850000     4.6416400000
   25      H       0.0136550000    -5.1471010000     5.2465670000
   26      H       1.7751590000    -5.1487850000     4.9367390000
   27      C      -0.8515720000    -2.5874870000    -4.8297290000
   28      H      -0.9642040000    -3.4833290000    -5.4623870000
   29      H      -0.0039560000    -1.9649720000    -5.1739140000
   30      H      -1.7643900000    -1.9629320000    -4.8633600000
   31      H      -0.0140940000    -7.8223180000    -0.0695840000
   32      C       0.0000000000     0.0000000000     0.0000000000
   33      S       0.6868050000     0.3967600000     1.5805300000
   34      C       2.1050950000     1.2156400000     0.9049110000
   35      C       0.8642010000     0.4991400000    -0.9854000000
   36      C       2.0075140000     1.1593470000    -0.4935280000
   37      H       0.6601360000     0.3812960000    -2.0599340000
   38      H       2.7703880000     1.5998750000    -1.1525930000
   39      H       2.8677450000     1.6560530000     1.5560250000
 ----------------------------------------------------------------
 Nuclear Repulsion Energy =        2535.14605758 hartrees
 There are       97 alpha and       97 beta electrons
 Requested basis set is cc-pVTZ
 There are 344 shells and 982 basis functions

 Total QAlloc Memory Limit 110000 MB
 Mega-Array Size       188 MB
 MEM_STATIC part       192 MB
 Discretize the solute cavity surface with Lebedev spheres
	Using 110 Lebedev grid points for each H atom
	Using 194 Lebedev grid points for other atoms
	Atomic van der Waals radii will be scaled by 1.20
 Remove points where switching function is < 1.0e-08
 Keep 2506 surface tesserae and discard 4052 interior tesserae
 Molecular Surface Area = 356.132 Angst**2
 Requested basis set is rimp2-cc-pVTZ
 There are 750 shells and 2588 basis functions
 A cutoff of  1.0D-10 yielded  32544 shell pairs
 There are    250154 function pairs (    324855 Cartesian)
 Smallest overlap matrix eigenvalue = 8.84E-06

 Q-Chem warning in module stvman/mkSTV.C, line 323:

 Overlap eigenvalue is smaller than square root of threshold
 Use THRESH >= 12 to get rid of this warning


 Scale SEOQF with 1.000000e-01/1.000000e-02/1.000000e-02

 Standard Electronic Orientation quadrupole field applied
 Nucleus-field energy     =     0.0000000127 hartrees
 Guess from superposition of atomic densities
 Warning:  Energy on first SCF cycle will be non-variational
 SAD guess density has 194.000000 electrons

 -----------------------------------------------------------------------
  General SCF calculation program by
  Eric Jon Sundstrom, Paul Horn, Yuezhi Mao, Dmitri Zuev, Alec White,
  David Stuck, Shaama M.S., Shane Yost, Joonho Lee, David Small,
  Daniel Levine, Susi Lehtola, Hugh Burton, Evgeny Epifanovsky,
  Bang C. Huynh
 -----------------------------------------------------------------------
 Hartree-Fock
 using 64 threads for integral computing
 -------------------------------------------------------
 OpenMP Integral computing Module                
 Release: version 1.0, May 2013, Q-Chem Inc. Pittsburgh 
 -------------------------------------------------------
 A restricted SCF calculation will be
 performed using DIIS
 SCF converges when DIIS error is below 1.0e-06
 ---------------------------------------
  Cycle       Energy         DIIS error
 ---------------------------------------
    1   -1581.6009580460      1.88e-02  
    2   -1570.0347689430      2.07e-03  
    3   -1570.3661911567      1.59e-03  
    4   -1570.5841979171      2.61e-04  
    5   -1570.5969441503      8.04e-05  
    6   -1570.5981913648      3.06e-05  
    7   -1570.5985153999      1.53e-05  
    8   -1570.5986245086      7.12e-06  
    9   -1570.5986454462      2.71e-06  
   10   -1570.5986497901      1.19e-06  
   11   -1570.5986506843      5.26e-07  Convergence criterion met
 ---------------------------------------
 SCF time:   CPU 6515.71s  wall 241.00s 

************** Final PCM Free Energy Summary **************
 G_electrostatic  =      -0.02249183 hartree =     -14.11383547 kcal/mol
 G_cavitation     =       0.00000000 hartree =       0.00000000 kcal/mol
 G_dispersion     =       0.00000000 hartree =       0.00000000 kcal/mol
 G_repulsion      =       0.00000000 hartree =       0.00000000 kcal/mol
 --------------------------------------------------
 Non-electrostatic Free Energy =       0.00000000 hartree =       0.00000000 kcal/mol
 Total                         =      -0.02249183 hartree =     -14.11383547 kcal/mol
 --------------------------------------------------
 SCF Energy (H0 + V/2)                       =   -1570.59865068 
 Solute Internal Energy (H0)                 =   -1570.57615886 
 Total Free Energy (H0 + V/2 + non-elec)     =   -1570.59865068 hartree
                                             = -985565.52844423 kcal/mol
***********************************************************

 SCF   energy in the final basis set =    -1570.5986506843
 Total energy in the final basis set =    -1570.5986506843


 --------------------------------------------------------------
  Generalized many-body perturbation theory program
  by Joonho Lee, Fazle Rob, Xintian Feng, Evgeny Epifanovsky

 No regularization used 
 (reg. param. = 0.0000e+00)
  (P|Q)^-1/2 Time:  CPU 102.57 s  wall 1.62 s

 In RI-MP2 calculation: 
 # of frozen core orbitals: 31

 Components of the RIMP2 correlation energy:
        aaaa    correlation energy =        -0.6209087010 a.u.
        abab    correlation energy =        -3.4011285686 a.u.
        bbbb    correlation energy =        -0.6209087010 a.u.
        non-Brillouin singles      =        -0.0000000000 a.u.
        total same-spin energy     =        -1.2418174020 a.u.
        total opposite-spin energy =        -3.4011285686 a.u.

 Total  RIMP2   correlation energy =        -4.6429459705 a.u.
        RIMP2         total energy =     -1575.2415966548 a.u.

 RI-MP2 Energy Time:  CPU 1861.75 s  wall 30.25 s
 
 --------------------------------------------------------------
 
                    Orbital Energies (a.u.)
 --------------------------------------------------------------
 
 Alpha MOs
 -- Occupied --
-91.9924 -20.5572 -20.5554 -20.5515 -20.5498 -15.6297 -15.6272 -11.3980
-11.3919 -11.3890 -11.3877 -11.3208 -11.3152 -11.2988 -11.2955 -11.2871
-11.2870 -11.2835 -11.2828 -11.2789 -11.2772 -11.2751 -11.2728 -11.2646
-11.2638 -11.2631 -11.2534  -8.9945  -6.6751  -6.6741  -6.6739  -1.4235
 -1.4221  -1.4030  -1.4007  -1.2655  -1.2624  -1.2179  -1.1916  -1.1394
 -1.1112  -1.0634  -1.0462  -1.0027  -0.9928  -0.9894  -0.9564  -0.9434
 -0.8941  -0.8761  -0.8742  -0.8573  -0.8004  -0.7803  -0.7701  -0.7662
 -0.7327  -0.7246  -0.7007  -0.6937  -0.6800  -0.6737  -0.6644  -0.6603
 -0.6535  -0.6427  -0.6346  -0.6324  -0.6243  -0.6123  -0.5930  -0.5875
 -0.5818  -0.5783  -0.5679  -0.5621  -0.5609  -0.5554  -0.5519  -0.5458
 -0.5392  -0.5236  -0.5225  -0.4995  -0.4795  -0.4637  -0.4587  -0.4571
 -0.4541  -0.4487  -0.4262  -0.4172  -0.4077  -0.3770  -0.3532  -0.3303
 -0.2991
 -- Virtual --
 -0.0117   0.0431   0.0697   0.0926   0.1214   0.1506   0.1562   0.1591
  0.1681   0.1689   0.1785   0.1827   0.1885   0.1938   0.2084   0.2128
  0.2207   0.2280   0.2287   0.2352   0.2480   0.2532   0.2615   0.2659
  0.2674   0.2937   0.3061   0.3173   0.3202   0.3254   0.3359   0.3427
  0.3473   0.3520   0.3555   0.3574   0.3599   0.3652   0.3672   0.3747
  0.3793   0.3805   0.3864   0.3919   0.4020   0.4060   0.4108   0.4118
  0.4159   0.4226   0.4294   0.4323   0.4399   0.4463   0.4521   0.4566
  0.4587   0.4687   0.4730   0.4749   0.4820   0.4837   0.4899   0.4913
  0.4970   0.5016   0.5134   0.5162   0.5202   0.5219   0.5299   0.5309
  0.5330   0.5435   0.5467   0.5520   0.5537   0.5560   0.5610   0.5681
  0.5729   0.5776   0.5840   0.5871   0.5919   0.5938   0.6000   0.6006
  0.6083   0.6120   0.6140   0.6157   0.6219   0.6250   0.6313   0.6345
  0.6373   0.6398   0.6427   0.6471   0.6522   0.6546   0.6634   0.6771
  0.6821   0.6908   0.6968   0.6997   0.7042   0.7067   0.7152   0.7257
  0.7306   0.7351   0.7440   0.7476   0.7490   0.7581   0.7630   0.7685
  0.7798   0.7856   0.7881   0.7975   0.8004   0.8072   0.8132   0.8230
  0.8298   0.8358   0.8387   0.8471   0.8484   0.8538   0.8582   0.8636
  0.8669   0.8680   0.8716   0.8760   0.8805   0.8885   0.8992   0.9056
  0.9109   0.9204   0.9206   0.9277   0.9301   0.9427   0.9462   0.9500
  0.9557   0.9579   0.9606   0.9723   0.9782   0.9795   0.9879   0.9928
  0.9989   1.0032   1.0061   1.0086   1.0118   1.0176   1.0267   1.0323
  1.0389   1.0452   1.0526   1.0644   1.0688   1.0723   1.0734   1.0780
  1.0822   1.0840   1.0911   1.0920   1.0998   1.1062   1.1106   1.1203
  1.1311   1.1335   1.1408   1.1429   1.1515   1.1566   1.1613   1.1664
  1.1701   1.1725   1.1784   1.1804   1.1832   1.1949   1.2009   1.2027
  1.2075   1.2125   1.2151   1.2257   1.2285   1.2315   1.2433   1.2505
  1.2517   1.2541   1.2571   1.2618   1.2692   1.2880   1.2945   1.3042
  1.3177   1.3224   1.3325   1.3344   1.3396   1.3418   1.3518   1.3589
  1.3713   1.3749   1.3832   1.3868   1.3890   1.4043   1.4149   1.4216
  1.4236   1.4280   1.4330   1.4429   1.4468   1.4549   1.4608   1.4767
  1.4804   1.4842   1.4893   1.4950   1.5022   1.5090   1.5156   1.5175
  1.5294   1.5311   1.5348   1.5448   1.5566   1.5601   1.5651   1.5686
  1.5768   1.5815   1.5845   1.5917   1.6067   1.6181   1.6275   1.6346
  1.6412   1.6527   1.6618   1.6653   1.6704   1.6783   1.6862   1.6946
  1.6987   1.7174   1.7233   1.7266   1.7366   1.7445   1.7479   1.7532
  1.7573   1.7730   1.7783   1.7803   1.7973   1.8029   1.8111   1.8150
  1.8175   1.8324   1.8455   1.8471   1.8500   1.8598   1.8645   1.8691
  1.8781   1.8878   1.8968   1.9149   1.9183   1.9253   1.9449   1.9603
  1.9652   1.9742   1.9790   1.9967   2.0105   2.0248   2.0278   2.0412
  2.0589   2.0655   2.0689   2.0957   2.0991   2.1129   2.1269   2.1352
  2.1420   2.1556   2.1762   2.1867   2.1910   2.2138   2.2194   2.2415
  2.2444   2.2581   2.2675   2.2730   2.2869   2.2936   2.3020   2.3177
  2.3287   2.3355   2.3478   2.3553   2.3637   2.3692   2.3788   2.4013
  2.4153   2.4307   2.4402   2.4478   2.4561   2.4574   2.4697   2.4858
  2.4889   2.5016   2.5052   2.5152   2.5205   2.5264   2.5329   2.5515
  2.5569   2.5674   2.5790   2.5944   2.5995   2.6047   2.6097   2.6158
  2.6240   2.6329   2.6420   2.6465   2.6601   2.6669   2.6732   2.6780
  2.6899   2.6952   2.6966   2.7076   2.7128   2.7207   2.7246   2.7269
  2.7447   2.7509   2.7528   2.7620   2.7743   2.7771   2.7944   2.8101
  2.8158   2.8302   2.8362   2.8430   2.8477   2.8599   2.8650   2.8673
  2.8715   2.8802   2.8868   2.8926   2.8980   2.9063   2.9104   2.9197
  2.9268   2.9308   2.9435   2.9510   2.9560   2.9691   2.9715   2.9812
  2.9858   2.9883   2.9957   3.0022   3.0061   3.0086   3.0176   3.0204
  3.0329   3.0394   3.0440   3.0516   3.0552   3.0721   3.0784   3.0851
  3.0943   3.0992   3.1035   3.1135   3.1183   3.1224   3.1251   3.1298
  3.1361   3.1415   3.1472   3.1587   3.1672   3.1740   3.1807   3.1835
  3.1996   3.2012   3.2055   3.2097   3.2146   3.2214   3.2227   3.2315
  3.2323   3.2382   3.2444   3.2523   3.2563   3.2578   3.2625   3.2661
  3.2709   3.2754   3.2815   3.2876   3.2929   3.2945   3.3007   3.3048
  3.3068   3.3129   3.3230   3.3253   3.3289   3.3318   3.3350   3.3399
  3.3488   3.3540   3.3570   3.3580   3.3625   3.3718   3.3724   3.3743
  3.3791   3.3866   3.3931   3.3967   3.3983   3.4036   3.4130   3.4172
  3.4302   3.4317   3.4370   3.4414   3.4504   3.4546   3.4572   3.4631
  3.4662   3.4706   3.4727   3.4837   3.4884   3.4931   3.4951   3.4996
  3.5004   3.5077   3.5137   3.5167   3.5209   3.5248   3.5308   3.5370
  3.5422   3.5544   3.5566   3.5692   3.5717   3.5787   3.5830   3.5926
  3.5962   3.6040   3.6115   3.6215   3.6258   3.6299   3.6320   3.6343
  3.6432   3.6441   3.6495   3.6561   3.6634   3.6716   3.6758   3.6785
  3.6966   3.7029   3.7084   3.7117   3.7157   3.7200   3.7252   3.7329
  3.7390   3.7429   3.7483   3.7586   3.7630   3.7673   3.7745   3.7756
  3.7848   3.7887   3.7959   3.7982   3.8015   3.8045   3.8105   3.8140
  3.8224   3.8306   3.8373   3.8528   3.8556   3.8638   3.8698   3.8710
  3.8790   3.8817   3.8924   3.9009   3.9075   3.9140   3.9209   3.9267
  3.9407   3.9421   3.9521   3.9523   3.9613   3.9665   3.9820   3.9865
  4.0099   4.0154   4.0204   4.0217   4.0278   4.0334   4.0457   4.0505
  4.0657   4.0754   4.0790   4.0827   4.0980   4.1013   4.1102   4.1195
  4.1286   4.1390   4.1507   4.1579   4.1588   4.1634   4.1698   4.1819
  4.1873   4.1919   4.2099   4.2113   4.2140   4.2294   4.2432   4.2570
  4.2625   4.2698   4.2779   4.2790   4.2876   4.2942   4.3020   4.3025
  4.3042   4.3085   4.3151   4.3250   4.3287   4.3424   4.3451   4.3496
  4.3594   4.3600   4.3666   4.3715   4.3744   4.3796   4.3884   4.3918
  4.3945   4.4081   4.4133   4.4218   4.4263   4.4321   4.4434   4.4528
  4.4641   4.4746   4.4763   4.4955   4.5054   4.5118   4.5188   4.5265
  4.5284   4.5388   4.5445   4.5538   4.5583   4.5683   4.5748   4.5798
  4.5844   4.5940   4.5975   4.6076   4.6087   4.6235   4.6297   4.6371
  4.6398   4.6505   4.6573   4.6718   4.6820   4.6843   4.6864   4.7084
  4.7162   4.7306   4.7418   4.7648   4.7695   4.7862   4.7920   4.8052
  4.8168   4.8256   4.8461   4.8510   4.8633   4.8725   4.8795   4.8882
  4.8922   4.8969   4.9268   4.9455   4.9583   4.9587   4.9800   4.9851
  5.0046   5.0110   5.0279   5.0368   5.0501   5.0569   5.0587   5.0823
  5.0944   5.1019   5.1184   5.1251   5.1278   5.1315   5.1480   5.1642
  5.1681   5.1820   5.1873   5.2007   5.2101   5.2260   5.2465   5.2590
  5.2633   5.2788   5.2866   5.2953   5.3071   5.3248   5.3366   5.3400
  5.3509   5.3977   5.4006   5.4070   5.4218   5.4367   5.4468   5.4622
  5.4718   5.5061   5.5099   5.5149   5.5179   5.5288   5.5420   5.5581
  5.5604   5.5653   5.5687   5.5776   5.5808   5.5963   5.5992   5.6147
  5.6262   5.6419   5.6540   5.6586   5.6678   5.6727   5.6781   5.6910
  5.7096   5.7180   5.7207   5.7356   5.7469   5.7622   5.7687   5.7768
  5.7860   5.7980   5.8153   5.8280   5.8598   5.8755   5.9048   5.9416
  5.9492   5.9595   5.9861   6.0247   6.0252   6.0299   6.0446   6.0719
  6.0863   6.0943   6.1058   6.1332   6.1373   6.1677   6.1904   6.2098
  6.2187   6.2236   6.2299   6.2600   6.2715   6.2812   6.3053   6.3470
  6.3553   6.3754   6.3948   6.4504   6.4709   6.5333   6.5443   6.5638
  6.5797   6.5891   6.6144   6.6504   6.6591   6.6642   6.7107   6.8347
  6.8426   6.8861   6.8874   6.9019   6.9126   6.9319   7.0759   7.0836
  7.1339   7.1481   7.1905   7.2055   7.2387   7.3339   7.3451   7.3469
  7.3933   7.4709   7.5498   7.5607   7.5779   7.5832   7.6263   7.6363
  7.6862   7.7057   7.7399   8.4703   9.9499  10.3781  11.1027  11.2436
 11.7263  11.8085  12.1416  12.3882  12.4887  12.7176  12.8674  13.1820
 13.2989  13.5886  13.8201  13.9508  14.0350  14.1423  14.2112  14.3531
 14.4192  14.7575  15.3309  15.7416  16.0636
 --------------------------------------------------------------
 
          Ground-State Mulliken Net Atomic Charges

     Atom                 Charge (a.u.)
  ----------------------------------------
      1 C                    -0.162639
      2 C                    -0.110492
      3 C                    -0.020291
      4 C                    -0.005137
      5 H                     0.186320
      6 C                    -0.023762
      7 C                     0.069523
      8 C                     0.070922
      9 C                    -0.107923
     10 C                    -0.176989
     11 C                     0.060546
     12 H                     0.178489
     13 C                     0.357657
     14 C                     0.363421
     15 N                    -0.100588
     16 C                     0.354677
     17 C                     0.386240
     18 N                    -0.092646
     19 O                    -0.464858
     20 O                    -0.480284
     21 O                    -0.487995
     22 O                    -0.494679
     23 C                    -0.201699
     24 H                     0.141003
     25 H                     0.112089
     26 H                     0.111594
     27 C                    -0.198767
     28 H                     0.133681
     29 H                     0.110816
     30 H                     0.112285
     31 H                     0.209973
     32 C                    -0.101548
     33 S                     0.037898
     34 C                    -0.112222
     35 C                    -0.041933
     36 C                    -0.269900
     37 H                     0.241182
     38 H                     0.194719
     39 H                     0.221318
  ----------------------------------------
  Sum of atomic charges =     0.000000

 -----------------------------------------------------------------
                    Cartesian Multipole Moments
 -----------------------------------------------------------------
    Charge (ESU x 10^10)
                 0.0000
    Dipole Moment (Debye)
         X       3.4831      Y       3.0499      Z      -0.0738
       Tot       4.6302
    Quadrupole Moments (Debye-Ang)
        XX    -154.2336     XY       5.5626     YY    -184.6727
        XZ      -2.5698     YZ      -1.2369     ZZ    -178.2862
    Octopole Moments (Debye-Ang^2)
       XXX     -84.7374    XXY     513.1011    XYY     -27.5495
       YYY    1705.3844    XXZ       8.9139    XYZ      19.9022
       YYZ       5.8282    XZZ     -23.5304    YZZ     586.2852
       ZZZ       9.5736
    Hexadecapole Moments (Debye-Ang^3)
      XXXX    -682.2758   XXXY      -6.0105   XXYY   -2716.0203
      XYYY      17.4908   YYYY  -17356.6256   XXXZ    -507.8701
      XXYZ     108.7111   XYYZ    -276.9854   YYYZ     702.3282
      XXZZ   -1108.0091   XYZZ     -64.7622   YYZZ   -4212.7059
      XZZZ    -581.5854   YZZZ     -44.7061   ZZZZ   -6311.7012
 -----------------------------------------------------------------
 Total job time:  295.14s(wall), 9575.37s(cpu) 
 Fri Dec 15 16:17:31 2023

        *************************************************************
        *                                                           *
        *  Thank you very much for using Q-Chem.  Have a nice day.  *
        *                                                           *
        *************************************************************


0 sent ACK to 0 
now end server 0 ... 
cleanup process ... done
remove work dirs ./qchem218327.0 -- ./qchem218327.0
rm -rf ./qchem218327.0
rm -rf ./qchem218327
