You are running Q-Chem version: 5.4.0

#
# job setting
#
local host:  exp-2-40
current dir: /home/rramji/project-csd799/aromodel/pndit-qchem/rotation_run
input file:  Dimethyl_Naphthalene_Dicarboximide_Phi_25_Theta_0_Thiophene.qcin
output file: 
nprocs     : 1
nthreads   : 64
#
# qchem installation setting
#
QC:          /cm/shared/apps/spack/cpu/opt/spack/linux-centos8-zen2/gcc-10.2.0/qchem-5.4-akfmr7b3t57bfs6qan3padb2wnb2i7cl
QCAUX:       /cm/shared/apps/spack/cpu/opt/spack/linux-centos8-zen2/gcc-10.2.0/qchem-5.4-akfmr7b3t57bfs6qan3padb2wnb2i7cl/qcaux
QCPROG:      /cm/shared/apps/spack/cpu/opt/spack/linux-centos8-zen2/gcc-10.2.0/qchem-5.4-akfmr7b3t57bfs6qan3padb2wnb2i7cl/exe/qcprog.exe
QCPROG_S:    /cm/shared/apps/spack/cpu/opt/spack/linux-centos8-zen2/gcc-10.2.0/qchem-5.4-akfmr7b3t57bfs6qan3padb2wnb2i7cl/exe/qcprog.exe_s
PARALLEL:    -DPARALLEL
QCMPI:       mpich
#
# qchem directory setting
#
qcrun:       qchem723617
QCSCRATCH:   .
QCLOCALSCR:  
QCTMPDIR:    .
QCFILEPREF:  ./qchem723617
QCSAVEDIR:   
workdirs:    ./qchem723617
workdir0:    ./qchem723617
partmpdirs =  
#
# parallel setting
#
QCRSH:           ssh
QCMPI:           mpich
QCMPIRUN:        /cm/shared/apps/spack/cpu/opt/spack/linux-centos8-zen2/gcc-10.2.0/qchem-5.4-akfmr7b3t57bfs6qan3padb2wnb2i7cl/bin/mpi/mpirun_qchem
QCMACHINEFILE:   ./qchem723617/hostfile
exp-2-40

#
# env setting
#
exported envs:   QC QCAUX QCSCRATCH QCRUNNAME QCFILEPREF QCPROG QCPROG_S GUIFILE

Running Job 1 of 1 Dimethyl_Naphthalene_Dicarboximide_Phi_25_Theta_0_Thiophene.qcin
qchem Dimethyl_Naphthalene_Dicarboximide_Phi_25_Theta_0_Thiophene.qcin_723617.0 ./qchem723617/ 1
/cm/shared/apps/spack/cpu/opt/spack/linux-centos8-zen2/gcc-10.2.0/qchem-5.4-akfmr7b3t57bfs6qan3padb2wnb2i7cl/bin/mpi/mpirun_qchem -machinefile ./qchem723617/hostfile -np 1 /cm/shared/apps/spack/cpu/opt/spack/linux-centos8-zen2/gcc-10.2.0/qchem-5.4-akfmr7b3t57bfs6qan3padb2wnb2i7cl/exe/qcprog.exe Dimethyl_Naphthalene_Dicarboximide_Phi_25_Theta_0_Thiophene.qcin_723617.0 ./qchem723617/

Process 0 of 1 is on exp-2-40 - thread support 0
initial socket setup ...start
initial socket setup ...done 
now start server 0 ... 
                  Welcome to Q-Chem
     A Quantum Leap Into The Future Of Chemistry


 Q-Chem 5.4, Q-Chem, Inc., Pleasanton, CA (2021)

 License issued to: University of California, San Diego (site)

 E. Epifanovsky,  A. T. B. Gilbert,  Xintian Feng,  Joonho Lee,  Yuezhi Mao,  
 N. Mardirossian,  P. Pokhilko,  A. White,  M. Wormit,  M. P. Coons,  
 A. L. Dempwolff,  Zhengting Gan,  D. Hait,  P. R. Horn,  L. D. Jacobson,  
 I. Kaliman,  J. Kussmann,  A. W. Lange,  Ka Un Lao,  D. S. Levine,  Jie Liu,  
 S. C. McKenzie,  A. F. Morrison,  K. Nanda,  F. Plasser,  D. R. Rehn,  
 M. L. Vidal,  Zhi-Qiang You,  Ying Zhu,  B. Alam,  B. Albrecht,  
 A. Aldossary,  E. Alguire,  J. H. Andersen,  D. Barton,  K. Begam,  A. Behn,  
 Y. A. Bernard,  E. J. Berquist,  H. Burton,  A. Carreras,  K. Carter-Fenk,  
 R. Chakraborty,  A. D. Chien,  K. D. Closser,  V. Cofer-Shabica,  
 S. Dasgupta,  Jia Deng,  M. de Wergifosse,  M. Diedenhofen,  Hainam Do,  
 S. Ehlert,  Po-Tung Fang,  S. Fatehi,  Qingguo Feng,  J. Gayvert,  
 Qinghui Ge,  G. Gidofalvi,  M. Goldey,  J. Gomes,  C. Gonzalez-Espinoza,  
 S. Gulania,  A. Gunina,  M. W. D. Hanson-Heine,  P. H. P. Harbach,  
 A. W. Hauser,  M. F. Herbst,  M. Hernandez Vera,  M. Hodecker,  
 Z. C. Holden,  S. Houck,  Xunkun Huang,  Kerwin Hui,  B. C. Huynh,  
 M. Ivanov,  Hyunjun Ji,  Hanjie Jiang,  B. Kaduk,  S. Kaehler,  
 K. Khistyaev,  Jaehoon Kim,  P. Klunzinger,  Z. Koczor-Benda,  
 Joong Hoon Koh,  D. Kosenkov,  L. Koulias,  T. Kowalczyk,  C. M. Krauter,  
 K. Kue,  A. Kunitsa,  T. Kus,  A. Landau,  K. V. Lawler,  D. Lefrancois,  
 S. Lehtola,  Rain Li,  Yi-Pei Li,  Jiashu Liang,  M. Liebenthal,  
 Hung-Hsuan Lin,  You-Sheng Lin,  Fenglai Liu,  Kuan-Yu Liu,  
 M. Loipersberger,  A. Luenser,  A. Manjanath,  P. Manohar,  E. Mansoor,  
 S. F. Manzer,  Shan-Ping Mao,  A. V. Marenich,  T. Markovich,  S. Mason,  
 S. A. Maurer,  P. F. McLaughlin,  M. F. S. J. Menger,  J.-M. Mewes,  
 S. A. Mewes,  P. Morgante,  J. W. Mullinax,  T. S. Nguyen-Beck,  
 K. J. Oosterbaan,  G. Paran,  Alexander C. Paul,  Suranjan K. Paul,  
 F. Pavosevic,  Zheng Pei,  S. Prager,  E. I. Proynov,  E. Ramos,  B. Rana,  
 A. E. Rask,  A. Rettig,  R. M. Richard,  F. Rob,  E. Rossomme,  T. Scheele,  
 M. Scheurer,  M. Schneider,  N. Sergueev,  S. M. Sharada,  W. Skomorowski,  
 D. W. Small,  C. J. Stein,  Yu-Chuan Su,  E. J. Sundstrom,  Zhen Tao,  
 J. Thirman,  T. Tsuchimochi,  N. M. Tubman,  S. P. Veccham,  O. Vydrov,  
 J. Wenzel,  J. Witte,  A. Yamada,  Kun Yao,  S. Yeganeh,  S. R. Yost,  
 A. Zech,  Igor Ying Zhang,  Xing Zhang,  Yu Zhang,  D. Zuev,  
 A. Aspuru-Guzik,  A. T. Bell,  N. A. Besley,  K. B. Bravaya,  B. R. Brooks,  
 D. Casanova,  Jeng-Da Chai,  S. Coriani,  C. J. Cramer,  
 A. E. DePrince, III,  R. A. DiStasio Jr.,  A. Dreuw,  B. D. Dunietz,  
 T. R. Furlani,  W. A. Goddard III,  S. Grimme,  S. Hammes-Schiffer,  
 T. Head-Gordon,  W. J. Hehre,  Chao-Ping Hsu,  T.-C. Jagau,  Yousung Jung,  
 A. Klamt,  Jing Kong,  D. S. Lambrecht,  WanZhen Liang,  N. J. Mayhall,  
 C. W. McCurdy,  J. B. Neaton,  C. Ochsenfeld,  J. A. Parkhill,  R. Peverati,  
 V. A. Rassolov,  Yihan Shao,  L. V. Slipchenko,  T. Stauch,  R. P. Steele,  
 J. E. Subotnik,  A. J. W. Thom,  A. Tkatchenko,  D. G. Truhlar,  
 T. Van Voorhis,  T. A. Wesolowski,  K. B. Whaley,  H. L. Woodcock III,  
 P. M. Zimmerman,  S. Faraji,  P. M. W. Gill,  M. Head-Gordon,  
 J. M. Herbert,  A. I. Krylov

 Contributors to earlier versions of Q-Chem not listed above: 
 R. D. Adamson,  B. Austin,  R. Baer,  J. Baker,  G. J. O. Beran,  
 K. Brandhorst,  S. T. Brown,  E. F. C. Byrd,  A. K. Chakraborty,  
 G. K. L. Chan,  Chun-Min Chang,  Yunqing Chen,  C.-L. Cheng,  
 Siu Hung Chien,  D. M. Chipman,  D. L. Crittenden,  H. Dachsel,  
 R. J. Doerksen,  A. D. Dutoi,  R. G. Edgar,  J. Fosso-Tande,  
 L. Fusti-Molnar,  D. Ghosh,  A. Ghysels,  A. Golubeva-Zadorozhnaya,  
 J. Gonthier,  M. S. Gordon,  S. R. Gwaltney,  G. Hawkins,  J. E. Herr,  
 A. Heyden,  S. Hirata,  E. G. Hohenstein,  G. Kedziora,  F. J. Keil,  
 C. Kelley,  Jihan Kim,  R. A. King,  R. Z. Khaliullin,  P. P. Korambath,  
 W. Kurlancheek,  A. Laurent,  A. M. Lee,  M. S. Lee,  S. V. Levchenko,  
 Ching Yeh Lin,  D. Liotard,  E. Livshits,  R. C. Lochan,  I. Lotan,  
 L. A. Martinez-Martinez,  P. E. Maslen,  N. Nair,  D. P. O'Neill,  
 D. Neuhauser,  E. Neuscamman,  C. M. Oana,  R. Olivares-Amaya,  R. Olson,  
 T. M. Perrine,  B. Peters,  P. A. Pieniazek,  A. Prociuk,  Y. M. Rhee,  
 J. Ritchie,  M. A. Rohrdanz,  E. Rosta,  N. J. Russ,  H. F. Schaefer III,  
 M. W. Schmidt,  N. E. Schultz,  S. Sharma,  N. Shenvi,  C. D. Sherrill,  
 A. C. Simmonett,  A. Sodt,  T. Stein,  D. Stuck,  K. S. Thanthiriwatte,  
 V. Vanovschi,  L. Vogt,  Tao Wang,  A. Warshel,  M. A. Watson,  
 C. F. Williams,  Q. Wu,  X. Xu,  Jun Yang,  W. Zhang,  Yan Zhao

 Please cite Q-Chem as follows:
 Y. Shao et al., Mol. Phys. 113, 184-215 (2015)
 DOI: 10.1080/00268976.2014.952696

 Q-Chem 5.4.0 for Intel X86 EM64T Linux

 Parts of Q-Chem use Armadillo 9.800.1 (Horizon Scraper).
 http://arma.sourceforge.net/

 Q-Chem begins on Fri Dec 15 13:28:11 2023  

 Host: 
0

     Scratch files written to ./qchem723617//
 May1621 |scratch|qcdevops|jenkins|workspace|build_RNUM    
 Parallel job on  1  processors
 Processing $rem in /cm/shared/apps/spack/cpu/opt/spack/linux-centos8-zen2/gcc-10.2.0/qchem-5.4-akfmr7b3t57bfs6qan3padb2wnb2i7cl/config/preferences:
 Processing $rem in /home/rramji/.qchemrc:
 Symmetry turned off for PCM/SM12/SMD calculation
 Core orbitals will be frozen

 Checking the input file for inconsistencies... 	...done.

 Q-Chem warning in module forms1/BasisType.C, line 2236:

 You are not using the predefined 5D/6D in this basis set.


--------------------------------------------------------------
User input:
--------------------------------------------------------------
$molecule
0 1
C	0.586080	-6.715879	-0.256927
C	0.534902	-6.132354	-1.562675
C	0.502834	-5.769583	0.827197
C	0.417309	-4.785626	-1.841253
H	0.592747	-6.795716	-2.440709
C	0.380402	-4.362083	0.535488
C	0.333638	-3.823504	-0.794999
C	0.296812	-3.400131	1.580529
C	0.211295	-2.417255	-1.084374
C	0.179438	-2.051515	1.305258
C	0.128835	-1.472591	-0.000000
H	0.121931	-1.389444	2.184267
C	0.535563	-6.164769	2.269719
C	0.330267	-3.783778	3.011152
N	0.448140	-5.150545	3.254617
C	0.384235	-4.408274	-3.275775
C	0.178078	-2.028827	-2.527951
N	0.265353	-3.037588	-3.513104
O	0.634270	-7.325728	2.661046
O	0.260493	-2.975473	3.934410
O	0.455333	-5.229160	-4.188059
O	0.078594	-0.875310	-2.940845
C	0.481421	-5.542933	4.667206
H	0.576173	-6.639132	4.712423
H	-0.445595	-5.205747	5.169231
H	1.336290	-5.051542	5.169992
C	0.225553	-2.577637	-4.904229
H	0.302574	-3.470163	-5.546833
H	1.062399	-1.879530	-5.095998
H	-0.718592	-2.033299	-5.095858
H	0.679970	-7.792708	-0.070974
C	0.000000	0.000000	0.000000
S	0.271091	0.745405	1.580530
C	0.831198	2.284363	0.904911
C	0.341175	0.937861	-0.985400
C	0.792631	2.178516	-0.493528
H	0.260601	0.716417	-2.059934
H	1.093860	3.006347	-1.152593
H	1.132330	3.111961	1.556025
$end

$rem
JOBTYPE		SP
EXCHANGE	HF
CORRELATION	pRIMP2
BASIS		cc-pvtz
METHOD		rimp2
AUX_BASIS	rimp2-cc-pvtz
SOLVENT_METHOD	PCM
PURECART	11111
SYMMETRY	false
MEM_TOTAL	110000
SCF_CONVERGENCE = 6
THRESH=10
GUI = 2
$end



$solvent
dielectric 4.90
$end
--------------------------------------------------------------
 ----------------------------------------------------------------
             Standard Nuclear Orientation (Angstroms)
    I     Atom           X                Y                Z
 ----------------------------------------------------------------
    1      C       0.5860800000    -6.7158790000    -0.2569270000
    2      C       0.5349020000    -6.1323540000    -1.5626750000
    3      C       0.5028340000    -5.7695830000     0.8271970000
    4      C       0.4173090000    -4.7856260000    -1.8412530000
    5      H       0.5927470000    -6.7957160000    -2.4407090000
    6      C       0.3804020000    -4.3620830000     0.5354880000
    7      C       0.3336380000    -3.8235040000    -0.7949990000
    8      C       0.2968120000    -3.4001310000     1.5805290000
    9      C       0.2112950000    -2.4172550000    -1.0843740000
   10      C       0.1794380000    -2.0515150000     1.3052580000
   11      C       0.1288350000    -1.4725910000     0.0000000000
   12      H       0.1219310000    -1.3894440000     2.1842670000
   13      C       0.5355630000    -6.1647690000     2.2697190000
   14      C       0.3302670000    -3.7837780000     3.0111520000
   15      N       0.4481400000    -5.1505450000     3.2546170000
   16      C       0.3842350000    -4.4082740000    -3.2757750000
   17      C       0.1780780000    -2.0288270000    -2.5279510000
   18      N       0.2653530000    -3.0375880000    -3.5131040000
   19      O       0.6342700000    -7.3257280000     2.6610460000
   20      O       0.2604930000    -2.9754730000     3.9344100000
   21      O       0.4553330000    -5.2291600000    -4.1880590000
   22      O       0.0785940000    -0.8753100000    -2.9408450000
   23      C       0.4814210000    -5.5429330000     4.6672060000
   24      H       0.5761730000    -6.6391320000     4.7124230000
   25      H      -0.4455950000    -5.2057470000     5.1692310000
   26      H       1.3362900000    -5.0515420000     5.1699920000
   27      C       0.2255530000    -2.5776370000    -4.9042290000
   28      H       0.3025740000    -3.4701630000    -5.5468330000
   29      H       1.0623990000    -1.8795300000    -5.0959980000
   30      H      -0.7185920000    -2.0332990000    -5.0958580000
   31      H       0.6799700000    -7.7927080000    -0.0709740000
   32      C       0.0000000000     0.0000000000     0.0000000000
   33      S       0.2710910000     0.7454050000     1.5805300000
   34      C       0.8311980000     2.2843630000     0.9049110000
   35      C       0.3411750000     0.9378610000    -0.9854000000
   36      C       0.7926310000     2.1785160000    -0.4935280000
   37      H       0.2606010000     0.7164170000    -2.0599340000
   38      H       1.0938600000     3.0063470000    -1.1525930000
   39      H       1.1323300000     3.1119610000     1.5560250000
 ----------------------------------------------------------------
 Nuclear Repulsion Energy =        2503.58441669 hartrees
 There are       97 alpha and       97 beta electrons
 Requested basis set is cc-pVTZ
 There are 344 shells and 982 basis functions

 Total QAlloc Memory Limit 110000 MB
 Mega-Array Size       188 MB
 MEM_STATIC part       192 MB
 Discretize the solute cavity surface with Lebedev spheres
	Using 110 Lebedev grid points for each H atom
	Using 194 Lebedev grid points for other atoms
	Atomic van der Waals radii will be scaled by 1.20
 Remove points where switching function is < 1.0e-08
 Keep 2498 surface tesserae and discard 4060 interior tesserae
 Molecular Surface Area = 360.932 Angst**2
 Requested basis set is rimp2-cc-pVTZ
 There are 750 shells and 2588 basis functions
 A cutoff of  1.0D-10 yielded  31853 shell pairs
 There are    245249 function pairs (    318678 Cartesian)
 Smallest overlap matrix eigenvalue = 9.78E-06

 Q-Chem warning in module stvman/mkSTV.C, line 323:

 Overlap eigenvalue is smaller than square root of threshold
 Use THRESH >= 12 to get rid of this warning


 Scale SEOQF with 1.000000e+00/1.000000e-02/1.000000e-02

 Standard Electronic Orientation quadrupole field applied
 Nucleus-field energy     =     0.0000000222 hartrees
 Guess from superposition of atomic densities
 Warning:  Energy on first SCF cycle will be non-variational
 SAD guess density has 194.000000 electrons

 -----------------------------------------------------------------------
  General SCF calculation program by
  Eric Jon Sundstrom, Paul Horn, Yuezhi Mao, Dmitri Zuev, Alec White,
  David Stuck, Shaama M.S., Shane Yost, Joonho Lee, David Small,
  Daniel Levine, Susi Lehtola, Hugh Burton, Evgeny Epifanovsky,
  Bang C. Huynh
 -----------------------------------------------------------------------
 Hartree-Fock
 using 64 threads for integral computing
 -------------------------------------------------------
 OpenMP Integral computing Module                
 Release: version 1.0, May 2013, Q-Chem Inc. Pittsburgh 
 -------------------------------------------------------
 A restricted SCF calculation will be
 performed using DIIS
 SCF converges when DIIS error is below 1.0e-06
 ---------------------------------------
  Cycle       Energy         DIIS error
 ---------------------------------------
    1   -1581.4270920915      1.87e-02  
    2   -1570.1049547710      2.08e-03  
    3   -1570.4348712947      1.60e-03  
    4   -1570.6582908024      2.59e-04  
    5   -1570.6706216420      7.80e-05  
    6   -1570.6717579536      2.89e-05  
    7   -1570.6720273748      1.44e-05  
    8   -1570.6721122764      6.14e-06  
    9   -1570.6721260408      2.35e-06  
   10   -1570.6721285636      9.00e-07  Convergence criterion met
 ---------------------------------------
 SCF time:   CPU 6088.74s  wall 221.00s 

************** Final PCM Free Energy Summary **************
 G_electrostatic  =      -0.02085737 hartree =     -13.08819695 kcal/mol
 G_cavitation     =       0.00000000 hartree =       0.00000000 kcal/mol
 G_dispersion     =       0.00000000 hartree =       0.00000000 kcal/mol
 G_repulsion      =       0.00000000 hartree =       0.00000000 kcal/mol
 --------------------------------------------------
 Non-electrostatic Free Energy =       0.00000000 hartree =       0.00000000 kcal/mol
 Total                         =      -0.02085737 hartree =     -13.08819695 kcal/mol
 --------------------------------------------------
 SCF Energy (H0 + V/2)                       =   -1570.67212856 
 Solute Internal Energy (H0)                 =   -1570.65127119 
 Total Free Energy (H0 + V/2 + non-elec)     =   -1570.67212856 hartree
                                             = -985611.63650937 kcal/mol
***********************************************************

 SCF   energy in the final basis set =    -1570.6721285636
 Total energy in the final basis set =    -1570.6721285636


 --------------------------------------------------------------
  Generalized many-body perturbation theory program
  by Joonho Lee, Fazle Rob, Xintian Feng, Evgeny Epifanovsky

 No regularization used 
 (reg. param. = 0.0000e+00)
  (P|Q)^-1/2 Time:  CPU 106.01 s  wall 2.41 s

 In RI-MP2 calculation: 
 # of frozen core orbitals: 31

 Components of the RIMP2 correlation energy:
        aaaa    correlation energy =        -0.6181806390 a.u.
        abab    correlation energy =        -3.3939720249 a.u.
        bbbb    correlation energy =        -0.6181806390 a.u.
        non-Brillouin singles      =        -0.0000000000 a.u.
        total same-spin energy     =        -1.2363612780 a.u.
        total opposite-spin energy =        -3.3939720249 a.u.

 Total  RIMP2   correlation energy =        -4.6303333029 a.u.
        RIMP2         total energy =     -1575.3024618665 a.u.

 RI-MP2 Energy Time:  CPU 1889.55 s  wall 31.32 s
 
 --------------------------------------------------------------
 
                    Orbital Energies (a.u.)
 --------------------------------------------------------------
 
 Alpha MOs
 -- Occupied --
-91.9928 -20.5582 -20.5561 -20.5552 -20.5529 -15.6308 -15.6302 -11.3994
-11.3968 -11.3907 -11.3904 -11.3199 -11.3014 -11.2991 -11.2955 -11.2944
-11.2936 -11.2926 -11.2879 -11.2866 -11.2820 -11.2781 -11.2769 -11.2647
-11.2642 -11.2555 -11.2502  -8.9930  -6.6738  -6.6732  -6.6726  -1.4255
 -1.4245  -1.4039  -1.4038  -1.2672  -1.2651  -1.2163  -1.1794  -1.1432
 -1.1152  -1.0632  -1.0486  -0.9921  -0.9905  -0.9890  -0.9584  -0.9467
 -0.8968  -0.8785  -0.8778  -0.8610  -0.7962  -0.7799  -0.7728  -0.7629
 -0.7351  -0.7251  -0.7027  -0.6938  -0.6820  -0.6738  -0.6662  -0.6620
 -0.6556  -0.6411  -0.6374  -0.6337  -0.6272  -0.6127  -0.5912  -0.5833
 -0.5791  -0.5706  -0.5681  -0.5637  -0.5612  -0.5560  -0.5539  -0.5467
 -0.5352  -0.5249  -0.5241  -0.5142  -0.4810  -0.4677  -0.4647  -0.4613
 -0.4576  -0.4496  -0.4289  -0.4190  -0.4095  -0.3775  -0.3557  -0.3357
 -0.2988
 -- Virtual --
 -0.0180   0.0502   0.0682   0.1027   0.1306   0.1545   0.1585   0.1588
  0.1669   0.1718   0.1760   0.1863   0.1967   0.1987   0.2076   0.2109
  0.2251   0.2277   0.2295   0.2368   0.2472   0.2535   0.2632   0.2658
  0.2672   0.3081   0.3122   0.3159   0.3210   0.3347   0.3405   0.3412
  0.3478   0.3513   0.3549   0.3565   0.3585   0.3650   0.3762   0.3795
  0.3811   0.3889   0.3937   0.3986   0.4055   0.4079   0.4109   0.4177
  0.4255   0.4279   0.4336   0.4373   0.4436   0.4460   0.4490   0.4568
  0.4614   0.4638   0.4687   0.4727   0.4794   0.4824   0.4872   0.4919
  0.4961   0.5070   0.5140   0.5162   0.5204   0.5246   0.5270   0.5305
  0.5378   0.5421   0.5475   0.5535   0.5546   0.5595   0.5653   0.5692
  0.5721   0.5737   0.5786   0.5888   0.5937   0.5944   0.5971   0.6000
  0.6044   0.6072   0.6153   0.6181   0.6233   0.6261   0.6301   0.6312
  0.6341   0.6355   0.6369   0.6457   0.6530   0.6602   0.6668   0.6758
  0.6834   0.6838   0.6921   0.6997   0.7017   0.7122   0.7130   0.7257
  0.7348   0.7368   0.7399   0.7467   0.7535   0.7582   0.7627   0.7685
  0.7766   0.7839   0.7841   0.7875   0.8023   0.8100   0.8163   0.8207
  0.8257   0.8338   0.8415   0.8441   0.8494   0.8530   0.8589   0.8613
  0.8638   0.8660   0.8725   0.8790   0.8863   0.8922   0.9050   0.9103
  0.9158   0.9188   0.9265   0.9305   0.9328   0.9384   0.9426   0.9462
  0.9557   0.9597   0.9650   0.9679   0.9736   0.9750   0.9835   0.9913
  0.9946   0.9977   1.0058   1.0096   1.0104   1.0175   1.0273   1.0351
  1.0366   1.0448   1.0521   1.0568   1.0624   1.0652   1.0683   1.0740
  1.0763   1.0822   1.0841   1.0865   1.0954   1.0973   1.1096   1.1198
  1.1237   1.1309   1.1358   1.1404   1.1449   1.1470   1.1549   1.1606
  1.1646   1.1683   1.1706   1.1807   1.1887   1.1923   1.1960   1.1991
  1.2037   1.2116   1.2150   1.2224   1.2271   1.2306   1.2390   1.2401
  1.2422   1.2487   1.2531   1.2626   1.2636   1.2727   1.2791   1.3027
  1.3181   1.3265   1.3305   1.3358   1.3409   1.3478   1.3514   1.3624
  1.3692   1.3821   1.3826   1.3872   1.3904   1.3962   1.4074   1.4184
  1.4209   1.4281   1.4389   1.4418   1.4495   1.4517   1.4581   1.4628
  1.4743   1.4806   1.4874   1.4949   1.4977   1.5132   1.5137   1.5238
  1.5303   1.5349   1.5379   1.5467   1.5569   1.5586   1.5643   1.5686
  1.5741   1.5764   1.5893   1.6014   1.6095   1.6143   1.6284   1.6296
  1.6389   1.6459   1.6481   1.6558   1.6670   1.6723   1.6870   1.6896
  1.6961   1.7127   1.7227   1.7282   1.7363   1.7430   1.7478   1.7514
  1.7664   1.7690   1.7790   1.7880   1.7921   1.8010   1.8037   1.8207
  1.8252   1.8402   1.8437   1.8505   1.8564   1.8651   1.8660   1.8769
  1.8778   1.8893   1.8928   1.9114   1.9255   1.9332   1.9513   1.9570
  1.9654   1.9709   1.9755   1.9910   2.0007   2.0133   2.0240   2.0342
  2.0507   2.0645   2.0774   2.0994   2.1035   2.1221   2.1311   2.1427
  2.1555   2.1654   2.1675   2.1813   2.1826   2.2141   2.2177   2.2366
  2.2405   2.2459   2.2597   2.2724   2.2844   2.2873   2.2944   2.3034
  2.3228   2.3295   2.3330   2.3477   2.3608   2.3635   2.3754   2.3869
  2.4084   2.4212   2.4344   2.4401   2.4514   2.4588   2.4613   2.4825
  2.4873   2.4921   2.4994   2.5003   2.5088   2.5258   2.5398   2.5470
  2.5589   2.5644   2.5815   2.5871   2.5894   2.5999   2.6043   2.6126
  2.6160   2.6294   2.6436   2.6458   2.6565   2.6664   2.6673   2.6733
  2.6809   2.6888   2.6975   2.7048   2.7107   2.7165   2.7191   2.7267
  2.7392   2.7465   2.7524   2.7564   2.7669   2.7698   2.7860   2.7965
  2.8061   2.8135   2.8237   2.8389   2.8426   2.8474   2.8592   2.8676
  2.8716   2.8762   2.8784   2.8836   2.8862   2.8921   2.9106   2.9143
  2.9234   2.9278   2.9329   2.9460   2.9483   2.9609   2.9663   2.9757
  2.9769   2.9831   2.9933   3.0027   3.0052   3.0083   3.0127   3.0144
  3.0264   3.0376   3.0410   3.0418   3.0533   3.0576   3.0716   3.0870
  3.0908   3.0916   3.0978   3.1016   3.1089   3.1118   3.1199   3.1218
  3.1282   3.1344   3.1386   3.1484   3.1649   3.1742   3.1749   3.1839
  3.1974   3.1984   3.2017   3.2094   3.2126   3.2178   3.2233   3.2254
  3.2327   3.2341   3.2371   3.2481   3.2511   3.2549   3.2608   3.2644
  3.2701   3.2716   3.2761   3.2818   3.2893   3.2932   3.2976   3.3075
  3.3106   3.3130   3.3221   3.3273   3.3322   3.3357   3.3379   3.3432
  3.3443   3.3489   3.3502   3.3571   3.3627   3.3649   3.3678   3.3729
  3.3786   3.3866   3.3880   3.3982   3.4005   3.4088   3.4158   3.4213
  3.4250   3.4303   3.4337   3.4425   3.4505   3.4532   3.4551   3.4612
  3.4632   3.4648   3.4715   3.4758   3.4821   3.4829   3.4930   3.4986
  3.5020   3.5035   3.5078   3.5098   3.5174   3.5212   3.5261   3.5280
  3.5458   3.5465   3.5567   3.5617   3.5655   3.5747   3.5779   3.5826
  3.5931   3.5943   3.6033   3.6110   3.6175   3.6243   3.6291   3.6329
  3.6345   3.6369   3.6422   3.6433   3.6558   3.6668   3.6762   3.6781
  3.6882   3.6915   3.6983   3.7047   3.7090   3.7107   3.7125   3.7272
  3.7305   3.7350   3.7401   3.7468   3.7511   3.7543   3.7624   3.7720
  3.7817   3.7838   3.7865   3.7937   3.7969   3.7996   3.8042   3.8136
  3.8156   3.8189   3.8222   3.8394   3.8448   3.8533   3.8624   3.8643
  3.8687   3.8804   3.8847   3.8882   3.8994   3.9092   3.9155   3.9297
  3.9316   3.9370   3.9441   3.9452   3.9615   3.9645   3.9764   3.9816
  3.9881   4.0042   4.0109   4.0198   4.0255   4.0269   4.0420   4.0451
  4.0558   4.0667   4.0733   4.0796   4.0849   4.0886   4.0997   4.1085
  4.1199   4.1343   4.1358   4.1422   4.1565   4.1606   4.1701   4.1754
  4.1820   4.1864   4.1910   4.1978   4.2069   4.2236   4.2292   4.2412
  4.2520   4.2582   4.2703   4.2750   4.2789   4.2867   4.2926   4.2947
  4.3027   4.3036   4.3091   4.3207   4.3227   4.3333   4.3392   4.3485
  4.3506   4.3566   4.3596   4.3661   4.3684   4.3771   4.3812   4.3889
  4.3938   4.3980   4.4061   4.4095   4.4173   4.4233   4.4361   4.4444
  4.4598   4.4694   4.4746   4.4891   4.4983   4.5073   4.5156   4.5227
  4.5257   4.5302   4.5425   4.5483   4.5554   4.5626   4.5726   4.5775
  4.5785   4.5828   4.5848   4.6040   4.6091   4.6196   4.6298   4.6382
  4.6411   4.6525   4.6574   4.6742   4.6783   4.6838   4.6916   4.7082
  4.7117   4.7287   4.7359   4.7518   4.7656   4.7783   4.7881   4.8110
  4.8134   4.8310   4.8339   4.8438   4.8485   4.8627   4.8797   4.8833
  4.8956   4.9083   4.9320   4.9365   4.9489   4.9628   4.9761   4.9957
  4.9987   5.0101   5.0224   5.0392   5.0440   5.0505   5.0549   5.0624
  5.1028   5.1060   5.1142   5.1194   5.1261   5.1347   5.1476   5.1625
  5.1683   5.1807   5.1928   5.2191   5.2305   5.2382   5.2565   5.2578
  5.2726   5.2822   5.2883   5.2998   5.3135   5.3238   5.3343   5.3459
  5.3582   5.3954   5.4017   5.4061   5.4268   5.4299   5.4333   5.4655
  5.4781   5.5076   5.5090   5.5126   5.5157   5.5352   5.5463   5.5567
  5.5603   5.5637   5.5718   5.5740   5.5779   5.5946   5.6077   5.6143
  5.6320   5.6408   5.6528   5.6551   5.6649   5.6767   5.6797   5.6941
  5.7055   5.7204   5.7247   5.7441   5.7563   5.7614   5.7731   5.7751
  5.7882   5.7908   5.8148   5.8256   5.8518   5.8906   5.9020   5.9183
  5.9502   5.9593   5.9906   6.0137   6.0240   6.0267   6.0420   6.0452
  6.0989   6.1014   6.1105   6.1230   6.1281   6.1860   6.2029   6.2106
  6.2179   6.2218   6.2363   6.2692   6.2739   6.2941   6.3045   6.3503
  6.3598   6.3929   6.4381   6.4504   6.4690   6.5293   6.5626   6.5724
  6.5875   6.6142   6.6459   6.6480   6.6593   6.6971   6.7219   6.8343
  6.8414   6.8847   6.8865   6.8978   6.9117   6.9336   6.9642   7.0812
  7.1364   7.1473   7.1950   7.2098   7.2667   7.3328   7.3429   7.3447
  7.3618   7.4712   7.5497   7.5604   7.5766   7.5822   7.6352   7.6464
  7.6827   7.7175   7.8331   8.4381   9.9289  10.3845  11.1162  11.2354
 11.7083  11.7856  12.0367  12.3913  12.5119  12.6370  12.8510  13.1554
 13.3464  13.5596  13.8223  13.9541  14.0614  14.1455  14.3031  14.3894
 14.4318  14.7588  15.3446  15.7453  16.0272
 --------------------------------------------------------------
 
          Ground-State Mulliken Net Atomic Charges

     Atom                 Charge (a.u.)
  ----------------------------------------
      1 C                    -0.148524
      2 C                    -0.111975
      3 C                    -0.027515
      4 C                    -0.002337
      5 H                     0.187529
      6 C                    -0.001583
      7 C                     0.074558
      8 C                     0.051805
      9 C                    -0.081547
     10 C                    -0.165332
     11 C                     0.042557
     12 H                     0.170833
     13 C                     0.358425
     14 C                     0.362270
     15 N                    -0.101288
     16 C                     0.358407
     17 C                     0.383453
     18 N                    -0.091986
     19 O                    -0.464359
     20 O                    -0.476891
     21 O                    -0.483912
     22 O                    -0.481211
     23 C                    -0.201253
     24 H                     0.141047
     25 H                     0.112430
     26 H                     0.112350
     27 C                    -0.198458
     28 H                     0.134583
     29 H                     0.112120
     30 H                     0.112681
     31 H                     0.212085
     32 C                     0.013718
     33 S                     0.014860
     34 C                    -0.183005
     35 C                    -0.151702
     36 C                    -0.231988
     37 H                     0.236771
     38 H                     0.193306
     39 H                     0.219078
  ----------------------------------------
  Sum of atomic charges =     0.000000

 -----------------------------------------------------------------
                    Cartesian Multipole Moments
 -----------------------------------------------------------------
    Charge (ESU x 10^10)
                -0.0000
    Dipole Moment (Debye)
         X       0.9645      Y       2.5507      Z      -0.7685
       Tot       2.8332
    Quadrupole Moments (Debye-Ang)
        XX    -162.6171     XY       5.3688     YY    -170.5978
        XZ       0.3258     YZ       0.3218     ZZ    -178.2654
    Octopole Moments (Debye-Ang^2)
       XXX    -183.8168    XXY     472.0552    XYY     -62.6987
       YYY    1620.6912    XXZ       0.4481    XYZ       2.9008
       YYZ       6.4683    XZZ     -63.8796    YZZ     564.3944
       ZZZ       4.6735
    Hexadecapole Moments (Debye-Ang^3)
      XXXX    -370.3900   XXXY     571.9591   XXYY   -2690.7333
      XYYY     744.9067   YYYY  -17185.6419   XXXZ     -47.0510
      XXYZ     106.6552   XYYZ     -40.6952   YYYZ     729.7846
      XXZZ   -1092.9989   XYZZ     257.2111   YYZZ   -4235.4447
      XZZZ     -12.4169   YZZZ     -61.4484   ZZZZ   -6472.3403
 -----------------------------------------------------------------
 Total job time:  261.55s(wall), 8259.02s(cpu) 
 Fri Dec 15 13:32:32 2023

        *************************************************************
        *                                                           *
        *  Thank you very much for using Q-Chem.  Have a nice day.  *
        *                                                           *
        *************************************************************


0 sent ACK to 0 
now end server 0 ... 
cleanup process ... done
remove work dirs ./qchem723617.0 -- ./qchem723617.0
rm -rf ./qchem723617.0
rm -rf ./qchem723617
