You are running Q-Chem version: 5.4.0

#
# job setting
#
local host:  exp-5-20
current dir: /home/rramji/project-csd799/aromodel/pndit-qchem/rotation_run
input file:  Dimethyl_Naphthalene_Dicarboximide_Phi_50_Theta_60_Thiophene.qcin
output file: 
nprocs     : 1
nthreads   : 64
#
# qchem installation setting
#
QC:          /cm/shared/apps/spack/cpu/opt/spack/linux-centos8-zen2/gcc-10.2.0/qchem-5.4-akfmr7b3t57bfs6qan3padb2wnb2i7cl
QCAUX:       /cm/shared/apps/spack/cpu/opt/spack/linux-centos8-zen2/gcc-10.2.0/qchem-5.4-akfmr7b3t57bfs6qan3padb2wnb2i7cl/qcaux
QCPROG:      /cm/shared/apps/spack/cpu/opt/spack/linux-centos8-zen2/gcc-10.2.0/qchem-5.4-akfmr7b3t57bfs6qan3padb2wnb2i7cl/exe/qcprog.exe
QCPROG_S:    /cm/shared/apps/spack/cpu/opt/spack/linux-centos8-zen2/gcc-10.2.0/qchem-5.4-akfmr7b3t57bfs6qan3padb2wnb2i7cl/exe/qcprog.exe_s
PARALLEL:    -DPARALLEL
QCMPI:       mpich
#
# qchem directory setting
#
qcrun:       qchem3629581
QCSCRATCH:   .
QCLOCALSCR:  
QCTMPDIR:    .
QCFILEPREF:  ./qchem3629581
QCSAVEDIR:   
workdirs:    ./qchem3629581
workdir0:    ./qchem3629581
partmpdirs =  
#
# parallel setting
#
QCRSH:           ssh
QCMPI:           mpich
QCMPIRUN:        /cm/shared/apps/spack/cpu/opt/spack/linux-centos8-zen2/gcc-10.2.0/qchem-5.4-akfmr7b3t57bfs6qan3padb2wnb2i7cl/bin/mpi/mpirun_qchem
QCMACHINEFILE:   ./qchem3629581/hostfile
exp-5-20

#
# env setting
#
exported envs:   QC QCAUX QCSCRATCH QCRUNNAME QCFILEPREF QCPROG QCPROG_S GUIFILE

Running Job 1 of 1 Dimethyl_Naphthalene_Dicarboximide_Phi_50_Theta_60_Thiophene.qcin
qchem Dimethyl_Naphthalene_Dicarboximide_Phi_50_Theta_60_Thiophene.qcin_3629581.0 ./qchem3629581/ 1
/cm/shared/apps/spack/cpu/opt/spack/linux-centos8-zen2/gcc-10.2.0/qchem-5.4-akfmr7b3t57bfs6qan3padb2wnb2i7cl/bin/mpi/mpirun_qchem -machinefile ./qchem3629581/hostfile -np 1 /cm/shared/apps/spack/cpu/opt/spack/linux-centos8-zen2/gcc-10.2.0/qchem-5.4-akfmr7b3t57bfs6qan3padb2wnb2i7cl/exe/qcprog.exe Dimethyl_Naphthalene_Dicarboximide_Phi_50_Theta_60_Thiophene.qcin_3629581.0 ./qchem3629581/

Process 0 of 1 is on exp-5-20 - thread support 0
initial socket setup ...start
initial socket setup ...done 
now start server 0 ... 
                  Welcome to Q-Chem
     A Quantum Leap Into The Future Of Chemistry


 Q-Chem 5.4, Q-Chem, Inc., Pleasanton, CA (2021)

 License issued to: University of California, San Diego (site)

 E. Epifanovsky,  A. T. B. Gilbert,  Xintian Feng,  Joonho Lee,  Yuezhi Mao,  
 N. Mardirossian,  P. Pokhilko,  A. White,  M. Wormit,  M. P. Coons,  
 A. L. Dempwolff,  Zhengting Gan,  D. Hait,  P. R. Horn,  L. D. Jacobson,  
 I. Kaliman,  J. Kussmann,  A. W. Lange,  Ka Un Lao,  D. S. Levine,  Jie Liu,  
 S. C. McKenzie,  A. F. Morrison,  K. Nanda,  F. Plasser,  D. R. Rehn,  
 M. L. Vidal,  Zhi-Qiang You,  Ying Zhu,  B. Alam,  B. Albrecht,  
 A. Aldossary,  E. Alguire,  J. H. Andersen,  D. Barton,  K. Begam,  A. Behn,  
 Y. A. Bernard,  E. J. Berquist,  H. Burton,  A. Carreras,  K. Carter-Fenk,  
 R. Chakraborty,  A. D. Chien,  K. D. Closser,  V. Cofer-Shabica,  
 S. Dasgupta,  Jia Deng,  M. de Wergifosse,  M. Diedenhofen,  Hainam Do,  
 S. Ehlert,  Po-Tung Fang,  S. Fatehi,  Qingguo Feng,  J. Gayvert,  
 Qinghui Ge,  G. Gidofalvi,  M. Goldey,  J. Gomes,  C. Gonzalez-Espinoza,  
 S. Gulania,  A. Gunina,  M. W. D. Hanson-Heine,  P. H. P. Harbach,  
 A. W. Hauser,  M. F. Herbst,  M. Hernandez Vera,  M. Hodecker,  
 Z. C. Holden,  S. Houck,  Xunkun Huang,  Kerwin Hui,  B. C. Huynh,  
 M. Ivanov,  Hyunjun Ji,  Hanjie Jiang,  B. Kaduk,  S. Kaehler,  
 K. Khistyaev,  Jaehoon Kim,  P. Klunzinger,  Z. Koczor-Benda,  
 Joong Hoon Koh,  D. Kosenkov,  L. Koulias,  T. Kowalczyk,  C. M. Krauter,  
 K. Kue,  A. Kunitsa,  T. Kus,  A. Landau,  K. V. Lawler,  D. Lefrancois,  
 S. Lehtola,  Rain Li,  Yi-Pei Li,  Jiashu Liang,  M. Liebenthal,  
 Hung-Hsuan Lin,  You-Sheng Lin,  Fenglai Liu,  Kuan-Yu Liu,  
 M. Loipersberger,  A. Luenser,  A. Manjanath,  P. Manohar,  E. Mansoor,  
 S. F. Manzer,  Shan-Ping Mao,  A. V. Marenich,  T. Markovich,  S. Mason,  
 S. A. Maurer,  P. F. McLaughlin,  M. F. S. J. Menger,  J.-M. Mewes,  
 S. A. Mewes,  P. Morgante,  J. W. Mullinax,  T. S. Nguyen-Beck,  
 K. J. Oosterbaan,  G. Paran,  Alexander C. Paul,  Suranjan K. Paul,  
 F. Pavosevic,  Zheng Pei,  S. Prager,  E. I. Proynov,  E. Ramos,  B. Rana,  
 A. E. Rask,  A. Rettig,  R. M. Richard,  F. Rob,  E. Rossomme,  T. Scheele,  
 M. Scheurer,  M. Schneider,  N. Sergueev,  S. M. Sharada,  W. Skomorowski,  
 D. W. Small,  C. J. Stein,  Yu-Chuan Su,  E. J. Sundstrom,  Zhen Tao,  
 J. Thirman,  T. Tsuchimochi,  N. M. Tubman,  S. P. Veccham,  O. Vydrov,  
 J. Wenzel,  J. Witte,  A. Yamada,  Kun Yao,  S. Yeganeh,  S. R. Yost,  
 A. Zech,  Igor Ying Zhang,  Xing Zhang,  Yu Zhang,  D. Zuev,  
 A. Aspuru-Guzik,  A. T. Bell,  N. A. Besley,  K. B. Bravaya,  B. R. Brooks,  
 D. Casanova,  Jeng-Da Chai,  S. Coriani,  C. J. Cramer,  
 A. E. DePrince, III,  R. A. DiStasio Jr.,  A. Dreuw,  B. D. Dunietz,  
 T. R. Furlani,  W. A. Goddard III,  S. Grimme,  S. Hammes-Schiffer,  
 T. Head-Gordon,  W. J. Hehre,  Chao-Ping Hsu,  T.-C. Jagau,  Yousung Jung,  
 A. Klamt,  Jing Kong,  D. S. Lambrecht,  WanZhen Liang,  N. J. Mayhall,  
 C. W. McCurdy,  J. B. Neaton,  C. Ochsenfeld,  J. A. Parkhill,  R. Peverati,  
 V. A. Rassolov,  Yihan Shao,  L. V. Slipchenko,  T. Stauch,  R. P. Steele,  
 J. E. Subotnik,  A. J. W. Thom,  A. Tkatchenko,  D. G. Truhlar,  
 T. Van Voorhis,  T. A. Wesolowski,  K. B. Whaley,  H. L. Woodcock III,  
 P. M. Zimmerman,  S. Faraji,  P. M. W. Gill,  M. Head-Gordon,  
 J. M. Herbert,  A. I. Krylov

 Contributors to earlier versions of Q-Chem not listed above: 
 R. D. Adamson,  B. Austin,  R. Baer,  J. Baker,  G. J. O. Beran,  
 K. Brandhorst,  S. T. Brown,  E. F. C. Byrd,  A. K. Chakraborty,  
 G. K. L. Chan,  Chun-Min Chang,  Yunqing Chen,  C.-L. Cheng,  
 Siu Hung Chien,  D. M. Chipman,  D. L. Crittenden,  H. Dachsel,  
 R. J. Doerksen,  A. D. Dutoi,  R. G. Edgar,  J. Fosso-Tande,  
 L. Fusti-Molnar,  D. Ghosh,  A. Ghysels,  A. Golubeva-Zadorozhnaya,  
 J. Gonthier,  M. S. Gordon,  S. R. Gwaltney,  G. Hawkins,  J. E. Herr,  
 A. Heyden,  S. Hirata,  E. G. Hohenstein,  G. Kedziora,  F. J. Keil,  
 C. Kelley,  Jihan Kim,  R. A. King,  R. Z. Khaliullin,  P. P. Korambath,  
 W. Kurlancheek,  A. Laurent,  A. M. Lee,  M. S. Lee,  S. V. Levchenko,  
 Ching Yeh Lin,  D. Liotard,  E. Livshits,  R. C. Lochan,  I. Lotan,  
 L. A. Martinez-Martinez,  P. E. Maslen,  N. Nair,  D. P. O'Neill,  
 D. Neuhauser,  E. Neuscamman,  C. M. Oana,  R. Olivares-Amaya,  R. Olson,  
 T. M. Perrine,  B. Peters,  P. A. Pieniazek,  A. Prociuk,  Y. M. Rhee,  
 J. Ritchie,  M. A. Rohrdanz,  E. Rosta,  N. J. Russ,  H. F. Schaefer III,  
 M. W. Schmidt,  N. E. Schultz,  S. Sharma,  N. Shenvi,  C. D. Sherrill,  
 A. C. Simmonett,  A. Sodt,  T. Stein,  D. Stuck,  K. S. Thanthiriwatte,  
 V. Vanovschi,  L. Vogt,  Tao Wang,  A. Warshel,  M. A. Watson,  
 C. F. Williams,  Q. Wu,  X. Xu,  Jun Yang,  W. Zhang,  Yan Zhao

 Please cite Q-Chem as follows:
 Y. Shao et al., Mol. Phys. 113, 184-215 (2015)
 DOI: 10.1080/00268976.2014.952696

 Q-Chem 5.4.0 for Intel X86 EM64T Linux

 Parts of Q-Chem use Armadillo 9.800.1 (Horizon Scraper).
 http://arma.sourceforge.net/

 Q-Chem begins on Fri Dec 15 13:57:36 2023  

 Host: 
0

     Scratch files written to ./qchem3629581//
 May1621 |scratch|qcdevops|jenkins|workspace|build_RNUM    
 Parallel job on  1  processors
 Processing $rem in /cm/shared/apps/spack/cpu/opt/spack/linux-centos8-zen2/gcc-10.2.0/qchem-5.4-akfmr7b3t57bfs6qan3padb2wnb2i7cl/config/preferences:
 Processing $rem in /home/rramji/.qchemrc:
 Symmetry turned off for PCM/SM12/SMD calculation
 Core orbitals will be frozen

 Checking the input file for inconsistencies... 	...done.

 Q-Chem warning in module forms1/BasisType.C, line 2236:

 You are not using the predefined 5D/6D in this basis set.


--------------------------------------------------------------
User input:
--------------------------------------------------------------
$molecule
0 1
C	0.221766	-6.741404	-0.129743
C	1.352515	-6.155638	-0.782726
C	-0.717339	-5.791452	0.411926
C	1.593885	-4.803786	-0.921816
H	2.112819	-6.821518	-1.221908
C	-0.464360	-4.378638	0.266682
C	0.688053	-3.838032	-0.398255
C	-1.369108	-3.413062	0.789694
C	0.939002	-2.426473	-0.542349
C	-1.130409	-2.059348	0.652589
C	-0.000000	-1.478216	-0.000000
H	-1.891446	-1.394783	1.092453
C	-1.967519	-6.187987	1.131595
C	-2.608118	-3.798164	1.504912
N	-2.819813	-5.170003	1.625174
C	2.836188	-4.424987	-1.639129
C	2.189558	-2.036627	-1.263477
N	3.042237	-3.049156	-1.756898
O	-2.307845	-7.353131	1.324787
O	-3.407213	-2.986854	1.967354
O	3.625890	-5.248946	-2.095892
O	2.547850	-0.878829	-1.468685
C	-4.043674	-5.563799	2.330564
H	-4.083407	-6.664085	2.352178
H	-4.925490	-5.147101	1.807263
H	-4.031877	-5.148785	3.356568
C	4.247206	-2.587487	-2.452080
H	4.803187	-3.483329	-2.774302
H	4.860536	-1.964972	-1.773301
H	3.966607	-1.962932	-3.321351
H	0.060567	-7.822318	-0.037043
C	0.000000	0.000000	0.000000
S	0.607475	0.509994	1.580530
C	1.862020	1.562717	0.904911
C	0.764397	0.641624	-0.985400
C	1.775697	1.490335	-0.493528
H	0.583895	0.490135	-2.059934
H	2.450484	2.056643	-1.152593
H	2.536607	2.128872	1.556025
$end

$rem
JOBTYPE		SP
EXCHANGE	HF
CORRELATION	pRIMP2
BASIS		cc-pvtz
METHOD		rimp2
AUX_BASIS	rimp2-cc-pvtz
SOLVENT_METHOD	PCM
PURECART	11111
SYMMETRY	false
MEM_TOTAL	110000
SCF_CONVERGENCE = 6
THRESH=10
GUI = 2
$end



$solvent
dielectric 4.90
$end
--------------------------------------------------------------
 ----------------------------------------------------------------
             Standard Nuclear Orientation (Angstroms)
    I     Atom           X                Y                Z
 ----------------------------------------------------------------
    1      C       0.2217660000    -6.7414040000    -0.1297430000
    2      C       1.3525150000    -6.1556380000    -0.7827260000
    3      C      -0.7173390000    -5.7914520000     0.4119260000
    4      C       1.5938850000    -4.8037860000    -0.9218160000
    5      H       2.1128190000    -6.8215180000    -1.2219080000
    6      C      -0.4643600000    -4.3786380000     0.2666820000
    7      C       0.6880530000    -3.8380320000    -0.3982550000
    8      C      -1.3691080000    -3.4130620000     0.7896940000
    9      C       0.9390020000    -2.4264730000    -0.5423490000
   10      C      -1.1304090000    -2.0593480000     0.6525890000
   11      C       0.0000000000    -1.4782160000     0.0000000000
   12      H      -1.8914460000    -1.3947830000     1.0924530000
   13      C      -1.9675190000    -6.1879870000     1.1315950000
   14      C      -2.6081180000    -3.7981640000     1.5049120000
   15      N      -2.8198130000    -5.1700030000     1.6251740000
   16      C       2.8361880000    -4.4249870000    -1.6391290000
   17      C       2.1895580000    -2.0366270000    -1.2634770000
   18      N       3.0422370000    -3.0491560000    -1.7568980000
   19      O      -2.3078450000    -7.3531310000     1.3247870000
   20      O      -3.4072130000    -2.9868540000     1.9673540000
   21      O       3.6258900000    -5.2489460000    -2.0958920000
   22      O       2.5478500000    -0.8788290000    -1.4686850000
   23      C      -4.0436740000    -5.5637990000     2.3305640000
   24      H      -4.0834070000    -6.6640850000     2.3521780000
   25      H      -4.9254900000    -5.1471010000     1.8072630000
   26      H      -4.0318770000    -5.1487850000     3.3565680000
   27      C       4.2472060000    -2.5874870000    -2.4520800000
   28      H       4.8031870000    -3.4833290000    -2.7743020000
   29      H       4.8605360000    -1.9649720000    -1.7733010000
   30      H       3.9666070000    -1.9629320000    -3.3213510000
   31      H       0.0605670000    -7.8223180000    -0.0370430000
   32      C       0.0000000000     0.0000000000     0.0000000000
   33      S       0.6074750000     0.5099940000     1.5805300000
   34      C       1.8620200000     1.5627170000     0.9049110000
   35      C       0.7643970000     0.6416240000    -0.9854000000
   36      C       1.7756970000     1.4903350000    -0.4935280000
   37      H       0.5838950000     0.4901350000    -2.0599340000
   38      H       2.4504840000     2.0566430000    -1.1525930000
   39      H       2.5366070000     2.1288720000     1.5560250000
 ----------------------------------------------------------------
 Nuclear Repulsion Energy =        2531.15368710 hartrees
 There are       97 alpha and       97 beta electrons
 Requested basis set is cc-pVTZ
 There are 344 shells and 982 basis functions

 Total QAlloc Memory Limit 110000 MB
 Mega-Array Size       188 MB
 MEM_STATIC part       192 MB
 Discretize the solute cavity surface with Lebedev spheres
	Using 110 Lebedev grid points for each H atom
	Using 194 Lebedev grid points for other atoms
	Atomic van der Waals radii will be scaled by 1.20
 Remove points where switching function is < 1.0e-08
 Keep 2489 surface tesserae and discard 4069 interior tesserae
 Molecular Surface Area = 360.189 Angst**2
 Requested basis set is rimp2-cc-pVTZ
 There are 750 shells and 2588 basis functions
 A cutoff of  1.0D-10 yielded  32547 shell pairs
 There are    250837 function pairs (    326086 Cartesian)
 Smallest overlap matrix eigenvalue = 9.53E-06

 Q-Chem warning in module stvman/mkSTV.C, line 323:

 Overlap eigenvalue is smaller than square root of threshold
 Use THRESH >= 12 to get rid of this warning


 Scale SEOQF with 1.000000e-01/1.000000e-02/1.000000e-01

 Standard Electronic Orientation quadrupole field applied
 Nucleus-field energy     =     0.0000000179 hartrees
 Guess from superposition of atomic densities
 Warning:  Energy on first SCF cycle will be non-variational
 SAD guess density has 194.000000 electrons

 -----------------------------------------------------------------------
  General SCF calculation program by
  Eric Jon Sundstrom, Paul Horn, Yuezhi Mao, Dmitri Zuev, Alec White,
  David Stuck, Shaama M.S., Shane Yost, Joonho Lee, David Small,
  Daniel Levine, Susi Lehtola, Hugh Burton, Evgeny Epifanovsky,
  Bang C. Huynh
 -----------------------------------------------------------------------
 Hartree-Fock
 using 64 threads for integral computing
 -------------------------------------------------------
 OpenMP Integral computing Module                
 Release: version 1.0, May 2013, Q-Chem Inc. Pittsburgh 
 -------------------------------------------------------
 A restricted SCF calculation will be
 performed using DIIS
 SCF converges when DIIS error is below 1.0e-06
 ---------------------------------------
  Cycle       Energy         DIIS error
 ---------------------------------------
    1   -1581.3965173720      1.87e-02  
    2   -1570.0668137222      2.09e-03  
    3   -1570.3897742005      1.63e-03  
    4   -1570.6222746004      2.59e-04  
    5   -1570.6348664028      7.71e-05  
    6   -1570.6360289658      2.90e-05  
    7   -1570.6363274688      1.50e-05  
    8   -1570.6364265058      6.54e-06  
    9   -1570.6364438924      2.54e-06  
   10   -1570.6364472674      1.09e-06  
   11   -1570.6364479077      4.52e-07  Convergence criterion met
 ---------------------------------------
 SCF time:   CPU 6642.13s  wall 247.00s 

************** Final PCM Free Energy Summary **************
 G_electrostatic  =      -0.02245209 hartree =     -14.08889710 kcal/mol
 G_cavitation     =       0.00000000 hartree =       0.00000000 kcal/mol
 G_dispersion     =       0.00000000 hartree =       0.00000000 kcal/mol
 G_repulsion      =       0.00000000 hartree =       0.00000000 kcal/mol
 --------------------------------------------------
 Non-electrostatic Free Energy =       0.00000000 hartree =       0.00000000 kcal/mol
 Total                         =      -0.02245209 hartree =     -14.08889710 kcal/mol
 --------------------------------------------------
 SCF Energy (H0 + V/2)                       =   -1570.63644791 
 Solute Internal Energy (H0)                 =   -1570.61399582 
 Total Free Energy (H0 + V/2 + non-elec)     =   -1570.63644791 hartree
                                             = -985589.24655991 kcal/mol
***********************************************************

 SCF   energy in the final basis set =    -1570.6364479077
 Total energy in the final basis set =    -1570.6364479077


 --------------------------------------------------------------
  Generalized many-body perturbation theory program
  by Joonho Lee, Fazle Rob, Xintian Feng, Evgeny Epifanovsky

 No regularization used 
 (reg. param. = 0.0000e+00)
  (P|Q)^-1/2 Time:  CPU 155.90 s  wall 2.89 s

 In RI-MP2 calculation: 
 # of frozen core orbitals: 31

 Components of the RIMP2 correlation energy:
        aaaa    correlation energy =        -0.6185218304 a.u.
        abab    correlation energy =        -3.3978492146 a.u.
        bbbb    correlation energy =        -0.6185218304 a.u.
        non-Brillouin singles      =        -0.0000000000 a.u.
        total same-spin energy     =        -1.2370436607 a.u.
        total opposite-spin energy =        -3.3978492146 a.u.

 Total  RIMP2   correlation energy =        -4.6348928753 a.u.
        RIMP2         total energy =     -1575.2713407831 a.u.

 RI-MP2 Energy Time:  CPU 1965.42 s  wall 32.68 s
 
 --------------------------------------------------------------
 
                    Orbital Energies (a.u.)
 --------------------------------------------------------------
 
 Alpha MOs
 -- Occupied --
-91.9868 -20.5576 -20.5547 -20.5538 -20.5518 -15.6301 -15.6298 -11.3988
-11.3957 -11.3912 -11.3886 -11.3140 -11.3008 -11.2981 -11.2972 -11.2946
-11.2932 -11.2931 -11.2831 -11.2823 -11.2780 -11.2735 -11.2703 -11.2650
-11.2636 -11.2604 -11.2478  -8.9869  -6.6677  -6.6670  -6.6665  -1.4245
 -1.4235  -1.4034  -1.4028  -1.2665  -1.2645  -1.2149  -1.1793  -1.1410
 -1.1140  -1.0598  -1.0466  -0.9919  -0.9893  -0.9866  -0.9580  -0.9472
 -0.8950  -0.8778  -0.8713  -0.8592  -0.7919  -0.7750  -0.7726  -0.7615
 -0.7349  -0.7197  -0.7031  -0.6925  -0.6816  -0.6708  -0.6654  -0.6614
 -0.6547  -0.6420  -0.6362  -0.6339  -0.6264  -0.6106  -0.5861  -0.5847
 -0.5787  -0.5743  -0.5645  -0.5626  -0.5566  -0.5537  -0.5513  -0.5481
 -0.5370  -0.5244  -0.5186  -0.5061  -0.4814  -0.4701  -0.4632  -0.4607
 -0.4543  -0.4484  -0.4272  -0.4174  -0.4068  -0.3641  -0.3381  -0.3326
 -0.3102
 -- Virtual --
 -0.0156   0.0614   0.0697   0.0856   0.1156   0.1480   0.1575   0.1606
  0.1666   0.1731   0.1802   0.1809   0.1867   0.1925   0.2035   0.2081
  0.2147   0.2271   0.2283   0.2310   0.2366   0.2389   0.2610   0.2629
  0.2664   0.2953   0.3125   0.3138   0.3166   0.3246   0.3280   0.3364
  0.3431   0.3463   0.3499   0.3559   0.3584   0.3641   0.3697   0.3731
  0.3755   0.3840   0.3900   0.3987   0.4014   0.4052   0.4075   0.4107
  0.4134   0.4281   0.4284   0.4355   0.4407   0.4423   0.4463   0.4550
  0.4565   0.4608   0.4662   0.4743   0.4805   0.4838   0.4880   0.4944
  0.4967   0.5031   0.5086   0.5153   0.5190   0.5225   0.5279   0.5321
  0.5327   0.5414   0.5475   0.5512   0.5526   0.5610   0.5658   0.5716
  0.5740   0.5787   0.5812   0.5884   0.5909   0.5942   0.5997   0.6018
  0.6045   0.6097   0.6126   0.6169   0.6190   0.6258   0.6264   0.6310
  0.6315   0.6356   0.6394   0.6425   0.6445   0.6535   0.6622   0.6682
  0.6802   0.6876   0.6947   0.6978   0.7054   0.7126   0.7182   0.7194
  0.7311   0.7358   0.7424   0.7466   0.7509   0.7595   0.7628   0.7707
  0.7759   0.7817   0.7895   0.7922   0.7930   0.8040   0.8081   0.8186
  0.8208   0.8313   0.8412   0.8432   0.8433   0.8528   0.8567   0.8662
  0.8674   0.8706   0.8737   0.8805   0.8930   0.8956   0.9016   0.9111
  0.9134   0.9185   0.9234   0.9265   0.9286   0.9380   0.9399   0.9456
  0.9509   0.9580   0.9718   0.9736   0.9768   0.9839   0.9872   0.9890
  0.9942   0.9988   1.0081   1.0134   1.0194   1.0255   1.0311   1.0364
  1.0433   1.0473   1.0514   1.0565   1.0610   1.0720   1.0761   1.0789
  1.0824   1.0884   1.0898   1.0919   1.1012   1.1059   1.1135   1.1263
  1.1285   1.1341   1.1363   1.1413   1.1444   1.1570   1.1618   1.1656
  1.1698   1.1749   1.1776   1.1852   1.1884   1.1891   1.2006   1.2078
  1.2100   1.2141   1.2179   1.2208   1.2297   1.2378   1.2426   1.2456
  1.2505   1.2587   1.2645   1.2714   1.2798   1.2867   1.2981   1.3146
  1.3278   1.3337   1.3368   1.3430   1.3447   1.3502   1.3546   1.3680
  1.3697   1.3801   1.3851   1.3894   1.3930   1.4051   1.4070   1.4153
  1.4207   1.4245   1.4391   1.4470   1.4508   1.4530   1.4620   1.4776
  1.4826   1.4867   1.4913   1.4954   1.5021   1.5105   1.5151   1.5209
  1.5260   1.5327   1.5373   1.5457   1.5536   1.5588   1.5656   1.5685
  1.5704   1.5772   1.5799   1.5898   1.6040   1.6084   1.6248   1.6370
  1.6466   1.6490   1.6591   1.6693   1.6712   1.6788   1.6898   1.6945
  1.7045   1.7068   1.7088   1.7317   1.7385   1.7434   1.7486   1.7541
  1.7651   1.7663   1.7722   1.7800   1.7949   1.8036   1.8095   1.8150
  1.8282   1.8316   1.8412   1.8531   1.8575   1.8584   1.8640   1.8743
  1.8826   1.8950   1.8993   1.9105   1.9203   1.9301   1.9374   1.9474
  1.9571   1.9746   1.9775   1.9945   2.0020   2.0075   2.0159   2.0291
  2.0319   2.0616   2.0665   2.0722   2.1091   2.1157   2.1296   2.1388
  2.1486   2.1565   2.1645   2.1673   2.1919   2.2030   2.2103   2.2202
  2.2256   2.2368   2.2546   2.2601   2.2773   2.2924   2.2976   2.2995
  2.3134   2.3197   2.3314   2.3465   2.3613   2.3633   2.3719   2.3835
  2.4131   2.4198   2.4281   2.4413   2.4528   2.4555   2.4582   2.4708
  2.4769   2.4942   2.4960   2.5017   2.5155   2.5308   2.5335   2.5549
  2.5571   2.5722   2.5805   2.5872   2.5954   2.6076   2.6138   2.6168
  2.6224   2.6295   2.6358   2.6519   2.6553   2.6608   2.6693   2.6726
  2.6836   2.6884   2.6977   2.7036   2.7173   2.7221   2.7251   2.7297
  2.7406   2.7553   2.7576   2.7701   2.7730   2.7832   2.7919   2.8074
  2.8141   2.8305   2.8354   2.8391   2.8470   2.8576   2.8640   2.8702
  2.8725   2.8789   2.8837   2.8882   2.8959   2.9092   2.9128   2.9175
  2.9203   2.9325   2.9367   2.9492   2.9517   2.9560   2.9641   2.9763
  2.9807   2.9852   2.9964   3.0015   3.0084   3.0113   3.0175   3.0240
  3.0295   3.0385   3.0408   3.0472   3.0574   3.0642   3.0697   3.0804
  3.0901   3.0964   3.0984   3.1031   3.1112   3.1141   3.1194   3.1218
  3.1291   3.1358   3.1541   3.1623   3.1661   3.1751   3.1805   3.1851
  3.1925   3.1991   3.2072   3.2094   3.2181   3.2216   3.2231   3.2251
  3.2295   3.2394   3.2457   3.2488   3.2539   3.2596   3.2650   3.2690
  3.2746   3.2760   3.2820   3.2843   3.2879   3.2919   3.3015   3.3041
  3.3109   3.3114   3.3229   3.3257   3.3306   3.3323   3.3382   3.3411
  3.3444   3.3460   3.3482   3.3529   3.3626   3.3692   3.3723   3.3763
  3.3827   3.3849   3.3913   3.4011   3.4061   3.4105   3.4118   3.4188
  3.4269   3.4295   3.4350   3.4398   3.4448   3.4562   3.4569   3.4628
  3.4665   3.4702   3.4717   3.4794   3.4850   3.4878   3.4921   3.4964
  3.5008   3.5027   3.5122   3.5141   3.5179   3.5251   3.5276   3.5369
  3.5372   3.5435   3.5494   3.5536   3.5667   3.5715   3.5840   3.5860
  3.5954   3.5980   3.6093   3.6114   3.6227   3.6285   3.6326   3.6335
  3.6421   3.6477   3.6488   3.6542   3.6571   3.6695   3.6736   3.6808
  3.6935   3.6999   3.7030   3.7079   3.7135   3.7156   3.7246   3.7321
  3.7405   3.7445   3.7496   3.7555   3.7589   3.7622   3.7726   3.7768
  3.7829   3.7834   3.7893   3.7940   3.7970   3.8014   3.8058   3.8104
  3.8209   3.8255   3.8299   3.8402   3.8423   3.8551   3.8620   3.8645
  3.8675   3.8815   3.8848   3.8883   3.9017   3.9206   3.9296   3.9346
  3.9382   3.9449   3.9530   3.9541   3.9622   3.9674   3.9796   3.9958
  3.9985   4.0046   4.0093   4.0173   4.0198   4.0298   4.0402   4.0488
  4.0596   4.0661   4.0735   4.0777   4.0881   4.1018   4.1057   4.1169
  4.1266   4.1306   4.1360   4.1489   4.1572   4.1599   4.1765   4.1826
  4.1872   4.1897   4.1992   4.1999   4.2108   4.2218   4.2412   4.2509
  4.2563   4.2623   4.2665   4.2748   4.2803   4.2857   4.2911   4.2946
  4.3005   4.3014   4.3041   4.3152   4.3235   4.3271   4.3408   4.3412
  4.3536   4.3567   4.3656   4.3682   4.3705   4.3725   4.3776   4.3907
  4.3908   4.4021   4.4062   4.4107   4.4236   4.4265   4.4425   4.4564
  4.4670   4.4685   4.4717   4.4814   4.4955   4.5059   4.5149   4.5220
  4.5237   4.5308   4.5360   4.5500   4.5548   4.5605   4.5743   4.5761
  4.5786   4.5850   4.5890   4.5928   4.6103   4.6132   4.6300   4.6430
  4.6470   4.6599   4.6695   4.6759   4.6852   4.6873   4.6974   4.7030
  4.7088   4.7228   4.7391   4.7448   4.7570   4.7653   4.7784   4.8004
  4.8076   4.8227   4.8348   4.8440   4.8488   4.8675   4.8746   4.8789
  4.8908   4.8941   4.9095   4.9148   4.9364   4.9418   4.9661   4.9819
  5.0090   5.0180   5.0255   5.0357   5.0373   5.0467   5.0537   5.0650
  5.0948   5.1019   5.1055   5.1135   5.1273   5.1359   5.1480   5.1526
  5.1666   5.1741   5.1869   5.1945   5.2096   5.2290   5.2477   5.2582
  5.2635   5.2795   5.2881   5.2969   5.3070   5.3246   5.3329   5.3368
  5.3787   5.3975   5.4059   5.4109   5.4163   5.4312   5.4330   5.4645
  5.4863   5.4989   5.5089   5.5098   5.5135   5.5239   5.5448   5.5586
  5.5613   5.5627   5.5728   5.5777   5.5807   5.5904   5.6062   5.6213
  5.6284   5.6374   5.6534   5.6560   5.6618   5.6766   5.6779   5.6800
  5.7017   5.7074   5.7200   5.7380   5.7551   5.7608   5.7642   5.7775
  5.7803   5.7836   5.8126   5.8225   5.8574   5.8747   5.8905   5.9181
  5.9411   5.9589   5.9817   6.0134   6.0229   6.0248   6.0366   6.0455
  6.0832   6.1014   6.1109   6.1204   6.1271   6.1603   6.1929   6.2114
  6.2186   6.2205   6.2235   6.2611   6.2721   6.2736   6.3041   6.3452
  6.3527   6.3822   6.4002   6.4492   6.4693   6.5264   6.5634   6.5719
  6.5848   6.5908   6.6170   6.6494   6.6540   6.6614   6.7075   6.8323
  6.8440   6.8848   6.8872   6.8978   6.9128   6.9325   6.9972   7.0801
  7.1208   7.1429   7.1880   7.2049   7.2369   7.3334   7.3426   7.3459
  7.3691   7.4691   7.5481   7.5600   7.5747   7.5797   7.6325   7.6353
  7.6770   7.7045   7.7367   8.3457  10.0899  10.3146  11.0972  11.2344
 11.7018  11.7818  12.2391  12.4050  12.4628  12.7209  12.8575  13.1124
 13.2695  13.5753  13.8225  13.9507  14.0337  14.1775  14.2713  14.3781
 14.4335  14.7523  15.3320  15.7224  15.9887
 --------------------------------------------------------------
 
          Ground-State Mulliken Net Atomic Charges

     Atom                 Charge (a.u.)
  ----------------------------------------
      1 C                    -0.146549
      2 C                    -0.108079
      3 C                    -0.033947
      4 C                    -0.005350
      5 H                     0.187342
      6 C                    -0.013601
      7 C                     0.078808
      8 C                     0.012240
      9 C                    -0.061021
     10 C                    -0.154911
     11 C                     0.092721
     12 H                     0.181821
     13 C                     0.360545
     14 C                     0.364334
     15 N                    -0.101149
     16 C                     0.358341
     17 C                     0.390313
     18 N                    -0.091516
     19 O                    -0.465257
     20 O                    -0.476566
     21 O                    -0.482767
     22 O                    -0.472981
     23 C                    -0.201530
     24 H                     0.140728
     25 H                     0.112125
     26 H                     0.112294
     27 C                    -0.197179
     28 H                     0.134741
     29 H                     0.112461
     30 H                     0.111231
     31 H                     0.212232
     32 C                    -0.170568
     33 S                     0.024297
     34 C                    -0.169004
     35 C                    -0.042832
     36 C                    -0.179859
     37 H                     0.191039
     38 H                     0.182956
     39 H                     0.214098
  ----------------------------------------
  Sum of atomic charges =     0.000000

 -----------------------------------------------------------------
                    Cartesian Multipole Moments
 -----------------------------------------------------------------
    Charge (ESU x 10^10)
                 0.0000
    Dipole Moment (Debye)
         X       2.7756      Y       1.8539      Z      -1.4441
       Tot       3.6367
    Quadrupole Moments (Debye-Ang)
        XX    -171.9115     XY       6.2366     YY    -176.6938
        XZ       9.5017     YZ       0.5072     ZZ    -162.4632
    Octopole Moments (Debye-Ang^2)
       XXX    -138.4925    XXY     565.5067    XYY     -33.4592
       YYY    1645.8632    XXZ      -1.1263    XYZ     -32.5313
       YYZ      -6.4839    XZZ     -42.5310    YZZ     513.9595
       ZZZ     -30.8712
    Hexadecapole Moments (Debye-Ang^3)
      XXXX   -4917.6039   XXXY    -159.7186   XXYY   -3833.1716
      XYYY    -785.7966   YYYY  -17160.1761   XXXZ    1311.9257
      XXYZ     -78.5638   XYYZ     676.5275   YYYZ     356.3552
      XXZZ   -1153.0315   XYZZ     -45.4187   YYZZ   -3064.9498
      XZZZ    1234.2301   YZZZ      99.1450   ZZZZ   -1903.1249
 -----------------------------------------------------------------
 Total job time:  302.47s(wall), 8717.98s(cpu) 
 Fri Dec 15 14:02:38 2023

        *************************************************************
        *                                                           *
        *  Thank you very much for using Q-Chem.  Have a nice day.  *
        *                                                           *
        *************************************************************


0 sent ACK to 0 
now end server 0 ... 
cleanup process ... done
remove work dirs ./qchem3629581.0 -- ./qchem3629581.0
rm -rf ./qchem3629581.0
rm -rf ./qchem3629581
