You are running Q-Chem version: 5.4.0

#
# job setting
#
local host:  exp-1-19
current dir: /home/rramji/project-csd799/aromodel/pndit-qchem/rotation_run
input file:  Dimethyl_Naphthalene_Dicarboximide_Phi_10_Theta_250_Thiophene.qcin
output file: 
nprocs     : 1
nthreads   : 64
#
# qchem installation setting
#
QC:          /cm/shared/apps/spack/cpu/opt/spack/linux-centos8-zen2/gcc-10.2.0/qchem-5.4-akfmr7b3t57bfs6qan3padb2wnb2i7cl
QCAUX:       /cm/shared/apps/spack/cpu/opt/spack/linux-centos8-zen2/gcc-10.2.0/qchem-5.4-akfmr7b3t57bfs6qan3padb2wnb2i7cl/qcaux
QCPROG:      /cm/shared/apps/spack/cpu/opt/spack/linux-centos8-zen2/gcc-10.2.0/qchem-5.4-akfmr7b3t57bfs6qan3padb2wnb2i7cl/exe/qcprog.exe
QCPROG_S:    /cm/shared/apps/spack/cpu/opt/spack/linux-centos8-zen2/gcc-10.2.0/qchem-5.4-akfmr7b3t57bfs6qan3padb2wnb2i7cl/exe/qcprog.exe_s
PARALLEL:    -DPARALLEL
QCMPI:       mpich
#
# qchem directory setting
#
qcrun:       qchem443631
QCSCRATCH:   .
QCLOCALSCR:  
QCTMPDIR:    .
QCFILEPREF:  ./qchem443631
QCSAVEDIR:   
workdirs:    ./qchem443631
workdir0:    ./qchem443631
partmpdirs =  
#
# parallel setting
#
QCRSH:           ssh
QCMPI:           mpich
QCMPIRUN:        /cm/shared/apps/spack/cpu/opt/spack/linux-centos8-zen2/gcc-10.2.0/qchem-5.4-akfmr7b3t57bfs6qan3padb2wnb2i7cl/bin/mpi/mpirun_qchem
QCMACHINEFILE:   ./qchem443631/hostfile
exp-1-19

#
# env setting
#
exported envs:   QC QCAUX QCSCRATCH QCRUNNAME QCFILEPREF QCPROG QCPROG_S GUIFILE

Running Job 1 of 1 Dimethyl_Naphthalene_Dicarboximide_Phi_10_Theta_250_Thiophene.qcin
qchem Dimethyl_Naphthalene_Dicarboximide_Phi_10_Theta_250_Thiophene.qcin_443631.0 ./qchem443631/ 1
/cm/shared/apps/spack/cpu/opt/spack/linux-centos8-zen2/gcc-10.2.0/qchem-5.4-akfmr7b3t57bfs6qan3padb2wnb2i7cl/bin/mpi/mpirun_qchem -machinefile ./qchem443631/hostfile -np 1 /cm/shared/apps/spack/cpu/opt/spack/linux-centos8-zen2/gcc-10.2.0/qchem-5.4-akfmr7b3t57bfs6qan3padb2wnb2i7cl/exe/qcprog.exe Dimethyl_Naphthalene_Dicarboximide_Phi_10_Theta_250_Thiophene.qcin_443631.0 ./qchem443631/

Process 0 of 1 is on exp-1-19 - thread support 0
initial socket setup ...start
initial socket setup ...done 
now start server 0 ... 
                  Welcome to Q-Chem
     A Quantum Leap Into The Future Of Chemistry


 Q-Chem 5.4, Q-Chem, Inc., Pleasanton, CA (2021)

 License issued to: University of California, San Diego (site)

 E. Epifanovsky,  A. T. B. Gilbert,  Xintian Feng,  Joonho Lee,  Yuezhi Mao,  
 N. Mardirossian,  P. Pokhilko,  A. White,  M. Wormit,  M. P. Coons,  
 A. L. Dempwolff,  Zhengting Gan,  D. Hait,  P. R. Horn,  L. D. Jacobson,  
 I. Kaliman,  J. Kussmann,  A. W. Lange,  Ka Un Lao,  D. S. Levine,  Jie Liu,  
 S. C. McKenzie,  A. F. Morrison,  K. Nanda,  F. Plasser,  D. R. Rehn,  
 M. L. Vidal,  Zhi-Qiang You,  Ying Zhu,  B. Alam,  B. Albrecht,  
 A. Aldossary,  E. Alguire,  J. H. Andersen,  D. Barton,  K. Begam,  A. Behn,  
 Y. A. Bernard,  E. J. Berquist,  H. Burton,  A. Carreras,  K. Carter-Fenk,  
 R. Chakraborty,  A. D. Chien,  K. D. Closser,  V. Cofer-Shabica,  
 S. Dasgupta,  Jia Deng,  M. de Wergifosse,  M. Diedenhofen,  Hainam Do,  
 S. Ehlert,  Po-Tung Fang,  S. Fatehi,  Qingguo Feng,  J. Gayvert,  
 Qinghui Ge,  G. Gidofalvi,  M. Goldey,  J. Gomes,  C. Gonzalez-Espinoza,  
 S. Gulania,  A. Gunina,  M. W. D. Hanson-Heine,  P. H. P. Harbach,  
 A. W. Hauser,  M. F. Herbst,  M. Hernandez Vera,  M. Hodecker,  
 Z. C. Holden,  S. Houck,  Xunkun Huang,  Kerwin Hui,  B. C. Huynh,  
 M. Ivanov,  Hyunjun Ji,  Hanjie Jiang,  B. Kaduk,  S. Kaehler,  
 K. Khistyaev,  Jaehoon Kim,  P. Klunzinger,  Z. Koczor-Benda,  
 Joong Hoon Koh,  D. Kosenkov,  L. Koulias,  T. Kowalczyk,  C. M. Krauter,  
 K. Kue,  A. Kunitsa,  T. Kus,  A. Landau,  K. V. Lawler,  D. Lefrancois,  
 S. Lehtola,  Rain Li,  Yi-Pei Li,  Jiashu Liang,  M. Liebenthal,  
 Hung-Hsuan Lin,  You-Sheng Lin,  Fenglai Liu,  Kuan-Yu Liu,  
 M. Loipersberger,  A. Luenser,  A. Manjanath,  P. Manohar,  E. Mansoor,  
 S. F. Manzer,  Shan-Ping Mao,  A. V. Marenich,  T. Markovich,  S. Mason,  
 S. A. Maurer,  P. F. McLaughlin,  M. F. S. J. Menger,  J.-M. Mewes,  
 S. A. Mewes,  P. Morgante,  J. W. Mullinax,  T. S. Nguyen-Beck,  
 K. J. Oosterbaan,  G. Paran,  Alexander C. Paul,  Suranjan K. Paul,  
 F. Pavosevic,  Zheng Pei,  S. Prager,  E. I. Proynov,  E. Ramos,  B. Rana,  
 A. E. Rask,  A. Rettig,  R. M. Richard,  F. Rob,  E. Rossomme,  T. Scheele,  
 M. Scheurer,  M. Schneider,  N. Sergueev,  S. M. Sharada,  W. Skomorowski,  
 D. W. Small,  C. J. Stein,  Yu-Chuan Su,  E. J. Sundstrom,  Zhen Tao,  
 J. Thirman,  T. Tsuchimochi,  N. M. Tubman,  S. P. Veccham,  O. Vydrov,  
 J. Wenzel,  J. Witte,  A. Yamada,  Kun Yao,  S. Yeganeh,  S. R. Yost,  
 A. Zech,  Igor Ying Zhang,  Xing Zhang,  Yu Zhang,  D. Zuev,  
 A. Aspuru-Guzik,  A. T. Bell,  N. A. Besley,  K. B. Bravaya,  B. R. Brooks,  
 D. Casanova,  Jeng-Da Chai,  S. Coriani,  C. J. Cramer,  
 A. E. DePrince, III,  R. A. DiStasio Jr.,  A. Dreuw,  B. D. Dunietz,  
 T. R. Furlani,  W. A. Goddard III,  S. Grimme,  S. Hammes-Schiffer,  
 T. Head-Gordon,  W. J. Hehre,  Chao-Ping Hsu,  T.-C. Jagau,  Yousung Jung,  
 A. Klamt,  Jing Kong,  D. S. Lambrecht,  WanZhen Liang,  N. J. Mayhall,  
 C. W. McCurdy,  J. B. Neaton,  C. Ochsenfeld,  J. A. Parkhill,  R. Peverati,  
 V. A. Rassolov,  Yihan Shao,  L. V. Slipchenko,  T. Stauch,  R. P. Steele,  
 J. E. Subotnik,  A. J. W. Thom,  A. Tkatchenko,  D. G. Truhlar,  
 T. Van Voorhis,  T. A. Wesolowski,  K. B. Whaley,  H. L. Woodcock III,  
 P. M. Zimmerman,  S. Faraji,  P. M. W. Gill,  M. Head-Gordon,  
 J. M. Herbert,  A. I. Krylov

 Contributors to earlier versions of Q-Chem not listed above: 
 R. D. Adamson,  B. Austin,  R. Baer,  J. Baker,  G. J. O. Beran,  
 K. Brandhorst,  S. T. Brown,  E. F. C. Byrd,  A. K. Chakraborty,  
 G. K. L. Chan,  Chun-Min Chang,  Yunqing Chen,  C.-L. Cheng,  
 Siu Hung Chien,  D. M. Chipman,  D. L. Crittenden,  H. Dachsel,  
 R. J. Doerksen,  A. D. Dutoi,  R. G. Edgar,  J. Fosso-Tande,  
 L. Fusti-Molnar,  D. Ghosh,  A. Ghysels,  A. Golubeva-Zadorozhnaya,  
 J. Gonthier,  M. S. Gordon,  S. R. Gwaltney,  G. Hawkins,  J. E. Herr,  
 A. Heyden,  S. Hirata,  E. G. Hohenstein,  G. Kedziora,  F. J. Keil,  
 C. Kelley,  Jihan Kim,  R. A. King,  R. Z. Khaliullin,  P. P. Korambath,  
 W. Kurlancheek,  A. Laurent,  A. M. Lee,  M. S. Lee,  S. V. Levchenko,  
 Ching Yeh Lin,  D. Liotard,  E. Livshits,  R. C. Lochan,  I. Lotan,  
 L. A. Martinez-Martinez,  P. E. Maslen,  N. Nair,  D. P. O'Neill,  
 D. Neuhauser,  E. Neuscamman,  C. M. Oana,  R. Olivares-Amaya,  R. Olson,  
 T. M. Perrine,  B. Peters,  P. A. Pieniazek,  A. Prociuk,  Y. M. Rhee,  
 J. Ritchie,  M. A. Rohrdanz,  E. Rosta,  N. J. Russ,  H. F. Schaefer III,  
 M. W. Schmidt,  N. E. Schultz,  S. Sharma,  N. Shenvi,  C. D. Sherrill,  
 A. C. Simmonett,  A. Sodt,  T. Stein,  D. Stuck,  K. S. Thanthiriwatte,  
 V. Vanovschi,  L. Vogt,  Tao Wang,  A. Warshel,  M. A. Watson,  
 C. F. Williams,  Q. Wu,  X. Xu,  Jun Yang,  W. Zhang,  Yan Zhao

 Please cite Q-Chem as follows:
 Y. Shao et al., Mol. Phys. 113, 184-215 (2015)
 DOI: 10.1080/00268976.2014.952696

 Q-Chem 5.4.0 for Intel X86 EM64T Linux

 Parts of Q-Chem use Armadillo 9.800.1 (Horizon Scraper).
 http://arma.sourceforge.net/

 Q-Chem begins on Fri Dec 15 15:22:33 2023  

 Host: 
0

     Scratch files written to ./qchem443631//
 May1621 |scratch|qcdevops|jenkins|workspace|build_RNUM    
 Parallel job on  1  processors
 Processing $rem in /cm/shared/apps/spack/cpu/opt/spack/linux-centos8-zen2/gcc-10.2.0/qchem-5.4-akfmr7b3t57bfs6qan3padb2wnb2i7cl/config/preferences:
 Processing $rem in /home/rramji/.qchemrc:
 Symmetry turned off for PCM/SM12/SMD calculation
 Core orbitals will be frozen

 Checking the input file for inconsistencies... 	...done.

 Q-Chem warning in module forms1/BasisType.C, line 2236:

 You are not using the predefined 5D/6D in this basis set.


--------------------------------------------------------------
User input:
--------------------------------------------------------------
$molecule
0 1
C	-0.240927	-6.741404	0.089263
C	-1.467886	-6.155638	0.535973
C	0.777972	-5.791452	-0.281103
C	-1.729742	-4.803786	0.631036
H	-2.292903	-6.821518	0.836458
C	0.503614	-4.378638	-0.181995
C	-0.746756	-3.838032	0.272725
C	1.485437	-3.413062	-0.539954
C	-1.018915	-2.426473	0.371053
C	1.226557	-2.059348	-0.446381
C	-0.000000	-1.478216	-0.000000
H	2.052413	-1.394783	-0.747410
C	2.134128	-6.187987	-0.772747
C	2.829820	-3.798164	-1.029154
N	3.059182	-5.170003	-1.110828
C	-3.077731	-4.424987	1.121728
C	-2.375694	-2.036627	0.864069
N	-3.301101	-3.049156	1.201928
O	2.502830	-7.353131	-0.903908
O	3.697078	-2.986854	-1.345809
O	-3.934752	-5.248946	1.434422
O	-2.764177	-0.878829	1.003943
C	4.386939	-5.563799	-1.592981
H	4.429822	-6.664085	-1.607367
H	5.164489	-5.147101	-0.924504
H	4.553486	-5.148785	-2.605446
C	-4.608481	-2.587487	1.677308
H	-5.211969	-3.483329	1.898089
H	-5.094624	-1.964972	0.902337
H	-4.483092	-1.962932	2.582098
H	-0.066080	-7.822318	0.025963
C	0.000000	0.000000	0.000000
S	0.137535	0.781156	1.580530
C	0.421895	2.393994	0.904911
C	0.173134	0.982857	-0.985400
C	0.402294	2.283058	-0.493528
H	0.132237	0.750786	-2.059934
H	0.555196	3.150621	-1.152593
H	0.574741	3.261310	1.556025
$end

$rem
JOBTYPE		SP
EXCHANGE	HF
CORRELATION	pRIMP2
BASIS		cc-pvtz
METHOD		rimp2
AUX_BASIS	rimp2-cc-pvtz
SOLVENT_METHOD	PCM
PURECART	11111
SYMMETRY	false
MEM_TOTAL	110000
SCF_CONVERGENCE = 6
THRESH=10
GUI = 2
$end



$solvent
dielectric 4.90
$end
--------------------------------------------------------------
 ----------------------------------------------------------------
             Standard Nuclear Orientation (Angstroms)
    I     Atom           X                Y                Z
 ----------------------------------------------------------------
    1      C      -0.2409270000    -6.7414040000     0.0892630000
    2      C      -1.4678860000    -6.1556380000     0.5359730000
    3      C       0.7779720000    -5.7914520000    -0.2811030000
    4      C      -1.7297420000    -4.8037860000     0.6310360000
    5      H      -2.2929030000    -6.8215180000     0.8364580000
    6      C       0.5036140000    -4.3786380000    -0.1819950000
    7      C      -0.7467560000    -3.8380320000     0.2727250000
    8      C       1.4854370000    -3.4130620000    -0.5399540000
    9      C      -1.0189150000    -2.4264730000     0.3710530000
   10      C       1.2265570000    -2.0593480000    -0.4463810000
   11      C       0.0000000000    -1.4782160000     0.0000000000
   12      H       2.0524130000    -1.3947830000    -0.7474100000
   13      C       2.1341280000    -6.1879870000    -0.7727470000
   14      C       2.8298200000    -3.7981640000    -1.0291540000
   15      N       3.0591820000    -5.1700030000    -1.1108280000
   16      C      -3.0777310000    -4.4249870000     1.1217280000
   17      C      -2.3756940000    -2.0366270000     0.8640690000
   18      N      -3.3011010000    -3.0491560000     1.2019280000
   19      O       2.5028300000    -7.3531310000    -0.9039080000
   20      O       3.6970780000    -2.9868540000    -1.3458090000
   21      O      -3.9347520000    -5.2489460000     1.4344220000
   22      O      -2.7641770000    -0.8788290000     1.0039430000
   23      C       4.3869390000    -5.5637990000    -1.5929810000
   24      H       4.4298220000    -6.6640850000    -1.6073670000
   25      H       5.1644890000    -5.1471010000    -0.9245040000
   26      H       4.5534860000    -5.1487850000    -2.6054460000
   27      C      -4.6084810000    -2.5874870000     1.6773080000
   28      H      -5.2119690000    -3.4833290000     1.8980890000
   29      H      -5.0946240000    -1.9649720000     0.9023370000
   30      H      -4.4830920000    -1.9629320000     2.5820980000
   31      H      -0.0660800000    -7.8223180000     0.0259630000
   32      C       0.0000000000     0.0000000000     0.0000000000
   33      S       0.1375350000     0.7811560000     1.5805300000
   34      C       0.4218950000     2.3939940000     0.9049110000
   35      C       0.1731340000     0.9828570000    -0.9854000000
   36      C       0.4022940000     2.2830580000    -0.4935280000
   37      H       0.1322370000     0.7507860000    -2.0599340000
   38      H       0.5551960000     3.1506210000    -1.1525930000
   39      H       0.5747410000     3.2613100000     1.5560250000
 ----------------------------------------------------------------
 Nuclear Repulsion Energy =        2492.94012168 hartrees
 There are       97 alpha and       97 beta electrons
 Requested basis set is cc-pVTZ
 There are 344 shells and 982 basis functions

 Total QAlloc Memory Limit 110000 MB
 Mega-Array Size       188 MB
 MEM_STATIC part       192 MB
 Discretize the solute cavity surface with Lebedev spheres
	Using 110 Lebedev grid points for each H atom
	Using 194 Lebedev grid points for other atoms
	Atomic van der Waals radii will be scaled by 1.20
 Remove points where switching function is < 1.0e-08
 Keep 2560 surface tesserae and discard 3998 interior tesserae
 Molecular Surface Area = 369.818 Angst**2
 Requested basis set is rimp2-cc-pVTZ
 There are 750 shells and 2588 basis functions
 A cutoff of  1.0D-10 yielded  31526 shell pairs
 There are    242630 function pairs (    315280 Cartesian)
 Smallest overlap matrix eigenvalue = 9.44E-06

 Q-Chem warning in module stvman/mkSTV.C, line 323:

 Overlap eigenvalue is smaller than square root of threshold
 Use THRESH >= 12 to get rid of this warning


 Scale SEOQF with 1.000000e-01/1.000000e-02/1.000000e-01

 Standard Electronic Orientation quadrupole field applied
 Nucleus-field energy     =     0.0000000401 hartrees
 Guess from superposition of atomic densities
 Warning:  Energy on first SCF cycle will be non-variational
 SAD guess density has 194.000000 electrons

 -----------------------------------------------------------------------
  General SCF calculation program by
  Eric Jon Sundstrom, Paul Horn, Yuezhi Mao, Dmitri Zuev, Alec White,
  David Stuck, Shaama M.S., Shane Yost, Joonho Lee, David Small,
  Daniel Levine, Susi Lehtola, Hugh Burton, Evgeny Epifanovsky,
  Bang C. Huynh
 -----------------------------------------------------------------------
 Hartree-Fock
 using 64 threads for integral computing
 -------------------------------------------------------
 OpenMP Integral computing Module                
 Release: version 1.0, May 2013, Q-Chem Inc. Pittsburgh 
 -------------------------------------------------------
 A restricted SCF calculation will be
 performed using DIIS
 SCF converges when DIIS error is below 1.0e-06
 ---------------------------------------
  Cycle       Energy         DIIS error
 ---------------------------------------
    1   -1581.2766779363      1.87e-02  
    2   -1570.1181695513      2.09e-03  
    3   -1570.4445914447      1.63e-03  
    4   -1570.6765782106      2.56e-04  
    5   -1570.6885314589      7.51e-05  
    6   -1570.6895644326      2.77e-05  
    7   -1570.6897962135      1.43e-05  
    8   -1570.6898698800      5.85e-06  
    9   -1570.6898813090      2.29e-06  
   10   -1570.6898832095      7.06e-07  Convergence criterion met
 ---------------------------------------
 SCF time:   CPU 6196.24s  wall 342.00s 

************** Final PCM Free Energy Summary **************
 G_electrostatic  =      -0.02525091 hartree =     -15.84518352 kcal/mol
 G_cavitation     =       0.00000000 hartree =       0.00000000 kcal/mol
 G_dispersion     =       0.00000000 hartree =       0.00000000 kcal/mol
 G_repulsion      =       0.00000000 hartree =       0.00000000 kcal/mol
 --------------------------------------------------
 Non-electrostatic Free Energy =       0.00000000 hartree =       0.00000000 kcal/mol
 Total                         =      -0.02525091 hartree =     -15.84518352 kcal/mol
 --------------------------------------------------
 SCF Energy (H0 + V/2)                       =   -1570.68988321 
 Solute Internal Energy (H0)                 =   -1570.66463230 
 Total Free Energy (H0 + V/2 + non-elec)     =   -1570.68988321 hartree
                                             = -985622.77771786 kcal/mol
***********************************************************

 SCF   energy in the final basis set =    -1570.6898832095
 Total energy in the final basis set =    -1570.6898832095


 --------------------------------------------------------------
  Generalized many-body perturbation theory program
  by Joonho Lee, Fazle Rob, Xintian Feng, Evgeny Epifanovsky

 No regularization used 
 (reg. param. = 0.0000e+00)
  (P|Q)^-1/2 Time:  CPU 177.02 s  wall 3.49 s

 In RI-MP2 calculation: 
 # of frozen core orbitals: 31

 Components of the RIMP2 correlation energy:
        aaaa    correlation energy =        -0.6161230405 a.u.
        abab    correlation energy =        -3.3918073677 a.u.
        bbbb    correlation energy =        -0.6161230405 a.u.
        non-Brillouin singles      =        -0.0000000000 a.u.
        total same-spin energy     =        -1.2322460810 a.u.
        total opposite-spin energy =        -3.3918073677 a.u.

 Total  RIMP2   correlation energy =        -4.6240534488 a.u.
        RIMP2         total energy =     -1575.3139366583 a.u.

 RI-MP2 Energy Time:  CPU 2944.67 s  wall 50.34 s
 
 --------------------------------------------------------------
 
                    Orbital Energies (a.u.)
 --------------------------------------------------------------
 
 Alpha MOs
 -- Occupied --
-91.9904 -20.5589 -20.5572 -20.5566 -20.5556 -15.6316 -15.6313 -11.4006
-11.3973 -11.3932 -11.3910 -11.3165 -11.3077 -11.3034 -11.3016 -11.2998
-11.2992 -11.2938 -11.2872 -11.2866 -11.2811 -11.2811 -11.2792 -11.2648
-11.2647 -11.2561 -11.2498  -8.9897  -6.6705  -6.6700  -6.6694  -1.4253
 -1.4246  -1.4046  -1.4036  -1.2680  -1.2657  -1.2185  -1.1749  -1.1446
 -1.1185  -1.0636  -1.0508  -0.9935  -0.9895  -0.9830  -0.9596  -0.9487
 -0.8978  -0.8800  -0.8785  -0.8615  -0.7958  -0.7777  -0.7737  -0.7606
 -0.7358  -0.7194  -0.7055  -0.6953  -0.6817  -0.6739  -0.6668  -0.6626
 -0.6575  -0.6425  -0.6381  -0.6343  -0.6305  -0.6132  -0.5853  -0.5848
 -0.5784  -0.5728  -0.5666  -0.5645  -0.5635  -0.5555  -0.5534  -0.5487
 -0.5335  -0.5262  -0.5196  -0.5183  -0.4838  -0.4715  -0.4670  -0.4610
 -0.4593  -0.4538  -0.4287  -0.4185  -0.4093  -0.3578  -0.3511  -0.3358
 -0.3188
 -- Virtual --
 -0.0203   0.0631   0.0712   0.0974   0.1161   0.1550   0.1579   0.1588
  0.1652   0.1672   0.1774   0.1822   0.1846   0.1948   0.2028   0.2068
  0.2145   0.2223   0.2277   0.2293   0.2326   0.2387   0.2584   0.2611
  0.2642   0.3051   0.3072   0.3146   0.3169   0.3212   0.3234   0.3349
  0.3406   0.3432   0.3513   0.3575   0.3588   0.3616   0.3707   0.3742
  0.3782   0.3814   0.3872   0.3920   0.3976   0.4023   0.4055   0.4096
  0.4144   0.4249   0.4301   0.4356   0.4423   0.4455   0.4507   0.4542
  0.4595   0.4609   0.4644   0.4692   0.4714   0.4815   0.4869   0.4911
  0.4947   0.5018   0.5039   0.5108   0.5141   0.5250   0.5259   0.5286
  0.5336   0.5387   0.5492   0.5515   0.5524   0.5568   0.5600   0.5642
  0.5698   0.5706   0.5762   0.5815   0.5893   0.5925   0.5985   0.5992
  0.6005   0.6040   0.6099   0.6164   0.6185   0.6236   0.6267   0.6298
  0.6335   0.6337   0.6353   0.6386   0.6415   0.6459   0.6514   0.6650
  0.6689   0.6753   0.6912   0.6944   0.6979   0.7044   0.7088   0.7131
  0.7252   0.7329   0.7334   0.7379   0.7481   0.7558   0.7597   0.7611
  0.7651   0.7709   0.7782   0.7890   0.7974   0.8012   0.8085   0.8125
  0.8143   0.8245   0.8334   0.8372   0.8412   0.8435   0.8485   0.8581
  0.8636   0.8641   0.8660   0.8747   0.8829   0.8900   0.8949   0.9034
  0.9098   0.9169   0.9187   0.9228   0.9307   0.9332   0.9380   0.9434
  0.9456   0.9518   0.9588   0.9639   0.9707   0.9741   0.9787   0.9849
  0.9892   0.9952   0.9998   1.0020   1.0119   1.0133   1.0227   1.0277
  1.0298   1.0344   1.0420   1.0466   1.0588   1.0638   1.0691   1.0738
  1.0771   1.0799   1.0827   1.0892   1.0949   1.0979   1.1035   1.1070
  1.1241   1.1275   1.1309   1.1388   1.1454   1.1476   1.1536   1.1573
  1.1607   1.1610   1.1707   1.1752   1.1781   1.1863   1.1931   1.1965
  1.1996   1.2124   1.2165   1.2206   1.2242   1.2317   1.2340   1.2350
  1.2405   1.2476   1.2499   1.2586   1.2603   1.2688   1.2898   1.2977
  1.3082   1.3239   1.3254   1.3340   1.3405   1.3437   1.3450   1.3570
  1.3656   1.3768   1.3825   1.3834   1.3881   1.4016   1.4132   1.4177
  1.4207   1.4254   1.4362   1.4434   1.4460   1.4498   1.4567   1.4686
  1.4805   1.4830   1.4879   1.4911   1.4974   1.5034   1.5097   1.5130
  1.5193   1.5312   1.5337   1.5421   1.5477   1.5533   1.5586   1.5627
  1.5651   1.5767   1.5783   1.5869   1.6018   1.6103   1.6155   1.6301
  1.6328   1.6418   1.6524   1.6596   1.6623   1.6692   1.6767   1.6889
  1.6965   1.7046   1.7137   1.7153   1.7285   1.7367   1.7419   1.7465
  1.7501   1.7563   1.7686   1.7760   1.7876   1.7973   1.8015   1.8086
  1.8108   1.8309   1.8338   1.8379   1.8524   1.8557   1.8607   1.8611
  1.8634   1.8801   1.8961   1.9136   1.9181   1.9257   1.9408   1.9452
  1.9629   1.9685   1.9727   1.9783   1.9854   2.0027   2.0128   2.0339
  2.0356   2.0463   2.0614   2.0620   2.0798   2.1104   2.1172   2.1305
  2.1429   2.1558   2.1641   2.1681   2.1990   2.2077   2.2140   2.2156
  2.2305   2.2330   2.2540   2.2595   2.2820   2.2885   2.2922   2.2986
  2.3159   2.3182   2.3262   2.3368   2.3515   2.3609   2.3662   2.3887
  2.4034   2.4246   2.4332   2.4388   2.4444   2.4497   2.4561   2.4610
  2.4744   2.4850   2.4899   2.4977   2.5092   2.5204   2.5205   2.5353
  2.5472   2.5603   2.5733   2.5796   2.5847   2.5906   2.6002   2.6015
  2.6146   2.6166   2.6194   2.6472   2.6513   2.6521   2.6631   2.6656
  2.6741   2.6805   2.6896   2.6944   2.7075   2.7126   2.7131   2.7227
  2.7336   2.7371   2.7439   2.7489   2.7556   2.7671   2.7799   2.7860
  2.7987   2.8081   2.8223   2.8259   2.8350   2.8372   2.8495   2.8552
  2.8619   2.8681   2.8728   2.8758   2.8880   2.8931   2.9023   2.9067
  2.9100   2.9189   2.9256   2.9312   2.9480   2.9527   2.9579   2.9703
  2.9749   2.9797   2.9806   2.9972   3.0004   3.0015   3.0046   3.0156
  3.0176   3.0276   3.0334   3.0403   3.0456   3.0625   3.0664   3.0714
  3.0853   3.0894   3.0952   3.1007   3.1062   3.1102   3.1176   3.1254
  3.1274   3.1355   3.1432   3.1544   3.1620   3.1687   3.1700   3.1795
  3.1888   3.1954   3.2001   3.2057   3.2089   3.2130   3.2180   3.2188
  3.2254   3.2313   3.2356   3.2376   3.2474   3.2532   3.2556   3.2610
  3.2668   3.2686   3.2787   3.2802   3.2855   3.2880   3.2923   3.2988
  3.3038   3.3135   3.3200   3.3230   3.3243   3.3281   3.3322   3.3351
  3.3397   3.3417   3.3482   3.3531   3.3583   3.3609   3.3651   3.3711
  3.3781   3.3792   3.3850   3.3942   3.3976   3.4027   3.4117   3.4227
  3.4271   3.4293   3.4338   3.4424   3.4455   3.4462   3.4523   3.4555
  3.4600   3.4617   3.4722   3.4749   3.4793   3.4816   3.4825   3.4926
  3.4972   3.4997   3.5030   3.5044   3.5086   3.5145   3.5191   3.5285
  3.5353   3.5367   3.5423   3.5459   3.5588   3.5667   3.5694   3.5796
  3.5858   3.5871   3.5931   3.6028   3.6100   3.6107   3.6262   3.6290
  3.6325   3.6367   3.6416   3.6429   3.6526   3.6649   3.6659   3.6797
  3.6870   3.6897   3.6943   3.6997   3.7023   3.7120   3.7142   3.7175
  3.7239   3.7306   3.7354   3.7410   3.7477   3.7538   3.7578   3.7665
  3.7678   3.7757   3.7806   3.7839   3.7899   3.7942   3.7983   3.8003
  3.8062   3.8099   3.8263   3.8351   3.8421   3.8480   3.8522   3.8549
  3.8577   3.8743   3.8768   3.8800   3.8928   3.8976   3.9093   3.9159
  3.9273   3.9331   3.9412   3.9470   3.9516   3.9544   3.9645   3.9690
  3.9880   3.9887   3.9993   4.0045   4.0073   4.0175   4.0245   4.0340
  4.0522   4.0610   4.0660   4.0833   4.0871   4.0962   4.1005   4.1118
  4.1199   4.1228   4.1309   4.1362   4.1432   4.1557   4.1636   4.1665
  4.1819   4.1826   4.1854   4.1924   4.2000   4.2096   4.2224   4.2376
  4.2428   4.2517   4.2546   4.2627   4.2682   4.2780   4.2788   4.2877
  4.2942   4.2961   4.3031   4.3066   4.3143   4.3274   4.3322   4.3360
  4.3415   4.3518   4.3621   4.3630   4.3668   4.3682   4.3729   4.3796
  4.3919   4.3997   4.4007   4.4025   4.4077   4.4188   4.4229   4.4264
  4.4435   4.4640   4.4657   4.4837   4.4909   4.5074   4.5141   4.5156
  4.5210   4.5262   4.5296   4.5369   4.5403   4.5511   4.5677   4.5718
  4.5763   4.5792   4.5867   4.5940   4.6018   4.6074   4.6232   4.6299
  4.6422   4.6602   4.6640   4.6656   4.6698   4.6781   4.6883   4.6930
  4.7100   4.7246   4.7296   4.7397   4.7569   4.7579   4.7700   4.7975
  4.8172   4.8243   4.8346   4.8382   4.8468   4.8573   4.8672   4.8683
  4.8832   4.8930   4.9030   4.9217   4.9311   4.9539   4.9776   4.9798
  4.9897   4.9975   5.0192   5.0324   5.0429   5.0497   5.0502   5.0572
  5.0935   5.1000   5.1028   5.1108   5.1219   5.1245   5.1421   5.1452
  5.1648   5.1791   5.1825   5.1883   5.1973   5.2158   5.2340   5.2558
  5.2597   5.2718   5.2783   5.2921   5.3213   5.3287   5.3320   5.3412
  5.3483   5.3818   5.3954   5.4017   5.4164   5.4296   5.4394   5.4431
  5.4916   5.5063   5.5080   5.5089   5.5123   5.5243   5.5455   5.5542
  5.5551   5.5598   5.5698   5.5733   5.5771   5.5890   5.6032   5.6053
  5.6216   5.6291   5.6513   5.6528   5.6542   5.6734   5.6764   5.6865
  5.6948   5.6998   5.7312   5.7370   5.7488   5.7544   5.7587   5.7687
  5.7738   5.7758   5.8131   5.8280   5.8438   5.8506   5.8820   5.9246
  5.9389   5.9577   6.0026   6.0169   6.0211   6.0266   6.0284   6.0489
  6.0832   6.0995   6.1007   6.1115   6.1158   6.1614   6.1929   6.2059
  6.2171   6.2176   6.2204   6.2531   6.2615   6.2676   6.2986   6.3390
  6.3500   6.3848   6.4316   6.4435   6.4637   6.5208   6.5615   6.5682
  6.5847   6.5960   6.6335   6.6467   6.6585   6.6696   6.7065   6.8284
  6.8309   6.8775   6.8856   6.8930   6.9108   6.9213   6.9231   7.0769
  7.0976   7.1385   7.1826   7.1865   7.2260   7.3319   7.3400   7.3438
  7.3513   7.4651   7.5416   7.5562   7.5710   7.5726   7.5843   7.6328
  7.6643   7.6791   7.7198   8.3244   9.9031  10.2875  11.1103  11.2359
 11.6333  11.7186  11.9456  12.3534  12.4480  12.7087  12.8461  12.8793
 13.2724  13.5534  13.8044  13.9260  14.0130  14.1179  14.2003  14.3399
 14.4074  14.7139  15.3031  15.7230  15.9942
 --------------------------------------------------------------
 
          Ground-State Mulliken Net Atomic Charges

     Atom                 Charge (a.u.)
  ----------------------------------------
      1 C                    -0.130259
      2 C                    -0.108260
      3 C                    -0.043592
      4 C                    -0.000039
      5 H                     0.189167
      6 C                     0.001055
      7 C                     0.072035
      8 C                     0.004289
      9 C                    -0.018447
     10 C                    -0.109336
     11 C                     0.040479
     12 H                     0.186009
     13 C                     0.360799
     14 C                     0.365998
     15 N                    -0.101926
     16 C                     0.359982
     17 C                     0.351277
     18 N                    -0.097531
     19 O                    -0.464677
     20 O                    -0.476283
     21 O                    -0.479683
     22 O                    -0.456777
     23 C                    -0.201003
     24 H                     0.141098
     25 H                     0.112665
     26 H                     0.112348
     27 C                    -0.195811
     28 H                     0.133646
     29 H                     0.113424
     30 H                     0.113467
     31 H                     0.214664
     32 C                    -0.017739
     33 S                     0.037881
     34 C                    -0.211034
     35 C                    -0.192559
     36 C                    -0.199365
     37 H                     0.191432
     38 H                     0.191745
     39 H                     0.210865
  ----------------------------------------
  Sum of atomic charges =     0.000000

 -----------------------------------------------------------------
                    Cartesian Multipole Moments
 -----------------------------------------------------------------
    Charge (ESU x 10^10)
                 0.0000
    Dipole Moment (Debye)
         X       0.2720      Y       0.7032      Z      -0.8755
       Tot       1.1554
    Quadrupole Moments (Debye-Ang)
        XX    -181.6285     XY       2.9551     YY    -164.0614
        XZ       6.4976     YZ       0.3743     ZZ    -159.8377
    Octopole Moments (Debye-Ang^2)
       XXX      24.7401    XXY     535.7833    XYY       6.1017
       YYY    1579.3919    XXZ     -24.5523    XYZ     -24.7682
       YYZ     -12.9115    XZZ       9.4361    YZZ     487.7235
       ZZZ     -71.7625
    Hexadecapole Moments (Debye-Ang^3)
      XXXX   -5468.5936   XXXY     -12.7411   XXYY   -4057.6248
      XYYY     735.0082   YYYY  -17059.5699   XXXZ     990.6578
      XXYZ      52.2468   XYYZ     498.7547   YYYZ    -295.7225
      XXZZ   -1096.5476   XYZZ      63.9936   YYZZ   -2874.8884
      XZZZ     917.2590   YZZZ    -146.9316   ZZZZ   -1128.2085
 -----------------------------------------------------------------
 Total job time:  404.12s(wall), 9349.94s(cpu) 
 Fri Dec 15 15:29:17 2023

        *************************************************************
        *                                                           *
        *  Thank you very much for using Q-Chem.  Have a nice day.  *
        *                                                           *
        *************************************************************


0 sent ACK to 0 
now end server 0 ... 
cleanup process ... done
remove work dirs ./qchem443631.0 -- ./qchem443631.0
rm -rf ./qchem443631.0
rm -rf ./qchem443631
