You are running Q-Chem version: 5.4.0

#
# job setting
#
local host:  exp-1-56
current dir: /home/rramji/project-csd799/aromodel/pndit-qchem/rotation_run
input file:  Dimethyl_Naphthalene_Dicarboximide_Phi_20_Theta_70_Thiophene.qcin
output file: 
nprocs     : 1
nthreads   : 64
#
# qchem installation setting
#
QC:          /cm/shared/apps/spack/cpu/opt/spack/linux-centos8-zen2/gcc-10.2.0/qchem-5.4-akfmr7b3t57bfs6qan3padb2wnb2i7cl
QCAUX:       /cm/shared/apps/spack/cpu/opt/spack/linux-centos8-zen2/gcc-10.2.0/qchem-5.4-akfmr7b3t57bfs6qan3padb2wnb2i7cl/qcaux
QCPROG:      /cm/shared/apps/spack/cpu/opt/spack/linux-centos8-zen2/gcc-10.2.0/qchem-5.4-akfmr7b3t57bfs6qan3padb2wnb2i7cl/exe/qcprog.exe
QCPROG_S:    /cm/shared/apps/spack/cpu/opt/spack/linux-centos8-zen2/gcc-10.2.0/qchem-5.4-akfmr7b3t57bfs6qan3padb2wnb2i7cl/exe/qcprog.exe_s
PARALLEL:    -DPARALLEL
QCMPI:       mpich
#
# qchem directory setting
#
qcrun:       qchem3161409
QCSCRATCH:   .
QCLOCALSCR:  
QCTMPDIR:    .
QCFILEPREF:  ./qchem3161409
QCSAVEDIR:   
workdirs:    ./qchem3161409
workdir0:    ./qchem3161409
partmpdirs =  
#
# parallel setting
#
QCRSH:           ssh
QCMPI:           mpich
QCMPIRUN:        /cm/shared/apps/spack/cpu/opt/spack/linux-centos8-zen2/gcc-10.2.0/qchem-5.4-akfmr7b3t57bfs6qan3padb2wnb2i7cl/bin/mpi/mpirun_qchem
QCMACHINEFILE:   ./qchem3161409/hostfile
exp-1-56

#
# env setting
#
exported envs:   QC QCAUX QCSCRATCH QCRUNNAME QCFILEPREF QCPROG QCPROG_S GUIFILE

Running Job 1 of 1 Dimethyl_Naphthalene_Dicarboximide_Phi_20_Theta_70_Thiophene.qcin
qchem Dimethyl_Naphthalene_Dicarboximide_Phi_20_Theta_70_Thiophene.qcin_3161409.0 ./qchem3161409/ 1
/cm/shared/apps/spack/cpu/opt/spack/linux-centos8-zen2/gcc-10.2.0/qchem-5.4-akfmr7b3t57bfs6qan3padb2wnb2i7cl/bin/mpi/mpirun_qchem -machinefile ./qchem3161409/hostfile -np 1 /cm/shared/apps/spack/cpu/opt/spack/linux-centos8-zen2/gcc-10.2.0/qchem-5.4-akfmr7b3t57bfs6qan3padb2wnb2i7cl/exe/qcprog.exe Dimethyl_Naphthalene_Dicarboximide_Phi_20_Theta_70_Thiophene.qcin_3161409.0 ./qchem3161409/

Process 0 of 1 is on exp-1-56 - thread support 0
initial socket setup ...start
initial socket setup ...done 
now start server 0 ... 
                  Welcome to Q-Chem
     A Quantum Leap Into The Future Of Chemistry


 Q-Chem 5.4, Q-Chem, Inc., Pleasanton, CA (2021)

 License issued to: University of California, San Diego (site)

 E. Epifanovsky,  A. T. B. Gilbert,  Xintian Feng,  Joonho Lee,  Yuezhi Mao,  
 N. Mardirossian,  P. Pokhilko,  A. White,  M. Wormit,  M. P. Coons,  
 A. L. Dempwolff,  Zhengting Gan,  D. Hait,  P. R. Horn,  L. D. Jacobson,  
 I. Kaliman,  J. Kussmann,  A. W. Lange,  Ka Un Lao,  D. S. Levine,  Jie Liu,  
 S. C. McKenzie,  A. F. Morrison,  K. Nanda,  F. Plasser,  D. R. Rehn,  
 M. L. Vidal,  Zhi-Qiang You,  Ying Zhu,  B. Alam,  B. Albrecht,  
 A. Aldossary,  E. Alguire,  J. H. Andersen,  D. Barton,  K. Begam,  A. Behn,  
 Y. A. Bernard,  E. J. Berquist,  H. Burton,  A. Carreras,  K. Carter-Fenk,  
 R. Chakraborty,  A. D. Chien,  K. D. Closser,  V. Cofer-Shabica,  
 S. Dasgupta,  Jia Deng,  M. de Wergifosse,  M. Diedenhofen,  Hainam Do,  
 S. Ehlert,  Po-Tung Fang,  S. Fatehi,  Qingguo Feng,  J. Gayvert,  
 Qinghui Ge,  G. Gidofalvi,  M. Goldey,  J. Gomes,  C. Gonzalez-Espinoza,  
 S. Gulania,  A. Gunina,  M. W. D. Hanson-Heine,  P. H. P. Harbach,  
 A. W. Hauser,  M. F. Herbst,  M. Hernandez Vera,  M. Hodecker,  
 Z. C. Holden,  S. Houck,  Xunkun Huang,  Kerwin Hui,  B. C. Huynh,  
 M. Ivanov,  Hyunjun Ji,  Hanjie Jiang,  B. Kaduk,  S. Kaehler,  
 K. Khistyaev,  Jaehoon Kim,  P. Klunzinger,  Z. Koczor-Benda,  
 Joong Hoon Koh,  D. Kosenkov,  L. Koulias,  T. Kowalczyk,  C. M. Krauter,  
 K. Kue,  A. Kunitsa,  T. Kus,  A. Landau,  K. V. Lawler,  D. Lefrancois,  
 S. Lehtola,  Rain Li,  Yi-Pei Li,  Jiashu Liang,  M. Liebenthal,  
 Hung-Hsuan Lin,  You-Sheng Lin,  Fenglai Liu,  Kuan-Yu Liu,  
 M. Loipersberger,  A. Luenser,  A. Manjanath,  P. Manohar,  E. Mansoor,  
 S. F. Manzer,  Shan-Ping Mao,  A. V. Marenich,  T. Markovich,  S. Mason,  
 S. A. Maurer,  P. F. McLaughlin,  M. F. S. J. Menger,  J.-M. Mewes,  
 S. A. Mewes,  P. Morgante,  J. W. Mullinax,  T. S. Nguyen-Beck,  
 K. J. Oosterbaan,  G. Paran,  Alexander C. Paul,  Suranjan K. Paul,  
 F. Pavosevic,  Zheng Pei,  S. Prager,  E. I. Proynov,  E. Ramos,  B. Rana,  
 A. E. Rask,  A. Rettig,  R. M. Richard,  F. Rob,  E. Rossomme,  T. Scheele,  
 M. Scheurer,  M. Schneider,  N. Sergueev,  S. M. Sharada,  W. Skomorowski,  
 D. W. Small,  C. J. Stein,  Yu-Chuan Su,  E. J. Sundstrom,  Zhen Tao,  
 J. Thirman,  T. Tsuchimochi,  N. M. Tubman,  S. P. Veccham,  O. Vydrov,  
 J. Wenzel,  J. Witte,  A. Yamada,  Kun Yao,  S. Yeganeh,  S. R. Yost,  
 A. Zech,  Igor Ying Zhang,  Xing Zhang,  Yu Zhang,  D. Zuev,  
 A. Aspuru-Guzik,  A. T. Bell,  N. A. Besley,  K. B. Bravaya,  B. R. Brooks,  
 D. Casanova,  Jeng-Da Chai,  S. Coriani,  C. J. Cramer,  
 A. E. DePrince, III,  R. A. DiStasio Jr.,  A. Dreuw,  B. D. Dunietz,  
 T. R. Furlani,  W. A. Goddard III,  S. Grimme,  S. Hammes-Schiffer,  
 T. Head-Gordon,  W. J. Hehre,  Chao-Ping Hsu,  T.-C. Jagau,  Yousung Jung,  
 A. Klamt,  Jing Kong,  D. S. Lambrecht,  WanZhen Liang,  N. J. Mayhall,  
 C. W. McCurdy,  J. B. Neaton,  C. Ochsenfeld,  J. A. Parkhill,  R. Peverati,  
 V. A. Rassolov,  Yihan Shao,  L. V. Slipchenko,  T. Stauch,  R. P. Steele,  
 J. E. Subotnik,  A. J. W. Thom,  A. Tkatchenko,  D. G. Truhlar,  
 T. Van Voorhis,  T. A. Wesolowski,  K. B. Whaley,  H. L. Woodcock III,  
 P. M. Zimmerman,  S. Faraji,  P. M. W. Gill,  M. Head-Gordon,  
 J. M. Herbert,  A. I. Krylov

 Contributors to earlier versions of Q-Chem not listed above: 
 R. D. Adamson,  B. Austin,  R. Baer,  J. Baker,  G. J. O. Beran,  
 K. Brandhorst,  S. T. Brown,  E. F. C. Byrd,  A. K. Chakraborty,  
 G. K. L. Chan,  Chun-Min Chang,  Yunqing Chen,  C.-L. Cheng,  
 Siu Hung Chien,  D. M. Chipman,  D. L. Crittenden,  H. Dachsel,  
 R. J. Doerksen,  A. D. Dutoi,  R. G. Edgar,  J. Fosso-Tande,  
 L. Fusti-Molnar,  D. Ghosh,  A. Ghysels,  A. Golubeva-Zadorozhnaya,  
 J. Gonthier,  M. S. Gordon,  S. R. Gwaltney,  G. Hawkins,  J. E. Herr,  
 A. Heyden,  S. Hirata,  E. G. Hohenstein,  G. Kedziora,  F. J. Keil,  
 C. Kelley,  Jihan Kim,  R. A. King,  R. Z. Khaliullin,  P. P. Korambath,  
 W. Kurlancheek,  A. Laurent,  A. M. Lee,  M. S. Lee,  S. V. Levchenko,  
 Ching Yeh Lin,  D. Liotard,  E. Livshits,  R. C. Lochan,  I. Lotan,  
 L. A. Martinez-Martinez,  P. E. Maslen,  N. Nair,  D. P. O'Neill,  
 D. Neuhauser,  E. Neuscamman,  C. M. Oana,  R. Olivares-Amaya,  R. Olson,  
 T. M. Perrine,  B. Peters,  P. A. Pieniazek,  A. Prociuk,  Y. M. Rhee,  
 J. Ritchie,  M. A. Rohrdanz,  E. Rosta,  N. J. Russ,  H. F. Schaefer III,  
 M. W. Schmidt,  N. E. Schultz,  S. Sharma,  N. Shenvi,  C. D. Sherrill,  
 A. C. Simmonett,  A. Sodt,  T. Stein,  D. Stuck,  K. S. Thanthiriwatte,  
 V. Vanovschi,  L. Vogt,  Tao Wang,  A. Warshel,  M. A. Watson,  
 C. F. Williams,  Q. Wu,  X. Xu,  Jun Yang,  W. Zhang,  Yan Zhao

 Please cite Q-Chem as follows:
 Y. Shao et al., Mol. Phys. 113, 184-215 (2015)
 DOI: 10.1080/00268976.2014.952696

 Q-Chem 5.4.0 for Intel X86 EM64T Linux

 Parts of Q-Chem use Armadillo 9.800.1 (Horizon Scraper).
 http://arma.sourceforge.net/

 Q-Chem begins on Fri Dec 15 14:00:21 2023  

 Host: 
0

     Scratch files written to ./qchem3161409//
 May1621 |scratch|qcdevops|jenkins|workspace|build_RNUM    
 Parallel job on  1  processors
 Processing $rem in /cm/shared/apps/spack/cpu/opt/spack/linux-centos8-zen2/gcc-10.2.0/qchem-5.4-akfmr7b3t57bfs6qan3padb2wnb2i7cl/config/preferences:
 Processing $rem in /home/rramji/.qchemrc:
 Symmetry turned off for PCM/SM12/SMD calculation
 Core orbitals will be frozen

 Checking the input file for inconsistencies... 	...done.

 Q-Chem warning in module forms1/BasisType.C, line 2236:

 You are not using the predefined 5D/6D in this basis set.


--------------------------------------------------------------
User input:
--------------------------------------------------------------
$molecule
0 1
C	0.240927	-6.741404	-0.089263
C	1.467886	-6.155638	-0.535973
C	-0.777972	-5.791452	0.281103
C	1.729742	-4.803786	-0.631036
H	2.292903	-6.821518	-0.836458
C	-0.503614	-4.378638	0.181995
C	0.746756	-3.838032	-0.272725
C	-1.485437	-3.413062	0.539954
C	1.018915	-2.426473	-0.371053
C	-1.226557	-2.059348	0.446381
C	-0.000000	-1.478216	-0.000000
H	-2.052413	-1.394783	0.747410
C	-2.134128	-6.187987	0.772747
C	-2.829820	-3.798164	1.029154
N	-3.059182	-5.170003	1.110828
C	3.077731	-4.424987	-1.121728
C	2.375694	-2.036627	-0.864069
N	3.301101	-3.049156	-1.201928
O	-2.502830	-7.353131	0.903908
O	-3.697078	-2.986854	1.345809
O	3.934752	-5.248946	-1.434422
O	2.764177	-0.878829	-1.003943
C	-4.386939	-5.563799	1.592981
H	-4.429822	-6.664085	1.607367
H	-5.164489	-5.147101	0.924504
H	-4.553486	-5.148785	2.605446
C	4.608481	-2.587487	-1.677308
H	5.211969	-3.483329	-1.898089
H	5.094624	-1.964972	-0.902337
H	4.483092	-1.962932	-2.582098
H	0.066080	-7.822318	-0.025963
C	0.000000	0.000000	0.000000
S	0.271091	0.745405	1.580530
C	0.831198	2.284363	0.904911
C	0.341175	0.937861	-0.985400
C	0.792631	2.178516	-0.493528
H	0.260601	0.716417	-2.059934
H	1.093860	3.006347	-1.152593
H	1.132330	3.111961	1.556025
$end

$rem
JOBTYPE		SP
EXCHANGE	HF
CORRELATION	pRIMP2
BASIS		cc-pvtz
METHOD		rimp2
AUX_BASIS	rimp2-cc-pvtz
SOLVENT_METHOD	PCM
PURECART	11111
SYMMETRY	false
MEM_TOTAL	110000
SCF_CONVERGENCE = 6
THRESH=10
GUI = 2
$end



$solvent
dielectric 4.90
$end
--------------------------------------------------------------
 ----------------------------------------------------------------
             Standard Nuclear Orientation (Angstroms)
    I     Atom           X                Y                Z
 ----------------------------------------------------------------
    1      C       0.2409270000    -6.7414040000    -0.0892630000
    2      C       1.4678860000    -6.1556380000    -0.5359730000
    3      C      -0.7779720000    -5.7914520000     0.2811030000
    4      C       1.7297420000    -4.8037860000    -0.6310360000
    5      H       2.2929030000    -6.8215180000    -0.8364580000
    6      C      -0.5036140000    -4.3786380000     0.1819950000
    7      C       0.7467560000    -3.8380320000    -0.2727250000
    8      C      -1.4854370000    -3.4130620000     0.5399540000
    9      C       1.0189150000    -2.4264730000    -0.3710530000
   10      C      -1.2265570000    -2.0593480000     0.4463810000
   11      C       0.0000000000    -1.4782160000     0.0000000000
   12      H      -2.0524130000    -1.3947830000     0.7474100000
   13      C      -2.1341280000    -6.1879870000     0.7727470000
   14      C      -2.8298200000    -3.7981640000     1.0291540000
   15      N      -3.0591820000    -5.1700030000     1.1108280000
   16      C       3.0777310000    -4.4249870000    -1.1217280000
   17      C       2.3756940000    -2.0366270000    -0.8640690000
   18      N       3.3011010000    -3.0491560000    -1.2019280000
   19      O      -2.5028300000    -7.3531310000     0.9039080000
   20      O      -3.6970780000    -2.9868540000     1.3458090000
   21      O       3.9347520000    -5.2489460000    -1.4344220000
   22      O       2.7641770000    -0.8788290000    -1.0039430000
   23      C      -4.3869390000    -5.5637990000     1.5929810000
   24      H      -4.4298220000    -6.6640850000     1.6073670000
   25      H      -5.1644890000    -5.1471010000     0.9245040000
   26      H      -4.5534860000    -5.1487850000     2.6054460000
   27      C       4.6084810000    -2.5874870000    -1.6773080000
   28      H       5.2119690000    -3.4833290000    -1.8980890000
   29      H       5.0946240000    -1.9649720000    -0.9023370000
   30      H       4.4830920000    -1.9629320000    -2.5820980000
   31      H       0.0660800000    -7.8223180000    -0.0259630000
   32      C       0.0000000000     0.0000000000     0.0000000000
   33      S       0.2710910000     0.7454050000     1.5805300000
   34      C       0.8311980000     2.2843630000     0.9049110000
   35      C       0.3411750000     0.9378610000    -0.9854000000
   36      C       0.7926310000     2.1785160000    -0.4935280000
   37      H       0.2606010000     0.7164170000    -2.0599340000
   38      H       1.0938600000     3.0063470000    -1.1525930000
   39      H       1.1323300000     3.1119610000     1.5560250000
 ----------------------------------------------------------------
 Nuclear Repulsion Energy =        2498.68154896 hartrees
 There are       97 alpha and       97 beta electrons
 Requested basis set is cc-pVTZ
 There are 344 shells and 982 basis functions

 Total QAlloc Memory Limit 110000 MB
 Mega-Array Size       188 MB
 MEM_STATIC part       192 MB
 Discretize the solute cavity surface with Lebedev spheres
	Using 110 Lebedev grid points for each H atom
	Using 194 Lebedev grid points for other atoms
	Atomic van der Waals radii will be scaled by 1.20
 Remove points where switching function is < 1.0e-08
 Keep 2555 surface tesserae and discard 4003 interior tesserae
 Molecular Surface Area = 368.566 Angst**2
 Requested basis set is rimp2-cc-pVTZ
 There are 750 shells and 2588 basis functions
 A cutoff of  1.0D-10 yielded  31768 shell pairs
 There are    244866 function pairs (    318379 Cartesian)
 Smallest overlap matrix eigenvalue = 9.46E-06

 Q-Chem warning in module stvman/mkSTV.C, line 323:

 Overlap eigenvalue is smaller than square root of threshold
 Use THRESH >= 12 to get rid of this warning


 Scale SEOQF with 1.000000e-01/1.000000e-02/1.000000e-01

 Standard Electronic Orientation quadrupole field applied
 Nucleus-field energy     =     0.0000000403 hartrees
 Guess from superposition of atomic densities
 Warning:  Energy on first SCF cycle will be non-variational
 SAD guess density has 194.000000 electrons

 -----------------------------------------------------------------------
  General SCF calculation program by
  Eric Jon Sundstrom, Paul Horn, Yuezhi Mao, Dmitri Zuev, Alec White,
  David Stuck, Shaama M.S., Shane Yost, Joonho Lee, David Small,
  Daniel Levine, Susi Lehtola, Hugh Burton, Evgeny Epifanovsky,
  Bang C. Huynh
 -----------------------------------------------------------------------
 Hartree-Fock
 using 64 threads for integral computing
 -------------------------------------------------------
 OpenMP Integral computing Module                
 Release: version 1.0, May 2013, Q-Chem Inc. Pittsburgh 
 -------------------------------------------------------
 A restricted SCF calculation will be
 performed using DIIS
 SCF converges when DIIS error is below 1.0e-06
 ---------------------------------------
  Cycle       Energy         DIIS error
 ---------------------------------------
    1   -1581.2841101425      1.87e-02  
    2   -1570.1102858795      2.10e-03  
    3   -1570.4365299527      1.64e-03  
    4   -1570.6692812111      2.56e-04  
    5   -1570.6812970584      7.54e-05  
    6   -1570.6823485436      2.80e-05  
    7   -1570.6825877501      1.42e-05  
    8   -1570.6826639528      6.02e-06  
    9   -1570.6826760271      2.30e-06  
   10   -1570.6826781324      7.72e-07  Convergence criterion met
 ---------------------------------------
 SCF time:   CPU 5852.52s  wall 224.00s 

************** Final PCM Free Energy Summary **************
 G_electrostatic  =      -0.02423475 hartree =     -15.20753427 kcal/mol
 G_cavitation     =       0.00000000 hartree =       0.00000000 kcal/mol
 G_dispersion     =       0.00000000 hartree =       0.00000000 kcal/mol
 G_repulsion      =       0.00000000 hartree =       0.00000000 kcal/mol
 --------------------------------------------------
 Non-electrostatic Free Energy =       0.00000000 hartree =       0.00000000 kcal/mol
 Total                         =      -0.02423475 hartree =     -15.20753427 kcal/mol
 --------------------------------------------------
 SCF Energy (H0 + V/2)                       =   -1570.68267813 
 Solute Internal Energy (H0)                 =   -1570.65844338 
 Total Free Energy (H0 + V/2 + non-elec)     =   -1570.68267813 hartree
                                             = -985618.25646372 kcal/mol
***********************************************************

 SCF   energy in the final basis set =    -1570.6826781324
 Total energy in the final basis set =    -1570.6826781324


 --------------------------------------------------------------
  Generalized many-body perturbation theory program
  by Joonho Lee, Fazle Rob, Xintian Feng, Evgeny Epifanovsky

 No regularization used 
 (reg. param. = 0.0000e+00)
  (P|Q)^-1/2 Time:  CPU 158.28 s  wall 2.91 s

 In RI-MP2 calculation: 
 # of frozen core orbitals: 31

 Components of the RIMP2 correlation energy:
        aaaa    correlation energy =        -0.6165058457 a.u.
        abab    correlation energy =        -3.3929995361 a.u.
        bbbb    correlation energy =        -0.6165058457 a.u.
        non-Brillouin singles      =        -0.0000000000 a.u.
        total same-spin energy     =        -1.2330116914 a.u.
        total opposite-spin energy =        -3.3929995361 a.u.

 Total  RIMP2   correlation energy =        -4.6260112276 a.u.
        RIMP2         total energy =     -1575.3086893600 a.u.

 RI-MP2 Energy Time:  CPU 3912.00 s  wall 63.75 s
 
 --------------------------------------------------------------
 
                    Orbital Energies (a.u.)
 --------------------------------------------------------------
 
 Alpha MOs
 -- Occupied --
-91.9927 -20.5585 -20.5559 -20.5551 -20.5550 -15.6311 -15.6306 -11.4001
-11.3960 -11.3927 -11.3902 -11.3147 -11.3056 -11.3028 -11.3008 -11.2986
-11.2983 -11.2864 -11.2855 -11.2854 -11.2851 -11.2805 -11.2768 -11.2647
-11.2644 -11.2568 -11.2497  -8.9919  -6.6727  -6.6722  -6.6716  -1.4247
 -1.4236  -1.4040  -1.4027  -1.2674  -1.2650  -1.2174  -1.1745  -1.1440
 -1.1174  -1.0627  -1.0498  -0.9929  -0.9890  -0.9832  -0.9591  -0.9485
 -0.8968  -0.8796  -0.8767  -0.8612  -0.7949  -0.7770  -0.7728  -0.7594
 -0.7372  -0.7180  -0.7051  -0.6950  -0.6802  -0.6721  -0.6662  -0.6621
 -0.6567  -0.6423  -0.6372  -0.6337  -0.6296  -0.6123  -0.5856  -0.5843
 -0.5774  -0.5737  -0.5657  -0.5638  -0.5605  -0.5551  -0.5521  -0.5485
 -0.5355  -0.5265  -0.5199  -0.5150  -0.4829  -0.4708  -0.4654  -0.4605
 -0.4593  -0.4530  -0.4280  -0.4180  -0.4087  -0.3578  -0.3511  -0.3344
 -0.3175
 -- Virtual --
 -0.0196   0.0633   0.0731   0.0913   0.1145   0.1541   0.1576   0.1591
  0.1654   0.1687   0.1784   0.1832   0.1855   0.1920   0.1999   0.2070
  0.2126   0.2256   0.2277   0.2300   0.2345   0.2383   0.2593   0.2615
  0.2646   0.3016   0.3083   0.3135   0.3143   0.3210   0.3228   0.3351
  0.3424   0.3445   0.3516   0.3566   0.3582   0.3630   0.3701   0.3743
  0.3761   0.3819   0.3914   0.3973   0.4007   0.4011   0.4077   0.4093
  0.4137   0.4242   0.4330   0.4339   0.4399   0.4414   0.4510   0.4534
  0.4548   0.4613   0.4660   0.4701   0.4743   0.4832   0.4856   0.4971
  0.4977   0.5016   0.5071   0.5107   0.5163   0.5221   0.5262   0.5290
  0.5357   0.5394   0.5420   0.5455   0.5474   0.5560   0.5596   0.5653
  0.5714   0.5731   0.5800   0.5817   0.5922   0.5941   0.5969   0.5985
  0.6016   0.6068   0.6115   0.6167   0.6208   0.6235   0.6245   0.6312
  0.6333   0.6356   0.6379   0.6390   0.6429   0.6471   0.6504   0.6692
  0.6741   0.6755   0.6877   0.6948   0.7048   0.7064   0.7121   0.7144
  0.7260   0.7298   0.7355   0.7427   0.7516   0.7547   0.7570   0.7630
  0.7635   0.7681   0.7758   0.7839   0.7943   0.7967   0.8027   0.8129
  0.8229   0.8256   0.8344   0.8407   0.8439   0.8474   0.8522   0.8577
  0.8630   0.8660   0.8672   0.8729   0.8829   0.8862   0.8925   0.9007
  0.9128   0.9166   0.9209   0.9249   0.9317   0.9346   0.9378   0.9433
  0.9481   0.9548   0.9643   0.9684   0.9713   0.9778   0.9842   0.9904
  0.9916   0.9988   1.0026   1.0076   1.0115   1.0138   1.0167   1.0211
  1.0331   1.0375   1.0431   1.0542   1.0643   1.0673   1.0707   1.0776
  1.0779   1.0819   1.0844   1.0878   1.0907   1.0984   1.1028   1.1143
  1.1204   1.1281   1.1345   1.1368   1.1430   1.1482   1.1528   1.1567
  1.1625   1.1636   1.1755   1.1787   1.1845   1.1877   1.1923   1.1966
  1.2018   1.2081   1.2124   1.2223   1.2278   1.2297   1.2338   1.2394
  1.2422   1.2484   1.2575   1.2617   1.2673   1.2740   1.2887   1.3003
  1.3086   1.3238   1.3290   1.3355   1.3424   1.3438   1.3536   1.3542
  1.3697   1.3739   1.3786   1.3838   1.3903   1.3922   1.4078   1.4179
  1.4226   1.4285   1.4352   1.4428   1.4467   1.4507   1.4546   1.4614
  1.4775   1.4826   1.4876   1.4919   1.5002   1.5047   1.5149   1.5155
  1.5223   1.5315   1.5356   1.5418   1.5506   1.5564   1.5612   1.5642
  1.5667   1.5732   1.5796   1.5887   1.6032   1.6073   1.6221   1.6286
  1.6356   1.6415   1.6476   1.6614   1.6622   1.6767   1.6787   1.6862
  1.6952   1.7055   1.7100   1.7232   1.7297   1.7349   1.7449   1.7469
  1.7516   1.7608   1.7678   1.7815   1.7879   1.7990   1.8045   1.8087
  1.8180   1.8330   1.8366   1.8433   1.8546   1.8557   1.8639   1.8690
  1.8724   1.8896   1.8941   1.9094   1.9176   1.9200   1.9299   1.9431
  1.9560   1.9673   1.9723   1.9806   1.9930   2.0004   2.0143   2.0205
  2.0481   2.0521   2.0642   2.0669   2.0952   2.1069   2.1184   2.1262
  2.1431   2.1509   2.1651   2.1686   2.1861   2.1947   2.2160   2.2190
  2.2322   2.2360   2.2563   2.2689   2.2797   2.2898   2.2944   2.2998
  2.3046   2.3207   2.3278   2.3394   2.3556   2.3601   2.3753   2.3859
  2.3960   2.4247   2.4258   2.4420   2.4512   2.4564   2.4607   2.4640
  2.4738   2.4873   2.4907   2.4990   2.5103   2.5165   2.5246   2.5321
  2.5519   2.5605   2.5768   2.5817   2.5873   2.5932   2.6057   2.6103
  2.6137   2.6180   2.6256   2.6480   2.6528   2.6609   2.6660   2.6679
  2.6843   2.6883   2.6950   2.7053   2.7077   2.7129   2.7181   2.7276
  2.7297   2.7437   2.7474   2.7539   2.7669   2.7704   2.7791   2.7889
  2.7975   2.8177   2.8288   2.8313   2.8384   2.8408   2.8516   2.8575
  2.8644   2.8712   2.8808   2.8817   2.8867   2.8927   2.8964   2.9065
  2.9127   2.9232   2.9277   2.9343   2.9503   2.9527   2.9629   2.9658
  2.9711   2.9763   2.9828   2.9899   3.0021   3.0074   3.0146   3.0191
  3.0289   3.0303   3.0407   3.0408   3.0509   3.0582   3.0614   3.0761
  3.0850   3.0910   3.0937   3.1008   3.1081   3.1103   3.1159   3.1234
  3.1292   3.1317   3.1422   3.1499   3.1541   3.1670   3.1732   3.1812
  3.1875   3.1963   3.1983   3.2082   3.2103   3.2136   3.2159   3.2203
  3.2251   3.2295   3.2351   3.2462   3.2484   3.2514   3.2586   3.2643
  3.2672   3.2737   3.2788   3.2844   3.2861   3.2898   3.2950   3.2970
  3.3023   3.3091   3.3176   3.3217   3.3248   3.3282   3.3334   3.3404
  3.3425   3.3462   3.3463   3.3574   3.3602   3.3657   3.3694   3.3726
  3.3785   3.3837   3.3842   3.3928   3.3987   3.4032   3.4061   3.4226
  3.4267   3.4286   3.4327   3.4422   3.4428   3.4461   3.4514   3.4539
  3.4567   3.4634   3.4720   3.4759   3.4784   3.4870   3.4916   3.4942
  3.4975   3.5011   3.5046   3.5071   3.5140   3.5214   3.5239   3.5277
  3.5366   3.5413   3.5494   3.5523   3.5570   3.5697   3.5741   3.5829
  3.5864   3.5935   3.5986   3.6030   3.6124   3.6184   3.6250   3.6317
  3.6343   3.6384   3.6418   3.6465   3.6500   3.6567   3.6643   3.6729
  3.6851   3.6918   3.6983   3.6999   3.7059   3.7100   3.7141   3.7244
  3.7337   3.7361   3.7381   3.7463   3.7525   3.7548   3.7588   3.7652
  3.7720   3.7803   3.7846   3.7902   3.7923   3.7973   3.8019   3.8049
  3.8066   3.8236   3.8271   3.8359   3.8418   3.8501   3.8540   3.8596
  3.8658   3.8675   3.8799   3.8851   3.8881   3.8939   3.9009   3.9157
  3.9228   3.9342   3.9373   3.9470   3.9529   3.9536   3.9645   3.9747
  3.9814   3.9901   3.9987   4.0052   4.0118   4.0219   4.0329   4.0391
  4.0532   4.0608   4.0701   4.0755   4.0783   4.0832   4.0987   4.1076
  4.1165   4.1218   4.1323   4.1352   4.1428   4.1519   4.1599   4.1747
  4.1854   4.1877   4.1908   4.1983   4.2020   4.2186   4.2206   4.2376
  4.2453   4.2500   4.2617   4.2680   4.2719   4.2798   4.2880   4.2934
  4.2953   4.2959   4.3021   4.3042   4.3109   4.3274   4.3313   4.3342
  4.3478   4.3532   4.3580   4.3648   4.3667   4.3675   4.3765   4.3794
  4.3884   4.3968   4.4017   4.4091   4.4102   4.4211   4.4227   4.4395
  4.4543   4.4642   4.4678   4.4791   4.4927   4.4963   4.5138   4.5169
  4.5229   4.5280   4.5365   4.5438   4.5472   4.5560   4.5613   4.5697
  4.5757   4.5794   4.5829   4.5956   4.5959   4.6134   4.6296   4.6357
  4.6415   4.6518   4.6628   4.6655   4.6707   4.6804   4.6921   4.7001
  4.7198   4.7242   4.7288   4.7432   4.7525   4.7663   4.7790   4.7874
  4.8107   4.8185   4.8263   4.8390   4.8487   4.8635   4.8687   4.8739
  4.8808   4.9075   4.9114   4.9235   4.9348   4.9603   4.9668   4.9767
  4.9881   5.0037   5.0258   5.0368   5.0421   5.0454   5.0498   5.0557
  5.0923   5.0944   5.1058   5.1110   5.1245   5.1323   5.1398   5.1430
  5.1658   5.1682   5.1817   5.1941   5.2044   5.2303   5.2362   5.2564
  5.2610   5.2766   5.2845   5.2936   5.3152   5.3237   5.3296   5.3358
  5.3527   5.3919   5.3957   5.4027   5.4139   5.4265   5.4304   5.4666
  5.4867   5.5053   5.5085   5.5088   5.5129   5.5289   5.5440   5.5554
  5.5572   5.5601   5.5602   5.5740   5.5776   5.5904   5.5994   5.6052
  5.6155   5.6356   5.6524   5.6541   5.6554   5.6763   5.6772   5.6904
  5.6962   5.7028   5.7154   5.7379   5.7497   5.7584   5.7624   5.7693
  5.7717   5.7775   5.8106   5.8206   5.8348   5.8656   5.8836   5.9144
  5.9438   5.9527   5.9912   6.0109   6.0219   6.0247   6.0286   6.0442
  6.0853   6.0997   6.1011   6.1152   6.1173   6.1632   6.1914   6.2080
  6.2176   6.2183   6.2212   6.2524   6.2663   6.2683   6.3002   6.3405
  6.3507   6.3966   6.4210   6.4451   6.4641   6.5243   6.5621   6.5693
  6.5862   6.5988   6.6451   6.6480   6.6589   6.6834   6.7026   6.8299
  6.8324   6.8789   6.8861   6.8950   6.9115   6.9254   6.9407   7.0772
  7.0986   7.1383   7.1833   7.1888   7.2278   7.3324   7.3407   7.3444
  7.3537   7.4665   7.5456   7.5576   7.5728   7.5777   7.5938   7.6333
  7.6701   7.6825   7.7228   8.3481   9.9232  10.2776  11.1257  11.2406
 11.6501  11.7220  11.9642  12.3649  12.4379  12.6236  12.8459  13.0551
 13.2442  13.5784  13.8079  13.9381  13.9933  14.1292  14.2729  14.3411
 14.4098  14.7309  15.3318  15.7115  15.9746
 --------------------------------------------------------------
 
          Ground-State Mulliken Net Atomic Charges

     Atom                 Charge (a.u.)
  ----------------------------------------
      1 C                    -0.132108
      2 C                    -0.107370
      3 C                    -0.043210
      4 C                    -0.001580
      5 H                     0.188665
      6 C                    -0.012064
      7 C                     0.075198
      8 C                     0.021407
      9 C                     0.003287
     10 C                    -0.168921
     11 C                     0.096443
     12 H                     0.181799
     13 C                     0.361278
     14 C                     0.368526
     15 N                    -0.101628
     16 C                     0.359093
     17 C                     0.363170
     18 N                    -0.095179
     19 O                    -0.464944
     20 O                    -0.476143
     21 O                    -0.480392
     22 O                    -0.457582
     23 C                    -0.200987
     24 H                     0.140950
     25 H                     0.112408
     26 H                     0.112494
     27 C                    -0.196324
     28 H                     0.133748
     29 H                     0.113518
     30 H                     0.112167
     31 H                     0.214329
     32 C                    -0.084275
     33 S                     0.032993
     34 C                    -0.204040
     35 C                    -0.157355
     36 C                    -0.195496
     37 H                     0.185583
     38 H                     0.189901
     39 H                     0.212641
  ----------------------------------------
  Sum of atomic charges =     0.000000

 -----------------------------------------------------------------
                    Cartesian Multipole Moments
 -----------------------------------------------------------------
    Charge (ESU x 10^10)
                 0.0000
    Dipole Moment (Debye)
         X       0.8872      Y       1.0985      Z      -1.0365
       Tot       1.7516
    Quadrupole Moments (Debye-Ang)
        XX    -180.9215     XY       2.9372     YY    -165.9584
        XZ       6.8307     YZ       0.9946     ZZ    -159.8463
    Octopole Moments (Debye-Ang^2)
       XXX    -102.3160    XXY     544.0559    XYY     -10.7281
       YYY    1589.6310    XXZ      -8.5073    XYZ     -24.0599
       YYZ      -6.4204    XZZ     -28.2978    YZZ     490.0453
       ZZZ     -37.3604
    Hexadecapole Moments (Debye-Ang^3)
      XXXX   -5526.4186   XXXY    -122.9200   XXYY   -4050.3631
      XYYY    -795.3412   YYYY  -17087.2871   XXXZ     985.9052
      XXYZ     -84.3180   XYYZ     502.0622   YYYZ     238.6870
      XXZZ   -1102.1887   XYZZ     -86.7163   YYZZ   -2872.2724
      XZZZ     911.3189   YZZZ      63.6420   ZZZZ   -1128.9175
 -----------------------------------------------------------------
 Total job time:  291.89s(wall), 9873.28s(cpu) 
 Fri Dec 15 14:05:13 2023

        *************************************************************
        *                                                           *
        *  Thank you very much for using Q-Chem.  Have a nice day.  *
        *                                                           *
        *************************************************************


0 sent ACK to 0 
now end server 0 ... 
cleanup process ... done
remove work dirs ./qchem3161409.0 -- ./qchem3161409.0
rm -rf ./qchem3161409.0
rm -rf ./qchem3161409
