You are running Q-Chem version: 5.4.0

#
# job setting
#
local host:  exp-5-20
current dir: /home/rramji/project-csd799/aromodel/pndit-qchem/rotation_run
input file:  Dimethyl_Naphthalene_Dicarboximide_Phi_50_Theta_110_Thiophene.qcin
output file: 
nprocs     : 1
nthreads   : 64
#
# qchem installation setting
#
QC:          /cm/shared/apps/spack/cpu/opt/spack/linux-centos8-zen2/gcc-10.2.0/qchem-5.4-akfmr7b3t57bfs6qan3padb2wnb2i7cl
QCAUX:       /cm/shared/apps/spack/cpu/opt/spack/linux-centos8-zen2/gcc-10.2.0/qchem-5.4-akfmr7b3t57bfs6qan3padb2wnb2i7cl/qcaux
QCPROG:      /cm/shared/apps/spack/cpu/opt/spack/linux-centos8-zen2/gcc-10.2.0/qchem-5.4-akfmr7b3t57bfs6qan3padb2wnb2i7cl/exe/qcprog.exe
QCPROG_S:    /cm/shared/apps/spack/cpu/opt/spack/linux-centos8-zen2/gcc-10.2.0/qchem-5.4-akfmr7b3t57bfs6qan3padb2wnb2i7cl/exe/qcprog.exe_s
PARALLEL:    -DPARALLEL
QCMPI:       mpich
#
# qchem directory setting
#
qcrun:       qchem3638168
QCSCRATCH:   .
QCLOCALSCR:  
QCTMPDIR:    .
QCFILEPREF:  ./qchem3638168
QCSAVEDIR:   
workdirs:    ./qchem3638168
workdir0:    ./qchem3638168
partmpdirs =  
#
# parallel setting
#
QCRSH:           ssh
QCMPI:           mpich
QCMPIRUN:        /cm/shared/apps/spack/cpu/opt/spack/linux-centos8-zen2/gcc-10.2.0/qchem-5.4-akfmr7b3t57bfs6qan3padb2wnb2i7cl/bin/mpi/mpirun_qchem
QCMACHINEFILE:   ./qchem3638168/hostfile
exp-5-20

#
# env setting
#
exported envs:   QC QCAUX QCSCRATCH QCRUNNAME QCFILEPREF QCPROG QCPROG_S GUIFILE

Running Job 1 of 1 Dimethyl_Naphthalene_Dicarboximide_Phi_50_Theta_110_Thiophene.qcin
qchem Dimethyl_Naphthalene_Dicarboximide_Phi_50_Theta_110_Thiophene.qcin_3638168.0 ./qchem3638168/ 1
/cm/shared/apps/spack/cpu/opt/spack/linux-centos8-zen2/gcc-10.2.0/qchem-5.4-akfmr7b3t57bfs6qan3padb2wnb2i7cl/bin/mpi/mpirun_qchem -machinefile ./qchem3638168/hostfile -np 1 /cm/shared/apps/spack/cpu/opt/spack/linux-centos8-zen2/gcc-10.2.0/qchem-5.4-akfmr7b3t57bfs6qan3padb2wnb2i7cl/exe/qcprog.exe Dimethyl_Naphthalene_Dicarboximide_Phi_50_Theta_110_Thiophene.qcin_3638168.0 ./qchem3638168/

Process 0 of 1 is on exp-5-20 - thread support 0
initial socket setup ...start
initial socket setup ...done 
now start server 0 ... 
                  Welcome to Q-Chem
     A Quantum Leap Into The Future Of Chemistry


 Q-Chem 5.4, Q-Chem, Inc., Pleasanton, CA (2021)

 License issued to: University of California, San Diego (site)

 E. Epifanovsky,  A. T. B. Gilbert,  Xintian Feng,  Joonho Lee,  Yuezhi Mao,  
 N. Mardirossian,  P. Pokhilko,  A. White,  M. Wormit,  M. P. Coons,  
 A. L. Dempwolff,  Zhengting Gan,  D. Hait,  P. R. Horn,  L. D. Jacobson,  
 I. Kaliman,  J. Kussmann,  A. W. Lange,  Ka Un Lao,  D. S. Levine,  Jie Liu,  
 S. C. McKenzie,  A. F. Morrison,  K. Nanda,  F. Plasser,  D. R. Rehn,  
 M. L. Vidal,  Zhi-Qiang You,  Ying Zhu,  B. Alam,  B. Albrecht,  
 A. Aldossary,  E. Alguire,  J. H. Andersen,  D. Barton,  K. Begam,  A. Behn,  
 Y. A. Bernard,  E. J. Berquist,  H. Burton,  A. Carreras,  K. Carter-Fenk,  
 R. Chakraborty,  A. D. Chien,  K. D. Closser,  V. Cofer-Shabica,  
 S. Dasgupta,  Jia Deng,  M. de Wergifosse,  M. Diedenhofen,  Hainam Do,  
 S. Ehlert,  Po-Tung Fang,  S. Fatehi,  Qingguo Feng,  J. Gayvert,  
 Qinghui Ge,  G. Gidofalvi,  M. Goldey,  J. Gomes,  C. Gonzalez-Espinoza,  
 S. Gulania,  A. Gunina,  M. W. D. Hanson-Heine,  P. H. P. Harbach,  
 A. W. Hauser,  M. F. Herbst,  M. Hernandez Vera,  M. Hodecker,  
 Z. C. Holden,  S. Houck,  Xunkun Huang,  Kerwin Hui,  B. C. Huynh,  
 M. Ivanov,  Hyunjun Ji,  Hanjie Jiang,  B. Kaduk,  S. Kaehler,  
 K. Khistyaev,  Jaehoon Kim,  P. Klunzinger,  Z. Koczor-Benda,  
 Joong Hoon Koh,  D. Kosenkov,  L. Koulias,  T. Kowalczyk,  C. M. Krauter,  
 K. Kue,  A. Kunitsa,  T. Kus,  A. Landau,  K. V. Lawler,  D. Lefrancois,  
 S. Lehtola,  Rain Li,  Yi-Pei Li,  Jiashu Liang,  M. Liebenthal,  
 Hung-Hsuan Lin,  You-Sheng Lin,  Fenglai Liu,  Kuan-Yu Liu,  
 M. Loipersberger,  A. Luenser,  A. Manjanath,  P. Manohar,  E. Mansoor,  
 S. F. Manzer,  Shan-Ping Mao,  A. V. Marenich,  T. Markovich,  S. Mason,  
 S. A. Maurer,  P. F. McLaughlin,  M. F. S. J. Menger,  J.-M. Mewes,  
 S. A. Mewes,  P. Morgante,  J. W. Mullinax,  T. S. Nguyen-Beck,  
 K. J. Oosterbaan,  G. Paran,  Alexander C. Paul,  Suranjan K. Paul,  
 F. Pavosevic,  Zheng Pei,  S. Prager,  E. I. Proynov,  E. Ramos,  B. Rana,  
 A. E. Rask,  A. Rettig,  R. M. Richard,  F. Rob,  E. Rossomme,  T. Scheele,  
 M. Scheurer,  M. Schneider,  N. Sergueev,  S. M. Sharada,  W. Skomorowski,  
 D. W. Small,  C. J. Stein,  Yu-Chuan Su,  E. J. Sundstrom,  Zhen Tao,  
 J. Thirman,  T. Tsuchimochi,  N. M. Tubman,  S. P. Veccham,  O. Vydrov,  
 J. Wenzel,  J. Witte,  A. Yamada,  Kun Yao,  S. Yeganeh,  S. R. Yost,  
 A. Zech,  Igor Ying Zhang,  Xing Zhang,  Yu Zhang,  D. Zuev,  
 A. Aspuru-Guzik,  A. T. Bell,  N. A. Besley,  K. B. Bravaya,  B. R. Brooks,  
 D. Casanova,  Jeng-Da Chai,  S. Coriani,  C. J. Cramer,  
 A. E. DePrince, III,  R. A. DiStasio Jr.,  A. Dreuw,  B. D. Dunietz,  
 T. R. Furlani,  W. A. Goddard III,  S. Grimme,  S. Hammes-Schiffer,  
 T. Head-Gordon,  W. J. Hehre,  Chao-Ping Hsu,  T.-C. Jagau,  Yousung Jung,  
 A. Klamt,  Jing Kong,  D. S. Lambrecht,  WanZhen Liang,  N. J. Mayhall,  
 C. W. McCurdy,  J. B. Neaton,  C. Ochsenfeld,  J. A. Parkhill,  R. Peverati,  
 V. A. Rassolov,  Yihan Shao,  L. V. Slipchenko,  T. Stauch,  R. P. Steele,  
 J. E. Subotnik,  A. J. W. Thom,  A. Tkatchenko,  D. G. Truhlar,  
 T. Van Voorhis,  T. A. Wesolowski,  K. B. Whaley,  H. L. Woodcock III,  
 P. M. Zimmerman,  S. Faraji,  P. M. W. Gill,  M. Head-Gordon,  
 J. M. Herbert,  A. I. Krylov

 Contributors to earlier versions of Q-Chem not listed above: 
 R. D. Adamson,  B. Austin,  R. Baer,  J. Baker,  G. J. O. Beran,  
 K. Brandhorst,  S. T. Brown,  E. F. C. Byrd,  A. K. Chakraborty,  
 G. K. L. Chan,  Chun-Min Chang,  Yunqing Chen,  C.-L. Cheng,  
 Siu Hung Chien,  D. M. Chipman,  D. L. Crittenden,  H. Dachsel,  
 R. J. Doerksen,  A. D. Dutoi,  R. G. Edgar,  J. Fosso-Tande,  
 L. Fusti-Molnar,  D. Ghosh,  A. Ghysels,  A. Golubeva-Zadorozhnaya,  
 J. Gonthier,  M. S. Gordon,  S. R. Gwaltney,  G. Hawkins,  J. E. Herr,  
 A. Heyden,  S. Hirata,  E. G. Hohenstein,  G. Kedziora,  F. J. Keil,  
 C. Kelley,  Jihan Kim,  R. A. King,  R. Z. Khaliullin,  P. P. Korambath,  
 W. Kurlancheek,  A. Laurent,  A. M. Lee,  M. S. Lee,  S. V. Levchenko,  
 Ching Yeh Lin,  D. Liotard,  E. Livshits,  R. C. Lochan,  I. Lotan,  
 L. A. Martinez-Martinez,  P. E. Maslen,  N. Nair,  D. P. O'Neill,  
 D. Neuhauser,  E. Neuscamman,  C. M. Oana,  R. Olivares-Amaya,  R. Olson,  
 T. M. Perrine,  B. Peters,  P. A. Pieniazek,  A. Prociuk,  Y. M. Rhee,  
 J. Ritchie,  M. A. Rohrdanz,  E. Rosta,  N. J. Russ,  H. F. Schaefer III,  
 M. W. Schmidt,  N. E. Schultz,  S. Sharma,  N. Shenvi,  C. D. Sherrill,  
 A. C. Simmonett,  A. Sodt,  T. Stein,  D. Stuck,  K. S. Thanthiriwatte,  
 V. Vanovschi,  L. Vogt,  Tao Wang,  A. Warshel,  M. A. Watson,  
 C. F. Williams,  Q. Wu,  X. Xu,  Jun Yang,  W. Zhang,  Yan Zhao

 Please cite Q-Chem as follows:
 Y. Shao et al., Mol. Phys. 113, 184-215 (2015)
 DOI: 10.1080/00268976.2014.952696

 Q-Chem 5.4.0 for Intel X86 EM64T Linux

 Parts of Q-Chem use Armadillo 9.800.1 (Horizon Scraper).
 http://arma.sourceforge.net/

 Q-Chem begins on Fri Dec 15 14:22:35 2023  

 Host: 
0

     Scratch files written to ./qchem3638168//
 May1621 |scratch|qcdevops|jenkins|workspace|build_RNUM    
 Parallel job on  1  processors
 Processing $rem in /cm/shared/apps/spack/cpu/opt/spack/linux-centos8-zen2/gcc-10.2.0/qchem-5.4-akfmr7b3t57bfs6qan3padb2wnb2i7cl/config/preferences:
 Processing $rem in /home/rramji/.qchemrc:
 Symmetry turned off for PCM/SM12/SMD calculation
 Core orbitals will be frozen

 Checking the input file for inconsistencies... 	...done.

 Q-Chem warning in module forms1/BasisType.C, line 2236:

 You are not using the predefined 5D/6D in this basis set.


--------------------------------------------------------------
User input:
--------------------------------------------------------------
$molecule
0 1
C	0.241938	-6.741404	0.086486
C	1.468983	-6.155638	0.532960
C	-0.776651	-5.791452	-0.284733
C	1.730681	-4.803786	0.628455
H	2.294130	-6.821518	0.833086
C	-0.502775	-4.378638	-0.184300
C	0.747353	-3.838032	0.271086
C	-1.484986	-3.413062	-0.541191
C	1.019042	-2.426473	0.370703
C	-1.226525	-2.059348	-0.446468
C	-0.000000	-1.478216	-0.000000
H	-2.052666	-1.394783	-0.746717
C	-2.131549	-6.187987	-0.779832
C	-2.829295	-3.798164	-1.030596
N	-3.057496	-5.170003	-1.115461
C	3.078712	-4.424987	1.119034
C	2.375300	-2.036627	0.865151
N	3.301374	-3.049156	1.201176
O	-2.498300	-7.353131	-0.916355
O	-3.697195	-2.986854	-1.345486
O	3.936224	-5.248946	1.430379
O	2.762805	-0.878829	1.007714
C	-4.384539	-5.563799	-1.599576
H	-4.426636	-6.664085	-1.616121
H	-4.550487	-5.147101	-2.611458
H	-5.162921	-5.148785	-0.931037
C	4.608454	-2.587487	1.677382
H	5.212668	-3.483329	1.896168
H	4.482719	-1.964972	2.583531
H	5.093988	-1.962932	0.903674
H	0.067309	-7.822318	0.022586
C	0.000000	0.000000	0.000000
S	0.607475	0.509994	1.580530
C	1.862020	1.562717	0.904911
C	0.764397	0.641624	-0.985400
C	1.775697	1.490335	-0.493528
H	0.583895	0.490135	-2.059934
H	2.450484	2.056643	-1.152593
H	2.536607	2.128872	1.556025
$end

$rem
JOBTYPE		SP
EXCHANGE	HF
CORRELATION	pRIMP2
BASIS		cc-pvtz
METHOD		rimp2
AUX_BASIS	rimp2-cc-pvtz
SOLVENT_METHOD	PCM
PURECART	11111
SYMMETRY	false
MEM_TOTAL	110000
SCF_CONVERGENCE = 6
THRESH=10
GUI = 2
$end



$solvent
dielectric 4.90
$end
--------------------------------------------------------------
 ----------------------------------------------------------------
             Standard Nuclear Orientation (Angstroms)
    I     Atom           X                Y                Z
 ----------------------------------------------------------------
    1      C       0.2419380000    -6.7414040000     0.0864860000
    2      C       1.4689830000    -6.1556380000     0.5329600000
    3      C      -0.7766510000    -5.7914520000    -0.2847330000
    4      C       1.7306810000    -4.8037860000     0.6284550000
    5      H       2.2941300000    -6.8215180000     0.8330860000
    6      C      -0.5027750000    -4.3786380000    -0.1843000000
    7      C       0.7473530000    -3.8380320000     0.2710860000
    8      C      -1.4849860000    -3.4130620000    -0.5411910000
    9      C       1.0190420000    -2.4264730000     0.3707030000
   10      C      -1.2265250000    -2.0593480000    -0.4464680000
   11      C       0.0000000000    -1.4782160000     0.0000000000
   12      H      -2.0526660000    -1.3947830000    -0.7467170000
   13      C      -2.1315490000    -6.1879870000    -0.7798320000
   14      C      -2.8292950000    -3.7981640000    -1.0305960000
   15      N      -3.0574960000    -5.1700030000    -1.1154610000
   16      C       3.0787120000    -4.4249870000     1.1190340000
   17      C       2.3753000000    -2.0366270000     0.8651510000
   18      N       3.3013740000    -3.0491560000     1.2011760000
   19      O      -2.4983000000    -7.3531310000    -0.9163550000
   20      O      -3.6971950000    -2.9868540000    -1.3454860000
   21      O       3.9362240000    -5.2489460000     1.4303790000
   22      O       2.7628050000    -0.8788290000     1.0077140000
   23      C      -4.3845390000    -5.5637990000    -1.5995760000
   24      H      -4.4266360000    -6.6640850000    -1.6161210000
   25      H      -4.5504870000    -5.1471010000    -2.6114580000
   26      H      -5.1629210000    -5.1487850000    -0.9310370000
   27      C       4.6084540000    -2.5874870000     1.6773820000
   28      H       5.2126680000    -3.4833290000     1.8961680000
   29      H       4.4827190000    -1.9649720000     2.5835310000
   30      H       5.0939880000    -1.9629320000     0.9036740000
   31      H       0.0673090000    -7.8223180000     0.0225860000
   32      C       0.0000000000     0.0000000000     0.0000000000
   33      S       0.6074750000     0.5099940000     1.5805300000
   34      C       1.8620200000     1.5627170000     0.9049110000
   35      C       0.7643970000     0.6416240000    -0.9854000000
   36      C       1.7756970000     1.4903350000    -0.4935280000
   37      H       0.5838950000     0.4901350000    -2.0599340000
   38      H       2.4504840000     2.0566430000    -1.1525930000
   39      H       2.5366070000     2.1288720000     1.5560250000
 ----------------------------------------------------------------
 Nuclear Repulsion Energy =        2541.69467919 hartrees
 There are       97 alpha and       97 beta electrons
 Requested basis set is cc-pVTZ
 There are 344 shells and 982 basis functions

 Total QAlloc Memory Limit 110000 MB
 Mega-Array Size       188 MB
 MEM_STATIC part       192 MB
 Discretize the solute cavity surface with Lebedev spheres
	Using 110 Lebedev grid points for each H atom
	Using 194 Lebedev grid points for other atoms
	Atomic van der Waals radii will be scaled by 1.20
 Remove points where switching function is < 1.0e-08
 Keep 2473 surface tesserae and discard 4085 interior tesserae
 Molecular Surface Area = 357.625 Angst**2
 Requested basis set is rimp2-cc-pVTZ
 There are 750 shells and 2588 basis functions
 A cutoff of  1.0D-10 yielded  32541 shell pairs
 There are    251063 function pairs (    326460 Cartesian)
 Smallest overlap matrix eigenvalue = 9.45E-06

 Q-Chem warning in module stvman/mkSTV.C, line 323:

 Overlap eigenvalue is smaller than square root of threshold
 Use THRESH >= 12 to get rid of this warning


 Scale SEOQF with 1.000000e-01/1.000000e-02/1.000000e-01

 Standard Electronic Orientation quadrupole field applied
 Nucleus-field energy     =     0.0000000417 hartrees
 Guess from superposition of atomic densities
 Warning:  Energy on first SCF cycle will be non-variational
 SAD guess density has 194.000000 electrons

 -----------------------------------------------------------------------
  General SCF calculation program by
  Eric Jon Sundstrom, Paul Horn, Yuezhi Mao, Dmitri Zuev, Alec White,
  David Stuck, Shaama M.S., Shane Yost, Joonho Lee, David Small,
  Daniel Levine, Susi Lehtola, Hugh Burton, Evgeny Epifanovsky,
  Bang C. Huynh
 -----------------------------------------------------------------------
 Hartree-Fock
 using 64 threads for integral computing
 -------------------------------------------------------
 OpenMP Integral computing Module                
 Release: version 1.0, May 2013, Q-Chem Inc. Pittsburgh 
 -------------------------------------------------------
 A restricted SCF calculation will be
 performed using DIIS
 SCF converges when DIIS error is below 1.0e-06
 ---------------------------------------
  Cycle       Energy         DIIS error
 ---------------------------------------
    1   -1581.3984039251      1.87e-02  
    2   -1570.0592003037      2.09e-03  
    3   -1570.3811607477      1.63e-03  
    4   -1570.6118423587      2.59e-04  
    5   -1570.6242277879      7.75e-05  
    6   -1570.6253574873      2.80e-05  
    7   -1570.6256361224      1.46e-05  
    8   -1570.6257278224      6.29e-06  
    9   -1570.6257443343      2.58e-06  
   10   -1570.6257478654      1.16e-06  
   11   -1570.6257485779      5.02e-07  Convergence criterion met
 ---------------------------------------
 SCF time:   CPU 6639.20s  wall 254.00s 

************** Final PCM Free Energy Summary **************
 G_electrostatic  =      -0.02248723 hartree =     -14.11094672 kcal/mol
 G_cavitation     =       0.00000000 hartree =       0.00000000 kcal/mol
 G_dispersion     =       0.00000000 hartree =       0.00000000 kcal/mol
 G_repulsion      =       0.00000000 hartree =       0.00000000 kcal/mol
 --------------------------------------------------
 Non-electrostatic Free Energy =       0.00000000 hartree =       0.00000000 kcal/mol
 Total                         =      -0.02248723 hartree =     -14.11094672 kcal/mol
 --------------------------------------------------
 SCF Energy (H0 + V/2)                       =   -1570.62574858 
 Solute Internal Energy (H0)                 =   -1570.60326135 
 Total Free Energy (H0 + V/2 + non-elec)     =   -1570.62574858 hartree
                                             = -985582.53262907 kcal/mol
***********************************************************

 SCF   energy in the final basis set =    -1570.6257485779
 Total energy in the final basis set =    -1570.6257485779


 --------------------------------------------------------------
  Generalized many-body perturbation theory program
  by Joonho Lee, Fazle Rob, Xintian Feng, Evgeny Epifanovsky

 No regularization used 
 (reg. param. = 0.0000e+00)
  (P|Q)^-1/2 Time:  CPU 163.86 s  wall 3.17 s

 In RI-MP2 calculation: 
 # of frozen core orbitals: 31

 Components of the RIMP2 correlation energy:
        aaaa    correlation energy =        -0.6202070214 a.u.
        abab    correlation energy =        -3.4023009860 a.u.
        bbbb    correlation energy =        -0.6202070214 a.u.
        non-Brillouin singles      =        -0.0000000000 a.u.
        total same-spin energy     =        -1.2404140429 a.u.
        total opposite-spin energy =        -3.4023009860 a.u.

 Total  RIMP2   correlation energy =        -4.6427150289 a.u.
        RIMP2         total energy =     -1575.2684636067 a.u.

 RI-MP2 Energy Time:  CPU 2319.26 s  wall 38.31 s
 
 --------------------------------------------------------------
 
                    Orbital Energies (a.u.)
 --------------------------------------------------------------
 
 Alpha MOs
 -- Occupied --
-91.9792 -20.5575 -20.5547 -20.5525 -20.5492 -15.6299 -15.6280 -11.3989
-11.3904 -11.3901 -11.3886 -11.3126 -11.3009 -11.2983 -11.2969 -11.2946
-11.2942 -11.2937 -11.2831 -11.2823 -11.2782 -11.2708 -11.2696 -11.2651
-11.2641 -11.2638 -11.2450  -8.9796  -6.6603  -6.6596  -6.6593  -1.4236
 -1.4221  -1.4029  -1.4014  -1.2659  -1.2633  -1.2149  -1.1771  -1.1405
 -1.1140  -1.0595  -1.0465  -0.9914  -0.9868  -0.9839  -0.9576  -0.9473
 -0.8945  -0.8776  -0.8706  -0.8587  -0.7897  -0.7753  -0.7718  -0.7597
 -0.7335  -0.7175  -0.7036  -0.6935  -0.6797  -0.6701  -0.6646  -0.6607
 -0.6551  -0.6440  -0.6361  -0.6346  -0.6270  -0.6102  -0.5849  -0.5824
 -0.5751  -0.5742  -0.5660  -0.5630  -0.5575  -0.5541  -0.5523  -0.5475
 -0.5389  -0.5243  -0.5183  -0.4982  -0.4787  -0.4690  -0.4618  -0.4568
 -0.4535  -0.4345  -0.4262  -0.4182  -0.4076  -0.3556  -0.3382  -0.3319
 -0.3145
 -- Virtual --
 -0.0156   0.0612   0.0682   0.0822   0.1186   0.1491   0.1582   0.1648
  0.1661   0.1671   0.1791   0.1853   0.1864   0.1880   0.1995   0.2078
  0.2151   0.2228   0.2275   0.2310   0.2348   0.2428   0.2598   0.2626
  0.2655   0.2899   0.3068   0.3119   0.3172   0.3216   0.3264   0.3337
  0.3394   0.3460   0.3510   0.3542   0.3584   0.3608   0.3664   0.3678
  0.3762   0.3796   0.3891   0.3974   0.3989   0.4040   0.4066   0.4127
  0.4132   0.4253   0.4302   0.4344   0.4387   0.4424   0.4475   0.4531
  0.4573   0.4620   0.4678   0.4728   0.4789   0.4860   0.4897   0.4933
  0.4980   0.5083   0.5122   0.5171   0.5220   0.5282   0.5323   0.5355
  0.5382   0.5430   0.5474   0.5495   0.5520   0.5574   0.5667   0.5738
  0.5751   0.5777   0.5842   0.5861   0.5925   0.5943   0.5965   0.5994
  0.6022   0.6113   0.6149   0.6185   0.6217   0.6246   0.6253   0.6340
  0.6348   0.6396   0.6413   0.6424   0.6453   0.6469   0.6542   0.6811
  0.6857   0.6891   0.6921   0.6985   0.7073   0.7090   0.7155   0.7244
  0.7258   0.7304   0.7385   0.7406   0.7484   0.7572   0.7643   0.7682
  0.7692   0.7851   0.7865   0.7935   0.7994   0.8063   0.8102   0.8157
  0.8185   0.8289   0.8370   0.8448   0.8473   0.8530   0.8545   0.8646
  0.8667   0.8729   0.8754   0.8814   0.8850   0.8924   0.8974   0.9061
  0.9128   0.9208   0.9258   0.9293   0.9330   0.9381   0.9457   0.9501
  0.9598   0.9671   0.9687   0.9721   0.9821   0.9849   0.9890   0.9933
  0.9972   1.0051   1.0094   1.0109   1.0160   1.0231   1.0317   1.0383
  1.0410   1.0486   1.0489   1.0595   1.0652   1.0715   1.0747   1.0838
  1.0855   1.0877   1.0907   1.0978   1.1030   1.1144   1.1195   1.1297
  1.1311   1.1361   1.1388   1.1490   1.1510   1.1516   1.1572   1.1623
  1.1684   1.1718   1.1777   1.1825   1.1884   1.1947   1.1987   1.2055
  1.2102   1.2134   1.2157   1.2275   1.2301   1.2344   1.2406   1.2436
  1.2491   1.2546   1.2642   1.2687   1.2748   1.2876   1.2977   1.2983
  1.3254   1.3308   1.3328   1.3392   1.3468   1.3531   1.3575   1.3700
  1.3737   1.3827   1.3855   1.3863   1.3937   1.4059   1.4137   1.4176
  1.4245   1.4324   1.4353   1.4431   1.4509   1.4592   1.4671   1.4776
  1.4823   1.4889   1.4902   1.4915   1.5022   1.5112   1.5133   1.5247
  1.5307   1.5370   1.5415   1.5487   1.5532   1.5620   1.5627   1.5638
  1.5684   1.5748   1.5835   1.5893   1.6027   1.6092   1.6218   1.6334
  1.6441   1.6482   1.6576   1.6617   1.6668   1.6775   1.6824   1.6944
  1.7016   1.7090   1.7151   1.7250   1.7376   1.7416   1.7478   1.7504
  1.7532   1.7677   1.7727   1.7870   1.7957   1.7995   1.8047   1.8142
  1.8210   1.8334   1.8432   1.8473   1.8503   1.8578   1.8656   1.8704
  1.8753   1.8788   1.8916   1.9123   1.9287   1.9334   1.9445   1.9505
  1.9663   1.9719   1.9730   1.9842   1.9914   2.0057   2.0181   2.0284
  2.0511   2.0544   2.0637   2.0676   2.1012   2.1177   2.1318   2.1336
  2.1450   2.1543   2.1591   2.1947   2.2040   2.2125   2.2201   2.2319
  2.2380   2.2514   2.2634   2.2769   2.2873   2.2899   2.3009   2.3033
  2.3174   2.3292   2.3341   2.3400   2.3607   2.3663   2.3793   2.3865
  2.4155   2.4249   2.4357   2.4449   2.4528   2.4568   2.4640   2.4710
  2.4814   2.4871   2.4958   2.5016   2.5092   2.5356   2.5391   2.5453
  2.5687   2.5752   2.5841   2.5957   2.6029   2.6096   2.6120   2.6158
  2.6251   2.6255   2.6371   2.6457   2.6582   2.6659   2.6710   2.6735
  2.6837   2.6874   2.6946   2.7114   2.7222   2.7239   2.7322   2.7378
  2.7425   2.7483   2.7529   2.7635   2.7727   2.7744   2.7763   2.7959
  2.8085   2.8262   2.8270   2.8401   2.8458   2.8484   2.8607   2.8714
  2.8737   2.8751   2.8811   2.8878   2.8970   2.9055   2.9082   2.9161
  2.9256   2.9311   2.9356   2.9415   2.9524   2.9586   2.9597   2.9725
  2.9789   2.9839   3.0000   3.0044   3.0054   3.0121   3.0222   3.0259
  3.0308   3.0334   3.0388   3.0461   3.0493   3.0742   3.0766   3.0798
  3.0869   3.0906   3.0984   3.1030   3.1049   3.1132   3.1226   3.1305
  3.1344   3.1383   3.1517   3.1549   3.1659   3.1752   3.1802   3.1875
  3.1982   3.2037   3.2052   3.2083   3.2193   3.2230   3.2251   3.2271
  3.2331   3.2382   3.2501   3.2520   3.2547   3.2575   3.2616   3.2673
  3.2679   3.2755   3.2812   3.2873   3.2897   3.2925   3.2951   3.3030
  3.3145   3.3191   3.3224   3.3268   3.3297   3.3352   3.3395   3.3403
  3.3435   3.3487   3.3520   3.3588   3.3626   3.3661   3.3744   3.3817
  3.3843   3.3864   3.3981   3.4039   3.4097   3.4137   3.4170   3.4233
  3.4268   3.4334   3.4358   3.4405   3.4443   3.4485   3.4538   3.4635
  3.4650   3.4710   3.4779   3.4822   3.4895   3.4918   3.4924   3.4983
  3.5039   3.5081   3.5124   3.5170   3.5206   3.5240   3.5282   3.5347
  3.5381   3.5465   3.5558   3.5622   3.5650   3.5719   3.5804   3.5855
  3.5920   3.5996   3.6101   3.6150   3.6216   3.6264   3.6280   3.6355
  3.6406   3.6435   3.6458   3.6556   3.6627   3.6679   3.6738   3.6853
  3.6901   3.6954   3.7043   3.7121   3.7153   3.7201   3.7291   3.7355
  3.7371   3.7397   3.7431   3.7569   3.7582   3.7617   3.7656   3.7754
  3.7797   3.7849   3.7881   3.7913   3.7981   3.8020   3.8047   3.8098
  3.8178   3.8245   3.8304   3.8401   3.8479   3.8484   3.8589   3.8671
  3.8728   3.8777   3.8821   3.8877   3.9072   3.9157   3.9217   3.9256
  3.9371   3.9449   3.9493   3.9528   3.9584   3.9643   3.9724   3.9803
  3.9856   4.0018   4.0098   4.0185   4.0228   4.0284   4.0301   4.0534
  4.0652   4.0697   4.0732   4.0805   4.0885   4.0983   4.1111   4.1244
  4.1286   4.1321   4.1410   4.1468   4.1581   4.1621   4.1729   4.1783
  4.1871   4.1893   4.1986   4.2070   4.2185   4.2259   4.2371   4.2469
  4.2490   4.2596   4.2625   4.2746   4.2786   4.2821   4.2885   4.2932
  4.3021   4.3031   4.3062   4.3143   4.3185   4.3285   4.3301   4.3389
  4.3496   4.3542   4.3579   4.3670   4.3687   4.3737   4.3803   4.3809
  4.3876   4.4006   4.4055   4.4126   4.4167   4.4253   4.4275   4.4523
  4.4613   4.4685   4.4719   4.4836   4.5011   4.5072   4.5164   4.5219
  4.5273   4.5332   4.5454   4.5509   4.5566   4.5602   4.5659   4.5759
  4.5784   4.5834   4.5907   4.5996   4.6056   4.6139   4.6332   4.6349
  4.6509   4.6604   4.6631   4.6726   4.6797   4.6881   4.6921   4.6954
  4.7251   4.7353   4.7402   4.7432   4.7500   4.7695   4.7716   4.7962
  4.8037   4.8268   4.8331   4.8458   4.8469   4.8568   4.8743   4.8792
  4.8932   4.8986   4.9030   4.9168   4.9454   4.9602   4.9629   4.9838
  4.9969   5.0131   5.0291   5.0361   5.0398   5.0514   5.0535   5.0573
  5.0853   5.0991   5.1067   5.1254   5.1331   5.1375   5.1463   5.1519
  5.1632   5.1797   5.1866   5.1945   5.2003   5.2223   5.2369   5.2587
  5.2650   5.2812   5.2878   5.2949   5.3189   5.3268   5.3367   5.3414
  5.3728   5.3974   5.4031   5.4050   5.4153   5.4310   5.4356   5.4668
  5.4921   5.4970   5.5096   5.5108   5.5143   5.5305   5.5441   5.5570
  5.5603   5.5622   5.5627   5.5759   5.5788   5.5915   5.6058   5.6204
  5.6251   5.6372   5.6534   5.6558   5.6578   5.6756   5.6779   5.6837
  5.6964   5.7077   5.7225   5.7375   5.7482   5.7603   5.7626   5.7735
  5.7748   5.7849   5.8106   5.8249   5.8569   5.8846   5.9106   5.9298
  5.9511   5.9746   5.9934   6.0081   6.0214   6.0256   6.0404   6.0569
  6.0798   6.1017   6.1065   6.1177   6.1251   6.1622   6.1931   6.2130
  6.2185   6.2210   6.2240   6.2581   6.2665   6.2710   6.3052   6.3459
  6.3531   6.3778   6.4044   6.4482   6.4708   6.5270   6.5630   6.5710
  6.5749   6.5882   6.6096   6.6446   6.6500   6.6622   6.7063   6.8309
  6.8444   6.8838   6.8872   6.8992   6.9127   6.9346   6.9927   7.0790
  7.1113   7.1401   7.1883   7.1964   7.2307   7.3334   7.3435   7.3458
  7.3673   7.4699   7.5475   7.5615   7.5755   7.5800   7.6351   7.6433
  7.6757   7.7087   7.7424   8.3079   9.9854  10.3479  11.1258  11.2826
 11.6992  11.7849  12.2225  12.3617  12.4572  12.7635  12.8765  12.9866
 13.2565  13.5744  13.8214  13.9533  14.0412  14.1236  14.2353  14.3783
 14.4268  14.7483  15.3199  15.7142  15.9638
 --------------------------------------------------------------
 
          Ground-State Mulliken Net Atomic Charges

     Atom                 Charge (a.u.)
  ----------------------------------------
      1 C                    -0.140830
      2 C                    -0.109939
      3 C                    -0.038038
      4 C                     0.000870
      5 H                     0.187550
      6 C                    -0.010652
      7 C                     0.067955
      8 C                     0.008771
      9 C                    -0.042629
     10 C                    -0.141500
     11 C                     0.074386
     12 H                     0.179703
     13 C                     0.360236
     14 C                     0.364440
     15 N                    -0.101390
     16 C                     0.354077
     17 C                     0.383560
     18 N                    -0.092216
     19 O                    -0.465533
     20 O                    -0.476722
     21 O                    -0.484904
     22 O                    -0.461002
     23 C                    -0.201448
     24 H                     0.140717
     25 H                     0.111894
     26 H                     0.112303
     27 C                    -0.196663
     28 H                     0.134090
     29 H                     0.111232
     30 H                     0.110996
     31 H                     0.212918
     32 C                    -0.121238
     33 S                     0.018302
     34 C                    -0.093528
     35 C                    -0.112661
     36 C                    -0.227907
     37 H                     0.190761
     38 H                     0.187217
     39 H                     0.206825
  ----------------------------------------
  Sum of atomic charges =     0.000000

 -----------------------------------------------------------------
                    Cartesian Multipole Moments
 -----------------------------------------------------------------
    Charge (ESU x 10^10)
                 0.0000
    Dipole Moment (Debye)
         X       2.8518      Y       1.5040      Z      -0.8259
       Tot       3.3282
    Quadrupole Moments (Debye-Ang)
        XX    -174.8108     XY       6.3301     YY    -176.8651
        XZ      -5.2060     YZ       0.3149     ZZ    -159.6549
    Octopole Moments (Debye-Ang^2)
       XXX    -144.9022    XXY     579.1206    XYY     -36.1927
       YYY    1640.7199    XXZ     -17.9367    XYZ      33.6374
       YYZ     -17.0293    XZZ     -42.1767    YZZ     501.6580
       ZZZ     -72.1140
    Hexadecapole Moments (Debye-Ang^3)
      XXXX   -5755.2726   XXXY    -108.1080   XXYY   -4052.6153
      XYYY    -836.4624   YYYY  -17130.9984   XXXZ   -1033.0746
      XXYZ      72.5999   XYYZ    -512.5818   YYYZ    -300.4010
      XXZZ   -1124.8799   XYZZ     -93.6245   YYZZ   -2859.7854
      XZZZ    -958.7601   YZZZ    -139.1080   ZZZZ   -1131.9233
 -----------------------------------------------------------------
 Total job time:  296.67s(wall), 9056.16s(cpu) 
 Fri Dec 15 14:27:32 2023

        *************************************************************
        *                                                           *
        *  Thank you very much for using Q-Chem.  Have a nice day.  *
        *                                                           *
        *************************************************************


0 sent ACK to 0 
now end server 0 ... 
cleanup process ... done
remove work dirs ./qchem3638168.0 -- ./qchem3638168.0
rm -rf ./qchem3638168.0
rm -rf ./qchem3638168
