You are running Q-Chem version: 5.4.0

#
# job setting
#
local host:  exp-1-10
current dir: /home/rramji/project-csd799/aromodel/pndit-qchem/rotation_run
input file:  Dimethyl_Naphthalene_Dicarboximide_Phi_0_Theta_30_Thiophene.qcin
output file: 
nprocs     : 1
nthreads   : 64
#
# qchem installation setting
#
QC:          /cm/shared/apps/spack/cpu/opt/spack/linux-centos8-zen2/gcc-10.2.0/qchem-5.4-akfmr7b3t57bfs6qan3padb2wnb2i7cl
QCAUX:       /cm/shared/apps/spack/cpu/opt/spack/linux-centos8-zen2/gcc-10.2.0/qchem-5.4-akfmr7b3t57bfs6qan3padb2wnb2i7cl/qcaux
QCPROG:      /cm/shared/apps/spack/cpu/opt/spack/linux-centos8-zen2/gcc-10.2.0/qchem-5.4-akfmr7b3t57bfs6qan3padb2wnb2i7cl/exe/qcprog.exe
QCPROG_S:    /cm/shared/apps/spack/cpu/opt/spack/linux-centos8-zen2/gcc-10.2.0/qchem-5.4-akfmr7b3t57bfs6qan3padb2wnb2i7cl/exe/qcprog.exe_s
PARALLEL:    -DPARALLEL
QCMPI:       mpich
#
# qchem directory setting
#
qcrun:       qchem3935885
QCSCRATCH:   .
QCLOCALSCR:  
QCTMPDIR:    .
QCFILEPREF:  ./qchem3935885
QCSAVEDIR:   
workdirs:    ./qchem3935885
workdir0:    ./qchem3935885
partmpdirs =  
#
# parallel setting
#
QCRSH:           ssh
QCMPI:           mpich
QCMPIRUN:        /cm/shared/apps/spack/cpu/opt/spack/linux-centos8-zen2/gcc-10.2.0/qchem-5.4-akfmr7b3t57bfs6qan3padb2wnb2i7cl/bin/mpi/mpirun_qchem
QCMACHINEFILE:   ./qchem3935885/hostfile
exp-1-10

#
# env setting
#
exported envs:   QC QCAUX QCSCRATCH QCRUNNAME QCFILEPREF QCPROG QCPROG_S GUIFILE

Running Job 1 of 1 Dimethyl_Naphthalene_Dicarboximide_Phi_0_Theta_30_Thiophene.qcin
qchem Dimethyl_Naphthalene_Dicarboximide_Phi_0_Theta_30_Thiophene.qcin_3935885.0 ./qchem3935885/ 1
/cm/shared/apps/spack/cpu/opt/spack/linux-centos8-zen2/gcc-10.2.0/qchem-5.4-akfmr7b3t57bfs6qan3padb2wnb2i7cl/bin/mpi/mpirun_qchem -machinefile ./qchem3935885/hostfile -np 1 /cm/shared/apps/spack/cpu/opt/spack/linux-centos8-zen2/gcc-10.2.0/qchem-5.4-akfmr7b3t57bfs6qan3padb2wnb2i7cl/exe/qcprog.exe Dimethyl_Naphthalene_Dicarboximide_Phi_0_Theta_30_Thiophene.qcin_3935885.0 ./qchem3935885/

Process 0 of 1 is on exp-1-10 - thread support 0
initial socket setup ...start
initial socket setup ...done 
now start server 0 ... 
                  Welcome to Q-Chem
     A Quantum Leap Into The Future Of Chemistry


 Q-Chem 5.4, Q-Chem, Inc., Pleasanton, CA (2021)

 License issued to: University of California, San Diego (site)

 E. Epifanovsky,  A. T. B. Gilbert,  Xintian Feng,  Joonho Lee,  Yuezhi Mao,  
 N. Mardirossian,  P. Pokhilko,  A. White,  M. Wormit,  M. P. Coons,  
 A. L. Dempwolff,  Zhengting Gan,  D. Hait,  P. R. Horn,  L. D. Jacobson,  
 I. Kaliman,  J. Kussmann,  A. W. Lange,  Ka Un Lao,  D. S. Levine,  Jie Liu,  
 S. C. McKenzie,  A. F. Morrison,  K. Nanda,  F. Plasser,  D. R. Rehn,  
 M. L. Vidal,  Zhi-Qiang You,  Ying Zhu,  B. Alam,  B. Albrecht,  
 A. Aldossary,  E. Alguire,  J. H. Andersen,  D. Barton,  K. Begam,  A. Behn,  
 Y. A. Bernard,  E. J. Berquist,  H. Burton,  A. Carreras,  K. Carter-Fenk,  
 R. Chakraborty,  A. D. Chien,  K. D. Closser,  V. Cofer-Shabica,  
 S. Dasgupta,  Jia Deng,  M. de Wergifosse,  M. Diedenhofen,  Hainam Do,  
 S. Ehlert,  Po-Tung Fang,  S. Fatehi,  Qingguo Feng,  J. Gayvert,  
 Qinghui Ge,  G. Gidofalvi,  M. Goldey,  J. Gomes,  C. Gonzalez-Espinoza,  
 S. Gulania,  A. Gunina,  M. W. D. Hanson-Heine,  P. H. P. Harbach,  
 A. W. Hauser,  M. F. Herbst,  M. Hernandez Vera,  M. Hodecker,  
 Z. C. Holden,  S. Houck,  Xunkun Huang,  Kerwin Hui,  B. C. Huynh,  
 M. Ivanov,  Hyunjun Ji,  Hanjie Jiang,  B. Kaduk,  S. Kaehler,  
 K. Khistyaev,  Jaehoon Kim,  P. Klunzinger,  Z. Koczor-Benda,  
 Joong Hoon Koh,  D. Kosenkov,  L. Koulias,  T. Kowalczyk,  C. M. Krauter,  
 K. Kue,  A. Kunitsa,  T. Kus,  A. Landau,  K. V. Lawler,  D. Lefrancois,  
 S. Lehtola,  Rain Li,  Yi-Pei Li,  Jiashu Liang,  M. Liebenthal,  
 Hung-Hsuan Lin,  You-Sheng Lin,  Fenglai Liu,  Kuan-Yu Liu,  
 M. Loipersberger,  A. Luenser,  A. Manjanath,  P. Manohar,  E. Mansoor,  
 S. F. Manzer,  Shan-Ping Mao,  A. V. Marenich,  T. Markovich,  S. Mason,  
 S. A. Maurer,  P. F. McLaughlin,  M. F. S. J. Menger,  J.-M. Mewes,  
 S. A. Mewes,  P. Morgante,  J. W. Mullinax,  T. S. Nguyen-Beck,  
 K. J. Oosterbaan,  G. Paran,  Alexander C. Paul,  Suranjan K. Paul,  
 F. Pavosevic,  Zheng Pei,  S. Prager,  E. I. Proynov,  E. Ramos,  B. Rana,  
 A. E. Rask,  A. Rettig,  R. M. Richard,  F. Rob,  E. Rossomme,  T. Scheele,  
 M. Scheurer,  M. Schneider,  N. Sergueev,  S. M. Sharada,  W. Skomorowski,  
 D. W. Small,  C. J. Stein,  Yu-Chuan Su,  E. J. Sundstrom,  Zhen Tao,  
 J. Thirman,  T. Tsuchimochi,  N. M. Tubman,  S. P. Veccham,  O. Vydrov,  
 J. Wenzel,  J. Witte,  A. Yamada,  Kun Yao,  S. Yeganeh,  S. R. Yost,  
 A. Zech,  Igor Ying Zhang,  Xing Zhang,  Yu Zhang,  D. Zuev,  
 A. Aspuru-Guzik,  A. T. Bell,  N. A. Besley,  K. B. Bravaya,  B. R. Brooks,  
 D. Casanova,  Jeng-Da Chai,  S. Coriani,  C. J. Cramer,  
 A. E. DePrince, III,  R. A. DiStasio Jr.,  A. Dreuw,  B. D. Dunietz,  
 T. R. Furlani,  W. A. Goddard III,  S. Grimme,  S. Hammes-Schiffer,  
 T. Head-Gordon,  W. J. Hehre,  Chao-Ping Hsu,  T.-C. Jagau,  Yousung Jung,  
 A. Klamt,  Jing Kong,  D. S. Lambrecht,  WanZhen Liang,  N. J. Mayhall,  
 C. W. McCurdy,  J. B. Neaton,  C. Ochsenfeld,  J. A. Parkhill,  R. Peverati,  
 V. A. Rassolov,  Yihan Shao,  L. V. Slipchenko,  T. Stauch,  R. P. Steele,  
 J. E. Subotnik,  A. J. W. Thom,  A. Tkatchenko,  D. G. Truhlar,  
 T. Van Voorhis,  T. A. Wesolowski,  K. B. Whaley,  H. L. Woodcock III,  
 P. M. Zimmerman,  S. Faraji,  P. M. W. Gill,  M. Head-Gordon,  
 J. M. Herbert,  A. I. Krylov

 Contributors to earlier versions of Q-Chem not listed above: 
 R. D. Adamson,  B. Austin,  R. Baer,  J. Baker,  G. J. O. Beran,  
 K. Brandhorst,  S. T. Brown,  E. F. C. Byrd,  A. K. Chakraborty,  
 G. K. L. Chan,  Chun-Min Chang,  Yunqing Chen,  C.-L. Cheng,  
 Siu Hung Chien,  D. M. Chipman,  D. L. Crittenden,  H. Dachsel,  
 R. J. Doerksen,  A. D. Dutoi,  R. G. Edgar,  J. Fosso-Tande,  
 L. Fusti-Molnar,  D. Ghosh,  A. Ghysels,  A. Golubeva-Zadorozhnaya,  
 J. Gonthier,  M. S. Gordon,  S. R. Gwaltney,  G. Hawkins,  J. E. Herr,  
 A. Heyden,  S. Hirata,  E. G. Hohenstein,  G. Kedziora,  F. J. Keil,  
 C. Kelley,  Jihan Kim,  R. A. King,  R. Z. Khaliullin,  P. P. Korambath,  
 W. Kurlancheek,  A. Laurent,  A. M. Lee,  M. S. Lee,  S. V. Levchenko,  
 Ching Yeh Lin,  D. Liotard,  E. Livshits,  R. C. Lochan,  I. Lotan,  
 L. A. Martinez-Martinez,  P. E. Maslen,  N. Nair,  D. P. O'Neill,  
 D. Neuhauser,  E. Neuscamman,  C. M. Oana,  R. Olivares-Amaya,  R. Olson,  
 T. M. Perrine,  B. Peters,  P. A. Pieniazek,  A. Prociuk,  Y. M. Rhee,  
 J. Ritchie,  M. A. Rohrdanz,  E. Rosta,  N. J. Russ,  H. F. Schaefer III,  
 M. W. Schmidt,  N. E. Schultz,  S. Sharma,  N. Shenvi,  C. D. Sherrill,  
 A. C. Simmonett,  A. Sodt,  T. Stein,  D. Stuck,  K. S. Thanthiriwatte,  
 V. Vanovschi,  L. Vogt,  Tao Wang,  A. Warshel,  M. A. Watson,  
 C. F. Williams,  Q. Wu,  X. Xu,  Jun Yang,  W. Zhang,  Yan Zhao

 Please cite Q-Chem as follows:
 Y. Shao et al., Mol. Phys. 113, 184-215 (2015)
 DOI: 10.1080/00268976.2014.952696

 Q-Chem 5.4.0 for Intel X86 EM64T Linux

 Parts of Q-Chem use Armadillo 9.800.1 (Horizon Scraper).
 http://arma.sourceforge.net/

 Q-Chem begins on Fri Dec 15 13:42:23 2023  

 Host: 
0

     Scratch files written to ./qchem3935885//
 May1621 |scratch|qcdevops|jenkins|workspace|build_RNUM    
 Parallel job on  1  processors
 Processing $rem in /cm/shared/apps/spack/cpu/opt/spack/linux-centos8-zen2/gcc-10.2.0/qchem-5.4-akfmr7b3t57bfs6qan3padb2wnb2i7cl/config/preferences:
 Processing $rem in /home/rramji/.qchemrc:
 Symmetry turned off for PCM/SM12/SMD calculation
 Core orbitals will be frozen

 Checking the input file for inconsistencies... 	...done.

 Q-Chem warning in module forms1/BasisType.C, line 2236:

 You are not using the predefined 5D/6D in this basis set.


--------------------------------------------------------------
User input:
--------------------------------------------------------------
$molecule
0 1
C	0.127184	-6.741404	-0.223244
C	0.779949	-6.155638	-1.354118
C	-0.415271	-5.791452	0.715408
C	0.919437	-4.803786	-1.595259
H	1.218801	-6.821518	-2.114613
C	-0.268806	-4.378638	0.463133
C	0.396744	-3.838032	-0.688925
C	-0.790835	-3.413062	1.368449
C	0.542026	-2.426473	-0.939189
C	-0.652669	-2.059348	1.130363
C	-0.000000	-1.478216	-0.000000
H	-1.091814	-1.394783	1.891815
C	-1.138124	-6.187987	1.963749
C	-1.506241	-3.798164	2.607351
N	-1.629443	-5.170003	2.817348
C	1.636646	-4.424987	-2.837621
C	1.264474	-2.036627	-2.188982
N	1.756205	-3.049156	-3.042637
O	-1.336258	-7.353131	2.301222
O	-1.967056	-2.986854	3.407386
O	2.092167	-5.248946	-3.628041
O	1.472160	-0.878829	-2.545844
C	-2.336642	-5.563799	4.040164
H	-2.360245	-6.664085	4.078749
H	-3.361968	-5.147101	4.027880
H	-1.813424	-5.148785	4.922811
C	2.452149	-2.587487	-4.247167
H	2.772531	-3.483329	-4.804209
H	3.322697	-1.964972	-3.965991
H	1.774507	-1.962932	-4.859678
H	0.033931	-7.822318	-0.062364
C	0.000000	0.000000	0.000000
S	-0.000201	0.793171	1.580530
C	-0.000228	2.430885	0.904911
C	-0.000168	0.997990	-0.985400
C	-0.000267	2.318231	-0.493528
H	-0.000145	0.762343	-2.059934
H	-0.000339	3.199164	-1.152593
H	-0.000311	3.311566	1.556025
$end

$rem
JOBTYPE		SP
EXCHANGE	HF
CORRELATION	pRIMP2
BASIS		cc-pvtz
METHOD		rimp2
AUX_BASIS	rimp2-cc-pvtz
SOLVENT_METHOD	PCM
PURECART	11111
SYMMETRY	false
MEM_TOTAL	110000
SCF_CONVERGENCE = 6
THRESH=10
GUI = 2
$end



$solvent
dielectric 4.90
$end
--------------------------------------------------------------
 ----------------------------------------------------------------
             Standard Nuclear Orientation (Angstroms)
    I     Atom           X                Y                Z
 ----------------------------------------------------------------
    1      C       0.1271840000    -6.7414040000    -0.2232440000
    2      C       0.7799490000    -6.1556380000    -1.3541180000
    3      C      -0.4152710000    -5.7914520000     0.7154080000
    4      C       0.9194370000    -4.8037860000    -1.5952590000
    5      H       1.2188010000    -6.8215180000    -2.1146130000
    6      C      -0.2688060000    -4.3786380000     0.4631330000
    7      C       0.3967440000    -3.8380320000    -0.6889250000
    8      C      -0.7908350000    -3.4130620000     1.3684490000
    9      C       0.5420260000    -2.4264730000    -0.9391890000
   10      C      -0.6526690000    -2.0593480000     1.1303630000
   11      C       0.0000000000    -1.4782160000     0.0000000000
   12      H      -1.0918140000    -1.3947830000     1.8918150000
   13      C      -1.1381240000    -6.1879870000     1.9637490000
   14      C      -1.5062410000    -3.7981640000     2.6073510000
   15      N      -1.6294430000    -5.1700030000     2.8173480000
   16      C       1.6366460000    -4.4249870000    -2.8376210000
   17      C       1.2644740000    -2.0366270000    -2.1889820000
   18      N       1.7562050000    -3.0491560000    -3.0426370000
   19      O      -1.3362580000    -7.3531310000     2.3012220000
   20      O      -1.9670560000    -2.9868540000     3.4073860000
   21      O       2.0921670000    -5.2489460000    -3.6280410000
   22      O       1.4721600000    -0.8788290000    -2.5458440000
   23      C      -2.3366420000    -5.5637990000     4.0401640000
   24      H      -2.3602450000    -6.6640850000     4.0787490000
   25      H      -3.3619680000    -5.1471010000     4.0278800000
   26      H      -1.8134240000    -5.1487850000     4.9228110000
   27      C       2.4521490000    -2.5874870000    -4.2471670000
   28      H       2.7725310000    -3.4833290000    -4.8042090000
   29      H       3.3226970000    -1.9649720000    -3.9659910000
   30      H       1.7745070000    -1.9629320000    -4.8596780000
   31      H       0.0339310000    -7.8223180000    -0.0623640000
   32      C       0.0000000000     0.0000000000     0.0000000000
   33      S      -0.0002010000     0.7931710000     1.5805300000
   34      C      -0.0002280000     2.4308850000     0.9049110000
   35      C      -0.0001680000     0.9979900000    -0.9854000000
   36      C      -0.0002670000     2.3182310000    -0.4935280000
   37      H      -0.0001450000     0.7623430000    -2.0599340000
   38      H      -0.0003390000     3.1991640000    -1.1525930000
   39      H      -0.0003110000     3.3115660000     1.5560250000
 ----------------------------------------------------------------
 Nuclear Repulsion Energy =        2494.44897685 hartrees
 There are       97 alpha and       97 beta electrons
 Requested basis set is cc-pVTZ
 There are 344 shells and 982 basis functions

 Total QAlloc Memory Limit 110000 MB
 Mega-Array Size       188 MB
 MEM_STATIC part       192 MB
 Discretize the solute cavity surface with Lebedev spheres
	Using 110 Lebedev grid points for each H atom
	Using 194 Lebedev grid points for other atoms
	Atomic van der Waals radii will be scaled by 1.20
 Remove points where switching function is < 1.0e-08
 Keep 2510 surface tesserae and discard 4048 interior tesserae
 Molecular Surface Area = 364.436 Angst**2
 Requested basis set is rimp2-cc-pVTZ
 There are 750 shells and 2588 basis functions
 A cutoff of  1.0D-10 yielded  31660 shell pairs
 There are    243918 function pairs (    317002 Cartesian)
 Smallest overlap matrix eigenvalue = 9.94E-06

 Q-Chem warning in module stvman/mkSTV.C, line 323:

 Overlap eigenvalue is smaller than square root of threshold
 Use THRESH >= 12 to get rid of this warning


 Scale SEOQF with 1.000000e-01/1.000000e-02/1.000000e-01

 Standard Electronic Orientation quadrupole field applied
 Nucleus-field energy     =    -0.0000000736 hartrees
 Guess from superposition of atomic densities
 Warning:  Energy on first SCF cycle will be non-variational
 SAD guess density has 194.000000 electrons

 -----------------------------------------------------------------------
  General SCF calculation program by
  Eric Jon Sundstrom, Paul Horn, Yuezhi Mao, Dmitri Zuev, Alec White,
  David Stuck, Shaama M.S., Shane Yost, Joonho Lee, David Small,
  Daniel Levine, Susi Lehtola, Hugh Burton, Evgeny Epifanovsky,
  Bang C. Huynh
 -----------------------------------------------------------------------
 Hartree-Fock
 using 64 threads for integral computing
 -------------------------------------------------------
 OpenMP Integral computing Module                
 Release: version 1.0, May 2013, Q-Chem Inc. Pittsburgh 
 -------------------------------------------------------
 A restricted SCF calculation will be
 performed using DIIS
 SCF converges when DIIS error is below 1.0e-06
 ---------------------------------------
  Cycle       Energy         DIIS error
 ---------------------------------------
    1   -1581.3343428383      1.87e-02  
    2   -1570.1202291426      2.09e-03  
    3   -1570.4482795899      1.62e-03  
    4   -1570.6772944104      2.57e-04  
    5   -1570.6894324338      7.67e-05  
    6   -1570.6905216918      2.83e-05  
    7   -1570.6907726675      1.42e-05  
    8   -1570.6908510463      5.90e-06  
    9   -1570.6908631037      2.25e-06  
   10   -1570.6908650807      7.34e-07  Convergence criterion met
 ---------------------------------------
 SCF time:   CPU 5887.78s  wall 229.00s 

************** Final PCM Free Energy Summary **************
 G_electrostatic  =      -0.02218431 hartree =     -13.92086499 kcal/mol
 G_cavitation     =       0.00000000 hartree =       0.00000000 kcal/mol
 G_dispersion     =       0.00000000 hartree =       0.00000000 kcal/mol
 G_repulsion      =       0.00000000 hartree =       0.00000000 kcal/mol
 --------------------------------------------------
 Non-electrostatic Free Energy =       0.00000000 hartree =       0.00000000 kcal/mol
 Total                         =      -0.02218431 hartree =     -13.92086499 kcal/mol
 --------------------------------------------------
 SCF Energy (H0 + V/2)                       =   -1570.69086508 
 Solute Internal Energy (H0)                 =   -1570.66868077 
 Total Free Energy (H0 + V/2 + non-elec)     =   -1570.69086508 hartree
                                             = -985623.39385132 kcal/mol
***********************************************************

 SCF   energy in the final basis set =    -1570.6908650807
 Total energy in the final basis set =    -1570.6908650807


 --------------------------------------------------------------
  Generalized many-body perturbation theory program
  by Joonho Lee, Fazle Rob, Xintian Feng, Evgeny Epifanovsky

 No regularization used 
 (reg. param. = 0.0000e+00)
  (P|Q)^-1/2 Time:  CPU 177.60 s  wall 3.42 s

 In RI-MP2 calculation: 
 # of frozen core orbitals: 31

 Components of the RIMP2 correlation energy:
        aaaa    correlation energy =        -0.6170516061 a.u.
        abab    correlation energy =        -3.3921524083 a.u.
        bbbb    correlation energy =        -0.6170516061 a.u.
        non-Brillouin singles      =        -0.0000000000 a.u.
        total same-spin energy     =        -1.2341032122 a.u.
        total opposite-spin energy =        -3.3921524083 a.u.

 Total  RIMP2   correlation energy =        -4.6262556205 a.u.
        RIMP2         total energy =     -1575.3171207012 a.u.

 RI-MP2 Energy Time:  CPU 2270.44 s  wall 40.05 s
 
 --------------------------------------------------------------
 
                    Orbital Energies (a.u.)
 --------------------------------------------------------------
 
 Alpha MOs
 -- Occupied --
-91.9939 -20.5586 -20.5564 -20.5547 -20.5540 -15.6312 -15.6303 -11.4000
-11.3959 -11.3917 -11.3907 -11.3185 -11.3024 -11.3013 -11.3002 -11.2966
-11.2957 -11.2916 -11.2882 -11.2871 -11.2844 -11.2796 -11.2781 -11.2647
-11.2645 -11.2568 -11.2509  -8.9935  -6.6743  -6.6738  -6.6732  -1.4249
 -1.4239  -1.4042  -1.4029  -1.2674  -1.2649  -1.2172  -1.1768  -1.1443
 -1.1167  -1.0637  -1.0496  -0.9926  -0.9902  -0.9859  -0.9588  -0.9478
 -0.8970  -0.8792  -0.8783  -0.8612  -0.7964  -0.7787  -0.7728  -0.7616
 -0.7365  -0.7184  -0.7045  -0.6945  -0.6813  -0.6734  -0.6663  -0.6621
 -0.6562  -0.6417  -0.6368  -0.6331  -0.6287  -0.6128  -0.5887  -0.5840
 -0.5788  -0.5731  -0.5655  -0.5627  -0.5616  -0.5557  -0.5525  -0.5477
 -0.5375  -0.5259  -0.5226  -0.5175  -0.4830  -0.4690  -0.4667  -0.4638
 -0.4597  -0.4528  -0.4285  -0.4185  -0.4094  -0.3732  -0.3541  -0.3367
 -0.3026
 -- Virtual --
 -0.0207   0.0551   0.0682   0.1035   0.1268   0.1530   0.1586   0.1593
  0.1662   0.1717   0.1787   0.1851   0.1970   0.2004   0.2020   0.2080
  0.2183   0.2274   0.2294   0.2329   0.2450   0.2495   0.2629   0.2636
  0.2660   0.3074   0.3115   0.3147   0.3202   0.3268   0.3354   0.3397
  0.3432   0.3468   0.3525   0.3570   0.3577   0.3617   0.3653   0.3775
  0.3790   0.3871   0.3948   0.3958   0.4011   0.4060   0.4088   0.4125
  0.4230   0.4262   0.4337   0.4394   0.4435   0.4470   0.4531   0.4571
  0.4621   0.4657   0.4700   0.4771   0.4780   0.4842   0.4858   0.4956
  0.5007   0.5076   0.5098   0.5152   0.5183   0.5209   0.5251   0.5290
  0.5342   0.5389   0.5466   0.5486   0.5529   0.5569   0.5621   0.5664
  0.5694   0.5726   0.5825   0.5862   0.5910   0.5920   0.5954   0.5994
  0.6027   0.6069   0.6135   0.6178   0.6191   0.6240   0.6301   0.6310
  0.6329   0.6350   0.6373   0.6419   0.6519   0.6563   0.6638   0.6738
  0.6761   0.6820   0.6919   0.6966   0.7007   0.7072   0.7118   0.7177
  0.7225   0.7353   0.7383   0.7424   0.7541   0.7587   0.7640   0.7655
  0.7747   0.7821   0.7892   0.7907   0.7944   0.8042   0.8124   0.8200
  0.8224   0.8275   0.8353   0.8419   0.8464   0.8488   0.8545   0.8586
  0.8616   0.8647   0.8706   0.8732   0.8802   0.8855   0.8989   0.9047
  0.9106   0.9182   0.9213   0.9263   0.9337   0.9416   0.9457   0.9494
  0.9528   0.9559   0.9589   0.9677   0.9711   0.9780   0.9822   0.9871
  0.9931   0.9941   1.0036   1.0086   1.0119   1.0154   1.0250   1.0302
  1.0359   1.0390   1.0474   1.0517   1.0578   1.0636   1.0669   1.0735
  1.0756   1.0794   1.0815   1.0864   1.0924   1.0954   1.1049   1.1138
  1.1269   1.1309   1.1359   1.1381   1.1438   1.1471   1.1506   1.1580
  1.1610   1.1658   1.1684   1.1766   1.1842   1.1852   1.1930   1.1974
  1.2085   1.2114   1.2152   1.2244   1.2264   1.2294   1.2322   1.2395
  1.2447   1.2514   1.2544   1.2579   1.2652   1.2696   1.2781   1.2995
  1.3152   1.3216   1.3271   1.3344   1.3392   1.3441   1.3510   1.3623
  1.3658   1.3752   1.3805   1.3845   1.3866   1.3933   1.4028   1.4112
  1.4189   1.4215   1.4279   1.4438   1.4480   1.4518   1.4632   1.4662
  1.4717   1.4808   1.4834   1.4904   1.4919   1.5015   1.5088   1.5157
  1.5299   1.5321   1.5344   1.5472   1.5534   1.5554   1.5584   1.5675
  1.5710   1.5753   1.5802   1.5876   1.5968   1.6080   1.6260   1.6390
  1.6398   1.6503   1.6530   1.6568   1.6698   1.6803   1.6831   1.6879
  1.7005   1.7075   1.7182   1.7251   1.7297   1.7394   1.7442   1.7492
  1.7550   1.7661   1.7698   1.7843   1.7919   1.8034   1.8052   1.8114
  1.8290   1.8332   1.8391   1.8491   1.8533   1.8560   1.8643   1.8671
  1.8729   1.8874   1.8984   1.9037   1.9148   1.9189   1.9378   1.9487
  1.9534   1.9669   1.9730   1.9750   1.9959   2.0095   2.0200   2.0310
  2.0477   2.0520   2.0617   2.0814   2.0840   2.1042   2.1285   2.1297
  2.1500   2.1573   2.1611   2.1782   2.1859   2.2085   2.2166   2.2300
  2.2341   2.2437   2.2592   2.2646   2.2771   2.2877   2.2907   2.2951
  2.3245   2.3270   2.3404   2.3503   2.3522   2.3667   2.3737   2.3792
  2.3945   2.4165   2.4264   2.4310   2.4475   2.4500   2.4570   2.4680
  2.4835   2.4883   2.4995   2.5004   2.5084   2.5182   2.5251   2.5331
  2.5495   2.5682   2.5738   2.5869   2.5878   2.6020   2.6088   2.6104
  2.6139   2.6175   2.6217   2.6469   2.6510   2.6600   2.6658   2.6697
  2.6727   2.6815   2.6931   2.6950   2.7075   2.7117   2.7183   2.7226
  2.7286   2.7459   2.7490   2.7502   2.7558   2.7723   2.7808   2.7940
  2.7947   2.8102   2.8240   2.8352   2.8362   2.8459   2.8553   2.8621
  2.8663   2.8673   2.8718   2.8793   2.8869   2.8898   2.8983   2.9101
  2.9127   2.9209   2.9299   2.9376   2.9503   2.9554   2.9601   2.9668
  2.9745   2.9806   2.9876   2.9991   3.0018   3.0056   3.0083   3.0167
  3.0216   3.0315   3.0395   3.0423   3.0434   3.0543   3.0599   3.0772
  3.0859   3.0866   3.0944   3.0998   3.1057   3.1082   3.1116   3.1219
  3.1256   3.1339   3.1398   3.1487   3.1582   3.1709   3.1720   3.1763
  3.1864   3.1948   3.1993   3.2015   3.2162   3.2181   3.2226   3.2263
  3.2288   3.2334   3.2404   3.2432   3.2472   3.2555   3.2586   3.2648
  3.2687   3.2715   3.2816   3.2860   3.2897   3.2943   3.2989   3.3038
  3.3061   3.3126   3.3134   3.3215   3.3293   3.3310   3.3333   3.3388
  3.3424   3.3491   3.3535   3.3546   3.3628   3.3648   3.3666   3.3697
  3.3717   3.3834   3.3874   3.3968   3.3990   3.4032   3.4149   3.4168
  3.4233   3.4243   3.4329   3.4352   3.4412   3.4492   3.4525   3.4570
  3.4603   3.4648   3.4654   3.4743   3.4762   3.4841   3.4885   3.4895
  3.4985   3.5003   3.5036   3.5088   3.5111   3.5141   3.5209   3.5269
  3.5298   3.5365   3.5436   3.5510   3.5567   3.5604   3.5687   3.5798
  3.5807   3.5930   3.5954   3.6046   3.6099   3.6181   3.6208   3.6296
  3.6304   3.6374   3.6398   3.6438   3.6504   3.6594   3.6708   3.6757
  3.6848   3.6903   3.6959   3.7001   3.7011   3.7080   3.7116   3.7204
  3.7291   3.7321   3.7388   3.7401   3.7512   3.7556   3.7599   3.7670
  3.7730   3.7818   3.7844   3.7885   3.7945   3.7965   3.8037   3.8053
  3.8140   3.8207   3.8314   3.8367   3.8381   3.8516   3.8583   3.8594
  3.8655   3.8767   3.8817   3.8822   3.8856   3.8986   3.9054   3.9199
  3.9250   3.9344   3.9382   3.9449   3.9574   3.9635   3.9656   3.9801
  3.9870   3.9990   4.0018   4.0076   4.0106   4.0220   4.0355   4.0502
  4.0567   4.0665   4.0719   4.0761   4.0898   4.0961   4.0975   4.1115
  4.1239   4.1293   4.1346   4.1396   4.1476   4.1557   4.1639   4.1721
  4.1776   4.1876   4.1963   4.2011   4.2057   4.2168   4.2255   4.2373
  4.2419   4.2603   4.2665   4.2741   4.2772   4.2821   4.2861   4.2941
  4.2982   4.3011   4.3064   4.3147   4.3181   4.3235   4.3300   4.3425
  4.3465   4.3548   4.3626   4.3659   4.3683   4.3749   4.3759   4.3850
  4.3903   4.4018   4.4040   4.4082   4.4124   4.4218   4.4260   4.4401
  4.4587   4.4600   4.4688   4.4904   4.4946   4.5032   4.5141   4.5166
  4.5205   4.5231   4.5358   4.5464   4.5521   4.5615   4.5697   4.5708
  4.5804   4.5823   4.5833   4.5912   4.5986   4.6159   4.6271   4.6372
  4.6424   4.6557   4.6636   4.6663   4.6720   4.6858   4.6886   4.6924
  4.7136   4.7238   4.7312   4.7404   4.7630   4.7721   4.7817   4.7966
  4.7992   4.8246   4.8346   4.8405   4.8472   4.8617   4.8733   4.8777
  4.8791   4.8938   4.9213   4.9311   4.9369   4.9610   4.9741   4.9867
  4.9966   5.0037   5.0131   5.0318   5.0442   5.0477   5.0515   5.0623
  5.1041   5.1056   5.1100   5.1183   5.1255   5.1306   5.1429   5.1524
  5.1615   5.1782   5.1847   5.1901   5.2066   5.2379   5.2564   5.2599
  5.2627   5.2787   5.2836   5.2982   5.3061   5.3236   5.3324   5.3352
  5.3632   5.3912   5.3956   5.4023   5.4174   5.4303   5.4317   5.4691
  5.4820   5.5064   5.5087   5.5128   5.5139   5.5395   5.5457   5.5577
  5.5597   5.5613   5.5731   5.5743   5.5777   5.5923   5.6024   5.6094
  5.6221   5.6362   5.6513   5.6528   5.6552   5.6769   5.6792   5.6942
  5.7012   5.7096   5.7187   5.7403   5.7514   5.7562   5.7593   5.7706
  5.7769   5.7810   5.8091   5.8241   5.8466   5.8811   5.8967   5.9176
  5.9454   5.9566   5.9972   6.0138   6.0228   6.0265   6.0460   6.0503
  6.0916   6.1020   6.1050   6.1172   6.1255   6.1820   6.1977   6.2116
  6.2177   6.2201   6.2223   6.2583   6.2677   6.2718   6.3048   6.3416
  6.3522   6.4036   6.4373   6.4451   6.4665   6.5252   6.5621   6.5704
  6.5866   6.6035   6.6437   6.6475   6.6597   6.7050   6.7308   6.8325
  6.8347   6.8807   6.8861   6.8968   6.9114   6.9305   6.9672   7.0783
  7.1013   7.1420   7.1854   7.1900   7.2302   7.3324   7.3417   7.3442
  7.3556   7.4681   7.5468   7.5576   7.5734   7.5792   7.6019   7.6340
  7.6781   7.6903   7.7278   8.4125   9.9054  10.3303  11.1605  11.2734
 11.7105  11.7361  11.9668  12.3723  12.4570  12.6038  12.8461  13.0749
 13.3361  13.5594  13.8142  13.9413  14.0132  14.1504  14.3058  14.3965
 14.4466  14.7436  15.3519  15.7303  15.9795
 --------------------------------------------------------------
 
          Ground-State Mulliken Net Atomic Charges

     Atom                 Charge (a.u.)
  ----------------------------------------
      1 C                    -0.140635
      2 C                    -0.108814
      3 C                    -0.036487
      4 C                    -0.005110
      5 H                     0.188487
      6 C                    -0.001865
      7 C                     0.073114
      8 C                     0.029947
      9 C                    -0.052891
     10 C                    -0.178765
     11 C                     0.107988
     12 H                     0.173267
     13 C                     0.359873
     14 C                     0.367251
     15 N                    -0.101644
     16 C                     0.359858
     17 C                     0.362831
     18 N                    -0.093143
     19 O                    -0.464421
     20 O                    -0.476155
     21 O                    -0.482311
     22 O                    -0.470730
     23 C                    -0.201029
     24 H                     0.141056
     25 H                     0.112460
     26 H                     0.112543
     27 C                    -0.196963
     28 H                     0.134120
     29 H                     0.113063
     30 H                     0.112110
     31 H                     0.213226
     32 C                    -0.049235
     33 S                     0.024715
     34 C                    -0.193119
     35 C                    -0.117074
     36 C                    -0.221863
     37 H                     0.199138
     38 H                     0.191352
     39 H                     0.215857
  ----------------------------------------
  Sum of atomic charges =     0.000000

 -----------------------------------------------------------------
                    Cartesian Multipole Moments
 -----------------------------------------------------------------
    Charge (ESU x 10^10)
                -0.0000
    Dipole Moment (Debye)
         X      -0.0874      Y       1.8311      Z      -0.8544
       Tot       2.0225
    Quadrupole Moments (Debye-Ang)
        XX    -169.2648     XY      -0.0200     YY    -166.4717
        XZ       9.0184     YZ       0.8327     ZZ    -172.9921
    Octopole Moments (Debye-Ang^2)
       XXX     -25.6674    XXY     484.0190    XYY      -5.5394
       YYY    1604.4491    XXZ      -0.8813    XYZ     -36.0555
       YYZ       2.3713    XZZ     -11.6333    YZZ     541.4292
       ZZZ      -5.2173
    Hexadecapole Moments (Debye-Ang^3)
      XXXX   -1633.6010   XXXY    -133.6218   XXYY   -3087.3665
      XYYY    -394.4338   YYYY  -17209.1865   XXXZ    1266.5381
      XXYZ       4.2028   XYYZ     674.7891   YYYZ     644.1274
      XXZZ   -1123.0225   XYZZ      78.9621   YYZZ   -3865.4160
      XZZZ    1335.5322   YZZZ      20.3811   ZZZZ   -4905.1665
 -----------------------------------------------------------------
 Total job time:  276.63s(wall), 8279.73s(cpu) 
 Fri Dec 15 13:47:00 2023

        *************************************************************
        *                                                           *
        *  Thank you very much for using Q-Chem.  Have a nice day.  *
        *                                                           *
        *************************************************************


0 sent ACK to 0 
now end server 0 ... 
cleanup process ... done
remove work dirs ./qchem3935885.0 -- ./qchem3935885.0
rm -rf ./qchem3935885.0
rm -rf ./qchem3935885
