You are running Q-Chem version: 5.4.0

#
# job setting
#
local host:  exp-4-09
current dir: /home/rramji/project-csd799/aromodel/pndit-qchem/rotation_run
input file:  Dimethyl_Naphthalene_Dicarboximide_Phi_30_Theta_200_Thiophene.qcin
output file: 
nprocs     : 1
nthreads   : 64
#
# qchem installation setting
#
QC:          /cm/shared/apps/spack/cpu/opt/spack/linux-centos8-zen2/gcc-10.2.0/qchem-5.4-akfmr7b3t57bfs6qan3padb2wnb2i7cl
QCAUX:       /cm/shared/apps/spack/cpu/opt/spack/linux-centos8-zen2/gcc-10.2.0/qchem-5.4-akfmr7b3t57bfs6qan3padb2wnb2i7cl/qcaux
QCPROG:      /cm/shared/apps/spack/cpu/opt/spack/linux-centos8-zen2/gcc-10.2.0/qchem-5.4-akfmr7b3t57bfs6qan3padb2wnb2i7cl/exe/qcprog.exe
QCPROG_S:    /cm/shared/apps/spack/cpu/opt/spack/linux-centos8-zen2/gcc-10.2.0/qchem-5.4-akfmr7b3t57bfs6qan3padb2wnb2i7cl/exe/qcprog.exe_s
PARALLEL:    -DPARALLEL
QCMPI:       mpich
#
# qchem directory setting
#
qcrun:       qchem2786391
QCSCRATCH:   .
QCLOCALSCR:  
QCTMPDIR:    .
QCFILEPREF:  ./qchem2786391
QCSAVEDIR:   
workdirs:    ./qchem2786391
workdir0:    ./qchem2786391
partmpdirs =  
#
# parallel setting
#
QCRSH:           ssh
QCMPI:           mpich
QCMPIRUN:        /cm/shared/apps/spack/cpu/opt/spack/linux-centos8-zen2/gcc-10.2.0/qchem-5.4-akfmr7b3t57bfs6qan3padb2wnb2i7cl/bin/mpi/mpirun_qchem
QCMACHINEFILE:   ./qchem2786391/hostfile
exp-4-09

#
# env setting
#
exported envs:   QC QCAUX QCSCRATCH QCRUNNAME QCFILEPREF QCPROG QCPROG_S GUIFILE

Running Job 1 of 1 Dimethyl_Naphthalene_Dicarboximide_Phi_30_Theta_200_Thiophene.qcin
qchem Dimethyl_Naphthalene_Dicarboximide_Phi_30_Theta_200_Thiophene.qcin_2786391.0 ./qchem2786391/ 1
/cm/shared/apps/spack/cpu/opt/spack/linux-centos8-zen2/gcc-10.2.0/qchem-5.4-akfmr7b3t57bfs6qan3padb2wnb2i7cl/bin/mpi/mpirun_qchem -machinefile ./qchem2786391/hostfile -np 1 /cm/shared/apps/spack/cpu/opt/spack/linux-centos8-zen2/gcc-10.2.0/qchem-5.4-akfmr7b3t57bfs6qan3padb2wnb2i7cl/exe/qcprog.exe Dimethyl_Naphthalene_Dicarboximide_Phi_30_Theta_200_Thiophene.qcin_2786391.0 ./qchem2786391/

Process 0 of 1 is on exp-4-09 - thread support 0
initial socket setup ...start
initial socket setup ...done 
now start server 0 ... 
                  Welcome to Q-Chem
     A Quantum Leap Into The Future Of Chemistry


 Q-Chem 5.4, Q-Chem, Inc., Pleasanton, CA (2021)

 License issued to: University of California, San Diego (site)

 E. Epifanovsky,  A. T. B. Gilbert,  Xintian Feng,  Joonho Lee,  Yuezhi Mao,  
 N. Mardirossian,  P. Pokhilko,  A. White,  M. Wormit,  M. P. Coons,  
 A. L. Dempwolff,  Zhengting Gan,  D. Hait,  P. R. Horn,  L. D. Jacobson,  
 I. Kaliman,  J. Kussmann,  A. W. Lange,  Ka Un Lao,  D. S. Levine,  Jie Liu,  
 S. C. McKenzie,  A. F. Morrison,  K. Nanda,  F. Plasser,  D. R. Rehn,  
 M. L. Vidal,  Zhi-Qiang You,  Ying Zhu,  B. Alam,  B. Albrecht,  
 A. Aldossary,  E. Alguire,  J. H. Andersen,  D. Barton,  K. Begam,  A. Behn,  
 Y. A. Bernard,  E. J. Berquist,  H. Burton,  A. Carreras,  K. Carter-Fenk,  
 R. Chakraborty,  A. D. Chien,  K. D. Closser,  V. Cofer-Shabica,  
 S. Dasgupta,  Jia Deng,  M. de Wergifosse,  M. Diedenhofen,  Hainam Do,  
 S. Ehlert,  Po-Tung Fang,  S. Fatehi,  Qingguo Feng,  J. Gayvert,  
 Qinghui Ge,  G. Gidofalvi,  M. Goldey,  J. Gomes,  C. Gonzalez-Espinoza,  
 S. Gulania,  A. Gunina,  M. W. D. Hanson-Heine,  P. H. P. Harbach,  
 A. W. Hauser,  M. F. Herbst,  M. Hernandez Vera,  M. Hodecker,  
 Z. C. Holden,  S. Houck,  Xunkun Huang,  Kerwin Hui,  B. C. Huynh,  
 M. Ivanov,  Hyunjun Ji,  Hanjie Jiang,  B. Kaduk,  S. Kaehler,  
 K. Khistyaev,  Jaehoon Kim,  P. Klunzinger,  Z. Koczor-Benda,  
 Joong Hoon Koh,  D. Kosenkov,  L. Koulias,  T. Kowalczyk,  C. M. Krauter,  
 K. Kue,  A. Kunitsa,  T. Kus,  A. Landau,  K. V. Lawler,  D. Lefrancois,  
 S. Lehtola,  Rain Li,  Yi-Pei Li,  Jiashu Liang,  M. Liebenthal,  
 Hung-Hsuan Lin,  You-Sheng Lin,  Fenglai Liu,  Kuan-Yu Liu,  
 M. Loipersberger,  A. Luenser,  A. Manjanath,  P. Manohar,  E. Mansoor,  
 S. F. Manzer,  Shan-Ping Mao,  A. V. Marenich,  T. Markovich,  S. Mason,  
 S. A. Maurer,  P. F. McLaughlin,  M. F. S. J. Menger,  J.-M. Mewes,  
 S. A. Mewes,  P. Morgante,  J. W. Mullinax,  T. S. Nguyen-Beck,  
 K. J. Oosterbaan,  G. Paran,  Alexander C. Paul,  Suranjan K. Paul,  
 F. Pavosevic,  Zheng Pei,  S. Prager,  E. I. Proynov,  E. Ramos,  B. Rana,  
 A. E. Rask,  A. Rettig,  R. M. Richard,  F. Rob,  E. Rossomme,  T. Scheele,  
 M. Scheurer,  M. Schneider,  N. Sergueev,  S. M. Sharada,  W. Skomorowski,  
 D. W. Small,  C. J. Stein,  Yu-Chuan Su,  E. J. Sundstrom,  Zhen Tao,  
 J. Thirman,  T. Tsuchimochi,  N. M. Tubman,  S. P. Veccham,  O. Vydrov,  
 J. Wenzel,  J. Witte,  A. Yamada,  Kun Yao,  S. Yeganeh,  S. R. Yost,  
 A. Zech,  Igor Ying Zhang,  Xing Zhang,  Yu Zhang,  D. Zuev,  
 A. Aspuru-Guzik,  A. T. Bell,  N. A. Besley,  K. B. Bravaya,  B. R. Brooks,  
 D. Casanova,  Jeng-Da Chai,  S. Coriani,  C. J. Cramer,  
 A. E. DePrince, III,  R. A. DiStasio Jr.,  A. Dreuw,  B. D. Dunietz,  
 T. R. Furlani,  W. A. Goddard III,  S. Grimme,  S. Hammes-Schiffer,  
 T. Head-Gordon,  W. J. Hehre,  Chao-Ping Hsu,  T.-C. Jagau,  Yousung Jung,  
 A. Klamt,  Jing Kong,  D. S. Lambrecht,  WanZhen Liang,  N. J. Mayhall,  
 C. W. McCurdy,  J. B. Neaton,  C. Ochsenfeld,  J. A. Parkhill,  R. Peverati,  
 V. A. Rassolov,  Yihan Shao,  L. V. Slipchenko,  T. Stauch,  R. P. Steele,  
 J. E. Subotnik,  A. J. W. Thom,  A. Tkatchenko,  D. G. Truhlar,  
 T. Van Voorhis,  T. A. Wesolowski,  K. B. Whaley,  H. L. Woodcock III,  
 P. M. Zimmerman,  S. Faraji,  P. M. W. Gill,  M. Head-Gordon,  
 J. M. Herbert,  A. I. Krylov

 Contributors to earlier versions of Q-Chem not listed above: 
 R. D. Adamson,  B. Austin,  R. Baer,  J. Baker,  G. J. O. Beran,  
 K. Brandhorst,  S. T. Brown,  E. F. C. Byrd,  A. K. Chakraborty,  
 G. K. L. Chan,  Chun-Min Chang,  Yunqing Chen,  C.-L. Cheng,  
 Siu Hung Chien,  D. M. Chipman,  D. L. Crittenden,  H. Dachsel,  
 R. J. Doerksen,  A. D. Dutoi,  R. G. Edgar,  J. Fosso-Tande,  
 L. Fusti-Molnar,  D. Ghosh,  A. Ghysels,  A. Golubeva-Zadorozhnaya,  
 J. Gonthier,  M. S. Gordon,  S. R. Gwaltney,  G. Hawkins,  J. E. Herr,  
 A. Heyden,  S. Hirata,  E. G. Hohenstein,  G. Kedziora,  F. J. Keil,  
 C. Kelley,  Jihan Kim,  R. A. King,  R. Z. Khaliullin,  P. P. Korambath,  
 W. Kurlancheek,  A. Laurent,  A. M. Lee,  M. S. Lee,  S. V. Levchenko,  
 Ching Yeh Lin,  D. Liotard,  E. Livshits,  R. C. Lochan,  I. Lotan,  
 L. A. Martinez-Martinez,  P. E. Maslen,  N. Nair,  D. P. O'Neill,  
 D. Neuhauser,  E. Neuscamman,  C. M. Oana,  R. Olivares-Amaya,  R. Olson,  
 T. M. Perrine,  B. Peters,  P. A. Pieniazek,  A. Prociuk,  Y. M. Rhee,  
 J. Ritchie,  M. A. Rohrdanz,  E. Rosta,  N. J. Russ,  H. F. Schaefer III,  
 M. W. Schmidt,  N. E. Schultz,  S. Sharma,  N. Shenvi,  C. D. Sherrill,  
 A. C. Simmonett,  A. Sodt,  T. Stein,  D. Stuck,  K. S. Thanthiriwatte,  
 V. Vanovschi,  L. Vogt,  Tao Wang,  A. Warshel,  M. A. Watson,  
 C. F. Williams,  Q. Wu,  X. Xu,  Jun Yang,  W. Zhang,  Yan Zhao

 Please cite Q-Chem as follows:
 Y. Shao et al., Mol. Phys. 113, 184-215 (2015)
 DOI: 10.1080/00268976.2014.952696

 Q-Chem 5.4.0 for Intel X86 EM64T Linux

 Parts of Q-Chem use Armadillo 9.800.1 (Horizon Scraper).
 http://arma.sourceforge.net/

 Q-Chem begins on Fri Dec 15 14:55:44 2023  

 Host: 
0

     Scratch files written to ./qchem2786391//
 May1621 |scratch|qcdevops|jenkins|workspace|build_RNUM    
 Parallel job on  1  processors
 Processing $rem in /cm/shared/apps/spack/cpu/opt/spack/linux-centos8-zen2/gcc-10.2.0/qchem-5.4-akfmr7b3t57bfs6qan3padb2wnb2i7cl/config/preferences:
 Processing $rem in /home/rramji/.qchemrc:
 Symmetry turned off for PCM/SM12/SMD calculation
 Core orbitals will be frozen

 Checking the input file for inconsistencies... 	...done.

 Q-Chem warning in module forms1/BasisType.C, line 2236:

 You are not using the predefined 5D/6D in this basis set.


--------------------------------------------------------------
User input:
--------------------------------------------------------------
$molecule
0 1
C	-0.086486	-6.741404	0.241938
C	-0.532960	-6.155638	1.468983
C	0.284733	-5.791452	-0.776651
C	-0.628455	-4.803786	1.730681
H	-0.833086	-6.821518	2.294130
C	0.184300	-4.378638	-0.502775
C	-0.271086	-3.838032	0.747353
C	0.541191	-3.413062	-1.484986
C	-0.370703	-2.426473	1.019042
C	0.446468	-2.059348	-1.226525
C	-0.000000	-1.478216	-0.000000
H	0.746717	-1.394783	-2.052666
C	0.779832	-6.187987	-2.131549
C	1.030596	-3.798164	-2.829295
N	1.115461	-5.170003	-3.057496
C	-1.119034	-4.424987	3.078712
C	-0.865151	-2.036627	2.375300
N	-1.201176	-3.049156	3.301374
O	0.916355	-7.353131	-2.498300
O	1.345486	-2.986854	-3.697195
O	-1.430379	-5.248946	3.936224
O	-1.007714	-0.878829	2.762805
C	1.599576	-5.563799	-4.384539
H	1.616121	-6.664085	-4.426636
H	2.611458	-5.147101	-4.550487
H	0.931037	-5.148785	-5.162921
C	-1.677382	-2.587487	4.608454
H	-1.896168	-3.483329	5.212668
H	-2.583531	-1.964972	4.482719
H	-0.903674	-1.962932	5.093988
H	-0.022586	-7.822318	0.067309
C	0.000000	0.000000	0.000000
S	0.396411	0.687007	1.580530
C	1.215245	2.105322	0.904911
C	0.498850	0.864369	-0.985400
C	1.158885	2.007781	-0.493528
H	0.381046	0.660280	-2.059934
H	1.599289	2.770727	-1.152593
H	1.655514	2.868056	1.556025
$end

$rem
JOBTYPE		SP
EXCHANGE	HF
CORRELATION	pRIMP2
BASIS		cc-pvtz
METHOD		rimp2
AUX_BASIS	rimp2-cc-pvtz
SOLVENT_METHOD	PCM
PURECART	11111
SYMMETRY	false
MEM_TOTAL	110000
SCF_CONVERGENCE = 6
THRESH=10
GUI = 2
$end



$solvent
dielectric 4.90
$end
--------------------------------------------------------------
 ----------------------------------------------------------------
             Standard Nuclear Orientation (Angstroms)
    I     Atom           X                Y                Z
 ----------------------------------------------------------------
    1      C      -0.0864860000    -6.7414040000     0.2419380000
    2      C      -0.5329600000    -6.1556380000     1.4689830000
    3      C       0.2847330000    -5.7914520000    -0.7766510000
    4      C      -0.6284550000    -4.8037860000     1.7306810000
    5      H      -0.8330860000    -6.8215180000     2.2941300000
    6      C       0.1843000000    -4.3786380000    -0.5027750000
    7      C      -0.2710860000    -3.8380320000     0.7473530000
    8      C       0.5411910000    -3.4130620000    -1.4849860000
    9      C      -0.3707030000    -2.4264730000     1.0190420000
   10      C       0.4464680000    -2.0593480000    -1.2265250000
   11      C       0.0000000000    -1.4782160000     0.0000000000
   12      H       0.7467170000    -1.3947830000    -2.0526660000
   13      C       0.7798320000    -6.1879870000    -2.1315490000
   14      C       1.0305960000    -3.7981640000    -2.8292950000
   15      N       1.1154610000    -5.1700030000    -3.0574960000
   16      C      -1.1190340000    -4.4249870000     3.0787120000
   17      C      -0.8651510000    -2.0366270000     2.3753000000
   18      N      -1.2011760000    -3.0491560000     3.3013740000
   19      O       0.9163550000    -7.3531310000    -2.4983000000
   20      O       1.3454860000    -2.9868540000    -3.6971950000
   21      O      -1.4303790000    -5.2489460000     3.9362240000
   22      O      -1.0077140000    -0.8788290000     2.7628050000
   23      C       1.5995760000    -5.5637990000    -4.3845390000
   24      H       1.6161210000    -6.6640850000    -4.4266360000
   25      H       2.6114580000    -5.1471010000    -4.5504870000
   26      H       0.9310370000    -5.1487850000    -5.1629210000
   27      C      -1.6773820000    -2.5874870000     4.6084540000
   28      H      -1.8961680000    -3.4833290000     5.2126680000
   29      H      -2.5835310000    -1.9649720000     4.4827190000
   30      H      -0.9036740000    -1.9629320000     5.0939880000
   31      H      -0.0225860000    -7.8223180000     0.0673090000
   32      C       0.0000000000     0.0000000000     0.0000000000
   33      S       0.3964110000     0.6870070000     1.5805300000
   34      C       1.2152450000     2.1053220000     0.9049110000
   35      C       0.4988500000     0.8643690000    -0.9854000000
   36      C       1.1588850000     2.0077810000    -0.4935280000
   37      H       0.3810460000     0.6602800000    -2.0599340000
   38      H       1.5992890000     2.7707270000    -1.1525930000
   39      H       1.6555140000     2.8680560000     1.5560250000
 ----------------------------------------------------------------
 Nuclear Repulsion Energy =        2515.57196272 hartrees
 There are       97 alpha and       97 beta electrons
 Requested basis set is cc-pVTZ
 There are 344 shells and 982 basis functions

 Total QAlloc Memory Limit 110000 MB
 Mega-Array Size       188 MB
 MEM_STATIC part       192 MB
 Discretize the solute cavity surface with Lebedev spheres
	Using 110 Lebedev grid points for each H atom
	Using 194 Lebedev grid points for other atoms
	Atomic van der Waals radii will be scaled by 1.20
 Remove points where switching function is < 1.0e-08
 Keep 2501 surface tesserae and discard 4057 interior tesserae
 Molecular Surface Area = 359.966 Angst**2
 Requested basis set is rimp2-cc-pVTZ
 There are 750 shells and 2588 basis functions
 A cutoff of  1.0D-10 yielded  31851 shell pairs
 There are    245259 function pairs (    318649 Cartesian)
 Smallest overlap matrix eigenvalue = 9.45E-06

 Q-Chem warning in module stvman/mkSTV.C, line 323:

 Overlap eigenvalue is smaller than square root of threshold
 Use THRESH >= 12 to get rid of this warning


 Scale SEOQF with 1.000000e-01/1.000000e-02/1.000000e-01

 Standard Electronic Orientation quadrupole field applied
 Nucleus-field energy     =    -0.0000000968 hartrees
 Guess from superposition of atomic densities
 Warning:  Energy on first SCF cycle will be non-variational
 SAD guess density has 194.000000 electrons

 -----------------------------------------------------------------------
  General SCF calculation program by
  Eric Jon Sundstrom, Paul Horn, Yuezhi Mao, Dmitri Zuev, Alec White,
  David Stuck, Shaama M.S., Shane Yost, Joonho Lee, David Small,
  Daniel Levine, Susi Lehtola, Hugh Burton, Evgeny Epifanovsky,
  Bang C. Huynh
 -----------------------------------------------------------------------
 Hartree-Fock
 using 64 threads for integral computing
 -------------------------------------------------------
 OpenMP Integral computing Module                
 Release: version 1.0, May 2013, Q-Chem Inc. Pittsburgh 
 -------------------------------------------------------
 A restricted SCF calculation will be
 performed using DIIS
 SCF converges when DIIS error is below 1.0e-06
 ---------------------------------------
  Cycle       Energy         DIIS error
 ---------------------------------------
    1   -1581.4033482987      1.87e-02  
    2   -1570.0982921985      2.08e-03  
    3   -1570.4242777733      1.61e-03  
    4   -1570.6494637934      2.59e-04  
    5   -1570.6616891616      7.66e-05  
    6   -1570.6627761681      2.85e-05  
    7   -1570.6630364235      1.46e-05  
    8   -1570.6631222096      6.13e-06  
    9   -1570.6631365685      2.34e-06  
   10   -1570.6631391738      8.96e-07  Convergence criterion met
 ---------------------------------------
 SCF time:   CPU 5865.41s  wall 217.00s 

************** Final PCM Free Energy Summary **************
 G_electrostatic  =      -0.02286170 hartree =     -14.34593558 kcal/mol
 G_cavitation     =       0.00000000 hartree =       0.00000000 kcal/mol
 G_dispersion     =       0.00000000 hartree =       0.00000000 kcal/mol
 G_repulsion      =       0.00000000 hartree =       0.00000000 kcal/mol
 --------------------------------------------------
 Non-electrostatic Free Energy =       0.00000000 hartree =       0.00000000 kcal/mol
 Total                         =      -0.02286170 hartree =     -14.34593558 kcal/mol
 --------------------------------------------------
 SCF Energy (H0 + V/2)                       =   -1570.66313917 
 Solute Internal Energy (H0)                 =   -1570.64027747 
 Total Free Energy (H0 + V/2 + non-elec)     =   -1570.66313917 hartree
                                             = -985605.99558214 kcal/mol
***********************************************************

 SCF   energy in the final basis set =    -1570.6631391738
 Total energy in the final basis set =    -1570.6631391738


 --------------------------------------------------------------
  Generalized many-body perturbation theory program
  by Joonho Lee, Fazle Rob, Xintian Feng, Evgeny Epifanovsky

 No regularization used 
 (reg. param. = 0.0000e+00)
  (P|Q)^-1/2 Time:  CPU 99.39 s  wall 1.96 s

 In RI-MP2 calculation: 
 # of frozen core orbitals: 31

 Components of the RIMP2 correlation energy:
        aaaa    correlation energy =        -0.6190804107 a.u.
        abab    correlation energy =        -3.3970251412 a.u.
        bbbb    correlation energy =        -0.6190804107 a.u.
        non-Brillouin singles      =        -0.0000000000 a.u.
        total same-spin energy     =        -1.2381608214 a.u.
        total opposite-spin energy =        -3.3970251412 a.u.

 Total  RIMP2   correlation energy =        -4.6351859626 a.u.
        RIMP2         total energy =     -1575.2983251364 a.u.

 RI-MP2 Energy Time:  CPU 1827.81 s  wall 29.94 s
 
 --------------------------------------------------------------
 
                    Orbital Energies (a.u.)
 --------------------------------------------------------------
 
 Alpha MOs
 -- Occupied --
-91.9835 -20.5585 -20.5566 -20.5563 -20.5529 -15.6312 -15.6301 -11.3997
-11.3964 -11.3908 -11.3907 -11.3202 -11.3016 -11.2997 -11.2961 -11.2939
-11.2929 -11.2867 -11.2864 -11.2841 -11.2822 -11.2783 -11.2766 -11.2667
-11.2646 -11.2643 -11.2485  -8.9830  -6.6635  -6.6626  -6.6620  -1.4270
 -1.4249  -1.4046  -1.4043  -1.2675  -1.2654  -1.2162  -1.1772  -1.1424
 -1.1155  -1.0617  -1.0484  -0.9923  -0.9898  -0.9857  -0.9585  -0.9467
 -0.8961  -0.8788  -0.8765  -0.8612  -0.7931  -0.7770  -0.7751  -0.7635
 -0.7319  -0.7198  -0.7043  -0.6933  -0.6866  -0.6745  -0.6665  -0.6623
 -0.6563  -0.6398  -0.6365  -0.6347  -0.6266  -0.6139  -0.5840  -0.5835
 -0.5815  -0.5722  -0.5705  -0.5661  -0.5641  -0.5555  -0.5550  -0.5485
 -0.5324  -0.5263  -0.5194  -0.5164  -0.4880  -0.4734  -0.4629  -0.4618
 -0.4568  -0.4338  -0.4237  -0.4138  -0.4077  -0.3743  -0.3494  -0.3360
 -0.2984
 -- Virtual --
 -0.0189   0.0527   0.0691   0.1011   0.1228   0.1550   0.1583   0.1604
  0.1668   0.1777   0.1806   0.1835   0.1863   0.1956   0.2078   0.2125
  0.2277   0.2279   0.2288   0.2377   0.2565   0.2584   0.2654   0.2682
  0.2787   0.3045   0.3148   0.3162   0.3240   0.3275   0.3346   0.3406
  0.3433   0.3467   0.3528   0.3555   0.3590   0.3606   0.3742   0.3752
  0.3842   0.3865   0.3916   0.3955   0.4007   0.4058   0.4101   0.4144
  0.4233   0.4308   0.4337   0.4367   0.4404   0.4440   0.4517   0.4560
  0.4599   0.4603   0.4691   0.4735   0.4800   0.4838   0.4909   0.4947
  0.4988   0.5022   0.5108   0.5122   0.5146   0.5183   0.5269   0.5357
  0.5374   0.5413   0.5494   0.5511   0.5555   0.5560   0.5662   0.5678
  0.5730   0.5786   0.5841   0.5873   0.5909   0.5948   0.5981   0.6011
  0.6069   0.6087   0.6148   0.6162   0.6208   0.6283   0.6299   0.6313
  0.6337   0.6366   0.6374   0.6398   0.6441   0.6480   0.6620   0.6706
  0.6854   0.6897   0.6903   0.6968   0.6996   0.7078   0.7139   0.7250
  0.7309   0.7376   0.7381   0.7486   0.7546   0.7598   0.7638   0.7699
  0.7704   0.7838   0.7885   0.7920   0.7994   0.8089   0.8127   0.8186
  0.8323   0.8336   0.8389   0.8453   0.8476   0.8530   0.8543   0.8642
  0.8656   0.8693   0.8715   0.8768   0.8892   0.9001   0.9023   0.9077
  0.9137   0.9164   0.9215   0.9269   0.9297   0.9339   0.9398   0.9473
  0.9507   0.9653   0.9700   0.9710   0.9739   0.9774   0.9821   0.9847
  0.9902   0.9979   0.9994   1.0061   1.0107   1.0213   1.0283   1.0295
  1.0337   1.0422   1.0463   1.0497   1.0634   1.0671   1.0700   1.0755
  1.0796   1.0799   1.0828   1.0852   1.0955   1.0997   1.1107   1.1132
  1.1221   1.1298   1.1332   1.1383   1.1427   1.1493   1.1518   1.1586
  1.1644   1.1725   1.1738   1.1744   1.1777   1.1820   1.1950   1.2019
  1.2038   1.2116   1.2176   1.2234   1.2243   1.2282   1.2394   1.2426
  1.2487   1.2512   1.2552   1.2605   1.2634   1.2744   1.2880   1.3055
  1.3123   1.3243   1.3297   1.3383   1.3420   1.3445   1.3569   1.3668
  1.3755   1.3778   1.3814   1.3846   1.3849   1.3924   1.3984   1.4159
  1.4198   1.4278   1.4375   1.4415   1.4449   1.4489   1.4562   1.4716
  1.4756   1.4814   1.4858   1.4920   1.4985   1.5058   1.5187   1.5191
  1.5309   1.5312   1.5379   1.5512   1.5549   1.5585   1.5619   1.5681
  1.5702   1.5749   1.5864   1.5920   1.5992   1.6064   1.6256   1.6278
  1.6386   1.6464   1.6528   1.6569   1.6707   1.6741   1.6824   1.6939
  1.6982   1.7089   1.7124   1.7257   1.7321   1.7360   1.7421   1.7484
  1.7607   1.7658   1.7723   1.7828   1.7945   1.8021   1.8088   1.8158
  1.8252   1.8281   1.8400   1.8459   1.8535   1.8622   1.8630   1.8647
  1.8791   1.8915   1.8992   1.9133   1.9200   1.9232   1.9518   1.9576
  1.9589   1.9656   1.9741   1.9774   1.9890   1.9944   2.0358   2.0460
  2.0537   2.0577   2.0733   2.0856   2.1071   2.1188   2.1313   2.1398
  2.1549   2.1598   2.1773   2.1806   2.1940   2.2163   2.2269   2.2333
  2.2380   2.2566   2.2631   2.2830   2.2867   2.2924   2.2974   2.3057
  2.3228   2.3271   2.3306   2.3469   2.3574   2.3661   2.3739   2.3921
  2.3972   2.4268   2.4345   2.4498   2.4533   2.4571   2.4617   2.4693
  2.4836   2.4913   2.4988   2.5029   2.5100   2.5273   2.5380   2.5435
  2.5572   2.5667   2.5721   2.5888   2.5917   2.5936   2.6004   2.6115
  2.6171   2.6211   2.6301   2.6439   2.6556   2.6598   2.6650   2.6731
  2.6791   2.6868   2.6929   2.7078   2.7115   2.7185   2.7271   2.7329
  2.7382   2.7437   2.7507   2.7526   2.7572   2.7684   2.7723   2.7910
  2.7976   2.8027   2.8222   2.8340   2.8370   2.8509   2.8574   2.8625
  2.8726   2.8772   2.8783   2.8802   2.8929   2.8942   2.9042   2.9083
  2.9111   2.9215   2.9270   2.9343   2.9475   2.9514   2.9684   2.9702
  2.9761   2.9797   2.9876   2.9987   3.0042   3.0082   3.0114   3.0196
  3.0305   3.0354   3.0430   3.0503   3.0525   3.0598   3.0740   3.0824
  3.0875   3.0945   3.1006   3.1012   3.1060   3.1113   3.1131   3.1198
  3.1287   3.1309   3.1335   3.1503   3.1595   3.1687   3.1738   3.1788
  3.1879   3.1910   3.1958   3.2065   3.2074   3.2147   3.2154   3.2217
  3.2255   3.2313   3.2356   3.2400   3.2435   3.2540   3.2549   3.2636
  3.2696   3.2743   3.2799   3.2851   3.2872   3.2924   3.2939   3.3000
  3.3013   3.3111   3.3172   3.3254   3.3258   3.3278   3.3342   3.3376
  3.3427   3.3451   3.3472   3.3507   3.3590   3.3637   3.3701   3.3760
  3.3797   3.3856   3.3893   3.4001   3.4035   3.4042   3.4080   3.4180
  3.4186   3.4249   3.4356   3.4363   3.4409   3.4487   3.4511   3.4557
  3.4616   3.4669   3.4707   3.4736   3.4808   3.4873   3.4913   3.4926
  3.4988   3.5036   3.5050   3.5116   3.5133   3.5192   3.5245   3.5315
  3.5367   3.5384   3.5438   3.5569   3.5622   3.5687   3.5809   3.5828
  3.5845   3.6009   3.6049   3.6083   3.6111   3.6188   3.6263   3.6298
  3.6319   3.6389   3.6406   3.6486   3.6522   3.6648   3.6705   3.6760
  3.6776   3.6880   3.6975   3.7034   3.7039   3.7118   3.7132   3.7266
  3.7323   3.7356   3.7394   3.7500   3.7539   3.7568   3.7612   3.7732
  3.7742   3.7816   3.7859   3.7924   3.7964   3.7993   3.8035   3.8138
  3.8158   3.8292   3.8302   3.8380   3.8422   3.8457   3.8540   3.8625
  3.8654   3.8694   3.8770   3.8843   3.8947   3.8995   3.9136   3.9278
  3.9297   3.9355   3.9362   3.9479   3.9532   3.9656   3.9678   3.9777
  3.9851   4.0029   4.0102   4.0144   4.0215   4.0239   4.0332   4.0467
  4.0577   4.0600   4.0660   4.0851   4.0930   4.0942   4.1045   4.1124
  4.1164   4.1347   4.1364   4.1504   4.1522   4.1601   4.1653   4.1717
  4.1796   4.1869   4.1943   4.2023   4.2092   4.2194   4.2305   4.2351
  4.2522   4.2642   4.2690   4.2744   4.2787   4.2830   4.2882   4.2928
  4.2963   4.3015   4.3071   4.3118   4.3215   4.3303   4.3401   4.3462
  4.3553   4.3581   4.3653   4.3654   4.3694   4.3730   4.3804   4.3838
  4.3948   4.4035   4.4053   4.4139   4.4195   4.4249   4.4264   4.4415
  4.4618   4.4640   4.4710   4.4813   4.5025   4.5108   4.5140   4.5185
  4.5218   4.5253   4.5410   4.5422   4.5493   4.5565   4.5687   4.5772
  4.5802   4.5854   4.5917   4.5966   4.6063   4.6158   4.6292   4.6355
  4.6419   4.6529   4.6650   4.6711   4.6775   4.6784   4.6858   4.6964
  4.7171   4.7262   4.7333   4.7473   4.7688   4.7795   4.7846   4.7917
  4.8179   4.8204   4.8327   4.8388   4.8524   4.8644   4.8707   4.8708
  4.8824   4.8958   4.9128   4.9254   4.9440   4.9620   4.9730   4.9795
  4.9945   5.0143   5.0245   5.0377   5.0434   5.0483   5.0536   5.0839
  5.0904   5.1015   5.1070   5.1201   5.1265   5.1318   5.1404   5.1477
  5.1560   5.1756   5.1859   5.1923   5.2011   5.2257   5.2492   5.2571
  5.2721   5.2780   5.2897   5.2995   5.3049   5.3233   5.3327   5.3485
  5.3528   5.3967   5.4040   5.4088   5.4196   5.4318   5.4358   5.4558
  5.4874   5.5055   5.5087   5.5102   5.5140   5.5304   5.5471   5.5567
  5.5599   5.5612   5.5758   5.5778   5.5783   5.5917   5.6013   5.6087
  5.6246   5.6360   5.6527   5.6564   5.6617   5.6734   5.6764   5.6930
  5.6989   5.7164   5.7311   5.7423   5.7456   5.7565   5.7616   5.7708
  5.7818   5.7842   5.8202   5.8368   5.8394   5.8777   5.9026   5.9177
  5.9401   5.9658   5.9875   6.0027   6.0235   6.0294   6.0379   6.0418
  6.0818   6.0881   6.1013   6.1187   6.1207   6.1687   6.1945   6.2088
  6.2176   6.2189   6.2236   6.2585   6.2668   6.2776   6.3039   6.3429
  6.3499   6.3742   6.4201   6.4475   6.4661   6.5250   6.5619   6.5692
  6.5812   6.6049   6.6214   6.6473   6.6591   6.6679   6.7110   6.8320
  6.8384   6.8812   6.8861   6.8988   6.9113   6.9313   7.0036   7.0797
  7.1184   7.1424   7.1851   7.1997   7.2319   7.3325   7.3427   7.3442
  7.3595   7.4664   7.5452   7.5574   7.5742   7.5803   7.6144   7.6343
  7.6775   7.6846   7.7245   8.3897   9.9299  10.3206  11.0907  11.2037
 11.7053  11.7743  12.0577  12.3875  12.4285  12.6731  12.8474  12.9247
 13.3305  13.5469  13.8188  13.9364  14.0425  14.1489  14.2664  14.3575
 14.4332  14.7364  15.3288  15.7470  16.0045
 --------------------------------------------------------------
 
          Ground-State Mulliken Net Atomic Charges

     Atom                 Charge (a.u.)
  ----------------------------------------
      1 C                    -0.148473
      2 C                    -0.110353
      3 C                    -0.028023
      4 C                    -0.005688
      5 H                     0.187914
      6 C                    -0.001824
      7 C                     0.082696
      8 C                     0.011340
      9 C                    -0.085732
     10 C                    -0.140325
     11 C                     0.074901
     12 H                     0.179121
     13 C                     0.358457
     14 C                     0.363754
     15 N                    -0.101771
     16 C                     0.357730
     17 C                     0.372824
     18 N                    -0.093947
     19 O                    -0.464199
     20 O                    -0.478019
     21 O                    -0.483523
     22 O                    -0.473096
     23 C                    -0.201364
     24 H                     0.141218
     25 H                     0.112260
     26 H                     0.112305
     27 C                    -0.197580
     28 H                     0.134305
     29 H                     0.112887
     30 H                     0.112965
     31 H                     0.212178
     32 C                     0.006590
     33 S                     0.099377
     34 C                    -0.206703
     35 C                    -0.196636
     36 C                    -0.206036
     37 H                     0.189172
     38 H                     0.189935
     39 H                     0.211362
  ----------------------------------------
  Sum of atomic charges =     0.000000

 -----------------------------------------------------------------
                    Cartesian Multipole Moments
 -----------------------------------------------------------------
    Charge (ESU x 10^10)
                 0.0000
    Dipole Moment (Debye)
         X       1.1111      Y       1.9014      Z      -0.6582
       Tot       2.2985
    Quadrupole Moments (Debye-Ang)
        XX    -163.7253     XY       4.7813     YY    -172.9959
        XZ       6.9846     YZ       0.9193     ZZ    -174.7566
    Octopole Moments (Debye-Ang^2)
       XXX     -53.2451    XXY     490.7961    XYY      -3.5067
       YYY    1626.2429    XXZ     -31.4536    XYZ     -23.5520
       YYZ     -24.6270    XZZ     -10.9385    YZZ     557.6529
       ZZZ    -104.1832
    Hexadecapole Moments (Debye-Ang^3)
      XXXX    -997.1688   XXXY       0.9375   XXYY   -2849.4287
      XYYY     198.3951   YYYY  -17274.6549   XXXZ     904.4164
      XXYZ     -78.6656   XYYZ     505.8056   YYYZ    -741.2017
      XXZZ   -1108.5761   XYZZ     -91.4205   YYZZ   -4070.3668
      XZZZ     982.1632   YZZZ     -64.3511   ZZZZ   -5721.5824
 -----------------------------------------------------------------
 Total job time:  251.18s(wall), 7791.18s(cpu) 
 Fri Dec 15 14:59:55 2023

        *************************************************************
        *                                                           *
        *  Thank you very much for using Q-Chem.  Have a nice day.  *
        *                                                           *
        *************************************************************


0 sent ACK to 0 
now end server 0 ... 
cleanup process ... done
remove work dirs ./qchem2786391.0 -- ./qchem2786391.0
rm -rf ./qchem2786391.0
rm -rf ./qchem2786391
