You are running Q-Chem version: 5.4.0

#
# job setting
#
local host:  exp-5-28
current dir: /home/rramji/project-csd799/aromodel/pndit-qchem/rotation_run
input file:  Dimethyl_Naphthalene_Dicarboximide_Phi_60_Theta_270_Thiophene.qcin
output file: 
nprocs     : 1
nthreads   : 64
#
# qchem installation setting
#
QC:          /cm/shared/apps/spack/cpu/opt/spack/linux-centos8-zen2/gcc-10.2.0/qchem-5.4-akfmr7b3t57bfs6qan3padb2wnb2i7cl
QCAUX:       /cm/shared/apps/spack/cpu/opt/spack/linux-centos8-zen2/gcc-10.2.0/qchem-5.4-akfmr7b3t57bfs6qan3padb2wnb2i7cl/qcaux
QCPROG:      /cm/shared/apps/spack/cpu/opt/spack/linux-centos8-zen2/gcc-10.2.0/qchem-5.4-akfmr7b3t57bfs6qan3padb2wnb2i7cl/exe/qcprog.exe
QCPROG_S:    /cm/shared/apps/spack/cpu/opt/spack/linux-centos8-zen2/gcc-10.2.0/qchem-5.4-akfmr7b3t57bfs6qan3padb2wnb2i7cl/exe/qcprog.exe_s
PARALLEL:    -DPARALLEL
QCMPI:       mpich
#
# qchem directory setting
#
qcrun:       qchem210269
QCSCRATCH:   .
QCLOCALSCR:  
QCTMPDIR:    .
QCFILEPREF:  ./qchem210269
QCSAVEDIR:   
workdirs:    ./qchem210269
workdir0:    ./qchem210269
partmpdirs =  
#
# parallel setting
#
QCRSH:           ssh
QCMPI:           mpich
QCMPIRUN:        /cm/shared/apps/spack/cpu/opt/spack/linux-centos8-zen2/gcc-10.2.0/qchem-5.4-akfmr7b3t57bfs6qan3padb2wnb2i7cl/bin/mpi/mpirun_qchem
QCMACHINEFILE:   ./qchem210269/hostfile
exp-5-28

#
# env setting
#
exported envs:   QC QCAUX QCSCRATCH QCRUNNAME QCFILEPREF QCPROG QCPROG_S GUIFILE

Running Job 1 of 1 Dimethyl_Naphthalene_Dicarboximide_Phi_60_Theta_270_Thiophene.qcin
qchem Dimethyl_Naphthalene_Dicarboximide_Phi_60_Theta_270_Thiophene.qcin_210269.0 ./qchem210269/ 1
/cm/shared/apps/spack/cpu/opt/spack/linux-centos8-zen2/gcc-10.2.0/qchem-5.4-akfmr7b3t57bfs6qan3padb2wnb2i7cl/bin/mpi/mpirun_qchem -machinefile ./qchem210269/hostfile -np 1 /cm/shared/apps/spack/cpu/opt/spack/linux-centos8-zen2/gcc-10.2.0/qchem-5.4-akfmr7b3t57bfs6qan3padb2wnb2i7cl/exe/qcprog.exe Dimethyl_Naphthalene_Dicarboximide_Phi_60_Theta_270_Thiophene.qcin_210269.0 ./qchem210269/

Process 0 of 1 is on exp-5-28 - thread support 0
initial socket setup ...start
initial socket setup ...done 
now start server 0 ... 
                  Welcome to Q-Chem
     A Quantum Leap Into The Future Of Chemistry


 Q-Chem 5.4, Q-Chem, Inc., Pleasanton, CA (2021)

 License issued to: University of California, San Diego (site)

 E. Epifanovsky,  A. T. B. Gilbert,  Xintian Feng,  Joonho Lee,  Yuezhi Mao,  
 N. Mardirossian,  P. Pokhilko,  A. White,  M. Wormit,  M. P. Coons,  
 A. L. Dempwolff,  Zhengting Gan,  D. Hait,  P. R. Horn,  L. D. Jacobson,  
 I. Kaliman,  J. Kussmann,  A. W. Lange,  Ka Un Lao,  D. S. Levine,  Jie Liu,  
 S. C. McKenzie,  A. F. Morrison,  K. Nanda,  F. Plasser,  D. R. Rehn,  
 M. L. Vidal,  Zhi-Qiang You,  Ying Zhu,  B. Alam,  B. Albrecht,  
 A. Aldossary,  E. Alguire,  J. H. Andersen,  D. Barton,  K. Begam,  A. Behn,  
 Y. A. Bernard,  E. J. Berquist,  H. Burton,  A. Carreras,  K. Carter-Fenk,  
 R. Chakraborty,  A. D. Chien,  K. D. Closser,  V. Cofer-Shabica,  
 S. Dasgupta,  Jia Deng,  M. de Wergifosse,  M. Diedenhofen,  Hainam Do,  
 S. Ehlert,  Po-Tung Fang,  S. Fatehi,  Qingguo Feng,  J. Gayvert,  
 Qinghui Ge,  G. Gidofalvi,  M. Goldey,  J. Gomes,  C. Gonzalez-Espinoza,  
 S. Gulania,  A. Gunina,  M. W. D. Hanson-Heine,  P. H. P. Harbach,  
 A. W. Hauser,  M. F. Herbst,  M. Hernandez Vera,  M. Hodecker,  
 Z. C. Holden,  S. Houck,  Xunkun Huang,  Kerwin Hui,  B. C. Huynh,  
 M. Ivanov,  Hyunjun Ji,  Hanjie Jiang,  B. Kaduk,  S. Kaehler,  
 K. Khistyaev,  Jaehoon Kim,  P. Klunzinger,  Z. Koczor-Benda,  
 Joong Hoon Koh,  D. Kosenkov,  L. Koulias,  T. Kowalczyk,  C. M. Krauter,  
 K. Kue,  A. Kunitsa,  T. Kus,  A. Landau,  K. V. Lawler,  D. Lefrancois,  
 S. Lehtola,  Rain Li,  Yi-Pei Li,  Jiashu Liang,  M. Liebenthal,  
 Hung-Hsuan Lin,  You-Sheng Lin,  Fenglai Liu,  Kuan-Yu Liu,  
 M. Loipersberger,  A. Luenser,  A. Manjanath,  P. Manohar,  E. Mansoor,  
 S. F. Manzer,  Shan-Ping Mao,  A. V. Marenich,  T. Markovich,  S. Mason,  
 S. A. Maurer,  P. F. McLaughlin,  M. F. S. J. Menger,  J.-M. Mewes,  
 S. A. Mewes,  P. Morgante,  J. W. Mullinax,  T. S. Nguyen-Beck,  
 K. J. Oosterbaan,  G. Paran,  Alexander C. Paul,  Suranjan K. Paul,  
 F. Pavosevic,  Zheng Pei,  S. Prager,  E. I. Proynov,  E. Ramos,  B. Rana,  
 A. E. Rask,  A. Rettig,  R. M. Richard,  F. Rob,  E. Rossomme,  T. Scheele,  
 M. Scheurer,  M. Schneider,  N. Sergueev,  S. M. Sharada,  W. Skomorowski,  
 D. W. Small,  C. J. Stein,  Yu-Chuan Su,  E. J. Sundstrom,  Zhen Tao,  
 J. Thirman,  T. Tsuchimochi,  N. M. Tubman,  S. P. Veccham,  O. Vydrov,  
 J. Wenzel,  J. Witte,  A. Yamada,  Kun Yao,  S. Yeganeh,  S. R. Yost,  
 A. Zech,  Igor Ying Zhang,  Xing Zhang,  Yu Zhang,  D. Zuev,  
 A. Aspuru-Guzik,  A. T. Bell,  N. A. Besley,  K. B. Bravaya,  B. R. Brooks,  
 D. Casanova,  Jeng-Da Chai,  S. Coriani,  C. J. Cramer,  
 A. E. DePrince, III,  R. A. DiStasio Jr.,  A. Dreuw,  B. D. Dunietz,  
 T. R. Furlani,  W. A. Goddard III,  S. Grimme,  S. Hammes-Schiffer,  
 T. Head-Gordon,  W. J. Hehre,  Chao-Ping Hsu,  T.-C. Jagau,  Yousung Jung,  
 A. Klamt,  Jing Kong,  D. S. Lambrecht,  WanZhen Liang,  N. J. Mayhall,  
 C. W. McCurdy,  J. B. Neaton,  C. Ochsenfeld,  J. A. Parkhill,  R. Peverati,  
 V. A. Rassolov,  Yihan Shao,  L. V. Slipchenko,  T. Stauch,  R. P. Steele,  
 J. E. Subotnik,  A. J. W. Thom,  A. Tkatchenko,  D. G. Truhlar,  
 T. Van Voorhis,  T. A. Wesolowski,  K. B. Whaley,  H. L. Woodcock III,  
 P. M. Zimmerman,  S. Faraji,  P. M. W. Gill,  M. Head-Gordon,  
 J. M. Herbert,  A. I. Krylov

 Contributors to earlier versions of Q-Chem not listed above: 
 R. D. Adamson,  B. Austin,  R. Baer,  J. Baker,  G. J. O. Beran,  
 K. Brandhorst,  S. T. Brown,  E. F. C. Byrd,  A. K. Chakraborty,  
 G. K. L. Chan,  Chun-Min Chang,  Yunqing Chen,  C.-L. Cheng,  
 Siu Hung Chien,  D. M. Chipman,  D. L. Crittenden,  H. Dachsel,  
 R. J. Doerksen,  A. D. Dutoi,  R. G. Edgar,  J. Fosso-Tande,  
 L. Fusti-Molnar,  D. Ghosh,  A. Ghysels,  A. Golubeva-Zadorozhnaya,  
 J. Gonthier,  M. S. Gordon,  S. R. Gwaltney,  G. Hawkins,  J. E. Herr,  
 A. Heyden,  S. Hirata,  E. G. Hohenstein,  G. Kedziora,  F. J. Keil,  
 C. Kelley,  Jihan Kim,  R. A. King,  R. Z. Khaliullin,  P. P. Korambath,  
 W. Kurlancheek,  A. Laurent,  A. M. Lee,  M. S. Lee,  S. V. Levchenko,  
 Ching Yeh Lin,  D. Liotard,  E. Livshits,  R. C. Lochan,  I. Lotan,  
 L. A. Martinez-Martinez,  P. E. Maslen,  N. Nair,  D. P. O'Neill,  
 D. Neuhauser,  E. Neuscamman,  C. M. Oana,  R. Olivares-Amaya,  R. Olson,  
 T. M. Perrine,  B. Peters,  P. A. Pieniazek,  A. Prociuk,  Y. M. Rhee,  
 J. Ritchie,  M. A. Rohrdanz,  E. Rosta,  N. J. Russ,  H. F. Schaefer III,  
 M. W. Schmidt,  N. E. Schultz,  S. Sharma,  N. Shenvi,  C. D. Sherrill,  
 A. C. Simmonett,  A. Sodt,  T. Stein,  D. Stuck,  K. S. Thanthiriwatte,  
 V. Vanovschi,  L. Vogt,  Tao Wang,  A. Warshel,  M. A. Watson,  
 C. F. Williams,  Q. Wu,  X. Xu,  Jun Yang,  W. Zhang,  Yan Zhao

 Please cite Q-Chem as follows:
 Y. Shao et al., Mol. Phys. 113, 184-215 (2015)
 DOI: 10.1080/00268976.2014.952696

 Q-Chem 5.4.0 for Intel X86 EM64T Linux

 Parts of Q-Chem use Armadillo 9.800.1 (Horizon Scraper).
 http://arma.sourceforge.net/

 Q-Chem begins on Fri Dec 15 15:35:30 2023  

 Host: 
0

     Scratch files written to ./qchem210269//
 May1621 |scratch|qcdevops|jenkins|workspace|build_RNUM    
 Parallel job on  1  processors
 Processing $rem in /cm/shared/apps/spack/cpu/opt/spack/linux-centos8-zen2/gcc-10.2.0/qchem-5.4-akfmr7b3t57bfs6qan3padb2wnb2i7cl/config/preferences:
 Processing $rem in /home/rramji/.qchemrc:
 Symmetry turned off for PCM/SM12/SMD calculation
 Core orbitals will be frozen

 Checking the input file for inconsistencies... 	...done.

 Q-Chem warning in module forms1/BasisType.C, line 2236:

 You are not using the predefined 5D/6D in this basis set.


--------------------------------------------------------------
User input:
--------------------------------------------------------------
$molecule
0 1
C	-0.256927	-6.741404	0.001478
C	-1.562675	-6.155638	0.001603
C	0.827197	-5.791452	0.001931
C	-1.841253	-4.803786	0.001374
H	-2.440709	-6.821518	0.001794
C	0.535488	-4.378638	0.001227
C	-0.794999	-3.838032	0.000872
C	1.580529	-3.413062	0.000658
C	-1.084374	-2.426473	0.000186
C	1.305258	-2.059348	0.000046
C	-0.000000	-1.478216	-0.000000
H	2.184267	-1.394783	-0.000369
C	2.269719	-6.187987	0.003770
C	3.011152	-3.798164	0.000767
N	3.254617	-5.170003	0.002465
C	-3.275775	-4.424987	0.001433
C	-2.527951	-2.036627	-0.000576
N	-3.513104	-3.049156	0.000400
O	2.661046	-7.353131	0.006623
O	3.934410	-2.986854	-0.000172
O	-4.188059	-5.248946	0.002151
O	-2.940845	-0.878829	-0.002006
C	4.667206	-5.563799	0.003509
H	4.712423	-6.664085	0.004658
H	5.169231	-5.147101	0.897610
H	5.169992	-5.148785	-0.890935
C	-4.904229	-2.587487	-0.000039
H	-5.546833	-3.483329	0.001022
H	-5.095998	-1.964972	-0.894545
H	-5.095858	-1.962932	0.893071
H	-0.070974	-7.822318	0.001797
C	0.000000	0.000000	0.000000
S	0.686805	0.396760	1.580530
C	2.105095	1.215640	0.904911
C	0.864201	0.499140	-0.985400
C	2.007514	1.159347	-0.493528
H	0.660136	0.381296	-2.059934
H	2.770388	1.599875	-1.152593
H	2.867745	1.656053	1.556025
$end

$rem
JOBTYPE		SP
EXCHANGE	HF
CORRELATION	pRIMP2
BASIS		cc-pvtz
METHOD		rimp2
AUX_BASIS	rimp2-cc-pvtz
SOLVENT_METHOD	PCM
PURECART	11111
SYMMETRY	false
MEM_TOTAL	110000
SCF_CONVERGENCE = 6
THRESH=10
GUI = 2
$end



$solvent
dielectric 4.90
$end
--------------------------------------------------------------
 ----------------------------------------------------------------
             Standard Nuclear Orientation (Angstroms)
    I     Atom           X                Y                Z
 ----------------------------------------------------------------
    1      C      -0.2569270000    -6.7414040000     0.0014780000
    2      C      -1.5626750000    -6.1556380000     0.0016030000
    3      C       0.8271970000    -5.7914520000     0.0019310000
    4      C      -1.8412530000    -4.8037860000     0.0013740000
    5      H      -2.4407090000    -6.8215180000     0.0017940000
    6      C       0.5354880000    -4.3786380000     0.0012270000
    7      C      -0.7949990000    -3.8380320000     0.0008720000
    8      C       1.5805290000    -3.4130620000     0.0006580000
    9      C      -1.0843740000    -2.4264730000     0.0001860000
   10      C       1.3052580000    -2.0593480000     0.0000460000
   11      C       0.0000000000    -1.4782160000     0.0000000000
   12      H       2.1842670000    -1.3947830000    -0.0003690000
   13      C       2.2697190000    -6.1879870000     0.0037700000
   14      C       3.0111520000    -3.7981640000     0.0007670000
   15      N       3.2546170000    -5.1700030000     0.0024650000
   16      C      -3.2757750000    -4.4249870000     0.0014330000
   17      C      -2.5279510000    -2.0366270000    -0.0005760000
   18      N      -3.5131040000    -3.0491560000     0.0004000000
   19      O       2.6610460000    -7.3531310000     0.0066230000
   20      O       3.9344100000    -2.9868540000    -0.0001720000
   21      O      -4.1880590000    -5.2489460000     0.0021510000
   22      O      -2.9408450000    -0.8788290000    -0.0020060000
   23      C       4.6672060000    -5.5637990000     0.0035090000
   24      H       4.7124230000    -6.6640850000     0.0046580000
   25      H       5.1692310000    -5.1471010000     0.8976100000
   26      H       5.1699920000    -5.1487850000    -0.8909350000
   27      C      -4.9042290000    -2.5874870000    -0.0000390000
   28      H      -5.5468330000    -3.4833290000     0.0010220000
   29      H      -5.0959980000    -1.9649720000    -0.8945450000
   30      H      -5.0958580000    -1.9629320000     0.8930710000
   31      H      -0.0709740000    -7.8223180000     0.0017970000
   32      C       0.0000000000     0.0000000000     0.0000000000
   33      S       0.6868050000     0.3967600000     1.5805300000
   34      C       2.1050950000     1.2156400000     0.9049110000
   35      C       0.8642010000     0.4991400000    -0.9854000000
   36      C       2.0075140000     1.1593470000    -0.4935280000
   37      H       0.6601360000     0.3812960000    -2.0599340000
   38      H       2.7703880000     1.5998750000    -1.1525930000
   39      H       2.8677450000     1.6560530000     1.5560250000
 ----------------------------------------------------------------
 Nuclear Repulsion Energy =        2525.88906658 hartrees
 There are       97 alpha and       97 beta electrons
 Requested basis set is cc-pVTZ
 There are 344 shells and 982 basis functions

 Total QAlloc Memory Limit 110000 MB
 Mega-Array Size       188 MB
 MEM_STATIC part       192 MB
 Discretize the solute cavity surface with Lebedev spheres
	Using 110 Lebedev grid points for each H atom
	Using 194 Lebedev grid points for other atoms
	Atomic van der Waals radii will be scaled by 1.20
 Remove points where switching function is < 1.0e-08
 Keep 2481 surface tesserae and discard 4077 interior tesserae
 Molecular Surface Area = 366.517 Angst**2
 Requested basis set is rimp2-cc-pVTZ
 There are 750 shells and 2588 basis functions
 A cutoff of  1.0D-10 yielded  32526 shell pairs
 There are    250286 function pairs (    325100 Cartesian)
 Smallest overlap matrix eigenvalue = 8.78E-06

 Q-Chem warning in module stvman/mkSTV.C, line 323:

 Overlap eigenvalue is smaller than square root of threshold
 Use THRESH >= 12 to get rid of this warning


 Scale SEOQF with 1.000000e-02/1.000000e-02/1.000000e-01

 Standard Electronic Orientation quadrupole field applied
 Nucleus-field energy     =     0.0000000202 hartrees
 Guess from superposition of atomic densities
 Warning:  Energy on first SCF cycle will be non-variational
 SAD guess density has 194.000000 electrons

 -----------------------------------------------------------------------
  General SCF calculation program by
  Eric Jon Sundstrom, Paul Horn, Yuezhi Mao, Dmitri Zuev, Alec White,
  David Stuck, Shaama M.S., Shane Yost, Joonho Lee, David Small,
  Daniel Levine, Susi Lehtola, Hugh Burton, Evgeny Epifanovsky,
  Bang C. Huynh
 -----------------------------------------------------------------------
 Hartree-Fock
 using 64 threads for integral computing
 -------------------------------------------------------
 OpenMP Integral computing Module                
 Release: version 1.0, May 2013, Q-Chem Inc. Pittsburgh 
 -------------------------------------------------------
 A restricted SCF calculation will be
 performed using DIIS
 SCF converges when DIIS error is below 1.0e-06
 ---------------------------------------
  Cycle       Energy         DIIS error
 ---------------------------------------
    1   -1581.4209882377      1.88e-02  
    2   -1570.0644891937      2.08e-03  
    3   -1570.3914076786      1.61e-03  
    4   -1570.6161397393      2.58e-04  
    5   -1570.6284141288      7.83e-05  
    6   -1570.6295538637      2.94e-05  
    7   -1570.6298278492      1.47e-05  
    8   -1570.6299197922      6.81e-06  
    9   -1570.6299369412      2.58e-06  
   10   -1570.6299406610      1.12e-06  
   11   -1570.6299413578      4.72e-07  Convergence criterion met
 ---------------------------------------
 SCF time:   CPU 6485.29s  wall 243.00s 

************** Final PCM Free Energy Summary **************
 G_electrostatic  =      -0.02645271 hartree =     -16.59932881 kcal/mol
 G_cavitation     =       0.00000000 hartree =       0.00000000 kcal/mol
 G_dispersion     =       0.00000000 hartree =       0.00000000 kcal/mol
 G_repulsion      =       0.00000000 hartree =       0.00000000 kcal/mol
 --------------------------------------------------
 Non-electrostatic Free Energy =       0.00000000 hartree =       0.00000000 kcal/mol
 Total                         =      -0.02645271 hartree =     -16.59932881 kcal/mol
 --------------------------------------------------
 SCF Energy (H0 + V/2)                       =   -1570.62994136 
 Solute Internal Energy (H0)                 =   -1570.60348864 
 Total Free Energy (H0 + V/2 + non-elec)     =   -1570.62994136 hartree
                                             = -985585.16363821 kcal/mol
***********************************************************

 SCF   energy in the final basis set =    -1570.6299413578
 Total energy in the final basis set =    -1570.6299413578


 --------------------------------------------------------------
  Generalized many-body perturbation theory program
  by Joonho Lee, Fazle Rob, Xintian Feng, Evgeny Epifanovsky

 No regularization used 
 (reg. param. = 0.0000e+00)
  (P|Q)^-1/2 Time:  CPU 103.49 s  wall 2.10 s

 In RI-MP2 calculation: 
 # of frozen core orbitals: 31

 Components of the RIMP2 correlation energy:
        aaaa    correlation energy =        -0.6191963452 a.u.
        abab    correlation energy =        -3.4006331517 a.u.
        bbbb    correlation energy =        -0.6191963452 a.u.
        non-Brillouin singles      =        -0.0000000000 a.u.
        total same-spin energy     =        -1.2383926904 a.u.
        total opposite-spin energy =        -3.4006331517 a.u.

 Total  RIMP2   correlation energy =        -4.6390258421 a.u.
        RIMP2         total energy =     -1575.2689671999 a.u.

 RI-MP2 Energy Time:  CPU 1830.68 s  wall 30.07 s
 
 --------------------------------------------------------------
 
                    Orbital Energies (a.u.)
 --------------------------------------------------------------
 
 Alpha MOs
 -- Occupied --
-91.9968 -20.5570 -20.5543 -20.5530 -20.5525 -15.6298 -15.6282 -11.3984
-11.3928 -11.3903 -11.3886 -11.3154 -11.3061 -11.2995 -11.2959 -11.2945
-11.2936 -11.2935 -11.2824 -11.2807 -11.2763 -11.2756 -11.2737 -11.2716
-11.2640 -11.2630 -11.2576  -8.9967  -6.6774  -6.6766  -6.6763  -1.4234
 -1.4211  -1.4027  -1.4002  -1.2656  -1.2628  -1.2178  -1.1913  -1.1398
 -1.1137  -1.0618  -1.0461  -0.9961  -0.9940  -0.9906  -0.9574  -0.9452
 -0.8946  -0.8766  -0.8727  -0.8561  -0.7946  -0.7765  -0.7729  -0.7651
 -0.7369  -0.7174  -0.7065  -0.6923  -0.6818  -0.6737  -0.6646  -0.6603
 -0.6547  -0.6428  -0.6357  -0.6316  -0.6268  -0.6112  -0.5880  -0.5845
 -0.5791  -0.5759  -0.5673  -0.5626  -0.5607  -0.5541  -0.5520  -0.5466
 -0.5408  -0.5258  -0.5152  -0.4924  -0.4811  -0.4775  -0.4649  -0.4590
 -0.4580  -0.4511  -0.4257  -0.4167  -0.4059  -0.3775  -0.3344  -0.3299
 -0.3253
 -- Virtual --
 -0.0125   0.0507   0.0690   0.0775   0.1156   0.1497   0.1586   0.1593
  0.1647   0.1673   0.1732   0.1845   0.1886   0.1914   0.2045   0.2088
  0.2190   0.2223   0.2286   0.2290   0.2341   0.2388   0.2627   0.2630
  0.2653   0.2894   0.3034   0.3112   0.3149   0.3215   0.3222   0.3301
  0.3387   0.3455   0.3483   0.3546   0.3575   0.3609   0.3641   0.3710
  0.3736   0.3812   0.3868   0.3964   0.3970   0.3990   0.4060   0.4098
  0.4149   0.4240   0.4319   0.4357   0.4395   0.4462   0.4498   0.4579
  0.4587   0.4632   0.4642   0.4693   0.4804   0.4859   0.4870   0.4939
  0.4962   0.5023   0.5043   0.5115   0.5151   0.5214   0.5292   0.5338
  0.5384   0.5424   0.5472   0.5519   0.5527   0.5583   0.5640   0.5709
  0.5753   0.5796   0.5798   0.5862   0.5883   0.5931   0.5986   0.6006
  0.6014   0.6058   0.6116   0.6131   0.6232   0.6247   0.6276   0.6306
  0.6336   0.6362   0.6393   0.6429   0.6548   0.6576   0.6599   0.6621
  0.6739   0.6828   0.6943   0.6969   0.7015   0.7053   0.7159   0.7201
  0.7226   0.7294   0.7360   0.7375   0.7480   0.7576   0.7614   0.7668
  0.7692   0.7756   0.7841   0.7916   0.7992   0.8022   0.8071   0.8137
  0.8205   0.8300   0.8331   0.8385   0.8428   0.8521   0.8603   0.8624
  0.8667   0.8684   0.8741   0.8786   0.8812   0.8915   0.8930   0.9040
  0.9136   0.9177   0.9202   0.9317   0.9358   0.9382   0.9441   0.9484
  0.9522   0.9628   0.9701   0.9779   0.9818   0.9828   0.9907   0.9927
  0.9984   1.0002   1.0086   1.0123   1.0209   1.0261   1.0284   1.0326
  1.0421   1.0483   1.0571   1.0597   1.0641   1.0722   1.0735   1.0772
  1.0808   1.0837   1.0878   1.0893   1.0945   1.1018   1.1104   1.1236
  1.1248   1.1313   1.1324   1.1368   1.1472   1.1515   1.1548   1.1597
  1.1648   1.1708   1.1759   1.1779   1.1837   1.1872   1.1966   1.2053
  1.2077   1.2131   1.2211   1.2226   1.2263   1.2306   1.2418   1.2444
  1.2484   1.2552   1.2572   1.2656   1.2854   1.2939   1.3025   1.3170
  1.3229   1.3291   1.3328   1.3379   1.3444   1.3486   1.3595   1.3635
  1.3732   1.3816   1.3892   1.3908   1.3946   1.3984   1.4076   1.4117
  1.4263   1.4319   1.4397   1.4426   1.4456   1.4544   1.4587   1.4726
  1.4802   1.4875   1.4901   1.5011   1.5067   1.5095   1.5150   1.5237
  1.5310   1.5360   1.5388   1.5465   1.5546   1.5578   1.5649   1.5672
  1.5706   1.5732   1.5824   1.5952   1.5997   1.6040   1.6289   1.6341
  1.6381   1.6419   1.6559   1.6613   1.6674   1.6726   1.6890   1.6914
  1.6987   1.7044   1.7073   1.7153   1.7314   1.7395   1.7421   1.7491
  1.7533   1.7723   1.7754   1.7837   1.7913   1.7969   1.8054   1.8094
  1.8194   1.8241   1.8395   1.8457   1.8522   1.8570   1.8668   1.8694
  1.8789   1.8849   1.8954   1.9020   1.9093   1.9220   1.9301   1.9481
  1.9579   1.9615   1.9738   1.9783   1.9920   1.9978   2.0114   2.0244
  2.0393   2.0482   2.0553   2.0690   2.0879   2.1004   2.1263   2.1311
  2.1379   2.1491   2.1578   2.1658   2.1940   2.1991   2.2086   2.2182
  2.2337   2.2423   2.2569   2.2752   2.2881   2.2954   2.2974   2.3038
  2.3130   2.3236   2.3287   2.3361   2.3460   2.3640   2.3660   2.3864
  2.4070   2.4263   2.4346   2.4424   2.4476   2.4517   2.4574   2.4601
  2.4668   2.4856   2.4970   2.5002   2.5027   2.5192   2.5353   2.5519
  2.5618   2.5760   2.5838   2.5883   2.5959   2.6070   2.6111   2.6155
  2.6234   2.6288   2.6338   2.6440   2.6579   2.6651   2.6698   2.6744
  2.6890   2.6914   2.6931   2.7030   2.7103   2.7177   2.7217   2.7323
  2.7403   2.7473   2.7574   2.7601   2.7678   2.7763   2.7800   2.8010
  2.8021   2.8235   2.8362   2.8402   2.8456   2.8506   2.8574   2.8677
  2.8757   2.8767   2.8849   2.8945   2.8956   2.9048   2.9082   2.9132
  2.9254   2.9294   2.9357   2.9457   2.9472   2.9592   2.9609   2.9666
  2.9725   2.9812   2.9941   3.0022   3.0029   3.0092   3.0167   3.0229
  3.0265   3.0302   3.0413   3.0531   3.0590   3.0635   3.0720   3.0803
  3.0907   3.0933   3.0988   3.1007   3.1036   3.1129   3.1204   3.1249
  3.1295   3.1343   3.1441   3.1577   3.1640   3.1789   3.1826   3.1860
  3.1906   3.1958   3.2031   3.2047   3.2137   3.2175   3.2192   3.2237
  3.2271   3.2347   3.2378   3.2432   3.2507   3.2525   3.2591   3.2608
  3.2647   3.2683   3.2760   3.2795   3.2918   3.2944   3.2959   3.2991
  3.3040   3.3099   3.3211   3.3256   3.3283   3.3342   3.3357   3.3411
  3.3436   3.3506   3.3528   3.3556   3.3650   3.3679   3.3713   3.3753
  3.3800   3.3856   3.3875   3.3962   3.4005   3.4056   3.4160   3.4184
  3.4249   3.4325   3.4352   3.4390   3.4481   3.4518   3.4535   3.4610
  3.4669   3.4708   3.4743   3.4781   3.4845   3.4922   3.4933   3.4964
  3.5026   3.5089   3.5103   3.5158   3.5203   3.5244   3.5281   3.5358
  3.5447   3.5517   3.5591   3.5653   3.5737   3.5785   3.5803   3.5865
  3.5924   3.6081   3.6162   3.6189   3.6252   3.6276   3.6312   3.6346
  3.6379   3.6452   3.6456   3.6490   3.6536   3.6607   3.6787   3.6878
  3.6958   3.6988   3.7050   3.7104   3.7155   3.7210   3.7281   3.7321
  3.7346   3.7361   3.7492   3.7533   3.7606   3.7639   3.7703   3.7739
  3.7778   3.7825   3.7864   3.7896   3.7961   3.8009   3.8041   3.8093
  3.8229   3.8237   3.8334   3.8416   3.8532   3.8579   3.8651   3.8656
  3.8708   3.8788   3.8862   3.8913   3.9059   3.9145   3.9237   3.9282
  3.9418   3.9455   3.9480   3.9527   3.9611   3.9625   3.9669   3.9840
  3.9940   4.0064   4.0092   4.0147   4.0215   4.0343   4.0364   4.0575
  4.0646   4.0691   4.0738   4.0828   4.0893   4.1004   4.1034   4.1154
  4.1282   4.1320   4.1437   4.1495   4.1573   4.1606   4.1719   4.1802
  4.1890   4.1926   4.1994   4.2116   4.2169   4.2296   4.2338   4.2467
  4.2601   4.2652   4.2694   4.2744   4.2823   4.2853   4.2864   4.2943
  4.3011   4.3024   4.3117   4.3179   4.3274   4.3305   4.3406   4.3448
  4.3518   4.3572   4.3651   4.3680   4.3686   4.3764   4.3776   4.3826
  4.3900   4.4002   4.4099   4.4154   4.4192   4.4281   4.4341   4.4475
  4.4633   4.4677   4.4749   4.4883   4.4955   4.5132   4.5183   4.5224
  4.5280   4.5338   4.5380   4.5464   4.5488   4.5594   4.5747   4.5798
  4.5831   4.5896   4.5908   4.6011   4.6054   4.6155   4.6270   4.6328
  4.6349   4.6514   4.6582   4.6701   4.6736   4.6812   4.6970   4.7015
  4.7157   4.7241   4.7396   4.7504   4.7675   4.7783   4.7805   4.7933
  4.8002   4.8179   4.8404   4.8429   4.8482   4.8641   4.8732   4.8767
  4.8879   4.9082   4.9194   4.9265   4.9384   4.9454   4.9666   4.9805
  4.9908   5.0055   5.0219   5.0399   5.0428   5.0542   5.0563   5.0719
  5.0934   5.1064   5.1167   5.1204   5.1242   5.1298   5.1426   5.1548
  5.1659   5.1684   5.1831   5.1930   5.2025   5.2261   5.2388   5.2580
  5.2609   5.2767   5.2829   5.3022   5.3177   5.3268   5.3321   5.3429
  5.3742   5.3968   5.4042   5.4146   5.4186   5.4317   5.4357   5.4505
  5.4856   5.4942   5.5093   5.5097   5.5146   5.5225   5.5468   5.5571
  5.5605   5.5611   5.5748   5.5755   5.5788   5.5932   5.6048   5.6094
  5.6216   5.6285   5.6435   5.6535   5.6558   5.6718   5.6779   5.6815
  5.6905   5.7037   5.7135   5.7363   5.7419   5.7572   5.7601   5.7709
  5.7771   5.7792   5.8139   5.8297   5.8373   5.8727   5.9038   5.9334
  5.9507   5.9588   5.9694   6.0148   6.0236   6.0298   6.0313   6.0364
  6.0851   6.1020   6.1129   6.1180   6.1218   6.1611   6.1873   6.2084
  6.2181   6.2212   6.2219   6.2535   6.2678   6.2776   6.3033   6.3433
  6.3554   6.3706   6.3963   6.4469   6.4669   6.5292   6.5578   6.5638
  6.5713   6.5903   6.6035   6.6495   6.6603   6.6615   6.7074   6.8311
  6.8340   6.8816   6.8875   6.8951   6.9130   6.9255   6.9267   7.0801
  7.0982   7.1409   7.1834   7.1896   7.2288   7.3338   7.3423   7.3458
  7.3531   7.4685   7.5460   7.5587   7.5753   7.5763   7.5888   7.6352
  7.6684   7.6829   7.7233   8.3699  10.0627  10.2963  11.1044  11.2389
 11.7142  11.7998  12.2469  12.3901  12.4806  12.6817  12.8475  13.0343
 13.3041  13.6294  13.8176  13.9360  13.9832  14.0971  14.1996  14.3442
 14.4136  14.7705  15.3053  15.7486  16.0421
 --------------------------------------------------------------
 
          Ground-State Mulliken Net Atomic Charges

     Atom                 Charge (a.u.)
  ----------------------------------------
      1 C                    -0.142503
      2 C                    -0.115355
      3 C                    -0.033776
      4 C                     0.003379
      5 H                     0.187082
      6 C                    -0.007989
      7 C                     0.079396
      8 C                    -0.014830
      9 C                    -0.037130
     10 C                    -0.139926
     11 C                     0.041844
     12 H                     0.188847
     13 C                     0.358819
     14 C                     0.357854
     15 N                    -0.100582
     16 C                     0.357634
     17 C                     0.368601
     18 N                    -0.096544
     19 O                    -0.466716
     20 O                    -0.481990
     21 O                    -0.482371
     22 O                    -0.458423
     23 C                    -0.201981
     24 H                     0.141011
     25 H                     0.111808
     26 H                     0.111659
     27 C                    -0.197583
     28 H                     0.133116
     29 H                     0.112384
     30 H                     0.112584
     31 H                     0.212406
     32 C                    -0.104073
     33 S                     0.055854
     34 C                    -0.138944
     35 C                    -0.088820
     36 C                    -0.231725
     37 H                     0.195507
     38 H                     0.194625
     39 H                     0.216853
  ----------------------------------------
  Sum of atomic charges =     0.000000

 -----------------------------------------------------------------
                    Cartesian Multipole Moments
 -----------------------------------------------------------------
    Charge (ESU x 10^10)
                 0.0000
    Dipole Moment (Debye)
         X       3.0523      Y       1.7859      Z      -0.8044
       Tot       3.6267
    Quadrupole Moments (Debye-Ang)
        XX    -176.4020     XY       6.6852     YY    -179.3061
        XZ       1.0916     YZ       0.5979     ZZ    -156.2654
    Octopole Moments (Debye-Ang^2)
       XXX     -39.5380    XXY     596.8226    XYY     -22.2044
       YYY    1669.5111    XXZ      -9.6175    XYZ       4.3287
       YYZ     -14.8858    XZZ     -13.0806    YZZ     497.8287
       ZZZ     -54.8897
    Hexadecapole Moments (Debye-Ang^3)
      XXXX   -6552.6421   XXXY     -66.4611   XXYY   -4247.1078
      XYYY     682.0710   YYYY  -17125.3870   XXXZ     -23.3207
      XXYZ       4.8752   XYYZ      -8.5638   YYYZ     -16.2252
      XXZZ   -1098.2215   XYZZ      98.7797   YYZZ   -2664.8038
      XZZZ     -37.1223   YZZZ     -19.1699   ZZZZ    -453.6088
 -----------------------------------------------------------------
 Total job time:  276.78s(wall), 8404.56s(cpu) 
 Fri Dec 15 15:40:06 2023

        *************************************************************
        *                                                           *
        *  Thank you very much for using Q-Chem.  Have a nice day.  *
        *                                                           *
        *************************************************************


0 sent ACK to 0 
now end server 0 ... 
cleanup process ... done
remove work dirs ./qchem210269.0 -- ./qchem210269.0
rm -rf ./qchem210269.0
rm -rf ./qchem210269
