You are running Q-Chem version: 5.4.0

#
# job setting
#
local host:  exp-5-28
current dir: /home/rramji/project-csd799/aromodel/pndit-qchem/rotation_run
input file:  Dimethyl_Naphthalene_Dicarboximide_Phi_60_Theta_70_Thiophene.qcin
output file: 
nprocs     : 1
nthreads   : 64
#
# qchem installation setting
#
QC:          /cm/shared/apps/spack/cpu/opt/spack/linux-centos8-zen2/gcc-10.2.0/qchem-5.4-akfmr7b3t57bfs6qan3padb2wnb2i7cl
QCAUX:       /cm/shared/apps/spack/cpu/opt/spack/linux-centos8-zen2/gcc-10.2.0/qchem-5.4-akfmr7b3t57bfs6qan3padb2wnb2i7cl/qcaux
QCPROG:      /cm/shared/apps/spack/cpu/opt/spack/linux-centos8-zen2/gcc-10.2.0/qchem-5.4-akfmr7b3t57bfs6qan3padb2wnb2i7cl/exe/qcprog.exe
QCPROG_S:    /cm/shared/apps/spack/cpu/opt/spack/linux-centos8-zen2/gcc-10.2.0/qchem-5.4-akfmr7b3t57bfs6qan3padb2wnb2i7cl/exe/qcprog.exe_s
PARALLEL:    -DPARALLEL
QCMPI:       mpich
#
# qchem directory setting
#
qcrun:       qchem187526
QCSCRATCH:   .
QCLOCALSCR:  
QCTMPDIR:    .
QCFILEPREF:  ./qchem187526
QCSAVEDIR:   
workdirs:    ./qchem187526
workdir0:    ./qchem187526
partmpdirs =  
#
# parallel setting
#
QCRSH:           ssh
QCMPI:           mpich
QCMPIRUN:        /cm/shared/apps/spack/cpu/opt/spack/linux-centos8-zen2/gcc-10.2.0/qchem-5.4-akfmr7b3t57bfs6qan3padb2wnb2i7cl/bin/mpi/mpirun_qchem
QCMACHINEFILE:   ./qchem187526/hostfile
exp-5-28

#
# env setting
#
exported envs:   QC QCAUX QCSCRATCH QCRUNNAME QCFILEPREF QCPROG QCPROG_S GUIFILE

Running Job 1 of 1 Dimethyl_Naphthalene_Dicarboximide_Phi_60_Theta_70_Thiophene.qcin
qchem Dimethyl_Naphthalene_Dicarboximide_Phi_60_Theta_70_Thiophene.qcin_187526.0 ./qchem187526/ 1
/cm/shared/apps/spack/cpu/opt/spack/linux-centos8-zen2/gcc-10.2.0/qchem-5.4-akfmr7b3t57bfs6qan3padb2wnb2i7cl/bin/mpi/mpirun_qchem -machinefile ./qchem187526/hostfile -np 1 /cm/shared/apps/spack/cpu/opt/spack/linux-centos8-zen2/gcc-10.2.0/qchem-5.4-akfmr7b3t57bfs6qan3padb2wnb2i7cl/exe/qcprog.exe Dimethyl_Naphthalene_Dicarboximide_Phi_60_Theta_70_Thiophene.qcin_187526.0 ./qchem187526/

Process 0 of 1 is on exp-5-28 - thread support 0
initial socket setup ...start
initial socket setup ...done 
now start server 0 ... 
                  Welcome to Q-Chem
     A Quantum Leap Into The Future Of Chemistry


 Q-Chem 5.4, Q-Chem, Inc., Pleasanton, CA (2021)

 License issued to: University of California, San Diego (site)

 E. Epifanovsky,  A. T. B. Gilbert,  Xintian Feng,  Joonho Lee,  Yuezhi Mao,  
 N. Mardirossian,  P. Pokhilko,  A. White,  M. Wormit,  M. P. Coons,  
 A. L. Dempwolff,  Zhengting Gan,  D. Hait,  P. R. Horn,  L. D. Jacobson,  
 I. Kaliman,  J. Kussmann,  A. W. Lange,  Ka Un Lao,  D. S. Levine,  Jie Liu,  
 S. C. McKenzie,  A. F. Morrison,  K. Nanda,  F. Plasser,  D. R. Rehn,  
 M. L. Vidal,  Zhi-Qiang You,  Ying Zhu,  B. Alam,  B. Albrecht,  
 A. Aldossary,  E. Alguire,  J. H. Andersen,  D. Barton,  K. Begam,  A. Behn,  
 Y. A. Bernard,  E. J. Berquist,  H. Burton,  A. Carreras,  K. Carter-Fenk,  
 R. Chakraborty,  A. D. Chien,  K. D. Closser,  V. Cofer-Shabica,  
 S. Dasgupta,  Jia Deng,  M. de Wergifosse,  M. Diedenhofen,  Hainam Do,  
 S. Ehlert,  Po-Tung Fang,  S. Fatehi,  Qingguo Feng,  J. Gayvert,  
 Qinghui Ge,  G. Gidofalvi,  M. Goldey,  J. Gomes,  C. Gonzalez-Espinoza,  
 S. Gulania,  A. Gunina,  M. W. D. Hanson-Heine,  P. H. P. Harbach,  
 A. W. Hauser,  M. F. Herbst,  M. Hernandez Vera,  M. Hodecker,  
 Z. C. Holden,  S. Houck,  Xunkun Huang,  Kerwin Hui,  B. C. Huynh,  
 M. Ivanov,  Hyunjun Ji,  Hanjie Jiang,  B. Kaduk,  S. Kaehler,  
 K. Khistyaev,  Jaehoon Kim,  P. Klunzinger,  Z. Koczor-Benda,  
 Joong Hoon Koh,  D. Kosenkov,  L. Koulias,  T. Kowalczyk,  C. M. Krauter,  
 K. Kue,  A. Kunitsa,  T. Kus,  A. Landau,  K. V. Lawler,  D. Lefrancois,  
 S. Lehtola,  Rain Li,  Yi-Pei Li,  Jiashu Liang,  M. Liebenthal,  
 Hung-Hsuan Lin,  You-Sheng Lin,  Fenglai Liu,  Kuan-Yu Liu,  
 M. Loipersberger,  A. Luenser,  A. Manjanath,  P. Manohar,  E. Mansoor,  
 S. F. Manzer,  Shan-Ping Mao,  A. V. Marenich,  T. Markovich,  S. Mason,  
 S. A. Maurer,  P. F. McLaughlin,  M. F. S. J. Menger,  J.-M. Mewes,  
 S. A. Mewes,  P. Morgante,  J. W. Mullinax,  T. S. Nguyen-Beck,  
 K. J. Oosterbaan,  G. Paran,  Alexander C. Paul,  Suranjan K. Paul,  
 F. Pavosevic,  Zheng Pei,  S. Prager,  E. I. Proynov,  E. Ramos,  B. Rana,  
 A. E. Rask,  A. Rettig,  R. M. Richard,  F. Rob,  E. Rossomme,  T. Scheele,  
 M. Scheurer,  M. Schneider,  N. Sergueev,  S. M. Sharada,  W. Skomorowski,  
 D. W. Small,  C. J. Stein,  Yu-Chuan Su,  E. J. Sundstrom,  Zhen Tao,  
 J. Thirman,  T. Tsuchimochi,  N. M. Tubman,  S. P. Veccham,  O. Vydrov,  
 J. Wenzel,  J. Witte,  A. Yamada,  Kun Yao,  S. Yeganeh,  S. R. Yost,  
 A. Zech,  Igor Ying Zhang,  Xing Zhang,  Yu Zhang,  D. Zuev,  
 A. Aspuru-Guzik,  A. T. Bell,  N. A. Besley,  K. B. Bravaya,  B. R. Brooks,  
 D. Casanova,  Jeng-Da Chai,  S. Coriani,  C. J. Cramer,  
 A. E. DePrince, III,  R. A. DiStasio Jr.,  A. Dreuw,  B. D. Dunietz,  
 T. R. Furlani,  W. A. Goddard III,  S. Grimme,  S. Hammes-Schiffer,  
 T. Head-Gordon,  W. J. Hehre,  Chao-Ping Hsu,  T.-C. Jagau,  Yousung Jung,  
 A. Klamt,  Jing Kong,  D. S. Lambrecht,  WanZhen Liang,  N. J. Mayhall,  
 C. W. McCurdy,  J. B. Neaton,  C. Ochsenfeld,  J. A. Parkhill,  R. Peverati,  
 V. A. Rassolov,  Yihan Shao,  L. V. Slipchenko,  T. Stauch,  R. P. Steele,  
 J. E. Subotnik,  A. J. W. Thom,  A. Tkatchenko,  D. G. Truhlar,  
 T. Van Voorhis,  T. A. Wesolowski,  K. B. Whaley,  H. L. Woodcock III,  
 P. M. Zimmerman,  S. Faraji,  P. M. W. Gill,  M. Head-Gordon,  
 J. M. Herbert,  A. I. Krylov

 Contributors to earlier versions of Q-Chem not listed above: 
 R. D. Adamson,  B. Austin,  R. Baer,  J. Baker,  G. J. O. Beran,  
 K. Brandhorst,  S. T. Brown,  E. F. C. Byrd,  A. K. Chakraborty,  
 G. K. L. Chan,  Chun-Min Chang,  Yunqing Chen,  C.-L. Cheng,  
 Siu Hung Chien,  D. M. Chipman,  D. L. Crittenden,  H. Dachsel,  
 R. J. Doerksen,  A. D. Dutoi,  R. G. Edgar,  J. Fosso-Tande,  
 L. Fusti-Molnar,  D. Ghosh,  A. Ghysels,  A. Golubeva-Zadorozhnaya,  
 J. Gonthier,  M. S. Gordon,  S. R. Gwaltney,  G. Hawkins,  J. E. Herr,  
 A. Heyden,  S. Hirata,  E. G. Hohenstein,  G. Kedziora,  F. J. Keil,  
 C. Kelley,  Jihan Kim,  R. A. King,  R. Z. Khaliullin,  P. P. Korambath,  
 W. Kurlancheek,  A. Laurent,  A. M. Lee,  M. S. Lee,  S. V. Levchenko,  
 Ching Yeh Lin,  D. Liotard,  E. Livshits,  R. C. Lochan,  I. Lotan,  
 L. A. Martinez-Martinez,  P. E. Maslen,  N. Nair,  D. P. O'Neill,  
 D. Neuhauser,  E. Neuscamman,  C. M. Oana,  R. Olivares-Amaya,  R. Olson,  
 T. M. Perrine,  B. Peters,  P. A. Pieniazek,  A. Prociuk,  Y. M. Rhee,  
 J. Ritchie,  M. A. Rohrdanz,  E. Rosta,  N. J. Russ,  H. F. Schaefer III,  
 M. W. Schmidt,  N. E. Schultz,  S. Sharma,  N. Shenvi,  C. D. Sherrill,  
 A. C. Simmonett,  A. Sodt,  T. Stein,  D. Stuck,  K. S. Thanthiriwatte,  
 V. Vanovschi,  L. Vogt,  Tao Wang,  A. Warshel,  M. A. Watson,  
 C. F. Williams,  Q. Wu,  X. Xu,  Jun Yang,  W. Zhang,  Yan Zhao

 Please cite Q-Chem as follows:
 Y. Shao et al., Mol. Phys. 113, 184-215 (2015)
 DOI: 10.1080/00268976.2014.952696

 Q-Chem 5.4.0 for Intel X86 EM64T Linux

 Parts of Q-Chem use Armadillo 9.800.1 (Horizon Scraper).
 http://arma.sourceforge.net/

 Q-Chem begins on Fri Dec 15 14:00:53 2023  

 Host: 
0

     Scratch files written to ./qchem187526//
 May1621 |scratch|qcdevops|jenkins|workspace|build_RNUM    
 Parallel job on  1  processors
 Processing $rem in /cm/shared/apps/spack/cpu/opt/spack/linux-centos8-zen2/gcc-10.2.0/qchem-5.4-akfmr7b3t57bfs6qan3padb2wnb2i7cl/config/preferences:
 Processing $rem in /home/rramji/.qchemrc:
 Symmetry turned off for PCM/SM12/SMD calculation
 Core orbitals will be frozen

 Checking the input file for inconsistencies... 	...done.

 Q-Chem warning in module forms1/BasisType.C, line 2236:

 You are not using the predefined 5D/6D in this basis set.


--------------------------------------------------------------
User input:
--------------------------------------------------------------
$molecule
0 1
C	0.240927	-6.741404	-0.089263
C	1.467886	-6.155638	-0.535973
C	-0.777972	-5.791452	0.281103
C	1.729742	-4.803786	-0.631036
H	2.292903	-6.821518	-0.836458
C	-0.503614	-4.378638	0.181995
C	0.746756	-3.838032	-0.272725
C	-1.485437	-3.413062	0.539954
C	1.018915	-2.426473	-0.371053
C	-1.226557	-2.059348	0.446381
C	-0.000000	-1.478216	-0.000000
H	-2.052413	-1.394783	0.747410
C	-2.134128	-6.187987	0.772747
C	-2.829820	-3.798164	1.029154
N	-3.059182	-5.170003	1.110828
C	3.077731	-4.424987	-1.121728
C	2.375694	-2.036627	-0.864069
N	3.301101	-3.049156	-1.201928
O	-2.502830	-7.353131	0.903908
O	-3.697078	-2.986854	1.345809
O	3.934752	-5.248946	-1.434422
O	2.764177	-0.878829	-1.003943
C	-4.386939	-5.563799	1.592981
H	-4.429822	-6.664085	1.607367
H	-5.164489	-5.147101	0.924504
H	-4.553486	-5.148785	2.605446
C	4.608481	-2.587487	-1.677308
H	5.211969	-3.483329	-1.898089
H	5.094624	-1.964972	-0.902337
H	4.483092	-1.962932	-2.582098
H	0.066080	-7.822318	-0.025963
C	0.000000	0.000000	0.000000
S	0.686805	0.396760	1.580530
C	2.105095	1.215640	0.904911
C	0.864201	0.499140	-0.985400
C	2.007514	1.159347	-0.493528
H	0.660136	0.381296	-2.059934
H	2.770388	1.599875	-1.152593
H	2.867745	1.656053	1.556025
$end

$rem
JOBTYPE		SP
EXCHANGE	HF
CORRELATION	pRIMP2
BASIS		cc-pvtz
METHOD		rimp2
AUX_BASIS	rimp2-cc-pvtz
SOLVENT_METHOD	PCM
PURECART	11111
SYMMETRY	false
MEM_TOTAL	110000
SCF_CONVERGENCE = 6
THRESH=10
GUI = 2
$end



$solvent
dielectric 4.90
$end
--------------------------------------------------------------
 ----------------------------------------------------------------
             Standard Nuclear Orientation (Angstroms)
    I     Atom           X                Y                Z
 ----------------------------------------------------------------
    1      C       0.2409270000    -6.7414040000    -0.0892630000
    2      C       1.4678860000    -6.1556380000    -0.5359730000
    3      C      -0.7779720000    -5.7914520000     0.2811030000
    4      C       1.7297420000    -4.8037860000    -0.6310360000
    5      H       2.2929030000    -6.8215180000    -0.8364580000
    6      C      -0.5036140000    -4.3786380000     0.1819950000
    7      C       0.7467560000    -3.8380320000    -0.2727250000
    8      C      -1.4854370000    -3.4130620000     0.5399540000
    9      C       1.0189150000    -2.4264730000    -0.3710530000
   10      C      -1.2265570000    -2.0593480000     0.4463810000
   11      C       0.0000000000    -1.4782160000     0.0000000000
   12      H      -2.0524130000    -1.3947830000     0.7474100000
   13      C      -2.1341280000    -6.1879870000     0.7727470000
   14      C      -2.8298200000    -3.7981640000     1.0291540000
   15      N      -3.0591820000    -5.1700030000     1.1108280000
   16      C       3.0777310000    -4.4249870000    -1.1217280000
   17      C       2.3756940000    -2.0366270000    -0.8640690000
   18      N       3.3011010000    -3.0491560000    -1.2019280000
   19      O      -2.5028300000    -7.3531310000     0.9039080000
   20      O      -3.6970780000    -2.9868540000     1.3458090000
   21      O       3.9347520000    -5.2489460000    -1.4344220000
   22      O       2.7641770000    -0.8788290000    -1.0039430000
   23      C      -4.3869390000    -5.5637990000     1.5929810000
   24      H      -4.4298220000    -6.6640850000     1.6073670000
   25      H      -5.1644890000    -5.1471010000     0.9245040000
   26      H      -4.5534860000    -5.1487850000     2.6054460000
   27      C       4.6084810000    -2.5874870000    -1.6773080000
   28      H       5.2119690000    -3.4833290000    -1.8980890000
   29      H       5.0946240000    -1.9649720000    -0.9023370000
   30      H       4.4830920000    -1.9629320000    -2.5820980000
   31      H       0.0660800000    -7.8223180000    -0.0259630000
   32      C       0.0000000000     0.0000000000     0.0000000000
   33      S       0.6868050000     0.3967600000     1.5805300000
   34      C       2.1050950000     1.2156400000     0.9049110000
   35      C       0.8642010000     0.4991400000    -0.9854000000
   36      C       2.0075140000     1.1593470000    -0.4935280000
   37      H       0.6601360000     0.3812960000    -2.0599340000
   38      H       2.7703880000     1.5998750000    -1.1525930000
   39      H       2.8677450000     1.6560530000     1.5560250000
 ----------------------------------------------------------------
 Nuclear Repulsion Energy =        2550.68094182 hartrees
 There are       97 alpha and       97 beta electrons
 Requested basis set is cc-pVTZ
 There are 344 shells and 982 basis functions

 Total QAlloc Memory Limit 110000 MB
 Mega-Array Size       188 MB
 MEM_STATIC part       192 MB
 Discretize the solute cavity surface with Lebedev spheres
	Using 110 Lebedev grid points for each H atom
	Using 194 Lebedev grid points for other atoms
	Atomic van der Waals radii will be scaled by 1.20
 Remove points where switching function is < 1.0e-08
 Keep 2476 surface tesserae and discard 4082 interior tesserae
 Molecular Surface Area = 355.697 Angst**2
 Requested basis set is rimp2-cc-pVTZ
 There are 750 shells and 2588 basis functions
 A cutoff of  1.0D-10 yielded  32960 shell pairs
 There are    254392 function pairs (    330716 Cartesian)
 Smallest overlap matrix eigenvalue = 9.41E-06

 Q-Chem warning in module stvman/mkSTV.C, line 323:

 Overlap eigenvalue is smaller than square root of threshold
 Use THRESH >= 12 to get rid of this warning


 Scale SEOQF with 1.000000e-01/1.000000e-02/1.000000e-01

 Standard Electronic Orientation quadrupole field applied
 Nucleus-field energy     =     0.0000000423 hartrees
 Guess from superposition of atomic densities
 Warning:  Energy on first SCF cycle will be non-variational
 SAD guess density has 194.000000 electrons

 -----------------------------------------------------------------------
  General SCF calculation program by
  Eric Jon Sundstrom, Paul Horn, Yuezhi Mao, Dmitri Zuev, Alec White,
  David Stuck, Shaama M.S., Shane Yost, Joonho Lee, David Small,
  Daniel Levine, Susi Lehtola, Hugh Burton, Evgeny Epifanovsky,
  Bang C. Huynh
 -----------------------------------------------------------------------
 Hartree-Fock
 using 64 threads for integral computing
 -------------------------------------------------------
 OpenMP Integral computing Module                
 Release: version 1.0, May 2013, Q-Chem Inc. Pittsburgh 
 -------------------------------------------------------
 A restricted SCF calculation will be
 performed using DIIS
 SCF converges when DIIS error is below 1.0e-06
 ---------------------------------------
  Cycle       Energy         DIIS error
 ---------------------------------------
    1   -1581.4907804418      1.88e-02  
    2   -1570.0271172213      2.09e-03  
    3   -1570.3470413320      1.63e-03  
    4   -1570.5800214423      2.61e-04  
    5   -1570.5927780284      7.90e-05  
    6   -1570.5939681632      2.90e-05  
    7   -1570.5942793032      1.55e-05  
    8   -1570.5943846837      6.42e-06  
    9   -1570.5944038268      2.70e-06  
   10   -1570.5944075558      1.12e-06  
   11   -1570.5944083257      4.77e-07  Convergence criterion met
 ---------------------------------------
 SCF time:   CPU 6590.89s  wall 248.00s 

************** Final PCM Free Energy Summary **************
 G_electrostatic  =      -0.02232974 hartree =     -14.01212620 kcal/mol
 G_cavitation     =       0.00000000 hartree =       0.00000000 kcal/mol
 G_dispersion     =       0.00000000 hartree =       0.00000000 kcal/mol
 G_repulsion      =       0.00000000 hartree =       0.00000000 kcal/mol
 --------------------------------------------------
 Non-electrostatic Free Energy =       0.00000000 hartree =       0.00000000 kcal/mol
 Total                         =      -0.02232974 hartree =     -14.01212620 kcal/mol
 --------------------------------------------------
 SCF Energy (H0 + V/2)                       =   -1570.59440833 
 Solute Internal Energy (H0)                 =   -1570.57207858 
 Total Free Energy (H0 + V/2 + non-elec)     =   -1570.59440833 hartree
                                             = -985562.86632401 kcal/mol
***********************************************************

 SCF   energy in the final basis set =    -1570.5944083257
 Total energy in the final basis set =    -1570.5944083257


 --------------------------------------------------------------
  Generalized many-body perturbation theory program
  by Joonho Lee, Fazle Rob, Xintian Feng, Evgeny Epifanovsky

 No regularization used 
 (reg. param. = 0.0000e+00)
  (P|Q)^-1/2 Time:  CPU 112.60 s  wall 2.11 s

 In RI-MP2 calculation: 
 # of frozen core orbitals: 31

 Components of the RIMP2 correlation energy:
        aaaa    correlation energy =        -0.6206822247 a.u.
        abab    correlation energy =        -3.4037795253 a.u.
        bbbb    correlation energy =        -0.6206822247 a.u.
        non-Brillouin singles      =        -0.0000000000 a.u.
        total same-spin energy     =        -1.2413644494 a.u.
        total opposite-spin energy =        -3.4037795253 a.u.

 Total  RIMP2   correlation energy =        -4.6451439748 a.u.
        RIMP2         total energy =     -1575.2395523004 a.u.

 RI-MP2 Energy Time:  CPU 1848.92 s  wall 30.44 s
 
 --------------------------------------------------------------
 
                    Orbital Energies (a.u.)
 --------------------------------------------------------------
 
 Alpha MOs
 -- Occupied --
-91.9819 -20.5575 -20.5545 -20.5540 -20.5502 -15.6309 -15.6296 -11.3987
-11.3968 -11.3913 -11.3883 -11.3145 -11.3009 -11.2980 -11.2929 -11.2927
-11.2924 -11.2888 -11.2824 -11.2819 -11.2781 -11.2769 -11.2676 -11.2658
-11.2635 -11.2533 -11.2496  -8.9823  -6.6632  -6.6624  -6.6619  -1.4270
 -1.4234  -1.4051  -1.4027  -1.2676  -1.2647  -1.2153  -1.1815  -1.1401
 -1.1136  -1.0595  -1.0462  -0.9921  -0.9894  -0.9855  -0.9582  -0.9485
 -0.8959  -0.8778  -0.8689  -0.8583  -0.7901  -0.7751  -0.7744  -0.7611
 -0.7351  -0.7195  -0.7021  -0.6927  -0.6863  -0.6710  -0.6657  -0.6615
 -0.6542  -0.6445  -0.6370  -0.6343  -0.6263  -0.6104  -0.5881  -0.5829
 -0.5775  -0.5737  -0.5671  -0.5634  -0.5560  -0.5534  -0.5521  -0.5487
 -0.5367  -0.5249  -0.5172  -0.4994  -0.4801  -0.4694  -0.4624  -0.4597
 -0.4539  -0.4409  -0.4280  -0.4173  -0.4062  -0.3550  -0.3353  -0.3320
 -0.3067
 -- Virtual --
 -0.0157   0.0582   0.0688   0.0836   0.1165   0.1449   0.1583   0.1624
  0.1666   0.1736   0.1788   0.1799   0.1888   0.1943   0.2023   0.2083
  0.2149   0.2265   0.2272   0.2307   0.2337   0.2381   0.2614   0.2616
  0.2664   0.2876   0.3125   0.3131   0.3167   0.3209   0.3295   0.3341
  0.3403   0.3467   0.3488   0.3553   0.3577   0.3615   0.3684   0.3721
  0.3748   0.3815   0.3873   0.3978   0.4004   0.4050   0.4080   0.4100
  0.4113   0.4258   0.4296   0.4339   0.4389   0.4425   0.4441   0.4555
  0.4564   0.4638   0.4694   0.4741   0.4810   0.4838   0.4871   0.4926
  0.4936   0.5053   0.5063   0.5161   0.5199   0.5251   0.5292   0.5334
  0.5369   0.5455   0.5481   0.5519   0.5521   0.5617   0.5647   0.5704
  0.5772   0.5793   0.5816   0.5850   0.5927   0.5933   0.5987   0.6007
  0.6075   0.6112   0.6131   0.6169   0.6209   0.6254   0.6281   0.6314
  0.6355   0.6374   0.6403   0.6455   0.6498   0.6587   0.6634   0.6722
  0.6844   0.6871   0.6935   0.6990   0.7076   0.7089   0.7196   0.7291
  0.7352   0.7402   0.7459   0.7493   0.7551   0.7621   0.7652   0.7720
  0.7796   0.7817   0.7846   0.7948   0.8011   0.8067   0.8090   0.8199
  0.8229   0.8374   0.8427   0.8467   0.8511   0.8553   0.8565   0.8665
  0.8673   0.8743   0.8760   0.8813   0.8956   0.8990   0.9030   0.9088
  0.9168   0.9222   0.9281   0.9300   0.9389   0.9425   0.9447   0.9478
  0.9571   0.9615   0.9696   0.9784   0.9845   0.9850   0.9913   0.9960
  0.9985   1.0079   1.0144   1.0194   1.0233   1.0331   1.0341   1.0400
  1.0429   1.0557   1.0558   1.0640   1.0751   1.0774   1.0787   1.0846
  1.0872   1.0912   1.0982   1.1028   1.1050   1.1109   1.1225   1.1250
  1.1308   1.1347   1.1374   1.1438   1.1488   1.1562   1.1639   1.1658
  1.1701   1.1783   1.1857   1.1904   1.1921   1.1993   1.2039   1.2094
  1.2147   1.2191   1.2233   1.2276   1.2312   1.2418   1.2449   1.2497
  1.2584   1.2647   1.2710   1.2763   1.2808   1.2846   1.2946   1.3196
  1.3286   1.3363   1.3407   1.3467   1.3485   1.3564   1.3663   1.3752
  1.3802   1.3832   1.3857   1.3873   1.3918   1.4076   1.4136   1.4166
  1.4243   1.4289   1.4405   1.4483   1.4510   1.4575   1.4628   1.4832
  1.4848   1.4881   1.4918   1.4953   1.5010   1.5081   1.5139   1.5185
  1.5253   1.5318   1.5381   1.5448   1.5561   1.5608   1.5654   1.5714
  1.5749   1.5795   1.5839   1.5926   1.6059   1.6184   1.6258   1.6416
  1.6465   1.6548   1.6615   1.6636   1.6751   1.6790   1.6884   1.6997
  1.7033   1.7081   1.7189   1.7347   1.7431   1.7497   1.7522   1.7600
  1.7653   1.7721   1.7830   1.7913   1.7985   1.8060   1.8107   1.8123
  1.8245   1.8401   1.8432   1.8546   1.8612   1.8651   1.8705   1.8788
  1.8792   1.8902   1.9023   1.9121   1.9201   1.9397   1.9427   1.9462
  1.9653   1.9744   1.9781   1.9856   2.0003   2.0129   2.0188   2.0325
  2.0357   2.0562   2.0651   2.0820   2.1027   2.1131   2.1269   2.1400
  2.1502   2.1607   2.1620   2.1752   2.1957   2.2044   2.2111   2.2187
  2.2288   2.2447   2.2576   2.2614   2.2645   2.2894   2.2987   2.3022
  2.3136   2.3212   2.3309   2.3540   2.3619   2.3631   2.3771   2.3909
  2.4217   2.4322   2.4366   2.4485   2.4536   2.4573   2.4666   2.4801
  2.4939   2.4995   2.5017   2.5044   2.5226   2.5311   2.5412   2.5599
  2.5690   2.5831   2.5893   2.5948   2.5966   2.6084   2.6167   2.6184
  2.6382   2.6408   2.6520   2.6571   2.6686   2.6699   2.6767   2.6806
  2.6919   2.6949   2.7041   2.7079   2.7156   2.7261   2.7289   2.7292
  2.7406   2.7593   2.7654   2.7689   2.7780   2.7824   2.7924   2.7945
  2.8156   2.8334   2.8380   2.8394   2.8557   2.8632   2.8649   2.8715
  2.8749   2.8749   2.8848   2.8901   2.9068   2.9124   2.9156   2.9229
  2.9324   2.9356   2.9398   2.9495   2.9532   2.9555   2.9718   2.9737
  2.9812   2.9858   2.9989   3.0009   3.0126   3.0167   3.0243   3.0293
  3.0338   3.0372   3.0403   3.0478   3.0572   3.0683   3.0831   3.0894
  3.0915   3.0966   3.1002   3.1104   3.1136   3.1223   3.1270   3.1332
  3.1336   3.1366   3.1578   3.1656   3.1706   3.1741   3.1833   3.1885
  3.1945   3.2009   3.2026   3.2103   3.2175   3.2225   3.2235   3.2302
  3.2325   3.2402   3.2449   3.2518   3.2554   3.2611   3.2624   3.2703
  3.2760   3.2836   3.2860   3.2887   3.2944   3.2980   3.3085   3.3092
  3.3141   3.3185   3.3222   3.3292   3.3319   3.3371   3.3390   3.3439
  3.3480   3.3510   3.3579   3.3672   3.3695   3.3717   3.3753   3.3779
  3.3839   3.3883   3.3962   3.3972   3.4074   3.4148   3.4188   3.4269
  3.4295   3.4323   3.4382   3.4431   3.4489   3.4565   3.4623   3.4683
  3.4700   3.4720   3.4779   3.4824   3.4874   3.4976   3.4992   3.5039
  3.5087   3.5111   3.5154   3.5177   3.5253   3.5286   3.5309   3.5382
  3.5453   3.5511   3.5604   3.5695   3.5738   3.5814   3.5872   3.5954
  3.6052   3.6059   3.6122   3.6187   3.6237   3.6318   3.6342   3.6385
  3.6423   3.6510   3.6543   3.6590   3.6732   3.6809   3.6832   3.6908
  3.6979   3.7006   3.7048   3.7096   3.7122   3.7186   3.7285   3.7344
  3.7421   3.7464   3.7532   3.7616   3.7647   3.7711   3.7767   3.7811
  3.7860   3.7867   3.7918   3.7984   3.8000   3.8027   3.8097   3.8163
  3.8267   3.8339   3.8401   3.8419   3.8523   3.8625   3.8644   3.8701
  3.8749   3.8825   3.8935   3.8958   3.9030   3.9259   3.9373   3.9376
  3.9479   3.9500   3.9513   3.9658   3.9683   3.9782   3.9916   3.9968
  3.9995   4.0050   4.0149   4.0179   4.0260   4.0374   4.0416   4.0618
  4.0707   4.0751   4.0773   4.0905   4.0942   4.1042   4.1075   4.1188
  4.1277   4.1359   4.1427   4.1509   4.1569   4.1652   4.1818   4.1854
  4.1935   4.2029   4.2045   4.2108   4.2241   4.2300   4.2437   4.2535
  4.2597   4.2617   4.2706   4.2802   4.2841   4.2882   4.2915   4.2950
  4.3020   4.3032   4.3111   4.3155   4.3278   4.3329   4.3453   4.3506
  4.3566   4.3604   4.3682   4.3682   4.3726   4.3765   4.3893   4.3924
  4.3961   4.4067   4.4092   4.4112   4.4277   4.4320   4.4514   4.4633
  4.4709   4.4753   4.4807   4.4841   4.4944   4.5203   4.5207   4.5249
  4.5336   4.5345   4.5396   4.5546   4.5643   4.5694   4.5756   4.5787
  4.5814   4.5886   4.5907   4.6000   4.6174   4.6233   4.6360   4.6450
  4.6527   4.6610   4.6715   4.6783   4.6841   4.6929   4.6989   4.7090
  4.7155   4.7274   4.7388   4.7490   4.7591   4.7633   4.7897   4.8008
  4.8077   4.8290   4.8393   4.8477   4.8555   4.8656   4.8731   4.8797
  4.8844   4.8904   4.9122   4.9198   4.9447   4.9621   4.9729   4.9885
  5.0063   5.0191   5.0282   5.0364   5.0422   5.0524   5.0539   5.0659
  5.0905   5.0992   5.1109   5.1236   5.1280   5.1393   5.1422   5.1544
  5.1633   5.1816   5.1920   5.2007   5.2117   5.2383   5.2429   5.2582
  5.2764   5.2813   5.2948   5.2955   5.3078   5.3248   5.3336   5.3408
  5.3951   5.3980   5.4068   5.4172   5.4270   5.4330   5.4408   5.4659
  5.4913   5.4992   5.5099   5.5115   5.5134   5.5269   5.5474   5.5603
  5.5626   5.5632   5.5755   5.5782   5.5842   5.5923   5.6056   5.6243
  5.6348   5.6387   5.6531   5.6548   5.6572   5.6688   5.6780   5.6805
  5.7048   5.7117   5.7246   5.7376   5.7494   5.7618   5.7712   5.7780
  5.7840   5.7934   5.8123   5.8306   5.8676   5.8965   5.9087   5.9211
  5.9373   5.9597   5.9750   6.0213   6.0242   6.0250   6.0378   6.0540
  6.0856   6.1022   6.1139   6.1210   6.1263   6.1670   6.1975   6.2135
  6.2188   6.2241   6.2274   6.2657   6.2712   6.2797   6.3049   6.3471
  6.3555   6.3821   6.3952   6.4506   6.4694   6.5275   6.5636   6.5755
  6.5884   6.5945   6.6172   6.6492   6.6528   6.6620   6.7095   6.8326
  6.8509   6.8873   6.8877   6.8983   6.9129   6.9394   7.0353   7.0802
  7.1265   7.1454   7.1917   7.2114   7.2446   7.3335   7.3425   7.3461
  7.3841   7.4703   7.5486   7.5612   7.5754   7.5804   7.6354   7.6686
  7.6776   7.7180   7.7911   8.3601  10.1236  10.3429  11.1350  11.2672
 11.7083  11.8013  12.3143  12.4177  12.4769  12.7896  12.8808  13.2123
 13.2806  13.5797  13.8237  13.9546  14.1097  14.1968  14.2820  14.3990
 14.4718  14.7576  15.3349  15.7266  15.9982
 --------------------------------------------------------------
 
          Ground-State Mulliken Net Atomic Charges

     Atom                 Charge (a.u.)
  ----------------------------------------
      1 C                    -0.147707
      2 C                    -0.108231
      3 C                    -0.033200
      4 C                    -0.003359
      5 H                     0.187219
      6 C                    -0.013445
      7 C                     0.079338
      8 C                     0.011824
      9 C                    -0.076506
     10 C                    -0.140874
     11 C                     0.082912
     12 H                     0.182042
     13 C                     0.360225
     14 C                     0.364913
     15 N                    -0.101274
     16 C                     0.357062
     17 C                     0.398404
     18 N                    -0.091375
     19 O                    -0.465145
     20 O                    -0.476183
     21 O                    -0.482901
     22 O                    -0.470186
     23 C                    -0.201605
     24 H                     0.140626
     25 H                     0.112140
     26 H                     0.112281
     27 C                    -0.196720
     28 H                     0.135371
     29 H                     0.112125
     30 H                     0.111072
     31 H                     0.212162
     32 C                    -0.191159
     33 S                     0.007624
     34 C                    -0.186463
     35 C                    -0.051233
     36 C                    -0.113147
     37 H                     0.197312
     38 H                     0.177465
     39 H                     0.208597
  ----------------------------------------
  Sum of atomic charges =     0.000000

 -----------------------------------------------------------------
                    Cartesian Multipole Moments
 -----------------------------------------------------------------
    Charge (ESU x 10^10)
                 0.0000
    Dipole Moment (Debye)
         X       3.5268      Y       1.3146      Z      -1.7647
       Tot       4.1570
    Quadrupole Moments (Debye-Ang)
        XX    -171.6370     XY       5.0822     YY    -179.7186
        XZ       6.6555     YZ       0.0455     ZZ    -159.7811
    Octopole Moments (Debye-Ang^2)
       XXX    -145.1327    XXY     582.8158    XYY     -45.3825
       YYY    1662.6103    XXZ      -4.1358    XYZ     -24.0156
       YYZ     -10.3356    XZZ     -46.4305    YZZ     507.3467
       ZZZ     -40.3619
    Hexadecapole Moments (Debye-Ang^3)
      XXXX   -5789.5162   XXXY     -99.7238   XXYY   -4055.5464
      XYYY    -844.4269   YYYY  -17105.8278   XXXZ     978.0117
      XXYZ     -69.4459   XYYZ     495.3676   YYYZ     234.6100
      XXZZ   -1133.0636   XYZZ     -90.9457   YYZZ   -2849.8467
      XZZZ     887.3059   YZZZ      79.9335   ZZZZ   -1130.9550
 -----------------------------------------------------------------
 Total job time:  282.07s(wall), 8538.92s(cpu) 
 Fri Dec 15 14:05:35 2023

        *************************************************************
        *                                                           *
        *  Thank you very much for using Q-Chem.  Have a nice day.  *
        *                                                           *
        *************************************************************


0 sent ACK to 0 
now end server 0 ... 
cleanup process ... done
remove work dirs ./qchem187526.0 -- ./qchem187526.0
rm -rf ./qchem187526.0
rm -rf ./qchem187526
