You are running Q-Chem version: 5.4.0

#
# job setting
#
local host:  exp-4-09
current dir: /home/rramji/project-csd799/aromodel/pndit-qchem/rotation_run
input file:  Dimethyl_Naphthalene_Dicarboximide_Phi_30_Theta_80_Thiophene.qcin
output file: 
nprocs     : 1
nthreads   : 64
#
# qchem installation setting
#
QC:          /cm/shared/apps/spack/cpu/opt/spack/linux-centos8-zen2/gcc-10.2.0/qchem-5.4-akfmr7b3t57bfs6qan3padb2wnb2i7cl
QCAUX:       /cm/shared/apps/spack/cpu/opt/spack/linux-centos8-zen2/gcc-10.2.0/qchem-5.4-akfmr7b3t57bfs6qan3padb2wnb2i7cl/qcaux
QCPROG:      /cm/shared/apps/spack/cpu/opt/spack/linux-centos8-zen2/gcc-10.2.0/qchem-5.4-akfmr7b3t57bfs6qan3padb2wnb2i7cl/exe/qcprog.exe
QCPROG_S:    /cm/shared/apps/spack/cpu/opt/spack/linux-centos8-zen2/gcc-10.2.0/qchem-5.4-akfmr7b3t57bfs6qan3padb2wnb2i7cl/exe/qcprog.exe_s
PARALLEL:    -DPARALLEL
QCMPI:       mpich
#
# qchem directory setting
#
qcrun:       qchem2774577
QCSCRATCH:   .
QCLOCALSCR:  
QCTMPDIR:    .
QCFILEPREF:  ./qchem2774577
QCSAVEDIR:   
workdirs:    ./qchem2774577
workdir0:    ./qchem2774577
partmpdirs =  
#
# parallel setting
#
QCRSH:           ssh
QCMPI:           mpich
QCMPIRUN:        /cm/shared/apps/spack/cpu/opt/spack/linux-centos8-zen2/gcc-10.2.0/qchem-5.4-akfmr7b3t57bfs6qan3padb2wnb2i7cl/bin/mpi/mpirun_qchem
QCMACHINEFILE:   ./qchem2774577/hostfile
exp-4-09

#
# env setting
#
exported envs:   QC QCAUX QCSCRATCH QCRUNNAME QCFILEPREF QCPROG QCPROG_S GUIFILE

Running Job 1 of 1 Dimethyl_Naphthalene_Dicarboximide_Phi_30_Theta_80_Thiophene.qcin
qchem Dimethyl_Naphthalene_Dicarboximide_Phi_30_Theta_80_Thiophene.qcin_2774577.0 ./qchem2774577/ 1
/cm/shared/apps/spack/cpu/opt/spack/linux-centos8-zen2/gcc-10.2.0/qchem-5.4-akfmr7b3t57bfs6qan3padb2wnb2i7cl/bin/mpi/mpirun_qchem -machinefile ./qchem2774577/hostfile -np 1 /cm/shared/apps/spack/cpu/opt/spack/linux-centos8-zen2/gcc-10.2.0/qchem-5.4-akfmr7b3t57bfs6qan3padb2wnb2i7cl/exe/qcprog.exe Dimethyl_Naphthalene_Dicarboximide_Phi_30_Theta_80_Thiophene.qcin_2774577.0 ./qchem2774577/

Process 0 of 1 is on exp-4-09 - thread support 0
initial socket setup ...start
initial socket setup ...done 
now start server 0 ... 
                  Welcome to Q-Chem
     A Quantum Leap Into The Future Of Chemistry


 Q-Chem 5.4, Q-Chem, Inc., Pleasanton, CA (2021)

 License issued to: University of California, San Diego (site)

 E. Epifanovsky,  A. T. B. Gilbert,  Xintian Feng,  Joonho Lee,  Yuezhi Mao,  
 N. Mardirossian,  P. Pokhilko,  A. White,  M. Wormit,  M. P. Coons,  
 A. L. Dempwolff,  Zhengting Gan,  D. Hait,  P. R. Horn,  L. D. Jacobson,  
 I. Kaliman,  J. Kussmann,  A. W. Lange,  Ka Un Lao,  D. S. Levine,  Jie Liu,  
 S. C. McKenzie,  A. F. Morrison,  K. Nanda,  F. Plasser,  D. R. Rehn,  
 M. L. Vidal,  Zhi-Qiang You,  Ying Zhu,  B. Alam,  B. Albrecht,  
 A. Aldossary,  E. Alguire,  J. H. Andersen,  D. Barton,  K. Begam,  A. Behn,  
 Y. A. Bernard,  E. J. Berquist,  H. Burton,  A. Carreras,  K. Carter-Fenk,  
 R. Chakraborty,  A. D. Chien,  K. D. Closser,  V. Cofer-Shabica,  
 S. Dasgupta,  Jia Deng,  M. de Wergifosse,  M. Diedenhofen,  Hainam Do,  
 S. Ehlert,  Po-Tung Fang,  S. Fatehi,  Qingguo Feng,  J. Gayvert,  
 Qinghui Ge,  G. Gidofalvi,  M. Goldey,  J. Gomes,  C. Gonzalez-Espinoza,  
 S. Gulania,  A. Gunina,  M. W. D. Hanson-Heine,  P. H. P. Harbach,  
 A. W. Hauser,  M. F. Herbst,  M. Hernandez Vera,  M. Hodecker,  
 Z. C. Holden,  S. Houck,  Xunkun Huang,  Kerwin Hui,  B. C. Huynh,  
 M. Ivanov,  Hyunjun Ji,  Hanjie Jiang,  B. Kaduk,  S. Kaehler,  
 K. Khistyaev,  Jaehoon Kim,  P. Klunzinger,  Z. Koczor-Benda,  
 Joong Hoon Koh,  D. Kosenkov,  L. Koulias,  T. Kowalczyk,  C. M. Krauter,  
 K. Kue,  A. Kunitsa,  T. Kus,  A. Landau,  K. V. Lawler,  D. Lefrancois,  
 S. Lehtola,  Rain Li,  Yi-Pei Li,  Jiashu Liang,  M. Liebenthal,  
 Hung-Hsuan Lin,  You-Sheng Lin,  Fenglai Liu,  Kuan-Yu Liu,  
 M. Loipersberger,  A. Luenser,  A. Manjanath,  P. Manohar,  E. Mansoor,  
 S. F. Manzer,  Shan-Ping Mao,  A. V. Marenich,  T. Markovich,  S. Mason,  
 S. A. Maurer,  P. F. McLaughlin,  M. F. S. J. Menger,  J.-M. Mewes,  
 S. A. Mewes,  P. Morgante,  J. W. Mullinax,  T. S. Nguyen-Beck,  
 K. J. Oosterbaan,  G. Paran,  Alexander C. Paul,  Suranjan K. Paul,  
 F. Pavosevic,  Zheng Pei,  S. Prager,  E. I. Proynov,  E. Ramos,  B. Rana,  
 A. E. Rask,  A. Rettig,  R. M. Richard,  F. Rob,  E. Rossomme,  T. Scheele,  
 M. Scheurer,  M. Schneider,  N. Sergueev,  S. M. Sharada,  W. Skomorowski,  
 D. W. Small,  C. J. Stein,  Yu-Chuan Su,  E. J. Sundstrom,  Zhen Tao,  
 J. Thirman,  T. Tsuchimochi,  N. M. Tubman,  S. P. Veccham,  O. Vydrov,  
 J. Wenzel,  J. Witte,  A. Yamada,  Kun Yao,  S. Yeganeh,  S. R. Yost,  
 A. Zech,  Igor Ying Zhang,  Xing Zhang,  Yu Zhang,  D. Zuev,  
 A. Aspuru-Guzik,  A. T. Bell,  N. A. Besley,  K. B. Bravaya,  B. R. Brooks,  
 D. Casanova,  Jeng-Da Chai,  S. Coriani,  C. J. Cramer,  
 A. E. DePrince, III,  R. A. DiStasio Jr.,  A. Dreuw,  B. D. Dunietz,  
 T. R. Furlani,  W. A. Goddard III,  S. Grimme,  S. Hammes-Schiffer,  
 T. Head-Gordon,  W. J. Hehre,  Chao-Ping Hsu,  T.-C. Jagau,  Yousung Jung,  
 A. Klamt,  Jing Kong,  D. S. Lambrecht,  WanZhen Liang,  N. J. Mayhall,  
 C. W. McCurdy,  J. B. Neaton,  C. Ochsenfeld,  J. A. Parkhill,  R. Peverati,  
 V. A. Rassolov,  Yihan Shao,  L. V. Slipchenko,  T. Stauch,  R. P. Steele,  
 J. E. Subotnik,  A. J. W. Thom,  A. Tkatchenko,  D. G. Truhlar,  
 T. Van Voorhis,  T. A. Wesolowski,  K. B. Whaley,  H. L. Woodcock III,  
 P. M. Zimmerman,  S. Faraji,  P. M. W. Gill,  M. Head-Gordon,  
 J. M. Herbert,  A. I. Krylov

 Contributors to earlier versions of Q-Chem not listed above: 
 R. D. Adamson,  B. Austin,  R. Baer,  J. Baker,  G. J. O. Beran,  
 K. Brandhorst,  S. T. Brown,  E. F. C. Byrd,  A. K. Chakraborty,  
 G. K. L. Chan,  Chun-Min Chang,  Yunqing Chen,  C.-L. Cheng,  
 Siu Hung Chien,  D. M. Chipman,  D. L. Crittenden,  H. Dachsel,  
 R. J. Doerksen,  A. D. Dutoi,  R. G. Edgar,  J. Fosso-Tande,  
 L. Fusti-Molnar,  D. Ghosh,  A. Ghysels,  A. Golubeva-Zadorozhnaya,  
 J. Gonthier,  M. S. Gordon,  S. R. Gwaltney,  G. Hawkins,  J. E. Herr,  
 A. Heyden,  S. Hirata,  E. G. Hohenstein,  G. Kedziora,  F. J. Keil,  
 C. Kelley,  Jihan Kim,  R. A. King,  R. Z. Khaliullin,  P. P. Korambath,  
 W. Kurlancheek,  A. Laurent,  A. M. Lee,  M. S. Lee,  S. V. Levchenko,  
 Ching Yeh Lin,  D. Liotard,  E. Livshits,  R. C. Lochan,  I. Lotan,  
 L. A. Martinez-Martinez,  P. E. Maslen,  N. Nair,  D. P. O'Neill,  
 D. Neuhauser,  E. Neuscamman,  C. M. Oana,  R. Olivares-Amaya,  R. Olson,  
 T. M. Perrine,  B. Peters,  P. A. Pieniazek,  A. Prociuk,  Y. M. Rhee,  
 J. Ritchie,  M. A. Rohrdanz,  E. Rosta,  N. J. Russ,  H. F. Schaefer III,  
 M. W. Schmidt,  N. E. Schultz,  S. Sharma,  N. Shenvi,  C. D. Sherrill,  
 A. C. Simmonett,  A. Sodt,  T. Stein,  D. Stuck,  K. S. Thanthiriwatte,  
 V. Vanovschi,  L. Vogt,  Tao Wang,  A. Warshel,  M. A. Watson,  
 C. F. Williams,  Q. Wu,  X. Xu,  Jun Yang,  W. Zhang,  Yan Zhao

 Please cite Q-Chem as follows:
 Y. Shao et al., Mol. Phys. 113, 184-215 (2015)
 DOI: 10.1080/00268976.2014.952696

 Q-Chem 5.4.0 for Intel X86 EM64T Linux

 Parts of Q-Chem use Armadillo 9.800.1 (Horizon Scraper).
 http://arma.sourceforge.net/

 Q-Chem begins on Fri Dec 15 14:02:39 2023  

 Host: 
0

     Scratch files written to ./qchem2774577//
 May1621 |scratch|qcdevops|jenkins|workspace|build_RNUM    
 Parallel job on  1  processors
 Processing $rem in /cm/shared/apps/spack/cpu/opt/spack/linux-centos8-zen2/gcc-10.2.0/qchem-5.4-akfmr7b3t57bfs6qan3padb2wnb2i7cl/config/preferences:
 Processing $rem in /home/rramji/.qchemrc:
 Symmetry turned off for PCM/SM12/SMD calculation
 Core orbitals will be frozen

 Checking the input file for inconsistencies... 	...done.

 Q-Chem warning in module forms1/BasisType.C, line 2236:

 You are not using the predefined 5D/6D in this basis set.


--------------------------------------------------------------
User input:
--------------------------------------------------------------
$molecule
0 1
C	0.252767	-6.741404	-0.046070
C	1.538656	-6.155638	-0.272935
C	-0.814966	-5.791452	0.141739
C	1.813042	-4.803786	-0.321083
H	2.403318	-6.821518	-0.425592
C	-0.527566	-4.378638	0.091779
C	0.782769	-3.838032	-0.138909
C	-1.556632	-3.413062	0.273808
C	1.067868	-2.426473	-0.188483
C	-1.285436	-2.059348	0.226610
C	-0.000000	-1.478216	-0.000000
H	-2.151019	-1.394783	0.379657
C	-2.235891	-6.187987	0.390420
C	-2.965540	-3.798164	0.522125
N	-3.205600	-5.170003	0.562731
C	3.225760	-4.424987	-0.570244
C	2.489646	-2.036627	-0.438407
N	3.459662	-3.049156	-0.610438
O	-2.621768	-7.353131	0.455563
O	-3.874608	-2.986854	0.683373
O	4.124059	-5.248946	-0.729367
O	2.896516	-0.878829	-0.508697
C	-4.596910	-5.563799	0.806996
H	-4.641640	-6.664085	0.813717
H	-5.246567	-5.147101	0.013655
H	-4.936739	-5.148785	1.775159
C	4.829729	-2.587487	-0.851572
H	5.462387	-3.483329	-0.964204
H	5.173914	-1.964972	-0.003956
H	4.863360	-1.962932	-1.764390
H	0.069584	-7.822318	-0.014094
C	0.000000	0.000000	0.000000
S	0.396411	0.687007	1.580530
C	1.215245	2.105322	0.904911
C	0.498850	0.864369	-0.985400
C	1.158885	2.007781	-0.493528
H	0.381046	0.660280	-2.059934
H	1.599289	2.770727	-1.152593
H	1.655514	2.868056	1.556025
$end

$rem
JOBTYPE		SP
EXCHANGE	HF
CORRELATION	pRIMP2
BASIS		cc-pvtz
METHOD		rimp2
AUX_BASIS	rimp2-cc-pvtz
SOLVENT_METHOD	PCM
PURECART	11111
SYMMETRY	false
MEM_TOTAL	110000
SCF_CONVERGENCE = 6
THRESH=10
GUI = 2
$end



$solvent
dielectric 4.90
$end
--------------------------------------------------------------
 ----------------------------------------------------------------
             Standard Nuclear Orientation (Angstroms)
    I     Atom           X                Y                Z
 ----------------------------------------------------------------
    1      C       0.2527670000    -6.7414040000    -0.0460700000
    2      C       1.5386560000    -6.1556380000    -0.2729350000
    3      C      -0.8149660000    -5.7914520000     0.1417390000
    4      C       1.8130420000    -4.8037860000    -0.3210830000
    5      H       2.4033180000    -6.8215180000    -0.4255920000
    6      C      -0.5275660000    -4.3786380000     0.0917790000
    7      C       0.7827690000    -3.8380320000    -0.1389090000
    8      C      -1.5566320000    -3.4130620000     0.2738080000
    9      C       1.0678680000    -2.4264730000    -0.1884830000
   10      C      -1.2854360000    -2.0593480000     0.2266100000
   11      C       0.0000000000    -1.4782160000     0.0000000000
   12      H      -2.1510190000    -1.3947830000     0.3796570000
   13      C      -2.2358910000    -6.1879870000     0.3904200000
   14      C      -2.9655400000    -3.7981640000     0.5221250000
   15      N      -3.2056000000    -5.1700030000     0.5627310000
   16      C       3.2257600000    -4.4249870000    -0.5702440000
   17      C       2.4896460000    -2.0366270000    -0.4384070000
   18      N       3.4596620000    -3.0491560000    -0.6104380000
   19      O      -2.6217680000    -7.3531310000     0.4555630000
   20      O      -3.8746080000    -2.9868540000     0.6833730000
   21      O       4.1240590000    -5.2489460000    -0.7293670000
   22      O       2.8965160000    -0.8788290000    -0.5086970000
   23      C      -4.5969100000    -5.5637990000     0.8069960000
   24      H      -4.6416400000    -6.6640850000     0.8137170000
   25      H      -5.2465670000    -5.1471010000     0.0136550000
   26      H      -4.9367390000    -5.1487850000     1.7751590000
   27      C       4.8297290000    -2.5874870000    -0.8515720000
   28      H       5.4623870000    -3.4833290000    -0.9642040000
   29      H       5.1739140000    -1.9649720000    -0.0039560000
   30      H       4.8633600000    -1.9629320000    -1.7643900000
   31      H       0.0695840000    -7.8223180000    -0.0140940000
   32      C       0.0000000000     0.0000000000     0.0000000000
   33      S       0.3964110000     0.6870070000     1.5805300000
   34      C       1.2152450000     2.1053220000     0.9049110000
   35      C       0.4988500000     0.8643690000    -0.9854000000
   36      C       1.1588850000     2.0077810000    -0.4935280000
   37      H       0.3810460000     0.6602800000    -2.0599340000
   38      H       1.5992890000     2.7707270000    -1.1525930000
   39      H       1.6555140000     2.8680560000     1.5560250000
 ----------------------------------------------------------------
 Nuclear Repulsion Energy =        2507.86179523 hartrees
 There are       97 alpha and       97 beta electrons
 Requested basis set is cc-pVTZ
 There are 344 shells and 982 basis functions

 Total QAlloc Memory Limit 110000 MB
 Mega-Array Size       188 MB
 MEM_STATIC part       192 MB
 Discretize the solute cavity surface with Lebedev spheres
	Using 110 Lebedev grid points for each H atom
	Using 194 Lebedev grid points for other atoms
	Atomic van der Waals radii will be scaled by 1.20
 Remove points where switching function is < 1.0e-08
 Keep 2572 surface tesserae and discard 3986 interior tesserae
 Molecular Surface Area = 364.828 Angst**2
 Requested basis set is rimp2-cc-pVTZ
 There are 750 shells and 2588 basis functions
 A cutoff of  1.0D-10 yielded  31978 shell pairs
 There are    246368 function pairs (    320317 Cartesian)
 Smallest overlap matrix eigenvalue = 9.39E-06

 Q-Chem warning in module stvman/mkSTV.C, line 323:

 Overlap eigenvalue is smaller than square root of threshold
 Use THRESH >= 12 to get rid of this warning


 Scale SEOQF with 1.000000e-02/1.000000e-02/1.000000e-01

 Standard Electronic Orientation quadrupole field applied
 Nucleus-field energy     =     0.0000000162 hartrees
 Guess from superposition of atomic densities
 Warning:  Energy on first SCF cycle will be non-variational
 SAD guess density has 194.000000 electrons

 -----------------------------------------------------------------------
  General SCF calculation program by
  Eric Jon Sundstrom, Paul Horn, Yuezhi Mao, Dmitri Zuev, Alec White,
  David Stuck, Shaama M.S., Shane Yost, Joonho Lee, David Small,
  Daniel Levine, Susi Lehtola, Hugh Burton, Evgeny Epifanovsky,
  Bang C. Huynh
 -----------------------------------------------------------------------
 Hartree-Fock
 using 64 threads for integral computing
 -------------------------------------------------------
 OpenMP Integral computing Module                
 Release: version 1.0, May 2013, Q-Chem Inc. Pittsburgh 
 -------------------------------------------------------
 A restricted SCF calculation will be
 performed using DIIS
 SCF converges when DIIS error is below 1.0e-06
 ---------------------------------------
  Cycle       Energy         DIIS error
 ---------------------------------------
    1   -1581.2935482840      1.87e-02  
    2   -1570.1012015399      2.09e-03  
    3   -1570.4265572525      1.64e-03  
    4   -1570.6595264252      2.57e-04  
    5   -1570.6715917886      7.55e-05  
    6   -1570.6726511060      2.82e-05  
    7   -1570.6728949210      1.43e-05  
    8   -1570.6729734234      6.14e-06  
    9   -1570.6729862145      2.35e-06  
   10   -1570.6729885717      8.43e-07  Convergence criterion met
 ---------------------------------------
 SCF time:   CPU 5956.58s  wall 220.00s 

************** Final PCM Free Energy Summary **************
 G_electrostatic  =      -0.02410079 hartree =     -15.12347636 kcal/mol
 G_cavitation     =       0.00000000 hartree =       0.00000000 kcal/mol
 G_dispersion     =       0.00000000 hartree =       0.00000000 kcal/mol
 G_repulsion      =       0.00000000 hartree =       0.00000000 kcal/mol
 --------------------------------------------------
 Non-electrostatic Free Energy =       0.00000000 hartree =       0.00000000 kcal/mol
 Total                         =      -0.02410079 hartree =     -15.12347636 kcal/mol
 --------------------------------------------------
 SCF Energy (H0 + V/2)                       =   -1570.67298857 
 Solute Internal Energy (H0)                 =   -1570.64888778 
 Total Free Energy (H0 + V/2 + non-elec)     =   -1570.67298857 hartree
                                             = -985612.17617264 kcal/mol
***********************************************************

 SCF   energy in the final basis set =    -1570.6729885717
 Total energy in the final basis set =    -1570.6729885717


 --------------------------------------------------------------
  Generalized many-body perturbation theory program
  by Joonho Lee, Fazle Rob, Xintian Feng, Evgeny Epifanovsky

 No regularization used 
 (reg. param. = 0.0000e+00)
  (P|Q)^-1/2 Time:  CPU 99.61 s  wall 2.14 s

 In RI-MP2 calculation: 
 # of frozen core orbitals: 31

 Components of the RIMP2 correlation energy:
        aaaa    correlation energy =        -0.6170061465 a.u.
        abab    correlation energy =        -3.3947091403 a.u.
        bbbb    correlation energy =        -0.6170061465 a.u.
        non-Brillouin singles      =        -0.0000000000 a.u.
        total same-spin energy     =        -1.2340122929 a.u.
        total opposite-spin energy =        -3.3947091403 a.u.

 Total  RIMP2   correlation energy =        -4.6287214332 a.u.
        RIMP2         total energy =     -1575.3017100049 a.u.

 RI-MP2 Energy Time:  CPU 1835.18 s  wall 30.41 s
 
 --------------------------------------------------------------
 
                    Orbital Energies (a.u.)
 --------------------------------------------------------------
 
 Alpha MOs
 -- Occupied --
-91.9909 -20.5582 -20.5556 -20.5548 -20.5546 -15.6307 -15.6302 -11.3998
-11.3951 -11.3923 -11.3897 -11.3133 -11.3046 -11.3025 -11.3003 -11.2980
-11.2979 -11.2870 -11.2861 -11.2844 -11.2802 -11.2799 -11.2748 -11.2645
-11.2643 -11.2591 -11.2487  -8.9903  -6.6711  -6.6705  -6.6700  -1.4244
 -1.4232  -1.4037  -1.4023  -1.2670  -1.2646  -1.2168  -1.1746  -1.1432
 -1.1167  -1.0617  -1.0491  -0.9926  -0.9884  -0.9832  -0.9588  -0.9483
 -0.8963  -0.8792  -0.8752  -0.8607  -0.7936  -0.7763  -0.7725  -0.7593
 -0.7365  -0.7180  -0.7049  -0.6947  -0.6796  -0.6713  -0.6659  -0.6618
 -0.6564  -0.6422  -0.6368  -0.6338  -0.6291  -0.6118  -0.5851  -0.5839
 -0.5766  -0.5738  -0.5657  -0.5636  -0.5599  -0.5548  -0.5521  -0.5483
 -0.5358  -0.5264  -0.5199  -0.5091  -0.4821  -0.4704  -0.4646  -0.4597
 -0.4570  -0.4516  -0.4275  -0.4177  -0.4083  -0.3563  -0.3471  -0.3325
 -0.3223
 -- Virtual --
 -0.0187   0.0646   0.0755   0.0821   0.1150   0.1543   0.1577   0.1595
  0.1655   0.1679   0.1778   0.1834   0.1845   0.1920   0.1992   0.2071
  0.2128   0.2250   0.2275   0.2303   0.2333   0.2380   0.2606   0.2615
  0.2645   0.2931   0.3077   0.3134   0.3157   0.3226   0.3230   0.3345
  0.3423   0.3437   0.3520   0.3556   0.3581   0.3633   0.3699   0.3721
  0.3759   0.3798   0.3903   0.3983   0.4015   0.4026   0.4060   0.4101
  0.4127   0.4227   0.4304   0.4338   0.4392   0.4413   0.4504   0.4534
  0.4551   0.4616   0.4627   0.4694   0.4715   0.4843   0.4875   0.4943
  0.5001   0.5048   0.5074   0.5101   0.5132   0.5213   0.5274   0.5310
  0.5342   0.5395   0.5443   0.5463   0.5496   0.5557   0.5610   0.5673
  0.5727   0.5752   0.5783   0.5792   0.5927   0.5940   0.5959   0.5998
  0.6043   0.6060   0.6107   0.6167   0.6212   0.6239   0.6239   0.6313
  0.6342   0.6359   0.6391   0.6413   0.6437   0.6463   0.6574   0.6716
  0.6748   0.6796   0.6828   0.6940   0.7045   0.7088   0.7130   0.7142
  0.7261   0.7321   0.7365   0.7389   0.7492   0.7570   0.7589   0.7643
  0.7704   0.7723   0.7755   0.7839   0.7930   0.7954   0.8039   0.8122
  0.8227   0.8247   0.8328   0.8373   0.8408   0.8478   0.8509   0.8605
  0.8659   0.8695   0.8715   0.8734   0.8832   0.8900   0.8931   0.8959
  0.9119   0.9189   0.9208   0.9269   0.9316   0.9341   0.9412   0.9427
  0.9489   0.9521   0.9647   0.9688   0.9694   0.9809   0.9850   0.9889
  0.9928   0.9989   1.0016   1.0078   1.0101   1.0159   1.0212   1.0282
  1.0356   1.0392   1.0434   1.0528   1.0626   1.0679   1.0705   1.0759
  1.0784   1.0802   1.0849   1.0897   1.0931   1.1007   1.1078   1.1185
  1.1203   1.1281   1.1355   1.1366   1.1406   1.1480   1.1564   1.1595
  1.1610   1.1709   1.1741   1.1791   1.1826   1.1864   1.1922   1.1983
  1.2029   1.2100   1.2144   1.2184   1.2252   1.2294   1.2347   1.2409
  1.2439   1.2523   1.2565   1.2587   1.2770   1.2797   1.2858   1.2942
  1.3129   1.3258   1.3292   1.3360   1.3399   1.3446   1.3500   1.3597
  1.3761   1.3782   1.3810   1.3868   1.3939   1.3969   1.4098   1.4195
  1.4220   1.4285   1.4378   1.4390   1.4464   1.4520   1.4597   1.4632
  1.4740   1.4838   1.4879   1.4932   1.4980   1.5013   1.5127   1.5182
  1.5242   1.5307   1.5345   1.5415   1.5535   1.5555   1.5600   1.5621
  1.5683   1.5733   1.5763   1.5870   1.6025   1.6080   1.6242   1.6303
  1.6365   1.6443   1.6477   1.6624   1.6646   1.6763   1.6831   1.6896
  1.6911   1.7062   1.7137   1.7200   1.7256   1.7372   1.7408   1.7462
  1.7540   1.7603   1.7675   1.7805   1.7887   1.7991   1.8069   1.8086
  1.8146   1.8311   1.8345   1.8415   1.8509   1.8553   1.8621   1.8684
  1.8742   1.8835   1.8980   1.9073   1.9176   1.9232   1.9399   1.9442
  1.9550   1.9678   1.9739   1.9810   1.9931   2.0041   2.0136   2.0276
  2.0468   2.0567   2.0611   2.0710   2.1041   2.1107   2.1190   2.1390
  2.1429   2.1509   2.1612   2.1725   2.1790   2.1997   2.2077   2.2178
  2.2230   2.2351   2.2563   2.2662   2.2723   2.2887   2.2947   2.2955
  2.3048   2.3199   2.3268   2.3405   2.3574   2.3603   2.3766   2.3859
  2.4073   2.4295   2.4317   2.4435   2.4523   2.4558   2.4582   2.4668
  2.4756   2.4832   2.4960   2.5021   2.5066   2.5183   2.5318   2.5353
  2.5455   2.5616   2.5793   2.5831   2.5859   2.5963   2.6067   2.6110
  2.6151   2.6186   2.6285   2.6482   2.6499   2.6598   2.6664   2.6704
  2.6828   2.6900   2.7002   2.7066   2.7130   2.7148   2.7187   2.7264
  2.7323   2.7436   2.7517   2.7553   2.7682   2.7717   2.7722   2.7935
  2.7971   2.8206   2.8268   2.8311   2.8402   2.8441   2.8479   2.8568
  2.8663   2.8738   2.8813   2.8840   2.8891   2.8954   2.8994   2.9112
  2.9178   2.9280   2.9314   2.9346   2.9475   2.9541   2.9601   2.9708
  2.9764   2.9801   2.9840   2.9918   3.0041   3.0106   3.0159   3.0178
  3.0260   3.0296   3.0358   3.0409   3.0446   3.0580   3.0646   3.0751
  3.0872   3.0913   3.0985   3.1016   3.1069   3.1114   3.1185   3.1219
  3.1254   3.1311   3.1432   3.1573   3.1609   3.1717   3.1740   3.1841
  3.1893   3.1964   3.1996   3.2067   3.2156   3.2176   3.2220   3.2239
  3.2251   3.2326   3.2379   3.2440   3.2495   3.2525   3.2616   3.2654
  3.2683   3.2702   3.2809   3.2851   3.2894   3.2905   3.2933   3.2959
  3.3047   3.3100   3.3125   3.3212   3.3252   3.3308   3.3368   3.3400
  3.3431   3.3467   3.3504   3.3562   3.3581   3.3648   3.3722   3.3744
  3.3784   3.3812   3.3876   3.3966   3.3989   3.4017   3.4097   3.4192
  3.4271   3.4300   3.4339   3.4426   3.4433   3.4470   3.4527   3.4563
  3.4578   3.4658   3.4684   3.4745   3.4822   3.4871   3.4882   3.4935
  3.4985   3.5011   3.5049   3.5083   3.5107   3.5209   3.5291   3.5304
  3.5354   3.5435   3.5510   3.5556   3.5662   3.5714   3.5767   3.5842
  3.5882   3.5884   3.5996   3.6056   3.6142   3.6217   3.6262   3.6353
  3.6367   3.6385   3.6409   3.6473   3.6532   3.6644   3.6659   3.6663
  3.6901   3.6939   3.6977   3.7062   3.7110   3.7112   3.7157   3.7272
  3.7319   3.7340   3.7402   3.7511   3.7540   3.7570   3.7574   3.7650
  3.7732   3.7802   3.7837   3.7874   3.7941   3.7998   3.8009   3.8027
  3.8074   3.8212   3.8305   3.8376   3.8418   3.8514   3.8578   3.8638
  3.8656   3.8720   3.8809   3.8905   3.8957   3.8970   3.9038   3.9139
  3.9255   3.9354   3.9387   3.9480   3.9493   3.9584   3.9610   3.9765
  3.9791   3.9859   4.0041   4.0055   4.0134   4.0255   4.0279   4.0392
  4.0531   4.0591   4.0701   4.0758   4.0821   4.0859   4.0985   4.1050
  4.1163   4.1246   4.1294   4.1368   4.1450   4.1536   4.1711   4.1742
  4.1821   4.1859   4.1885   4.1988   4.2028   4.2259   4.2261   4.2356
  4.2479   4.2546   4.2676   4.2682   4.2745   4.2805   4.2855   4.2913
  4.2960   4.2973   4.2998   4.3028   4.3114   4.3293   4.3341   4.3367
  4.3488   4.3503   4.3575   4.3657   4.3670   4.3691   4.3768   4.3821
  4.3878   4.3993   4.4030   4.4102   4.4145   4.4220   4.4252   4.4428
  4.4538   4.4578   4.4682   4.4744   4.4878   4.4967   4.5151   4.5174
  4.5233   4.5287   4.5351   4.5459   4.5503   4.5587   4.5613   4.5694
  4.5758   4.5794   4.5833   4.5956   4.5972   4.6130   4.6316   4.6352
  4.6420   4.6530   4.6600   4.6708   4.6723   4.6830   4.6912   4.6953
  4.7196   4.7279   4.7341   4.7440   4.7523   4.7672   4.7777   4.7864
  4.8088   4.8113   4.8235   4.8404   4.8477   4.8640   4.8719   4.8742
  4.8902   4.9083   4.9157   4.9249   4.9334   4.9542   4.9600   4.9809
  4.9924   5.0067   5.0264   5.0365   5.0426   5.0457   5.0507   5.0536
  5.0918   5.0958   5.1047   5.1118   5.1256   5.1310   5.1402   5.1424
  5.1630   5.1736   5.1804   5.1951   5.2124   5.2224   5.2361   5.2568
  5.2599   5.2778   5.2876   5.2905   5.3189   5.3256   5.3310   5.3366
  5.3509   5.3959   5.4005   5.4034   5.4147   5.4277   5.4322   5.4655
  5.4891   5.5015   5.5079   5.5090   5.5131   5.5330   5.5394   5.5461
  5.5559   5.5598   5.5606   5.5743   5.5779   5.5893   5.6046   5.6067
  5.6166   5.6355   5.6526   5.6546   5.6572   5.6767   5.6773   5.6899
  5.6988   5.7075   5.7160   5.7367   5.7509   5.7586   5.7635   5.7684
  5.7735   5.7824   5.8143   5.8212   5.8401   5.8599   5.8788   5.9119
  5.9397   5.9526   5.9839   5.9966   6.0220   6.0229   6.0303   6.0415
  6.0753   6.0969   6.1009   6.1138   6.1166   6.1573   6.1914   6.2093
  6.2178   6.2185   6.2213   6.2515   6.2657   6.2681   6.3003   6.3409
  6.3510   6.3878   6.4188   6.4455   6.4657   6.5242   6.5624   6.5698
  6.5861   6.5995   6.6409   6.6478   6.6483   6.6601   6.7030   6.8295
  6.8348   6.8796   6.8864   6.8955   6.9119   6.9271   6.9416   7.0773
  7.1008   7.1386   7.1843   7.1902   7.2279   7.3326   7.3413   7.3448
  7.3568   7.4669   7.5458   7.5584   7.5733   7.5783   7.6002   7.6337
  7.6717   7.6866   7.7244   8.3177   9.9174  10.2858  11.1174  11.2138
 11.6674  11.7420  12.0555  12.3693  12.4437  12.6589  12.8533  12.9853
 13.2491  13.5771  13.8103  13.9428  13.9741  14.1248  14.2392  14.3468
 14.4093  14.7321  15.3259  15.7104  15.9619
 --------------------------------------------------------------
 
          Ground-State Mulliken Net Atomic Charges

     Atom                 Charge (a.u.)
  ----------------------------------------
      1 C                    -0.132197
      2 C                    -0.107741
      3 C                    -0.043377
      4 C                    -0.001127
      5 H                     0.188400
      6 C                    -0.009931
      7 C                     0.070347
      8 C                     0.022828
      9 C                     0.007226
     10 C                    -0.163133
     11 C                     0.079097
     12 H                     0.180298
     13 C                     0.361138
     14 C                     0.366538
     15 N                    -0.101478
     16 C                     0.358111
     17 C                     0.364977
     18 N                    -0.094362
     19 O                    -0.465122
     20 O                    -0.476204
     21 O                    -0.480908
     22 O                    -0.456861
     23 C                    -0.201146
     24 H                     0.140941
     25 H                     0.112264
     26 H                     0.112405
     27 C                    -0.196731
     28 H                     0.133709
     29 H                     0.113255
     30 H                     0.112053
     31 H                     0.214193
     32 C                    -0.074388
     33 S                     0.029791
     34 C                    -0.197928
     35 C                    -0.171850
     36 C                    -0.180909
     37 H                     0.186183
     38 H                     0.189188
     39 H                     0.212451
  ----------------------------------------
  Sum of atomic charges =     0.000000

 -----------------------------------------------------------------
                    Cartesian Multipole Moments
 -----------------------------------------------------------------
    Charge (ESU x 10^10)
                 0.0000
    Dipole Moment (Debye)
         X       1.4151      Y       1.1582      Z      -1.0371
       Tot       2.1022
    Quadrupole Moments (Debye-Ang)
        XX    -181.2080     XY       4.3384     YY    -168.1245
        XZ       3.9173     YZ       0.8131     ZZ    -158.0303
    Octopole Moments (Debye-Ang^2)
       XXX    -124.9954    XXY     561.5640    XYY     -15.7900
       YYY    1596.8495    XXZ     -11.0287    XYZ     -10.6864
       YYZ      -8.5391    XZZ     -34.0146    YZZ     485.6229
       ZZZ     -46.0910
    Hexadecapole Moments (Debye-Ang^3)
      XXXX   -6144.8696   XXXY    -111.1759   XXYY   -4174.8488
      XYYY    -855.8443   YYYY  -17074.7184   XXXZ     516.1580
      XXYZ     -51.5762   XYYZ     268.2138   YYYZ     103.1497
      XXZZ   -1085.3604   XYZZ    -126.5324   YYZZ   -2731.6160
      XZZZ     466.3922   YZZZ      19.3433   ZZZZ    -631.4987
 -----------------------------------------------------------------
 Total job time:  254.34s(wall), 7898.37s(cpu) 
 Fri Dec 15 14:06:54 2023

        *************************************************************
        *                                                           *
        *  Thank you very much for using Q-Chem.  Have a nice day.  *
        *                                                           *
        *************************************************************


0 sent ACK to 0 
now end server 0 ... 
cleanup process ... done
remove work dirs ./qchem2774577.0 -- ./qchem2774577.0
rm -rf ./qchem2774577.0
rm -rf ./qchem2774577
