You are running Q-Chem version: 5.4.0

#
# job setting
#
local host:  exp-4-09
current dir: /home/rramji/project-csd799/aromodel/pndit-qchem/rotation_run
input file:  Dimethyl_Naphthalene_Dicarboximide_Phi_30_Theta_350_Thiophene.qcin
output file: 
nprocs     : 1
nthreads   : 64
#
# qchem installation setting
#
QC:          /cm/shared/apps/spack/cpu/opt/spack/linux-centos8-zen2/gcc-10.2.0/qchem-5.4-akfmr7b3t57bfs6qan3padb2wnb2i7cl
QCAUX:       /cm/shared/apps/spack/cpu/opt/spack/linux-centos8-zen2/gcc-10.2.0/qchem-5.4-akfmr7b3t57bfs6qan3padb2wnb2i7cl/qcaux
QCPROG:      /cm/shared/apps/spack/cpu/opt/spack/linux-centos8-zen2/gcc-10.2.0/qchem-5.4-akfmr7b3t57bfs6qan3padb2wnb2i7cl/exe/qcprog.exe
QCPROG_S:    /cm/shared/apps/spack/cpu/opt/spack/linux-centos8-zen2/gcc-10.2.0/qchem-5.4-akfmr7b3t57bfs6qan3padb2wnb2i7cl/exe/qcprog.exe_s
PARALLEL:    -DPARALLEL
QCMPI:       mpich
#
# qchem directory setting
#
qcrun:       qchem2801037
QCSCRATCH:   .
QCLOCALSCR:  
QCTMPDIR:    .
QCFILEPREF:  ./qchem2801037
QCSAVEDIR:   
workdirs:    ./qchem2801037
workdir0:    ./qchem2801037
partmpdirs =  
#
# parallel setting
#
QCRSH:           ssh
QCMPI:           mpich
QCMPIRUN:        /cm/shared/apps/spack/cpu/opt/spack/linux-centos8-zen2/gcc-10.2.0/qchem-5.4-akfmr7b3t57bfs6qan3padb2wnb2i7cl/bin/mpi/mpirun_qchem
QCMACHINEFILE:   ./qchem2801037/hostfile
exp-4-09

#
# env setting
#
exported envs:   QC QCAUX QCSCRATCH QCRUNNAME QCFILEPREF QCPROG QCPROG_S GUIFILE

Running Job 1 of 1 Dimethyl_Naphthalene_Dicarboximide_Phi_30_Theta_350_Thiophene.qcin
qchem Dimethyl_Naphthalene_Dicarboximide_Phi_30_Theta_350_Thiophene.qcin_2801037.0 ./qchem2801037/ 1
/cm/shared/apps/spack/cpu/opt/spack/linux-centos8-zen2/gcc-10.2.0/qchem-5.4-akfmr7b3t57bfs6qan3padb2wnb2i7cl/bin/mpi/mpirun_qchem -machinefile ./qchem2801037/hostfile -np 1 /cm/shared/apps/spack/cpu/opt/spack/linux-centos8-zen2/gcc-10.2.0/qchem-5.4-akfmr7b3t57bfs6qan3padb2wnb2i7cl/exe/qcprog.exe Dimethyl_Naphthalene_Dicarboximide_Phi_30_Theta_350_Thiophene.qcin_2801037.0 ./qchem2801037/

Process 0 of 1 is on exp-4-09 - thread support 0
initial socket setup ...start
initial socket setup ...done 
now start server 0 ... 
                  Welcome to Q-Chem
     A Quantum Leap Into The Future Of Chemistry


 Q-Chem 5.4, Q-Chem, Inc., Pleasanton, CA (2021)

 License issued to: University of California, San Diego (site)

 E. Epifanovsky,  A. T. B. Gilbert,  Xintian Feng,  Joonho Lee,  Yuezhi Mao,  
 N. Mardirossian,  P. Pokhilko,  A. White,  M. Wormit,  M. P. Coons,  
 A. L. Dempwolff,  Zhengting Gan,  D. Hait,  P. R. Horn,  L. D. Jacobson,  
 I. Kaliman,  J. Kussmann,  A. W. Lange,  Ka Un Lao,  D. S. Levine,  Jie Liu,  
 S. C. McKenzie,  A. F. Morrison,  K. Nanda,  F. Plasser,  D. R. Rehn,  
 M. L. Vidal,  Zhi-Qiang You,  Ying Zhu,  B. Alam,  B. Albrecht,  
 A. Aldossary,  E. Alguire,  J. H. Andersen,  D. Barton,  K. Begam,  A. Behn,  
 Y. A. Bernard,  E. J. Berquist,  H. Burton,  A. Carreras,  K. Carter-Fenk,  
 R. Chakraborty,  A. D. Chien,  K. D. Closser,  V. Cofer-Shabica,  
 S. Dasgupta,  Jia Deng,  M. de Wergifosse,  M. Diedenhofen,  Hainam Do,  
 S. Ehlert,  Po-Tung Fang,  S. Fatehi,  Qingguo Feng,  J. Gayvert,  
 Qinghui Ge,  G. Gidofalvi,  M. Goldey,  J. Gomes,  C. Gonzalez-Espinoza,  
 S. Gulania,  A. Gunina,  M. W. D. Hanson-Heine,  P. H. P. Harbach,  
 A. W. Hauser,  M. F. Herbst,  M. Hernandez Vera,  M. Hodecker,  
 Z. C. Holden,  S. Houck,  Xunkun Huang,  Kerwin Hui,  B. C. Huynh,  
 M. Ivanov,  Hyunjun Ji,  Hanjie Jiang,  B. Kaduk,  S. Kaehler,  
 K. Khistyaev,  Jaehoon Kim,  P. Klunzinger,  Z. Koczor-Benda,  
 Joong Hoon Koh,  D. Kosenkov,  L. Koulias,  T. Kowalczyk,  C. M. Krauter,  
 K. Kue,  A. Kunitsa,  T. Kus,  A. Landau,  K. V. Lawler,  D. Lefrancois,  
 S. Lehtola,  Rain Li,  Yi-Pei Li,  Jiashu Liang,  M. Liebenthal,  
 Hung-Hsuan Lin,  You-Sheng Lin,  Fenglai Liu,  Kuan-Yu Liu,  
 M. Loipersberger,  A. Luenser,  A. Manjanath,  P. Manohar,  E. Mansoor,  
 S. F. Manzer,  Shan-Ping Mao,  A. V. Marenich,  T. Markovich,  S. Mason,  
 S. A. Maurer,  P. F. McLaughlin,  M. F. S. J. Menger,  J.-M. Mewes,  
 S. A. Mewes,  P. Morgante,  J. W. Mullinax,  T. S. Nguyen-Beck,  
 K. J. Oosterbaan,  G. Paran,  Alexander C. Paul,  Suranjan K. Paul,  
 F. Pavosevic,  Zheng Pei,  S. Prager,  E. I. Proynov,  E. Ramos,  B. Rana,  
 A. E. Rask,  A. Rettig,  R. M. Richard,  F. Rob,  E. Rossomme,  T. Scheele,  
 M. Scheurer,  M. Schneider,  N. Sergueev,  S. M. Sharada,  W. Skomorowski,  
 D. W. Small,  C. J. Stein,  Yu-Chuan Su,  E. J. Sundstrom,  Zhen Tao,  
 J. Thirman,  T. Tsuchimochi,  N. M. Tubman,  S. P. Veccham,  O. Vydrov,  
 J. Wenzel,  J. Witte,  A. Yamada,  Kun Yao,  S. Yeganeh,  S. R. Yost,  
 A. Zech,  Igor Ying Zhang,  Xing Zhang,  Yu Zhang,  D. Zuev,  
 A. Aspuru-Guzik,  A. T. Bell,  N. A. Besley,  K. B. Bravaya,  B. R. Brooks,  
 D. Casanova,  Jeng-Da Chai,  S. Coriani,  C. J. Cramer,  
 A. E. DePrince, III,  R. A. DiStasio Jr.,  A. Dreuw,  B. D. Dunietz,  
 T. R. Furlani,  W. A. Goddard III,  S. Grimme,  S. Hammes-Schiffer,  
 T. Head-Gordon,  W. J. Hehre,  Chao-Ping Hsu,  T.-C. Jagau,  Yousung Jung,  
 A. Klamt,  Jing Kong,  D. S. Lambrecht,  WanZhen Liang,  N. J. Mayhall,  
 C. W. McCurdy,  J. B. Neaton,  C. Ochsenfeld,  J. A. Parkhill,  R. Peverati,  
 V. A. Rassolov,  Yihan Shao,  L. V. Slipchenko,  T. Stauch,  R. P. Steele,  
 J. E. Subotnik,  A. J. W. Thom,  A. Tkatchenko,  D. G. Truhlar,  
 T. Van Voorhis,  T. A. Wesolowski,  K. B. Whaley,  H. L. Woodcock III,  
 P. M. Zimmerman,  S. Faraji,  P. M. W. Gill,  M. Head-Gordon,  
 J. M. Herbert,  A. I. Krylov

 Contributors to earlier versions of Q-Chem not listed above: 
 R. D. Adamson,  B. Austin,  R. Baer,  J. Baker,  G. J. O. Beran,  
 K. Brandhorst,  S. T. Brown,  E. F. C. Byrd,  A. K. Chakraborty,  
 G. K. L. Chan,  Chun-Min Chang,  Yunqing Chen,  C.-L. Cheng,  
 Siu Hung Chien,  D. M. Chipman,  D. L. Crittenden,  H. Dachsel,  
 R. J. Doerksen,  A. D. Dutoi,  R. G. Edgar,  J. Fosso-Tande,  
 L. Fusti-Molnar,  D. Ghosh,  A. Ghysels,  A. Golubeva-Zadorozhnaya,  
 J. Gonthier,  M. S. Gordon,  S. R. Gwaltney,  G. Hawkins,  J. E. Herr,  
 A. Heyden,  S. Hirata,  E. G. Hohenstein,  G. Kedziora,  F. J. Keil,  
 C. Kelley,  Jihan Kim,  R. A. King,  R. Z. Khaliullin,  P. P. Korambath,  
 W. Kurlancheek,  A. Laurent,  A. M. Lee,  M. S. Lee,  S. V. Levchenko,  
 Ching Yeh Lin,  D. Liotard,  E. Livshits,  R. C. Lochan,  I. Lotan,  
 L. A. Martinez-Martinez,  P. E. Maslen,  N. Nair,  D. P. O'Neill,  
 D. Neuhauser,  E. Neuscamman,  C. M. Oana,  R. Olivares-Amaya,  R. Olson,  
 T. M. Perrine,  B. Peters,  P. A. Pieniazek,  A. Prociuk,  Y. M. Rhee,  
 J. Ritchie,  M. A. Rohrdanz,  E. Rosta,  N. J. Russ,  H. F. Schaefer III,  
 M. W. Schmidt,  N. E. Schultz,  S. Sharma,  N. Shenvi,  C. D. Sherrill,  
 A. C. Simmonett,  A. Sodt,  T. Stein,  D. Stuck,  K. S. Thanthiriwatte,  
 V. Vanovschi,  L. Vogt,  Tao Wang,  A. Warshel,  M. A. Watson,  
 C. F. Williams,  Q. Wu,  X. Xu,  Jun Yang,  W. Zhang,  Yan Zhao

 Please cite Q-Chem as follows:
 Y. Shao et al., Mol. Phys. 113, 184-215 (2015)
 DOI: 10.1080/00268976.2014.952696

 Q-Chem 5.4.0 for Intel X86 EM64T Linux

 Parts of Q-Chem use Armadillo 9.800.1 (Horizon Scraper).
 http://arma.sourceforge.net/

 Q-Chem begins on Fri Dec 15 15:59:01 2023  

 Host: 
0

     Scratch files written to ./qchem2801037//
 May1621 |scratch|qcdevops|jenkins|workspace|build_RNUM    
 Parallel job on  1  processors
 Processing $rem in /cm/shared/apps/spack/cpu/opt/spack/linux-centos8-zen2/gcc-10.2.0/qchem-5.4-akfmr7b3t57bfs6qan3padb2wnb2i7cl/config/preferences:
 Processing $rem in /home/rramji/.qchemrc:
 Symmetry turned off for PCM/SM12/SMD calculation
 Core orbitals will be frozen

 Checking the input file for inconsistencies... 	...done.

 Q-Chem warning in module forms1/BasisType.C, line 2236:

 You are not using the predefined 5D/6D in this basis set.


--------------------------------------------------------------
User input:
--------------------------------------------------------------
$molecule
0 1
C	-0.046070	-6.741404	-0.252767
C	-0.272935	-6.155638	-1.538656
C	0.141739	-5.791452	0.814966
C	-0.321083	-4.803786	-1.813042
H	-0.425592	-6.821518	-2.403318
C	0.091779	-4.378638	0.527566
C	-0.138909	-3.838032	-0.782769
C	0.273808	-3.413062	1.556632
C	-0.188483	-2.426473	-1.067868
C	0.226610	-2.059348	1.285436
C	-0.000000	-1.478216	-0.000000
H	0.379657	-1.394783	2.151019
C	0.390420	-6.187987	2.235891
C	0.522125	-3.798164	2.965540
N	0.562731	-5.170003	3.205600
C	-0.570244	-4.424987	-3.225760
C	-0.438407	-2.036627	-2.489646
N	-0.610438	-3.049156	-3.459662
O	0.455563	-7.353131	2.621768
O	0.683373	-2.986854	3.874608
O	-0.729367	-5.248946	-4.124059
O	-0.508697	-0.878829	-2.896516
C	0.806996	-5.563799	4.596910
H	0.813717	-6.664085	4.641640
H	0.013655	-5.147101	5.246567
H	1.775159	-5.148785	4.936739
C	-0.851572	-2.587487	-4.829729
H	-0.964204	-3.483329	-5.462387
H	-0.003956	-1.964972	-5.173914
H	-1.764390	-1.962932	-4.863360
H	-0.014094	-7.822318	-0.069584
C	0.000000	0.000000	0.000000
S	0.396411	0.687007	1.580530
C	1.215245	2.105322	0.904911
C	0.498850	0.864369	-0.985400
C	1.158885	2.007781	-0.493528
H	0.381046	0.660280	-2.059934
H	1.599289	2.770727	-1.152593
H	1.655514	2.868056	1.556025
$end

$rem
JOBTYPE		SP
EXCHANGE	HF
CORRELATION	pRIMP2
BASIS		cc-pvtz
METHOD		rimp2
AUX_BASIS	rimp2-cc-pvtz
SOLVENT_METHOD	PCM
PURECART	11111
SYMMETRY	false
MEM_TOTAL	110000
SCF_CONVERGENCE = 6
THRESH=10
GUI = 2
$end



$solvent
dielectric 4.90
$end
--------------------------------------------------------------
 ----------------------------------------------------------------
             Standard Nuclear Orientation (Angstroms)
    I     Atom           X                Y                Z
 ----------------------------------------------------------------
    1      C      -0.0460700000    -6.7414040000    -0.2527670000
    2      C      -0.2729350000    -6.1556380000    -1.5386560000
    3      C       0.1417390000    -5.7914520000     0.8149660000
    4      C      -0.3210830000    -4.8037860000    -1.8130420000
    5      H      -0.4255920000    -6.8215180000    -2.4033180000
    6      C       0.0917790000    -4.3786380000     0.5275660000
    7      C      -0.1389090000    -3.8380320000    -0.7827690000
    8      C       0.2738080000    -3.4130620000     1.5566320000
    9      C      -0.1884830000    -2.4264730000    -1.0678680000
   10      C       0.2266100000    -2.0593480000     1.2854360000
   11      C       0.0000000000    -1.4782160000     0.0000000000
   12      H       0.3796570000    -1.3947830000     2.1510190000
   13      C       0.3904200000    -6.1879870000     2.2358910000
   14      C       0.5221250000    -3.7981640000     2.9655400000
   15      N       0.5627310000    -5.1700030000     3.2056000000
   16      C      -0.5702440000    -4.4249870000    -3.2257600000
   17      C      -0.4384070000    -2.0366270000    -2.4896460000
   18      N      -0.6104380000    -3.0491560000    -3.4596620000
   19      O       0.4555630000    -7.3531310000     2.6217680000
   20      O       0.6833730000    -2.9868540000     3.8746080000
   21      O      -0.7293670000    -5.2489460000    -4.1240590000
   22      O      -0.5086970000    -0.8788290000    -2.8965160000
   23      C       0.8069960000    -5.5637990000     4.5969100000
   24      H       0.8137170000    -6.6640850000     4.6416400000
   25      H       0.0136550000    -5.1471010000     5.2465670000
   26      H       1.7751590000    -5.1487850000     4.9367390000
   27      C      -0.8515720000    -2.5874870000    -4.8297290000
   28      H      -0.9642040000    -3.4833290000    -5.4623870000
   29      H      -0.0039560000    -1.9649720000    -5.1739140000
   30      H      -1.7643900000    -1.9629320000    -4.8633600000
   31      H      -0.0140940000    -7.8223180000    -0.0695840000
   32      C       0.0000000000     0.0000000000     0.0000000000
   33      S       0.3964110000     0.6870070000     1.5805300000
   34      C       1.2152450000     2.1053220000     0.9049110000
   35      C       0.4988500000     0.8643690000    -0.9854000000
   36      C       1.1588850000     2.0077810000    -0.4935280000
   37      H       0.3810460000     0.6602800000    -2.0599340000
   38      H       1.5992890000     2.7707270000    -1.1525930000
   39      H       1.6555140000     2.8680560000     1.5560250000
 ----------------------------------------------------------------
 Nuclear Repulsion Energy =        2505.49051316 hartrees
 There are       97 alpha and       97 beta electrons
 Requested basis set is cc-pVTZ
 There are 344 shells and 982 basis functions

 Total QAlloc Memory Limit 110000 MB
 Mega-Array Size       188 MB
 MEM_STATIC part       192 MB
 Discretize the solute cavity surface with Lebedev spheres
	Using 110 Lebedev grid points for each H atom
	Using 194 Lebedev grid points for other atoms
	Atomic van der Waals radii will be scaled by 1.20
 Remove points where switching function is < 1.0e-08
 Keep 2533 surface tesserae and discard 4025 interior tesserae
 Molecular Surface Area = 359.444 Angst**2
 Requested basis set is rimp2-cc-pVTZ
 There are 750 shells and 2588 basis functions
 A cutoff of  1.0D-10 yielded  31874 shell pairs
 There are    245466 function pairs (    318993 Cartesian)
 Smallest overlap matrix eigenvalue = 9.46E-06

 Q-Chem warning in module stvman/mkSTV.C, line 323:

 Overlap eigenvalue is smaller than square root of threshold
 Use THRESH >= 12 to get rid of this warning


 Scale SEOQF with 1.000000e-01/1.000000e-02/1.000000e-02

 Standard Electronic Orientation quadrupole field applied
 Nucleus-field energy     =     0.0000000112 hartrees
 Guess from superposition of atomic densities
 Warning:  Energy on first SCF cycle will be non-variational
 SAD guess density has 194.000000 electrons

 -----------------------------------------------------------------------
  General SCF calculation program by
  Eric Jon Sundstrom, Paul Horn, Yuezhi Mao, Dmitri Zuev, Alec White,
  David Stuck, Shaama M.S., Shane Yost, Joonho Lee, David Small,
  Daniel Levine, Susi Lehtola, Hugh Burton, Evgeny Epifanovsky,
  Bang C. Huynh
 -----------------------------------------------------------------------
 Hartree-Fock
 using 64 threads for integral computing
 -------------------------------------------------------
 OpenMP Integral computing Module                
 Release: version 1.0, May 2013, Q-Chem Inc. Pittsburgh 
 -------------------------------------------------------
 A restricted SCF calculation will be
 performed using DIIS
 SCF converges when DIIS error is below 1.0e-06
 ---------------------------------------
  Cycle       Energy         DIIS error
 ---------------------------------------
    1   -1581.4249266393      1.87e-02  
    2   -1570.1010216729      2.08e-03  
    3   -1570.4304798336      1.60e-03  
    4   -1570.6543351636      2.59e-04  
    5   -1570.6666637465      7.79e-05  
    6   -1570.6677980088      2.89e-05  
    7   -1570.6680673677      1.44e-05  
    8   -1570.6681525779      6.19e-06  
    9   -1570.6681665159      2.35e-06  
   10   -1570.6681690750      9.05e-07  Convergence criterion met
 ---------------------------------------
 SCF time:   CPU 5957.64s  wall 222.00s 

************** Final PCM Free Energy Summary **************
 G_electrostatic  =      -0.02125112 hartree =     -13.33528065 kcal/mol
 G_cavitation     =       0.00000000 hartree =       0.00000000 kcal/mol
 G_dispersion     =       0.00000000 hartree =       0.00000000 kcal/mol
 G_repulsion      =       0.00000000 hartree =       0.00000000 kcal/mol
 --------------------------------------------------
 Non-electrostatic Free Energy =       0.00000000 hartree =       0.00000000 kcal/mol
 Total                         =      -0.02125112 hartree =     -13.33528065 kcal/mol
 --------------------------------------------------
 SCF Energy (H0 + V/2)                       =   -1570.66816908 
 Solute Internal Energy (H0)                 =   -1570.64691795 
 Total Free Energy (H0 + V/2 + non-elec)     =   -1570.66816908 hartree
                                             = -985609.15189281 kcal/mol
***********************************************************

 SCF   energy in the final basis set =    -1570.6681690750
 Total energy in the final basis set =    -1570.6681690750


 --------------------------------------------------------------
  Generalized many-body perturbation theory program
  by Joonho Lee, Fazle Rob, Xintian Feng, Evgeny Epifanovsky

 No regularization used 
 (reg. param. = 0.0000e+00)
  (P|Q)^-1/2 Time:  CPU 126.46 s  wall 2.02 s

 In RI-MP2 calculation: 
 # of frozen core orbitals: 31

 Components of the RIMP2 correlation energy:
        aaaa    correlation energy =        -0.6183055457 a.u.
        abab    correlation energy =        -3.3947476492 a.u.
        bbbb    correlation energy =        -0.6183055457 a.u.
        non-Brillouin singles      =        -0.0000000000 a.u.
        total same-spin energy     =        -1.2366110914 a.u.
        total opposite-spin energy =        -3.3947476492 a.u.

 Total  RIMP2   correlation energy =        -4.6313587407 a.u.
        RIMP2         total energy =     -1575.2995278157 a.u.

 RI-MP2 Energy Time:  CPU 1937.33 s  wall 31.40 s
 
 --------------------------------------------------------------
 
                    Orbital Energies (a.u.)
 --------------------------------------------------------------
 
 Alpha MOs
 -- Occupied --
-91.9926 -20.5581 -20.5561 -20.5547 -20.5526 -15.6307 -15.6295 -11.3993
-11.3954 -11.3904 -11.3902 -11.3196 -11.3012 -11.2987 -11.2964 -11.2946
-11.2931 -11.2924 -11.2876 -11.2860 -11.2817 -11.2780 -11.2745 -11.2643
-11.2642 -11.2612 -11.2513  -8.9930  -6.6738  -6.6731  -6.6726  -1.4244
 -1.4241  -1.4038  -1.4028  -1.2668  -1.2645  -1.2161  -1.1811  -1.1429
 -1.1148  -1.0632  -1.0482  -0.9921  -0.9911  -0.9901  -0.9581  -0.9463
 -0.8963  -0.8779  -0.8775  -0.8601  -0.7966  -0.7802  -0.7722  -0.7631
 -0.7349  -0.7219  -0.7030  -0.6942  -0.6814  -0.6737  -0.6658  -0.6616
 -0.6553  -0.6412  -0.6364  -0.6331  -0.6270  -0.6127  -0.5908  -0.5836
 -0.5801  -0.5725  -0.5679  -0.5632  -0.5617  -0.5559  -0.5531  -0.5469
 -0.5377  -0.5250  -0.5240  -0.5109  -0.4815  -0.4671  -0.4651  -0.4602
 -0.4582  -0.4510  -0.4282  -0.4185  -0.4091  -0.3768  -0.3560  -0.3353
 -0.2995
 -- Virtual --
 -0.0180   0.0499   0.0685   0.1012   0.1289   0.1540   0.1580   0.1589
  0.1670   0.1711   0.1777   0.1863   0.1950   0.1957   0.2074   0.2124
  0.2225   0.2278   0.2294   0.2350   0.2501   0.2509   0.2637   0.2653
  0.2664   0.3077   0.3097   0.3161   0.3204   0.3310   0.3406   0.3431
  0.3466   0.3507   0.3530   0.3569   0.3582   0.3646   0.3697   0.3768
  0.3821   0.3891   0.3933   0.3977   0.4043   0.4088   0.4100   0.4181
  0.4222   0.4259   0.4317   0.4370   0.4388   0.4470   0.4528   0.4571
  0.4630   0.4642   0.4703   0.4724   0.4782   0.4845   0.4892   0.4916
  0.4956   0.5031   0.5104   0.5137   0.5198   0.5245   0.5278   0.5300
  0.5382   0.5421   0.5492   0.5527   0.5552   0.5587   0.5640   0.5700
  0.5726   0.5739   0.5763   0.5874   0.5921   0.5955   0.5957   0.5974
  0.6056   0.6084   0.6145   0.6195   0.6225   0.6246   0.6308   0.6326
  0.6340   0.6350   0.6366   0.6479   0.6521   0.6631   0.6664   0.6721
  0.6801   0.6843   0.6945   0.6988   0.7035   0.7121   0.7137   0.7226
  0.7321   0.7345   0.7358   0.7449   0.7513   0.7579   0.7620   0.7653
  0.7715   0.7735   0.7830   0.7893   0.8004   0.8063   0.8102   0.8207
  0.8250   0.8349   0.8415   0.8453   0.8497   0.8563   0.8594   0.8622
  0.8650   0.8670   0.8720   0.8777   0.8797   0.8886   0.9052   0.9083
  0.9146   0.9167   0.9235   0.9292   0.9330   0.9347   0.9396   0.9463
  0.9574   0.9586   0.9644   0.9689   0.9735   0.9762   0.9815   0.9853
  0.9889   0.9987   1.0010   1.0071   1.0108   1.0137   1.0271   1.0339
  1.0350   1.0465   1.0516   1.0564   1.0590   1.0632   1.0721   1.0733
  1.0784   1.0821   1.0862   1.0902   1.0911   1.1002   1.1092   1.1185
  1.1306   1.1317   1.1349   1.1403   1.1447   1.1507   1.1576   1.1596
  1.1621   1.1661   1.1722   1.1775   1.1821   1.1882   1.1904   1.2007
  1.2033   1.2112   1.2138   1.2199   1.2271   1.2281   1.2343   1.2412
  1.2452   1.2479   1.2537   1.2582   1.2656   1.2712   1.2844   1.3055
  1.3075   1.3269   1.3289   1.3338   1.3361   1.3443   1.3529   1.3584
  1.3698   1.3804   1.3834   1.3843   1.3913   1.3972   1.4058   1.4182
  1.4218   1.4257   1.4400   1.4441   1.4514   1.4530   1.4588   1.4611
  1.4719   1.4824   1.4868   1.4924   1.4969   1.5096   1.5153   1.5233
  1.5298   1.5320   1.5351   1.5447   1.5528   1.5584   1.5611   1.5714
  1.5747   1.5783   1.5906   1.5918   1.6102   1.6153   1.6320   1.6371
  1.6412   1.6474   1.6499   1.6577   1.6633   1.6799   1.6875   1.6906
  1.6933   1.7136   1.7214   1.7299   1.7371   1.7410   1.7467   1.7476
  1.7635   1.7691   1.7754   1.7803   1.7914   1.8038   1.8060   1.8131
  1.8220   1.8399   1.8455   1.8477   1.8533   1.8595   1.8639   1.8679
  1.8772   1.8916   1.8931   1.9154   1.9225   1.9235   1.9419   1.9550
  1.9617   1.9695   1.9743   1.9894   2.0025   2.0160   2.0264   2.0396
  2.0478   2.0668   2.0701   2.0862   2.0953   2.1172   2.1308   2.1418
  2.1490   2.1672   2.1673   2.1799   2.1821   2.2048   2.2139   2.2281
  2.2395   2.2455   2.2581   2.2692   2.2804   2.2886   2.2957   2.3025
  2.3157   2.3245   2.3309   2.3562   2.3584   2.3612   2.3741   2.3768
  2.4125   2.4274   2.4333   2.4457   2.4528   2.4585   2.4746   2.4869
  2.4886   2.4917   2.5009   2.5019   2.5087   2.5263   2.5375   2.5438
  2.5531   2.5647   2.5814   2.5893   2.5903   2.6006   2.6034   2.6134
  2.6157   2.6259   2.6391   2.6438   2.6547   2.6663   2.6684   2.6713
  2.6785   2.6901   2.6966   2.7095   2.7112   2.7175   2.7221   2.7295
  2.7415   2.7475   2.7563   2.7611   2.7642   2.7715   2.7804   2.7989
  2.8080   2.8135   2.8294   2.8399   2.8413   2.8469   2.8617   2.8629
  2.8662   2.8771   2.8819   2.8833   2.8863   2.8910   2.9093   2.9139
  2.9178   2.9277   2.9348   2.9394   2.9482   2.9581   2.9701   2.9740
  2.9774   2.9831   2.9933   2.9996   3.0008   3.0052   3.0159   3.0184
  3.0237   3.0380   3.0397   3.0439   3.0543   3.0602   3.0743   3.0887
  3.0902   3.0926   3.0995   3.1022   3.1090   3.1107   3.1197   3.1245
  3.1304   3.1333   3.1375   3.1515   3.1648   3.1688   3.1744   3.1815
  3.1918   3.1987   3.2041   3.2142   3.2154   3.2193   3.2225   3.2268
  3.2328   3.2336   3.2371   3.2463   3.2497   3.2557   3.2617   3.2642
  3.2682   3.2745   3.2773   3.2843   3.2896   3.2944   3.2985   3.3081
  3.3099   3.3156   3.3198   3.3255   3.3292   3.3338   3.3363   3.3401
  3.3450   3.3458   3.3523   3.3567   3.3604   3.3624   3.3696   3.3716
  3.3797   3.3860   3.3887   3.4008   3.4028   3.4052   3.4133   3.4178
  3.4219   3.4282   3.4320   3.4456   3.4510   3.4547   3.4579   3.4605
  3.4624   3.4667   3.4694   3.4719   3.4770   3.4845   3.4934   3.4990
  3.5015   3.5037   3.5086   3.5165   3.5192   3.5213   3.5243   3.5309
  3.5447   3.5501   3.5571   3.5633   3.5698   3.5731   3.5764   3.5806
  3.5866   3.5933   3.6037   3.6097   3.6182   3.6249   3.6286   3.6315
  3.6346   3.6379   3.6409   3.6462   3.6487   3.6634   3.6734   3.6788
  3.6875   3.6926   3.6988   3.7027   3.7050   3.7107   3.7148   3.7270
  3.7338   3.7349   3.7420   3.7466   3.7528   3.7610   3.7634   3.7715
  3.7834   3.7851   3.7870   3.7945   3.7960   3.7997   3.8041   3.8130
  3.8141   3.8227   3.8294   3.8387   3.8486   3.8519   3.8553   3.8661
  3.8685   3.8793   3.8818   3.8903   3.9051   3.9138   3.9168   3.9261
  3.9283   3.9342   3.9433   3.9470   3.9631   3.9644   3.9709   3.9736
  3.9898   3.9996   4.0115   4.0190   4.0218   4.0269   4.0383   4.0460
  4.0540   4.0689   4.0721   4.0770   4.0812   4.0869   4.0985   4.1130
  4.1180   4.1337   4.1394   4.1413   4.1531   4.1575   4.1639   4.1714
  4.1836   4.1846   4.1908   4.1947   4.2090   4.2268   4.2306   4.2399
  4.2539   4.2634   4.2718   4.2757   4.2789   4.2861   4.2921   4.2960
  4.2994   4.3018   4.3069   4.3156   4.3198   4.3317   4.3427   4.3478
  4.3484   4.3557   4.3623   4.3665   4.3693   4.3769   4.3803   4.3881
  4.3905   4.3995   4.4063   4.4078   4.4155   4.4229   4.4340   4.4404
  4.4588   4.4649   4.4661   4.4869   4.4921   4.5075   4.5175   4.5208
  4.5262   4.5293   4.5418   4.5453   4.5544   4.5625   4.5739   4.5755
  4.5773   4.5814   4.5847   4.5998   4.6085   4.6183   4.6317   4.6377
  4.6404   4.6519   4.6597   4.6724   4.6768   4.6834   4.6921   4.7102
  4.7131   4.7288   4.7344   4.7508   4.7755   4.7796   4.7944   4.8026
  4.8148   4.8316   4.8385   4.8438   4.8516   4.8675   4.8787   4.8842
  4.8917   4.8962   4.9342   4.9404   4.9460   4.9602   4.9703   4.9995
  5.0015   5.0036   5.0192   5.0375   5.0456   5.0534   5.0554   5.0665
  5.0979   5.1042   5.1108   5.1138   5.1262   5.1311   5.1444   5.1601
  5.1665   5.1803   5.1867   5.2042   5.2194   5.2357   5.2571   5.2572
  5.2594   5.2810   5.2914   5.3001   5.3115   5.3240   5.3364   5.3436
  5.3524   5.3964   5.4020   5.4039   5.4263   5.4330   5.4340   5.4614
  5.4785   5.5072   5.5091   5.5133   5.5147   5.5337   5.5456   5.5582
  5.5600   5.5619   5.5702   5.5752   5.5781   5.5945   5.6101   5.6124
  5.6307   5.6396   5.6531   5.6559   5.6687   5.6770   5.6791   5.6984
  5.7095   5.7194   5.7290   5.7387   5.7495   5.7609   5.7666   5.7755
  5.7814   5.7934   5.8122   5.8265   5.8466   5.8835   5.8977   5.9284
  5.9529   5.9600   5.9858   6.0092   6.0244   6.0266   6.0381   6.0569
  6.0957   6.1007   6.1058   6.1240   6.1285   6.1835   6.1941   6.2097
  6.2180   6.2216   6.2314   6.2633   6.2705   6.2790   6.3041   6.3468
  6.3551   6.3891   6.4205   6.4481   6.4684   6.5293   6.5628   6.5763
  6.5856   6.6011   6.6314   6.6489   6.6593   6.6646   6.7089   6.8328
  6.8400   6.8830   6.8865   6.8988   6.9118   6.9320   7.0080   7.0808
  7.1259   7.1449   7.1898   7.2017   7.2389   7.3329   7.3434   7.3450
  7.3731   7.4692   7.5483   7.5590   7.5757   7.5819   7.6215   7.6353
  7.6826   7.7072   7.7470   8.4383   9.8972  10.3728  11.0879  11.2121
 11.7093  11.7878  12.0511  12.3852  12.5001  12.6606  12.8530  13.1059
 13.3295  13.5622  13.8178  13.9510  14.0325  14.1264  14.2528  14.3580
 14.4231  14.7490  15.3342  15.7440  16.0416
 --------------------------------------------------------------
 
          Ground-State Mulliken Net Atomic Charges

     Atom                 Charge (a.u.)
  ----------------------------------------
      1 C                    -0.148980
      2 C                    -0.111142
      3 C                    -0.026403
      4 C                    -0.004469
      5 H                     0.187527
      6 C                    -0.004821
      7 C                     0.074980
      8 C                     0.056753
      9 C                    -0.083270
     10 C                    -0.173630
     11 C                     0.041139
     12 H                     0.175255
     13 C                     0.358083
     14 C                     0.361897
     15 N                    -0.101276
     16 C                     0.358136
     17 C                     0.382140
     18 N                    -0.093269
     19 O                    -0.464416
     20 O                    -0.477415
     21 O                    -0.484369
     22 O                    -0.484978
     23 C                    -0.201374
     24 H                     0.141086
     25 H                     0.112402
     26 H                     0.112249
     27 C                    -0.198165
     28 H                     0.134217
     29 H                     0.111859
     30 H                     0.112742
     31 H                     0.212015
     32 C                    -0.006519
     33 S                     0.012991
     34 C                    -0.163407
     35 C                    -0.115323
     36 C                    -0.244150
     37 H                     0.229526
     38 H                     0.193373
     39 H                     0.219006
  ----------------------------------------
  Sum of atomic charges =     0.000000

 -----------------------------------------------------------------
                    Cartesian Multipole Moments
 -----------------------------------------------------------------
    Charge (ESU x 10^10)
                 0.0000
    Dipole Moment (Debye)
         X       1.5183      Y       2.5229      Z      -0.6202
       Tot       3.0091
    Quadrupole Moments (Debye-Ang)
        XX    -161.4650     XY       5.1480     YY    -172.6414
        XZ      -3.1786     YZ       0.2243     ZZ    -177.8203
    Octopole Moments (Debye-Ang^2)
       XXX     -59.8224    XXY     484.3075    XYY      -3.3141
       YYY    1633.7555    XXZ       1.9461    XYZ      18.4615
       YYZ       5.2189    XZZ     -12.3953    YZZ     567.5104
       ZZZ       4.8262
    Hexadecapole Moments (Debye-Ang^3)
      XXXX    -495.5344   XXXY     -50.1071   XXYY   -2710.9767
      XYYY      58.9870   YYYY  -17296.8306   XXXZ    -510.1171
      XXYZ      96.1632   XYYZ    -263.5222   YYYZ     723.1526
      XXZZ   -1085.1621   XYZZ     -64.2124   YYZZ   -4209.2868
      XZZZ    -561.7004   YZZZ     -48.0753   ZZZZ   -6286.7340
 -----------------------------------------------------------------
 Total job time:  257.67s(wall), 7986.18s(cpu) 
 Fri Dec 15 16:03:19 2023

        *************************************************************
        *                                                           *
        *  Thank you very much for using Q-Chem.  Have a nice day.  *
        *                                                           *
        *************************************************************


0 sent ACK to 0 
now end server 0 ... 
cleanup process ... done
remove work dirs ./qchem2801037.0 -- ./qchem2801037.0
rm -rf ./qchem2801037.0
rm -rf ./qchem2801037
