You are running Q-Chem version: 5.4.0

#
# job setting
#
local host:  exp-1-56
current dir: /home/rramji/project-csd799/aromodel/pndit-qchem/rotation_run
input file:  Dimethyl_Naphthalene_Dicarboximide_Phi_20_Theta_130_Thiophene.qcin
output file: 
nprocs     : 1
nthreads   : 64
#
# qchem installation setting
#
QC:          /cm/shared/apps/spack/cpu/opt/spack/linux-centos8-zen2/gcc-10.2.0/qchem-5.4-akfmr7b3t57bfs6qan3padb2wnb2i7cl
QCAUX:       /cm/shared/apps/spack/cpu/opt/spack/linux-centos8-zen2/gcc-10.2.0/qchem-5.4-akfmr7b3t57bfs6qan3padb2wnb2i7cl/qcaux
QCPROG:      /cm/shared/apps/spack/cpu/opt/spack/linux-centos8-zen2/gcc-10.2.0/qchem-5.4-akfmr7b3t57bfs6qan3padb2wnb2i7cl/exe/qcprog.exe
QCPROG_S:    /cm/shared/apps/spack/cpu/opt/spack/linux-centos8-zen2/gcc-10.2.0/qchem-5.4-akfmr7b3t57bfs6qan3padb2wnb2i7cl/exe/qcprog.exe_s
PARALLEL:    -DPARALLEL
QCMPI:       mpich
#
# qchem directory setting
#
qcrun:       qchem3168651
QCSCRATCH:   .
QCLOCALSCR:  
QCTMPDIR:    .
QCFILEPREF:  ./qchem3168651
QCSAVEDIR:   
workdirs:    ./qchem3168651
workdir0:    ./qchem3168651
partmpdirs =  
#
# parallel setting
#
QCRSH:           ssh
QCMPI:           mpich
QCMPIRUN:        /cm/shared/apps/spack/cpu/opt/spack/linux-centos8-zen2/gcc-10.2.0/qchem-5.4-akfmr7b3t57bfs6qan3padb2wnb2i7cl/bin/mpi/mpirun_qchem
QCMACHINEFILE:   ./qchem3168651/hostfile
exp-1-56

#
# env setting
#
exported envs:   QC QCAUX QCSCRATCH QCRUNNAME QCFILEPREF QCPROG QCPROG_S GUIFILE

Running Job 1 of 1 Dimethyl_Naphthalene_Dicarboximide_Phi_20_Theta_130_Thiophene.qcin
qchem Dimethyl_Naphthalene_Dicarboximide_Phi_20_Theta_130_Thiophene.qcin_3168651.0 ./qchem3168651/ 1
/cm/shared/apps/spack/cpu/opt/spack/linux-centos8-zen2/gcc-10.2.0/qchem-5.4-akfmr7b3t57bfs6qan3padb2wnb2i7cl/bin/mpi/mpirun_qchem -machinefile ./qchem3168651/hostfile -np 1 /cm/shared/apps/spack/cpu/opt/spack/linux-centos8-zen2/gcc-10.2.0/qchem-5.4-akfmr7b3t57bfs6qan3padb2wnb2i7cl/exe/qcprog.exe Dimethyl_Naphthalene_Dicarboximide_Phi_20_Theta_130_Thiophene.qcin_3168651.0 ./qchem3168651/

Process 0 of 1 is on exp-1-56 - thread support 0
initial socket setup ...start
initial socket setup ...done 
now start server 0 ... 
                  Welcome to Q-Chem
     A Quantum Leap Into The Future Of Chemistry


 Q-Chem 5.4, Q-Chem, Inc., Pleasanton, CA (2021)

 License issued to: University of California, San Diego (site)

 E. Epifanovsky,  A. T. B. Gilbert,  Xintian Feng,  Joonho Lee,  Yuezhi Mao,  
 N. Mardirossian,  P. Pokhilko,  A. White,  M. Wormit,  M. P. Coons,  
 A. L. Dempwolff,  Zhengting Gan,  D. Hait,  P. R. Horn,  L. D. Jacobson,  
 I. Kaliman,  J. Kussmann,  A. W. Lange,  Ka Un Lao,  D. S. Levine,  Jie Liu,  
 S. C. McKenzie,  A. F. Morrison,  K. Nanda,  F. Plasser,  D. R. Rehn,  
 M. L. Vidal,  Zhi-Qiang You,  Ying Zhu,  B. Alam,  B. Albrecht,  
 A. Aldossary,  E. Alguire,  J. H. Andersen,  D. Barton,  K. Begam,  A. Behn,  
 Y. A. Bernard,  E. J. Berquist,  H. Burton,  A. Carreras,  K. Carter-Fenk,  
 R. Chakraborty,  A. D. Chien,  K. D. Closser,  V. Cofer-Shabica,  
 S. Dasgupta,  Jia Deng,  M. de Wergifosse,  M. Diedenhofen,  Hainam Do,  
 S. Ehlert,  Po-Tung Fang,  S. Fatehi,  Qingguo Feng,  J. Gayvert,  
 Qinghui Ge,  G. Gidofalvi,  M. Goldey,  J. Gomes,  C. Gonzalez-Espinoza,  
 S. Gulania,  A. Gunina,  M. W. D. Hanson-Heine,  P. H. P. Harbach,  
 A. W. Hauser,  M. F. Herbst,  M. Hernandez Vera,  M. Hodecker,  
 Z. C. Holden,  S. Houck,  Xunkun Huang,  Kerwin Hui,  B. C. Huynh,  
 M. Ivanov,  Hyunjun Ji,  Hanjie Jiang,  B. Kaduk,  S. Kaehler,  
 K. Khistyaev,  Jaehoon Kim,  P. Klunzinger,  Z. Koczor-Benda,  
 Joong Hoon Koh,  D. Kosenkov,  L. Koulias,  T. Kowalczyk,  C. M. Krauter,  
 K. Kue,  A. Kunitsa,  T. Kus,  A. Landau,  K. V. Lawler,  D. Lefrancois,  
 S. Lehtola,  Rain Li,  Yi-Pei Li,  Jiashu Liang,  M. Liebenthal,  
 Hung-Hsuan Lin,  You-Sheng Lin,  Fenglai Liu,  Kuan-Yu Liu,  
 M. Loipersberger,  A. Luenser,  A. Manjanath,  P. Manohar,  E. Mansoor,  
 S. F. Manzer,  Shan-Ping Mao,  A. V. Marenich,  T. Markovich,  S. Mason,  
 S. A. Maurer,  P. F. McLaughlin,  M. F. S. J. Menger,  J.-M. Mewes,  
 S. A. Mewes,  P. Morgante,  J. W. Mullinax,  T. S. Nguyen-Beck,  
 K. J. Oosterbaan,  G. Paran,  Alexander C. Paul,  Suranjan K. Paul,  
 F. Pavosevic,  Zheng Pei,  S. Prager,  E. I. Proynov,  E. Ramos,  B. Rana,  
 A. E. Rask,  A. Rettig,  R. M. Richard,  F. Rob,  E. Rossomme,  T. Scheele,  
 M. Scheurer,  M. Schneider,  N. Sergueev,  S. M. Sharada,  W. Skomorowski,  
 D. W. Small,  C. J. Stein,  Yu-Chuan Su,  E. J. Sundstrom,  Zhen Tao,  
 J. Thirman,  T. Tsuchimochi,  N. M. Tubman,  S. P. Veccham,  O. Vydrov,  
 J. Wenzel,  J. Witte,  A. Yamada,  Kun Yao,  S. Yeganeh,  S. R. Yost,  
 A. Zech,  Igor Ying Zhang,  Xing Zhang,  Yu Zhang,  D. Zuev,  
 A. Aspuru-Guzik,  A. T. Bell,  N. A. Besley,  K. B. Bravaya,  B. R. Brooks,  
 D. Casanova,  Jeng-Da Chai,  S. Coriani,  C. J. Cramer,  
 A. E. DePrince, III,  R. A. DiStasio Jr.,  A. Dreuw,  B. D. Dunietz,  
 T. R. Furlani,  W. A. Goddard III,  S. Grimme,  S. Hammes-Schiffer,  
 T. Head-Gordon,  W. J. Hehre,  Chao-Ping Hsu,  T.-C. Jagau,  Yousung Jung,  
 A. Klamt,  Jing Kong,  D. S. Lambrecht,  WanZhen Liang,  N. J. Mayhall,  
 C. W. McCurdy,  J. B. Neaton,  C. Ochsenfeld,  J. A. Parkhill,  R. Peverati,  
 V. A. Rassolov,  Yihan Shao,  L. V. Slipchenko,  T. Stauch,  R. P. Steele,  
 J. E. Subotnik,  A. J. W. Thom,  A. Tkatchenko,  D. G. Truhlar,  
 T. Van Voorhis,  T. A. Wesolowski,  K. B. Whaley,  H. L. Woodcock III,  
 P. M. Zimmerman,  S. Faraji,  P. M. W. Gill,  M. Head-Gordon,  
 J. M. Herbert,  A. I. Krylov

 Contributors to earlier versions of Q-Chem not listed above: 
 R. D. Adamson,  B. Austin,  R. Baer,  J. Baker,  G. J. O. Beran,  
 K. Brandhorst,  S. T. Brown,  E. F. C. Byrd,  A. K. Chakraborty,  
 G. K. L. Chan,  Chun-Min Chang,  Yunqing Chen,  C.-L. Cheng,  
 Siu Hung Chien,  D. M. Chipman,  D. L. Crittenden,  H. Dachsel,  
 R. J. Doerksen,  A. D. Dutoi,  R. G. Edgar,  J. Fosso-Tande,  
 L. Fusti-Molnar,  D. Ghosh,  A. Ghysels,  A. Golubeva-Zadorozhnaya,  
 J. Gonthier,  M. S. Gordon,  S. R. Gwaltney,  G. Hawkins,  J. E. Herr,  
 A. Heyden,  S. Hirata,  E. G. Hohenstein,  G. Kedziora,  F. J. Keil,  
 C. Kelley,  Jihan Kim,  R. A. King,  R. Z. Khaliullin,  P. P. Korambath,  
 W. Kurlancheek,  A. Laurent,  A. M. Lee,  M. S. Lee,  S. V. Levchenko,  
 Ching Yeh Lin,  D. Liotard,  E. Livshits,  R. C. Lochan,  I. Lotan,  
 L. A. Martinez-Martinez,  P. E. Maslen,  N. Nair,  D. P. O'Neill,  
 D. Neuhauser,  E. Neuscamman,  C. M. Oana,  R. Olivares-Amaya,  R. Olson,  
 T. M. Perrine,  B. Peters,  P. A. Pieniazek,  A. Prociuk,  Y. M. Rhee,  
 J. Ritchie,  M. A. Rohrdanz,  E. Rosta,  N. J. Russ,  H. F. Schaefer III,  
 M. W. Schmidt,  N. E. Schultz,  S. Sharma,  N. Shenvi,  C. D. Sherrill,  
 A. C. Simmonett,  A. Sodt,  T. Stein,  D. Stuck,  K. S. Thanthiriwatte,  
 V. Vanovschi,  L. Vogt,  Tao Wang,  A. Warshel,  M. A. Watson,  
 C. F. Williams,  Q. Wu,  X. Xu,  Jun Yang,  W. Zhang,  Yan Zhao

 Please cite Q-Chem as follows:
 Y. Shao et al., Mol. Phys. 113, 184-215 (2015)
 DOI: 10.1080/00268976.2014.952696

 Q-Chem 5.4.0 for Intel X86 EM64T Linux

 Parts of Q-Chem use Armadillo 9.800.1 (Horizon Scraper).
 http://arma.sourceforge.net/

 Q-Chem begins on Fri Dec 15 14:28:34 2023  

 Host: 
0

     Scratch files written to ./qchem3168651//
 May1621 |scratch|qcdevops|jenkins|workspace|build_RNUM    
 Parallel job on  1  processors
 Processing $rem in /cm/shared/apps/spack/cpu/opt/spack/linux-centos8-zen2/gcc-10.2.0/qchem-5.4-akfmr7b3t57bfs6qan3padb2wnb2i7cl/config/preferences:
 Processing $rem in /home/rramji/.qchemrc:
 Symmetry turned off for PCM/SM12/SMD calculation
 Core orbitals will be frozen

 Checking the input file for inconsistencies... 	...done.

 Q-Chem warning in module forms1/BasisType.C, line 2236:

 You are not using the predefined 5D/6D in this basis set.


--------------------------------------------------------------
User input:
--------------------------------------------------------------
$molecule
0 1
C	0.197767	-6.741404	0.164018
C	1.198109	-6.155638	1.003240
C	-0.632428	-5.791452	-0.533192
C	1.411364	-4.803786	1.182482
H	1.870845	-6.821518	1.567483
C	-0.409419	-4.378638	-0.345145
C	0.609565	-3.838032	0.510347
C	-1.210332	-3.413062	-1.016449
C	0.830799	-2.426473	0.696879
C	-0.999856	-2.059348	-0.839039
C	-0.000000	-1.478216	-0.000000
H	-1.673483	-1.394783	-1.403737
C	-1.736282	-6.187987	-1.461835
C	-2.306183	-3.798164	-1.936119
N	-2.491597	-5.170003	-2.093916
C	2.510310	-4.424987	2.104529
C	1.936153	-2.036627	1.625377
N	2.691451	-3.049156	2.257873
O	-2.034222	-7.353131	-1.715561
O	-3.014044	-2.986854	-2.528858
O	3.209622	-5.248946	2.690385
O	2.251529	-0.878829	1.891876
C	-3.573032	-5.563799	-3.002711
H	-3.606932	-6.664085	-3.032655
H	-3.382888	-5.147101	-4.010326
H	-4.533125	-5.148785	-2.640711
C	3.756832	-2.587487	3.152408
H	4.249778	-3.483329	3.564653
H	3.328759	-1.964972	3.960905
H	4.477709	-1.962932	2.591422
H	0.055524	-7.822318	0.044245
C	0.000000	0.000000	0.000000
S	0.271091	0.745405	1.580530
C	0.831198	2.284363	0.904911
C	0.341175	0.937861	-0.985400
C	0.792631	2.178516	-0.493528
H	0.260601	0.716417	-2.059934
H	1.093860	3.006347	-1.152593
H	1.132330	3.111961	1.556025
$end

$rem
JOBTYPE		SP
EXCHANGE	HF
CORRELATION	pRIMP2
BASIS		cc-pvtz
METHOD		rimp2
AUX_BASIS	rimp2-cc-pvtz
SOLVENT_METHOD	PCM
PURECART	11111
SYMMETRY	false
MEM_TOTAL	110000
SCF_CONVERGENCE = 6
THRESH=10
GUI = 2
$end



$solvent
dielectric 4.90
$end
--------------------------------------------------------------
 ----------------------------------------------------------------
             Standard Nuclear Orientation (Angstroms)
    I     Atom           X                Y                Z
 ----------------------------------------------------------------
    1      C       0.1977670000    -6.7414040000     0.1640180000
    2      C       1.1981090000    -6.1556380000     1.0032400000
    3      C      -0.6324280000    -5.7914520000    -0.5331920000
    4      C       1.4113640000    -4.8037860000     1.1824820000
    5      H       1.8708450000    -6.8215180000     1.5674830000
    6      C      -0.4094190000    -4.3786380000    -0.3451450000
    7      C       0.6095650000    -3.8380320000     0.5103470000
    8      C      -1.2103320000    -3.4130620000    -1.0164490000
    9      C       0.8307990000    -2.4264730000     0.6968790000
   10      C      -0.9998560000    -2.0593480000    -0.8390390000
   11      C       0.0000000000    -1.4782160000     0.0000000000
   12      H      -1.6734830000    -1.3947830000    -1.4037370000
   13      C      -1.7362820000    -6.1879870000    -1.4618350000
   14      C      -2.3061830000    -3.7981640000    -1.9361190000
   15      N      -2.4915970000    -5.1700030000    -2.0939160000
   16      C       2.5103100000    -4.4249870000     2.1045290000
   17      C       1.9361530000    -2.0366270000     1.6253770000
   18      N       2.6914510000    -3.0491560000     2.2578730000
   19      O      -2.0342220000    -7.3531310000    -1.7155610000
   20      O      -3.0140440000    -2.9868540000    -2.5288580000
   21      O       3.2096220000    -5.2489460000     2.6903850000
   22      O       2.2515290000    -0.8788290000     1.8918760000
   23      C      -3.5730320000    -5.5637990000    -3.0027110000
   24      H      -3.6069320000    -6.6640850000    -3.0326550000
   25      H      -3.3828880000    -5.1471010000    -4.0103260000
   26      H      -4.5331250000    -5.1487850000    -2.6407110000
   27      C       3.7568320000    -2.5874870000     3.1524080000
   28      H       4.2497780000    -3.4833290000     3.5646530000
   29      H       3.3287590000    -1.9649720000     3.9609050000
   30      H       4.4777090000    -1.9629320000     2.5914220000
   31      H       0.0555240000    -7.8223180000     0.0442450000
   32      C       0.0000000000     0.0000000000     0.0000000000
   33      S       0.2710910000     0.7454050000     1.5805300000
   34      C       0.8311980000     2.2843630000     0.9049110000
   35      C       0.3411750000     0.9378610000    -0.9854000000
   36      C       0.7926310000     2.1785160000    -0.4935280000
   37      H       0.2606010000     0.7164170000    -2.0599340000
   38      H       1.0938600000     3.0063470000    -1.1525930000
   39      H       1.1323300000     3.1119610000     1.5560250000
 ----------------------------------------------------------------
 Nuclear Repulsion Energy =        2510.30532336 hartrees
 There are       97 alpha and       97 beta electrons
 Requested basis set is cc-pVTZ
 There are 344 shells and 982 basis functions

 Total QAlloc Memory Limit 110000 MB
 Mega-Array Size       188 MB
 MEM_STATIC part       192 MB
 Discretize the solute cavity surface with Lebedev spheres
	Using 110 Lebedev grid points for each H atom
	Using 194 Lebedev grid points for other atoms
	Atomic van der Waals radii will be scaled by 1.20
 Remove points where switching function is < 1.0e-08
 Keep 2522 surface tesserae and discard 4036 interior tesserae
 Molecular Surface Area = 363.961 Angst**2
 Requested basis set is rimp2-cc-pVTZ
 There are 750 shells and 2588 basis functions
 A cutoff of  1.0D-10 yielded  31830 shell pairs
 There are    245190 function pairs (    318692 Cartesian)
 Smallest overlap matrix eigenvalue = 9.69E-06

 Q-Chem warning in module stvman/mkSTV.C, line 323:

 Overlap eigenvalue is smaller than square root of threshold
 Use THRESH >= 12 to get rid of this warning


 Scale SEOQF with 1.000000e-01/1.000000e-02/1.000000e-01

 Standard Electronic Orientation quadrupole field applied
 Nucleus-field energy     =    -0.0000000129 hartrees
 Guess from superposition of atomic densities
 Warning:  Energy on first SCF cycle will be non-variational
 SAD guess density has 194.000000 electrons

 -----------------------------------------------------------------------
  General SCF calculation program by
  Eric Jon Sundstrom, Paul Horn, Yuezhi Mao, Dmitri Zuev, Alec White,
  David Stuck, Shaama M.S., Shane Yost, Joonho Lee, David Small,
  Daniel Levine, Susi Lehtola, Hugh Burton, Evgeny Epifanovsky,
  Bang C. Huynh
 -----------------------------------------------------------------------
 Hartree-Fock
 using 64 threads for integral computing
 -------------------------------------------------------
 OpenMP Integral computing Module                
 Release: version 1.0, May 2013, Q-Chem Inc. Pittsburgh 
 -------------------------------------------------------
 A restricted SCF calculation will be
 performed using DIIS
 SCF converges when DIIS error is below 1.0e-06
 ---------------------------------------
  Cycle       Energy         DIIS error
 ---------------------------------------
    1   -1581.3305640731      1.87e-02  
    2   -1570.0960466786      2.09e-03  
    3   -1570.4206171013      1.63e-03  
    4   -1570.6523776866      2.57e-04  
    5   -1570.6644427632      7.59e-05  
    6   -1570.6654938625      2.76e-05  
    7   -1570.6657335148      1.42e-05  
    8   -1570.6658095987      5.90e-06  
    9   -1570.6658220046      2.36e-06  
   10   -1570.6658242802      7.95e-07  Convergence criterion met
 ---------------------------------------
 SCF time:   CPU 5712.24s  wall 214.00s 

************** Final PCM Free Energy Summary **************
 G_electrostatic  =      -0.02336317 hartree =     -14.66060866 kcal/mol
 G_cavitation     =       0.00000000 hartree =       0.00000000 kcal/mol
 G_dispersion     =       0.00000000 hartree =       0.00000000 kcal/mol
 G_repulsion      =       0.00000000 hartree =       0.00000000 kcal/mol
 --------------------------------------------------
 Non-electrostatic Free Energy =       0.00000000 hartree =       0.00000000 kcal/mol
 Total                         =      -0.02336317 hartree =     -14.66060866 kcal/mol
 --------------------------------------------------
 SCF Energy (H0 + V/2)                       =   -1570.66582428 
 Solute Internal Energy (H0)                 =   -1570.64246111 
 Total Free Energy (H0 + V/2 + non-elec)     =   -1570.66582428 hartree
                                             = -985607.68051182 kcal/mol
***********************************************************

 SCF   energy in the final basis set =    -1570.6658242802
 Total energy in the final basis set =    -1570.6658242802


 --------------------------------------------------------------
  Generalized many-body perturbation theory program
  by Joonho Lee, Fazle Rob, Xintian Feng, Evgeny Epifanovsky

 No regularization used 
 (reg. param. = 0.0000e+00)
  (P|Q)^-1/2 Time:  CPU 130.58 s  wall 2.78 s

 In RI-MP2 calculation: 
 # of frozen core orbitals: 31

 Components of the RIMP2 correlation energy:
        aaaa    correlation energy =        -0.6183897784 a.u.
        abab    correlation energy =        -3.3964351459 a.u.
        bbbb    correlation energy =        -0.6183897784 a.u.
        non-Brillouin singles      =        -0.0000000000 a.u.
        total same-spin energy     =        -1.2367795567 a.u.
        total opposite-spin energy =        -3.3964351459 a.u.

 Total  RIMP2   correlation energy =        -4.6332147026 a.u.
        RIMP2         total energy =     -1575.2990389828 a.u.

 RI-MP2 Energy Time:  CPU 2277.61 s  wall 39.20 s
 
 --------------------------------------------------------------
 
                    Orbital Energies (a.u.)
 --------------------------------------------------------------
 
 Alpha MOs
 -- Occupied --
-91.9819 -20.5586 -20.5563 -20.5542 -20.5512 -15.6312 -15.6299 -11.4001
-11.3949 -11.3918 -11.3905 -11.3165 -11.3033 -11.3025 -11.3007 -11.2973
-11.2967 -11.2859 -11.2852 -11.2852 -11.2840 -11.2799 -11.2766 -11.2646
-11.2643 -11.2602 -11.2455  -8.9818  -6.6624  -6.6618  -6.6615  -1.4249
 -1.4238  -1.4042  -1.4030  -1.2673  -1.2649  -1.2170  -1.1729  -1.1431
 -1.1169  -1.0619  -1.0494  -0.9927  -0.9880  -0.9812  -0.9589  -0.9478
 -0.8962  -0.8795  -0.8764  -0.8615  -0.7932  -0.7767  -0.7738  -0.7594
 -0.7335  -0.7190  -0.7040  -0.6938  -0.6822  -0.6730  -0.6661  -0.6619
 -0.6566  -0.6415  -0.6372  -0.6348  -0.6289  -0.6127  -0.5846  -0.5832
 -0.5776  -0.5706  -0.5665  -0.5652  -0.5638  -0.5553  -0.5536  -0.5483
 -0.5356  -0.5251  -0.5209  -0.5119  -0.4823  -0.4705  -0.4639  -0.4585
 -0.4573  -0.4484  -0.4272  -0.4178  -0.4088  -0.3647  -0.3359  -0.3335
 -0.3086
 -- Virtual --
 -0.0200   0.0601   0.0711   0.1002   0.1239   0.1546   0.1579   0.1599
  0.1660   0.1684   0.1784   0.1824   0.1851   0.1911   0.2034   0.2072
  0.2187   0.2249   0.2277   0.2309   0.2360   0.2436   0.2582   0.2618
  0.2651   0.3034   0.3076   0.3132   0.3182   0.3234   0.3280   0.3332
  0.3423   0.3481   0.3517   0.3565   0.3587   0.3609   0.3674   0.3743
  0.3800   0.3823   0.3845   0.3971   0.3993   0.4042   0.4061   0.4115
  0.4184   0.4284   0.4311   0.4362   0.4411   0.4463   0.4488   0.4541
  0.4570   0.4572   0.4605   0.4744   0.4768   0.4857   0.4877   0.4973
  0.5053   0.5081   0.5124   0.5180   0.5222   0.5246   0.5254   0.5322
  0.5340   0.5381   0.5432   0.5498   0.5519   0.5565   0.5575   0.5666
  0.5697   0.5755   0.5834   0.5842   0.5895   0.5933   0.5962   0.6019
  0.6072   0.6123   0.6154   0.6158   0.6188   0.6233   0.6266   0.6313
  0.6337   0.6348   0.6364   0.6387   0.6417   0.6487   0.6518   0.6694
  0.6750   0.6839   0.6887   0.6959   0.7018   0.7042   0.7099   0.7166
  0.7222   0.7338   0.7358   0.7405   0.7424   0.7569   0.7595   0.7643
  0.7688   0.7800   0.7828   0.7950   0.8031   0.8061   0.8134   0.8159
  0.8237   0.8266   0.8293   0.8395   0.8425   0.8475   0.8513   0.8591
  0.8635   0.8658   0.8685   0.8752   0.8763   0.8883   0.9016   0.9069
  0.9128   0.9205   0.9242   0.9255   0.9305   0.9348   0.9414   0.9429
  0.9499   0.9570   0.9613   0.9686   0.9719   0.9786   0.9823   0.9887
  0.9903   0.9930   1.0002   1.0098   1.0114   1.0195   1.0287   1.0310
  1.0353   1.0395   1.0483   1.0517   1.0589   1.0678   1.0708   1.0722
  1.0792   1.0830   1.0846   1.0872   1.0962   1.0986   1.1057   1.1154
  1.1277   1.1302   1.1353   1.1385   1.1428   1.1470   1.1532   1.1557
  1.1626   1.1656   1.1722   1.1748   1.1796   1.1817   1.1911   1.1992
  1.2004   1.2054   1.2131   1.2154   1.2214   1.2282   1.2374   1.2421
  1.2446   1.2495   1.2538   1.2574   1.2680   1.2761   1.2786   1.2963
  1.3143   1.3266   1.3329   1.3380   1.3408   1.3445   1.3482   1.3669
  1.3693   1.3798   1.3816   1.3838   1.3889   1.3953   1.4087   1.4169
  1.4210   1.4221   1.4249   1.4407   1.4452   1.4523   1.4567   1.4617
  1.4788   1.4804   1.4857   1.4946   1.4976   1.5054   1.5092   1.5167
  1.5224   1.5311   1.5331   1.5478   1.5491   1.5532   1.5627   1.5637
  1.5690   1.5736   1.5818   1.5879   1.5965   1.6020   1.6077   1.6298
  1.6444   1.6478   1.6506   1.6601   1.6679   1.6713   1.6774   1.6858
  1.6920   1.7059   1.7155   1.7199   1.7297   1.7379   1.7428   1.7470
  1.7510   1.7633   1.7652   1.7713   1.7881   1.7930   1.8056   1.8103
  1.8163   1.8219   1.8330   1.8455   1.8521   1.8547   1.8600   1.8654
  1.8722   1.8792   1.8967   1.9111   1.9147   1.9301   1.9396   1.9500
  1.9718   1.9725   1.9791   1.9857   1.9942   2.0095   2.0278   2.0319
  2.0475   2.0496   2.0627   2.0819   2.1075   2.1142   2.1311   2.1366
  2.1416   2.1504   2.1680   2.1779   2.1915   2.2115   2.2198   2.2361
  2.2437   2.2478   2.2576   2.2779   2.2859   2.2968   2.2993   2.3098
  2.3108   2.3297   2.3298   2.3356   2.3565   2.3616   2.3766   2.3986
  2.4033   2.4283   2.4404   2.4423   2.4514   2.4564   2.4674   2.4730
  2.4750   2.4810   2.4959   2.5021   2.5035   2.5144   2.5345   2.5391
  2.5468   2.5580   2.5759   2.5878   2.5928   2.5987   2.6064   2.6096
  2.6140   2.6242   2.6325   2.6441   2.6526   2.6631   2.6678   2.6726
  2.6751   2.6899   2.6951   2.7027   2.7152   2.7182   2.7209   2.7354
  2.7371   2.7416   2.7502   2.7518   2.7557   2.7695   2.7789   2.7903
  2.8034   2.8133   2.8255   2.8324   2.8451   2.8478   2.8519   2.8580
  2.8674   2.8697   2.8709   2.8806   2.8873   2.8922   2.9008   2.9060
  2.9116   2.9243   2.9294   2.9345   2.9408   2.9500   2.9581   2.9633
  2.9726   2.9785   2.9924   2.9991   3.0010   3.0033   3.0100   3.0150
  3.0311   3.0361   3.0408   3.0450   3.0517   3.0587   3.0646   3.0765
  3.0873   3.0918   3.1000   3.1026   3.1106   3.1144   3.1203   3.1256
  3.1326   3.1390   3.1421   3.1516   3.1586   3.1653   3.1723   3.1816
  3.1857   3.1976   3.2061   3.2078   3.2091   3.2120   3.2176   3.2232
  3.2283   3.2294   3.2381   3.2425   3.2490   3.2550   3.2612   3.2626
  3.2695   3.2771   3.2807   3.2855   3.2892   3.2939   3.2979   3.3031
  3.3082   3.3095   3.3172   3.3209   3.3272   3.3311   3.3363   3.3390
  3.3421   3.3445   3.3493   3.3565   3.3600   3.3659   3.3675   3.3733
  3.3743   3.3813   3.3867   3.3927   3.4004   3.4023   3.4091   3.4149
  3.4242   3.4282   3.4298   3.4383   3.4425   3.4516   3.4531   3.4552
  3.4583   3.4647   3.4658   3.4752   3.4799   3.4835   3.4922   3.4980
  3.4987   3.4999   3.5029   3.5079   3.5104   3.5147   3.5188   3.5225
  3.5259   3.5365   3.5418   3.5509   3.5523   3.5614   3.5702   3.5791
  3.5852   3.5928   3.5981   3.6000   3.6104   3.6175   3.6273   3.6297
  3.6329   3.6389   3.6432   3.6477   3.6499   3.6558   3.6723   3.6756
  3.6796   3.6874   3.6960   3.7018   3.7095   3.7113   3.7177   3.7251
  3.7269   3.7290   3.7369   3.7401   3.7499   3.7568   3.7602   3.7652
  3.7744   3.7801   3.7839   3.7869   3.7935   3.7946   3.8020   3.8032
  3.8160   3.8219   3.8282   3.8370   3.8402   3.8450   3.8525   3.8564
  3.8600   3.8624   3.8804   3.8834   3.8928   3.9032   3.9073   3.9227
  3.9266   3.9322   3.9348   3.9449   3.9539   3.9550   3.9678   3.9727
  3.9774   3.9922   4.0039   4.0065   4.0141   4.0202   4.0270   4.0411
  4.0473   4.0596   4.0666   4.0710   4.0837   4.0954   4.0980   4.1045
  4.1229   4.1283   4.1366   4.1502   4.1526   4.1553   4.1619   4.1756
  4.1840   4.1871   4.1908   4.2031   4.2082   4.2180   4.2243   4.2363
  4.2436   4.2508   4.2622   4.2670   4.2743   4.2751   4.2827   4.2897
  4.2922   4.2965   4.3016   4.3101   4.3177   4.3215   4.3329   4.3409
  4.3452   4.3511   4.3525   4.3639   4.3677   4.3695   4.3708   4.3790
  4.3939   4.3969   4.4032   4.4106   4.4181   4.4235   4.4318   4.4382
  4.4460   4.4616   4.4712   4.4802   4.4831   4.4984   4.5177   4.5209
  4.5220   4.5266   4.5350   4.5415   4.5451   4.5538   4.5644   4.5712
  4.5754   4.5820   4.5843   4.5865   4.6081   4.6113   4.6307   4.6359
  4.6449   4.6527   4.6565   4.6699   4.6739   4.6769   4.6893   4.7029
  4.7143   4.7164   4.7352   4.7428   4.7553   4.7698   4.7839   4.7906
  4.8068   4.8215   4.8323   4.8404   4.8448   4.8567   4.8717   4.8756
  4.8887   4.9002   4.9104   4.9264   4.9340   4.9584   4.9687   4.9701
  4.9871   5.0126   5.0271   5.0382   5.0426   5.0471   5.0512   5.0537
  5.0894   5.0959   5.1049   5.1084   5.1208   5.1274   5.1436   5.1451
  5.1666   5.1700   5.1840   5.1890   5.1942   5.2288   5.2377   5.2563
  5.2595   5.2779   5.2803   5.2883   5.3217   5.3303   5.3346   5.3439
  5.3499   5.3856   5.3963   5.4033   5.4179   5.4307   5.4394   5.4552
  5.4908   5.5047   5.5067   5.5087   5.5135   5.5267   5.5481   5.5563
  5.5594   5.5603   5.5740   5.5764   5.5777   5.5901   5.6039   5.6079
  5.6222   5.6347   5.6496   5.6526   5.6554   5.6747   5.6767   5.6938
  5.7023   5.7102   5.7220   5.7391   5.7546   5.7583   5.7604   5.7712
  5.7739   5.7772   5.8092   5.8224   5.8501   5.8826   5.9115   5.9231
  5.9452   5.9696   6.0041   6.0105   6.0214   6.0245   6.0383   6.0492
  6.0774   6.1004   6.1083   6.1161   6.1317   6.1625   6.1937   6.2098
  6.2177   6.2187   6.2224   6.2606   6.2664   6.2727   6.3039   6.3427
  6.3512   6.3737   6.4365   6.4452   6.4650   6.5252   6.5621   6.5711
  6.5868   6.6023   6.6320   6.6441   6.6485   6.6599   6.7044   6.8309
  6.8349   6.8798   6.8860   6.8971   6.9114   6.9260   6.9709   7.0781
  7.1060   7.1391   7.1855   7.1907   7.2280   7.3323   7.3417   7.3443
  7.3578   7.4667   7.5447   7.5576   7.5731   7.5783   7.6065   7.6336
  7.6718   7.6868   7.7226   8.3486   9.8708  10.3023  11.1093  11.2403
 11.6596  11.7198  11.9564  12.3612  12.4395  12.7948  12.8367  12.9353
 13.2557  13.5742  13.8133  13.9428  14.0532  14.0946  14.2247  14.3449
 14.4108  14.7288  15.3283  15.7142  15.9737
 --------------------------------------------------------------
 
          Ground-State Mulliken Net Atomic Charges

     Atom                 Charge (a.u.)
  ----------------------------------------
      1 C                    -0.137145
      2 C                    -0.108298
      3 C                    -0.039492
      4 C                    -0.003707
      5 H                     0.188525
      6 C                    -0.008508
      7 C                     0.076088
      8 C                     0.011210
      9 C                    -0.043252
     10 C                    -0.158231
     11 C                     0.093136
     12 H                     0.181831
     13 C                     0.361080
     14 C                     0.367050
     15 N                    -0.101379
     16 C                     0.358621
     17 C                     0.393096
     18 N                    -0.095744
     19 O                    -0.464645
     20 O                    -0.476420
     21 O                    -0.481718
     22 O                    -0.459890
     23 C                    -0.200976
     24 H                     0.141073
     25 H                     0.112171
     26 H                     0.112434
     27 C                    -0.196135
     28 H                     0.133808
     29 H                     0.112557
     30 H                     0.112677
     31 H                     0.213652
     32 C                    -0.072030
     33 S                     0.058957
     34 C                    -0.187292
     35 C                    -0.163031
     36 C                    -0.222926
     37 H                     0.193085
     38 H                     0.189539
     39 H                     0.210230
  ----------------------------------------
  Sum of atomic charges =     0.000000

 -----------------------------------------------------------------
                    Cartesian Multipole Moments
 -----------------------------------------------------------------
    Charge (ESU x 10^10)
                 0.0000
    Dipole Moment (Debye)
         X       1.1105      Y       1.1470      Z      -0.5210
       Tot       1.6794
    Quadrupole Moments (Debye-Ang)
        XX    -174.7467     XY       3.5727     YY    -168.3775
        XZ      -9.0206     YZ       0.4515     ZZ    -165.4041
    Octopole Moments (Debye-Ang^2)
       XXX     -91.6020    XXY     520.3754    XYY     -12.1376
       YYY    1598.8333    XXZ     -28.6918    XYZ      44.4315
       YYZ     -16.3433    XZZ     -25.6775    YZZ     514.6562
       ZZZ     -85.7740
    Hexadecapole Moments (Debye-Ang^3)
      XXXX   -3705.6451   XXXY    -191.5665   XXYY   -3592.7702
      XYYY    -639.8380   YYYY  -17161.2666   XXXZ   -1508.5104
      XXYZ      48.9751   XYYZ    -765.6613   YYYZ    -536.8232
      XXZZ   -1144.9938   XYZZ      10.5172   YYZZ   -3340.2865
      XZZZ   -1476.3254   YZZZ    -174.6537   ZZZZ   -2862.5730
 -----------------------------------------------------------------
 Total job time:  260.48s(wall), 8091.09s(cpu) 
 Fri Dec 15 14:32:54 2023

        *************************************************************
        *                                                           *
        *  Thank you very much for using Q-Chem.  Have a nice day.  *
        *                                                           *
        *************************************************************


0 sent ACK to 0 
now end server 0 ... 
cleanup process ... done
remove work dirs ./qchem3168651.0 -- ./qchem3168651.0
rm -rf ./qchem3168651.0
rm -rf ./qchem3168651
