You are running Q-Chem version: 5.4.0

#
# job setting
#
local host:  exp-5-28
current dir: /home/rramji/project-csd799/aromodel/pndit-qchem/rotation_run
input file:  Dimethyl_Naphthalene_Dicarboximide_Phi_60_Theta_130_Thiophene.qcin
output file: 
nprocs     : 1
nthreads   : 64
#
# qchem installation setting
#
QC:          /cm/shared/apps/spack/cpu/opt/spack/linux-centos8-zen2/gcc-10.2.0/qchem-5.4-akfmr7b3t57bfs6qan3padb2wnb2i7cl
QCAUX:       /cm/shared/apps/spack/cpu/opt/spack/linux-centos8-zen2/gcc-10.2.0/qchem-5.4-akfmr7b3t57bfs6qan3padb2wnb2i7cl/qcaux
QCPROG:      /cm/shared/apps/spack/cpu/opt/spack/linux-centos8-zen2/gcc-10.2.0/qchem-5.4-akfmr7b3t57bfs6qan3padb2wnb2i7cl/exe/qcprog.exe
QCPROG_S:    /cm/shared/apps/spack/cpu/opt/spack/linux-centos8-zen2/gcc-10.2.0/qchem-5.4-akfmr7b3t57bfs6qan3padb2wnb2i7cl/exe/qcprog.exe_s
PARALLEL:    -DPARALLEL
QCMPI:       mpich
#
# qchem directory setting
#
qcrun:       qchem193901
QCSCRATCH:   .
QCLOCALSCR:  
QCTMPDIR:    .
QCFILEPREF:  ./qchem193901
QCSAVEDIR:   
workdirs:    ./qchem193901
workdir0:    ./qchem193901
partmpdirs =  
#
# parallel setting
#
QCRSH:           ssh
QCMPI:           mpich
QCMPIRUN:        /cm/shared/apps/spack/cpu/opt/spack/linux-centos8-zen2/gcc-10.2.0/qchem-5.4-akfmr7b3t57bfs6qan3padb2wnb2i7cl/bin/mpi/mpirun_qchem
QCMACHINEFILE:   ./qchem193901/hostfile
exp-5-28

#
# env setting
#
exported envs:   QC QCAUX QCSCRATCH QCRUNNAME QCFILEPREF QCPROG QCPROG_S GUIFILE

Running Job 1 of 1 Dimethyl_Naphthalene_Dicarboximide_Phi_60_Theta_130_Thiophene.qcin
qchem Dimethyl_Naphthalene_Dicarboximide_Phi_60_Theta_130_Thiophene.qcin_193901.0 ./qchem193901/ 1
/cm/shared/apps/spack/cpu/opt/spack/linux-centos8-zen2/gcc-10.2.0/qchem-5.4-akfmr7b3t57bfs6qan3padb2wnb2i7cl/bin/mpi/mpirun_qchem -machinefile ./qchem193901/hostfile -np 1 /cm/shared/apps/spack/cpu/opt/spack/linux-centos8-zen2/gcc-10.2.0/qchem-5.4-akfmr7b3t57bfs6qan3padb2wnb2i7cl/exe/qcprog.exe Dimethyl_Naphthalene_Dicarboximide_Phi_60_Theta_130_Thiophene.qcin_193901.0 ./qchem193901/

Process 0 of 1 is on exp-5-28 - thread support 0
initial socket setup ...start
initial socket setup ...done 
now start server 0 ... 
                  Welcome to Q-Chem
     A Quantum Leap Into The Future Of Chemistry


 Q-Chem 5.4, Q-Chem, Inc., Pleasanton, CA (2021)

 License issued to: University of California, San Diego (site)

 E. Epifanovsky,  A. T. B. Gilbert,  Xintian Feng,  Joonho Lee,  Yuezhi Mao,  
 N. Mardirossian,  P. Pokhilko,  A. White,  M. Wormit,  M. P. Coons,  
 A. L. Dempwolff,  Zhengting Gan,  D. Hait,  P. R. Horn,  L. D. Jacobson,  
 I. Kaliman,  J. Kussmann,  A. W. Lange,  Ka Un Lao,  D. S. Levine,  Jie Liu,  
 S. C. McKenzie,  A. F. Morrison,  K. Nanda,  F. Plasser,  D. R. Rehn,  
 M. L. Vidal,  Zhi-Qiang You,  Ying Zhu,  B. Alam,  B. Albrecht,  
 A. Aldossary,  E. Alguire,  J. H. Andersen,  D. Barton,  K. Begam,  A. Behn,  
 Y. A. Bernard,  E. J. Berquist,  H. Burton,  A. Carreras,  K. Carter-Fenk,  
 R. Chakraborty,  A. D. Chien,  K. D. Closser,  V. Cofer-Shabica,  
 S. Dasgupta,  Jia Deng,  M. de Wergifosse,  M. Diedenhofen,  Hainam Do,  
 S. Ehlert,  Po-Tung Fang,  S. Fatehi,  Qingguo Feng,  J. Gayvert,  
 Qinghui Ge,  G. Gidofalvi,  M. Goldey,  J. Gomes,  C. Gonzalez-Espinoza,  
 S. Gulania,  A. Gunina,  M. W. D. Hanson-Heine,  P. H. P. Harbach,  
 A. W. Hauser,  M. F. Herbst,  M. Hernandez Vera,  M. Hodecker,  
 Z. C. Holden,  S. Houck,  Xunkun Huang,  Kerwin Hui,  B. C. Huynh,  
 M. Ivanov,  Hyunjun Ji,  Hanjie Jiang,  B. Kaduk,  S. Kaehler,  
 K. Khistyaev,  Jaehoon Kim,  P. Klunzinger,  Z. Koczor-Benda,  
 Joong Hoon Koh,  D. Kosenkov,  L. Koulias,  T. Kowalczyk,  C. M. Krauter,  
 K. Kue,  A. Kunitsa,  T. Kus,  A. Landau,  K. V. Lawler,  D. Lefrancois,  
 S. Lehtola,  Rain Li,  Yi-Pei Li,  Jiashu Liang,  M. Liebenthal,  
 Hung-Hsuan Lin,  You-Sheng Lin,  Fenglai Liu,  Kuan-Yu Liu,  
 M. Loipersberger,  A. Luenser,  A. Manjanath,  P. Manohar,  E. Mansoor,  
 S. F. Manzer,  Shan-Ping Mao,  A. V. Marenich,  T. Markovich,  S. Mason,  
 S. A. Maurer,  P. F. McLaughlin,  M. F. S. J. Menger,  J.-M. Mewes,  
 S. A. Mewes,  P. Morgante,  J. W. Mullinax,  T. S. Nguyen-Beck,  
 K. J. Oosterbaan,  G. Paran,  Alexander C. Paul,  Suranjan K. Paul,  
 F. Pavosevic,  Zheng Pei,  S. Prager,  E. I. Proynov,  E. Ramos,  B. Rana,  
 A. E. Rask,  A. Rettig,  R. M. Richard,  F. Rob,  E. Rossomme,  T. Scheele,  
 M. Scheurer,  M. Schneider,  N. Sergueev,  S. M. Sharada,  W. Skomorowski,  
 D. W. Small,  C. J. Stein,  Yu-Chuan Su,  E. J. Sundstrom,  Zhen Tao,  
 J. Thirman,  T. Tsuchimochi,  N. M. Tubman,  S. P. Veccham,  O. Vydrov,  
 J. Wenzel,  J. Witte,  A. Yamada,  Kun Yao,  S. Yeganeh,  S. R. Yost,  
 A. Zech,  Igor Ying Zhang,  Xing Zhang,  Yu Zhang,  D. Zuev,  
 A. Aspuru-Guzik,  A. T. Bell,  N. A. Besley,  K. B. Bravaya,  B. R. Brooks,  
 D. Casanova,  Jeng-Da Chai,  S. Coriani,  C. J. Cramer,  
 A. E. DePrince, III,  R. A. DiStasio Jr.,  A. Dreuw,  B. D. Dunietz,  
 T. R. Furlani,  W. A. Goddard III,  S. Grimme,  S. Hammes-Schiffer,  
 T. Head-Gordon,  W. J. Hehre,  Chao-Ping Hsu,  T.-C. Jagau,  Yousung Jung,  
 A. Klamt,  Jing Kong,  D. S. Lambrecht,  WanZhen Liang,  N. J. Mayhall,  
 C. W. McCurdy,  J. B. Neaton,  C. Ochsenfeld,  J. A. Parkhill,  R. Peverati,  
 V. A. Rassolov,  Yihan Shao,  L. V. Slipchenko,  T. Stauch,  R. P. Steele,  
 J. E. Subotnik,  A. J. W. Thom,  A. Tkatchenko,  D. G. Truhlar,  
 T. Van Voorhis,  T. A. Wesolowski,  K. B. Whaley,  H. L. Woodcock III,  
 P. M. Zimmerman,  S. Faraji,  P. M. W. Gill,  M. Head-Gordon,  
 J. M. Herbert,  A. I. Krylov

 Contributors to earlier versions of Q-Chem not listed above: 
 R. D. Adamson,  B. Austin,  R. Baer,  J. Baker,  G. J. O. Beran,  
 K. Brandhorst,  S. T. Brown,  E. F. C. Byrd,  A. K. Chakraborty,  
 G. K. L. Chan,  Chun-Min Chang,  Yunqing Chen,  C.-L. Cheng,  
 Siu Hung Chien,  D. M. Chipman,  D. L. Crittenden,  H. Dachsel,  
 R. J. Doerksen,  A. D. Dutoi,  R. G. Edgar,  J. Fosso-Tande,  
 L. Fusti-Molnar,  D. Ghosh,  A. Ghysels,  A. Golubeva-Zadorozhnaya,  
 J. Gonthier,  M. S. Gordon,  S. R. Gwaltney,  G. Hawkins,  J. E. Herr,  
 A. Heyden,  S. Hirata,  E. G. Hohenstein,  G. Kedziora,  F. J. Keil,  
 C. Kelley,  Jihan Kim,  R. A. King,  R. Z. Khaliullin,  P. P. Korambath,  
 W. Kurlancheek,  A. Laurent,  A. M. Lee,  M. S. Lee,  S. V. Levchenko,  
 Ching Yeh Lin,  D. Liotard,  E. Livshits,  R. C. Lochan,  I. Lotan,  
 L. A. Martinez-Martinez,  P. E. Maslen,  N. Nair,  D. P. O'Neill,  
 D. Neuhauser,  E. Neuscamman,  C. M. Oana,  R. Olivares-Amaya,  R. Olson,  
 T. M. Perrine,  B. Peters,  P. A. Pieniazek,  A. Prociuk,  Y. M. Rhee,  
 J. Ritchie,  M. A. Rohrdanz,  E. Rosta,  N. J. Russ,  H. F. Schaefer III,  
 M. W. Schmidt,  N. E. Schultz,  S. Sharma,  N. Shenvi,  C. D. Sherrill,  
 A. C. Simmonett,  A. Sodt,  T. Stein,  D. Stuck,  K. S. Thanthiriwatte,  
 V. Vanovschi,  L. Vogt,  Tao Wang,  A. Warshel,  M. A. Watson,  
 C. F. Williams,  Q. Wu,  X. Xu,  Jun Yang,  W. Zhang,  Yan Zhao

 Please cite Q-Chem as follows:
 Y. Shao et al., Mol. Phys. 113, 184-215 (2015)
 DOI: 10.1080/00268976.2014.952696

 Q-Chem 5.4.0 for Intel X86 EM64T Linux

 Parts of Q-Chem use Armadillo 9.800.1 (Horizon Scraper).
 http://arma.sourceforge.net/

 Q-Chem begins on Fri Dec 15 14:29:33 2023  

 Host: 
0

     Scratch files written to ./qchem193901//
 May1621 |scratch|qcdevops|jenkins|workspace|build_RNUM    
 Parallel job on  1  processors
 Processing $rem in /cm/shared/apps/spack/cpu/opt/spack/linux-centos8-zen2/gcc-10.2.0/qchem-5.4-akfmr7b3t57bfs6qan3padb2wnb2i7cl/config/preferences:
 Processing $rem in /home/rramji/.qchemrc:
 Symmetry turned off for PCM/SM12/SMD calculation
 Core orbitals will be frozen

 Checking the input file for inconsistencies... 	...done.

 Q-Chem warning in module forms1/BasisType.C, line 2236:

 You are not using the predefined 5D/6D in this basis set.


--------------------------------------------------------------
User input:
--------------------------------------------------------------
$molecule
0 1
C	0.197767	-6.741404	0.164018
C	1.198109	-6.155638	1.003240
C	-0.632428	-5.791452	-0.533192
C	1.411364	-4.803786	1.182482
H	1.870845	-6.821518	1.567483
C	-0.409419	-4.378638	-0.345145
C	0.609565	-3.838032	0.510347
C	-1.210332	-3.413062	-1.016449
C	0.830799	-2.426473	0.696879
C	-0.999856	-2.059348	-0.839039
C	-0.000000	-1.478216	-0.000000
H	-1.673483	-1.394783	-1.403737
C	-1.736282	-6.187987	-1.461835
C	-2.306183	-3.798164	-1.936119
N	-2.491597	-5.170003	-2.093916
C	2.510310	-4.424987	2.104529
C	1.936153	-2.036627	1.625377
N	2.691451	-3.049156	2.257873
O	-2.034222	-7.353131	-1.715561
O	-3.014044	-2.986854	-2.528858
O	3.209622	-5.248946	2.690385
O	2.251529	-0.878829	1.891876
C	-3.573032	-5.563799	-3.002711
H	-3.606932	-6.664085	-3.032655
H	-3.382888	-5.147101	-4.010326
H	-4.533125	-5.148785	-2.640711
C	3.756832	-2.587487	3.152408
H	4.249778	-3.483329	3.564653
H	3.328759	-1.964972	3.960905
H	4.477709	-1.962932	2.591422
H	0.055524	-7.822318	0.044245
C	0.000000	0.000000	0.000000
S	0.686805	0.396760	1.580530
C	2.105095	1.215640	0.904911
C	0.864201	0.499140	-0.985400
C	2.007514	1.159347	-0.493528
H	0.660136	0.381296	-2.059934
H	2.770388	1.599875	-1.152593
H	2.867745	1.656053	1.556025
$end

$rem
JOBTYPE		SP
EXCHANGE	HF
CORRELATION	pRIMP2
BASIS		cc-pvtz
METHOD		rimp2
AUX_BASIS	rimp2-cc-pvtz
SOLVENT_METHOD	PCM
PURECART	11111
SYMMETRY	false
MEM_TOTAL	110000
SCF_CONVERGENCE = 6
THRESH=10
GUI = 2
$end



$solvent
dielectric 4.90
$end
--------------------------------------------------------------
 ----------------------------------------------------------------
             Standard Nuclear Orientation (Angstroms)
    I     Atom           X                Y                Z
 ----------------------------------------------------------------
    1      C       0.1977670000    -6.7414040000     0.1640180000
    2      C       1.1981090000    -6.1556380000     1.0032400000
    3      C      -0.6324280000    -5.7914520000    -0.5331920000
    4      C       1.4113640000    -4.8037860000     1.1824820000
    5      H       1.8708450000    -6.8215180000     1.5674830000
    6      C      -0.4094190000    -4.3786380000    -0.3451450000
    7      C       0.6095650000    -3.8380320000     0.5103470000
    8      C      -1.2103320000    -3.4130620000    -1.0164490000
    9      C       0.8307990000    -2.4264730000     0.6968790000
   10      C      -0.9998560000    -2.0593480000    -0.8390390000
   11      C       0.0000000000    -1.4782160000     0.0000000000
   12      H      -1.6734830000    -1.3947830000    -1.4037370000
   13      C      -1.7362820000    -6.1879870000    -1.4618350000
   14      C      -2.3061830000    -3.7981640000    -1.9361190000
   15      N      -2.4915970000    -5.1700030000    -2.0939160000
   16      C       2.5103100000    -4.4249870000     2.1045290000
   17      C       1.9361530000    -2.0366270000     1.6253770000
   18      N       2.6914510000    -3.0491560000     2.2578730000
   19      O      -2.0342220000    -7.3531310000    -1.7155610000
   20      O      -3.0140440000    -2.9868540000    -2.5288580000
   21      O       3.2096220000    -5.2489460000     2.6903850000
   22      O       2.2515290000    -0.8788290000     1.8918760000
   23      C      -3.5730320000    -5.5637990000    -3.0027110000
   24      H      -3.6069320000    -6.6640850000    -3.0326550000
   25      H      -3.3828880000    -5.1471010000    -4.0103260000
   26      H      -4.5331250000    -5.1487850000    -2.6407110000
   27      C       3.7568320000    -2.5874870000     3.1524080000
   28      H       4.2497780000    -3.4833290000     3.5646530000
   29      H       3.3287590000    -1.9649720000     3.9609050000
   30      H       4.4777090000    -1.9629320000     2.5914220000
   31      H       0.0555240000    -7.8223180000     0.0442450000
   32      C       0.0000000000     0.0000000000     0.0000000000
   33      S       0.6868050000     0.3967600000     1.5805300000
   34      C       2.1050950000     1.2156400000     0.9049110000
   35      C       0.8642010000     0.4991400000    -0.9854000000
   36      C       2.0075140000     1.1593470000    -0.4935280000
   37      H       0.6601360000     0.3812960000    -2.0599340000
   38      H       2.7703880000     1.5998750000    -1.1525930000
   39      H       2.8677450000     1.6560530000     1.5560250000
 ----------------------------------------------------------------
 Nuclear Repulsion Energy =        2565.70565878 hartrees
 There are       97 alpha and       97 beta electrons
 Requested basis set is cc-pVTZ
 There are 344 shells and 982 basis functions

 Total QAlloc Memory Limit 110000 MB
 Mega-Array Size       188 MB
 MEM_STATIC part       192 MB
 Discretize the solute cavity surface with Lebedev spheres
	Using 110 Lebedev grid points for each H atom
	Using 194 Lebedev grid points for other atoms
	Atomic van der Waals radii will be scaled by 1.20
 Remove points where switching function is < 1.0e-08
 Keep 2455 surface tesserae and discard 4103 interior tesserae
 Molecular Surface Area = 353.590 Angst**2
 Requested basis set is rimp2-cc-pVTZ
 There are 750 shells and 2588 basis functions
 A cutoff of  1.0D-10 yielded  32922 shell pairs
 There are    253628 function pairs (    329666 Cartesian)
 Smallest overlap matrix eigenvalue = 9.45E-06

 Q-Chem warning in module stvman/mkSTV.C, line 323:

 Overlap eigenvalue is smaller than square root of threshold
 Use THRESH >= 12 to get rid of this warning


 Scale SEOQF with 1.000000e-01/1.000000e-02/1.000000e-01

 Standard Electronic Orientation quadrupole field applied
 Nucleus-field energy     =    -0.0000000110 hartrees
 Guess from superposition of atomic densities
 Warning:  Energy on first SCF cycle will be non-variational
 SAD guess density has 194.000000 electrons

 -----------------------------------------------------------------------
  General SCF calculation program by
  Eric Jon Sundstrom, Paul Horn, Yuezhi Mao, Dmitri Zuev, Alec White,
  David Stuck, Shaama M.S., Shane Yost, Joonho Lee, David Small,
  Daniel Levine, Susi Lehtola, Hugh Burton, Evgeny Epifanovsky,
  Bang C. Huynh
 -----------------------------------------------------------------------
 Hartree-Fock
 using 64 threads for integral computing
 -------------------------------------------------------
 OpenMP Integral computing Module                
 Release: version 1.0, May 2013, Q-Chem Inc. Pittsburgh 
 -------------------------------------------------------
 A restricted SCF calculation will be
 performed using DIIS
 SCF converges when DIIS error is below 1.0e-06
 ---------------------------------------
  Cycle       Energy         DIIS error
 ---------------------------------------
    1   -1581.6767843677      1.89e-02  
    2   -1569.9740885872      2.06e-03  
    3   -1570.2967548928      1.58e-03  
    4   -1570.5142836154      2.65e-04  
    5   -1570.5270568103      7.99e-05  
    6   -1570.5283181996      3.01e-05  
    7   -1570.5286742896      1.57e-05  
    8   -1570.5288177088      7.78e-06  
    9   -1570.5288568461      3.65e-06  
   10   -1570.5288688495      2.06e-06  
   11   -1570.5288729399      9.56e-07  Convergence criterion met
 ---------------------------------------
 SCF time:   CPU 6503.90s  wall 241.00s 

************** Final PCM Free Energy Summary **************
 G_electrostatic  =      -0.02223156 hartree =     -13.95051139 kcal/mol
 G_cavitation     =       0.00000000 hartree =       0.00000000 kcal/mol
 G_dispersion     =       0.00000000 hartree =       0.00000000 kcal/mol
 G_repulsion      =       0.00000000 hartree =       0.00000000 kcal/mol
 --------------------------------------------------
 Non-electrostatic Free Energy =       0.00000000 hartree =       0.00000000 kcal/mol
 Total                         =      -0.02223156 hartree =     -13.95051139 kcal/mol
 --------------------------------------------------
 SCF Energy (H0 + V/2)                       =   -1570.52887294 
 Solute Internal Energy (H0)                 =   -1570.50664138 
 Total Free Energy (H0 + V/2 + non-elec)     =   -1570.52887294 hartree
                                             = -985521.74224877 kcal/mol
***********************************************************

 SCF   energy in the final basis set =    -1570.5288729399
 Total energy in the final basis set =    -1570.5288729399


 --------------------------------------------------------------
  Generalized many-body perturbation theory program
  by Joonho Lee, Fazle Rob, Xintian Feng, Evgeny Epifanovsky

 No regularization used 
 (reg. param. = 0.0000e+00)
  (P|Q)^-1/2 Time:  CPU 107.69 s  wall 2.10 s

 In RI-MP2 calculation: 
 # of frozen core orbitals: 31

 Components of the RIMP2 correlation energy:
        aaaa    correlation energy =        -0.6254805028 a.u.
        abab    correlation energy =        -3.4134139658 a.u.
        bbbb    correlation energy =        -0.6254805028 a.u.
        non-Brillouin singles      =        -0.0000000000 a.u.
        total same-spin energy     =        -1.2509610057 a.u.
        total opposite-spin energy =        -3.4134139658 a.u.

 Total  RIMP2   correlation energy =        -4.6643749714 a.u.
        RIMP2         total energy =     -1575.1932479114 a.u.

 RI-MP2 Energy Time:  CPU 1836.37 s  wall 30.01 s
 
 --------------------------------------------------------------
 
                    Orbital Energies (a.u.)
 --------------------------------------------------------------
 
 Alpha MOs
 -- Occupied --
-91.9826 -20.5583 -20.5558 -20.5540 -20.5537 -15.6336 -15.6305 -11.4009
-11.3993 -11.3913 -11.3895 -11.3198 -11.3015 -11.2991 -11.2912 -11.2905
-11.2905 -11.2886 -11.2852 -11.2807 -11.2781 -11.2688 -11.2668 -11.2668
-11.2641 -11.2576 -11.2448  -8.9827  -6.6633  -6.6623  -6.6615  -1.4416
 -1.4243  -1.4091  -1.4036  -1.2721  -1.2658  -1.2159  -1.1797  -1.1402
 -1.1140  -1.0600  -1.0469  -0.9930  -0.9927  -0.9866  -0.9592  -0.9477
 -0.8965  -0.8792  -0.8702  -0.8612  -0.7884  -0.7805  -0.7749  -0.7638
 -0.7369  -0.7227  -0.7035  -0.6921  -0.6872  -0.6723  -0.6672  -0.6628
 -0.6572  -0.6521  -0.6384  -0.6363  -0.6274  -0.6119  -0.5890  -0.5825
 -0.5785  -0.5749  -0.5727  -0.5645  -0.5606  -0.5567  -0.5563  -0.5488
 -0.5373  -0.5248  -0.5195  -0.5046  -0.4795  -0.4747  -0.4627  -0.4564
 -0.4517  -0.4392  -0.4262  -0.4178  -0.4071  -0.3585  -0.3357  -0.3131
 -0.2751
 -- Virtual --
 -0.0168   0.0547   0.0688   0.0861   0.1167   0.1459   0.1577   0.1639
  0.1670   0.1674   0.1793   0.1862   0.1886   0.1935   0.2016   0.2076
  0.2173   0.2249   0.2269   0.2315   0.2360   0.2512   0.2564   0.2627
  0.2646   0.2887   0.3067   0.3092   0.3168   0.3208   0.3287   0.3329
  0.3373   0.3471   0.3516   0.3532   0.3580   0.3586   0.3667   0.3689
  0.3777   0.3793   0.3910   0.3974   0.3990   0.4055   0.4057   0.4099
  0.4135   0.4217   0.4295   0.4319   0.4394   0.4432   0.4475   0.4543
  0.4573   0.4608   0.4684   0.4761   0.4783   0.4859   0.4912   0.4942
  0.4990   0.5072   0.5108   0.5148   0.5194   0.5240   0.5284   0.5328
  0.5362   0.5433   0.5472   0.5501   0.5527   0.5583   0.5669   0.5732
  0.5790   0.5819   0.5850   0.5878   0.5894   0.5945   0.5978   0.6023
  0.6080   0.6120   0.6157   0.6179   0.6229   0.6251   0.6309   0.6337
  0.6365   0.6375   0.6408   0.6427   0.6478   0.6501   0.6524   0.6829
  0.6864   0.6902   0.6965   0.7009   0.7091   0.7135   0.7154   0.7230
  0.7325   0.7398   0.7447   0.7484   0.7523   0.7579   0.7639   0.7677
  0.7709   0.7790   0.7870   0.7955   0.8015   0.8062   0.8134   0.8233
  0.8298   0.8346   0.8390   0.8470   0.8492   0.8542   0.8600   0.8644
  0.8651   0.8711   0.8750   0.8822   0.8877   0.8933   0.9078   0.9152
  0.9164   0.9207   0.9254   0.9267   0.9367   0.9427   0.9467   0.9477
  0.9532   0.9653   0.9747   0.9779   0.9814   0.9865   0.9879   0.9944
  1.0029   1.0033   1.0090   1.0166   1.0231   1.0304   1.0372   1.0386
  1.0435   1.0518   1.0553   1.0622   1.0683   1.0710   1.0748   1.0790
  1.0847   1.0859   1.0946   1.0965   1.1049   1.1182   1.1238   1.1321
  1.1324   1.1363   1.1436   1.1461   1.1504   1.1564   1.1609   1.1631
  1.1742   1.1814   1.1833   1.1865   1.1895   1.1943   1.2022   1.2082
  1.2121   1.2125   1.2184   1.2212   1.2293   1.2320   1.2400   1.2481
  1.2540   1.2574   1.2612   1.2730   1.2766   1.2927   1.3053   1.3128
  1.3266   1.3305   1.3392   1.3429   1.3464   1.3517   1.3650   1.3692
  1.3808   1.3823   1.3855   1.3887   1.3953   1.3993   1.4082   1.4205
  1.4315   1.4367   1.4433   1.4440   1.4483   1.4543   1.4712   1.4761
  1.4833   1.4892   1.4956   1.4994   1.5080   1.5125   1.5209   1.5280
  1.5315   1.5351   1.5404   1.5479   1.5521   1.5582   1.5618   1.5650
  1.5682   1.5742   1.5790   1.5954   1.6041   1.6117   1.6139   1.6437
  1.6449   1.6524   1.6587   1.6662   1.6686   1.6810   1.6888   1.6943
  1.7060   1.7171   1.7197   1.7265   1.7397   1.7430   1.7460   1.7496
  1.7567   1.7607   1.7715   1.7790   1.7967   1.8020   1.8084   1.8110
  1.8200   1.8266   1.8436   1.8463   1.8576   1.8583   1.8665   1.8720
  1.8769   1.8858   1.8900   1.9074   1.9217   1.9280   1.9381   1.9491
  1.9604   1.9630   1.9742   1.9889   2.0005   2.0169   2.0232   2.0378
  2.0514   2.0639   2.0771   2.0855   2.0955   2.1200   2.1364   2.1405
  2.1429   2.1535   2.1690   2.1817   2.2023   2.2246   2.2293   2.2478
  2.2567   2.2614   2.2773   2.2841   2.2879   2.2963   2.3079   2.3136
  2.3195   2.3377   2.3420   2.3571   2.3658   2.3772   2.3887   2.4136
  2.4283   2.4378   2.4431   2.4510   2.4549   2.4574   2.4709   2.4797
  2.4904   2.4995   2.5029   2.5088   2.5219   2.5408   2.5462   2.5644
  2.5717   2.5856   2.5938   2.6028   2.6101   2.6113   2.6169   2.6202
  2.6324   2.6444   2.6501   2.6608   2.6661   2.6711   2.6716   2.6873
  2.6877   2.7016   2.7077   2.7180   2.7258   2.7313   2.7353   2.7447
  2.7476   2.7546   2.7561   2.7651   2.7743   2.7824   2.7910   2.8017
  2.8127   2.8263   2.8315   2.8415   2.8518   2.8602   2.8655   2.8667
  2.8728   2.8847   2.8891   2.8946   2.9035   2.9062   2.9169   2.9183
  2.9254   2.9385   2.9458   2.9499   2.9577   2.9634   2.9725   2.9766
  2.9814   2.9926   2.9995   3.0054   3.0154   3.0173   3.0186   3.0233
  3.0362   3.0385   3.0441   3.0508   3.0588   3.0787   3.0829   3.0899
  3.0947   3.0986   3.1008   3.1071   3.1158   3.1196   3.1271   3.1332
  3.1344   3.1442   3.1550   3.1575   3.1662   3.1722   3.1793   3.1883
  3.1958   3.2020   3.2054   3.2087   3.2134   3.2169   3.2262   3.2303
  3.2354   3.2387   3.2459   3.2545   3.2568   3.2603   3.2625   3.2672
  3.2744   3.2799   3.2862   3.2867   3.2907   3.2926   3.2981   3.3057
  3.3154   3.3212   3.3261   3.3281   3.3334   3.3353   3.3381   3.3471
  3.3500   3.3535   3.3574   3.3637   3.3651   3.3687   3.3768   3.3816
  3.3871   3.3920   3.4002   3.4022   3.4049   3.4107   3.4208   3.4250
  3.4301   3.4340   3.4380   3.4432   3.4487   3.4525   3.4544   3.4615
  3.4665   3.4709   3.4761   3.4819   3.4870   3.4945   3.4984   3.5011
  3.5058   3.5166   3.5193   3.5243   3.5284   3.5338   3.5371   3.5428
  3.5479   3.5563   3.5591   3.5708   3.5744   3.5794   3.5887   3.5965
  3.6035   3.6098   3.6190   3.6221   3.6264   3.6306   3.6345   3.6435
  3.6452   3.6489   3.6578   3.6701   3.6707   3.6809   3.6828   3.6935
  3.7000   3.7078   3.7130   3.7158   3.7206   3.7274   3.7336   3.7344
  3.7413   3.7494   3.7525   3.7583   3.7660   3.7699   3.7756   3.7795
  3.7828   3.7848   3.7958   3.7993   3.8043   3.8055   3.8101   3.8125
  3.8214   3.8367   3.8425   3.8472   3.8539   3.8581   3.8624   3.8724
  3.8760   3.8869   3.8915   3.8961   3.9003   3.9203   3.9289   3.9389
  3.9424   3.9489   3.9518   3.9554   3.9589   3.9669   3.9748   3.9803
  3.9959   4.0037   4.0172   4.0227   4.0284   4.0356   4.0389   4.0515
  4.0673   4.0701   4.0777   4.0871   4.0965   4.1035   4.1145   4.1246
  4.1325   4.1364   4.1444   4.1505   4.1597   4.1699   4.1723   4.1792
  4.1900   4.1932   4.1976   4.2051   4.2202   4.2298   4.2363   4.2424
  4.2451   4.2536   4.2612   4.2750   4.2817   4.2848   4.2917   4.2949
  4.3047   4.3085   4.3155   4.3197   4.3252   4.3329   4.3371   4.3428
  4.3504   4.3558   4.3621   4.3641   4.3674   4.3754   4.3795   4.3857
  4.3888   4.4046   4.4101   4.4179   4.4234   4.4281   4.4378   4.4484
  4.4661   4.4741   4.4841   4.4894   4.5017   4.5128   4.5197   4.5231
  4.5272   4.5381   4.5466   4.5498   4.5557   4.5588   4.5725   4.5769
  4.5802   4.5874   4.5975   4.6047   4.6085   4.6172   4.6360   4.6401
  4.6543   4.6608   4.6708   4.6744   4.6820   4.6896   4.6959   4.7016
  4.7243   4.7351   4.7433   4.7509   4.7657   4.7745   4.7907   4.8095
  4.8107   4.8308   4.8384   4.8415   4.8455   4.8591   4.8762   4.8786
  4.8896   4.9010   4.9069   4.9227   4.9450   4.9566   4.9707   4.9872
  5.0079   5.0129   5.0264   5.0373   5.0396   5.0483   5.0542   5.0625
  5.0903   5.1067   5.1093   5.1247   5.1279   5.1348   5.1474   5.1523
  5.1588   5.1758   5.1891   5.1947   5.2019   5.2219   5.2391   5.2589
  5.2668   5.2819   5.2889   5.3099   5.3141   5.3249   5.3322   5.3412
  5.3713   5.3974   5.4062   5.4129   5.4147   5.4319   5.4343   5.4693
  5.4926   5.4991   5.5087   5.5095   5.5120   5.5309   5.5430   5.5550
  5.5598   5.5611   5.5634   5.5721   5.5778   5.5906   5.6044   5.6196
  5.6291   5.6381   5.6504   5.6530   5.6557   5.6688   5.6773   5.6790
  5.7075   5.7130   5.7251   5.7319   5.7491   5.7610   5.7677   5.7730
  5.7902   5.7981   5.8120   5.8334   5.8762   5.8949   5.9240   5.9339
  5.9602   5.9679   5.9959   6.0220   6.0239   6.0301   6.0450   6.0781
  6.0837   6.0992   6.1111   6.1203   6.1472   6.1934   6.2031   6.2110
  6.2182   6.2230   6.2331   6.2641   6.2706   6.2780   6.3072   6.3472
  6.3540   6.3821   6.3978   6.4518   6.4707   6.5268   6.5489   6.5635
  6.5834   6.5875   6.6221   6.6484   6.6504   6.6627   6.7094   6.8322
  6.8483   6.8853   6.8865   6.8986   6.9119   6.9349   7.0787   7.0846
  7.1335   7.1557   7.1860   7.2181   7.3017   7.3328   7.3427   7.3452
  7.3968   7.4666   7.5483   7.5593   7.5754   7.5800   7.6350   7.6752
  7.6950   7.7128   7.7737   8.3571  10.0360  10.3528  11.1248  11.2921
 11.7094  11.7943  12.2363  12.3759  12.5045  12.7786  12.8861  13.0838
 13.2960  13.5832  13.8242  13.9532  14.0844  14.1556  14.2742  14.4009
 14.4411  14.7874  15.3275  15.7272  16.0024
 --------------------------------------------------------------
 
          Ground-State Mulliken Net Atomic Charges

     Atom                 Charge (a.u.)
  ----------------------------------------
      1 C                    -0.156274
      2 C                    -0.106633
      3 C                    -0.027491
      4 C                    -0.005872
      5 H                     0.187199
      6 C                    -0.017392
      7 C                     0.081915
      8 C                     0.006214
      9 C                    -0.115023
     10 C                    -0.154524
     11 C                     0.121155
     12 H                     0.179174
     13 C                     0.360678
     14 C                     0.364500
     15 N                    -0.101252
     16 C                     0.356696
     17 C                     0.438426
     18 N                    -0.086641
     19 O                    -0.463753
     20 O                    -0.475012
     21 O                    -0.483636
     22 O                    -0.433410
     23 C                    -0.201347
     24 H                     0.140885
     25 H                     0.112010
     26 H                     0.112403
     27 C                    -0.198095
     28 H                     0.136096
     29 H                     0.113351
     30 H                     0.111754
     31 H                     0.211308
     32 C                    -0.164234
     33 S                     0.017571
     34 C                    -0.079876
     35 C                    -0.094023
     36 C                    -0.271617
     37 H                     0.193964
     38 H                     0.185761
     39 H                     0.205044
  ----------------------------------------
  Sum of atomic charges =     0.000000

 -----------------------------------------------------------------
                    Cartesian Multipole Moments
 -----------------------------------------------------------------
    Charge (ESU x 10^10)
                 0.0000
    Dipole Moment (Debye)
         X       3.6855      Y       0.8043      Z       0.0054
       Tot       3.7722
    Quadrupole Moments (Debye-Ang)
        XX    -164.9792     XY       5.1612     YY    -181.3140
        XZ      -6.3557     YZ      -0.3357     ZZ    -164.2119
    Octopole Moments (Debye-Ang^2)
       XXX    -135.0444    XXY     555.4382    XYY     -46.4824
       YYY    1668.9396    XXZ     -17.6446    XYZ      44.7183
       YYZ     -24.7243    XZZ     -40.9469    YZZ     529.7421
       ZZZ     -83.3160
    Hexadecapole Moments (Debye-Ang^3)
      XXXX   -3957.8242   XXXY    -172.5593   XXYY   -3583.9716
      XYYY    -685.4006   YYYY  -17165.3327   XXXZ   -1504.4416
      XXYZ      63.2911   XYYZ    -776.1329   YYYZ    -519.4221
      XXZZ   -1167.8394   XYZZ       2.0915   YYZZ   -3315.1844
      XZZZ   -1490.3161   YZZZ    -160.4858   ZZZZ   -2855.7431
 -----------------------------------------------------------------
 Total job time:  275.74s(wall), 8438.96s(cpu) 
 Fri Dec 15 14:34:08 2023

        *************************************************************
        *                                                           *
        *  Thank you very much for using Q-Chem.  Have a nice day.  *
        *                                                           *
        *************************************************************


0 sent ACK to 0 
now end server 0 ... 
cleanup process ... done
remove work dirs ./qchem193901.0 -- ./qchem193901.0
rm -rf ./qchem193901.0
rm -rf ./qchem193901
