You are running Q-Chem version: 5.4.0

#
# job setting
#
local host:  exp-4-09
current dir: /home/rramji/project-csd799/aromodel/pndit-qchem/rotation_run
input file:  Dimethyl_Naphthalene_Dicarboximide_Phi_30_Theta_160_Thiophene.qcin
output file: 
nprocs     : 1
nthreads   : 64
#
# qchem installation setting
#
QC:          /cm/shared/apps/spack/cpu/opt/spack/linux-centos8-zen2/gcc-10.2.0/qchem-5.4-akfmr7b3t57bfs6qan3padb2wnb2i7cl
QCAUX:       /cm/shared/apps/spack/cpu/opt/spack/linux-centos8-zen2/gcc-10.2.0/qchem-5.4-akfmr7b3t57bfs6qan3padb2wnb2i7cl/qcaux
QCPROG:      /cm/shared/apps/spack/cpu/opt/spack/linux-centos8-zen2/gcc-10.2.0/qchem-5.4-akfmr7b3t57bfs6qan3padb2wnb2i7cl/exe/qcprog.exe
QCPROG_S:    /cm/shared/apps/spack/cpu/opt/spack/linux-centos8-zen2/gcc-10.2.0/qchem-5.4-akfmr7b3t57bfs6qan3padb2wnb2i7cl/exe/qcprog.exe_s
PARALLEL:    -DPARALLEL
QCMPI:       mpich
#
# qchem directory setting
#
qcrun:       qchem2782768
QCSCRATCH:   .
QCLOCALSCR:  
QCTMPDIR:    .
QCFILEPREF:  ./qchem2782768
QCSAVEDIR:   
workdirs:    ./qchem2782768
workdir0:    ./qchem2782768
partmpdirs =  
#
# parallel setting
#
QCRSH:           ssh
QCMPI:           mpich
QCMPIRUN:        /cm/shared/apps/spack/cpu/opt/spack/linux-centos8-zen2/gcc-10.2.0/qchem-5.4-akfmr7b3t57bfs6qan3padb2wnb2i7cl/bin/mpi/mpirun_qchem
QCMACHINEFILE:   ./qchem2782768/hostfile
exp-4-09

#
# env setting
#
exported envs:   QC QCAUX QCSCRATCH QCRUNNAME QCFILEPREF QCPROG QCPROG_S GUIFILE

Running Job 1 of 1 Dimethyl_Naphthalene_Dicarboximide_Phi_30_Theta_160_Thiophene.qcin
qchem Dimethyl_Naphthalene_Dicarboximide_Phi_30_Theta_160_Thiophene.qcin_2782768.0 ./qchem2782768/ 1
/cm/shared/apps/spack/cpu/opt/spack/linux-centos8-zen2/gcc-10.2.0/qchem-5.4-akfmr7b3t57bfs6qan3padb2wnb2i7cl/bin/mpi/mpirun_qchem -machinefile ./qchem2782768/hostfile -np 1 /cm/shared/apps/spack/cpu/opt/spack/linux-centos8-zen2/gcc-10.2.0/qchem-5.4-akfmr7b3t57bfs6qan3padb2wnb2i7cl/exe/qcprog.exe Dimethyl_Naphthalene_Dicarboximide_Phi_30_Theta_160_Thiophene.qcin_2782768.0 ./qchem2782768/

Process 0 of 1 is on exp-4-09 - thread support 0
initial socket setup ...start
initial socket setup ...done 
now start server 0 ... 
                  Welcome to Q-Chem
     A Quantum Leap Into The Future Of Chemistry


 Q-Chem 5.4, Q-Chem, Inc., Pleasanton, CA (2021)

 License issued to: University of California, San Diego (site)

 E. Epifanovsky,  A. T. B. Gilbert,  Xintian Feng,  Joonho Lee,  Yuezhi Mao,  
 N. Mardirossian,  P. Pokhilko,  A. White,  M. Wormit,  M. P. Coons,  
 A. L. Dempwolff,  Zhengting Gan,  D. Hait,  P. R. Horn,  L. D. Jacobson,  
 I. Kaliman,  J. Kussmann,  A. W. Lange,  Ka Un Lao,  D. S. Levine,  Jie Liu,  
 S. C. McKenzie,  A. F. Morrison,  K. Nanda,  F. Plasser,  D. R. Rehn,  
 M. L. Vidal,  Zhi-Qiang You,  Ying Zhu,  B. Alam,  B. Albrecht,  
 A. Aldossary,  E. Alguire,  J. H. Andersen,  D. Barton,  K. Begam,  A. Behn,  
 Y. A. Bernard,  E. J. Berquist,  H. Burton,  A. Carreras,  K. Carter-Fenk,  
 R. Chakraborty,  A. D. Chien,  K. D. Closser,  V. Cofer-Shabica,  
 S. Dasgupta,  Jia Deng,  M. de Wergifosse,  M. Diedenhofen,  Hainam Do,  
 S. Ehlert,  Po-Tung Fang,  S. Fatehi,  Qingguo Feng,  J. Gayvert,  
 Qinghui Ge,  G. Gidofalvi,  M. Goldey,  J. Gomes,  C. Gonzalez-Espinoza,  
 S. Gulania,  A. Gunina,  M. W. D. Hanson-Heine,  P. H. P. Harbach,  
 A. W. Hauser,  M. F. Herbst,  M. Hernandez Vera,  M. Hodecker,  
 Z. C. Holden,  S. Houck,  Xunkun Huang,  Kerwin Hui,  B. C. Huynh,  
 M. Ivanov,  Hyunjun Ji,  Hanjie Jiang,  B. Kaduk,  S. Kaehler,  
 K. Khistyaev,  Jaehoon Kim,  P. Klunzinger,  Z. Koczor-Benda,  
 Joong Hoon Koh,  D. Kosenkov,  L. Koulias,  T. Kowalczyk,  C. M. Krauter,  
 K. Kue,  A. Kunitsa,  T. Kus,  A. Landau,  K. V. Lawler,  D. Lefrancois,  
 S. Lehtola,  Rain Li,  Yi-Pei Li,  Jiashu Liang,  M. Liebenthal,  
 Hung-Hsuan Lin,  You-Sheng Lin,  Fenglai Liu,  Kuan-Yu Liu,  
 M. Loipersberger,  A. Luenser,  A. Manjanath,  P. Manohar,  E. Mansoor,  
 S. F. Manzer,  Shan-Ping Mao,  A. V. Marenich,  T. Markovich,  S. Mason,  
 S. A. Maurer,  P. F. McLaughlin,  M. F. S. J. Menger,  J.-M. Mewes,  
 S. A. Mewes,  P. Morgante,  J. W. Mullinax,  T. S. Nguyen-Beck,  
 K. J. Oosterbaan,  G. Paran,  Alexander C. Paul,  Suranjan K. Paul,  
 F. Pavosevic,  Zheng Pei,  S. Prager,  E. I. Proynov,  E. Ramos,  B. Rana,  
 A. E. Rask,  A. Rettig,  R. M. Richard,  F. Rob,  E. Rossomme,  T. Scheele,  
 M. Scheurer,  M. Schneider,  N. Sergueev,  S. M. Sharada,  W. Skomorowski,  
 D. W. Small,  C. J. Stein,  Yu-Chuan Su,  E. J. Sundstrom,  Zhen Tao,  
 J. Thirman,  T. Tsuchimochi,  N. M. Tubman,  S. P. Veccham,  O. Vydrov,  
 J. Wenzel,  J. Witte,  A. Yamada,  Kun Yao,  S. Yeganeh,  S. R. Yost,  
 A. Zech,  Igor Ying Zhang,  Xing Zhang,  Yu Zhang,  D. Zuev,  
 A. Aspuru-Guzik,  A. T. Bell,  N. A. Besley,  K. B. Bravaya,  B. R. Brooks,  
 D. Casanova,  Jeng-Da Chai,  S. Coriani,  C. J. Cramer,  
 A. E. DePrince, III,  R. A. DiStasio Jr.,  A. Dreuw,  B. D. Dunietz,  
 T. R. Furlani,  W. A. Goddard III,  S. Grimme,  S. Hammes-Schiffer,  
 T. Head-Gordon,  W. J. Hehre,  Chao-Ping Hsu,  T.-C. Jagau,  Yousung Jung,  
 A. Klamt,  Jing Kong,  D. S. Lambrecht,  WanZhen Liang,  N. J. Mayhall,  
 C. W. McCurdy,  J. B. Neaton,  C. Ochsenfeld,  J. A. Parkhill,  R. Peverati,  
 V. A. Rassolov,  Yihan Shao,  L. V. Slipchenko,  T. Stauch,  R. P. Steele,  
 J. E. Subotnik,  A. J. W. Thom,  A. Tkatchenko,  D. G. Truhlar,  
 T. Van Voorhis,  T. A. Wesolowski,  K. B. Whaley,  H. L. Woodcock III,  
 P. M. Zimmerman,  S. Faraji,  P. M. W. Gill,  M. Head-Gordon,  
 J. M. Herbert,  A. I. Krylov

 Contributors to earlier versions of Q-Chem not listed above: 
 R. D. Adamson,  B. Austin,  R. Baer,  J. Baker,  G. J. O. Beran,  
 K. Brandhorst,  S. T. Brown,  E. F. C. Byrd,  A. K. Chakraborty,  
 G. K. L. Chan,  Chun-Min Chang,  Yunqing Chen,  C.-L. Cheng,  
 Siu Hung Chien,  D. M. Chipman,  D. L. Crittenden,  H. Dachsel,  
 R. J. Doerksen,  A. D. Dutoi,  R. G. Edgar,  J. Fosso-Tande,  
 L. Fusti-Molnar,  D. Ghosh,  A. Ghysels,  A. Golubeva-Zadorozhnaya,  
 J. Gonthier,  M. S. Gordon,  S. R. Gwaltney,  G. Hawkins,  J. E. Herr,  
 A. Heyden,  S. Hirata,  E. G. Hohenstein,  G. Kedziora,  F. J. Keil,  
 C. Kelley,  Jihan Kim,  R. A. King,  R. Z. Khaliullin,  P. P. Korambath,  
 W. Kurlancheek,  A. Laurent,  A. M. Lee,  M. S. Lee,  S. V. Levchenko,  
 Ching Yeh Lin,  D. Liotard,  E. Livshits,  R. C. Lochan,  I. Lotan,  
 L. A. Martinez-Martinez,  P. E. Maslen,  N. Nair,  D. P. O'Neill,  
 D. Neuhauser,  E. Neuscamman,  C. M. Oana,  R. Olivares-Amaya,  R. Olson,  
 T. M. Perrine,  B. Peters,  P. A. Pieniazek,  A. Prociuk,  Y. M. Rhee,  
 J. Ritchie,  M. A. Rohrdanz,  E. Rosta,  N. J. Russ,  H. F. Schaefer III,  
 M. W. Schmidt,  N. E. Schultz,  S. Sharma,  N. Shenvi,  C. D. Sherrill,  
 A. C. Simmonett,  A. Sodt,  T. Stein,  D. Stuck,  K. S. Thanthiriwatte,  
 V. Vanovschi,  L. Vogt,  Tao Wang,  A. Warshel,  M. A. Watson,  
 C. F. Williams,  Q. Wu,  X. Xu,  Jun Yang,  W. Zhang,  Yan Zhao

 Please cite Q-Chem as follows:
 Y. Shao et al., Mol. Phys. 113, 184-215 (2015)
 DOI: 10.1080/00268976.2014.952696

 Q-Chem 5.4.0 for Intel X86 EM64T Linux

 Parts of Q-Chem use Armadillo 9.800.1 (Horizon Scraper).
 http://arma.sourceforge.net/

 Q-Chem begins on Fri Dec 15 14:37:01 2023  

 Host: 
0

     Scratch files written to ./qchem2782768//
 May1621 |scratch|qcdevops|jenkins|workspace|build_RNUM    
 Parallel job on  1  processors
 Processing $rem in /cm/shared/apps/spack/cpu/opt/spack/linux-centos8-zen2/gcc-10.2.0/qchem-5.4-akfmr7b3t57bfs6qan3padb2wnb2i7cl/config/preferences:
 Processing $rem in /home/rramji/.qchemrc:
 Symmetry turned off for PCM/SM12/SMD calculation
 Core orbitals will be frozen

 Checking the input file for inconsistencies... 	...done.

 Q-Chem warning in module forms1/BasisType.C, line 2236:

 You are not using the predefined 5D/6D in this basis set.


--------------------------------------------------------------
User input:
--------------------------------------------------------------
$molecule
0 1
C	0.089263	-6.741404	0.240927
C	0.535973	-6.155638	1.467886
C	-0.281103	-5.791452	-0.777972
C	0.631036	-4.803786	1.729742
H	0.836458	-6.821518	2.292903
C	-0.181995	-4.378638	-0.503614
C	0.272725	-3.838032	0.746756
C	-0.539954	-3.413062	-1.485437
C	0.371053	-2.426473	1.018915
C	-0.446381	-2.059348	-1.226557
C	-0.000000	-1.478216	-0.000000
H	-0.747410	-1.394783	-2.052413
C	-0.772747	-6.187987	-2.134128
C	-1.029154	-3.798164	-2.829820
N	-1.110828	-5.170003	-3.059182
C	1.121728	-4.424987	3.077731
C	0.864069	-2.036627	2.375694
N	1.201928	-3.049156	3.301101
O	-0.903908	-7.353131	-2.502830
O	-1.345809	-2.986854	-3.697078
O	1.434422	-5.248946	3.934752
O	1.003943	-0.878829	2.764177
C	-1.592981	-5.563799	-4.386939
H	-1.607367	-6.664085	-4.429822
H	-0.924504	-5.147101	-5.164489
H	-2.605446	-5.148785	-4.553486
C	1.677308	-2.587487	4.608481
H	1.898089	-3.483329	5.211969
H	0.902337	-1.964972	5.094624
H	2.582098	-1.962932	4.483092
H	0.025963	-7.822318	0.066080
C	0.000000	0.000000	0.000000
S	0.396411	0.687007	1.580530
C	1.215245	2.105322	0.904911
C	0.498850	0.864369	-0.985400
C	1.158885	2.007781	-0.493528
H	0.381046	0.660280	-2.059934
H	1.599289	2.770727	-1.152593
H	1.655514	2.868056	1.556025
$end

$rem
JOBTYPE		SP
EXCHANGE	HF
CORRELATION	pRIMP2
BASIS		cc-pvtz
METHOD		rimp2
AUX_BASIS	rimp2-cc-pvtz
SOLVENT_METHOD	PCM
PURECART	11111
SYMMETRY	false
MEM_TOTAL	110000
SCF_CONVERGENCE = 6
THRESH=10
GUI = 2
$end



$solvent
dielectric 4.90
$end
--------------------------------------------------------------
 ----------------------------------------------------------------
             Standard Nuclear Orientation (Angstroms)
    I     Atom           X                Y                Z
 ----------------------------------------------------------------
    1      C       0.0892630000    -6.7414040000     0.2409270000
    2      C       0.5359730000    -6.1556380000     1.4678860000
    3      C      -0.2811030000    -5.7914520000    -0.7779720000
    4      C       0.6310360000    -4.8037860000     1.7297420000
    5      H       0.8364580000    -6.8215180000     2.2929030000
    6      C      -0.1819950000    -4.3786380000    -0.5036140000
    7      C       0.2727250000    -3.8380320000     0.7467560000
    8      C      -0.5399540000    -3.4130620000    -1.4854370000
    9      C       0.3710530000    -2.4264730000     1.0189150000
   10      C      -0.4463810000    -2.0593480000    -1.2265570000
   11      C       0.0000000000    -1.4782160000     0.0000000000
   12      H      -0.7474100000    -1.3947830000    -2.0524130000
   13      C      -0.7727470000    -6.1879870000    -2.1341280000
   14      C      -1.0291540000    -3.7981640000    -2.8298200000
   15      N      -1.1108280000    -5.1700030000    -3.0591820000
   16      C       1.1217280000    -4.4249870000     3.0777310000
   17      C       0.8640690000    -2.0366270000     2.3756940000
   18      N       1.2019280000    -3.0491560000     3.3011010000
   19      O      -0.9039080000    -7.3531310000    -2.5028300000
   20      O      -1.3458090000    -2.9868540000    -3.6970780000
   21      O       1.4344220000    -5.2489460000     3.9347520000
   22      O       1.0039430000    -0.8788290000     2.7641770000
   23      C      -1.5929810000    -5.5637990000    -4.3869390000
   24      H      -1.6073670000    -6.6640850000    -4.4298220000
   25      H      -0.9245040000    -5.1471010000    -5.1644890000
   26      H      -2.6054460000    -5.1487850000    -4.5534860000
   27      C       1.6773080000    -2.5874870000     4.6084810000
   28      H       1.8980890000    -3.4833290000     5.2119690000
   29      H       0.9023370000    -1.9649720000     5.0946240000
   30      H       2.5820980000    -1.9629320000     4.4830920000
   31      H       0.0259630000    -7.8223180000     0.0660800000
   32      C       0.0000000000     0.0000000000     0.0000000000
   33      S       0.3964110000     0.6870070000     1.5805300000
   34      C       1.2152450000     2.1053220000     0.9049110000
   35      C       0.4988500000     0.8643690000    -0.9854000000
   36      C       1.1588850000     2.0077810000    -0.4935280000
   37      H       0.3810460000     0.6602800000    -2.0599340000
   38      H       1.5992890000     2.7707270000    -1.1525930000
   39      H       1.6555140000     2.8680560000     1.5560250000
 ----------------------------------------------------------------
 Nuclear Repulsion Energy =        2525.84475451 hartrees
 There are       97 alpha and       97 beta electrons
 Requested basis set is cc-pVTZ
 There are 344 shells and 982 basis functions

 Total QAlloc Memory Limit 110000 MB
 Mega-Array Size       188 MB
 MEM_STATIC part       192 MB
 Discretize the solute cavity surface with Lebedev spheres
	Using 110 Lebedev grid points for each H atom
	Using 194 Lebedev grid points for other atoms
	Atomic van der Waals radii will be scaled by 1.20
 Remove points where switching function is < 1.0e-08
 Keep 2513 surface tesserae and discard 4045 interior tesserae
 Molecular Surface Area = 357.988 Angst**2
 Requested basis set is rimp2-cc-pVTZ
 There are 750 shells and 2588 basis functions
 A cutoff of  1.0D-10 yielded  31973 shell pairs
 There are    245985 function pairs (    319543 Cartesian)
 Smallest overlap matrix eigenvalue = 9.60E-06

 Q-Chem warning in module stvman/mkSTV.C, line 323:

 Overlap eigenvalue is smaller than square root of threshold
 Use THRESH >= 12 to get rid of this warning


 Scale SEOQF with 1.000000e-01/1.000000e-02/1.000000e-01

 Standard Electronic Orientation quadrupole field applied
 Nucleus-field energy     =    -0.0000000968 hartrees
 Guess from superposition of atomic densities
 Warning:  Energy on first SCF cycle will be non-variational
 SAD guess density has 194.000000 electrons

 -----------------------------------------------------------------------
  General SCF calculation program by
  Eric Jon Sundstrom, Paul Horn, Yuezhi Mao, Dmitri Zuev, Alec White,
  David Stuck, Shaama M.S., Shane Yost, Joonho Lee, David Small,
  Daniel Levine, Susi Lehtola, Hugh Burton, Evgeny Epifanovsky,
  Bang C. Huynh
 -----------------------------------------------------------------------
 Hartree-Fock
 using 64 threads for integral computing
 -------------------------------------------------------
 OpenMP Integral computing Module                
 Release: version 1.0, May 2013, Q-Chem Inc. Pittsburgh 
 -------------------------------------------------------
 A restricted SCF calculation will be
 performed using DIIS
 SCF converges when DIIS error is below 1.0e-06
 ---------------------------------------
  Cycle       Energy         DIIS error
 ---------------------------------------
    1   -1581.5367563720      1.88e-02  
    2   -1570.0405834948      2.06e-03  
    3   -1570.3651180221      1.59e-03  
    4   -1570.5852995725      2.63e-04  
    5   -1570.5975968631      7.80e-05  
    6   -1570.5987056376      2.90e-05  
    7   -1570.5989696936      1.46e-05  
    8   -1570.5990607810      6.37e-06  
    9   -1570.5990783686      2.69e-06  
   10   -1570.5990824138      1.18e-06  
   11   -1570.5990834336      5.53e-07  Convergence criterion met
 ---------------------------------------
 SCF time:   CPU 6428.69s  wall 238.00s 

************** Final PCM Free Energy Summary **************
 G_electrostatic  =      -0.02141306 hartree =     -13.43689533 kcal/mol
 G_cavitation     =       0.00000000 hartree =       0.00000000 kcal/mol
 G_dispersion     =       0.00000000 hartree =       0.00000000 kcal/mol
 G_repulsion      =       0.00000000 hartree =       0.00000000 kcal/mol
 --------------------------------------------------
 Non-electrostatic Free Energy =       0.00000000 hartree =       0.00000000 kcal/mol
 Total                         =      -0.02141306 hartree =     -13.43689533 kcal/mol
 --------------------------------------------------
 SCF Energy (H0 + V/2)                       =   -1570.59908343 
 Solute Internal Energy (H0)                 =   -1570.57767038 
 Total Free Energy (H0 + V/2 + non-elec)     =   -1570.59908343 hartree
                                             = -985565.79999849 kcal/mol
***********************************************************

 SCF   energy in the final basis set =    -1570.5990834336
 Total energy in the final basis set =    -1570.5990834336


 --------------------------------------------------------------
  Generalized many-body perturbation theory program
  by Joonho Lee, Fazle Rob, Xintian Feng, Evgeny Epifanovsky

 No regularization used 
 (reg. param. = 0.0000e+00)
  (P|Q)^-1/2 Time:  CPU 95.52 s  wall 2.17 s

 In RI-MP2 calculation: 
 # of frozen core orbitals: 31

 Components of the RIMP2 correlation energy:
        aaaa    correlation energy =        -0.6228797081 a.u.
        abab    correlation energy =        -3.4054077832 a.u.
        bbbb    correlation energy =        -0.6228797081 a.u.
        non-Brillouin singles      =        -0.0000000000 a.u.
        total same-spin energy     =        -1.2457594162 a.u.
        total opposite-spin energy =        -3.4054077832 a.u.

 Total  RIMP2   correlation energy =        -4.6511671993 a.u.
        RIMP2         total energy =     -1575.2502506329 a.u.

 RI-MP2 Energy Time:  CPU 1820.67 s  wall 30.05 s
 
 --------------------------------------------------------------
 
                    Orbital Energies (a.u.)
 --------------------------------------------------------------
 
 Alpha MOs
 -- Occupied --
-91.9841 -20.5599 -20.5590 -20.5568 -20.5547 -15.6342 -15.6314 -11.4044
-11.4000 -11.3924 -11.3910 -11.3218 -11.3022 -11.3011 -11.2960 -11.2936
-11.2919 -11.2875 -11.2822 -11.2789 -11.2788 -11.2763 -11.2733 -11.2667
-11.2647 -11.2564 -11.2367  -8.9838  -6.6642  -6.6626  -6.6615  -1.4407
 -1.4251  -1.4096  -1.4045  -1.2724  -1.2667  -1.2166  -1.1719  -1.1410
 -1.1161  -1.0603  -1.0492  -0.9936  -0.9907  -0.9808  -0.9599  -0.9463
 -0.8986  -0.8807  -0.8767  -0.8638  -0.7922  -0.7802  -0.7776  -0.7576
 -0.7340  -0.7300  -0.7027  -0.6926  -0.6889  -0.6739  -0.6697  -0.6637
 -0.6578  -0.6421  -0.6395  -0.6369  -0.6272  -0.6147  -0.5858  -0.5824
 -0.5809  -0.5771  -0.5697  -0.5651  -0.5609  -0.5571  -0.5568  -0.5496
 -0.5339  -0.5258  -0.5228  -0.5177  -0.4859  -0.4706  -0.4689  -0.4634
 -0.4567  -0.4351  -0.4213  -0.4099  -0.4026  -0.3728  -0.3378  -0.3036
 -0.2937
 -- Virtual --
 -0.0175   0.0600   0.0682   0.1068   0.1194   0.1551   0.1573   0.1610
  0.1666   0.1756   0.1816   0.1853   0.1888   0.1914   0.2075   0.2097
  0.2250   0.2262   0.2283   0.2349   0.2483   0.2558   0.2620   0.2621
  0.2686   0.3045   0.3084   0.3145   0.3205   0.3273   0.3310   0.3393
  0.3435   0.3503   0.3556   0.3587   0.3595   0.3664   0.3685   0.3760
  0.3835   0.3871   0.3943   0.3969   0.4039   0.4076   0.4109   0.4141
  0.4196   0.4245   0.4327   0.4399   0.4440   0.4456   0.4514   0.4563
  0.4604   0.4623   0.4645   0.4745   0.4794   0.4817   0.4883   0.4930
  0.5004   0.5057   0.5100   0.5166   0.5185   0.5203   0.5278   0.5342
  0.5381   0.5435   0.5474   0.5505   0.5536   0.5580   0.5595   0.5698
  0.5726   0.5759   0.5820   0.5858   0.5911   0.5966   0.5985   0.6061
  0.6077   0.6129   0.6167   0.6180   0.6227   0.6234   0.6281   0.6300
  0.6329   0.6361   0.6408   0.6416   0.6442   0.6527   0.6640   0.6733
  0.6794   0.6813   0.6910   0.6990   0.7026   0.7089   0.7165   0.7254
  0.7317   0.7342   0.7395   0.7451   0.7542   0.7579   0.7619   0.7674
  0.7702   0.7815   0.7857   0.8002   0.8049   0.8100   0.8175   0.8233
  0.8282   0.8306   0.8365   0.8425   0.8455   0.8534   0.8612   0.8633
  0.8661   0.8668   0.8805   0.8826   0.8882   0.8930   0.9020   0.9088
  0.9103   0.9191   0.9212   0.9293   0.9347   0.9365   0.9430   0.9457
  0.9538   0.9556   0.9648   0.9684   0.9757   0.9769   0.9808   0.9860
  0.9933   0.9954   1.0002   1.0043   1.0107   1.0158   1.0207   1.0325
  1.0359   1.0403   1.0488   1.0560   1.0636   1.0694   1.0747   1.0767
  1.0784   1.0823   1.0897   1.0958   1.1046   1.1087   1.1107   1.1178
  1.1248   1.1313   1.1330   1.1402   1.1458   1.1467   1.1542   1.1567
  1.1661   1.1690   1.1698   1.1768   1.1842   1.1889   1.1946   1.1982
  1.2035   1.2094   1.2115   1.2233   1.2245   1.2282   1.2400   1.2422
  1.2498   1.2577   1.2598   1.2663   1.2712   1.2751   1.2889   1.2967
  1.3140   1.3237   1.3286   1.3344   1.3432   1.3473   1.3507   1.3531
  1.3704   1.3791   1.3831   1.3848   1.3889   1.4007   1.4086   1.4168
  1.4201   1.4284   1.4372   1.4511   1.4538   1.4543   1.4668   1.4719
  1.4758   1.4815   1.4895   1.4909   1.5008   1.5069   1.5170   1.5244
  1.5300   1.5340   1.5444   1.5461   1.5575   1.5598   1.5648   1.5701
  1.5725   1.5737   1.5837   1.5917   1.6053   1.6109   1.6191   1.6312
  1.6362   1.6485   1.6540   1.6628   1.6792   1.6822   1.6852   1.6896
  1.6981   1.7044   1.7231   1.7247   1.7276   1.7356   1.7457   1.7491
  1.7580   1.7645   1.7708   1.7778   1.7927   1.7956   1.8049   1.8101
  1.8211   1.8301   1.8375   1.8435   1.8500   1.8607   1.8644   1.8716
  1.8744   1.8929   1.9054   1.9103   1.9176   1.9284   1.9401   1.9472
  1.9614   1.9722   1.9735   1.9802   2.0000   2.0278   2.0338   2.0495
  2.0567   2.0620   2.0769   2.0941   2.1038   2.1194   2.1313   2.1435
  2.1503   2.1625   2.1728   2.1938   2.2089   2.2174   2.2219   2.2253
  2.2373   2.2473   2.2638   2.2801   2.2880   2.2904   2.2996   2.3068
  2.3094   2.3258   2.3490   2.3543   2.3642   2.3681   2.3782   2.3910
  2.4203   2.4349   2.4422   2.4494   2.4525   2.4568   2.4735   2.4756
  2.4944   2.4976   2.5023   2.5067   2.5204   2.5302   2.5416   2.5475
  2.5586   2.5766   2.5864   2.5903   2.5948   2.6022   2.6101   2.6157
  2.6200   2.6238   2.6462   2.6469   2.6619   2.6647   2.6676   2.6759
  2.6851   2.6873   2.6970   2.7104   2.7151   2.7241   2.7286   2.7362
  2.7398   2.7489   2.7517   2.7672   2.7717   2.7822   2.7897   2.7932
  2.8086   2.8133   2.8316   2.8396   2.8423   2.8524   2.8593   2.8668
  2.8749   2.8777   2.8870   2.8886   2.8917   2.8987   2.9047   2.9106
  2.9230   2.9247   2.9345   2.9410   2.9501   2.9564   2.9716   2.9758
  2.9785   2.9815   2.9892   3.0007   3.0035   3.0101   3.0156   3.0208
  3.0335   3.0406   3.0410   3.0511   3.0591   3.0717   3.0761   3.0856
  3.0942   3.0967   3.0996   3.1044   3.1128   3.1159   3.1197   3.1233
  3.1308   3.1361   3.1468   3.1530   3.1696   3.1714   3.1789   3.1873
  3.1901   3.1990   3.2017   3.2073   3.2151   3.2176   3.2197   3.2242
  3.2279   3.2296   3.2358   3.2474   3.2517   3.2536   3.2600   3.2645
  3.2726   3.2756   3.2796   3.2821   3.2857   3.2940   3.2974   3.3046
  3.3063   3.3147   3.3207   3.3261   3.3297   3.3331   3.3366   3.3417
  3.3438   3.3461   3.3509   3.3581   3.3652   3.3714   3.3735   3.3791
  3.3829   3.3871   3.3958   3.3996   3.4024   3.4062   3.4141   3.4176
  3.4286   3.4314   3.4417   3.4474   3.4494   3.4533   3.4545   3.4589
  3.4637   3.4681   3.4723   3.4773   3.4845   3.4865   3.4939   3.4957
  3.4988   3.4998   3.5090   3.5125   3.5164   3.5219   3.5263   3.5332
  3.5342   3.5393   3.5457   3.5577   3.5615   3.5726   3.5766   3.5850
  3.5867   3.6004   3.6031   3.6087   3.6169   3.6211   3.6228   3.6332
  3.6371   3.6430   3.6463   3.6515   3.6584   3.6675   3.6690   3.6784
  3.6842   3.6936   3.7022   3.7067   3.7114   3.7158   3.7175   3.7223
  3.7291   3.7325   3.7439   3.7501   3.7540   3.7596   3.7669   3.7717
  3.7800   3.7829   3.7883   3.7914   3.7972   3.7990   3.8014   3.8115
  3.8185   3.8227   3.8333   3.8375   3.8427   3.8487   3.8535   3.8628
  3.8669   3.8706   3.8804   3.8857   3.8959   3.8996   3.9053   3.9239
  3.9335   3.9381   3.9461   3.9490   3.9524   3.9586   3.9675   3.9828
  3.9905   3.9974   4.0028   4.0118   4.0138   4.0173   4.0376   4.0396
  4.0510   4.0673   4.0756   4.0782   4.0808   4.0861   4.0980   4.1063
  4.1209   4.1306   4.1326   4.1462   4.1534   4.1562   4.1726   4.1759
  4.1789   4.1869   4.1968   4.2065   4.2117   4.2199   4.2270   4.2392
  4.2470   4.2519   4.2675   4.2733   4.2774   4.2802   4.2836   4.2914
  4.2957   4.2986   4.3138   4.3166   4.3223   4.3249   4.3362   4.3405
  4.3517   4.3522   4.3604   4.3656   4.3660   4.3707   4.3792   4.3823
  4.3900   4.3995   4.4076   4.4117   4.4199   4.4256   4.4324   4.4522
  4.4625   4.4717   4.4756   4.4842   4.4906   4.4986   4.5193   4.5202
  4.5239   4.5363   4.5432   4.5440   4.5481   4.5556   4.5662   4.5726
  4.5754   4.5816   4.5826   4.5913   4.6132   4.6153   4.6277   4.6397
  4.6425   4.6658   4.6700   4.6721   4.6735   4.6790   4.6898   4.6943
  4.7230   4.7294   4.7425   4.7462   4.7603   4.7790   4.7828   4.7963
  4.8124   4.8267   4.8366   4.8389   4.8574   4.8647   4.8717   4.8781
  4.8856   4.8940   4.9117   4.9361   4.9372   4.9532   4.9741   4.9815
  4.9911   5.0187   5.0311   5.0349   5.0429   5.0486   5.0532   5.0581
  5.0903   5.1019   5.1067   5.1173   5.1265   5.1319   5.1409   5.1495
  5.1647   5.1736   5.1805   5.1959   5.2033   5.2353   5.2403   5.2550
  5.2656   5.2760   5.2840   5.2964   5.3185   5.3249   5.3305   5.3472
  5.3565   5.3941   5.3949   5.4019   5.4251   5.4325   5.4406   5.4610
  5.4872   5.5065   5.5081   5.5083   5.5110   5.5304   5.5473   5.5532
  5.5595   5.5606   5.5707   5.5770   5.5812   5.5900   5.6025   5.6155
  5.6268   5.6409   5.6518   5.6537   5.6626   5.6748   5.6764   5.6955
  5.7016   5.7165   5.7325   5.7369   5.7496   5.7586   5.7668   5.7737
  5.7775   5.7875   5.8129   5.8245   5.8671   5.8709   5.9123   5.9293
  5.9578   5.9674   6.0085   6.0211   6.0241   6.0260   6.0328   6.0434
  6.0689   6.0963   6.1001   6.1140   6.1337   6.1761   6.1926   6.2111
  6.2172   6.2205   6.2316   6.2695   6.2767   6.2818   6.3141   6.3482
  6.3574   6.3703   6.4332   6.4498   6.4682   6.5283   6.5594   6.5639
  6.5876   6.6163   6.6311   6.6449   6.6468   6.6568   6.7068   6.8329
  6.8359   6.8827   6.8857   6.8965   6.9110   6.9273   6.9876   7.0789
  7.1331   7.1494   7.1846   7.2147   7.3073   7.3320   7.3406   7.3436
  7.3525   7.4659   7.5473   7.5581   7.5748   7.5795   7.6343   7.6465
  7.6762   7.7138   7.7864   8.3901   9.8694  10.3341  11.1071  11.2205
 11.6933  11.7711  12.0103  12.3854  12.4970  12.7741  12.8643  12.8940
 13.2862  13.5457  13.8194  13.9397  14.0513  14.1546  14.2606  14.3659
 14.4206  14.7375  15.3310  15.7324  15.9771
 --------------------------------------------------------------
 
          Ground-State Mulliken Net Atomic Charges

     Atom                 Charge (a.u.)
  ----------------------------------------
      1 C                    -0.153139
      2 C                    -0.108875
      3 C                    -0.027307
      4 C                    -0.008123
      5 H                     0.187713
      6 C                    -0.006837
      7 C                     0.088440
      8 C                     0.002138
      9 C                    -0.124063
     10 C                    -0.143971
     11 C                     0.090467
     12 H                     0.182371
     13 C                     0.360254
     14 C                     0.363886
     15 N                    -0.101759
     16 C                     0.359414
     17 C                     0.415188
     18 N                    -0.092307
     19 O                    -0.463389
     20 O                    -0.475914
     21 O                    -0.481798
     22 O                    -0.422717
     23 C                    -0.201110
     24 H                     0.141140
     25 H                     0.112356
     26 H                     0.112460
     27 C                    -0.199682
     28 H                     0.135637
     29 H                     0.114064
     30 H                     0.113759
     31 H                     0.211823
     32 C                    -0.066120
     33 S                     0.120132
     34 C                    -0.212591
     35 C                    -0.140001
     36 C                    -0.258607
     37 H                     0.187442
     38 H                     0.183576
     39 H                     0.206048
  ----------------------------------------
  Sum of atomic charges =     0.000000

 -----------------------------------------------------------------
                    Cartesian Multipole Moments
 -----------------------------------------------------------------
    Charge (ESU x 10^10)
                 0.0000
    Dipole Moment (Debye)
         X       1.3694      Y       0.8645      Z       0.5795
       Tot       1.7201
    Quadrupole Moments (Debye-Ang)
        XX    -163.6346     XY       4.0847     YY    -174.6478
        XZ      -4.2964     YZ       0.3552     ZZ    -172.2379
    Octopole Moments (Debye-Ang^2)
       XXX     -88.0704    XXY     488.4126    XYY     -15.1167
       YYY    1622.9671    XXZ     -28.7008    XYZ      29.2730
       YYZ     -24.2444    XZZ     -22.5738    YZZ     551.9607
       ZZZ     -94.1622
    Hexadecapole Moments (Debye-Ang^3)
      XXXX    -996.5101   XXXY    -215.1378   XXYY   -2849.5962
      XYYY    -327.7625   YYYY  -17300.5218   XXXZ    -943.3728
      XXYZ     -80.3506   XYYZ    -493.6713   YYYZ    -745.4968
      XXZZ   -1103.3205   XYZZ      44.8762   YYZZ   -4061.4425
      XZZZ   -1009.7531   YZZZ     -78.3472   ZZZZ   -5688.3518
 -----------------------------------------------------------------
 Total job time:  276.44s(wall), 8642.20s(cpu) 
 Fri Dec 15 14:41:37 2023

        *************************************************************
        *                                                           *
        *  Thank you very much for using Q-Chem.  Have a nice day.  *
        *                                                           *
        *************************************************************


0 sent ACK to 0 
now end server 0 ... 
cleanup process ... done
remove work dirs ./qchem2782768.0 -- ./qchem2782768.0
rm -rf ./qchem2782768.0
rm -rf ./qchem2782768
