You are running Q-Chem version: 5.4.0

#
# job setting
#
local host:  exp-1-56
current dir: /home/rramji/project-csd799/aromodel/pndit-qchem/rotation_run
input file:  Dimethyl_Naphthalene_Dicarboximide_Phi_20_Theta_160_Thiophene.qcin
output file: 
nprocs     : 1
nthreads   : 64
#
# qchem installation setting
#
QC:          /cm/shared/apps/spack/cpu/opt/spack/linux-centos8-zen2/gcc-10.2.0/qchem-5.4-akfmr7b3t57bfs6qan3padb2wnb2i7cl
QCAUX:       /cm/shared/apps/spack/cpu/opt/spack/linux-centos8-zen2/gcc-10.2.0/qchem-5.4-akfmr7b3t57bfs6qan3padb2wnb2i7cl/qcaux
QCPROG:      /cm/shared/apps/spack/cpu/opt/spack/linux-centos8-zen2/gcc-10.2.0/qchem-5.4-akfmr7b3t57bfs6qan3padb2wnb2i7cl/exe/qcprog.exe
QCPROG_S:    /cm/shared/apps/spack/cpu/opt/spack/linux-centos8-zen2/gcc-10.2.0/qchem-5.4-akfmr7b3t57bfs6qan3padb2wnb2i7cl/exe/qcprog.exe_s
PARALLEL:    -DPARALLEL
QCMPI:       mpich
#
# qchem directory setting
#
qcrun:       qchem3171265
QCSCRATCH:   .
QCLOCALSCR:  
QCTMPDIR:    .
QCFILEPREF:  ./qchem3171265
QCSAVEDIR:   
workdirs:    ./qchem3171265
workdir0:    ./qchem3171265
partmpdirs =  
#
# parallel setting
#
QCRSH:           ssh
QCMPI:           mpich
QCMPIRUN:        /cm/shared/apps/spack/cpu/opt/spack/linux-centos8-zen2/gcc-10.2.0/qchem-5.4-akfmr7b3t57bfs6qan3padb2wnb2i7cl/bin/mpi/mpirun_qchem
QCMACHINEFILE:   ./qchem3171265/hostfile
exp-1-56

#
# env setting
#
exported envs:   QC QCAUX QCSCRATCH QCRUNNAME QCFILEPREF QCPROG QCPROG_S GUIFILE

Running Job 1 of 1 Dimethyl_Naphthalene_Dicarboximide_Phi_20_Theta_160_Thiophene.qcin
qchem Dimethyl_Naphthalene_Dicarboximide_Phi_20_Theta_160_Thiophene.qcin_3171265.0 ./qchem3171265/ 1
/cm/shared/apps/spack/cpu/opt/spack/linux-centos8-zen2/gcc-10.2.0/qchem-5.4-akfmr7b3t57bfs6qan3padb2wnb2i7cl/bin/mpi/mpirun_qchem -machinefile ./qchem3171265/hostfile -np 1 /cm/shared/apps/spack/cpu/opt/spack/linux-centos8-zen2/gcc-10.2.0/qchem-5.4-akfmr7b3t57bfs6qan3padb2wnb2i7cl/exe/qcprog.exe Dimethyl_Naphthalene_Dicarboximide_Phi_20_Theta_160_Thiophene.qcin_3171265.0 ./qchem3171265/

Process 0 of 1 is on exp-1-56 - thread support 0
initial socket setup ...start
initial socket setup ...done 
now start server 0 ... 
                  Welcome to Q-Chem
     A Quantum Leap Into The Future Of Chemistry


 Q-Chem 5.4, Q-Chem, Inc., Pleasanton, CA (2021)

 License issued to: University of California, San Diego (site)

 E. Epifanovsky,  A. T. B. Gilbert,  Xintian Feng,  Joonho Lee,  Yuezhi Mao,  
 N. Mardirossian,  P. Pokhilko,  A. White,  M. Wormit,  M. P. Coons,  
 A. L. Dempwolff,  Zhengting Gan,  D. Hait,  P. R. Horn,  L. D. Jacobson,  
 I. Kaliman,  J. Kussmann,  A. W. Lange,  Ka Un Lao,  D. S. Levine,  Jie Liu,  
 S. C. McKenzie,  A. F. Morrison,  K. Nanda,  F. Plasser,  D. R. Rehn,  
 M. L. Vidal,  Zhi-Qiang You,  Ying Zhu,  B. Alam,  B. Albrecht,  
 A. Aldossary,  E. Alguire,  J. H. Andersen,  D. Barton,  K. Begam,  A. Behn,  
 Y. A. Bernard,  E. J. Berquist,  H. Burton,  A. Carreras,  K. Carter-Fenk,  
 R. Chakraborty,  A. D. Chien,  K. D. Closser,  V. Cofer-Shabica,  
 S. Dasgupta,  Jia Deng,  M. de Wergifosse,  M. Diedenhofen,  Hainam Do,  
 S. Ehlert,  Po-Tung Fang,  S. Fatehi,  Qingguo Feng,  J. Gayvert,  
 Qinghui Ge,  G. Gidofalvi,  M. Goldey,  J. Gomes,  C. Gonzalez-Espinoza,  
 S. Gulania,  A. Gunina,  M. W. D. Hanson-Heine,  P. H. P. Harbach,  
 A. W. Hauser,  M. F. Herbst,  M. Hernandez Vera,  M. Hodecker,  
 Z. C. Holden,  S. Houck,  Xunkun Huang,  Kerwin Hui,  B. C. Huynh,  
 M. Ivanov,  Hyunjun Ji,  Hanjie Jiang,  B. Kaduk,  S. Kaehler,  
 K. Khistyaev,  Jaehoon Kim,  P. Klunzinger,  Z. Koczor-Benda,  
 Joong Hoon Koh,  D. Kosenkov,  L. Koulias,  T. Kowalczyk,  C. M. Krauter,  
 K. Kue,  A. Kunitsa,  T. Kus,  A. Landau,  K. V. Lawler,  D. Lefrancois,  
 S. Lehtola,  Rain Li,  Yi-Pei Li,  Jiashu Liang,  M. Liebenthal,  
 Hung-Hsuan Lin,  You-Sheng Lin,  Fenglai Liu,  Kuan-Yu Liu,  
 M. Loipersberger,  A. Luenser,  A. Manjanath,  P. Manohar,  E. Mansoor,  
 S. F. Manzer,  Shan-Ping Mao,  A. V. Marenich,  T. Markovich,  S. Mason,  
 S. A. Maurer,  P. F. McLaughlin,  M. F. S. J. Menger,  J.-M. Mewes,  
 S. A. Mewes,  P. Morgante,  J. W. Mullinax,  T. S. Nguyen-Beck,  
 K. J. Oosterbaan,  G. Paran,  Alexander C. Paul,  Suranjan K. Paul,  
 F. Pavosevic,  Zheng Pei,  S. Prager,  E. I. Proynov,  E. Ramos,  B. Rana,  
 A. E. Rask,  A. Rettig,  R. M. Richard,  F. Rob,  E. Rossomme,  T. Scheele,  
 M. Scheurer,  M. Schneider,  N. Sergueev,  S. M. Sharada,  W. Skomorowski,  
 D. W. Small,  C. J. Stein,  Yu-Chuan Su,  E. J. Sundstrom,  Zhen Tao,  
 J. Thirman,  T. Tsuchimochi,  N. M. Tubman,  S. P. Veccham,  O. Vydrov,  
 J. Wenzel,  J. Witte,  A. Yamada,  Kun Yao,  S. Yeganeh,  S. R. Yost,  
 A. Zech,  Igor Ying Zhang,  Xing Zhang,  Yu Zhang,  D. Zuev,  
 A. Aspuru-Guzik,  A. T. Bell,  N. A. Besley,  K. B. Bravaya,  B. R. Brooks,  
 D. Casanova,  Jeng-Da Chai,  S. Coriani,  C. J. Cramer,  
 A. E. DePrince, III,  R. A. DiStasio Jr.,  A. Dreuw,  B. D. Dunietz,  
 T. R. Furlani,  W. A. Goddard III,  S. Grimme,  S. Hammes-Schiffer,  
 T. Head-Gordon,  W. J. Hehre,  Chao-Ping Hsu,  T.-C. Jagau,  Yousung Jung,  
 A. Klamt,  Jing Kong,  D. S. Lambrecht,  WanZhen Liang,  N. J. Mayhall,  
 C. W. McCurdy,  J. B. Neaton,  C. Ochsenfeld,  J. A. Parkhill,  R. Peverati,  
 V. A. Rassolov,  Yihan Shao,  L. V. Slipchenko,  T. Stauch,  R. P. Steele,  
 J. E. Subotnik,  A. J. W. Thom,  A. Tkatchenko,  D. G. Truhlar,  
 T. Van Voorhis,  T. A. Wesolowski,  K. B. Whaley,  H. L. Woodcock III,  
 P. M. Zimmerman,  S. Faraji,  P. M. W. Gill,  M. Head-Gordon,  
 J. M. Herbert,  A. I. Krylov

 Contributors to earlier versions of Q-Chem not listed above: 
 R. D. Adamson,  B. Austin,  R. Baer,  J. Baker,  G. J. O. Beran,  
 K. Brandhorst,  S. T. Brown,  E. F. C. Byrd,  A. K. Chakraborty,  
 G. K. L. Chan,  Chun-Min Chang,  Yunqing Chen,  C.-L. Cheng,  
 Siu Hung Chien,  D. M. Chipman,  D. L. Crittenden,  H. Dachsel,  
 R. J. Doerksen,  A. D. Dutoi,  R. G. Edgar,  J. Fosso-Tande,  
 L. Fusti-Molnar,  D. Ghosh,  A. Ghysels,  A. Golubeva-Zadorozhnaya,  
 J. Gonthier,  M. S. Gordon,  S. R. Gwaltney,  G. Hawkins,  J. E. Herr,  
 A. Heyden,  S. Hirata,  E. G. Hohenstein,  G. Kedziora,  F. J. Keil,  
 C. Kelley,  Jihan Kim,  R. A. King,  R. Z. Khaliullin,  P. P. Korambath,  
 W. Kurlancheek,  A. Laurent,  A. M. Lee,  M. S. Lee,  S. V. Levchenko,  
 Ching Yeh Lin,  D. Liotard,  E. Livshits,  R. C. Lochan,  I. Lotan,  
 L. A. Martinez-Martinez,  P. E. Maslen,  N. Nair,  D. P. O'Neill,  
 D. Neuhauser,  E. Neuscamman,  C. M. Oana,  R. Olivares-Amaya,  R. Olson,  
 T. M. Perrine,  B. Peters,  P. A. Pieniazek,  A. Prociuk,  Y. M. Rhee,  
 J. Ritchie,  M. A. Rohrdanz,  E. Rosta,  N. J. Russ,  H. F. Schaefer III,  
 M. W. Schmidt,  N. E. Schultz,  S. Sharma,  N. Shenvi,  C. D. Sherrill,  
 A. C. Simmonett,  A. Sodt,  T. Stein,  D. Stuck,  K. S. Thanthiriwatte,  
 V. Vanovschi,  L. Vogt,  Tao Wang,  A. Warshel,  M. A. Watson,  
 C. F. Williams,  Q. Wu,  X. Xu,  Jun Yang,  W. Zhang,  Yan Zhao

 Please cite Q-Chem as follows:
 Y. Shao et al., Mol. Phys. 113, 184-215 (2015)
 DOI: 10.1080/00268976.2014.952696

 Q-Chem 5.4.0 for Intel X86 EM64T Linux

 Parts of Q-Chem use Armadillo 9.800.1 (Horizon Scraper).
 http://arma.sourceforge.net/

 Q-Chem begins on Fri Dec 15 14:42:06 2023  

 Host: 
0

     Scratch files written to ./qchem3171265//
 May1621 |scratch|qcdevops|jenkins|workspace|build_RNUM    
 Parallel job on  1  processors
 Processing $rem in /cm/shared/apps/spack/cpu/opt/spack/linux-centos8-zen2/gcc-10.2.0/qchem-5.4-akfmr7b3t57bfs6qan3padb2wnb2i7cl/config/preferences:
 Processing $rem in /home/rramji/.qchemrc:
 Symmetry turned off for PCM/SM12/SMD calculation
 Core orbitals will be frozen

 Checking the input file for inconsistencies... 	...done.

 Q-Chem warning in module forms1/BasisType.C, line 2236:

 You are not using the predefined 5D/6D in this basis set.


--------------------------------------------------------------
User input:
--------------------------------------------------------------
$molecule
0 1
C	0.089263	-6.741404	0.240927
C	0.535973	-6.155638	1.467886
C	-0.281103	-5.791452	-0.777972
C	0.631036	-4.803786	1.729742
H	0.836458	-6.821518	2.292903
C	-0.181995	-4.378638	-0.503614
C	0.272725	-3.838032	0.746756
C	-0.539954	-3.413062	-1.485437
C	0.371053	-2.426473	1.018915
C	-0.446381	-2.059348	-1.226557
C	-0.000000	-1.478216	-0.000000
H	-0.747410	-1.394783	-2.052413
C	-0.772747	-6.187987	-2.134128
C	-1.029154	-3.798164	-2.829820
N	-1.110828	-5.170003	-3.059182
C	1.121728	-4.424987	3.077731
C	0.864069	-2.036627	2.375694
N	1.201928	-3.049156	3.301101
O	-0.903908	-7.353131	-2.502830
O	-1.345809	-2.986854	-3.697078
O	1.434422	-5.248946	3.934752
O	1.003943	-0.878829	2.764177
C	-1.592981	-5.563799	-4.386939
H	-1.607367	-6.664085	-4.429822
H	-0.924504	-5.147101	-5.164489
H	-2.605446	-5.148785	-4.553486
C	1.677308	-2.587487	4.608481
H	1.898089	-3.483329	5.211969
H	0.902337	-1.964972	5.094624
H	2.582098	-1.962932	4.483092
H	0.025963	-7.822318	0.066080
C	0.000000	0.000000	0.000000
S	0.271091	0.745405	1.580530
C	0.831198	2.284363	0.904911
C	0.341175	0.937861	-0.985400
C	0.792631	2.178516	-0.493528
H	0.260601	0.716417	-2.059934
H	1.093860	3.006347	-1.152593
H	1.132330	3.111961	1.556025
$end

$rem
JOBTYPE		SP
EXCHANGE	HF
CORRELATION	pRIMP2
BASIS		cc-pvtz
METHOD		rimp2
AUX_BASIS	rimp2-cc-pvtz
SOLVENT_METHOD	PCM
PURECART	11111
SYMMETRY	false
MEM_TOTAL	110000
SCF_CONVERGENCE = 6
THRESH=10
GUI = 2
$end



$solvent
dielectric 4.90
$end
--------------------------------------------------------------
 ----------------------------------------------------------------
             Standard Nuclear Orientation (Angstroms)
    I     Atom           X                Y                Z
 ----------------------------------------------------------------
    1      C       0.0892630000    -6.7414040000     0.2409270000
    2      C       0.5359730000    -6.1556380000     1.4678860000
    3      C      -0.2811030000    -5.7914520000    -0.7779720000
    4      C       0.6310360000    -4.8037860000     1.7297420000
    5      H       0.8364580000    -6.8215180000     2.2929030000
    6      C      -0.1819950000    -4.3786380000    -0.5036140000
    7      C       0.2727250000    -3.8380320000     0.7467560000
    8      C      -0.5399540000    -3.4130620000    -1.4854370000
    9      C       0.3710530000    -2.4264730000     1.0189150000
   10      C      -0.4463810000    -2.0593480000    -1.2265570000
   11      C       0.0000000000    -1.4782160000     0.0000000000
   12      H      -0.7474100000    -1.3947830000    -2.0524130000
   13      C      -0.7727470000    -6.1879870000    -2.1341280000
   14      C      -1.0291540000    -3.7981640000    -2.8298200000
   15      N      -1.1108280000    -5.1700030000    -3.0591820000
   16      C       1.1217280000    -4.4249870000     3.0777310000
   17      C       0.8640690000    -2.0366270000     2.3756940000
   18      N       1.2019280000    -3.0491560000     3.3011010000
   19      O      -0.9039080000    -7.3531310000    -2.5028300000
   20      O      -1.3458090000    -2.9868540000    -3.6970780000
   21      O       1.4344220000    -5.2489460000     3.9347520000
   22      O       1.0039430000    -0.8788290000     2.7641770000
   23      C      -1.5929810000    -5.5637990000    -4.3869390000
   24      H      -1.6073670000    -6.6640850000    -4.4298220000
   25      H      -0.9245040000    -5.1471010000    -5.1644890000
   26      H      -2.6054460000    -5.1487850000    -4.5534860000
   27      C       1.6773080000    -2.5874870000     4.6084810000
   28      H       1.8980890000    -3.4833290000     5.2119690000
   29      H       0.9023370000    -1.9649720000     5.0946240000
   30      H       2.5820980000    -1.9629320000     4.4830920000
   31      H       0.0259630000    -7.8223180000     0.0660800000
   32      C       0.0000000000     0.0000000000     0.0000000000
   33      S       0.2710910000     0.7454050000     1.5805300000
   34      C       0.8311980000     2.2843630000     0.9049110000
   35      C       0.3411750000     0.9378610000    -0.9854000000
   36      C       0.7926310000     2.1785160000    -0.4935280000
   37      H       0.2606010000     0.7164170000    -2.0599340000
   38      H       1.0938600000     3.0063470000    -1.1525930000
   39      H       1.1323300000     3.1119610000     1.5560250000
 ----------------------------------------------------------------
 Nuclear Repulsion Energy =        2518.14757839 hartrees
 There are       97 alpha and       97 beta electrons
 Requested basis set is cc-pVTZ
 There are 344 shells and 982 basis functions

 Total QAlloc Memory Limit 110000 MB
 Mega-Array Size       188 MB
 MEM_STATIC part       192 MB
 Discretize the solute cavity surface with Lebedev spheres
	Using 110 Lebedev grid points for each H atom
	Using 194 Lebedev grid points for other atoms
	Atomic van der Waals radii will be scaled by 1.20
 Remove points where switching function is < 1.0e-08
 Keep 2521 surface tesserae and discard 4037 interior tesserae
 Molecular Surface Area = 359.209 Angst**2
 Requested basis set is rimp2-cc-pVTZ
 There are 750 shells and 2588 basis functions
 A cutoff of  1.0D-10 yielded  31837 shell pairs
 There are    245041 function pairs (    318367 Cartesian)
 Smallest overlap matrix eigenvalue = 9.78E-06

 Q-Chem warning in module stvman/mkSTV.C, line 323:

 Overlap eigenvalue is smaller than square root of threshold
 Use THRESH >= 12 to get rid of this warning


 Scale SEOQF with 1.000000e-01/1.000000e-02/1.000000e-01

 Standard Electronic Orientation quadrupole field applied
 Nucleus-field energy     =    -0.0000000972 hartrees
 Guess from superposition of atomic densities
 Warning:  Energy on first SCF cycle will be non-variational
 SAD guess density has 194.000000 electrons

 -----------------------------------------------------------------------
  General SCF calculation program by
  Eric Jon Sundstrom, Paul Horn, Yuezhi Mao, Dmitri Zuev, Alec White,
  David Stuck, Shaama M.S., Shane Yost, Joonho Lee, David Small,
  Daniel Levine, Susi Lehtola, Hugh Burton, Evgeny Epifanovsky,
  Bang C. Huynh
 -----------------------------------------------------------------------
 Hartree-Fock
 using 64 threads for integral computing
 -------------------------------------------------------
 OpenMP Integral computing Module                
 Release: version 1.0, May 2013, Q-Chem Inc. Pittsburgh 
 -------------------------------------------------------
 A restricted SCF calculation will be
 performed using DIIS
 SCF converges when DIIS error is below 1.0e-06
 ---------------------------------------
  Cycle       Energy         DIIS error
 ---------------------------------------
    1   -1581.4744399652      1.88e-02  
    2   -1570.0648275345      2.07e-03  
    3   -1570.3892956012      1.60e-03  
    4   -1570.6136766058      2.61e-04  
    5   -1570.6258961739      7.71e-05  
    6   -1570.6269753956      2.84e-05  
    7   -1570.6272295702      1.45e-05  
    8   -1570.6273147404      6.08e-06  
    9   -1570.6273298142      2.48e-06  
   10   -1570.6273328442      9.84e-07  Convergence criterion met
 ---------------------------------------
 SCF time:   CPU 5919.58s  wall 223.00s 

************** Final PCM Free Energy Summary **************
 G_electrostatic  =      -0.02174853 hartree =     -13.64740927 kcal/mol
 G_cavitation     =       0.00000000 hartree =       0.00000000 kcal/mol
 G_dispersion     =       0.00000000 hartree =       0.00000000 kcal/mol
 G_repulsion      =       0.00000000 hartree =       0.00000000 kcal/mol
 --------------------------------------------------
 Non-electrostatic Free Energy =       0.00000000 hartree =       0.00000000 kcal/mol
 Total                         =      -0.02174853 hartree =     -13.64740927 kcal/mol
 --------------------------------------------------
 SCF Energy (H0 + V/2)                       =   -1570.62733284 
 Solute Internal Energy (H0)                 =   -1570.60558431 
 Total Free Energy (H0 + V/2 + non-elec)     =   -1570.62733284 hartree
                                             = -985583.52677119 kcal/mol
***********************************************************

 SCF   energy in the final basis set =    -1570.6273328442
 Total energy in the final basis set =    -1570.6273328442


 --------------------------------------------------------------
  Generalized many-body perturbation theory program
  by Joonho Lee, Fazle Rob, Xintian Feng, Evgeny Epifanovsky

 No regularization used 
 (reg. param. = 0.0000e+00)
  (P|Q)^-1/2 Time:  CPU 666.01 s  wall 10.99 s

 In RI-MP2 calculation: 
 # of frozen core orbitals: 31

 Components of the RIMP2 correlation energy:
        aaaa    correlation energy =        -0.6213012748 a.u.
        abab    correlation energy =        -3.4014803166 a.u.
        bbbb    correlation energy =        -0.6213012748 a.u.
        non-Brillouin singles      =        -0.0000000000 a.u.
        total same-spin energy     =        -1.2426025496 a.u.
        total opposite-spin energy =        -3.4014803166 a.u.

 Total  RIMP2   correlation energy =        -4.6440828663 a.u.
        RIMP2         total energy =     -1575.2714157104 a.u.

 RI-MP2 Energy Time:  CPU 2818.58 s  wall 47.28 s
 
 --------------------------------------------------------------
 
                    Orbital Energies (a.u.)
 --------------------------------------------------------------
 
 Alpha MOs
 -- Occupied --
-91.9800 -20.5590 -20.5569 -20.5569 -20.5545 -15.6329 -15.6315 -11.4016
-11.4002 -11.3922 -11.3911 -11.3212 -11.3025 -11.3013 -11.2985 -11.2949
-11.2934 -11.2876 -11.2841 -11.2832 -11.2792 -11.2775 -11.2734 -11.2660
-11.2648 -11.2580 -11.2389  -8.9799  -6.6602  -6.6589  -6.6580  -1.4350
 -1.4252  -1.4083  -1.4046  -1.2706  -1.2667  -1.2169  -1.1715  -1.1418
 -1.1166  -1.0611  -1.0496  -0.9934  -0.9894  -0.9802  -0.9597  -0.9466
 -0.8978  -0.8806  -0.8775  -0.8636  -0.7928  -0.7788  -0.7772  -0.7583
 -0.7322  -0.7280  -0.7027  -0.6926  -0.6891  -0.6740  -0.6684  -0.6635
 -0.6576  -0.6410  -0.6397  -0.6368  -0.6275  -0.6145  -0.5847  -0.5821
 -0.5806  -0.5754  -0.5699  -0.5651  -0.5619  -0.5565  -0.5564  -0.5494
 -0.5335  -0.5239  -0.5230  -0.5185  -0.4867  -0.4706  -0.4694  -0.4636
 -0.4569  -0.4338  -0.4213  -0.4103  -0.4038  -0.3734  -0.3376  -0.3173
 -0.2956
 -- Virtual --
 -0.0191   0.0583   0.0683   0.1074   0.1236   0.1556   0.1574   0.1606
  0.1664   0.1766   0.1819   0.1846   0.1882   0.1953   0.2074   0.2109
  0.2255   0.2266   0.2282   0.2354   0.2509   0.2557   0.2630   0.2645
  0.2689   0.3076   0.3105   0.3149   0.3246   0.3286   0.3310   0.3389
  0.3439   0.3507   0.3557   0.3578   0.3604   0.3652   0.3692   0.3762
  0.3844   0.3848   0.3940   0.3971   0.4023   0.4077   0.4114   0.4146
  0.4218   0.4253   0.4336   0.4408   0.4448   0.4469   0.4511   0.4572
  0.4615   0.4627   0.4658   0.4750   0.4787   0.4808   0.4894   0.4929
  0.5022   0.5069   0.5090   0.5174   0.5177   0.5190   0.5293   0.5320
  0.5382   0.5449   0.5456   0.5516   0.5545   0.5583   0.5594   0.5691
  0.5727   0.5779   0.5808   0.5874   0.5912   0.5961   0.5984   0.6031
  0.6059   0.6125   0.6140   0.6182   0.6227   0.6230   0.6257   0.6289
  0.6325   0.6357   0.6397   0.6406   0.6440   0.6550   0.6648   0.6723
  0.6791   0.6842   0.6919   0.6986   0.7029   0.7098   0.7151   0.7306
  0.7354   0.7389   0.7396   0.7436   0.7538   0.7574   0.7601   0.7670
  0.7723   0.7801   0.7837   0.8006   0.8052   0.8116   0.8152   0.8252
  0.8256   0.8342   0.8392   0.8431   0.8458   0.8517   0.8605   0.8645
  0.8650   0.8668   0.8778   0.8823   0.8890   0.8966   0.9014   0.9102
  0.9122   0.9149   0.9188   0.9296   0.9322   0.9415   0.9448   0.9493
  0.9532   0.9568   0.9610   0.9675   0.9756   0.9771   0.9805   0.9883
  0.9929   0.9962   1.0021   1.0033   1.0104   1.0153   1.0226   1.0316
  1.0401   1.0413   1.0481   1.0553   1.0632   1.0685   1.0723   1.0764
  1.0800   1.0823   1.0909   1.0937   1.1009   1.1098   1.1116   1.1191
  1.1211   1.1287   1.1328   1.1386   1.1449   1.1510   1.1535   1.1539
  1.1650   1.1692   1.1708   1.1771   1.1814   1.1879   1.1939   1.1974
  1.2054   1.2087   1.2117   1.2223   1.2242   1.2275   1.2403   1.2460
  1.2513   1.2526   1.2570   1.2629   1.2656   1.2729   1.2858   1.2913
  1.3184   1.3233   1.3254   1.3346   1.3390   1.3468   1.3498   1.3524
  1.3682   1.3785   1.3816   1.3841   1.3872   1.3965   1.4060   1.4177
  1.4198   1.4292   1.4372   1.4511   1.4538   1.4560   1.4663   1.4710
  1.4736   1.4798   1.4846   1.4914   1.5024   1.5084   1.5183   1.5266
  1.5311   1.5328   1.5441   1.5460   1.5577   1.5586   1.5642   1.5666
  1.5736   1.5740   1.5773   1.5945   1.6065   1.6119   1.6178   1.6323
  1.6380   1.6503   1.6517   1.6593   1.6760   1.6771   1.6819   1.6911
  1.6974   1.7095   1.7193   1.7240   1.7285   1.7331   1.7440   1.7488
  1.7535   1.7644   1.7704   1.7764   1.7921   1.7988   1.8074   1.8101
  1.8203   1.8330   1.8404   1.8436   1.8499   1.8607   1.8628   1.8719
  1.8767   1.8919   1.9030   1.9140   1.9160   1.9291   1.9325   1.9458
  1.9618   1.9670   1.9731   1.9788   1.9963   2.0266   2.0280   2.0385
  2.0587   2.0672   2.0878   2.0955   2.1026   2.1228   2.1377   2.1450
  2.1491   2.1628   2.1714   2.1947   2.2018   2.2185   2.2254   2.2337
  2.2355   2.2490   2.2697   2.2844   2.2873   2.2933   2.2971   2.3081
  2.3131   2.3284   2.3469   2.3511   2.3584   2.3622   2.3754   2.3930
  2.4258   2.4331   2.4423   2.4466   2.4527   2.4563   2.4724   2.4779
  2.4911   2.4940   2.4994   2.5062   2.5158   2.5317   2.5385   2.5489
  2.5571   2.5745   2.5852   2.5911   2.5956   2.5995   2.6093   2.6148
  2.6211   2.6240   2.6453   2.6473   2.6596   2.6640   2.6678   2.6762
  2.6805   2.6855   2.7019   2.7078   2.7141   2.7269   2.7290   2.7304
  2.7387   2.7472   2.7499   2.7584   2.7682   2.7768   2.7848   2.7938
  2.8017   2.8108   2.8272   2.8366   2.8407   2.8505   2.8538   2.8667
  2.8720   2.8798   2.8830   2.8864   2.8885   2.8960   2.8983   2.9049
  2.9178   2.9198   2.9311   2.9386   2.9479   2.9566   2.9624   2.9705
  2.9751   2.9770   2.9848   2.9997   3.0035   3.0096   3.0115   3.0169
  3.0346   3.0383   3.0412   3.0496   3.0555   3.0650   3.0695   3.0779
  3.0854   3.0946   3.0989   3.1018   3.1099   3.1121   3.1164   3.1222
  3.1311   3.1321   3.1380   3.1529   3.1670   3.1719   3.1740   3.1842
  3.1881   3.1977   3.1987   3.2096   3.2124   3.2147   3.2217   3.2223
  3.2265   3.2306   3.2368   3.2470   3.2517   3.2558   3.2628   3.2648
  3.2727   3.2751   3.2801   3.2843   3.2869   3.2940   3.2981   3.3010
  3.3047   3.3169   3.3222   3.3255   3.3310   3.3326   3.3372   3.3379
  3.3430   3.3479   3.3501   3.3553   3.3629   3.3704   3.3721   3.3787
  3.3813   3.3890   3.3935   3.3949   3.3996   3.4054   3.4121   3.4167
  3.4307   3.4342   3.4408   3.4418   3.4488   3.4530   3.4544   3.4591
  3.4623   3.4665   3.4710   3.4765   3.4836   3.4850   3.4899   3.4960
  3.4978   3.5048   3.5079   3.5105   3.5144   3.5206   3.5253   3.5311
  3.5358   3.5401   3.5438   3.5521   3.5631   3.5672   3.5739   3.5814
  3.5869   3.5960   3.6010   3.6031   3.6179   3.6214   3.6260   3.6296
  3.6340   3.6391   3.6435   3.6500   3.6549   3.6668   3.6714   3.6749
  3.6837   3.6882   3.6980   3.7047   3.7093   3.7127   3.7148   3.7214
  3.7301   3.7322   3.7398   3.7456   3.7542   3.7602   3.7629   3.7660
  3.7778   3.7829   3.7855   3.7882   3.7963   3.7966   3.7986   3.8085
  3.8221   3.8236   3.8294   3.8358   3.8452   3.8467   3.8527   3.8601
  3.8626   3.8688   3.8746   3.8848   3.8936   3.9014   3.9086   3.9220
  3.9335   3.9375   3.9401   3.9454   3.9470   3.9566   3.9667   3.9823
  3.9918   3.9941   4.0003   4.0127   4.0155   4.0176   4.0236   4.0442
  4.0496   4.0662   4.0726   4.0792   4.0821   4.0968   4.0986   4.1040
  4.1238   4.1288   4.1318   4.1465   4.1496   4.1563   4.1725   4.1770
  4.1803   4.1847   4.1955   4.2027   4.2072   4.2195   4.2280   4.2371
  4.2464   4.2526   4.2649   4.2742   4.2751   4.2795   4.2821   4.2876
  4.2960   4.2993   4.3064   4.3151   4.3237   4.3262   4.3353   4.3439
  4.3504   4.3552   4.3592   4.3649   4.3658   4.3685   4.3735   4.3798
  4.3898   4.3995   4.4073   4.4139   4.4193   4.4259   4.4352   4.4504
  4.4584   4.4701   4.4771   4.4798   4.4871   4.5048   4.5161   4.5201
  4.5217   4.5320   4.5439   4.5448   4.5483   4.5539   4.5685   4.5758
  4.5765   4.5810   4.5853   4.5900   4.6089   4.6145   4.6256   4.6362
  4.6392   4.6656   4.6681   4.6716   4.6734   4.6801   4.6889   4.6920
  4.7208   4.7282   4.7381   4.7408   4.7573   4.7781   4.7833   4.7900
  4.8154   4.8268   4.8367   4.8385   4.8589   4.8668   4.8714   4.8811
  4.8883   4.8926   4.9154   4.9345   4.9392   4.9579   4.9707   4.9823
  4.9939   5.0153   5.0326   5.0366   5.0384   5.0471   5.0527   5.0562
  5.0928   5.1026   5.1047   5.1156   5.1252   5.1305   5.1406   5.1473
  5.1662   5.1765   5.1835   5.1925   5.2006   5.2375   5.2421   5.2555
  5.2677   5.2764   5.2831   5.2929   5.3186   5.3247   5.3311   5.3497
  5.3546   5.3903   5.3948   5.4022   5.4271   5.4320   5.4430   5.4563
  5.4877   5.5076   5.5082   5.5102   5.5129   5.5303   5.5485   5.5538
  5.5594   5.5611   5.5721   5.5771   5.5853   5.5904   5.6029   5.6135
  5.6275   5.6389   5.6519   5.6539   5.6617   5.6745   5.6764   5.6937
  5.7009   5.7140   5.7325   5.7466   5.7503   5.7576   5.7642   5.7759
  5.7785   5.7850   5.8150   5.8234   5.8670   5.8737   5.9157   5.9299
  5.9569   5.9658   6.0133   6.0197   6.0227   6.0265   6.0336   6.0531
  6.0690   6.0993   6.1020   6.1146   6.1394   6.1810   6.1964   6.2113
  6.2173   6.2207   6.2273   6.2682   6.2757   6.2818   6.3146   6.3477
  6.3551   6.3687   6.4443   6.4530   6.4719   6.5293   6.5609   6.5656
  6.5876   6.6217   6.6372   6.6457   6.6541   6.6575   6.7083   6.8334
  6.8370   6.8821   6.8857   6.8967   6.9109   6.9280   6.9826   7.0790
  7.1318   7.1481   7.1851   7.2140   7.2831   7.3320   7.3412   7.3437
  7.3554   7.4665   7.5467   7.5577   7.5746   7.5794   7.6335   7.6364
  7.6763   7.7097   7.7549   8.4062   9.8707  10.3323  11.1472  11.2155
 11.6864  11.7582  11.9836  12.3878  12.4801  12.7901  12.8668  12.9064
 13.3075  13.5480  13.8185  13.9368  14.0505  14.1798  14.2870  14.3664
 14.4318  14.7351  15.3377  15.7353  15.9670
 --------------------------------------------------------------
 
          Ground-State Mulliken Net Atomic Charges

     Atom                 Charge (a.u.)
  ----------------------------------------
      1 C                    -0.148433
      2 C                    -0.109751
      3 C                    -0.030404
      4 C                    -0.006112
      5 H                     0.187994
      6 C                    -0.004005
      7 C                     0.086498
      8 C                     0.002177
      9 C                    -0.105019
     10 C                    -0.146508
     11 C                     0.090362
     12 H                     0.183063
     13 C                     0.360185
     14 C                     0.364879
     15 N                    -0.101761
     16 C                     0.359518
     17 C                     0.405730
     18 N                    -0.093640
     19 O                    -0.463662
     20 O                    -0.476180
     21 O                    -0.481886
     22 O                    -0.437600
     23 C                    -0.201051
     24 H                     0.141173
     25 H                     0.112378
     26 H                     0.112466
     27 C                    -0.199116
     28 H                     0.135206
     29 H                     0.113741
     30 H                     0.113591
     31 H                     0.212383
     32 C                    -0.054794
     33 S                     0.101150
     34 C                    -0.207021
     35 C                    -0.139258
     36 C                    -0.254051
     37 H                     0.187098
     38 H                     0.183828
     39 H                     0.206833
  ----------------------------------------
  Sum of atomic charges =     0.000000

 -----------------------------------------------------------------
                    Cartesian Multipole Moments
 -----------------------------------------------------------------
    Charge (ESU x 10^10)
                 0.0000
    Dipole Moment (Debye)
         X       0.9867      Y       0.9643      Z       0.2096
       Tot       1.3955
    Quadrupole Moments (Debye-Ang)
        XX    -165.0247     XY       3.1632     YY    -171.9665
        XZ      -4.9478     YZ       0.4766     ZZ    -173.0295
    Octopole Moments (Debye-Ang^2)
       XXX     -67.6521    XXY     480.1588    XYY      -9.7864
       YYY    1612.1116    XXZ     -30.6736    XYZ      28.7396
       YYZ     -22.6690    XZZ     -17.6146    YZZ     550.3871
       ZZZ     -97.2055
    Hexadecapole Moments (Debye-Ang^3)
      XXXX    -925.5848   XXXY    -193.5211   XXYY   -2863.1240
      XYYY    -302.4045   YYYY  -17286.1071   XXXZ    -939.1535
      XXYZ     -84.3812   XYYZ    -494.0952   YYYZ    -748.9989
      XXZZ   -1097.8438   XYZZ      52.5728   YYZZ   -4069.2460
      XZZZ   -1006.8361   YZZZ     -77.7865   ZZZZ   -5698.2271
 -----------------------------------------------------------------
 Total job time:  274.37s(wall), 8842.66s(cpu) 
 Fri Dec 15 14:46:40 2023

        *************************************************************
        *                                                           *
        *  Thank you very much for using Q-Chem.  Have a nice day.  *
        *                                                           *
        *************************************************************


0 sent ACK to 0 
now end server 0 ... 
cleanup process ... done
remove work dirs ./qchem3171265.0 -- ./qchem3171265.0
rm -rf ./qchem3171265.0
rm -rf ./qchem3171265
