You are running Q-Chem version: 5.4.0

#
# job setting
#
local host:  exp-5-20
current dir: /home/rramji/project-csd799/aromodel/pndit-qchem/rotation_run
input file:  Dimethyl_Naphthalene_Dicarboximide_Phi_50_Theta_350_Thiophene.qcin
output file: 
nprocs     : 1
nthreads   : 64
#
# qchem installation setting
#
QC:          /cm/shared/apps/spack/cpu/opt/spack/linux-centos8-zen2/gcc-10.2.0/qchem-5.4-akfmr7b3t57bfs6qan3padb2wnb2i7cl
QCAUX:       /cm/shared/apps/spack/cpu/opt/spack/linux-centos8-zen2/gcc-10.2.0/qchem-5.4-akfmr7b3t57bfs6qan3padb2wnb2i7cl/qcaux
QCPROG:      /cm/shared/apps/spack/cpu/opt/spack/linux-centos8-zen2/gcc-10.2.0/qchem-5.4-akfmr7b3t57bfs6qan3padb2wnb2i7cl/exe/qcprog.exe
QCPROG_S:    /cm/shared/apps/spack/cpu/opt/spack/linux-centos8-zen2/gcc-10.2.0/qchem-5.4-akfmr7b3t57bfs6qan3padb2wnb2i7cl/exe/qcprog.exe_s
PARALLEL:    -DPARALLEL
QCMPI:       mpich
#
# qchem directory setting
#
qcrun:       qchem3666448
QCSCRATCH:   .
QCLOCALSCR:  
QCTMPDIR:    .
QCFILEPREF:  ./qchem3666448
QCSAVEDIR:   
workdirs:    ./qchem3666448
workdir0:    ./qchem3666448
partmpdirs =  
#
# parallel setting
#
QCRSH:           ssh
QCMPI:           mpich
QCMPIRUN:        /cm/shared/apps/spack/cpu/opt/spack/linux-centos8-zen2/gcc-10.2.0/qchem-5.4-akfmr7b3t57bfs6qan3padb2wnb2i7cl/bin/mpi/mpirun_qchem
QCMACHINEFILE:   ./qchem3666448/hostfile
exp-5-20

#
# env setting
#
exported envs:   QC QCAUX QCSCRATCH QCRUNNAME QCFILEPREF QCPROG QCPROG_S GUIFILE

Running Job 1 of 1 Dimethyl_Naphthalene_Dicarboximide_Phi_50_Theta_350_Thiophene.qcin
qchem Dimethyl_Naphthalene_Dicarboximide_Phi_50_Theta_350_Thiophene.qcin_3666448.0 ./qchem3666448/ 1
/cm/shared/apps/spack/cpu/opt/spack/linux-centos8-zen2/gcc-10.2.0/qchem-5.4-akfmr7b3t57bfs6qan3padb2wnb2i7cl/bin/mpi/mpirun_qchem -machinefile ./qchem3666448/hostfile -np 1 /cm/shared/apps/spack/cpu/opt/spack/linux-centos8-zen2/gcc-10.2.0/qchem-5.4-akfmr7b3t57bfs6qan3padb2wnb2i7cl/exe/qcprog.exe Dimethyl_Naphthalene_Dicarboximide_Phi_50_Theta_350_Thiophene.qcin_3666448.0 ./qchem3666448/

Process 0 of 1 is on exp-5-20 - thread support 0
initial socket setup ...start
initial socket setup ...done 
now start server 0 ... 
                  Welcome to Q-Chem
     A Quantum Leap Into The Future Of Chemistry


 Q-Chem 5.4, Q-Chem, Inc., Pleasanton, CA (2021)

 License issued to: University of California, San Diego (site)

 E. Epifanovsky,  A. T. B. Gilbert,  Xintian Feng,  Joonho Lee,  Yuezhi Mao,  
 N. Mardirossian,  P. Pokhilko,  A. White,  M. Wormit,  M. P. Coons,  
 A. L. Dempwolff,  Zhengting Gan,  D. Hait,  P. R. Horn,  L. D. Jacobson,  
 I. Kaliman,  J. Kussmann,  A. W. Lange,  Ka Un Lao,  D. S. Levine,  Jie Liu,  
 S. C. McKenzie,  A. F. Morrison,  K. Nanda,  F. Plasser,  D. R. Rehn,  
 M. L. Vidal,  Zhi-Qiang You,  Ying Zhu,  B. Alam,  B. Albrecht,  
 A. Aldossary,  E. Alguire,  J. H. Andersen,  D. Barton,  K. Begam,  A. Behn,  
 Y. A. Bernard,  E. J. Berquist,  H. Burton,  A. Carreras,  K. Carter-Fenk,  
 R. Chakraborty,  A. D. Chien,  K. D. Closser,  V. Cofer-Shabica,  
 S. Dasgupta,  Jia Deng,  M. de Wergifosse,  M. Diedenhofen,  Hainam Do,  
 S. Ehlert,  Po-Tung Fang,  S. Fatehi,  Qingguo Feng,  J. Gayvert,  
 Qinghui Ge,  G. Gidofalvi,  M. Goldey,  J. Gomes,  C. Gonzalez-Espinoza,  
 S. Gulania,  A. Gunina,  M. W. D. Hanson-Heine,  P. H. P. Harbach,  
 A. W. Hauser,  M. F. Herbst,  M. Hernandez Vera,  M. Hodecker,  
 Z. C. Holden,  S. Houck,  Xunkun Huang,  Kerwin Hui,  B. C. Huynh,  
 M. Ivanov,  Hyunjun Ji,  Hanjie Jiang,  B. Kaduk,  S. Kaehler,  
 K. Khistyaev,  Jaehoon Kim,  P. Klunzinger,  Z. Koczor-Benda,  
 Joong Hoon Koh,  D. Kosenkov,  L. Koulias,  T. Kowalczyk,  C. M. Krauter,  
 K. Kue,  A. Kunitsa,  T. Kus,  A. Landau,  K. V. Lawler,  D. Lefrancois,  
 S. Lehtola,  Rain Li,  Yi-Pei Li,  Jiashu Liang,  M. Liebenthal,  
 Hung-Hsuan Lin,  You-Sheng Lin,  Fenglai Liu,  Kuan-Yu Liu,  
 M. Loipersberger,  A. Luenser,  A. Manjanath,  P. Manohar,  E. Mansoor,  
 S. F. Manzer,  Shan-Ping Mao,  A. V. Marenich,  T. Markovich,  S. Mason,  
 S. A. Maurer,  P. F. McLaughlin,  M. F. S. J. Menger,  J.-M. Mewes,  
 S. A. Mewes,  P. Morgante,  J. W. Mullinax,  T. S. Nguyen-Beck,  
 K. J. Oosterbaan,  G. Paran,  Alexander C. Paul,  Suranjan K. Paul,  
 F. Pavosevic,  Zheng Pei,  S. Prager,  E. I. Proynov,  E. Ramos,  B. Rana,  
 A. E. Rask,  A. Rettig,  R. M. Richard,  F. Rob,  E. Rossomme,  T. Scheele,  
 M. Scheurer,  M. Schneider,  N. Sergueev,  S. M. Sharada,  W. Skomorowski,  
 D. W. Small,  C. J. Stein,  Yu-Chuan Su,  E. J. Sundstrom,  Zhen Tao,  
 J. Thirman,  T. Tsuchimochi,  N. M. Tubman,  S. P. Veccham,  O. Vydrov,  
 J. Wenzel,  J. Witte,  A. Yamada,  Kun Yao,  S. Yeganeh,  S. R. Yost,  
 A. Zech,  Igor Ying Zhang,  Xing Zhang,  Yu Zhang,  D. Zuev,  
 A. Aspuru-Guzik,  A. T. Bell,  N. A. Besley,  K. B. Bravaya,  B. R. Brooks,  
 D. Casanova,  Jeng-Da Chai,  S. Coriani,  C. J. Cramer,  
 A. E. DePrince, III,  R. A. DiStasio Jr.,  A. Dreuw,  B. D. Dunietz,  
 T. R. Furlani,  W. A. Goddard III,  S. Grimme,  S. Hammes-Schiffer,  
 T. Head-Gordon,  W. J. Hehre,  Chao-Ping Hsu,  T.-C. Jagau,  Yousung Jung,  
 A. Klamt,  Jing Kong,  D. S. Lambrecht,  WanZhen Liang,  N. J. Mayhall,  
 C. W. McCurdy,  J. B. Neaton,  C. Ochsenfeld,  J. A. Parkhill,  R. Peverati,  
 V. A. Rassolov,  Yihan Shao,  L. V. Slipchenko,  T. Stauch,  R. P. Steele,  
 J. E. Subotnik,  A. J. W. Thom,  A. Tkatchenko,  D. G. Truhlar,  
 T. Van Voorhis,  T. A. Wesolowski,  K. B. Whaley,  H. L. Woodcock III,  
 P. M. Zimmerman,  S. Faraji,  P. M. W. Gill,  M. Head-Gordon,  
 J. M. Herbert,  A. I. Krylov

 Contributors to earlier versions of Q-Chem not listed above: 
 R. D. Adamson,  B. Austin,  R. Baer,  J. Baker,  G. J. O. Beran,  
 K. Brandhorst,  S. T. Brown,  E. F. C. Byrd,  A. K. Chakraborty,  
 G. K. L. Chan,  Chun-Min Chang,  Yunqing Chen,  C.-L. Cheng,  
 Siu Hung Chien,  D. M. Chipman,  D. L. Crittenden,  H. Dachsel,  
 R. J. Doerksen,  A. D. Dutoi,  R. G. Edgar,  J. Fosso-Tande,  
 L. Fusti-Molnar,  D. Ghosh,  A. Ghysels,  A. Golubeva-Zadorozhnaya,  
 J. Gonthier,  M. S. Gordon,  S. R. Gwaltney,  G. Hawkins,  J. E. Herr,  
 A. Heyden,  S. Hirata,  E. G. Hohenstein,  G. Kedziora,  F. J. Keil,  
 C. Kelley,  Jihan Kim,  R. A. King,  R. Z. Khaliullin,  P. P. Korambath,  
 W. Kurlancheek,  A. Laurent,  A. M. Lee,  M. S. Lee,  S. V. Levchenko,  
 Ching Yeh Lin,  D. Liotard,  E. Livshits,  R. C. Lochan,  I. Lotan,  
 L. A. Martinez-Martinez,  P. E. Maslen,  N. Nair,  D. P. O'Neill,  
 D. Neuhauser,  E. Neuscamman,  C. M. Oana,  R. Olivares-Amaya,  R. Olson,  
 T. M. Perrine,  B. Peters,  P. A. Pieniazek,  A. Prociuk,  Y. M. Rhee,  
 J. Ritchie,  M. A. Rohrdanz,  E. Rosta,  N. J. Russ,  H. F. Schaefer III,  
 M. W. Schmidt,  N. E. Schultz,  S. Sharma,  N. Shenvi,  C. D. Sherrill,  
 A. C. Simmonett,  A. Sodt,  T. Stein,  D. Stuck,  K. S. Thanthiriwatte,  
 V. Vanovschi,  L. Vogt,  Tao Wang,  A. Warshel,  M. A. Watson,  
 C. F. Williams,  Q. Wu,  X. Xu,  Jun Yang,  W. Zhang,  Yan Zhao

 Please cite Q-Chem as follows:
 Y. Shao et al., Mol. Phys. 113, 184-215 (2015)
 DOI: 10.1080/00268976.2014.952696

 Q-Chem 5.4.0 for Intel X86 EM64T Linux

 Parts of Q-Chem use Armadillo 9.800.1 (Horizon Scraper).
 http://arma.sourceforge.net/

 Q-Chem begins on Fri Dec 15 16:17:07 2023  

 Host: 
0

     Scratch files written to ./qchem3666448//
 May1621 |scratch|qcdevops|jenkins|workspace|build_RNUM    
 Parallel job on  1  processors
 Processing $rem in /cm/shared/apps/spack/cpu/opt/spack/linux-centos8-zen2/gcc-10.2.0/qchem-5.4-akfmr7b3t57bfs6qan3padb2wnb2i7cl/config/preferences:
 Processing $rem in /home/rramji/.qchemrc:
 Symmetry turned off for PCM/SM12/SMD calculation
 Core orbitals will be frozen

 Checking the input file for inconsistencies... 	...done.

 Q-Chem warning in module forms1/BasisType.C, line 2236:

 You are not using the predefined 5D/6D in this basis set.


--------------------------------------------------------------
User input:
--------------------------------------------------------------
$molecule
0 1
C	-0.046070	-6.741404	-0.252767
C	-0.272935	-6.155638	-1.538656
C	0.141739	-5.791452	0.814966
C	-0.321083	-4.803786	-1.813042
H	-0.425592	-6.821518	-2.403318
C	0.091779	-4.378638	0.527566
C	-0.138909	-3.838032	-0.782769
C	0.273808	-3.413062	1.556632
C	-0.188483	-2.426473	-1.067868
C	0.226610	-2.059348	1.285436
C	-0.000000	-1.478216	-0.000000
H	0.379657	-1.394783	2.151019
C	0.390420	-6.187987	2.235891
C	0.522125	-3.798164	2.965540
N	0.562731	-5.170003	3.205600
C	-0.570244	-4.424987	-3.225760
C	-0.438407	-2.036627	-2.489646
N	-0.610438	-3.049156	-3.459662
O	0.455563	-7.353131	2.621768
O	0.683373	-2.986854	3.874608
O	-0.729367	-5.248946	-4.124059
O	-0.508697	-0.878829	-2.896516
C	0.806996	-5.563799	4.596910
H	0.813717	-6.664085	4.641640
H	0.013655	-5.147101	5.246567
H	1.775159	-5.148785	4.936739
C	-0.851572	-2.587487	-4.829729
H	-0.964204	-3.483329	-5.462387
H	-0.003956	-1.964972	-5.173914
H	-1.764390	-1.962932	-4.863360
H	-0.014094	-7.822318	-0.069584
C	0.000000	0.000000	0.000000
S	0.607475	0.509994	1.580530
C	1.862020	1.562717	0.904911
C	0.764397	0.641624	-0.985400
C	1.775697	1.490335	-0.493528
H	0.583895	0.490135	-2.059934
H	2.450484	2.056643	-1.152593
H	2.536607	2.128872	1.556025
$end

$rem
JOBTYPE		SP
EXCHANGE	HF
CORRELATION	pRIMP2
BASIS		cc-pvtz
METHOD		rimp2
AUX_BASIS	rimp2-cc-pvtz
SOLVENT_METHOD	PCM
PURECART	11111
SYMMETRY	false
MEM_TOTAL	110000
SCF_CONVERGENCE = 6
THRESH=10
GUI = 2
$end



$solvent
dielectric 4.90
$end
--------------------------------------------------------------
 ----------------------------------------------------------------
             Standard Nuclear Orientation (Angstroms)
    I     Atom           X                Y                Z
 ----------------------------------------------------------------
    1      C      -0.0460700000    -6.7414040000    -0.2527670000
    2      C      -0.2729350000    -6.1556380000    -1.5386560000
    3      C       0.1417390000    -5.7914520000     0.8149660000
    4      C      -0.3210830000    -4.8037860000    -1.8130420000
    5      H      -0.4255920000    -6.8215180000    -2.4033180000
    6      C       0.0917790000    -4.3786380000     0.5275660000
    7      C      -0.1389090000    -3.8380320000    -0.7827690000
    8      C       0.2738080000    -3.4130620000     1.5566320000
    9      C      -0.1884830000    -2.4264730000    -1.0678680000
   10      C       0.2266100000    -2.0593480000     1.2854360000
   11      C       0.0000000000    -1.4782160000     0.0000000000
   12      H       0.3796570000    -1.3947830000     2.1510190000
   13      C       0.3904200000    -6.1879870000     2.2358910000
   14      C       0.5221250000    -3.7981640000     2.9655400000
   15      N       0.5627310000    -5.1700030000     3.2056000000
   16      C      -0.5702440000    -4.4249870000    -3.2257600000
   17      C      -0.4384070000    -2.0366270000    -2.4896460000
   18      N      -0.6104380000    -3.0491560000    -3.4596620000
   19      O       0.4555630000    -7.3531310000     2.6217680000
   20      O       0.6833730000    -2.9868540000     3.8746080000
   21      O      -0.7293670000    -5.2489460000    -4.1240590000
   22      O      -0.5086970000    -0.8788290000    -2.8965160000
   23      C       0.8069960000    -5.5637990000     4.5969100000
   24      H       0.8137170000    -6.6640850000     4.6416400000
   25      H       0.0136550000    -5.1471010000     5.2465670000
   26      H       1.7751590000    -5.1487850000     4.9367390000
   27      C      -0.8515720000    -2.5874870000    -4.8297290000
   28      H      -0.9642040000    -3.4833290000    -5.4623870000
   29      H      -0.0039560000    -1.9649720000    -5.1739140000
   30      H      -1.7643900000    -1.9629320000    -4.8633600000
   31      H      -0.0140940000    -7.8223180000    -0.0695840000
   32      C       0.0000000000     0.0000000000     0.0000000000
   33      S       0.6074750000     0.5099940000     1.5805300000
   34      C       1.8620200000     1.5627170000     0.9049110000
   35      C       0.7643970000     0.6416240000    -0.9854000000
   36      C       1.7756970000     1.4903350000    -0.4935280000
   37      H       0.5838950000     0.4901350000    -2.0599340000
   38      H       2.4504840000     2.0566430000    -1.1525930000
   39      H       2.5366070000     2.1288720000     1.5560250000
 ----------------------------------------------------------------
 Nuclear Repulsion Energy =        2522.77301324 hartrees
 There are       97 alpha and       97 beta electrons
 Requested basis set is cc-pVTZ
 There are 344 shells and 982 basis functions

 Total QAlloc Memory Limit 110000 MB
 Mega-Array Size       188 MB
 MEM_STATIC part       192 MB
 Discretize the solute cavity surface with Lebedev spheres
	Using 110 Lebedev grid points for each H atom
	Using 194 Lebedev grid points for other atoms
	Atomic van der Waals radii will be scaled by 1.20
 Remove points where switching function is < 1.0e-08
 Keep 2510 surface tesserae and discard 4048 interior tesserae
 Molecular Surface Area = 357.698 Angst**2
 Requested basis set is rimp2-cc-pVTZ
 There are 750 shells and 2588 basis functions
 A cutoff of  1.0D-10 yielded  32267 shell pairs
 There are    248217 function pairs (    322453 Cartesian)
 Smallest overlap matrix eigenvalue = 9.05E-06

 Q-Chem warning in module stvman/mkSTV.C, line 323:

 Overlap eigenvalue is smaller than square root of threshold
 Use THRESH >= 12 to get rid of this warning


 Scale SEOQF with 1.000000e-01/1.000000e-02/1.000000e-02

 Standard Electronic Orientation quadrupole field applied
 Nucleus-field energy     =     0.0000000123 hartrees
 Guess from superposition of atomic densities
 Warning:  Energy on first SCF cycle will be non-variational
 SAD guess density has 194.000000 electrons

 -----------------------------------------------------------------------
  General SCF calculation program by
  Eric Jon Sundstrom, Paul Horn, Yuezhi Mao, Dmitri Zuev, Alec White,
  David Stuck, Shaama M.S., Shane Yost, Joonho Lee, David Small,
  Daniel Levine, Susi Lehtola, Hugh Burton, Evgeny Epifanovsky,
  Bang C. Huynh
 -----------------------------------------------------------------------
 Hartree-Fock
 using 64 threads for integral computing
 -------------------------------------------------------
 OpenMP Integral computing Module                
 Release: version 1.0, May 2013, Q-Chem Inc. Pittsburgh 
 -------------------------------------------------------
 A restricted SCF calculation will be
 performed using DIIS
 SCF converges when DIIS error is below 1.0e-06
 ---------------------------------------
  Cycle       Energy         DIIS error
 ---------------------------------------
    1   -1581.5184401581      1.88e-02  
    2   -1570.0647253984      2.07e-03  
    3   -1570.3951012858      1.59e-03  
    4   -1570.6151692674      2.60e-04  
    5   -1570.6277328107      7.92e-05  
    6   -1570.6289300479      2.99e-05  
    7   -1570.6292306927      1.49e-05  
    8   -1570.6293297561      6.78e-06  
    9   -1570.6293478064      2.58e-06  
   10   -1570.6293515124      1.12e-06  
   11   -1570.6293522796      5.05e-07  Convergence criterion met
 ---------------------------------------
 SCF time:   CPU 6711.15s  wall 259.00s 

************** Final PCM Free Energy Summary **************
 G_electrostatic  =      -0.02186661 hartree =     -13.72150224 kcal/mol
 G_cavitation     =       0.00000000 hartree =       0.00000000 kcal/mol
 G_dispersion     =       0.00000000 hartree =       0.00000000 kcal/mol
 G_repulsion      =       0.00000000 hartree =       0.00000000 kcal/mol
 --------------------------------------------------
 Non-electrostatic Free Energy =       0.00000000 hartree =       0.00000000 kcal/mol
 Total                         =      -0.02186661 hartree =     -13.72150224 kcal/mol
 --------------------------------------------------
 SCF Energy (H0 + V/2)                       =   -1570.62935228 
 Solute Internal Energy (H0)                 =   -1570.60748567 
 Total Free Energy (H0 + V/2 + non-elec)     =   -1570.62935228 hartree
                                             = -985584.79398605 kcal/mol
***********************************************************

 SCF   energy in the final basis set =    -1570.6293522796
 Total energy in the final basis set =    -1570.6293522796


 --------------------------------------------------------------
  Generalized many-body perturbation theory program
  by Joonho Lee, Fazle Rob, Xintian Feng, Evgeny Epifanovsky

 No regularization used 
 (reg. param. = 0.0000e+00)
  (P|Q)^-1/2 Time:  CPU 171.60 s  wall 3.17 s

 In RI-MP2 calculation: 
 # of frozen core orbitals: 31

 Components of the RIMP2 correlation energy:
        aaaa    correlation energy =        -0.6197393114 a.u.
        abab    correlation energy =        -3.3984601764 a.u.
        bbbb    correlation energy =        -0.6197393114 a.u.
        non-Brillouin singles      =        -0.0000000000 a.u.
        total same-spin energy     =        -1.2394786228 a.u.
        total opposite-spin energy =        -3.3984601764 a.u.

 Total  RIMP2   correlation energy =        -4.6379387992 a.u.
        RIMP2         total energy =     -1575.2672910788 a.u.

 RI-MP2 Energy Time:  CPU 2078.14 s  wall 34.27 s
 
 --------------------------------------------------------------
 
                    Orbital Energies (a.u.)
 --------------------------------------------------------------
 
 Alpha MOs
 -- Occupied --
-91.9919 -20.5574 -20.5555 -20.5525 -20.5507 -15.6300 -15.6279 -11.3984
-11.3930 -11.3893 -11.3886 -11.3200 -11.3081 -11.2995 -11.2965 -11.2891
-11.2888 -11.2873 -11.2838 -11.2787 -11.2786 -11.2760 -11.2723 -11.2682
-11.2639 -11.2635 -11.2528  -8.9933  -6.6740  -6.6731  -6.6728  -1.4237
 -1.4226  -1.4031  -1.4013  -1.2658  -1.2631  -1.2159  -1.1876  -1.1406
 -1.1124  -1.0629  -1.0464  -0.9978  -0.9921  -0.9900  -0.9569  -0.9444
 -0.8948  -0.8765  -0.8751  -0.8582  -0.7981  -0.7803  -0.7707  -0.7647
 -0.7334  -0.7233  -0.7016  -0.6938  -0.6803  -0.6734  -0.6648  -0.6607
 -0.6540  -0.6413  -0.6350  -0.6325  -0.6251  -0.6123  -0.5912  -0.5856
 -0.5804  -0.5769  -0.5681  -0.5624  -0.5611  -0.5556  -0.5522  -0.5462
 -0.5387  -0.5239  -0.5230  -0.5036  -0.4802  -0.4643  -0.4616  -0.4580
 -0.4566  -0.4496  -0.4268  -0.4176  -0.4080  -0.3767  -0.3551  -0.3326
 -0.2990
 -- Virtual --
 -0.0139   0.0461   0.0694   0.0956   0.1234   0.1522   0.1567   0.1591
  0.1678   0.1697   0.1785   0.1854   0.1887   0.1945   0.2081   0.2135
  0.2212   0.2280   0.2288   0.2351   0.2476   0.2523   0.2622   0.2652
  0.2667   0.2995   0.3076   0.3170   0.3202   0.3262   0.3383   0.3434
  0.3467   0.3523   0.3550   0.3572   0.3593   0.3661   0.3696   0.3749
  0.3825   0.3851   0.3893   0.3925   0.4033   0.4070   0.4113   0.4127
  0.4184   0.4227   0.4308   0.4332   0.4390   0.4467   0.4527   0.4572
  0.4596   0.4675   0.4731   0.4744   0.4809   0.4850   0.4898   0.4919
  0.4958   0.4989   0.5115   0.5149   0.5209   0.5235   0.5280   0.5306
  0.5395   0.5435   0.5469   0.5512   0.5538   0.5580   0.5616   0.5658
  0.5728   0.5775   0.5811   0.5881   0.5913   0.5957   0.5985   0.5994
  0.6054   0.6113   0.6166   0.6167   0.6211   0.6243   0.6314   0.6345
  0.6364   0.6370   0.6422   0.6463   0.6506   0.6569   0.6653   0.6761
  0.6806   0.6886   0.6954   0.6992   0.7052   0.7068   0.7161   0.7230
  0.7288   0.7342   0.7374   0.7475   0.7529   0.7593   0.7614   0.7671
  0.7729   0.7799   0.7836   0.7959   0.8001   0.8055   0.8084   0.8207
  0.8280   0.8349   0.8384   0.8473   0.8516   0.8547   0.8610   0.8630
  0.8658   0.8690   0.8700   0.8740   0.8778   0.8825   0.9016   0.9083
  0.9098   0.9193   0.9202   0.9292   0.9320   0.9400   0.9455   0.9464
  0.9548   0.9589   0.9625   0.9699   0.9759   0.9777   0.9834   0.9884
  0.9977   0.9993   1.0013   1.0080   1.0092   1.0153   1.0282   1.0299
  1.0382   1.0459   1.0525   1.0635   1.0654   1.0708   1.0724   1.0795
  1.0814   1.0834   1.0879   1.0910   1.0982   1.1023   1.1115   1.1201
  1.1322   1.1343   1.1378   1.1404   1.1525   1.1555   1.1598   1.1612
  1.1661   1.1708   1.1732   1.1769   1.1826   1.1941   1.1973   1.2012
  1.2072   1.2078   1.2142   1.2238   1.2266   1.2299   1.2419   1.2456
  1.2505   1.2526   1.2546   1.2585   1.2685   1.2812   1.2947   1.3023
  1.3094   1.3262   1.3310   1.3332   1.3381   1.3432   1.3519   1.3586
  1.3738   1.3792   1.3833   1.3854   1.3897   1.4037   1.4127   1.4204
  1.4212   1.4265   1.4332   1.4430   1.4500   1.4555   1.4593   1.4734
  1.4809   1.4830   1.4884   1.4934   1.5007   1.5082   1.5158   1.5219
  1.5276   1.5316   1.5356   1.5434   1.5554   1.5603   1.5647   1.5684
  1.5737   1.5782   1.5853   1.5919   1.6130   1.6156   1.6246   1.6366
  1.6396   1.6486   1.6613   1.6635   1.6667   1.6782   1.6873   1.6913
  1.6980   1.7172   1.7213   1.7239   1.7352   1.7452   1.7468   1.7491
  1.7564   1.7710   1.7779   1.7792   1.7932   1.8024   1.8087   1.8154
  1.8158   1.8383   1.8453   1.8487   1.8495   1.8594   1.8644   1.8690
  1.8774   1.8866   1.8973   1.9154   1.9174   1.9201   1.9457   1.9590
  1.9623   1.9716   1.9762   1.9957   2.0080   2.0258   2.0308   2.0335
  2.0542   2.0637   2.0651   2.0971   2.0997   2.1143   2.1283   2.1430
  2.1483   2.1554   2.1744   2.1815   2.1937   2.2110   2.2173   2.2307
  2.2423   2.2545   2.2670   2.2687   2.2828   2.2917   2.2980   2.3091
  2.3254   2.3315   2.3414   2.3504   2.3621   2.3702   2.3758   2.3773
  2.4148   2.4306   2.4475   2.4479   2.4521   2.4567   2.4671   2.4874
  2.4904   2.5003   2.5048   2.5104   2.5147   2.5225   2.5298   2.5485
  2.5502   2.5664   2.5755   2.5912   2.5965   2.6014   2.6081   2.6158
  2.6217   2.6345   2.6373   2.6449   2.6556   2.6655   2.6715   2.6781
  2.6835   2.6919   2.6949   2.7027   2.7131   2.7152   2.7239   2.7281
  2.7443   2.7480   2.7518   2.7640   2.7713   2.7733   2.7900   2.8058
  2.8172   2.8215   2.8329   2.8384   2.8477   2.8537   2.8625   2.8692
  2.8706   2.8789   2.8836   2.8863   2.8924   2.9040   2.9083   2.9134
  2.9225   2.9305   2.9433   2.9454   2.9535   2.9669   2.9690   2.9801
  2.9887   2.9893   2.9949   2.9967   3.0018   3.0072   3.0190   3.0212
  3.0312   3.0319   3.0411   3.0457   3.0570   3.0701   3.0743   3.0853
  3.0938   3.0983   3.1029   3.1125   3.1153   3.1174   3.1246   3.1260
  3.1338   3.1351   3.1448   3.1574   3.1674   3.1735   3.1808   3.1839
  3.1968   3.2024   3.2087   3.2144   3.2186   3.2220   3.2256   3.2284
  3.2330   3.2386   3.2431   3.2495   3.2534   3.2580   3.2630   3.2663
  3.2723   3.2766   3.2789   3.2873   3.2897   3.2939   3.2989   3.3017
  3.3077   3.3127   3.3177   3.3203   3.3276   3.3334   3.3356   3.3382
  3.3455   3.3473   3.3526   3.3580   3.3600   3.3658   3.3714   3.3736
  3.3787   3.3830   3.3901   3.3966   3.4008   3.4071   3.4102   3.4125
  3.4264   3.4285   3.4363   3.4434   3.4512   3.4523   3.4552   3.4611
  3.4642   3.4700   3.4713   3.4780   3.4862   3.4892   3.4959   3.5002
  3.5020   3.5064   3.5087   3.5136   3.5208   3.5238   3.5296   3.5361
  3.5394   3.5532   3.5548   3.5689   3.5709   3.5768   3.5807   3.5898
  3.5948   3.5991   3.6067   3.6140   3.6204   3.6265   3.6310   3.6330
  3.6369   3.6425   3.6439   3.6506   3.6588   3.6718   3.6721   3.6768
  3.6943   3.7003   3.7038   3.7082   3.7162   3.7168   3.7208   3.7307
  3.7358   3.7405   3.7480   3.7528   3.7584   3.7659   3.7675   3.7747
  3.7842   3.7853   3.7934   3.7958   3.7992   3.8012   3.8039   3.8111
  3.8170   3.8251   3.8320   3.8496   3.8536   3.8606   3.8680   3.8713
  3.8771   3.8814   3.8872   3.8975   3.9053   3.9131   3.9212   3.9223
  3.9363   3.9380   3.9509   3.9526   3.9599   3.9664   3.9780   3.9822
  3.9998   4.0104   4.0205   4.0228   4.0285   4.0295   4.0394   4.0483
  4.0613   4.0728   4.0761   4.0788   4.0930   4.0954   4.1029   4.1113
  4.1280   4.1395   4.1483   4.1529   4.1569   4.1596   4.1627   4.1790
  4.1830   4.1909   4.1975   4.2037   4.2111   4.2295   4.2404   4.2530
  4.2573   4.2692   4.2751   4.2782   4.2867   4.2903   4.3006   4.3010
  4.3037   4.3091   4.3121   4.3220   4.3258   4.3344   4.3427   4.3503
  4.3534   4.3555   4.3657   4.3690   4.3714   4.3786   4.3857   4.3889
  4.3914   4.4056   4.4069   4.4172   4.4215   4.4269   4.4348   4.4480
  4.4601   4.4674   4.4753   4.4813   4.4991   4.5109   4.5174   4.5249
  4.5273   4.5351   4.5411   4.5497   4.5561   4.5673   4.5720   4.5777
  4.5828   4.5855   4.5909   4.6070   4.6130   4.6157   4.6283   4.6367
  4.6377   4.6502   4.6578   4.6738   4.6805   4.6853   4.6905   4.7065
  4.7143   4.7298   4.7391   4.7641   4.7699   4.7832   4.8001   4.8053
  4.8082   4.8264   4.8443   4.8486   4.8643   4.8712   4.8780   4.8833
  4.8879   4.8957   4.9294   4.9442   4.9539   4.9583   4.9772   4.9853
  5.0086   5.0120   5.0179   5.0362   5.0538   5.0550   5.0601   5.0706
  5.0935   5.1023   5.1156   5.1217   5.1253   5.1309   5.1471   5.1630
  5.1699   5.1845   5.1932   5.1993   5.2160   5.2265   5.2433   5.2582
  5.2601   5.2823   5.2888   5.2962   5.3089   5.3248   5.3369   5.3409
  5.3496   5.3974   5.4026   5.4056   5.4233   5.4355   5.4421   5.4615
  5.4736   5.5068   5.5097   5.5146   5.5169   5.5363   5.5409   5.5583
  5.5602   5.5638   5.5692   5.5771   5.5795   5.5961   5.6063   5.6139
  5.6271   5.6403   5.6538   5.6576   5.6704   5.6753   5.6780   5.6940
  5.7084   5.7151   5.7234   5.7343   5.7444   5.7616   5.7665   5.7765
  5.7850   5.7930   5.8131   5.8260   5.8544   5.8778   5.8967   5.9408
  5.9538   5.9588   5.9842   6.0039   6.0250   6.0255   6.0344   6.0620
  6.0885   6.0948   6.1053   6.1302   6.1321   6.1704   6.1899   6.2096
  6.2186   6.2228   6.2297   6.2605   6.2708   6.2799   6.3042   6.3466
  6.3551   6.3800   6.3977   6.4494   6.4698   6.5320   6.5526   6.5636
  6.5791   6.5897   6.6162   6.6500   6.6594   6.6636   6.7099   6.8339
  6.8417   6.8849   6.8872   6.9009   6.9124   6.9318   7.0533   7.0817
  7.1293   7.1457   7.1902   7.2030   7.2379   7.3336   7.3447   7.3462
  7.3860   7.4703   7.5491   7.5601   7.5771   7.5828   7.6234   7.6360
  7.6848   7.7055   7.7397   8.4493   9.9257  10.3670  11.0809  11.2303
 11.7205  11.8027  12.1058  12.3875  12.4924  12.7101  12.8630  13.1215
 13.2887  13.5780  13.8184  13.9498  14.0370  14.1122  14.2126  14.3509
 14.4183  14.7525  15.3293  15.7411  16.0582
 --------------------------------------------------------------
 
          Ground-State Mulliken Net Atomic Charges

     Atom                 Charge (a.u.)
  ----------------------------------------
      1 C                    -0.158096
      2 C                    -0.110595
      3 C                    -0.022340
      4 C                    -0.004996
      5 H                     0.186697
      6 C                    -0.018461
      7 C                     0.072262
      8 C                     0.065603
      9 C                    -0.097776
     10 C                    -0.176101
     11 C                     0.051923
     12 H                     0.178478
     13 C                     0.357862
     14 C                     0.362569
     15 N                    -0.100818
     16 C                     0.355904
     17 C                     0.385590
     18 N                    -0.092995
     19 O                    -0.464749
     20 O                    -0.479144
     21 O                    -0.486748
     22 O                    -0.491861
     23 C                    -0.201621
     24 H                     0.141012
     25 H                     0.112174
     26 H                     0.111832
     27 C                    -0.198577
     28 H                     0.133852
     29 H                     0.111159
     30 H                     0.112406
     31 H                     0.210659
     32 C                    -0.064220
     33 S                     0.027692
     34 C                    -0.130711
     35 C                    -0.069748
     36 C                    -0.259475
     37 H                     0.236899
     38 H                     0.194353
     39 H                     0.220110
  ----------------------------------------
  Sum of atomic charges =     0.000000

 -----------------------------------------------------------------
                    Cartesian Multipole Moments
 -----------------------------------------------------------------
    Charge (ESU x 10^10)
                 0.0000
    Dipole Moment (Debye)
         X       2.8049      Y       3.0018      Z      -0.2888
       Tot       4.1185
    Quadrupole Moments (Debye-Ang)
        XX    -156.7521     XY       6.1758     YY    -180.5904
        XZ      -2.8171     YZ      -0.6238     ZZ    -178.2386
    Octopole Moments (Debye-Ang^2)
       XXX     -81.6052    XXY     505.1973    XYY     -18.2133
       YYY    1677.1042    XXZ       6.3187    XYZ      20.0909
       YYZ       5.6578    XZZ     -20.6562    YZZ     579.5128
       ZZZ       7.8351
    Hexadecapole Moments (Debye-Ang^3)
      XXXX    -633.7479   XXXY     -31.1009   XXYY   -2703.9093
      XYYY      18.1852   YYYY  -17344.9087   XXXZ    -511.6336
      XXYZ     105.9700   XYYZ    -271.2001   YYYZ     708.3539
      XXZZ   -1100.8634   XYZZ     -67.2678   YYZZ   -4211.6448
      XZZZ    -575.9970   YZZZ     -46.2428   ZZZZ   -6304.4461
 -----------------------------------------------------------------
 Total job time:  297.72s(wall), 8905.36s(cpu) 
 Fri Dec 15 16:22:05 2023

        *************************************************************
        *                                                           *
        *  Thank you very much for using Q-Chem.  Have a nice day.  *
        *                                                           *
        *************************************************************


0 sent ACK to 0 
now end server 0 ... 
cleanup process ... done
remove work dirs ./qchem3666448.0 -- ./qchem3666448.0
rm -rf ./qchem3666448.0
rm -rf ./qchem3666448
