You are running Q-Chem version: 5.4.0

#
# job setting
#
local host:  exp-4-09
current dir: /home/rramji/project-csd799/aromodel/pndit-qchem/rotation_run
input file:  Dimethyl_Naphthalene_Dicarboximide_Phi_30_Theta_0_Thiophene.qcin
output file: 
nprocs     : 1
nthreads   : 64
#
# qchem installation setting
#
QC:          /cm/shared/apps/spack/cpu/opt/spack/linux-centos8-zen2/gcc-10.2.0/qchem-5.4-akfmr7b3t57bfs6qan3padb2wnb2i7cl
QCAUX:       /cm/shared/apps/spack/cpu/opt/spack/linux-centos8-zen2/gcc-10.2.0/qchem-5.4-akfmr7b3t57bfs6qan3padb2wnb2i7cl/qcaux
QCPROG:      /cm/shared/apps/spack/cpu/opt/spack/linux-centos8-zen2/gcc-10.2.0/qchem-5.4-akfmr7b3t57bfs6qan3padb2wnb2i7cl/exe/qcprog.exe
QCPROG_S:    /cm/shared/apps/spack/cpu/opt/spack/linux-centos8-zen2/gcc-10.2.0/qchem-5.4-akfmr7b3t57bfs6qan3padb2wnb2i7cl/exe/qcprog.exe_s
PARALLEL:    -DPARALLEL
QCMPI:       mpich
#
# qchem directory setting
#
qcrun:       qchem2766664
QCSCRATCH:   .
QCLOCALSCR:  
QCTMPDIR:    .
QCFILEPREF:  ./qchem2766664
QCSAVEDIR:   
workdirs:    ./qchem2766664
workdir0:    ./qchem2766664
partmpdirs =  
#
# parallel setting
#
QCRSH:           ssh
QCMPI:           mpich
QCMPIRUN:        /cm/shared/apps/spack/cpu/opt/spack/linux-centos8-zen2/gcc-10.2.0/qchem-5.4-akfmr7b3t57bfs6qan3padb2wnb2i7cl/bin/mpi/mpirun_qchem
QCMACHINEFILE:   ./qchem2766664/hostfile
exp-4-09

#
# env setting
#
exported envs:   QC QCAUX QCSCRATCH QCRUNNAME QCFILEPREF QCPROG QCPROG_S GUIFILE

Running Job 1 of 1 Dimethyl_Naphthalene_Dicarboximide_Phi_30_Theta_0_Thiophene.qcin
qchem Dimethyl_Naphthalene_Dicarboximide_Phi_30_Theta_0_Thiophene.qcin_2766664.0 ./qchem2766664/ 1
/cm/shared/apps/spack/cpu/opt/spack/linux-centos8-zen2/gcc-10.2.0/qchem-5.4-akfmr7b3t57bfs6qan3padb2wnb2i7cl/bin/mpi/mpirun_qchem -machinefile ./qchem2766664/hostfile -np 1 /cm/shared/apps/spack/cpu/opt/spack/linux-centos8-zen2/gcc-10.2.0/qchem-5.4-akfmr7b3t57bfs6qan3padb2wnb2i7cl/exe/qcprog.exe Dimethyl_Naphthalene_Dicarboximide_Phi_30_Theta_0_Thiophene.qcin_2766664.0 ./qchem2766664/

Process 0 of 1 is on exp-4-09 - thread support 0
initial socket setup ...start
initial socket setup ...done 
now start server 0 ... 
                  Welcome to Q-Chem
     A Quantum Leap Into The Future Of Chemistry


 Q-Chem 5.4, Q-Chem, Inc., Pleasanton, CA (2021)

 License issued to: University of California, San Diego (site)

 E. Epifanovsky,  A. T. B. Gilbert,  Xintian Feng,  Joonho Lee,  Yuezhi Mao,  
 N. Mardirossian,  P. Pokhilko,  A. White,  M. Wormit,  M. P. Coons,  
 A. L. Dempwolff,  Zhengting Gan,  D. Hait,  P. R. Horn,  L. D. Jacobson,  
 I. Kaliman,  J. Kussmann,  A. W. Lange,  Ka Un Lao,  D. S. Levine,  Jie Liu,  
 S. C. McKenzie,  A. F. Morrison,  K. Nanda,  F. Plasser,  D. R. Rehn,  
 M. L. Vidal,  Zhi-Qiang You,  Ying Zhu,  B. Alam,  B. Albrecht,  
 A. Aldossary,  E. Alguire,  J. H. Andersen,  D. Barton,  K. Begam,  A. Behn,  
 Y. A. Bernard,  E. J. Berquist,  H. Burton,  A. Carreras,  K. Carter-Fenk,  
 R. Chakraborty,  A. D. Chien,  K. D. Closser,  V. Cofer-Shabica,  
 S. Dasgupta,  Jia Deng,  M. de Wergifosse,  M. Diedenhofen,  Hainam Do,  
 S. Ehlert,  Po-Tung Fang,  S. Fatehi,  Qingguo Feng,  J. Gayvert,  
 Qinghui Ge,  G. Gidofalvi,  M. Goldey,  J. Gomes,  C. Gonzalez-Espinoza,  
 S. Gulania,  A. Gunina,  M. W. D. Hanson-Heine,  P. H. P. Harbach,  
 A. W. Hauser,  M. F. Herbst,  M. Hernandez Vera,  M. Hodecker,  
 Z. C. Holden,  S. Houck,  Xunkun Huang,  Kerwin Hui,  B. C. Huynh,  
 M. Ivanov,  Hyunjun Ji,  Hanjie Jiang,  B. Kaduk,  S. Kaehler,  
 K. Khistyaev,  Jaehoon Kim,  P. Klunzinger,  Z. Koczor-Benda,  
 Joong Hoon Koh,  D. Kosenkov,  L. Koulias,  T. Kowalczyk,  C. M. Krauter,  
 K. Kue,  A. Kunitsa,  T. Kus,  A. Landau,  K. V. Lawler,  D. Lefrancois,  
 S. Lehtola,  Rain Li,  Yi-Pei Li,  Jiashu Liang,  M. Liebenthal,  
 Hung-Hsuan Lin,  You-Sheng Lin,  Fenglai Liu,  Kuan-Yu Liu,  
 M. Loipersberger,  A. Luenser,  A. Manjanath,  P. Manohar,  E. Mansoor,  
 S. F. Manzer,  Shan-Ping Mao,  A. V. Marenich,  T. Markovich,  S. Mason,  
 S. A. Maurer,  P. F. McLaughlin,  M. F. S. J. Menger,  J.-M. Mewes,  
 S. A. Mewes,  P. Morgante,  J. W. Mullinax,  T. S. Nguyen-Beck,  
 K. J. Oosterbaan,  G. Paran,  Alexander C. Paul,  Suranjan K. Paul,  
 F. Pavosevic,  Zheng Pei,  S. Prager,  E. I. Proynov,  E. Ramos,  B. Rana,  
 A. E. Rask,  A. Rettig,  R. M. Richard,  F. Rob,  E. Rossomme,  T. Scheele,  
 M. Scheurer,  M. Schneider,  N. Sergueev,  S. M. Sharada,  W. Skomorowski,  
 D. W. Small,  C. J. Stein,  Yu-Chuan Su,  E. J. Sundstrom,  Zhen Tao,  
 J. Thirman,  T. Tsuchimochi,  N. M. Tubman,  S. P. Veccham,  O. Vydrov,  
 J. Wenzel,  J. Witte,  A. Yamada,  Kun Yao,  S. Yeganeh,  S. R. Yost,  
 A. Zech,  Igor Ying Zhang,  Xing Zhang,  Yu Zhang,  D. Zuev,  
 A. Aspuru-Guzik,  A. T. Bell,  N. A. Besley,  K. B. Bravaya,  B. R. Brooks,  
 D. Casanova,  Jeng-Da Chai,  S. Coriani,  C. J. Cramer,  
 A. E. DePrince, III,  R. A. DiStasio Jr.,  A. Dreuw,  B. D. Dunietz,  
 T. R. Furlani,  W. A. Goddard III,  S. Grimme,  S. Hammes-Schiffer,  
 T. Head-Gordon,  W. J. Hehre,  Chao-Ping Hsu,  T.-C. Jagau,  Yousung Jung,  
 A. Klamt,  Jing Kong,  D. S. Lambrecht,  WanZhen Liang,  N. J. Mayhall,  
 C. W. McCurdy,  J. B. Neaton,  C. Ochsenfeld,  J. A. Parkhill,  R. Peverati,  
 V. A. Rassolov,  Yihan Shao,  L. V. Slipchenko,  T. Stauch,  R. P. Steele,  
 J. E. Subotnik,  A. J. W. Thom,  A. Tkatchenko,  D. G. Truhlar,  
 T. Van Voorhis,  T. A. Wesolowski,  K. B. Whaley,  H. L. Woodcock III,  
 P. M. Zimmerman,  S. Faraji,  P. M. W. Gill,  M. Head-Gordon,  
 J. M. Herbert,  A. I. Krylov

 Contributors to earlier versions of Q-Chem not listed above: 
 R. D. Adamson,  B. Austin,  R. Baer,  J. Baker,  G. J. O. Beran,  
 K. Brandhorst,  S. T. Brown,  E. F. C. Byrd,  A. K. Chakraborty,  
 G. K. L. Chan,  Chun-Min Chang,  Yunqing Chen,  C.-L. Cheng,  
 Siu Hung Chien,  D. M. Chipman,  D. L. Crittenden,  H. Dachsel,  
 R. J. Doerksen,  A. D. Dutoi,  R. G. Edgar,  J. Fosso-Tande,  
 L. Fusti-Molnar,  D. Ghosh,  A. Ghysels,  A. Golubeva-Zadorozhnaya,  
 J. Gonthier,  M. S. Gordon,  S. R. Gwaltney,  G. Hawkins,  J. E. Herr,  
 A. Heyden,  S. Hirata,  E. G. Hohenstein,  G. Kedziora,  F. J. Keil,  
 C. Kelley,  Jihan Kim,  R. A. King,  R. Z. Khaliullin,  P. P. Korambath,  
 W. Kurlancheek,  A. Laurent,  A. M. Lee,  M. S. Lee,  S. V. Levchenko,  
 Ching Yeh Lin,  D. Liotard,  E. Livshits,  R. C. Lochan,  I. Lotan,  
 L. A. Martinez-Martinez,  P. E. Maslen,  N. Nair,  D. P. O'Neill,  
 D. Neuhauser,  E. Neuscamman,  C. M. Oana,  R. Olivares-Amaya,  R. Olson,  
 T. M. Perrine,  B. Peters,  P. A. Pieniazek,  A. Prociuk,  Y. M. Rhee,  
 J. Ritchie,  M. A. Rohrdanz,  E. Rosta,  N. J. Russ,  H. F. Schaefer III,  
 M. W. Schmidt,  N. E. Schultz,  S. Sharma,  N. Shenvi,  C. D. Sherrill,  
 A. C. Simmonett,  A. Sodt,  T. Stein,  D. Stuck,  K. S. Thanthiriwatte,  
 V. Vanovschi,  L. Vogt,  Tao Wang,  A. Warshel,  M. A. Watson,  
 C. F. Williams,  Q. Wu,  X. Xu,  Jun Yang,  W. Zhang,  Yan Zhao

 Please cite Q-Chem as follows:
 Y. Shao et al., Mol. Phys. 113, 184-215 (2015)
 DOI: 10.1080/00268976.2014.952696

 Q-Chem 5.4.0 for Intel X86 EM64T Linux

 Parts of Q-Chem use Armadillo 9.800.1 (Horizon Scraper).
 http://arma.sourceforge.net/

 Q-Chem begins on Fri Dec 15 13:28:12 2023  

 Host: 
0

     Scratch files written to ./qchem2766664//
 May1621 |scratch|qcdevops|jenkins|workspace|build_RNUM    
 Parallel job on  1  processors
 Processing $rem in /cm/shared/apps/spack/cpu/opt/spack/linux-centos8-zen2/gcc-10.2.0/qchem-5.4-akfmr7b3t57bfs6qan3padb2wnb2i7cl/config/preferences:
 Processing $rem in /home/rramji/.qchemrc:
 Symmetry turned off for PCM/SM12/SMD calculation
 Core orbitals will be frozen

 Checking the input file for inconsistencies... 	...done.

 Q-Chem warning in module forms1/BasisType.C, line 2236:

 You are not using the predefined 5D/6D in this basis set.


--------------------------------------------------------------
User input:
--------------------------------------------------------------
$molecule
0 1
C	0.586080	-6.715879	-0.256927
C	0.534902	-6.132354	-1.562675
C	0.502834	-5.769583	0.827197
C	0.417309	-4.785626	-1.841253
H	0.592747	-6.795716	-2.440709
C	0.380402	-4.362083	0.535488
C	0.333638	-3.823504	-0.794999
C	0.296812	-3.400131	1.580529
C	0.211295	-2.417255	-1.084374
C	0.179438	-2.051515	1.305258
C	0.128835	-1.472591	-0.000000
H	0.121931	-1.389444	2.184267
C	0.535563	-6.164769	2.269719
C	0.330267	-3.783778	3.011152
N	0.448140	-5.150545	3.254617
C	0.384235	-4.408274	-3.275775
C	0.178078	-2.028827	-2.527951
N	0.265353	-3.037588	-3.513104
O	0.634270	-7.325728	2.661046
O	0.260493	-2.975473	3.934410
O	0.455333	-5.229160	-4.188059
O	0.078594	-0.875310	-2.940845
C	0.481421	-5.542933	4.667206
H	0.576173	-6.639132	4.712423
H	-0.445595	-5.205747	5.169231
H	1.336290	-5.051542	5.169992
C	0.225553	-2.577637	-4.904229
H	0.302574	-3.470163	-5.546833
H	1.062399	-1.879530	-5.095998
H	-0.718592	-2.033299	-5.095858
H	0.679970	-7.792708	-0.070974
C	0.000000	0.000000	0.000000
S	0.335026	0.718942	1.580530
C	1.027130	2.203226	0.904911
C	0.421617	0.904557	-0.985400
C	0.979485	2.101144	-0.493528
H	0.322049	0.690978	-2.059934
H	1.351718	2.899571	-1.152593
H	1.399246	3.001430	1.556025
$end

$rem
JOBTYPE		SP
EXCHANGE	HF
CORRELATION	pRIMP2
BASIS		cc-pvtz
METHOD		rimp2
AUX_BASIS	rimp2-cc-pvtz
SOLVENT_METHOD	PCM
PURECART	11111
SYMMETRY	false
MEM_TOTAL	110000
SCF_CONVERGENCE = 6
THRESH=10
GUI = 2
$end



$solvent
dielectric 4.90
$end
--------------------------------------------------------------
 ----------------------------------------------------------------
             Standard Nuclear Orientation (Angstroms)
    I     Atom           X                Y                Z
 ----------------------------------------------------------------
    1      C       0.5860800000    -6.7158790000    -0.2569270000
    2      C       0.5349020000    -6.1323540000    -1.5626750000
    3      C       0.5028340000    -5.7695830000     0.8271970000
    4      C       0.4173090000    -4.7856260000    -1.8412530000
    5      H       0.5927470000    -6.7957160000    -2.4407090000
    6      C       0.3804020000    -4.3620830000     0.5354880000
    7      C       0.3336380000    -3.8235040000    -0.7949990000
    8      C       0.2968120000    -3.4001310000     1.5805290000
    9      C       0.2112950000    -2.4172550000    -1.0843740000
   10      C       0.1794380000    -2.0515150000     1.3052580000
   11      C       0.1288350000    -1.4725910000     0.0000000000
   12      H       0.1219310000    -1.3894440000     2.1842670000
   13      C       0.5355630000    -6.1647690000     2.2697190000
   14      C       0.3302670000    -3.7837780000     3.0111520000
   15      N       0.4481400000    -5.1505450000     3.2546170000
   16      C       0.3842350000    -4.4082740000    -3.2757750000
   17      C       0.1780780000    -2.0288270000    -2.5279510000
   18      N       0.2653530000    -3.0375880000    -3.5131040000
   19      O       0.6342700000    -7.3257280000     2.6610460000
   20      O       0.2604930000    -2.9754730000     3.9344100000
   21      O       0.4553330000    -5.2291600000    -4.1880590000
   22      O       0.0785940000    -0.8753100000    -2.9408450000
   23      C       0.4814210000    -5.5429330000     4.6672060000
   24      H       0.5761730000    -6.6391320000     4.7124230000
   25      H      -0.4455950000    -5.2057470000     5.1692310000
   26      H       1.3362900000    -5.0515420000     5.1699920000
   27      C       0.2255530000    -2.5776370000    -4.9042290000
   28      H       0.3025740000    -3.4701630000    -5.5468330000
   29      H       1.0623990000    -1.8795300000    -5.0959980000
   30      H      -0.7185920000    -2.0332990000    -5.0958580000
   31      H       0.6799700000    -7.7927080000    -0.0709740000
   32      C       0.0000000000     0.0000000000     0.0000000000
   33      S       0.3350260000     0.7189420000     1.5805300000
   34      C       1.0271300000     2.2032260000     0.9049110000
   35      C       0.4216170000     0.9045570000    -0.9854000000
   36      C       0.9794850000     2.1011440000    -0.4935280000
   37      H       0.3220490000     0.6909780000    -2.0599340000
   38      H       1.3517180000     2.8995710000    -1.1525930000
   39      H       1.3992460000     3.0014300000     1.5560250000
 ----------------------------------------------------------------
 Nuclear Repulsion Energy =        2506.55098777 hartrees
 There are       97 alpha and       97 beta electrons
 Requested basis set is cc-pVTZ
 There are 344 shells and 982 basis functions

 Total QAlloc Memory Limit 110000 MB
 Mega-Array Size       188 MB
 MEM_STATIC part       192 MB
 Discretize the solute cavity surface with Lebedev spheres
	Using 110 Lebedev grid points for each H atom
	Using 194 Lebedev grid points for other atoms
	Atomic van der Waals radii will be scaled by 1.20
 Remove points where switching function is < 1.0e-08
 Keep 2491 surface tesserae and discard 4067 interior tesserae
 Molecular Surface Area = 360.679 Angst**2
 Requested basis set is rimp2-cc-pVTZ
 There are 750 shells and 2588 basis functions
 A cutoff of  1.0D-10 yielded  31924 shell pairs
 There are    245742 function pairs (    319284 Cartesian)
 Smallest overlap matrix eigenvalue = 9.72E-06

 Q-Chem warning in module stvman/mkSTV.C, line 323:

 Overlap eigenvalue is smaller than square root of threshold
 Use THRESH >= 12 to get rid of this warning


 Scale SEOQF with 1.000000e+00/1.000000e-02/1.000000e-02

 Standard Electronic Orientation quadrupole field applied
 Nucleus-field energy     =     0.0000000245 hartrees
 Guess from superposition of atomic densities
 Warning:  Energy on first SCF cycle will be non-variational
 SAD guess density has 194.000000 electrons

 -----------------------------------------------------------------------
  General SCF calculation program by
  Eric Jon Sundstrom, Paul Horn, Yuezhi Mao, Dmitri Zuev, Alec White,
  David Stuck, Shaama M.S., Shane Yost, Joonho Lee, David Small,
  Daniel Levine, Susi Lehtola, Hugh Burton, Evgeny Epifanovsky,
  Bang C. Huynh
 -----------------------------------------------------------------------
 Hartree-Fock
 using 64 threads for integral computing
 -------------------------------------------------------
 OpenMP Integral computing Module                
 Release: version 1.0, May 2013, Q-Chem Inc. Pittsburgh 
 -------------------------------------------------------
 A restricted SCF calculation will be
 performed using DIIS
 SCF converges when DIIS error is below 1.0e-06
 ---------------------------------------
  Cycle       Energy         DIIS error
 ---------------------------------------
    1   -1581.4410217669      1.87e-02  
    2   -1570.0995232080      2.08e-03  
    3   -1570.4295274964      1.60e-03  
    4   -1570.6521682656      2.59e-04  
    5   -1570.6645402108      7.81e-05  
    6   -1570.6656871946      2.91e-05  
    7   -1570.6659621129      1.45e-05  
    8   -1570.6660494284      6.25e-06  
    9   -1570.6660638951      2.40e-06  
   10   -1570.6660666349      9.51e-07  Convergence criterion met
 ---------------------------------------
 SCF time:   CPU 5959.36s  wall 221.00s 

************** Final PCM Free Energy Summary **************
 G_electrostatic  =      -0.02085768 hartree =     -13.08838954 kcal/mol
 G_cavitation     =       0.00000000 hartree =       0.00000000 kcal/mol
 G_dispersion     =       0.00000000 hartree =       0.00000000 kcal/mol
 G_repulsion      =       0.00000000 hartree =       0.00000000 kcal/mol
 --------------------------------------------------
 Non-electrostatic Free Energy =       0.00000000 hartree =       0.00000000 kcal/mol
 Total                         =      -0.02085768 hartree =     -13.08838954 kcal/mol
 --------------------------------------------------
 SCF Energy (H0 + V/2)                       =   -1570.66606663 
 Solute Internal Energy (H0)                 =   -1570.64520896 
 Total Free Energy (H0 + V/2 + non-elec)     =   -1570.66606663 hartree
                                             = -985607.83259173 kcal/mol
***********************************************************

 SCF   energy in the final basis set =    -1570.6660666349
 Total energy in the final basis set =    -1570.6660666349


 --------------------------------------------------------------
  Generalized many-body perturbation theory program
  by Joonho Lee, Fazle Rob, Xintian Feng, Evgeny Epifanovsky

 No regularization used 
 (reg. param. = 0.0000e+00)
  (P|Q)^-1/2 Time:  CPU 102.23 s  wall 2.35 s

 In RI-MP2 calculation: 
 # of frozen core orbitals: 31

 Components of the RIMP2 correlation energy:
        aaaa    correlation energy =        -0.6184063600 a.u.
        abab    correlation energy =        -3.3945938216 a.u.
        bbbb    correlation energy =        -0.6184063600 a.u.
        non-Brillouin singles      =        -0.0000000000 a.u.
        total same-spin energy     =        -1.2368127201 a.u.
        total opposite-spin energy =        -3.3945938216 a.u.

 Total  RIMP2   correlation energy =        -4.6314065416 a.u.
        RIMP2         total energy =     -1575.2974731766 a.u.

 RI-MP2 Energy Time:  CPU 1971.50 s  wall 32.59 s
 
 --------------------------------------------------------------
 
                    Orbital Energies (a.u.)
 --------------------------------------------------------------
 
 Alpha MOs
 -- Occupied --
-91.9926 -20.5580 -20.5560 -20.5548 -20.5526 -15.6306 -15.6299 -11.3992
-11.3964 -11.3904 -11.3902 -11.3199 -11.3010 -11.2986 -11.2965 -11.2941
-11.2928 -11.2918 -11.2862 -11.2862 -11.2814 -11.2777 -11.2760 -11.2646
-11.2641 -11.2570 -11.2504  -8.9929  -6.6737  -6.6731  -6.6725  -1.4254
 -1.4243  -1.4037  -1.4036  -1.2669  -1.2649  -1.2160  -1.1803  -1.1428
 -1.1147  -1.0630  -1.0481  -0.9920  -0.9906  -0.9898  -0.9581  -0.9464
 -0.8965  -0.8781  -0.8773  -0.8606  -0.7962  -0.7798  -0.7725  -0.7632
 -0.7348  -0.7255  -0.7024  -0.6936  -0.6819  -0.6736  -0.6660  -0.6618
 -0.6553  -0.6409  -0.6373  -0.6336  -0.6268  -0.6126  -0.5911  -0.5832
 -0.5791  -0.5706  -0.5689  -0.5635  -0.5610  -0.5559  -0.5537  -0.5466
 -0.5353  -0.5246  -0.5238  -0.5132  -0.4807  -0.4668  -0.4643  -0.4610
 -0.4574  -0.4492  -0.4286  -0.4188  -0.4092  -0.3774  -0.3558  -0.3353
 -0.2986
 -- Virtual --
 -0.0172   0.0497   0.0684   0.1018   0.1289   0.1544   0.1582   0.1588
  0.1671   0.1715   0.1763   0.1864   0.1968   0.1971   0.2076   0.2111
  0.2249   0.2277   0.2294   0.2366   0.2474   0.2527   0.2629   0.2648
  0.2669   0.3079   0.3122   0.3161   0.3212   0.3332   0.3399   0.3420
  0.3475   0.3519   0.3554   0.3569   0.3589   0.3656   0.3749   0.3790
  0.3810   0.3892   0.3925   0.3983   0.4058   0.4081   0.4105   0.4167
  0.4253   0.4270   0.4330   0.4369   0.4418   0.4462   0.4491   0.4566
  0.4623   0.4642   0.4689   0.4732   0.4794   0.4824   0.4873   0.4916
  0.4949   0.5056   0.5133   0.5158   0.5193   0.5245   0.5280   0.5308
  0.5389   0.5439   0.5479   0.5530   0.5536   0.5594   0.5637   0.5701
  0.5713   0.5743   0.5781   0.5894   0.5939   0.5945   0.5969   0.6000
  0.6046   0.6081   0.6152   0.6188   0.6235   0.6274   0.6304   0.6310
  0.6342   0.6351   0.6374   0.6456   0.6526   0.6595   0.6670   0.6739
  0.6827   0.6844   0.6912   0.6995   0.7017   0.7124   0.7131   0.7255
  0.7343   0.7349   0.7390   0.7479   0.7528   0.7585   0.7618   0.7684
  0.7769   0.7807   0.7853   0.7874   0.8010   0.8081   0.8143   0.8213
  0.8267   0.8341   0.8409   0.8441   0.8495   0.8541   0.8585   0.8622
  0.8641   0.8664   0.8720   0.8789   0.8845   0.8888   0.9056   0.9091
  0.9159   0.9177   0.9267   0.9291   0.9345   0.9397   0.9407   0.9450
  0.9553   0.9593   0.9659   0.9681   0.9722   0.9734   0.9844   0.9919
  0.9969   0.9976   1.0042   1.0084   1.0102   1.0163   1.0273   1.0367
  1.0403   1.0443   1.0505   1.0565   1.0623   1.0654   1.0692   1.0740
  1.0773   1.0822   1.0850   1.0875   1.0948   1.0973   1.1089   1.1194
  1.1252   1.1309   1.1355   1.1413   1.1453   1.1488   1.1551   1.1606
  1.1643   1.1676   1.1711   1.1811   1.1890   1.1933   1.1960   1.1974
  1.2047   1.2126   1.2162   1.2212   1.2271   1.2280   1.2402   1.2404
  1.2452   1.2496   1.2530   1.2631   1.2633   1.2745   1.2828   1.3010
  1.3167   1.3274   1.3311   1.3350   1.3400   1.3469   1.3516   1.3625
  1.3716   1.3823   1.3826   1.3867   1.3891   1.3973   1.4083   1.4194
  1.4204   1.4284   1.4394   1.4417   1.4507   1.4521   1.4581   1.4624
  1.4757   1.4812   1.4863   1.4945   1.4987   1.5113   1.5177   1.5250
  1.5300   1.5340   1.5386   1.5454   1.5556   1.5587   1.5634   1.5687
  1.5746   1.5762   1.5895   1.5963   1.6108   1.6163   1.6279   1.6306
  1.6379   1.6456   1.6477   1.6549   1.6669   1.6724   1.6874   1.6893
  1.6979   1.7138   1.7217   1.7264   1.7370   1.7432   1.7478   1.7508
  1.7659   1.7671   1.7780   1.7867   1.7923   1.8004   1.8037   1.8199
  1.8239   1.8409   1.8439   1.8500   1.8558   1.8645   1.8657   1.8766
  1.8772   1.8878   1.8921   1.9118   1.9231   1.9319   1.9534   1.9570
  1.9648   1.9710   1.9763   1.9932   2.0056   2.0140   2.0259   2.0375
  2.0503   2.0657   2.0748   2.1001   2.1038   2.1220   2.1371   2.1425
  2.1541   2.1626   2.1673   2.1796   2.1868   2.2129   2.2182   2.2359
  2.2399   2.2443   2.2590   2.2721   2.2838   2.2884   2.2949   2.3026
  2.3239   2.3296   2.3331   2.3502   2.3602   2.3633   2.3758   2.3855
  2.4077   2.4215   2.4352   2.4416   2.4522   2.4591   2.4635   2.4831
  2.4875   2.4916   2.4989   2.5010   2.5097   2.5263   2.5373   2.5465
  2.5564   2.5647   2.5786   2.5880   2.5887   2.5997   2.6060   2.6135
  2.6156   2.6267   2.6441   2.6453   2.6559   2.6663   2.6676   2.6746
  2.6816   2.6887   2.6962   2.7049   2.7115   2.7157   2.7227   2.7254
  2.7387   2.7458   2.7522   2.7570   2.7669   2.7705   2.7867   2.7986
  2.8102   2.8132   2.8260   2.8386   2.8424   2.8464   2.8598   2.8677
  2.8741   2.8766   2.8801   2.8855   2.8864   2.8945   2.9113   2.9143
  2.9237   2.9286   2.9342   2.9441   2.9487   2.9619   2.9673   2.9762
  2.9773   2.9844   2.9934   3.0025   3.0046   3.0073   3.0134   3.0154
  3.0274   3.0380   3.0396   3.0421   3.0542   3.0596   3.0729   3.0882
  3.0889   3.0933   3.0986   3.1014   3.1092   3.1117   3.1192   3.1226
  3.1280   3.1338   3.1374   3.1526   3.1700   3.1729   3.1788   3.1841
  3.1962   3.1984   3.2027   3.2099   3.2112   3.2178   3.2247   3.2254
  3.2336   3.2373   3.2377   3.2461   3.2502   3.2552   3.2612   3.2645
  3.2701   3.2730   3.2759   3.2831   3.2901   3.2931   3.2985   3.3088
  3.3102   3.3114   3.3207   3.3278   3.3319   3.3338   3.3367   3.3425
  3.3444   3.3485   3.3504   3.3570   3.3620   3.3639   3.3677   3.3728
  3.3791   3.3854   3.3876   3.3983   3.4015   3.4073   3.4167   3.4215
  3.4232   3.4292   3.4329   3.4439   3.4513   3.4546   3.4562   3.4616
  3.4638   3.4645   3.4715   3.4762   3.4805   3.4839   3.4933   3.4984
  3.5029   3.5043   3.5103   3.5126   3.5182   3.5227   3.5256   3.5294
  3.5445   3.5499   3.5610   3.5633   3.5660   3.5739   3.5776   3.5847
  3.5932   3.5967   3.6031   3.6103   3.6185   3.6260   3.6297   3.6304
  3.6358   3.6389   3.6423   3.6435   3.6592   3.6670   3.6756   3.6820
  3.6884   3.6930   3.6996   3.7060   3.7089   3.7125   3.7138   3.7262
  3.7312   3.7363   3.7409   3.7491   3.7515   3.7557   3.7623   3.7738
  3.7831   3.7859   3.7886   3.7934   3.7962   3.7994   3.8029   3.8136
  3.8170   3.8205   3.8256   3.8418   3.8488   3.8532   3.8615   3.8635
  3.8682   3.8809   3.8851   3.8895   3.9009   3.9097   3.9152   3.9283
  3.9329   3.9370   3.9456   3.9471   3.9620   3.9662   3.9739   3.9847
  3.9884   4.0021   4.0112   4.0237   4.0256   4.0272   4.0392   4.0463
  4.0556   4.0667   4.0718   4.0793   4.0828   4.0877   4.0996   4.1107
  4.1179   4.1342   4.1384   4.1433   4.1571   4.1595   4.1713   4.1751
  4.1850   4.1864   4.1905   4.1980   4.2074   4.2234   4.2328   4.2426
  4.2554   4.2601   4.2713   4.2759   4.2790   4.2878   4.2950   4.2958
  4.3033   4.3041   4.3103   4.3206   4.3212   4.3359   4.3420   4.3484
  4.3513   4.3553   4.3608   4.3663   4.3690   4.3772   4.3817   4.3893
  4.3917   4.3993   4.4068   4.4099   4.4198   4.4242   4.4371   4.4443
  4.4611   4.4708   4.4716   4.4882   4.4951   4.5058   4.5166   4.5229
  4.5260   4.5307   4.5422   4.5476   4.5541   4.5623   4.5753   4.5773
  4.5796   4.5812   4.5845   4.6051   4.6091   4.6205   4.6313   4.6366
  4.6402   4.6509   4.6573   4.6752   4.6783   4.6844   4.6920   4.7074
  4.7140   4.7293   4.7355   4.7527   4.7647   4.7784   4.7894   4.8103
  4.8135   4.8317   4.8337   4.8442   4.8489   4.8641   4.8791   4.8825
  4.8931   4.9074   4.9289   4.9368   4.9480   4.9592   4.9741   4.9943
  4.9967   5.0109   5.0214   5.0372   5.0467   5.0510   5.0559   5.0630
  5.1019   5.1065   5.1130   5.1171   5.1262   5.1344   5.1456   5.1614
  5.1686   5.1814   5.1932   5.2200   5.2323   5.2389   5.2565   5.2583
  5.2681   5.2818   5.2869   5.3000   5.3123   5.3240   5.3352   5.3471
  5.3537   5.3958   5.4020   5.4069   5.4258   5.4316   5.4339   5.4646
  5.4769   5.5074   5.5091   5.5128   5.5158   5.5352   5.5453   5.5574
  5.5604   5.5636   5.5701   5.5746   5.5780   5.5949   5.6081   5.6145
  5.6321   5.6402   5.6530   5.6555   5.6670   5.6767   5.6795   5.6962
  5.7057   5.7191   5.7255   5.7427   5.7552   5.7615   5.7737   5.7771
  5.7864   5.7900   5.8144   5.8254   5.8500   5.8895   5.8932   5.9179
  5.9476   5.9591   5.9873   6.0079   6.0242   6.0252   6.0414   6.0477
  6.0962   6.1013   6.1093   6.1241   6.1285   6.1848   6.1980   6.2103
  6.2180   6.2221   6.2351   6.2682   6.2739   6.2927   6.3039   6.3500
  6.3579   6.3921   6.4314   6.4504   6.4688   6.5294   6.5629   6.5736
  6.5865   6.6074   6.6419   6.6485   6.6595   6.6900   6.7165   6.8343
  6.8413   6.8847   6.8867   6.8984   6.9119   6.9330   6.9765   7.0813
  7.1376   7.1472   7.1953   7.2102   7.2685   7.3330   7.3434   7.3451
  7.3682   7.4713   7.5497   7.5607   7.5769   7.5822   7.6354   7.6471
  7.6827   7.7178   7.8350   8.4282   9.9270  10.3795  11.0989  11.2352
 11.7087  11.7895  12.0490  12.3918  12.5094  12.6521  12.8518  13.1360
 13.3179  13.5603  13.8221  13.9533  14.0602  14.1384  14.2811  14.3745
 14.4227  14.7551  15.3384  15.7435  16.0284
 --------------------------------------------------------------
 
          Ground-State Mulliken Net Atomic Charges

     Atom                 Charge (a.u.)
  ----------------------------------------
      1 C                    -0.150515
      2 C                    -0.111959
      3 C                    -0.026698
      4 C                    -0.002278
      5 H                     0.187344
      6 C                    -0.004911
      7 C                     0.075115
      8 C                     0.050009
      9 C                    -0.083906
     10 C                    -0.162297
     11 C                     0.043480
     12 H                     0.171207
     13 C                     0.358479
     14 C                     0.362114
     15 N                    -0.101253
     16 C                     0.358066
     17 C                     0.383990
     18 N                    -0.091986
     19 O                    -0.464439
     20 O                    -0.477130
     21 O                    -0.484330
     22 O                    -0.482094
     23 C                    -0.201308
     24 H                     0.141024
     25 H                     0.112381
     26 H                     0.112275
     27 C                    -0.198556
     28 H                     0.134541
     29 H                     0.111974
     30 H                     0.112626
     31 H                     0.211813
     32 C                     0.004940
     33 S                     0.017194
     34 C                    -0.176334
     35 C                    -0.146105
     36 C                    -0.233426
     37 H                     0.238385
     38 H                     0.193554
     39 H                     0.219016
  ----------------------------------------
  Sum of atomic charges =     0.000000

 -----------------------------------------------------------------
                    Cartesian Multipole Moments
 -----------------------------------------------------------------
    Charge (ESU x 10^10)
                -0.0000
    Dipole Moment (Debye)
         X       1.2252      Y       2.7086      Z      -0.7271
       Tot       3.0604
    Quadrupole Moments (Debye-Ang)
        XX    -161.8195     XY       6.2457     YY    -172.0898
        XZ       0.4291     YZ       0.1996     ZZ    -178.3640
    Octopole Moments (Debye-Ang^2)
       XXX    -194.1002    XXY     476.6249    XYY     -64.9024
       YYY    1627.6190    XXZ       1.1019    XYZ       3.4954
       YYZ       6.6758    XZZ     -66.6872    YZZ     566.4581
       ZZZ       5.0718
    Hexadecapole Moments (Debye-Ang^3)
      XXXX    -402.7832   XXXY     560.2863   XXYY   -2683.3325
      XYYY     735.7768   YYYY  -17204.5405   XXXZ     -50.0386
      XXYZ     108.8976   XYYZ     -40.1615   YYYZ     726.4278
      XXZZ   -1095.9496   XYZZ     254.7346   YYZZ   -4236.1292
      XZZZ     -15.7636   YZZZ     -61.2053   ZZZZ   -6475.9282
 -----------------------------------------------------------------
 Total job time:  260.60s(wall), 8051.60s(cpu) 
 Fri Dec 15 13:32:32 2023

        *************************************************************
        *                                                           *
        *  Thank you very much for using Q-Chem.  Have a nice day.  *
        *                                                           *
        *************************************************************


0 sent ACK to 0 
now end server 0 ... 
cleanup process ... done
remove work dirs ./qchem2766664.0 -- ./qchem2766664.0
rm -rf ./qchem2766664.0
rm -rf ./qchem2766664
