You are running Q-Chem version: 5.4.0

#
# job setting
#
local host:  exp-2-40
current dir: /home/rramji/project-csd799/aromodel/pndit-qchem/rotation_run
input file:  Dimethyl_Naphthalene_Dicarboximide_Phi_25_Theta_100_Thiophene.qcin
output file: 
nprocs     : 1
nthreads   : 64
#
# qchem installation setting
#
QC:          /cm/shared/apps/spack/cpu/opt/spack/linux-centos8-zen2/gcc-10.2.0/qchem-5.4-akfmr7b3t57bfs6qan3padb2wnb2i7cl
QCAUX:       /cm/shared/apps/spack/cpu/opt/spack/linux-centos8-zen2/gcc-10.2.0/qchem-5.4-akfmr7b3t57bfs6qan3padb2wnb2i7cl/qcaux
QCPROG:      /cm/shared/apps/spack/cpu/opt/spack/linux-centos8-zen2/gcc-10.2.0/qchem-5.4-akfmr7b3t57bfs6qan3padb2wnb2i7cl/exe/qcprog.exe
QCPROG_S:    /cm/shared/apps/spack/cpu/opt/spack/linux-centos8-zen2/gcc-10.2.0/qchem-5.4-akfmr7b3t57bfs6qan3padb2wnb2i7cl/exe/qcprog.exe_s
PARALLEL:    -DPARALLEL
QCMPI:       mpich
#
# qchem directory setting
#
qcrun:       qchem733357
QCSCRATCH:   .
QCLOCALSCR:  
QCTMPDIR:    .
QCFILEPREF:  ./qchem733357
QCSAVEDIR:   
workdirs:    ./qchem733357
workdir0:    ./qchem733357
partmpdirs =  
#
# parallel setting
#
QCRSH:           ssh
QCMPI:           mpich
QCMPIRUN:        /cm/shared/apps/spack/cpu/opt/spack/linux-centos8-zen2/gcc-10.2.0/qchem-5.4-akfmr7b3t57bfs6qan3padb2wnb2i7cl/bin/mpi/mpirun_qchem
QCMACHINEFILE:   ./qchem733357/hostfile
exp-2-40

#
# env setting
#
exported envs:   QC QCAUX QCSCRATCH QCRUNNAME QCFILEPREF QCPROG QCPROG_S GUIFILE

Running Job 1 of 1 Dimethyl_Naphthalene_Dicarboximide_Phi_25_Theta_100_Thiophene.qcin
qchem Dimethyl_Naphthalene_Dicarboximide_Phi_25_Theta_100_Thiophene.qcin_733357.0 ./qchem733357/ 1
/cm/shared/apps/spack/cpu/opt/spack/linux-centos8-zen2/gcc-10.2.0/qchem-5.4-akfmr7b3t57bfs6qan3padb2wnb2i7cl/bin/mpi/mpirun_qchem -machinefile ./qchem733357/hostfile -np 1 /cm/shared/apps/spack/cpu/opt/spack/linux-centos8-zen2/gcc-10.2.0/qchem-5.4-akfmr7b3t57bfs6qan3padb2wnb2i7cl/exe/qcprog.exe Dimethyl_Naphthalene_Dicarboximide_Phi_25_Theta_100_Thiophene.qcin_733357.0 ./qchem733357/

Process 0 of 1 is on exp-2-40 - thread support 0
initial socket setup ...start
initial socket setup ...done 
now start server 0 ... 
                  Welcome to Q-Chem
     A Quantum Leap Into The Future Of Chemistry


 Q-Chem 5.4, Q-Chem, Inc., Pleasanton, CA (2021)

 License issued to: University of California, San Diego (site)

 E. Epifanovsky,  A. T. B. Gilbert,  Xintian Feng,  Joonho Lee,  Yuezhi Mao,  
 N. Mardirossian,  P. Pokhilko,  A. White,  M. Wormit,  M. P. Coons,  
 A. L. Dempwolff,  Zhengting Gan,  D. Hait,  P. R. Horn,  L. D. Jacobson,  
 I. Kaliman,  J. Kussmann,  A. W. Lange,  Ka Un Lao,  D. S. Levine,  Jie Liu,  
 S. C. McKenzie,  A. F. Morrison,  K. Nanda,  F. Plasser,  D. R. Rehn,  
 M. L. Vidal,  Zhi-Qiang You,  Ying Zhu,  B. Alam,  B. Albrecht,  
 A. Aldossary,  E. Alguire,  J. H. Andersen,  D. Barton,  K. Begam,  A. Behn,  
 Y. A. Bernard,  E. J. Berquist,  H. Burton,  A. Carreras,  K. Carter-Fenk,  
 R. Chakraborty,  A. D. Chien,  K. D. Closser,  V. Cofer-Shabica,  
 S. Dasgupta,  Jia Deng,  M. de Wergifosse,  M. Diedenhofen,  Hainam Do,  
 S. Ehlert,  Po-Tung Fang,  S. Fatehi,  Qingguo Feng,  J. Gayvert,  
 Qinghui Ge,  G. Gidofalvi,  M. Goldey,  J. Gomes,  C. Gonzalez-Espinoza,  
 S. Gulania,  A. Gunina,  M. W. D. Hanson-Heine,  P. H. P. Harbach,  
 A. W. Hauser,  M. F. Herbst,  M. Hernandez Vera,  M. Hodecker,  
 Z. C. Holden,  S. Houck,  Xunkun Huang,  Kerwin Hui,  B. C. Huynh,  
 M. Ivanov,  Hyunjun Ji,  Hanjie Jiang,  B. Kaduk,  S. Kaehler,  
 K. Khistyaev,  Jaehoon Kim,  P. Klunzinger,  Z. Koczor-Benda,  
 Joong Hoon Koh,  D. Kosenkov,  L. Koulias,  T. Kowalczyk,  C. M. Krauter,  
 K. Kue,  A. Kunitsa,  T. Kus,  A. Landau,  K. V. Lawler,  D. Lefrancois,  
 S. Lehtola,  Rain Li,  Yi-Pei Li,  Jiashu Liang,  M. Liebenthal,  
 Hung-Hsuan Lin,  You-Sheng Lin,  Fenglai Liu,  Kuan-Yu Liu,  
 M. Loipersberger,  A. Luenser,  A. Manjanath,  P. Manohar,  E. Mansoor,  
 S. F. Manzer,  Shan-Ping Mao,  A. V. Marenich,  T. Markovich,  S. Mason,  
 S. A. Maurer,  P. F. McLaughlin,  M. F. S. J. Menger,  J.-M. Mewes,  
 S. A. Mewes,  P. Morgante,  J. W. Mullinax,  T. S. Nguyen-Beck,  
 K. J. Oosterbaan,  G. Paran,  Alexander C. Paul,  Suranjan K. Paul,  
 F. Pavosevic,  Zheng Pei,  S. Prager,  E. I. Proynov,  E. Ramos,  B. Rana,  
 A. E. Rask,  A. Rettig,  R. M. Richard,  F. Rob,  E. Rossomme,  T. Scheele,  
 M. Scheurer,  M. Schneider,  N. Sergueev,  S. M. Sharada,  W. Skomorowski,  
 D. W. Small,  C. J. Stein,  Yu-Chuan Su,  E. J. Sundstrom,  Zhen Tao,  
 J. Thirman,  T. Tsuchimochi,  N. M. Tubman,  S. P. Veccham,  O. Vydrov,  
 J. Wenzel,  J. Witte,  A. Yamada,  Kun Yao,  S. Yeganeh,  S. R. Yost,  
 A. Zech,  Igor Ying Zhang,  Xing Zhang,  Yu Zhang,  D. Zuev,  
 A. Aspuru-Guzik,  A. T. Bell,  N. A. Besley,  K. B. Bravaya,  B. R. Brooks,  
 D. Casanova,  Jeng-Da Chai,  S. Coriani,  C. J. Cramer,  
 A. E. DePrince, III,  R. A. DiStasio Jr.,  A. Dreuw,  B. D. Dunietz,  
 T. R. Furlani,  W. A. Goddard III,  S. Grimme,  S. Hammes-Schiffer,  
 T. Head-Gordon,  W. J. Hehre,  Chao-Ping Hsu,  T.-C. Jagau,  Yousung Jung,  
 A. Klamt,  Jing Kong,  D. S. Lambrecht,  WanZhen Liang,  N. J. Mayhall,  
 C. W. McCurdy,  J. B. Neaton,  C. Ochsenfeld,  J. A. Parkhill,  R. Peverati,  
 V. A. Rassolov,  Yihan Shao,  L. V. Slipchenko,  T. Stauch,  R. P. Steele,  
 J. E. Subotnik,  A. J. W. Thom,  A. Tkatchenko,  D. G. Truhlar,  
 T. Van Voorhis,  T. A. Wesolowski,  K. B. Whaley,  H. L. Woodcock III,  
 P. M. Zimmerman,  S. Faraji,  P. M. W. Gill,  M. Head-Gordon,  
 J. M. Herbert,  A. I. Krylov

 Contributors to earlier versions of Q-Chem not listed above: 
 R. D. Adamson,  B. Austin,  R. Baer,  J. Baker,  G. J. O. Beran,  
 K. Brandhorst,  S. T. Brown,  E. F. C. Byrd,  A. K. Chakraborty,  
 G. K. L. Chan,  Chun-Min Chang,  Yunqing Chen,  C.-L. Cheng,  
 Siu Hung Chien,  D. M. Chipman,  D. L. Crittenden,  H. Dachsel,  
 R. J. Doerksen,  A. D. Dutoi,  R. G. Edgar,  J. Fosso-Tande,  
 L. Fusti-Molnar,  D. Ghosh,  A. Ghysels,  A. Golubeva-Zadorozhnaya,  
 J. Gonthier,  M. S. Gordon,  S. R. Gwaltney,  G. Hawkins,  J. E. Herr,  
 A. Heyden,  S. Hirata,  E. G. Hohenstein,  G. Kedziora,  F. J. Keil,  
 C. Kelley,  Jihan Kim,  R. A. King,  R. Z. Khaliullin,  P. P. Korambath,  
 W. Kurlancheek,  A. Laurent,  A. M. Lee,  M. S. Lee,  S. V. Levchenko,  
 Ching Yeh Lin,  D. Liotard,  E. Livshits,  R. C. Lochan,  I. Lotan,  
 L. A. Martinez-Martinez,  P. E. Maslen,  N. Nair,  D. P. O'Neill,  
 D. Neuhauser,  E. Neuscamman,  C. M. Oana,  R. Olivares-Amaya,  R. Olson,  
 T. M. Perrine,  B. Peters,  P. A. Pieniazek,  A. Prociuk,  Y. M. Rhee,  
 J. Ritchie,  M. A. Rohrdanz,  E. Rosta,  N. J. Russ,  H. F. Schaefer III,  
 M. W. Schmidt,  N. E. Schultz,  S. Sharma,  N. Shenvi,  C. D. Sherrill,  
 A. C. Simmonett,  A. Sodt,  T. Stein,  D. Stuck,  K. S. Thanthiriwatte,  
 V. Vanovschi,  L. Vogt,  Tao Wang,  A. Warshel,  M. A. Watson,  
 C. F. Williams,  Q. Wu,  X. Xu,  Jun Yang,  W. Zhang,  Yan Zhao

 Please cite Q-Chem as follows:
 Y. Shao et al., Mol. Phys. 113, 184-215 (2015)
 DOI: 10.1080/00268976.2014.952696

 Q-Chem 5.4.0 for Intel X86 EM64T Linux

 Parts of Q-Chem use Armadillo 9.800.1 (Horizon Scraper).
 http://arma.sourceforge.net/

 Q-Chem begins on Fri Dec 15 14:11:12 2023  

 Host: 
0

     Scratch files written to ./qchem733357//
 May1621 |scratch|qcdevops|jenkins|workspace|build_RNUM    
 Parallel job on  1  processors
 Processing $rem in /cm/shared/apps/spack/cpu/opt/spack/linux-centos8-zen2/gcc-10.2.0/qchem-5.4-akfmr7b3t57bfs6qan3padb2wnb2i7cl/config/preferences:
 Processing $rem in /home/rramji/.qchemrc:
 Symmetry turned off for PCM/SM12/SMD calculation
 Core orbitals will be frozen

 Checking the input file for inconsistencies... 	...done.

 Q-Chem warning in module forms1/BasisType.C, line 2236:

 You are not using the predefined 5D/6D in this basis set.


--------------------------------------------------------------
User input:
--------------------------------------------------------------
$molecule
0 1
C	0.253280	-6.741404	0.043160
C	1.539213	-6.155638	0.269777
C	-0.814295	-5.791452	-0.145543
C	1.813519	-4.803786	0.318377
H	2.403941	-6.821518	0.422058
C	-0.527140	-4.378638	-0.094194
C	0.783072	-3.838032	0.137191
C	-1.556403	-3.413062	-0.275104
C	1.067932	-2.426473	0.188116
C	-1.285420	-2.059348	-0.226701
C	-0.000000	-1.478216	-0.000000
H	-2.151147	-1.394783	-0.378931
C	-2.234582	-6.187987	-0.397845
C	-2.965273	-3.798164	-0.523637
N	-3.204744	-5.170003	-0.567586
C	3.226257	-4.424987	0.567421
C	2.489446	-2.036627	0.439541
N	3.459801	-3.049156	0.609650
O	-2.619468	-7.353131	-0.468608
O	-3.874668	-2.986854	-0.683034
O	4.124806	-5.248946	0.725131
O	2.895819	-0.878829	0.512648
C	-4.595691	-5.563799	-0.813908
H	-4.640022	-6.664085	-0.822891
H	-4.934830	-5.147101	-1.781600
H	-5.246157	-5.148785	-0.020360
C	4.829716	-2.587487	0.851649
H	5.462742	-3.483329	0.962191
H	4.863242	-1.964972	1.765865
H	5.173521	-1.962932	0.005383
H	0.070208	-7.822318	0.010555
C	0.000000	0.000000	0.000000
S	0.335026	0.718942	1.580530
C	1.027130	2.203226	0.904911
C	0.421617	0.904557	-0.985400
C	0.979485	2.101144	-0.493528
H	0.322049	0.690978	-2.059934
H	1.351718	2.899571	-1.152593
H	1.399246	3.001430	1.556025
$end

$rem
JOBTYPE		SP
EXCHANGE	HF
CORRELATION	pRIMP2
BASIS		cc-pvtz
METHOD		rimp2
AUX_BASIS	rimp2-cc-pvtz
SOLVENT_METHOD	PCM
PURECART	11111
SYMMETRY	false
MEM_TOTAL	110000
SCF_CONVERGENCE = 6
THRESH=10
GUI = 2
$end



$solvent
dielectric 4.90
$end
--------------------------------------------------------------
 ----------------------------------------------------------------
             Standard Nuclear Orientation (Angstroms)
    I     Atom           X                Y                Z
 ----------------------------------------------------------------
    1      C       0.2532800000    -6.7414040000     0.0431600000
    2      C       1.5392130000    -6.1556380000     0.2697770000
    3      C      -0.8142950000    -5.7914520000    -0.1455430000
    4      C       1.8135190000    -4.8037860000     0.3183770000
    5      H       2.4039410000    -6.8215180000     0.4220580000
    6      C      -0.5271400000    -4.3786380000    -0.0941940000
    7      C       0.7830720000    -3.8380320000     0.1371910000
    8      C      -1.5564030000    -3.4130620000    -0.2751040000
    9      C       1.0679320000    -2.4264730000     0.1881160000
   10      C      -1.2854200000    -2.0593480000    -0.2267010000
   11      C       0.0000000000    -1.4782160000     0.0000000000
   12      H      -2.1511470000    -1.3947830000    -0.3789310000
   13      C      -2.2345820000    -6.1879870000    -0.3978450000
   14      C      -2.9652730000    -3.7981640000    -0.5236370000
   15      N      -3.2047440000    -5.1700030000    -0.5675860000
   16      C       3.2262570000    -4.4249870000     0.5674210000
   17      C       2.4894460000    -2.0366270000     0.4395410000
   18      N       3.4598010000    -3.0491560000     0.6096500000
   19      O      -2.6194680000    -7.3531310000    -0.4686080000
   20      O      -3.8746680000    -2.9868540000    -0.6830340000
   21      O       4.1248060000    -5.2489460000     0.7251310000
   22      O       2.8958190000    -0.8788290000     0.5126480000
   23      C      -4.5956910000    -5.5637990000    -0.8139080000
   24      H      -4.6400220000    -6.6640850000    -0.8228910000
   25      H      -4.9348300000    -5.1471010000    -1.7816000000
   26      H      -5.2461570000    -5.1487850000    -0.0203600000
   27      C       4.8297160000    -2.5874870000     0.8516490000
   28      H       5.4627420000    -3.4833290000     0.9621910000
   29      H       4.8632420000    -1.9649720000     1.7658650000
   30      H       5.1735210000    -1.9629320000     0.0053830000
   31      H       0.0702080000    -7.8223180000     0.0105550000
   32      C       0.0000000000     0.0000000000     0.0000000000
   33      S       0.3350260000     0.7189420000     1.5805300000
   34      C       1.0271300000     2.2032260000     0.9049110000
   35      C       0.4216170000     0.9045570000    -0.9854000000
   36      C       0.9794850000     2.1011440000    -0.4935280000
   37      H       0.3220490000     0.6909780000    -2.0599340000
   38      H       1.3517180000     2.8995710000    -1.1525930000
   39      H       1.3992460000     3.0014300000     1.5560250000
 ----------------------------------------------------------------
 Nuclear Repulsion Energy =        2506.21654895 hartrees
 There are       97 alpha and       97 beta electrons
 Requested basis set is cc-pVTZ
 There are 344 shells and 982 basis functions

 Total QAlloc Memory Limit 110000 MB
 Mega-Array Size       188 MB
 MEM_STATIC part       192 MB
 Discretize the solute cavity surface with Lebedev spheres
	Using 110 Lebedev grid points for each H atom
	Using 194 Lebedev grid points for other atoms
	Atomic van der Waals radii will be scaled by 1.20
 Remove points where switching function is < 1.0e-08
 Keep 2582 surface tesserae and discard 3976 interior tesserae
 Molecular Surface Area = 366.057 Angst**2
 Requested basis set is rimp2-cc-pVTZ
 There are 750 shells and 2588 basis functions
 A cutoff of  1.0D-10 yielded  31873 shell pairs
 There are    245569 function pairs (    319246 Cartesian)
 Smallest overlap matrix eigenvalue = 9.42E-06

 Q-Chem warning in module stvman/mkSTV.C, line 323:

 Overlap eigenvalue is smaller than square root of threshold
 Use THRESH >= 12 to get rid of this warning


 Scale SEOQF with 1.000000e-02/1.000000e-02/1.000000e-01

 Standard Electronic Orientation quadrupole field applied
 Nucleus-field energy     =     0.0000000162 hartrees
 Guess from superposition of atomic densities
 Warning:  Energy on first SCF cycle will be non-variational
 SAD guess density has 194.000000 electrons

 -----------------------------------------------------------------------
  General SCF calculation program by
  Eric Jon Sundstrom, Paul Horn, Yuezhi Mao, Dmitri Zuev, Alec White,
  David Stuck, Shaama M.S., Shane Yost, Joonho Lee, David Small,
  Daniel Levine, Susi Lehtola, Hugh Burton, Evgeny Epifanovsky,
  Bang C. Huynh
 -----------------------------------------------------------------------
 Hartree-Fock
 using 64 threads for integral computing
 -------------------------------------------------------
 OpenMP Integral computing Module                
 Release: version 1.0, May 2013, Q-Chem Inc. Pittsburgh 
 -------------------------------------------------------
 A restricted SCF calculation will be
 performed using DIIS
 SCF converges when DIIS error is below 1.0e-06
 ---------------------------------------
  Cycle       Energy         DIIS error
 ---------------------------------------
    1   -1581.2875343531      1.87e-02  
    2   -1570.1061505962      2.09e-03  
    3   -1570.4314667490      1.64e-03  
    4   -1570.6638128335      2.57e-04  
    5   -1570.6758201994      7.52e-05  
    6   -1570.6768601158      2.78e-05  
    7   -1570.6770951263      1.42e-05  
    8   -1570.6771700304      5.97e-06  
    9   -1570.6771819310      2.31e-06  
   10   -1570.6771840421      7.75e-07  Convergence criterion met
 ---------------------------------------
 SCF time:   CPU 6042.89s  wall 223.00s 

************** Final PCM Free Energy Summary **************
 G_electrostatic  =      -0.02460312 hartree =     -15.43869215 kcal/mol
 G_cavitation     =       0.00000000 hartree =       0.00000000 kcal/mol
 G_dispersion     =       0.00000000 hartree =       0.00000000 kcal/mol
 G_repulsion      =       0.00000000 hartree =       0.00000000 kcal/mol
 --------------------------------------------------
 Non-electrostatic Free Energy =       0.00000000 hartree =       0.00000000 kcal/mol
 Total                         =      -0.02460312 hartree =     -15.43869215 kcal/mol
 --------------------------------------------------
 SCF Energy (H0 + V/2)                       =   -1570.67718404 
 Solute Internal Energy (H0)                 =   -1570.65258092 
 Total Free Energy (H0 + V/2 + non-elec)     =   -1570.67718404 hartree
                                             = -985614.80887001 kcal/mol
***********************************************************

 SCF   energy in the final basis set =    -1570.6771840421
 Total energy in the final basis set =    -1570.6771840421


 --------------------------------------------------------------
  Generalized many-body perturbation theory program
  by Joonho Lee, Fazle Rob, Xintian Feng, Evgeny Epifanovsky

 No regularization used 
 (reg. param. = 0.0000e+00)
  (P|Q)^-1/2 Time:  CPU 90.58 s  wall 1.56 s

 In RI-MP2 calculation: 
 # of frozen core orbitals: 31

 Components of the RIMP2 correlation energy:
        aaaa    correlation energy =        -0.6169195448 a.u.
        abab    correlation energy =        -3.3942850038 a.u.
        bbbb    correlation energy =        -0.6169195448 a.u.
        non-Brillouin singles      =        -0.0000000000 a.u.
        total same-spin energy     =        -1.2338390896 a.u.
        total opposite-spin energy =        -3.3942850038 a.u.

 Total  RIMP2   correlation energy =        -4.6281240934 a.u.
        RIMP2         total energy =     -1575.3053081355 a.u.

 RI-MP2 Energy Time:  CPU 1865.33 s  wall 30.80 s
 
 --------------------------------------------------------------
 
                    Orbital Energies (a.u.)
 --------------------------------------------------------------
 
 Alpha MOs
 -- Occupied --
-91.9881 -20.5585 -20.5559 -20.5554 -20.5549 -15.6310 -15.6303 -11.4001
-11.3952 -11.3925 -11.3901 -11.3141 -11.3062 -11.3028 -11.3008 -11.2988
-11.2986 -11.2866 -11.2850 -11.2847 -11.2844 -11.2806 -11.2759 -11.2645
-11.2644 -11.2589 -11.2488  -8.9875  -6.6683  -6.6678  -6.6672  -1.4247
 -1.4234  -1.4040  -1.4025  -1.2673  -1.2648  -1.2174  -1.1740  -1.1436
 -1.1173  -1.0623  -1.0496  -0.9929  -0.9885  -0.9822  -0.9590  -0.9485
 -0.8966  -0.8795  -0.8760  -0.8611  -0.7939  -0.7767  -0.7730  -0.7593
 -0.7359  -0.7187  -0.7051  -0.6949  -0.6799  -0.6721  -0.6661  -0.6619
 -0.6568  -0.6423  -0.6372  -0.6340  -0.6297  -0.6122  -0.5852  -0.5840
 -0.5771  -0.5727  -0.5661  -0.5639  -0.5616  -0.5550  -0.5527  -0.5483
 -0.5361  -0.5264  -0.5204  -0.5084  -0.4822  -0.4702  -0.4648  -0.4598
 -0.4567  -0.4514  -0.4278  -0.4180  -0.4087  -0.3545  -0.3473  -0.3327
 -0.3240
 -- Virtual --
 -0.0190   0.0650   0.0738   0.0868   0.1154   0.1558   0.1579   0.1596
  0.1653   0.1665   0.1771   0.1838   0.1855   0.1914   0.1968   0.2069
  0.2140   0.2231   0.2274   0.2301   0.2324   0.2386   0.2597   0.2615
  0.2634   0.2911   0.3060   0.3133   0.3169   0.3209   0.3225   0.3327
  0.3424   0.3429   0.3528   0.3548   0.3584   0.3624   0.3696   0.3705
  0.3769   0.3785   0.3873   0.3978   0.4006   0.4025   0.4037   0.4105
  0.4140   0.4210   0.4300   0.4352   0.4384   0.4419   0.4481   0.4546
  0.4552   0.4576   0.4615   0.4681   0.4727   0.4842   0.4893   0.4944
  0.5008   0.5035   0.5101   0.5157   0.5175   0.5261   0.5268   0.5301
  0.5341   0.5372   0.5429   0.5485   0.5511   0.5572   0.5616   0.5654
  0.5693   0.5732   0.5800   0.5821   0.5898   0.5927   0.5965   0.5996
  0.6049   0.6094   0.6104   0.6194   0.6228   0.6237   0.6244   0.6313
  0.6342   0.6352   0.6368   0.6399   0.6426   0.6487   0.6579   0.6625
  0.6766   0.6786   0.6828   0.6942   0.7010   0.7067   0.7084   0.7149
  0.7183   0.7297   0.7324   0.7371   0.7466   0.7570   0.7598   0.7653
  0.7679   0.7691   0.7804   0.7886   0.7942   0.7995   0.8043   0.8134
  0.8187   0.8223   0.8269   0.8357   0.8402   0.8450   0.8489   0.8613
  0.8650   0.8664   0.8740   0.8773   0.8815   0.8849   0.8957   0.9022
  0.9093   0.9204   0.9212   0.9260   0.9311   0.9380   0.9417   0.9466
  0.9499   0.9585   0.9615   0.9621   0.9728   0.9783   0.9853   0.9877
  0.9928   0.9971   0.9998   1.0021   1.0068   1.0177   1.0199   1.0245
  1.0297   1.0371   1.0417   1.0480   1.0574   1.0652   1.0703   1.0742
  1.0767   1.0819   1.0851   1.0878   1.0921   1.0937   1.1112   1.1124
  1.1225   1.1248   1.1354   1.1397   1.1414   1.1482   1.1532   1.1586
  1.1598   1.1645   1.1684   1.1755   1.1787   1.1814   1.1888   1.1982
  1.1995   1.2055   1.2110   1.2139   1.2235   1.2255   1.2346   1.2379
  1.2431   1.2476   1.2514   1.2528   1.2659   1.2759   1.2870   1.2989
  1.3056   1.3266   1.3299   1.3349   1.3405   1.3449   1.3470   1.3573
  1.3676   1.3784   1.3806   1.3828   1.3937   1.3958   1.4096   1.4146
  1.4203   1.4263   1.4325   1.4405   1.4442   1.4528   1.4626   1.4679
  1.4775   1.4834   1.4868   1.4909   1.4973   1.5083   1.5120   1.5194
  1.5292   1.5318   1.5377   1.5469   1.5527   1.5575   1.5592   1.5623
  1.5673   1.5745   1.5809   1.5876   1.5960   1.6067   1.6137   1.6340
  1.6363   1.6466   1.6506   1.6520   1.6666   1.6710   1.6765   1.6872
  1.6975   1.7035   1.7065   1.7161   1.7308   1.7350   1.7441   1.7452
  1.7517   1.7601   1.7671   1.7758   1.7894   1.7923   1.8024   1.8083
  1.8177   1.8193   1.8372   1.8406   1.8520   1.8545   1.8625   1.8680
  1.8693   1.8863   1.8908   1.9062   1.9147   1.9176   1.9390   1.9511
  1.9594   1.9677   1.9743   1.9852   1.9882   2.0017   2.0117   2.0241
  2.0515   2.0578   2.0618   2.0662   2.0911   2.1129   2.1217   2.1330
  2.1365   2.1448   2.1578   2.1712   2.1847   2.2058   2.2167   2.2179
  2.2274   2.2348   2.2558   2.2612   2.2787   2.2893   2.2947   2.2972
  2.3016   2.3183   2.3217   2.3360   2.3568   2.3596   2.3766   2.3883
  2.4026   2.4238   2.4354   2.4413   2.4489   2.4524   2.4565   2.4706
  2.4722   2.4798   2.4965   2.4975   2.5058   2.5211   2.5325   2.5336
  2.5374   2.5608   2.5754   2.5817   2.5882   2.5930   2.6037   2.6095
  2.6154   2.6196   2.6296   2.6416   2.6478   2.6591   2.6657   2.6681
  2.6749   2.6869   2.7049   2.7053   2.7098   2.7163   2.7226   2.7299
  2.7331   2.7420   2.7490   2.7513   2.7616   2.7677   2.7721   2.7934
  2.8030   2.8208   2.8244   2.8261   2.8384   2.8483   2.8489   2.8589
  2.8652   2.8706   2.8771   2.8834   2.8875   2.8922   2.8953   2.9075
  2.9193   2.9274   2.9281   2.9379   2.9420   2.9530   2.9592   2.9689
  2.9754   2.9766   2.9831   2.9896   3.0013   3.0074   3.0112   3.0191
  3.0252   3.0303   3.0337   3.0412   3.0450   3.0618   3.0666   3.0751
  3.0858   3.0913   3.0959   3.1012   3.1093   3.1132   3.1195   3.1224
  3.1277   3.1316   3.1489   3.1538   3.1609   3.1719   3.1741   3.1782
  3.1903   3.1976   3.2011   3.2060   3.2126   3.2200   3.2206   3.2212
  3.2255   3.2315   3.2407   3.2472   3.2502   3.2551   3.2641   3.2659
  3.2712   3.2729   3.2816   3.2848   3.2859   3.2904   3.2958   3.2965
  3.3016   3.3061   3.3171   3.3223   3.3250   3.3261   3.3367   3.3403
  3.3428   3.3458   3.3517   3.3541   3.3587   3.3642   3.3689   3.3760
  3.3785   3.3876   3.3898   3.3927   3.3952   3.4005   3.4066   3.4139
  3.4227   3.4295   3.4322   3.4371   3.4427   3.4450   3.4525   3.4590
  3.4598   3.4616   3.4702   3.4747   3.4773   3.4865   3.4890   3.4907
  3.4982   3.5003   3.5025   3.5066   3.5143   3.5200   3.5226   3.5237
  3.5340   3.5395   3.5490   3.5568   3.5661   3.5689   3.5725   3.5775
  3.5845   3.5908   3.5995   3.6049   3.6112   3.6159   3.6266   3.6314
  3.6342   3.6381   3.6445   3.6465   3.6501   3.6534   3.6641   3.6767
  3.6820   3.6877   3.6977   3.7091   3.7096   3.7127   3.7152   3.7264
  3.7278   3.7348   3.7362   3.7439   3.7526   3.7545   3.7578   3.7651
  3.7693   3.7799   3.7816   3.7882   3.7905   3.7981   3.8001   3.8010
  3.8071   3.8139   3.8217   3.8334   3.8404   3.8454   3.8535   3.8575
  3.8608   3.8665   3.8786   3.8826   3.8840   3.9011   3.9130   3.9172
  3.9224   3.9341   3.9407   3.9459   3.9495   3.9530   3.9598   3.9667
  3.9815   3.9902   4.0042   4.0076   4.0152   4.0235   4.0302   4.0390
  4.0534   4.0612   4.0649   4.0703   4.0838   4.0885   4.0976   4.1050
  4.1162   4.1275   4.1340   4.1429   4.1452   4.1546   4.1601   4.1785
  4.1822   4.1848   4.1882   4.1992   4.2022   4.2143   4.2239   4.2324
  4.2483   4.2598   4.2645   4.2698   4.2727   4.2776   4.2817   4.2882
  4.2912   4.2981   4.3007   4.3032   4.3090   4.3239   4.3298   4.3328
  4.3403   4.3493   4.3577   4.3651   4.3675   4.3722   4.3742   4.3787
  4.3865   4.3968   4.4021   4.4066   4.4141   4.4236   4.4266   4.4367
  4.4454   4.4607   4.4665   4.4782   4.4896   4.5094   4.5128   4.5176
  4.5245   4.5261   4.5369   4.5420   4.5459   4.5543   4.5629   4.5672
  4.5761   4.5795   4.5822   4.5891   4.6014   4.6136   4.6317   4.6347
  4.6419   4.6488   4.6571   4.6674   4.6731   4.6746   4.6880   4.6890
  4.7177   4.7277   4.7304   4.7425   4.7456   4.7672   4.7741   4.7832
  4.8078   4.8211   4.8263   4.8430   4.8467   4.8567   4.8697   4.8775
  4.8902   4.9070   4.9132   4.9278   4.9352   4.9462   4.9662   4.9832
  4.9895   5.0056   5.0244   5.0368   5.0408   5.0487   5.0525   5.0551
  5.0901   5.1014   5.1040   5.1118   5.1254   5.1364   5.1395   5.1459
  5.1636   5.1688   5.1789   5.1920   5.2101   5.2252   5.2339   5.2564
  5.2586   5.2782   5.2829   5.2875   5.3216   5.3288   5.3358   5.3424
  5.3513   5.3913   5.3957   5.4026   5.4163   5.4289   5.4337   5.4636
  5.4912   5.4985   5.5064   5.5088   5.5131   5.5280   5.5446   5.5545
  5.5563   5.5603   5.5634   5.5738   5.5776   5.5897   5.6047   5.6100
  5.6166   5.6356   5.6520   5.6538   5.6543   5.6765   5.6770   5.6849
  5.7029   5.7101   5.7145   5.7360   5.7545   5.7568   5.7648   5.7684
  5.7747   5.7820   5.8126   5.8219   5.8416   5.8730   5.8779   5.9141
  5.9374   5.9539   5.9818   5.9940   6.0205   6.0224   6.0299   6.0423
  6.0737   6.0994   6.1007   6.1118   6.1165   6.1554   6.1911   6.2084
  6.2176   6.2181   6.2211   6.2504   6.2632   6.2682   6.2999   6.3408
  6.3510   6.3817   6.4251   6.4446   6.4657   6.5235   6.5621   6.5699
  6.5847   6.6002   6.6370   6.6457   6.6504   6.6599   6.7025   6.8290
  6.8344   6.8792   6.8861   6.8948   6.9115   6.9260   6.9336   7.0770
  7.1013   7.1383   7.1843   7.1895   7.2275   7.3324   7.3411   7.3445
  7.3558   7.4663   7.5449   7.5578   7.5730   7.5772   7.5933   7.6334
  7.6688   7.6836   7.7221   8.3011   9.8618  10.2879  11.1145  11.2306
 11.6558  11.7304  11.9981  12.3605  12.4423  12.7469  12.8702  12.8864
 13.2476  13.5640  13.8068  13.9397  14.0180  14.0776  14.2017  14.3431
 14.4080  14.7248  15.3201  15.7090  15.9568
 --------------------------------------------------------------
 
          Ground-State Mulliken Net Atomic Charges

     Atom                 Charge (a.u.)
  ----------------------------------------
      1 C                    -0.130598
      2 C                    -0.108070
      3 C                    -0.043911
      4 C                    -0.000651
      5 H                     0.188626
      6 C                    -0.005849
      7 C                     0.067192
      8 C                     0.015404
      9 C                     0.009571
     10 C                    -0.148510
     11 C                     0.069574
     12 H                     0.179243
     13 C                     0.361050
     14 C                     0.367214
     15 N                    -0.101670
     16 C                     0.357970
     17 C                     0.364304
     18 N                    -0.094758
     19 O                    -0.464983
     20 O                    -0.476155
     21 O                    -0.480715
     22 O                    -0.455334
     23 C                    -0.201073
     24 H                     0.141012
     25 H                     0.112217
     26 H                     0.112514
     27 C                    -0.196652
     28 H                     0.133600
     29 H                     0.113045
     30 H                     0.112728
     31 H                     0.214447
     32 C                    -0.058500
     33 S                     0.032892
     34 C                    -0.195681
     35 C                    -0.182084
     36 C                    -0.197592
     37 H                     0.188328
     38 H                     0.190824
     39 H                     0.211029
  ----------------------------------------
  Sum of atomic charges =     0.000000

 -----------------------------------------------------------------
                    Cartesian Multipole Moments
 -----------------------------------------------------------------
    Charge (ESU x 10^10)
                 0.0000
    Dipole Moment (Debye)
         X       1.1769      Y       0.9554      Z      -0.9038
       Tot       1.7649
    Quadrupole Moments (Debye-Ang)
        XX    -181.9673     XY       3.5956     YY    -166.8156
        XZ      -2.9537     YZ       0.4421     ZZ    -158.0796
    Octopole Moments (Debye-Ang^2)
       XXX    -115.8225    XXY     555.9057    XYY     -13.3875
       YYY    1589.9614    XXZ     -19.2653    XYZ      17.5170
       YYZ     -11.1720    XZZ     -30.9925    YZZ     483.7807
       ZZZ     -62.9098
    Hexadecapole Moments (Debye-Ang^3)
      XXXX   -6105.1945   XXXY    -103.1606   XXYY   -4179.2992
      XYYY    -841.5911   YYYY  -17067.5363   XXXZ    -558.6087
      XXYZ      27.2432   XYYZ    -265.2184   YYYZ    -174.2424
      XXZZ   -1081.1175   XYZZ    -124.6077   YYZZ   -2735.4577
      XZZZ    -506.0026   YZZZ    -102.3189   ZZZZ    -632.6489
 -----------------------------------------------------------------
 Total job time:  261.15s(wall), 8270.38s(cpu) 
 Fri Dec 15 14:15:33 2023

        *************************************************************
        *                                                           *
        *  Thank you very much for using Q-Chem.  Have a nice day.  *
        *                                                           *
        *************************************************************


0 sent ACK to 0 
now end server 0 ... 
cleanup process ... done
remove work dirs ./qchem733357.0 -- ./qchem733357.0
rm -rf ./qchem733357.0
rm -rf ./qchem733357
