You are running Q-Chem version: 5.4.0

#
# job setting
#
local host:  exp-5-28
current dir: /home/rramji/project-csd799/aromodel/pndit-qchem/rotation_run
input file:  Dimethyl_Naphthalene_Dicarboximide_Phi_5_Theta_80_Thiophene.qcin
output file: 
nprocs     : 1
nthreads   : 64
#
# qchem installation setting
#
QC:          /cm/shared/apps/spack/cpu/opt/spack/linux-centos8-zen2/gcc-10.2.0/qchem-5.4-akfmr7b3t57bfs6qan3padb2wnb2i7cl
QCAUX:       /cm/shared/apps/spack/cpu/opt/spack/linux-centos8-zen2/gcc-10.2.0/qchem-5.4-akfmr7b3t57bfs6qan3padb2wnb2i7cl/qcaux
QCPROG:      /cm/shared/apps/spack/cpu/opt/spack/linux-centos8-zen2/gcc-10.2.0/qchem-5.4-akfmr7b3t57bfs6qan3padb2wnb2i7cl/exe/qcprog.exe
QCPROG_S:    /cm/shared/apps/spack/cpu/opt/spack/linux-centos8-zen2/gcc-10.2.0/qchem-5.4-akfmr7b3t57bfs6qan3padb2wnb2i7cl/exe/qcprog.exe_s
PARALLEL:    -DPARALLEL
QCMPI:       mpich
#
# qchem directory setting
#
qcrun:       qchem188229
QCSCRATCH:   .
QCLOCALSCR:  
QCTMPDIR:    .
QCFILEPREF:  ./qchem188229
QCSAVEDIR:   
workdirs:    ./qchem188229
workdir0:    ./qchem188229
partmpdirs =  
#
# parallel setting
#
QCRSH:           ssh
QCMPI:           mpich
QCMPIRUN:        /cm/shared/apps/spack/cpu/opt/spack/linux-centos8-zen2/gcc-10.2.0/qchem-5.4-akfmr7b3t57bfs6qan3padb2wnb2i7cl/bin/mpi/mpirun_qchem
QCMACHINEFILE:   ./qchem188229/hostfile
exp-5-28

#
# env setting
#
exported envs:   QC QCAUX QCSCRATCH QCRUNNAME QCFILEPREF QCPROG QCPROG_S GUIFILE

Running Job 1 of 1 Dimethyl_Naphthalene_Dicarboximide_Phi_5_Theta_80_Thiophene.qcin
qchem Dimethyl_Naphthalene_Dicarboximide_Phi_5_Theta_80_Thiophene.qcin_188229.0 ./qchem188229/ 1
/cm/shared/apps/spack/cpu/opt/spack/linux-centos8-zen2/gcc-10.2.0/qchem-5.4-akfmr7b3t57bfs6qan3padb2wnb2i7cl/bin/mpi/mpirun_qchem -machinefile ./qchem188229/hostfile -np 1 /cm/shared/apps/spack/cpu/opt/spack/linux-centos8-zen2/gcc-10.2.0/qchem-5.4-akfmr7b3t57bfs6qan3padb2wnb2i7cl/exe/qcprog.exe Dimethyl_Naphthalene_Dicarboximide_Phi_5_Theta_80_Thiophene.qcin_188229.0 ./qchem188229/

Process 0 of 1 is on exp-5-28 - thread support 0
initial socket setup ...start
initial socket setup ...done 
now start server 0 ... 
                  Welcome to Q-Chem
     A Quantum Leap Into The Future Of Chemistry


 Q-Chem 5.4, Q-Chem, Inc., Pleasanton, CA (2021)

 License issued to: University of California, San Diego (site)

 E. Epifanovsky,  A. T. B. Gilbert,  Xintian Feng,  Joonho Lee,  Yuezhi Mao,  
 N. Mardirossian,  P. Pokhilko,  A. White,  M. Wormit,  M. P. Coons,  
 A. L. Dempwolff,  Zhengting Gan,  D. Hait,  P. R. Horn,  L. D. Jacobson,  
 I. Kaliman,  J. Kussmann,  A. W. Lange,  Ka Un Lao,  D. S. Levine,  Jie Liu,  
 S. C. McKenzie,  A. F. Morrison,  K. Nanda,  F. Plasser,  D. R. Rehn,  
 M. L. Vidal,  Zhi-Qiang You,  Ying Zhu,  B. Alam,  B. Albrecht,  
 A. Aldossary,  E. Alguire,  J. H. Andersen,  D. Barton,  K. Begam,  A. Behn,  
 Y. A. Bernard,  E. J. Berquist,  H. Burton,  A. Carreras,  K. Carter-Fenk,  
 R. Chakraborty,  A. D. Chien,  K. D. Closser,  V. Cofer-Shabica,  
 S. Dasgupta,  Jia Deng,  M. de Wergifosse,  M. Diedenhofen,  Hainam Do,  
 S. Ehlert,  Po-Tung Fang,  S. Fatehi,  Qingguo Feng,  J. Gayvert,  
 Qinghui Ge,  G. Gidofalvi,  M. Goldey,  J. Gomes,  C. Gonzalez-Espinoza,  
 S. Gulania,  A. Gunina,  M. W. D. Hanson-Heine,  P. H. P. Harbach,  
 A. W. Hauser,  M. F. Herbst,  M. Hernandez Vera,  M. Hodecker,  
 Z. C. Holden,  S. Houck,  Xunkun Huang,  Kerwin Hui,  B. C. Huynh,  
 M. Ivanov,  Hyunjun Ji,  Hanjie Jiang,  B. Kaduk,  S. Kaehler,  
 K. Khistyaev,  Jaehoon Kim,  P. Klunzinger,  Z. Koczor-Benda,  
 Joong Hoon Koh,  D. Kosenkov,  L. Koulias,  T. Kowalczyk,  C. M. Krauter,  
 K. Kue,  A. Kunitsa,  T. Kus,  A. Landau,  K. V. Lawler,  D. Lefrancois,  
 S. Lehtola,  Rain Li,  Yi-Pei Li,  Jiashu Liang,  M. Liebenthal,  
 Hung-Hsuan Lin,  You-Sheng Lin,  Fenglai Liu,  Kuan-Yu Liu,  
 M. Loipersberger,  A. Luenser,  A. Manjanath,  P. Manohar,  E. Mansoor,  
 S. F. Manzer,  Shan-Ping Mao,  A. V. Marenich,  T. Markovich,  S. Mason,  
 S. A. Maurer,  P. F. McLaughlin,  M. F. S. J. Menger,  J.-M. Mewes,  
 S. A. Mewes,  P. Morgante,  J. W. Mullinax,  T. S. Nguyen-Beck,  
 K. J. Oosterbaan,  G. Paran,  Alexander C. Paul,  Suranjan K. Paul,  
 F. Pavosevic,  Zheng Pei,  S. Prager,  E. I. Proynov,  E. Ramos,  B. Rana,  
 A. E. Rask,  A. Rettig,  R. M. Richard,  F. Rob,  E. Rossomme,  T. Scheele,  
 M. Scheurer,  M. Schneider,  N. Sergueev,  S. M. Sharada,  W. Skomorowski,  
 D. W. Small,  C. J. Stein,  Yu-Chuan Su,  E. J. Sundstrom,  Zhen Tao,  
 J. Thirman,  T. Tsuchimochi,  N. M. Tubman,  S. P. Veccham,  O. Vydrov,  
 J. Wenzel,  J. Witte,  A. Yamada,  Kun Yao,  S. Yeganeh,  S. R. Yost,  
 A. Zech,  Igor Ying Zhang,  Xing Zhang,  Yu Zhang,  D. Zuev,  
 A. Aspuru-Guzik,  A. T. Bell,  N. A. Besley,  K. B. Bravaya,  B. R. Brooks,  
 D. Casanova,  Jeng-Da Chai,  S. Coriani,  C. J. Cramer,  
 A. E. DePrince, III,  R. A. DiStasio Jr.,  A. Dreuw,  B. D. Dunietz,  
 T. R. Furlani,  W. A. Goddard III,  S. Grimme,  S. Hammes-Schiffer,  
 T. Head-Gordon,  W. J. Hehre,  Chao-Ping Hsu,  T.-C. Jagau,  Yousung Jung,  
 A. Klamt,  Jing Kong,  D. S. Lambrecht,  WanZhen Liang,  N. J. Mayhall,  
 C. W. McCurdy,  J. B. Neaton,  C. Ochsenfeld,  J. A. Parkhill,  R. Peverati,  
 V. A. Rassolov,  Yihan Shao,  L. V. Slipchenko,  T. Stauch,  R. P. Steele,  
 J. E. Subotnik,  A. J. W. Thom,  A. Tkatchenko,  D. G. Truhlar,  
 T. Van Voorhis,  T. A. Wesolowski,  K. B. Whaley,  H. L. Woodcock III,  
 P. M. Zimmerman,  S. Faraji,  P. M. W. Gill,  M. Head-Gordon,  
 J. M. Herbert,  A. I. Krylov

 Contributors to earlier versions of Q-Chem not listed above: 
 R. D. Adamson,  B. Austin,  R. Baer,  J. Baker,  G. J. O. Beran,  
 K. Brandhorst,  S. T. Brown,  E. F. C. Byrd,  A. K. Chakraborty,  
 G. K. L. Chan,  Chun-Min Chang,  Yunqing Chen,  C.-L. Cheng,  
 Siu Hung Chien,  D. M. Chipman,  D. L. Crittenden,  H. Dachsel,  
 R. J. Doerksen,  A. D. Dutoi,  R. G. Edgar,  J. Fosso-Tande,  
 L. Fusti-Molnar,  D. Ghosh,  A. Ghysels,  A. Golubeva-Zadorozhnaya,  
 J. Gonthier,  M. S. Gordon,  S. R. Gwaltney,  G. Hawkins,  J. E. Herr,  
 A. Heyden,  S. Hirata,  E. G. Hohenstein,  G. Kedziora,  F. J. Keil,  
 C. Kelley,  Jihan Kim,  R. A. King,  R. Z. Khaliullin,  P. P. Korambath,  
 W. Kurlancheek,  A. Laurent,  A. M. Lee,  M. S. Lee,  S. V. Levchenko,  
 Ching Yeh Lin,  D. Liotard,  E. Livshits,  R. C. Lochan,  I. Lotan,  
 L. A. Martinez-Martinez,  P. E. Maslen,  N. Nair,  D. P. O'Neill,  
 D. Neuhauser,  E. Neuscamman,  C. M. Oana,  R. Olivares-Amaya,  R. Olson,  
 T. M. Perrine,  B. Peters,  P. A. Pieniazek,  A. Prociuk,  Y. M. Rhee,  
 J. Ritchie,  M. A. Rohrdanz,  E. Rosta,  N. J. Russ,  H. F. Schaefer III,  
 M. W. Schmidt,  N. E. Schultz,  S. Sharma,  N. Shenvi,  C. D. Sherrill,  
 A. C. Simmonett,  A. Sodt,  T. Stein,  D. Stuck,  K. S. Thanthiriwatte,  
 V. Vanovschi,  L. Vogt,  Tao Wang,  A. Warshel,  M. A. Watson,  
 C. F. Williams,  Q. Wu,  X. Xu,  Jun Yang,  W. Zhang,  Yan Zhao

 Please cite Q-Chem as follows:
 Y. Shao et al., Mol. Phys. 113, 184-215 (2015)
 DOI: 10.1080/00268976.2014.952696

 Q-Chem 5.4.0 for Intel X86 EM64T Linux

 Parts of Q-Chem use Armadillo 9.800.1 (Horizon Scraper).
 http://arma.sourceforge.net/

 Q-Chem begins on Fri Dec 15 14:03:02 2023  

 Host: 
0

     Scratch files written to ./qchem188229//
 May1621 |scratch|qcdevops|jenkins|workspace|build_RNUM    
 Parallel job on  1  processors
 Processing $rem in /cm/shared/apps/spack/cpu/opt/spack/linux-centos8-zen2/gcc-10.2.0/qchem-5.4-akfmr7b3t57bfs6qan3padb2wnb2i7cl/config/preferences:
 Processing $rem in /home/rramji/.qchemrc:
 Symmetry turned off for PCM/SM12/SMD calculation
 Core orbitals will be frozen

 Checking the input file for inconsistencies... 	...done.

 Q-Chem warning in module forms1/BasisType.C, line 2236:

 You are not using the predefined 5D/6D in this basis set.


--------------------------------------------------------------
User input:
--------------------------------------------------------------
$molecule
0 1
C	0.252767	-6.741404	-0.046070
C	1.538656	-6.155638	-0.272935
C	-0.814966	-5.791452	0.141739
C	1.813042	-4.803786	-0.321083
H	2.403318	-6.821518	-0.425592
C	-0.527566	-4.378638	0.091779
C	0.782769	-3.838032	-0.138909
C	-1.556632	-3.413062	0.273808
C	1.067868	-2.426473	-0.188483
C	-1.285436	-2.059348	0.226610
C	0.000000	-1.478216	0.000000
H	-2.151019	-1.394783	0.379657
C	-2.235891	-6.187987	0.390420
C	-2.965540	-3.798164	0.522125
N	-3.205600	-5.170003	0.562731
C	3.225760	-4.424987	-0.570244
C	2.489646	-2.036627	-0.438407
N	3.459662	-3.049156	-0.610438
O	-2.621768	-7.353131	0.455563
O	-3.874608	-2.986854	0.683373
O	4.124059	-5.248946	-0.729367
O	2.896516	-0.878829	-0.508697
C	-4.596910	-5.563799	0.806996
H	-4.641640	-6.664085	0.813717
H	-5.246567	-5.147101	0.013655
H	-4.936739	-5.148785	1.775159
C	4.829729	-2.587487	-0.851572
H	5.462387	-3.483329	-0.964204
H	5.173914	-1.964972	-0.003956
H	4.863360	-1.962932	-1.764390
H	0.069584	-7.822318	-0.014094
C	0.000000	0.000000	0.000000
S	0.068929	0.790170	1.580530
C	0.211639	2.421655	0.904911
C	0.086813	0.994207	-0.985400
C	0.201782	2.309433	-0.493528
H	0.066299	0.759454	-2.059934
H	0.278488	3.187020	-1.152593
H	0.288312	3.298992	1.556025
$end

$rem
JOBTYPE		SP
EXCHANGE	HF
CORRELATION	pRIMP2
BASIS		cc-pvtz
METHOD		rimp2
AUX_BASIS	rimp2-cc-pvtz
SOLVENT_METHOD	PCM
PURECART	11111
SYMMETRY	false
MEM_TOTAL	110000
SCF_CONVERGENCE = 6
THRESH=10
GUI = 2
$end



$solvent
dielectric 4.90
$end
--------------------------------------------------------------
 ----------------------------------------------------------------
             Standard Nuclear Orientation (Angstroms)
    I     Atom           X                Y                Z
 ----------------------------------------------------------------
    1      C       0.2527670000    -6.7414040000    -0.0460700000
    2      C       1.5386560000    -6.1556380000    -0.2729350000
    3      C      -0.8149660000    -5.7914520000     0.1417390000
    4      C       1.8130420000    -4.8037860000    -0.3210830000
    5      H       2.4033180000    -6.8215180000    -0.4255920000
    6      C      -0.5275660000    -4.3786380000     0.0917790000
    7      C       0.7827690000    -3.8380320000    -0.1389090000
    8      C      -1.5566320000    -3.4130620000     0.2738080000
    9      C       1.0678680000    -2.4264730000    -0.1884830000
   10      C      -1.2854360000    -2.0593480000     0.2266100000
   11      C       0.0000000000    -1.4782160000     0.0000000000
   12      H      -2.1510190000    -1.3947830000     0.3796570000
   13      C      -2.2358910000    -6.1879870000     0.3904200000
   14      C      -2.9655400000    -3.7981640000     0.5221250000
   15      N      -3.2056000000    -5.1700030000     0.5627310000
   16      C       3.2257600000    -4.4249870000    -0.5702440000
   17      C       2.4896460000    -2.0366270000    -0.4384070000
   18      N       3.4596620000    -3.0491560000    -0.6104380000
   19      O      -2.6217680000    -7.3531310000     0.4555630000
   20      O      -3.8746080000    -2.9868540000     0.6833730000
   21      O       4.1240590000    -5.2489460000    -0.7293670000
   22      O       2.8965160000    -0.8788290000    -0.5086970000
   23      C      -4.5969100000    -5.5637990000     0.8069960000
   24      H      -4.6416400000    -6.6640850000     0.8137170000
   25      H      -5.2465670000    -5.1471010000     0.0136550000
   26      H      -4.9367390000    -5.1487850000     1.7751590000
   27      C       4.8297290000    -2.5874870000    -0.8515720000
   28      H       5.4623870000    -3.4833290000    -0.9642040000
   29      H       5.1739140000    -1.9649720000    -0.0039560000
   30      H       4.8633600000    -1.9629320000    -1.7643900000
   31      H       0.0695840000    -7.8223180000    -0.0140940000
   32      C       0.0000000000     0.0000000000     0.0000000000
   33      S       0.0689290000     0.7901700000     1.5805300000
   34      C       0.2116390000     2.4216550000     0.9049110000
   35      C       0.0868130000     0.9942070000    -0.9854000000
   36      C       0.2017820000     2.3094330000    -0.4935280000
   37      H       0.0662990000     0.7594540000    -2.0599340000
   38      H       0.2784880000     3.1870200000    -1.1525930000
   39      H       0.2883120000     3.2989920000     1.5560250000
 ----------------------------------------------------------------
 Nuclear Repulsion Energy =        2491.36301981 hartrees
 There are       97 alpha and       97 beta electrons
 Requested basis set is cc-pVTZ
 There are 344 shells and 982 basis functions

 Total QAlloc Memory Limit 110000 MB
 Mega-Array Size       188 MB
 MEM_STATIC part       192 MB
 Discretize the solute cavity surface with Lebedev spheres
	Using 110 Lebedev grid points for each H atom
	Using 194 Lebedev grid points for other atoms
	Atomic van der Waals radii will be scaled by 1.20
 Remove points where switching function is < 1.0e-08
 Keep 2611 surface tesserae and discard 3947 interior tesserae
 Molecular Surface Area = 370.365 Angst**2
 Requested basis set is rimp2-cc-pVTZ
 There are 750 shells and 2588 basis functions
 A cutoff of  1.0D-10 yielded  31520 shell pairs
 There are    242764 function pairs (    315570 Cartesian)
 Smallest overlap matrix eigenvalue = 9.40E-06

 Q-Chem warning in module stvman/mkSTV.C, line 323:

 Overlap eigenvalue is smaller than square root of threshold
 Use THRESH >= 12 to get rid of this warning


 Scale SEOQF with 1.000000e-02/1.000000e-02/1.000000e-01

 Standard Electronic Orientation quadrupole field applied
 Nucleus-field energy     =     0.0000000163 hartrees
 Guess from superposition of atomic densities
 Warning:  Energy on first SCF cycle will be non-variational
 SAD guess density has 194.000000 electrons

 -----------------------------------------------------------------------
  General SCF calculation program by
  Eric Jon Sundstrom, Paul Horn, Yuezhi Mao, Dmitri Zuev, Alec White,
  David Stuck, Shaama M.S., Shane Yost, Joonho Lee, David Small,
  Daniel Levine, Susi Lehtola, Hugh Burton, Evgeny Epifanovsky,
  Bang C. Huynh
 -----------------------------------------------------------------------
 Hartree-Fock
 using 64 threads for integral computing
 -------------------------------------------------------
 OpenMP Integral computing Module                
 Release: version 1.0, May 2013, Q-Chem Inc. Pittsburgh 
 -------------------------------------------------------
 A restricted SCF calculation will be
 performed using DIIS
 SCF converges when DIIS error is below 1.0e-06
 ---------------------------------------
  Cycle       Energy         DIIS error
 ---------------------------------------
    1   -1581.2717600282      1.87e-02  
    2   -1570.1172083756      2.10e-03  
    3   -1570.4438890099      1.64e-03  
    4   -1570.6766056277      2.56e-04  
    5   -1570.6885317433      7.51e-05  
    6   -1570.6895595603      2.78e-05  
    7   -1570.6897880026      1.42e-05  
    8   -1570.6898604574      5.86e-06  
    9   -1570.6898716326      2.28e-06  
   10   -1570.6898735042      7.04e-07  Convergence criterion met
 ---------------------------------------
 SCF time:   CPU 5887.92s  wall 220.00s 

************** Final PCM Free Energy Summary **************
 G_electrostatic  =      -0.02507358 hartree =     -15.73390589 kcal/mol
 G_cavitation     =       0.00000000 hartree =       0.00000000 kcal/mol
 G_dispersion     =       0.00000000 hartree =       0.00000000 kcal/mol
 G_repulsion      =       0.00000000 hartree =       0.00000000 kcal/mol
 --------------------------------------------------
 Non-electrostatic Free Energy =       0.00000000 hartree =       0.00000000 kcal/mol
 Total                         =      -0.02507358 hartree =     -15.73390589 kcal/mol
 --------------------------------------------------
 SCF Energy (H0 + V/2)                       =   -1570.68987350 
 Solute Internal Energy (H0)                 =   -1570.66479993 
 Total Free Energy (H0 + V/2 + non-elec)     =   -1570.68987350 hartree
                                             = -985622.77162770 kcal/mol
***********************************************************

 SCF   energy in the final basis set =    -1570.6898735042
 Total energy in the final basis set =    -1570.6898735042


 --------------------------------------------------------------
  Generalized many-body perturbation theory program
  by Joonho Lee, Fazle Rob, Xintian Feng, Evgeny Epifanovsky

 No regularization used 
 (reg. param. = 0.0000e+00)
  (P|Q)^-1/2 Time:  CPU 110.42 s  wall 2.48 s

 In RI-MP2 calculation: 
 # of frozen core orbitals: 31

 Components of the RIMP2 correlation energy:
        aaaa    correlation energy =        -0.6159552427 a.u.
        abab    correlation energy =        -3.3916225556 a.u.
        bbbb    correlation energy =        -0.6159552427 a.u.
        non-Brillouin singles      =        -0.0000000000 a.u.
        total same-spin energy     =        -1.2319104854 a.u.
        total opposite-spin energy =        -3.3916225556 a.u.

 Total  RIMP2   correlation energy =        -4.6235330410 a.u.
        RIMP2         total energy =     -1575.3134065452 a.u.

 RI-MP2 Energy Time:  CPU 1911.34 s  wall 31.72 s
 
 --------------------------------------------------------------
 
                    Orbital Energies (a.u.)
 --------------------------------------------------------------
 
 Alpha MOs
 -- Occupied --
-91.9925 -20.5589 -20.5573 -20.5564 -20.5559 -15.6315 -15.6315 -11.4006
-11.3975 -11.3934 -11.3908 -11.3158 -11.3086 -11.3035 -11.3018 -11.3002
-11.2997 -11.2925 -11.2876 -11.2865 -11.2813 -11.2807 -11.2790 -11.2649
-11.2647 -11.2543 -11.2499  -8.9917  -6.6725  -6.6720  -6.6714  -1.4252
 -1.4246  -1.4044  -1.4037  -1.2680  -1.2657  -1.2185  -1.1743  -1.1448
 -1.1186  -1.0638  -1.0509  -0.9936  -0.9895  -0.9825  -0.9597  -0.9490
 -0.8978  -0.8802  -0.8783  -0.8618  -0.7960  -0.7779  -0.7735  -0.7591
 -0.7379  -0.7191  -0.7055  -0.6956  -0.6810  -0.6731  -0.6668  -0.6626
 -0.6575  -0.6429  -0.6381  -0.6345  -0.6308  -0.6129  -0.5858  -0.5848
 -0.5783  -0.5730  -0.5663  -0.5645  -0.5615  -0.5555  -0.5529  -0.5489
 -0.5353  -0.5271  -0.5190  -0.5181  -0.4838  -0.4710  -0.4668  -0.4610
 -0.4605  -0.4539  -0.4287  -0.4185  -0.4093  -0.3547  -0.3523  -0.3343
 -0.3226
 -- Virtual --
 -0.0202   0.0638   0.0734   0.0957   0.1132   0.1554   0.1578   0.1584
  0.1650   0.1675   0.1773   0.1831   0.1884   0.1921   0.1965   0.2064
  0.2104   0.2243   0.2274   0.2296   0.2314   0.2378   0.2586   0.2610
  0.2634   0.2963   0.3072   0.3131   0.3161   0.3192   0.3215   0.3333
  0.3406   0.3437   0.3513   0.3572   0.3586   0.3628   0.3692   0.3740
  0.3767   0.3825   0.3904   0.3950   0.3966   0.4012   0.4072   0.4090
  0.4116   0.4226   0.4300   0.4381   0.4391   0.4409   0.4501   0.4538
  0.4561   0.4623   0.4641   0.4666   0.4715   0.4801   0.4844   0.4922
  0.4966   0.5014   0.5066   0.5081   0.5156   0.5249   0.5278   0.5295
  0.5352   0.5372   0.5424   0.5448   0.5485   0.5562   0.5618   0.5625
  0.5694   0.5713   0.5804   0.5825   0.5904   0.5936   0.5953   0.5978
  0.6010   0.6046   0.6115   0.6180   0.6224   0.6234   0.6249   0.6308
  0.6336   0.6353   0.6359   0.6385   0.6422   0.6487   0.6495   0.6641
  0.6662   0.6715   0.6892   0.6938   0.7024   0.7060   0.7097   0.7125
  0.7252   0.7268   0.7327   0.7381   0.7490   0.7554   0.7584   0.7622
  0.7672   0.7699   0.7770   0.7860   0.7918   0.7983   0.8043   0.8114
  0.8184   0.8296   0.8310   0.8375   0.8429   0.8453   0.8485   0.8530
  0.8584   0.8634   0.8680   0.8729   0.8818   0.8917   0.8966   0.9028
  0.9049   0.9104   0.9199   0.9252   0.9315   0.9323   0.9383   0.9454
  0.9481   0.9553   0.9620   0.9637   0.9670   0.9772   0.9807   0.9832
  0.9910   0.9975   0.9998   1.0034   1.0081   1.0136   1.0227   1.0267
  1.0315   1.0336   1.0400   1.0536   1.0580   1.0654   1.0699   1.0725
  1.0761   1.0796   1.0849   1.0862   1.0874   1.0950   1.1005   1.1102
  1.1149   1.1241   1.1336   1.1381   1.1446   1.1473   1.1534   1.1545
  1.1580   1.1621   1.1696   1.1765   1.1824   1.1841   1.1871   1.1960
  1.1996   1.2072   1.2118   1.2175   1.2233   1.2313   1.2336   1.2371
  1.2414   1.2491   1.2525   1.2615   1.2637   1.2726   1.2876   1.2968
  1.2998   1.3263   1.3278   1.3330   1.3413   1.3439   1.3518   1.3567
  1.3644   1.3735   1.3761   1.3795   1.3873   1.3920   1.4007   1.4167
  1.4230   1.4303   1.4310   1.4436   1.4457   1.4497   1.4619   1.4684
  1.4767   1.4845   1.4866   1.4932   1.5009   1.5087   1.5128   1.5168
  1.5257   1.5291   1.5342   1.5407   1.5524   1.5555   1.5600   1.5638
  1.5691   1.5733   1.5861   1.5928   1.5954   1.6064   1.6222   1.6306
  1.6357   1.6369   1.6522   1.6590   1.6624   1.6735   1.6804   1.6862
  1.6949   1.6997   1.7107   1.7244   1.7293   1.7346   1.7447   1.7468
  1.7504   1.7599   1.7671   1.7758   1.7845   1.7926   1.8056   1.8115
  1.8160   1.8278   1.8360   1.8471   1.8507   1.8557   1.8620   1.8634
  1.8683   1.8797   1.8880   1.9074   1.9103   1.9156   1.9249   1.9502
  1.9560   1.9637   1.9703   1.9762   1.9859   1.9948   2.0117   2.0255
  2.0388   2.0549   2.0618   2.0752   2.0866   2.1053   2.1176   2.1233
  2.1424   2.1504   2.1618   2.1629   2.1868   2.2018   2.2170   2.2228
  2.2335   2.2360   2.2564   2.2766   2.2866   2.2896   2.2929   2.2969
  2.2975   2.3194   2.3264   2.3383   2.3530   2.3608   2.3710   2.3973
  2.4029   2.4217   2.4244   2.4366   2.4452   2.4528   2.4566   2.4614
  2.4689   2.4826   2.4923   2.4980   2.5114   2.5180   2.5200   2.5314
  2.5371   2.5616   2.5719   2.5833   2.5843   2.5874   2.6026   2.6043
  2.6116   2.6173   2.6223   2.6297   2.6506   2.6600   2.6640   2.6656
  2.6794   2.6808   2.6896   2.6924   2.7086   2.7108   2.7131   2.7233
  2.7335   2.7374   2.7467   2.7531   2.7605   2.7630   2.7695   2.7850
  2.7909   2.8169   2.8265   2.8308   2.8359   2.8416   2.8537   2.8542
  2.8595   2.8625   2.8684   2.8824   2.8848   2.8908   2.8992   2.9062
  2.9158   2.9213   2.9271   2.9325   2.9463   2.9540   2.9605   2.9699
  2.9716   2.9760   2.9868   2.9902   3.0005   3.0013   3.0132   3.0184
  3.0250   3.0305   3.0352   3.0445   3.0482   3.0585   3.0695   3.0789
  3.0853   3.0896   3.0919   3.1008   3.1081   3.1135   3.1181   3.1220
  3.1273   3.1401   3.1464   3.1514   3.1543   3.1677   3.1715   3.1777
  3.1872   3.1958   3.1992   3.2063   3.2087   3.2127   3.2148   3.2215
  3.2268   3.2305   3.2315   3.2444   3.2457   3.2513   3.2591   3.2639
  3.2675   3.2729   3.2767   3.2861   3.2875   3.2889   3.2908   3.2973
  3.3036   3.3064   3.3104   3.3191   3.3210   3.3280   3.3342   3.3374
  3.3392   3.3429   3.3465   3.3529   3.3575   3.3633   3.3683   3.3715
  3.3750   3.3798   3.3862   3.3872   3.3966   3.3984   3.4024   3.4198
  3.4233   3.4277   3.4309   3.4322   3.4406   3.4458   3.4507   3.4535
  3.4564   3.4648   3.4682   3.4734   3.4795   3.4853   3.4905   3.4923
  3.4968   3.4991   3.5056   3.5074   3.5110   3.5203   3.5221   3.5276
  3.5344   3.5383   3.5398   3.5515   3.5550   3.5682   3.5703   3.5812
  3.5819   3.5925   3.5964   3.6044   3.6075   3.6162   3.6250   3.6288
  3.6327   3.6340   3.6368   3.6405   3.6519   3.6630   3.6709   3.6775
  3.6839   3.6867   3.6963   3.7008   3.7082   3.7102   3.7153   3.7197
  3.7306   3.7327   3.7348   3.7443   3.7469   3.7519   3.7559   3.7631
  3.7702   3.7806   3.7826   3.7871   3.7904   3.7945   3.7971   3.8018
  3.8064   3.8178   3.8222   3.8296   3.8384   3.8453   3.8530   3.8587
  3.8616   3.8678   3.8757   3.8817   3.8919   3.8978   3.9047   3.9151
  3.9237   3.9350   3.9407   3.9450   3.9522   3.9552   3.9637   3.9769
  3.9780   3.9959   4.0002   4.0029   4.0081   4.0214   4.0313   4.0449
  4.0514   4.0631   4.0654   4.0815   4.0858   4.0866   4.0978   4.1072
  4.1121   4.1243   4.1339   4.1380   4.1458   4.1526   4.1539   4.1761
  4.1831   4.1846   4.1910   4.1992   4.2046   4.2090   4.2147   4.2321
  4.2441   4.2503   4.2530   4.2667   4.2711   4.2785   4.2817   4.2882
  4.2917   4.2954   4.2994   4.3026   4.3108   4.3241   4.3312   4.3317
  4.3455   4.3511   4.3613   4.3655   4.3668   4.3699   4.3747   4.3807
  4.3880   4.3949   4.4012   4.4039   4.4128   4.4169   4.4249   4.4300
  4.4498   4.4633   4.4663   4.4758   4.4960   4.5022   4.5135   4.5162
  4.5228   4.5307   4.5355   4.5409   4.5455   4.5519   4.5600   4.5676
  4.5755   4.5805   4.5828   4.5918   4.6050   4.6139   4.6291   4.6352
  4.6407   4.6452   4.6605   4.6671   4.6681   4.6724   4.6891   4.6917
  4.7155   4.7232   4.7318   4.7382   4.7499   4.7685   4.7809   4.7859
  4.8191   4.8226   4.8318   4.8410   4.8504   4.8569   4.8630   4.8788
  4.8801   4.9043   4.9078   4.9314   4.9398   4.9493   4.9693   4.9786
  4.9883   4.9952   5.0165   5.0345   5.0393   5.0452   5.0496   5.0601
  5.0972   5.1006   5.1073   5.1108   5.1242   5.1313   5.1401   5.1473
  5.1650   5.1794   5.1840   5.1914   5.2038   5.2276   5.2355   5.2559
  5.2613   5.2734   5.2805   5.2935   5.3203   5.3261   5.3296   5.3328
  5.3457   5.3865   5.3951   5.4016   5.4188   5.4287   5.4312   5.4638
  5.4858   5.5042   5.5080   5.5084   5.5124   5.5216   5.5458   5.5546
  5.5576   5.5599   5.5729   5.5771   5.5812   5.5905   5.6028   5.6110
  5.6194   5.6341   5.6456   5.6518   5.6537   5.6753   5.6763   5.6873
  5.6913   5.7019   5.7204   5.7366   5.7488   5.7577   5.7624   5.7679
  5.7709   5.7753   5.8099   5.8195   5.8364   5.8598   5.8800   5.9182
  5.9429   5.9532   5.9960   6.0103   6.0212   6.0235   6.0283   6.0493
  6.0872   6.0999   6.1002   6.1128   6.1158   6.1619   6.1903   6.2066
  6.2171   6.2179   6.2204   6.2512   6.2629   6.2664   6.2988   6.3393
  6.3498   6.3941   6.4310   6.4430   6.4644   6.5217   6.5616   6.5681
  6.5860   6.5971   6.6432   6.6470   6.6581   6.6825   6.7016   6.8278
  6.8304   6.8772   6.8856   6.8924   6.9108   6.9214   6.9234   7.0768
  7.0958   7.1372   7.1816   7.1867   7.2264   7.3320   7.3397   7.3439
  7.3505   7.4654   7.5428   7.5562   7.5718   7.5726   7.5844   7.6326
  7.6634   7.6789   7.7202   8.3252   9.8948  10.2635  11.1223  11.2841
 11.6408  11.7149  11.9437  12.3584  12.4433  12.6979  12.8464  12.9526
 13.2441  13.5602  13.8041  13.9285  13.9991  14.1208  14.2038  14.3412
 14.4049  14.7209  15.3164  15.7125  15.9777
 --------------------------------------------------------------
 
          Ground-State Mulliken Net Atomic Charges

     Atom                 Charge (a.u.)
  ----------------------------------------
      1 C                    -0.129109
      2 C                    -0.107288
      3 C                    -0.044021
      4 C                    -0.000757
      5 H                     0.188999
      6 C                    -0.004951
      7 C                     0.072457
      8 C                     0.004722
      9 C                    -0.004813
     10 C                    -0.129315
     11 C                     0.066043
     12 H                     0.182308
     13 C                     0.361255
     14 C                     0.370294
     15 N                    -0.101963
     16 C                     0.359811
     17 C                     0.356911
     18 N                    -0.096728
     19 O                    -0.464692
     20 O                    -0.476259
     21 O                    -0.479416
     22 O                    -0.456331
     23 C                    -0.200941
     24 H                     0.141088
     25 H                     0.112457
     26 H                     0.112603
     27 C                    -0.195887
     28 H                     0.133754
     29 H                     0.113782
     30 H                     0.112961
     31 H                     0.214863
     32 C                    -0.053184
     33 S                     0.031809
     34 C                    -0.211684
     35 C                    -0.165701
     36 C                    -0.202980
     37 H                     0.187766
     38 H                     0.190946
     39 H                     0.211190
  ----------------------------------------
  Sum of atomic charges =     0.000000

 -----------------------------------------------------------------
                    Cartesian Multipole Moments
 -----------------------------------------------------------------
    Charge (ESU x 10^10)
                 0.0000
    Dipole Moment (Debye)
         X       0.2801      Y       0.6737      Z      -0.9724
       Tot       1.2157
    Quadrupole Moments (Debye-Ang)
        XX    -183.5906     XY      -0.2043     YY    -163.3928
        XZ       3.5093     YZ       0.8483     ZZ    -158.1431
    Octopole Moments (Debye-Ang^2)
       XXX     -67.3591    XXY     541.0588    XYY      -7.4143
       YYY    1576.7484    XXZ     -13.1854    XYZ     -13.1595
       YYZ      -7.6338    XZZ     -19.3154    YZZ     480.2222
       ZZZ     -45.5614
    Hexadecapole Moments (Debye-Ang^3)
      XXXX   -5997.2487   XXXY     -34.3889   XXYY   -4195.0755
      XYYY    -802.8755   YYYY  -17047.5240   XXXZ     531.9514
      XXYZ     -59.4212   XYYZ     264.6009   YYYZ     104.3955
      XXZZ   -1073.0131   XYZZ    -110.3990   YYZZ   -2741.1350
      XZZZ     483.6840   YZZZ      14.3956   ZZZZ    -631.2396
 -----------------------------------------------------------------
 Total job time:  256.37s(wall), 7892.55s(cpu) 
 Fri Dec 15 14:07:19 2023

        *************************************************************
        *                                                           *
        *  Thank you very much for using Q-Chem.  Have a nice day.  *
        *                                                           *
        *************************************************************


0 sent ACK to 0 
now end server 0 ... 
cleanup process ... done
remove work dirs ./qchem188229.0 -- ./qchem188229.0
rm -rf ./qchem188229.0
rm -rf ./qchem188229
