You are running Q-Chem version: 5.4.0

#
# job setting
#
local host:  exp-4-09
current dir: /home/rramji/project-csd799/aromodel/pndit-qchem/rotation_run
input file:  Dimethyl_Naphthalene_Dicarboximide_Phi_40_Theta_330_Thiophene.qcin
output file: 
nprocs     : 1
nthreads   : 64
#
# qchem installation setting
#
QC:          /cm/shared/apps/spack/cpu/opt/spack/linux-centos8-zen2/gcc-10.2.0/qchem-5.4-akfmr7b3t57bfs6qan3padb2wnb2i7cl
QCAUX:       /cm/shared/apps/spack/cpu/opt/spack/linux-centos8-zen2/gcc-10.2.0/qchem-5.4-akfmr7b3t57bfs6qan3padb2wnb2i7cl/qcaux
QCPROG:      /cm/shared/apps/spack/cpu/opt/spack/linux-centos8-zen2/gcc-10.2.0/qchem-5.4-akfmr7b3t57bfs6qan3padb2wnb2i7cl/exe/qcprog.exe
QCPROG_S:    /cm/shared/apps/spack/cpu/opt/spack/linux-centos8-zen2/gcc-10.2.0/qchem-5.4-akfmr7b3t57bfs6qan3padb2wnb2i7cl/exe/qcprog.exe_s
PARALLEL:    -DPARALLEL
QCMPI:       mpich
#
# qchem directory setting
#
qcrun:       qchem2799695
QCSCRATCH:   .
QCLOCALSCR:  
QCTMPDIR:    .
QCFILEPREF:  ./qchem2799695
QCSAVEDIR:   
workdirs:    ./qchem2799695
workdir0:    ./qchem2799695
partmpdirs =  
#
# parallel setting
#
QCRSH:           ssh
QCMPI:           mpich
QCMPIRUN:        /cm/shared/apps/spack/cpu/opt/spack/linux-centos8-zen2/gcc-10.2.0/qchem-5.4-akfmr7b3t57bfs6qan3padb2wnb2i7cl/bin/mpi/mpirun_qchem
QCMACHINEFILE:   ./qchem2799695/hostfile
exp-4-09

#
# env setting
#
exported envs:   QC QCAUX QCSCRATCH QCRUNNAME QCFILEPREF QCPROG QCPROG_S GUIFILE

Running Job 1 of 1 Dimethyl_Naphthalene_Dicarboximide_Phi_40_Theta_330_Thiophene.qcin
qchem Dimethyl_Naphthalene_Dicarboximide_Phi_40_Theta_330_Thiophene.qcin_2799695.0 ./qchem2799695/ 1
/cm/shared/apps/spack/cpu/opt/spack/linux-centos8-zen2/gcc-10.2.0/qchem-5.4-akfmr7b3t57bfs6qan3padb2wnb2i7cl/bin/mpi/mpirun_qchem -machinefile ./qchem2799695/hostfile -np 1 /cm/shared/apps/spack/cpu/opt/spack/linux-centos8-zen2/gcc-10.2.0/qchem-5.4-akfmr7b3t57bfs6qan3padb2wnb2i7cl/exe/qcprog.exe Dimethyl_Naphthalene_Dicarboximide_Phi_40_Theta_330_Thiophene.qcin_2799695.0 ./qchem2799695/

Process 0 of 1 is on exp-4-09 - thread support 0
initial socket setup ...start
initial socket setup ...done 
now start server 0 ... 
                  Welcome to Q-Chem
     A Quantum Leap Into The Future Of Chemistry


 Q-Chem 5.4, Q-Chem, Inc., Pleasanton, CA (2021)

 License issued to: University of California, San Diego (site)

 E. Epifanovsky,  A. T. B. Gilbert,  Xintian Feng,  Joonho Lee,  Yuezhi Mao,  
 N. Mardirossian,  P. Pokhilko,  A. White,  M. Wormit,  M. P. Coons,  
 A. L. Dempwolff,  Zhengting Gan,  D. Hait,  P. R. Horn,  L. D. Jacobson,  
 I. Kaliman,  J. Kussmann,  A. W. Lange,  Ka Un Lao,  D. S. Levine,  Jie Liu,  
 S. C. McKenzie,  A. F. Morrison,  K. Nanda,  F. Plasser,  D. R. Rehn,  
 M. L. Vidal,  Zhi-Qiang You,  Ying Zhu,  B. Alam,  B. Albrecht,  
 A. Aldossary,  E. Alguire,  J. H. Andersen,  D. Barton,  K. Begam,  A. Behn,  
 Y. A. Bernard,  E. J. Berquist,  H. Burton,  A. Carreras,  K. Carter-Fenk,  
 R. Chakraborty,  A. D. Chien,  K. D. Closser,  V. Cofer-Shabica,  
 S. Dasgupta,  Jia Deng,  M. de Wergifosse,  M. Diedenhofen,  Hainam Do,  
 S. Ehlert,  Po-Tung Fang,  S. Fatehi,  Qingguo Feng,  J. Gayvert,  
 Qinghui Ge,  G. Gidofalvi,  M. Goldey,  J. Gomes,  C. Gonzalez-Espinoza,  
 S. Gulania,  A. Gunina,  M. W. D. Hanson-Heine,  P. H. P. Harbach,  
 A. W. Hauser,  M. F. Herbst,  M. Hernandez Vera,  M. Hodecker,  
 Z. C. Holden,  S. Houck,  Xunkun Huang,  Kerwin Hui,  B. C. Huynh,  
 M. Ivanov,  Hyunjun Ji,  Hanjie Jiang,  B. Kaduk,  S. Kaehler,  
 K. Khistyaev,  Jaehoon Kim,  P. Klunzinger,  Z. Koczor-Benda,  
 Joong Hoon Koh,  D. Kosenkov,  L. Koulias,  T. Kowalczyk,  C. M. Krauter,  
 K. Kue,  A. Kunitsa,  T. Kus,  A. Landau,  K. V. Lawler,  D. Lefrancois,  
 S. Lehtola,  Rain Li,  Yi-Pei Li,  Jiashu Liang,  M. Liebenthal,  
 Hung-Hsuan Lin,  You-Sheng Lin,  Fenglai Liu,  Kuan-Yu Liu,  
 M. Loipersberger,  A. Luenser,  A. Manjanath,  P. Manohar,  E. Mansoor,  
 S. F. Manzer,  Shan-Ping Mao,  A. V. Marenich,  T. Markovich,  S. Mason,  
 S. A. Maurer,  P. F. McLaughlin,  M. F. S. J. Menger,  J.-M. Mewes,  
 S. A. Mewes,  P. Morgante,  J. W. Mullinax,  T. S. Nguyen-Beck,  
 K. J. Oosterbaan,  G. Paran,  Alexander C. Paul,  Suranjan K. Paul,  
 F. Pavosevic,  Zheng Pei,  S. Prager,  E. I. Proynov,  E. Ramos,  B. Rana,  
 A. E. Rask,  A. Rettig,  R. M. Richard,  F. Rob,  E. Rossomme,  T. Scheele,  
 M. Scheurer,  M. Schneider,  N. Sergueev,  S. M. Sharada,  W. Skomorowski,  
 D. W. Small,  C. J. Stein,  Yu-Chuan Su,  E. J. Sundstrom,  Zhen Tao,  
 J. Thirman,  T. Tsuchimochi,  N. M. Tubman,  S. P. Veccham,  O. Vydrov,  
 J. Wenzel,  J. Witte,  A. Yamada,  Kun Yao,  S. Yeganeh,  S. R. Yost,  
 A. Zech,  Igor Ying Zhang,  Xing Zhang,  Yu Zhang,  D. Zuev,  
 A. Aspuru-Guzik,  A. T. Bell,  N. A. Besley,  K. B. Bravaya,  B. R. Brooks,  
 D. Casanova,  Jeng-Da Chai,  S. Coriani,  C. J. Cramer,  
 A. E. DePrince, III,  R. A. DiStasio Jr.,  A. Dreuw,  B. D. Dunietz,  
 T. R. Furlani,  W. A. Goddard III,  S. Grimme,  S. Hammes-Schiffer,  
 T. Head-Gordon,  W. J. Hehre,  Chao-Ping Hsu,  T.-C. Jagau,  Yousung Jung,  
 A. Klamt,  Jing Kong,  D. S. Lambrecht,  WanZhen Liang,  N. J. Mayhall,  
 C. W. McCurdy,  J. B. Neaton,  C. Ochsenfeld,  J. A. Parkhill,  R. Peverati,  
 V. A. Rassolov,  Yihan Shao,  L. V. Slipchenko,  T. Stauch,  R. P. Steele,  
 J. E. Subotnik,  A. J. W. Thom,  A. Tkatchenko,  D. G. Truhlar,  
 T. Van Voorhis,  T. A. Wesolowski,  K. B. Whaley,  H. L. Woodcock III,  
 P. M. Zimmerman,  S. Faraji,  P. M. W. Gill,  M. Head-Gordon,  
 J. M. Herbert,  A. I. Krylov

 Contributors to earlier versions of Q-Chem not listed above: 
 R. D. Adamson,  B. Austin,  R. Baer,  J. Baker,  G. J. O. Beran,  
 K. Brandhorst,  S. T. Brown,  E. F. C. Byrd,  A. K. Chakraborty,  
 G. K. L. Chan,  Chun-Min Chang,  Yunqing Chen,  C.-L. Cheng,  
 Siu Hung Chien,  D. M. Chipman,  D. L. Crittenden,  H. Dachsel,  
 R. J. Doerksen,  A. D. Dutoi,  R. G. Edgar,  J. Fosso-Tande,  
 L. Fusti-Molnar,  D. Ghosh,  A. Ghysels,  A. Golubeva-Zadorozhnaya,  
 J. Gonthier,  M. S. Gordon,  S. R. Gwaltney,  G. Hawkins,  J. E. Herr,  
 A. Heyden,  S. Hirata,  E. G. Hohenstein,  G. Kedziora,  F. J. Keil,  
 C. Kelley,  Jihan Kim,  R. A. King,  R. Z. Khaliullin,  P. P. Korambath,  
 W. Kurlancheek,  A. Laurent,  A. M. Lee,  M. S. Lee,  S. V. Levchenko,  
 Ching Yeh Lin,  D. Liotard,  E. Livshits,  R. C. Lochan,  I. Lotan,  
 L. A. Martinez-Martinez,  P. E. Maslen,  N. Nair,  D. P. O'Neill,  
 D. Neuhauser,  E. Neuscamman,  C. M. Oana,  R. Olivares-Amaya,  R. Olson,  
 T. M. Perrine,  B. Peters,  P. A. Pieniazek,  A. Prociuk,  Y. M. Rhee,  
 J. Ritchie,  M. A. Rohrdanz,  E. Rosta,  N. J. Russ,  H. F. Schaefer III,  
 M. W. Schmidt,  N. E. Schultz,  S. Sharma,  N. Shenvi,  C. D. Sherrill,  
 A. C. Simmonett,  A. Sodt,  T. Stein,  D. Stuck,  K. S. Thanthiriwatte,  
 V. Vanovschi,  L. Vogt,  Tao Wang,  A. Warshel,  M. A. Watson,  
 C. F. Williams,  Q. Wu,  X. Xu,  Jun Yang,  W. Zhang,  Yan Zhao

 Please cite Q-Chem as follows:
 Y. Shao et al., Mol. Phys. 113, 184-215 (2015)
 DOI: 10.1080/00268976.2014.952696

 Q-Chem 5.4.0 for Intel X86 EM64T Linux

 Parts of Q-Chem use Armadillo 9.800.1 (Horizon Scraper).
 http://arma.sourceforge.net/

 Q-Chem begins on Fri Dec 15 15:54:09 2023  

 Host: 
0

     Scratch files written to ./qchem2799695//
 May1621 |scratch|qcdevops|jenkins|workspace|build_RNUM    
 Parallel job on  1  processors
 Processing $rem in /cm/shared/apps/spack/cpu/opt/spack/linux-centos8-zen2/gcc-10.2.0/qchem-5.4-akfmr7b3t57bfs6qan3padb2wnb2i7cl/config/preferences:
 Processing $rem in /home/rramji/.qchemrc:
 Symmetry turned off for PCM/SM12/SMD calculation
 Core orbitals will be frozen

 Checking the input file for inconsistencies... 	...done.

 Q-Chem warning in module forms1/BasisType.C, line 2236:

 You are not using the predefined 5D/6D in this basis set.


--------------------------------------------------------------
User input:
--------------------------------------------------------------
$molecule
0 1
C	-0.129743	-6.741404	-0.221766
C	-0.782726	-6.155638	-1.352515
C	0.411926	-5.791452	0.717339
C	-0.921816	-4.803786	-1.593885
H	-1.221908	-6.821518	-2.112819
C	0.266682	-4.378638	0.464360
C	-0.398255	-3.838032	-0.688053
C	0.789694	-3.413062	1.369108
C	-0.542349	-2.426473	-0.939002
C	0.652589	-2.059348	1.130409
C	0.000000	-1.478216	0.000000
H	1.092453	-1.394783	1.891446
C	1.131595	-6.187987	1.967519
C	1.504912	-3.798164	2.608118
N	1.625174	-5.170003	2.819813
C	-1.639129	-4.424987	-2.836188
C	-1.263477	-2.036627	-2.189558
N	-1.756898	-3.049156	-3.042237
O	1.324787	-7.353131	2.307845
O	1.967354	-2.986854	3.407213
O	-2.095892	-5.248946	-3.625890
O	-1.468685	-0.878829	-2.547850
C	2.330564	-5.563799	4.043674
H	2.352178	-6.664085	4.083407
H	1.807263	-5.147101	4.925490
H	3.356568	-5.148785	4.031877
C	-2.452080	-2.587487	-4.247206
H	-2.774302	-3.483329	-4.803187
H	-1.773301	-1.964972	-4.860536
H	-3.321351	-1.962932	-3.966607
H	-0.037043	-7.822318	-0.060567
C	0.000000	0.000000	0.000000
S	0.509686	0.607733	1.580530
C	1.562368	1.862312	0.904911
C	0.641367	0.764613	-0.985400
C	1.489926	1.776040	-0.493528
H	0.489914	0.584081	-2.059934
H	2.056124	2.450920	-1.152593
H	2.128395	2.537007	1.556025
$end

$rem
JOBTYPE		SP
EXCHANGE	HF
CORRELATION	pRIMP2
BASIS		cc-pvtz
METHOD		rimp2
AUX_BASIS	rimp2-cc-pvtz
SOLVENT_METHOD	PCM
PURECART	11111
SYMMETRY	false
MEM_TOTAL	110000
SCF_CONVERGENCE = 6
THRESH=10
GUI = 2
$end



$solvent
dielectric 4.90
$end
--------------------------------------------------------------
 ----------------------------------------------------------------
             Standard Nuclear Orientation (Angstroms)
    I     Atom           X                Y                Z
 ----------------------------------------------------------------
    1      C      -0.1297430000    -6.7414040000    -0.2217660000
    2      C      -0.7827260000    -6.1556380000    -1.3525150000
    3      C       0.4119260000    -5.7914520000     0.7173390000
    4      C      -0.9218160000    -4.8037860000    -1.5938850000
    5      H      -1.2219080000    -6.8215180000    -2.1128190000
    6      C       0.2666820000    -4.3786380000     0.4643600000
    7      C      -0.3982550000    -3.8380320000    -0.6880530000
    8      C       0.7896940000    -3.4130620000     1.3691080000
    9      C      -0.5423490000    -2.4264730000    -0.9390020000
   10      C       0.6525890000    -2.0593480000     1.1304090000
   11      C       0.0000000000    -1.4782160000     0.0000000000
   12      H       1.0924530000    -1.3947830000     1.8914460000
   13      C       1.1315950000    -6.1879870000     1.9675190000
   14      C       1.5049120000    -3.7981640000     2.6081180000
   15      N       1.6251740000    -5.1700030000     2.8198130000
   16      C      -1.6391290000    -4.4249870000    -2.8361880000
   17      C      -1.2634770000    -2.0366270000    -2.1895580000
   18      N      -1.7568980000    -3.0491560000    -3.0422370000
   19      O       1.3247870000    -7.3531310000     2.3078450000
   20      O       1.9673540000    -2.9868540000     3.4072130000
   21      O      -2.0958920000    -5.2489460000    -3.6258900000
   22      O      -1.4686850000    -0.8788290000    -2.5478500000
   23      C       2.3305640000    -5.5637990000     4.0436740000
   24      H       2.3521780000    -6.6640850000     4.0834070000
   25      H       1.8072630000    -5.1471010000     4.9254900000
   26      H       3.3565680000    -5.1487850000     4.0318770000
   27      C      -2.4520800000    -2.5874870000    -4.2472060000
   28      H      -2.7743020000    -3.4833290000    -4.8031870000
   29      H      -1.7733010000    -1.9649720000    -4.8605360000
   30      H      -3.3213510000    -1.9629320000    -3.9666070000
   31      H      -0.0370430000    -7.8223180000    -0.0605670000
   32      C       0.0000000000     0.0000000000     0.0000000000
   33      S       0.5096860000     0.6077330000     1.5805300000
   34      C       1.5623680000     1.8623120000     0.9049110000
   35      C       0.6413670000     0.7646130000    -0.9854000000
   36      C       1.4899260000     1.7760400000    -0.4935280000
   37      H       0.4899140000     0.5840810000    -2.0599340000
   38      H       2.0561240000     2.4509200000    -1.1525930000
   39      H       2.1283950000     2.5370070000     1.5560250000
 ----------------------------------------------------------------
 Nuclear Repulsion Energy =        2509.76372539 hartrees
 There are       97 alpha and       97 beta electrons
 Requested basis set is cc-pVTZ
 There are 344 shells and 982 basis functions

 Total QAlloc Memory Limit 110000 MB
 Mega-Array Size       188 MB
 MEM_STATIC part       192 MB
 Discretize the solute cavity surface with Lebedev spheres
	Using 110 Lebedev grid points for each H atom
	Using 194 Lebedev grid points for other atoms
	Atomic van der Waals radii will be scaled by 1.20
 Remove points where switching function is < 1.0e-08
 Keep 2498 surface tesserae and discard 4060 interior tesserae
 Molecular Surface Area = 363.709 Angst**2
 Requested basis set is rimp2-cc-pVTZ
 There are 750 shells and 2588 basis functions
 A cutoff of  1.0D-10 yielded  31929 shell pairs
 There are    245963 function pairs (    319712 Cartesian)
 Smallest overlap matrix eigenvalue = 9.08E-06

 Q-Chem warning in module stvman/mkSTV.C, line 323:

 Overlap eigenvalue is smaller than square root of threshold
 Use THRESH >= 12 to get rid of this warning


 Scale SEOQF with 1.000000e-01/1.000000e-02/1.000000e-01

 Standard Electronic Orientation quadrupole field applied
 Nucleus-field energy     =    -0.0000000725 hartrees
 Guess from superposition of atomic densities
 Warning:  Energy on first SCF cycle will be non-variational
 SAD guess density has 194.000000 electrons

 -----------------------------------------------------------------------
  General SCF calculation program by
  Eric Jon Sundstrom, Paul Horn, Yuezhi Mao, Dmitri Zuev, Alec White,
  David Stuck, Shaama M.S., Shane Yost, Joonho Lee, David Small,
  Daniel Levine, Susi Lehtola, Hugh Burton, Evgeny Epifanovsky,
  Bang C. Huynh
 -----------------------------------------------------------------------
 Hartree-Fock
 using 64 threads for integral computing
 -------------------------------------------------------
 OpenMP Integral computing Module                
 Release: version 1.0, May 2013, Q-Chem Inc. Pittsburgh 
 -------------------------------------------------------
 A restricted SCF calculation will be
 performed using DIIS
 SCF converges when DIIS error is below 1.0e-06
 ---------------------------------------
  Cycle       Energy         DIIS error
 ---------------------------------------
    1   -1581.4192954999      1.88e-02  
    2   -1570.0869855355      2.08e-03  
    3   -1570.4155144419      1.61e-03  
    4   -1570.6405514883      2.58e-04  
    5   -1570.6528447811      7.74e-05  
    6   -1570.6539664769      2.87e-05  
    7   -1570.6542325898      1.44e-05  
    8   -1570.6543172104      6.27e-06  
    9   -1570.6543313073      2.35e-06  
   10   -1570.6543338589      8.94e-07  Convergence criterion met
 ---------------------------------------
 SCF time:   CPU 5808.52s  wall 212.00s 

************** Final PCM Free Energy Summary **************
 G_electrostatic  =      -0.02304014 hartree =     -14.45790484 kcal/mol
 G_cavitation     =       0.00000000 hartree =       0.00000000 kcal/mol
 G_dispersion     =       0.00000000 hartree =       0.00000000 kcal/mol
 G_repulsion      =       0.00000000 hartree =       0.00000000 kcal/mol
 --------------------------------------------------
 Non-electrostatic Free Energy =       0.00000000 hartree =       0.00000000 kcal/mol
 Total                         =      -0.02304014 hartree =     -14.45790484 kcal/mol
 --------------------------------------------------
 SCF Energy (H0 + V/2)                       =   -1570.65433386 
 Solute Internal Energy (H0)                 =   -1570.63129372 
 Total Free Energy (H0 + V/2 + non-elec)     =   -1570.65433386 hartree
                                             = -985600.47016366 kcal/mol
***********************************************************

 SCF   energy in the final basis set =    -1570.6543338589
 Total energy in the final basis set =    -1570.6543338589


 --------------------------------------------------------------
  Generalized many-body perturbation theory program
  by Joonho Lee, Fazle Rob, Xintian Feng, Evgeny Epifanovsky

 No regularization used 
 (reg. param. = 0.0000e+00)
  (P|Q)^-1/2 Time:  CPU 101.72 s  wall 2.26 s

 In RI-MP2 calculation: 
 # of frozen core orbitals: 31

 Components of the RIMP2 correlation energy:
        aaaa    correlation energy =        -0.6186428241 a.u.
        abab    correlation energy =        -3.3967920903 a.u.
        bbbb    correlation energy =        -0.6186428241 a.u.
        non-Brillouin singles      =        -0.0000000000 a.u.
        total same-spin energy     =        -1.2372856481 a.u.
        total opposite-spin energy =        -3.3967920903 a.u.

 Total  RIMP2   correlation energy =        -4.6340777384 a.u.
        RIMP2         total energy =     -1575.2884115973 a.u.

 RI-MP2 Energy Time:  CPU 1822.09 s  wall 30.08 s
 
 --------------------------------------------------------------
 
                    Orbital Energies (a.u.)
 --------------------------------------------------------------
 
 Alpha MOs
 -- Occupied --
-91.9912 -20.5579 -20.5558 -20.5537 -20.5523 -15.6305 -15.6286 -11.3991
-11.3934 -11.3900 -11.3898 -11.3181 -11.3009 -11.2995 -11.2980 -11.2938
-11.2927 -11.2925 -11.2853 -11.2845 -11.2816 -11.2780 -11.2708 -11.2690
-11.2642 -11.2637 -11.2530  -8.9921  -6.6728  -6.6721  -6.6717  -1.4242
 -1.4220  -1.4035  -1.4010  -1.2663  -1.2633  -1.2160  -1.1843  -1.1418
 -1.1142  -1.0630  -1.0474  -0.9938  -0.9917  -0.9906  -0.9576  -0.9454
 -0.8956  -0.8773  -0.8761  -0.8583  -0.7968  -0.7799  -0.7715  -0.7631
 -0.7348  -0.7180  -0.7048  -0.6945  -0.6796  -0.6734  -0.6652  -0.6610
 -0.6550  -0.6416  -0.6354  -0.6316  -0.6268  -0.6123  -0.5873  -0.5859
 -0.5806  -0.5759  -0.5671  -0.5625  -0.5615  -0.5556  -0.5520  -0.5475
 -0.5413  -0.5256  -0.5222  -0.5025  -0.4821  -0.4675  -0.4658  -0.4611
 -0.4588  -0.4516  -0.4270  -0.4176  -0.4079  -0.3731  -0.3517  -0.3351
 -0.3031
 -- Virtual --
 -0.0179   0.0530   0.0695   0.0955   0.1218   0.1523   0.1569   0.1590
  0.1668   0.1699   0.1792   0.1830   0.1873   0.1931   0.2075   0.2166
  0.2178   0.2265   0.2288   0.2333   0.2400   0.2450   0.2622   0.2643
  0.2654   0.2967   0.3094   0.3156   0.3190   0.3240   0.3348   0.3386
  0.3442   0.3473   0.3483   0.3539   0.3587   0.3628   0.3644   0.3745
  0.3791   0.3857   0.3914   0.3964   0.4019   0.4073   0.4098   0.4119
  0.4191   0.4205   0.4324   0.4360   0.4381   0.4468   0.4529   0.4578
  0.4579   0.4614   0.4686   0.4762   0.4799   0.4836   0.4906   0.4948
  0.4988   0.5067   0.5112   0.5123   0.5186   0.5217   0.5268   0.5292
  0.5378   0.5425   0.5463   0.5493   0.5548   0.5567   0.5626   0.5653
  0.5743   0.5755   0.5793   0.5823   0.5913   0.5951   0.5976   0.5980
  0.6036   0.6106   0.6145   0.6182   0.6202   0.6240   0.6304   0.6340
  0.6350   0.6376   0.6382   0.6490   0.6528   0.6550   0.6575   0.6676
  0.6798   0.6871   0.6959   0.6974   0.7035   0.7063   0.7118   0.7165
  0.7240   0.7313   0.7362   0.7387   0.7545   0.7603   0.7622   0.7655
  0.7710   0.7732   0.7795   0.7834   0.7963   0.8017   0.8067   0.8140
  0.8260   0.8276   0.8358   0.8426   0.8486   0.8521   0.8539   0.8570
  0.8631   0.8665   0.8704   0.8751   0.8761   0.8782   0.8998   0.9096
  0.9103   0.9173   0.9185   0.9258   0.9287   0.9348   0.9384   0.9475
  0.9512   0.9542   0.9638   0.9676   0.9760   0.9767   0.9818   0.9849
  0.9898   1.0017   1.0027   1.0087   1.0179   1.0195   1.0236   1.0262
  1.0371   1.0415   1.0503   1.0586   1.0621   1.0665   1.0725   1.0760
  1.0786   1.0825   1.0857   1.0899   1.0958   1.0995   1.1058   1.1196
  1.1231   1.1321   1.1377   1.1434   1.1455   1.1523   1.1537   1.1577
  1.1608   1.1611   1.1701   1.1793   1.1808   1.1818   1.1889   1.1967
  1.2014   1.2065   1.2140   1.2152   1.2264   1.2306   1.2340   1.2396
  1.2423   1.2495   1.2563   1.2616   1.2646   1.2761   1.2799   1.2938
  1.3167   1.3252   1.3309   1.3344   1.3401   1.3473   1.3625   1.3641
  1.3738   1.3801   1.3816   1.3855   1.3943   1.4024   1.4083   1.4164
  1.4253   1.4272   1.4347   1.4406   1.4455   1.4533   1.4594   1.4634
  1.4725   1.4802   1.4868   1.4897   1.4961   1.5055   1.5118   1.5228
  1.5314   1.5329   1.5377   1.5462   1.5535   1.5588   1.5609   1.5713
  1.5759   1.5793   1.5836   1.5886   1.5956   1.6071   1.6133   1.6368
  1.6424   1.6439   1.6535   1.6599   1.6641   1.6775   1.6834   1.6961
  1.6980   1.7043   1.7170   1.7272   1.7323   1.7380   1.7413   1.7480
  1.7532   1.7625   1.7708   1.7752   1.7856   1.7985   1.8051   1.8128
  1.8188   1.8291   1.8408   1.8469   1.8537   1.8596   1.8652   1.8665
  1.8733   1.8800   1.8876   1.9122   1.9220   1.9267   1.9363   1.9564
  1.9617   1.9685   1.9726   1.9862   1.9975   2.0144   2.0195   2.0388
  2.0448   2.0532   2.0664   2.0808   2.0860   2.1100   2.1222   2.1432
  2.1479   2.1552   2.1756   2.1795   2.1915   2.1951   2.2134   2.2158
  2.2369   2.2418   2.2622   2.2637   2.2817   2.2904   2.2946   2.2982
  2.3067   2.3285   2.3381   2.3461   2.3533   2.3596   2.3705   2.3785
  2.4101   2.4250   2.4376   2.4454   2.4510   2.4559   2.4589   2.4773
  2.4880   2.4930   2.4961   2.5005   2.5091   2.5252   2.5314   2.5392
  2.5482   2.5692   2.5835   2.5899   2.5922   2.5963   2.6050   2.6077
  2.6172   2.6188   2.6364   2.6475   2.6624   2.6645   2.6722   2.6756
  2.6802   2.6859   2.6957   2.7039   2.7061   2.7137   2.7242   2.7340
  2.7380   2.7464   2.7544   2.7570   2.7706   2.7716   2.7803   2.7951
  2.8129   2.8197   2.8322   2.8396   2.8436   2.8558   2.8585   2.8628
  2.8645   2.8754   2.8793   2.8839   2.8912   2.8957   2.9014   2.9085
  2.9136   2.9289   2.9344   2.9458   2.9515   2.9582   2.9598   2.9684
  2.9786   2.9840   2.9912   2.9975   3.0045   3.0055   3.0090   3.0185
  3.0267   3.0307   3.0399   3.0492   3.0553   3.0681   3.0705   3.0901
  3.0945   3.0956   3.0990   3.1024   3.1089   3.1122   3.1159   3.1223
  3.1260   3.1313   3.1522   3.1582   3.1640   3.1693   3.1747   3.1803
  3.1869   3.1970   3.1998   3.2099   3.2142   3.2169   3.2248   3.2299
  3.2325   3.2371   3.2416   3.2460   3.2509   3.2570   3.2635   3.2675
  3.2727   3.2746   3.2801   3.2825   3.2880   3.2894   3.2975   3.3048
  3.3098   3.3143   3.3174   3.3228   3.3249   3.3315   3.3355   3.3392
  3.3413   3.3460   3.3523   3.3558   3.3613   3.3638   3.3689   3.3719
  3.3746   3.3855   3.3891   3.3970   3.4028   3.4045   3.4052   3.4144
  3.4199   3.4262   3.4309   3.4413   3.4464   3.4491   3.4552   3.4583
  3.4602   3.4655   3.4694   3.4715   3.4762   3.4857   3.4914   3.4993
  3.4998   3.5016   3.5053   3.5073   3.5117   3.5227   3.5242   3.5284
  3.5352   3.5449   3.5501   3.5593   3.5660   3.5736   3.5807   3.5820
  3.5874   3.5921   3.5975   3.6133   3.6167   3.6278   3.6298   3.6322
  3.6326   3.6378   3.6400   3.6458   3.6512   3.6559   3.6722   3.6791
  3.6895   3.6956   3.7009   3.7013   3.7058   3.7132   3.7168   3.7219
  3.7345   3.7352   3.7444   3.7482   3.7548   3.7604   3.7670   3.7759
  3.7809   3.7841   3.7881   3.7916   3.7962   3.8002   3.8068   3.8124
  3.8185   3.8233   3.8332   3.8405   3.8489   3.8509   3.8559   3.8619
  3.8773   3.8792   3.8830   3.8859   3.8996   3.9122   3.9184   3.9213
  3.9316   3.9356   3.9424   3.9465   3.9529   3.9592   3.9761   3.9786
  3.9908   3.9932   3.9984   4.0156   4.0201   4.0252   4.0349   4.0454
  4.0566   4.0655   4.0717   4.0763   4.0839   4.0855   4.1000   4.1069
  4.1271   4.1361   4.1409   4.1472   4.1553   4.1579   4.1647   4.1733
  4.1829   4.1882   4.1912   4.1973   4.2139   4.2287   4.2351   4.2385
  4.2500   4.2664   4.2713   4.2755   4.2785   4.2867   4.2885   4.2930
  4.2990   4.3031   4.3061   4.3111   4.3166   4.3255   4.3320   4.3418
  4.3444   4.3468   4.3547   4.3662   4.3692   4.3753   4.3821   4.3848
  4.3878   4.3998   4.4049   4.4142   4.4185   4.4232   4.4348   4.4366
  4.4576   4.4660   4.4698   4.4853   4.4971   4.5112   4.5144   4.5169
  4.5251   4.5332   4.5383   4.5471   4.5565   4.5598   4.5660   4.5687
  4.5783   4.5840   4.5894   4.6046   4.6097   4.6150   4.6334   4.6398
  4.6408   4.6509   4.6603   4.6649   4.6765   4.6843   4.6917   4.6970
  4.7114   4.7311   4.7362   4.7511   4.7697   4.7770   4.7849   4.8005
  4.8078   4.8281   4.8405   4.8450   4.8545   4.8681   4.8696   4.8774
  4.8854   4.8971   4.9127   4.9404   4.9435   4.9646   4.9670   4.9827
  5.0028   5.0121   5.0250   5.0362   5.0463   5.0544   5.0580   5.0609
  5.0959   5.0970   5.1097   5.1187   5.1268   5.1292   5.1468   5.1478
  5.1595   5.1691   5.1848   5.1961   5.2148   5.2227   5.2397   5.2578
  5.2616   5.2802   5.2876   5.2995   5.3107   5.3247   5.3327   5.3465
  5.3494   5.3965   5.4030   5.4098   5.4207   5.4335   5.4426   5.4596
  5.4780   5.5060   5.5093   5.5137   5.5144   5.5338   5.5464   5.5554
  5.5577   5.5606   5.5701   5.5758   5.5785   5.5936   5.6068   5.6111
  5.6259   5.6386   5.6533   5.6565   5.6644   5.6750   5.6774   5.6930
  5.6981   5.7116   5.7289   5.7384   5.7509   5.7576   5.7597   5.7714
  5.7766   5.7810   5.8095   5.8248   5.8462   5.8725   5.9011   5.9372
  5.9522   5.9626   5.9870   6.0177   6.0237   6.0298   6.0361   6.0513
  6.0840   6.0922   6.1015   6.1176   6.1247   6.1662   6.1892   6.2088
  6.2179   6.2219   6.2221   6.2550   6.2681   6.2772   6.3040   6.3440
  6.3533   6.3882   6.3965   6.4465   6.4668   6.5294   6.5626   6.5694
  6.5710   6.5915   6.6025   6.6484   6.6550   6.6609   6.7067   6.8317
  6.8353   6.8824   6.8867   6.8980   6.9119   6.9288   6.9479   7.0794
  7.0988   7.1413   7.1836   7.1898   7.2285   7.3330   7.3433   7.3449
  7.3597   7.4689   7.5462   7.5591   7.5751   7.5796   7.5927   7.6351
  7.6795   7.6869   7.7246   8.4059   9.8670  10.3299  11.0773  11.1993
 11.7084  11.7879  12.0524  12.3707  12.4678  12.7315  12.8542  12.9339
 13.3005  13.5673  13.8148  13.9394  14.0281  14.0884  14.2008  14.3557
 14.4159  14.7509  15.3204  15.7414  16.0455
 --------------------------------------------------------------
 
          Ground-State Mulliken Net Atomic Charges

     Atom                 Charge (a.u.)
  ----------------------------------------
      1 C                    -0.147108
      2 C                    -0.108839
      3 C                    -0.028905
      4 C                    -0.004616
      5 H                     0.187731
      6 C                    -0.009863
      7 C                     0.073703
      8 C                     0.050330
      9 C                    -0.072337
     10 C                    -0.175590
     11 C                     0.053781
     12 H                     0.185632
     13 C                     0.357987
     14 C                     0.363407
     15 N                    -0.101075
     16 C                     0.357066
     17 C                     0.362583
     18 N                    -0.094571
     19 O                    -0.464867
     20 O                    -0.478055
     21 O                    -0.484381
     22 O                    -0.474412
     23 C                    -0.201490
     24 H                     0.141010
     25 H                     0.112289
     26 H                     0.112083
     27 C                    -0.197644
     28 H                     0.133623
     29 H                     0.111397
     30 H                     0.112896
     31 H                     0.212064
     32 C                    -0.047593
     33 S                     0.017292
     34 C                    -0.146439
     35 C                    -0.077023
     36 C                    -0.248409
     37 H                     0.207659
     38 H                     0.193379
     39 H                     0.217309
  ----------------------------------------
  Sum of atomic charges =     0.000000

 -----------------------------------------------------------------
                    Cartesian Multipole Moments
 -----------------------------------------------------------------
    Charge (ESU x 10^10)
                 0.0000
    Dipole Moment (Debye)
         X       2.1957      Y       2.2717      Z      -0.4912
       Tot       3.1973
    Quadrupole Moments (Debye-Ang)
        XX    -164.1542     XY       5.9485     YY    -174.5378
        XZ      -8.6985     YZ       0.3500     ZZ    -173.1822
    Octopole Moments (Debye-Ang^2)
       XXX     -56.3035    XXY     513.2434    XYY      -5.7998
       YYY    1638.8390    XXZ       3.8490    XYZ      41.9130
       YYZ       0.7846    XZZ      -9.2330    YZZ     552.8414
       ZZZ      -3.1872
    Hexadecapole Moments (Debye-Ang^3)
      XXXX   -1841.6804   XXXY      21.9387   XXYY   -3045.4088
      XYYY     287.5915   YYYY  -17235.4299   XXXZ   -1293.2979
      XXYZ      18.1278   XYYZ    -679.2186   YYYZ     640.5907
      XXZZ   -1145.3567   XYZZ    -105.3440   YYZZ   -3861.2048
      XZZZ   -1367.6960   YZZZ      29.6440   ZZZZ   -4915.9673
 -----------------------------------------------------------------
 Total job time:  247.12s(wall), 7751.53s(cpu) 
 Fri Dec 15 15:58:16 2023

        *************************************************************
        *                                                           *
        *  Thank you very much for using Q-Chem.  Have a nice day.  *
        *                                                           *
        *************************************************************


0 sent ACK to 0 
now end server 0 ... 
cleanup process ... done
remove work dirs ./qchem2799695.0 -- ./qchem2799695.0
rm -rf ./qchem2799695.0
rm -rf ./qchem2799695
