You are running Q-Chem version: 5.4.0

#
# job setting
#
local host:  exp-1-19
current dir: /home/rramji/project-csd799/aromodel/pndit-qchem/rotation_run
input file:  Dimethyl_Naphthalene_Dicarboximide_Phi_10_Theta_320_Thiophene.qcin
output file: 
nprocs     : 1
nthreads   : 64
#
# qchem installation setting
#
QC:          /cm/shared/apps/spack/cpu/opt/spack/linux-centos8-zen2/gcc-10.2.0/qchem-5.4-akfmr7b3t57bfs6qan3padb2wnb2i7cl
QCAUX:       /cm/shared/apps/spack/cpu/opt/spack/linux-centos8-zen2/gcc-10.2.0/qchem-5.4-akfmr7b3t57bfs6qan3padb2wnb2i7cl/qcaux
QCPROG:      /cm/shared/apps/spack/cpu/opt/spack/linux-centos8-zen2/gcc-10.2.0/qchem-5.4-akfmr7b3t57bfs6qan3padb2wnb2i7cl/exe/qcprog.exe
QCPROG_S:    /cm/shared/apps/spack/cpu/opt/spack/linux-centos8-zen2/gcc-10.2.0/qchem-5.4-akfmr7b3t57bfs6qan3padb2wnb2i7cl/exe/qcprog.exe_s
PARALLEL:    -DPARALLEL
QCMPI:       mpich
#
# qchem directory setting
#
qcrun:       qchem488726
QCSCRATCH:   .
QCLOCALSCR:  
QCTMPDIR:    .
QCFILEPREF:  ./qchem488726
QCSAVEDIR:   
workdirs:    ./qchem488726
workdir0:    ./qchem488726
partmpdirs =  
#
# parallel setting
#
QCRSH:           ssh
QCMPI:           mpich
QCMPIRUN:        /cm/shared/apps/spack/cpu/opt/spack/linux-centos8-zen2/gcc-10.2.0/qchem-5.4-akfmr7b3t57bfs6qan3padb2wnb2i7cl/bin/mpi/mpirun_qchem
QCMACHINEFILE:   ./qchem488726/hostfile
exp-1-19

#
# env setting
#
exported envs:   QC QCAUX QCSCRATCH QCRUNNAME QCFILEPREF QCPROG QCPROG_S GUIFILE

Running Job 1 of 1 Dimethyl_Naphthalene_Dicarboximide_Phi_10_Theta_320_Thiophene.qcin
qchem Dimethyl_Naphthalene_Dicarboximide_Phi_10_Theta_320_Thiophene.qcin_488726.0 ./qchem488726/ 1
/cm/shared/apps/spack/cpu/opt/spack/linux-centos8-zen2/gcc-10.2.0/qchem-5.4-akfmr7b3t57bfs6qan3padb2wnb2i7cl/bin/mpi/mpirun_qchem -machinefile ./qchem488726/hostfile -np 1 /cm/shared/apps/spack/cpu/opt/spack/linux-centos8-zen2/gcc-10.2.0/qchem-5.4-akfmr7b3t57bfs6qan3padb2wnb2i7cl/exe/qcprog.exe Dimethyl_Naphthalene_Dicarboximide_Phi_10_Theta_320_Thiophene.qcin_488726.0 ./qchem488726/

Process 0 of 1 is on exp-1-19 - thread support 0
initial socket setup ...start
initial socket setup ...done 
now start server 0 ... 
                  Welcome to Q-Chem
     A Quantum Leap Into The Future Of Chemistry


 Q-Chem 5.4, Q-Chem, Inc., Pleasanton, CA (2021)

 License issued to: University of California, San Diego (site)

 E. Epifanovsky,  A. T. B. Gilbert,  Xintian Feng,  Joonho Lee,  Yuezhi Mao,  
 N. Mardirossian,  P. Pokhilko,  A. White,  M. Wormit,  M. P. Coons,  
 A. L. Dempwolff,  Zhengting Gan,  D. Hait,  P. R. Horn,  L. D. Jacobson,  
 I. Kaliman,  J. Kussmann,  A. W. Lange,  Ka Un Lao,  D. S. Levine,  Jie Liu,  
 S. C. McKenzie,  A. F. Morrison,  K. Nanda,  F. Plasser,  D. R. Rehn,  
 M. L. Vidal,  Zhi-Qiang You,  Ying Zhu,  B. Alam,  B. Albrecht,  
 A. Aldossary,  E. Alguire,  J. H. Andersen,  D. Barton,  K. Begam,  A. Behn,  
 Y. A. Bernard,  E. J. Berquist,  H. Burton,  A. Carreras,  K. Carter-Fenk,  
 R. Chakraborty,  A. D. Chien,  K. D. Closser,  V. Cofer-Shabica,  
 S. Dasgupta,  Jia Deng,  M. de Wergifosse,  M. Diedenhofen,  Hainam Do,  
 S. Ehlert,  Po-Tung Fang,  S. Fatehi,  Qingguo Feng,  J. Gayvert,  
 Qinghui Ge,  G. Gidofalvi,  M. Goldey,  J. Gomes,  C. Gonzalez-Espinoza,  
 S. Gulania,  A. Gunina,  M. W. D. Hanson-Heine,  P. H. P. Harbach,  
 A. W. Hauser,  M. F. Herbst,  M. Hernandez Vera,  M. Hodecker,  
 Z. C. Holden,  S. Houck,  Xunkun Huang,  Kerwin Hui,  B. C. Huynh,  
 M. Ivanov,  Hyunjun Ji,  Hanjie Jiang,  B. Kaduk,  S. Kaehler,  
 K. Khistyaev,  Jaehoon Kim,  P. Klunzinger,  Z. Koczor-Benda,  
 Joong Hoon Koh,  D. Kosenkov,  L. Koulias,  T. Kowalczyk,  C. M. Krauter,  
 K. Kue,  A. Kunitsa,  T. Kus,  A. Landau,  K. V. Lawler,  D. Lefrancois,  
 S. Lehtola,  Rain Li,  Yi-Pei Li,  Jiashu Liang,  M. Liebenthal,  
 Hung-Hsuan Lin,  You-Sheng Lin,  Fenglai Liu,  Kuan-Yu Liu,  
 M. Loipersberger,  A. Luenser,  A. Manjanath,  P. Manohar,  E. Mansoor,  
 S. F. Manzer,  Shan-Ping Mao,  A. V. Marenich,  T. Markovich,  S. Mason,  
 S. A. Maurer,  P. F. McLaughlin,  M. F. S. J. Menger,  J.-M. Mewes,  
 S. A. Mewes,  P. Morgante,  J. W. Mullinax,  T. S. Nguyen-Beck,  
 K. J. Oosterbaan,  G. Paran,  Alexander C. Paul,  Suranjan K. Paul,  
 F. Pavosevic,  Zheng Pei,  S. Prager,  E. I. Proynov,  E. Ramos,  B. Rana,  
 A. E. Rask,  A. Rettig,  R. M. Richard,  F. Rob,  E. Rossomme,  T. Scheele,  
 M. Scheurer,  M. Schneider,  N. Sergueev,  S. M. Sharada,  W. Skomorowski,  
 D. W. Small,  C. J. Stein,  Yu-Chuan Su,  E. J. Sundstrom,  Zhen Tao,  
 J. Thirman,  T. Tsuchimochi,  N. M. Tubman,  S. P. Veccham,  O. Vydrov,  
 J. Wenzel,  J. Witte,  A. Yamada,  Kun Yao,  S. Yeganeh,  S. R. Yost,  
 A. Zech,  Igor Ying Zhang,  Xing Zhang,  Yu Zhang,  D. Zuev,  
 A. Aspuru-Guzik,  A. T. Bell,  N. A. Besley,  K. B. Bravaya,  B. R. Brooks,  
 D. Casanova,  Jeng-Da Chai,  S. Coriani,  C. J. Cramer,  
 A. E. DePrince, III,  R. A. DiStasio Jr.,  A. Dreuw,  B. D. Dunietz,  
 T. R. Furlani,  W. A. Goddard III,  S. Grimme,  S. Hammes-Schiffer,  
 T. Head-Gordon,  W. J. Hehre,  Chao-Ping Hsu,  T.-C. Jagau,  Yousung Jung,  
 A. Klamt,  Jing Kong,  D. S. Lambrecht,  WanZhen Liang,  N. J. Mayhall,  
 C. W. McCurdy,  J. B. Neaton,  C. Ochsenfeld,  J. A. Parkhill,  R. Peverati,  
 V. A. Rassolov,  Yihan Shao,  L. V. Slipchenko,  T. Stauch,  R. P. Steele,  
 J. E. Subotnik,  A. J. W. Thom,  A. Tkatchenko,  D. G. Truhlar,  
 T. Van Voorhis,  T. A. Wesolowski,  K. B. Whaley,  H. L. Woodcock III,  
 P. M. Zimmerman,  S. Faraji,  P. M. W. Gill,  M. Head-Gordon,  
 J. M. Herbert,  A. I. Krylov

 Contributors to earlier versions of Q-Chem not listed above: 
 R. D. Adamson,  B. Austin,  R. Baer,  J. Baker,  G. J. O. Beran,  
 K. Brandhorst,  S. T. Brown,  E. F. C. Byrd,  A. K. Chakraborty,  
 G. K. L. Chan,  Chun-Min Chang,  Yunqing Chen,  C.-L. Cheng,  
 Siu Hung Chien,  D. M. Chipman,  D. L. Crittenden,  H. Dachsel,  
 R. J. Doerksen,  A. D. Dutoi,  R. G. Edgar,  J. Fosso-Tande,  
 L. Fusti-Molnar,  D. Ghosh,  A. Ghysels,  A. Golubeva-Zadorozhnaya,  
 J. Gonthier,  M. S. Gordon,  S. R. Gwaltney,  G. Hawkins,  J. E. Herr,  
 A. Heyden,  S. Hirata,  E. G. Hohenstein,  G. Kedziora,  F. J. Keil,  
 C. Kelley,  Jihan Kim,  R. A. King,  R. Z. Khaliullin,  P. P. Korambath,  
 W. Kurlancheek,  A. Laurent,  A. M. Lee,  M. S. Lee,  S. V. Levchenko,  
 Ching Yeh Lin,  D. Liotard,  E. Livshits,  R. C. Lochan,  I. Lotan,  
 L. A. Martinez-Martinez,  P. E. Maslen,  N. Nair,  D. P. O'Neill,  
 D. Neuhauser,  E. Neuscamman,  C. M. Oana,  R. Olivares-Amaya,  R. Olson,  
 T. M. Perrine,  B. Peters,  P. A. Pieniazek,  A. Prociuk,  Y. M. Rhee,  
 J. Ritchie,  M. A. Rohrdanz,  E. Rosta,  N. J. Russ,  H. F. Schaefer III,  
 M. W. Schmidt,  N. E. Schultz,  S. Sharma,  N. Shenvi,  C. D. Sherrill,  
 A. C. Simmonett,  A. Sodt,  T. Stein,  D. Stuck,  K. S. Thanthiriwatte,  
 V. Vanovschi,  L. Vogt,  Tao Wang,  A. Warshel,  M. A. Watson,  
 C. F. Williams,  Q. Wu,  X. Xu,  Jun Yang,  W. Zhang,  Yan Zhao

 Please cite Q-Chem as follows:
 Y. Shao et al., Mol. Phys. 113, 184-215 (2015)
 DOI: 10.1080/00268976.2014.952696

 Q-Chem 5.4.0 for Intel X86 EM64T Linux

 Parts of Q-Chem use Armadillo 9.800.1 (Horizon Scraper).
 http://arma.sourceforge.net/

 Q-Chem begins on Fri Dec 15 15:58:32 2023  

 Host: 
0

     Scratch files written to ./qchem488726//
 May1621 |scratch|qcdevops|jenkins|workspace|build_RNUM    
 Parallel job on  1  processors
 Processing $rem in /cm/shared/apps/spack/cpu/opt/spack/linux-centos8-zen2/gcc-10.2.0/qchem-5.4-akfmr7b3t57bfs6qan3padb2wnb2i7cl/config/preferences:
 Processing $rem in /home/rramji/.qchemrc:
 Symmetry turned off for PCM/SM12/SMD calculation
 Core orbitals will be frozen

 Checking the input file for inconsistencies... 	...done.

 Q-Chem warning in module forms1/BasisType.C, line 2236:

 You are not using the predefined 5D/6D in this basis set.


--------------------------------------------------------------
User input:
--------------------------------------------------------------
$molecule
0 1
C	-0.166281	-6.741404	-0.195868
C	-1.005696	-6.155638	-1.196048
C	0.530233	-5.791452	0.634911
C	-1.184587	-4.803786	-1.409599
H	-1.570232	-6.821518	-1.868538
C	0.343266	-4.378638	0.410996
C	-0.511683	-3.838032	-0.608444
C	1.015440	-3.413062	1.211179
C	-0.697165	-2.426473	-0.830559
C	0.838968	-2.059348	0.999915
C	-0.000000	-1.478216	-0.000000
H	1.404302	-1.394783	1.673009
C	1.456059	-6.187987	1.741129
C	1.934944	-3.798164	2.307170
N	2.090139	-5.170003	2.494766
C	-2.106725	-4.424987	-2.508468
C	-1.624494	-2.036627	-1.936893
N	-2.258486	-3.049156	-2.690936
O	1.705414	-7.353131	2.042736
O	2.529122	-2.986854	3.013823
O	-2.693680	-5.248946	-3.206857
O	-1.888802	-0.878829	-2.254108
C	2.997334	-5.563799	3.577543
H	3.025519	-6.664085	3.612920
H	2.635109	-5.147101	4.536833
H	4.005702	-5.148785	3.387762
C	-3.152347	-2.587487	-3.756883
H	-3.566218	-3.483329	-4.248464
H	-2.590383	-1.964972	-4.478763
H	-3.959687	-1.962932	-3.329599
H	-0.046998	-7.822318	-0.053215
C	0.000000	0.000000	0.000000
S	0.137535	0.781156	1.580530
C	0.421895	2.393994	0.904911
C	0.173134	0.982857	-0.985400
C	0.402294	2.283058	-0.493528
H	0.132237	0.750786	-2.059934
H	0.555196	3.150621	-1.152593
H	0.574741	3.261310	1.556025
$end

$rem
JOBTYPE		SP
EXCHANGE	HF
CORRELATION	pRIMP2
BASIS		cc-pvtz
METHOD		rimp2
AUX_BASIS	rimp2-cc-pvtz
SOLVENT_METHOD	PCM
PURECART	11111
SYMMETRY	false
MEM_TOTAL	110000
SCF_CONVERGENCE = 6
THRESH=10
GUI = 2
$end



$solvent
dielectric 4.90
$end
--------------------------------------------------------------
 ----------------------------------------------------------------
             Standard Nuclear Orientation (Angstroms)
    I     Atom           X                Y                Z
 ----------------------------------------------------------------
    1      C      -0.1662810000    -6.7414040000    -0.1958680000
    2      C      -1.0056960000    -6.1556380000    -1.1960480000
    3      C       0.5302330000    -5.7914520000     0.6349110000
    4      C      -1.1845870000    -4.8037860000    -1.4095990000
    5      H      -1.5702320000    -6.8215180000    -1.8685380000
    6      C       0.3432660000    -4.3786380000     0.4109960000
    7      C      -0.5116830000    -3.8380320000    -0.6084440000
    8      C       1.0154400000    -3.4130620000     1.2111790000
    9      C      -0.6971650000    -2.4264730000    -0.8305590000
   10      C       0.8389680000    -2.0593480000     0.9999150000
   11      C       0.0000000000    -1.4782160000     0.0000000000
   12      H       1.4043020000    -1.3947830000     1.6730090000
   13      C       1.4560590000    -6.1879870000     1.7411290000
   14      C       1.9349440000    -3.7981640000     2.3071700000
   15      N       2.0901390000    -5.1700030000     2.4947660000
   16      C      -2.1067250000    -4.4249870000    -2.5084680000
   17      C      -1.6244940000    -2.0366270000    -1.9368930000
   18      N      -2.2584860000    -3.0491560000    -2.6909360000
   19      O       1.7054140000    -7.3531310000     2.0427360000
   20      O       2.5291220000    -2.9868540000     3.0138230000
   21      O      -2.6936800000    -5.2489460000    -3.2068570000
   22      O      -1.8888020000    -0.8788290000    -2.2541080000
   23      C       2.9973340000    -5.5637990000     3.5775430000
   24      H       3.0255190000    -6.6640850000     3.6129200000
   25      H       2.6351090000    -5.1471010000     4.5368330000
   26      H       4.0057020000    -5.1487850000     3.3877620000
   27      C      -3.1523470000    -2.5874870000    -3.7568830000
   28      H      -3.5662180000    -3.4833290000    -4.2484640000
   29      H      -2.5903830000    -1.9649720000    -4.4787630000
   30      H      -3.9596870000    -1.9629320000    -3.3295990000
   31      H      -0.0469980000    -7.8223180000    -0.0532150000
   32      C       0.0000000000     0.0000000000     0.0000000000
   33      S       0.1375350000     0.7811560000     1.5805300000
   34      C       0.4218950000     2.3939940000     0.9049110000
   35      C       0.1731340000     0.9828570000    -0.9854000000
   36      C       0.4022940000     2.2830580000    -0.4935280000
   37      H       0.1322370000     0.7507860000    -2.0599340000
   38      H       0.5551960000     3.1506210000    -1.1525930000
   39      H       0.5747410000     3.2613100000     1.5560250000
 ----------------------------------------------------------------
 Nuclear Repulsion Energy =        2493.20141883 hartrees
 There are       97 alpha and       97 beta electrons
 Requested basis set is cc-pVTZ
 There are 344 shells and 982 basis functions

 Total QAlloc Memory Limit 110000 MB
 Mega-Array Size       188 MB
 MEM_STATIC part       192 MB
 Discretize the solute cavity surface with Lebedev spheres
	Using 110 Lebedev grid points for each H atom
	Using 194 Lebedev grid points for other atoms
	Atomic van der Waals radii will be scaled by 1.20
 Remove points where switching function is < 1.0e-08
 Keep 2511 surface tesserae and discard 4047 interior tesserae
 Molecular Surface Area = 365.517 Angst**2
 Requested basis set is rimp2-cc-pVTZ
 There are 750 shells and 2588 basis functions
 A cutoff of  1.0D-10 yielded  31586 shell pairs
 There are    243496 function pairs (    316524 Cartesian)
 Smallest overlap matrix eigenvalue = 9.61E-06

 Q-Chem warning in module stvman/mkSTV.C, line 323:

 Overlap eigenvalue is smaller than square root of threshold
 Use THRESH >= 12 to get rid of this warning


 Scale SEOQF with 1.000000e-01/1.000000e-02/1.000000e-01

 Standard Electronic Orientation quadrupole field applied
 Nucleus-field energy     =    -0.0000000443 hartrees
 Guess from superposition of atomic densities
 Warning:  Energy on first SCF cycle will be non-variational
 SAD guess density has 194.000000 electrons

 -----------------------------------------------------------------------
  General SCF calculation program by
  Eric Jon Sundstrom, Paul Horn, Yuezhi Mao, Dmitri Zuev, Alec White,
  David Stuck, Shaama M.S., Shane Yost, Joonho Lee, David Small,
  Daniel Levine, Susi Lehtola, Hugh Burton, Evgeny Epifanovsky,
  Bang C. Huynh
 -----------------------------------------------------------------------
 Hartree-Fock
 using 64 threads for integral computing
 -------------------------------------------------------
 OpenMP Integral computing Module                
 Release: version 1.0, May 2013, Q-Chem Inc. Pittsburgh 
 -------------------------------------------------------
 A restricted SCF calculation will be
 performed using DIIS
 SCF converges when DIIS error is below 1.0e-06
 ---------------------------------------
  Cycle       Energy         DIIS error
 ---------------------------------------
    1   -1581.3167026882      1.87e-02  
    2   -1570.1192638719      2.09e-03  
    3   -1570.4468688250      1.63e-03  
    4   -1570.6767400710      2.57e-04  
    5   -1570.6888206424      7.63e-05  
    6   -1570.6898942415      2.81e-05  
    7   -1570.6901392343      1.42e-05  
    8   -1570.6902159680      5.88e-06  
    9   -1570.6902277582      2.25e-06  
   10   -1570.6902296690      7.11e-07  Convergence criterion met
 ---------------------------------------
 SCF time:   CPU 5406.37s  wall 220.00s 

************** Final PCM Free Energy Summary **************
 G_electrostatic  =      -0.02307456 hartree =     -14.47950440 kcal/mol
 G_cavitation     =       0.00000000 hartree =       0.00000000 kcal/mol
 G_dispersion     =       0.00000000 hartree =       0.00000000 kcal/mol
 G_repulsion      =       0.00000000 hartree =       0.00000000 kcal/mol
 --------------------------------------------------
 Non-electrostatic Free Energy =       0.00000000 hartree =       0.00000000 kcal/mol
 Total                         =      -0.02307456 hartree =     -14.47950440 kcal/mol
 --------------------------------------------------
 SCF Energy (H0 + V/2)                       =   -1570.69022967 
 Solute Internal Energy (H0)                 =   -1570.66715511 
 Total Free Energy (H0 + V/2 + non-elec)     =   -1570.69022967 hartree
                                             = -985622.99512444 kcal/mol
***********************************************************

 SCF   energy in the final basis set =    -1570.6902296690
 Total energy in the final basis set =    -1570.6902296690


 --------------------------------------------------------------
  Generalized many-body perturbation theory program
  by Joonho Lee, Fazle Rob, Xintian Feng, Evgeny Epifanovsky

 No regularization used 
 (reg. param. = 0.0000e+00)
  (P|Q)^-1/2 Time:  CPU 206.29 s  wall 3.82 s

 In RI-MP2 calculation: 
 # of frozen core orbitals: 31

 Components of the RIMP2 correlation energy:
        aaaa    correlation energy =        -0.6168136219 a.u.
        abab    correlation energy =        -3.3922288389 a.u.
        bbbb    correlation energy =        -0.6168136219 a.u.
        non-Brillouin singles      =        -0.0000000000 a.u.
        total same-spin energy     =        -1.2336272438 a.u.
        total opposite-spin energy =        -3.3922288389 a.u.

 Total  RIMP2   correlation energy =        -4.6258560828 a.u.
        RIMP2         total energy =     -1575.3160857517 a.u.

 RI-MP2 Energy Time:  CPU 1985.89 s  wall 33.67 s
 
 --------------------------------------------------------------
 
                    Orbital Energies (a.u.)
 --------------------------------------------------------------
 
 Alpha MOs
 -- Occupied --
-91.9935 -20.5586 -20.5564 -20.5553 -20.5544 -15.6313 -15.6304 -11.4001
-11.3959 -11.3920 -11.3907 -11.3179 -11.3026 -11.3025 -11.3005 -11.2973
-11.2966 -11.2925 -11.2868 -11.2868 -11.2851 -11.2800 -11.2775 -11.2646
-11.2645 -11.2584 -11.2512  -8.9930  -6.6738  -6.6734  -6.6728  -1.4249
 -1.4236  -1.4042  -1.4027  -1.2674  -1.2649  -1.2175  -1.1771  -1.1443
 -1.1171  -1.0638  -1.0498  -0.9928  -0.9903  -0.9857  -0.9589  -0.9478
 -0.8972  -0.8792  -0.8783  -0.8609  -0.7965  -0.7785  -0.7728  -0.7612
 -0.7370  -0.7173  -0.7052  -0.6950  -0.6808  -0.6733  -0.6663  -0.6621
 -0.6565  -0.6419  -0.6370  -0.6329  -0.6292  -0.6128  -0.5874  -0.5842
 -0.5791  -0.5733  -0.5660  -0.5635  -0.5611  -0.5555  -0.5524  -0.5480
 -0.5389  -0.5264  -0.5220  -0.5155  -0.4834  -0.4694  -0.4674  -0.4638
 -0.4600  -0.4532  -0.4283  -0.4183  -0.4092  -0.3698  -0.3542  -0.3365
 -0.3059
 -- Virtual --
 -0.0209   0.0575   0.0689   0.1021   0.1225   0.1532   0.1584   0.1590
  0.1659   0.1710   0.1806   0.1842   0.1944   0.1951   0.2035   0.2081
  0.2155   0.2267   0.2290   0.2312   0.2391   0.2428   0.2615   0.2621
  0.2643   0.3049   0.3112   0.3138   0.3192   0.3242   0.3333   0.3366
  0.3434   0.3449   0.3513   0.3560   0.3586   0.3626   0.3635   0.3759
  0.3779   0.3867   0.3919   0.3956   0.4004   0.4052   0.4070   0.4113
  0.4204   0.4268   0.4338   0.4392   0.4430   0.4464   0.4532   0.4570
  0.4593   0.4619   0.4692   0.4750   0.4784   0.4818   0.4868   0.4955
  0.4963   0.5083   0.5100   0.5128   0.5171   0.5210   0.5234   0.5289
  0.5324   0.5391   0.5450   0.5487   0.5521   0.5583   0.5602   0.5647
  0.5712   0.5718   0.5803   0.5857   0.5882   0.5900   0.5964   0.5984
  0.6023   0.6066   0.6119   0.6175   0.6195   0.6240   0.6291   0.6312
  0.6322   0.6336   0.6367   0.6399   0.6511   0.6530   0.6589   0.6675
  0.6738   0.6780   0.6941   0.6947   0.7031   0.7046   0.7085   0.7146
  0.7192   0.7354   0.7376   0.7401   0.7523   0.7583   0.7612   0.7643
  0.7756   0.7801   0.7846   0.7898   0.7932   0.8006   0.8119   0.8160
  0.8198   0.8280   0.8293   0.8409   0.8450   0.8481   0.8545   0.8569
  0.8633   0.8650   0.8685   0.8741   0.8793   0.8833   0.8930   0.9002
  0.9110   0.9143   0.9252   0.9255   0.9277   0.9325   0.9417   0.9443
  0.9487   0.9557   0.9613   0.9684   0.9743   0.9788   0.9806   0.9841
  0.9924   0.9994   1.0010   1.0085   1.0111   1.0165   1.0229   1.0274
  1.0354   1.0429   1.0450   1.0535   1.0577   1.0588   1.0680   1.0731
  1.0752   1.0796   1.0840   1.0872   1.0895   1.0928   1.1026   1.1108
  1.1249   1.1309   1.1347   1.1373   1.1436   1.1463   1.1508   1.1545
  1.1604   1.1671   1.1700   1.1777   1.1806   1.1861   1.1905   1.1931
  1.1986   1.2081   1.2118   1.2213   1.2261   1.2284   1.2342   1.2396
  1.2415   1.2534   1.2546   1.2577   1.2657   1.2718   1.2764   1.2884
  1.3040   1.3247   1.3289   1.3323   1.3426   1.3440   1.3535   1.3593
  1.3718   1.3728   1.3795   1.3827   1.3869   1.3923   1.3990   1.4121
  1.4168   1.4244   1.4319   1.4423   1.4491   1.4518   1.4576   1.4650
  1.4706   1.4800   1.4879   1.4890   1.4922   1.5002   1.5088   1.5199
  1.5306   1.5333   1.5362   1.5457   1.5502   1.5550   1.5565   1.5667
  1.5702   1.5725   1.5774   1.5865   1.5950   1.6062   1.6138   1.6323
  1.6387   1.6461   1.6525   1.6542   1.6671   1.6806   1.6846   1.6916
  1.6992   1.7080   1.7093   1.7236   1.7319   1.7367   1.7438   1.7480
  1.7499   1.7642   1.7699   1.7816   1.7881   1.8031   1.8069   1.8119
  1.8216   1.8332   1.8391   1.8500   1.8521   1.8540   1.8618   1.8642
  1.8727   1.8880   1.8930   1.9013   1.9111   1.9167   1.9307   1.9444
  1.9526   1.9631   1.9729   1.9796   1.9952   2.0097   2.0191   2.0264
  2.0411   2.0476   2.0564   2.0725   2.0821   2.1033   2.1247   2.1264
  2.1463   2.1597   2.1609   2.1792   2.1898   2.2097   2.2184   2.2193
  2.2379   2.2467   2.2489   2.2590   2.2780   2.2892   2.2936   2.2987
  2.3234   2.3255   2.3369   2.3432   2.3522   2.3616   2.3703   2.3765
  2.3929   2.4218   2.4284   2.4347   2.4458   2.4507   2.4567   2.4674
  2.4722   2.4859   2.4882   2.4989   2.5072   2.5148   2.5237   2.5337
  2.5466   2.5656   2.5780   2.5858   2.5864   2.5970   2.6056   2.6084
  2.6127   2.6175   2.6197   2.6383   2.6513   2.6620   2.6655   2.6702
  2.6774   2.6912   2.6947   2.6955   2.7064   2.7089   2.7152   2.7265
  2.7310   2.7399   2.7451   2.7484   2.7527   2.7707   2.7815   2.7913
  2.8050   2.8110   2.8188   2.8331   2.8354   2.8475   2.8543   2.8615
  2.8643   2.8694   2.8732   2.8800   2.8837   2.8935   2.8999   2.9086
  2.9113   2.9234   2.9290   2.9377   2.9454   2.9536   2.9546   2.9649
  2.9731   2.9789   2.9832   2.9926   3.0032   3.0072   3.0093   3.0157
  3.0227   3.0242   3.0376   3.0410   3.0495   3.0601   3.0698   3.0778
  3.0834   3.0887   3.0980   3.1000   3.1019   3.1076   3.1110   3.1217
  3.1258   3.1318   3.1426   3.1541   3.1565   3.1692   3.1702   3.1725
  3.1865   3.1945   3.1966   3.2056   3.2131   3.2174   3.2250   3.2258
  3.2288   3.2304   3.2362   3.2446   3.2475   3.2508   3.2535   3.2665
  3.2686   3.2705   3.2758   3.2868   3.2884   3.2906   3.2940   3.3015
  3.3082   3.3117   3.3184   3.3228   3.3298   3.3315   3.3330   3.3388
  3.3441   3.3487   3.3525   3.3576   3.3596   3.3627   3.3696   3.3707
  3.3787   3.3798   3.3852   3.3929   3.3988   3.4028   3.4079   3.4124
  3.4225   3.4258   3.4331   3.4374   3.4421   3.4485   3.4525   3.4587
  3.4608   3.4631   3.4681   3.4724   3.4762   3.4815   3.4835   3.4880
  3.4954   3.4997   3.5054   3.5078   3.5103   3.5150   3.5195   3.5220
  3.5303   3.5330   3.5400   3.5471   3.5538   3.5626   3.5672   3.5798
  3.5811   3.5875   3.5925   3.6049   3.6098   3.6187   3.6222   3.6278
  3.6311   3.6348   3.6426   3.6428   3.6511   3.6602   3.6658   3.6713
  3.6789   3.6905   3.6949   3.6976   3.7000   3.7091   3.7128   3.7166
  3.7315   3.7341   3.7344   3.7419   3.7458   3.7529   3.7591   3.7675
  3.7767   3.7822   3.7839   3.7900   3.7948   3.7980   3.8011   3.8054
  3.8083   3.8134   3.8294   3.8325   3.8423   3.8519   3.8565   3.8589
  3.8633   3.8750   3.8788   3.8803   3.8834   3.8973   3.9101   3.9158
  3.9215   3.9346   3.9363   3.9414   3.9544   3.9571   3.9676   3.9840
  3.9844   3.9978   4.0017   4.0065   4.0114   4.0213   4.0267   4.0493
  4.0517   4.0632   4.0742   4.0764   4.0876   4.0951   4.0975   4.1084
  4.1230   4.1286   4.1356   4.1374   4.1466   4.1553   4.1670   4.1730
  4.1787   4.1866   4.1918   4.2008   4.2091   4.2164   4.2270   4.2336
  4.2455   4.2510   4.2637   4.2719   4.2741   4.2811   4.2844   4.2894
  4.2969   4.2987   4.3004   4.3059   4.3154   4.3223   4.3259   4.3384
  4.3464   4.3484   4.3567   4.3656   4.3680   4.3731   4.3760   4.3835
  4.3905   4.3980   4.4035   4.4058   4.4138   4.4206   4.4270   4.4327
  4.4549   4.4629   4.4670   4.4867   4.4886   4.5004   4.5116   4.5156
  4.5211   4.5246   4.5340   4.5472   4.5503   4.5569   4.5643   4.5686
  4.5743   4.5816   4.5842   4.5952   4.6019   4.6117   4.6301   4.6354
  4.6396   4.6558   4.6605   4.6663   4.6701   4.6844   4.6898   4.6939
  4.7090   4.7258   4.7318   4.7382   4.7605   4.7668   4.7812   4.7907
  4.7990   4.8241   4.8336   4.8402   4.8449   4.8635   4.8724   4.8761
  4.8793   4.8923   4.9146   4.9264   4.9360   4.9528   4.9662   4.9839
  4.9864   5.0009   5.0157   5.0341   5.0400   5.0469   5.0507   5.0676
  5.0984   5.1052   5.1061   5.1164   5.1255   5.1277   5.1402   5.1440
  5.1618   5.1767   5.1827   5.1890   5.2067   5.2347   5.2473   5.2567
  5.2601   5.2766   5.2855   5.2954   5.3122   5.3239   5.3310   5.3360
  5.3549   5.3909   5.3955   5.4021   5.4197   5.4291   5.4312   5.4670
  5.4833   5.5056   5.5087   5.5124   5.5129   5.5291   5.5454   5.5556
  5.5580   5.5602   5.5711   5.5743   5.5776   5.5915   5.6022   5.6064
  5.6250   5.6336   5.6515   5.6526   5.6547   5.6768   5.6775   5.6896
  5.7010   5.7057   5.7195   5.7381   5.7534   5.7584   5.7596   5.7699
  5.7725   5.7763   5.8077   5.8215   5.8428   5.8749   5.8963   5.9149
  5.9437   5.9552   5.9943   6.0137   6.0217   6.0236   6.0305   6.0447
  6.0891   6.1004   6.1006   6.1162   6.1190   6.1771   6.1943   6.2088
  6.2174   6.2191   6.2209   6.2559   6.2660   6.2680   6.3034   6.3413
  6.3513   6.4013   6.4254   6.4437   6.4650   6.5242   6.5619   6.5692
  6.5855   6.5998   6.6433   6.6472   6.6592   6.6822   6.7047   6.8313
  6.8323   6.8796   6.8861   6.8952   6.9113   6.9269   6.9349   7.0781
  7.0976   7.1408   7.1840   7.1878   7.2286   7.3323   7.3414   7.3442
  7.3555   7.4667   7.5453   7.5572   7.5731   7.5774   7.5926   7.6338
  7.6743   7.6831   7.7227   8.3776   9.8730  10.3069  11.1341  11.2503
 11.6794  11.7244  11.9526  12.3623  12.4512  12.6548  12.8464  13.0122
 13.3143  13.5559  13.8122  13.9377  14.0168  14.1316  14.2443  14.3582
 14.4149  14.7329  15.3279  15.7275  15.9721
 --------------------------------------------------------------
 
          Ground-State Mulliken Net Atomic Charges

     Atom                 Charge (a.u.)
  ----------------------------------------
      1 C                    -0.137635
      2 C                    -0.108070
      3 C                    -0.038368
      4 C                    -0.004663
      5 H                     0.188717
      6 C                     0.000693
      7 C                     0.072422
      8 C                     0.018082
      9 C                    -0.039254
     10 C                    -0.158473
     11 C                     0.085701
     12 H                     0.182525
     13 C                     0.359938
     14 C                     0.364670
     15 N                    -0.101654
     16 C                     0.359759
     17 C                     0.349173
     18 N                    -0.094833
     19 O                    -0.464489
     20 O                    -0.475842
     21 O                    -0.481685
     22 O                    -0.464348
     23 C                    -0.201029
     24 H                     0.141049
     25 H                     0.112483
     26 H                     0.112430
     27 C                    -0.196545
     28 H                     0.133842
     29 H                     0.112107
     30 H                     0.113343
     31 H                     0.213649
     32 C                    -0.037969
     33 S                     0.021040
     34 C                    -0.190116
     35 C                    -0.127253
     36 C                    -0.219123
     37 H                     0.193588
     38 H                     0.191658
     39 H                     0.214478
  ----------------------------------------
  Sum of atomic charges =     0.000000

 -----------------------------------------------------------------
                    Cartesian Multipole Moments
 -----------------------------------------------------------------
    Charge (ESU x 10^10)
                 0.0000
    Dipole Moment (Debye)
         X       0.5220      Y       1.5460      Z      -0.8502
       Tot       1.8399
    Quadrupole Moments (Debye-Ang)
        XX    -172.2896     XY       2.1437     YY    -166.1041
        XZ     -10.0973     YZ       1.0787     ZZ    -169.5563
    Octopole Moments (Debye-Ang^2)
       XXX       8.4985    XXY     499.2150    XYY       6.8984
       YYY    1598.3519    XXZ      -1.6437    XYZ      42.1744
       YYZ      -1.0294    XZZ       8.0215    YZZ     527.9846
       ZZZ     -12.6738
    Hexadecapole Moments (Debye-Ang^3)
      XXXX   -2611.2879   XXXY      77.9891   XXYY   -3332.7370
      XYYY     478.8983   YYYY  -17164.7428   XXXZ   -1474.0835
      XXYZ     -42.0602   XYYZ    -764.4000   YYYZ     578.7735
      XXZZ   -1141.6597   XYZZ     -71.9065   YYZZ   -3610.5642
      XZZZ   -1499.4387   YZZZ      65.7125   ZZZZ   -3908.1892
 -----------------------------------------------------------------
 Total job time:  268.85s(wall), 8212.19s(cpu) 
 Fri Dec 15 16:03:00 2023

        *************************************************************
        *                                                           *
        *  Thank you very much for using Q-Chem.  Have a nice day.  *
        *                                                           *
        *************************************************************


0 sent ACK to 0 
now end server 0 ... 
cleanup process ... done
remove work dirs ./qchem488726.0 -- ./qchem488726.0
rm -rf ./qchem488726.0
rm -rf ./qchem488726
