You are running Q-Chem version: 5.4.0

#
# job setting
#
local host:  exp-2-40
current dir: /home/rramji/project-csd799/aromodel/pndit-qchem/rotation_run
input file:  Dimethyl_Naphthalene_Dicarboximide_Phi_25_Theta_50_Thiophene.qcin
output file: 
nprocs     : 1
nthreads   : 64
#
# qchem installation setting
#
QC:          /cm/shared/apps/spack/cpu/opt/spack/linux-centos8-zen2/gcc-10.2.0/qchem-5.4-akfmr7b3t57bfs6qan3padb2wnb2i7cl
QCAUX:       /cm/shared/apps/spack/cpu/opt/spack/linux-centos8-zen2/gcc-10.2.0/qchem-5.4-akfmr7b3t57bfs6qan3padb2wnb2i7cl/qcaux
QCPROG:      /cm/shared/apps/spack/cpu/opt/spack/linux-centos8-zen2/gcc-10.2.0/qchem-5.4-akfmr7b3t57bfs6qan3padb2wnb2i7cl/exe/qcprog.exe
QCPROG_S:    /cm/shared/apps/spack/cpu/opt/spack/linux-centos8-zen2/gcc-10.2.0/qchem-5.4-akfmr7b3t57bfs6qan3padb2wnb2i7cl/exe/qcprog.exe_s
PARALLEL:    -DPARALLEL
QCMPI:       mpich
#
# qchem directory setting
#
qcrun:       qchem728480
QCSCRATCH:   .
QCLOCALSCR:  
QCTMPDIR:    .
QCFILEPREF:  ./qchem728480
QCSAVEDIR:   
workdirs:    ./qchem728480
workdir0:    ./qchem728480
partmpdirs =  
#
# parallel setting
#
QCRSH:           ssh
QCMPI:           mpich
QCMPIRUN:        /cm/shared/apps/spack/cpu/opt/spack/linux-centos8-zen2/gcc-10.2.0/qchem-5.4-akfmr7b3t57bfs6qan3padb2wnb2i7cl/bin/mpi/mpirun_qchem
QCMACHINEFILE:   ./qchem728480/hostfile
exp-2-40

#
# env setting
#
exported envs:   QC QCAUX QCSCRATCH QCRUNNAME QCFILEPREF QCPROG QCPROG_S GUIFILE

Running Job 1 of 1 Dimethyl_Naphthalene_Dicarboximide_Phi_25_Theta_50_Thiophene.qcin
qchem Dimethyl_Naphthalene_Dicarboximide_Phi_25_Theta_50_Thiophene.qcin_728480.0 ./qchem728480/ 1
/cm/shared/apps/spack/cpu/opt/spack/linux-centos8-zen2/gcc-10.2.0/qchem-5.4-akfmr7b3t57bfs6qan3padb2wnb2i7cl/bin/mpi/mpirun_qchem -machinefile ./qchem728480/hostfile -np 1 /cm/shared/apps/spack/cpu/opt/spack/linux-centos8-zen2/gcc-10.2.0/qchem-5.4-akfmr7b3t57bfs6qan3padb2wnb2i7cl/exe/qcprog.exe Dimethyl_Naphthalene_Dicarboximide_Phi_25_Theta_50_Thiophene.qcin_728480.0 ./qchem728480/

Process 0 of 1 is on exp-2-40 - thread support 0
initial socket setup ...start
initial socket setup ...done 
now start server 0 ... 
                  Welcome to Q-Chem
     A Quantum Leap Into The Future Of Chemistry


 Q-Chem 5.4, Q-Chem, Inc., Pleasanton, CA (2021)

 License issued to: University of California, San Diego (site)

 E. Epifanovsky,  A. T. B. Gilbert,  Xintian Feng,  Joonho Lee,  Yuezhi Mao,  
 N. Mardirossian,  P. Pokhilko,  A. White,  M. Wormit,  M. P. Coons,  
 A. L. Dempwolff,  Zhengting Gan,  D. Hait,  P. R. Horn,  L. D. Jacobson,  
 I. Kaliman,  J. Kussmann,  A. W. Lange,  Ka Un Lao,  D. S. Levine,  Jie Liu,  
 S. C. McKenzie,  A. F. Morrison,  K. Nanda,  F. Plasser,  D. R. Rehn,  
 M. L. Vidal,  Zhi-Qiang You,  Ying Zhu,  B. Alam,  B. Albrecht,  
 A. Aldossary,  E. Alguire,  J. H. Andersen,  D. Barton,  K. Begam,  A. Behn,  
 Y. A. Bernard,  E. J. Berquist,  H. Burton,  A. Carreras,  K. Carter-Fenk,  
 R. Chakraborty,  A. D. Chien,  K. D. Closser,  V. Cofer-Shabica,  
 S. Dasgupta,  Jia Deng,  M. de Wergifosse,  M. Diedenhofen,  Hainam Do,  
 S. Ehlert,  Po-Tung Fang,  S. Fatehi,  Qingguo Feng,  J. Gayvert,  
 Qinghui Ge,  G. Gidofalvi,  M. Goldey,  J. Gomes,  C. Gonzalez-Espinoza,  
 S. Gulania,  A. Gunina,  M. W. D. Hanson-Heine,  P. H. P. Harbach,  
 A. W. Hauser,  M. F. Herbst,  M. Hernandez Vera,  M. Hodecker,  
 Z. C. Holden,  S. Houck,  Xunkun Huang,  Kerwin Hui,  B. C. Huynh,  
 M. Ivanov,  Hyunjun Ji,  Hanjie Jiang,  B. Kaduk,  S. Kaehler,  
 K. Khistyaev,  Jaehoon Kim,  P. Klunzinger,  Z. Koczor-Benda,  
 Joong Hoon Koh,  D. Kosenkov,  L. Koulias,  T. Kowalczyk,  C. M. Krauter,  
 K. Kue,  A. Kunitsa,  T. Kus,  A. Landau,  K. V. Lawler,  D. Lefrancois,  
 S. Lehtola,  Rain Li,  Yi-Pei Li,  Jiashu Liang,  M. Liebenthal,  
 Hung-Hsuan Lin,  You-Sheng Lin,  Fenglai Liu,  Kuan-Yu Liu,  
 M. Loipersberger,  A. Luenser,  A. Manjanath,  P. Manohar,  E. Mansoor,  
 S. F. Manzer,  Shan-Ping Mao,  A. V. Marenich,  T. Markovich,  S. Mason,  
 S. A. Maurer,  P. F. McLaughlin,  M. F. S. J. Menger,  J.-M. Mewes,  
 S. A. Mewes,  P. Morgante,  J. W. Mullinax,  T. S. Nguyen-Beck,  
 K. J. Oosterbaan,  G. Paran,  Alexander C. Paul,  Suranjan K. Paul,  
 F. Pavosevic,  Zheng Pei,  S. Prager,  E. I. Proynov,  E. Ramos,  B. Rana,  
 A. E. Rask,  A. Rettig,  R. M. Richard,  F. Rob,  E. Rossomme,  T. Scheele,  
 M. Scheurer,  M. Schneider,  N. Sergueev,  S. M. Sharada,  W. Skomorowski,  
 D. W. Small,  C. J. Stein,  Yu-Chuan Su,  E. J. Sundstrom,  Zhen Tao,  
 J. Thirman,  T. Tsuchimochi,  N. M. Tubman,  S. P. Veccham,  O. Vydrov,  
 J. Wenzel,  J. Witte,  A. Yamada,  Kun Yao,  S. Yeganeh,  S. R. Yost,  
 A. Zech,  Igor Ying Zhang,  Xing Zhang,  Yu Zhang,  D. Zuev,  
 A. Aspuru-Guzik,  A. T. Bell,  N. A. Besley,  K. B. Bravaya,  B. R. Brooks,  
 D. Casanova,  Jeng-Da Chai,  S. Coriani,  C. J. Cramer,  
 A. E. DePrince, III,  R. A. DiStasio Jr.,  A. Dreuw,  B. D. Dunietz,  
 T. R. Furlani,  W. A. Goddard III,  S. Grimme,  S. Hammes-Schiffer,  
 T. Head-Gordon,  W. J. Hehre,  Chao-Ping Hsu,  T.-C. Jagau,  Yousung Jung,  
 A. Klamt,  Jing Kong,  D. S. Lambrecht,  WanZhen Liang,  N. J. Mayhall,  
 C. W. McCurdy,  J. B. Neaton,  C. Ochsenfeld,  J. A. Parkhill,  R. Peverati,  
 V. A. Rassolov,  Yihan Shao,  L. V. Slipchenko,  T. Stauch,  R. P. Steele,  
 J. E. Subotnik,  A. J. W. Thom,  A. Tkatchenko,  D. G. Truhlar,  
 T. Van Voorhis,  T. A. Wesolowski,  K. B. Whaley,  H. L. Woodcock III,  
 P. M. Zimmerman,  S. Faraji,  P. M. W. Gill,  M. Head-Gordon,  
 J. M. Herbert,  A. I. Krylov

 Contributors to earlier versions of Q-Chem not listed above: 
 R. D. Adamson,  B. Austin,  R. Baer,  J. Baker,  G. J. O. Beran,  
 K. Brandhorst,  S. T. Brown,  E. F. C. Byrd,  A. K. Chakraborty,  
 G. K. L. Chan,  Chun-Min Chang,  Yunqing Chen,  C.-L. Cheng,  
 Siu Hung Chien,  D. M. Chipman,  D. L. Crittenden,  H. Dachsel,  
 R. J. Doerksen,  A. D. Dutoi,  R. G. Edgar,  J. Fosso-Tande,  
 L. Fusti-Molnar,  D. Ghosh,  A. Ghysels,  A. Golubeva-Zadorozhnaya,  
 J. Gonthier,  M. S. Gordon,  S. R. Gwaltney,  G. Hawkins,  J. E. Herr,  
 A. Heyden,  S. Hirata,  E. G. Hohenstein,  G. Kedziora,  F. J. Keil,  
 C. Kelley,  Jihan Kim,  R. A. King,  R. Z. Khaliullin,  P. P. Korambath,  
 W. Kurlancheek,  A. Laurent,  A. M. Lee,  M. S. Lee,  S. V. Levchenko,  
 Ching Yeh Lin,  D. Liotard,  E. Livshits,  R. C. Lochan,  I. Lotan,  
 L. A. Martinez-Martinez,  P. E. Maslen,  N. Nair,  D. P. O'Neill,  
 D. Neuhauser,  E. Neuscamman,  C. M. Oana,  R. Olivares-Amaya,  R. Olson,  
 T. M. Perrine,  B. Peters,  P. A. Pieniazek,  A. Prociuk,  Y. M. Rhee,  
 J. Ritchie,  M. A. Rohrdanz,  E. Rosta,  N. J. Russ,  H. F. Schaefer III,  
 M. W. Schmidt,  N. E. Schultz,  S. Sharma,  N. Shenvi,  C. D. Sherrill,  
 A. C. Simmonett,  A. Sodt,  T. Stein,  D. Stuck,  K. S. Thanthiriwatte,  
 V. Vanovschi,  L. Vogt,  Tao Wang,  A. Warshel,  M. A. Watson,  
 C. F. Williams,  Q. Wu,  X. Xu,  Jun Yang,  W. Zhang,  Yan Zhao

 Please cite Q-Chem as follows:
 Y. Shao et al., Mol. Phys. 113, 184-215 (2015)
 DOI: 10.1080/00268976.2014.952696

 Q-Chem 5.4.0 for Intel X86 EM64T Linux

 Parts of Q-Chem use Armadillo 9.800.1 (Horizon Scraper).
 http://arma.sourceforge.net/

 Q-Chem begins on Fri Dec 15 13:49:36 2023  

 Host: 
0

     Scratch files written to ./qchem728480//
 May1621 |scratch|qcdevops|jenkins|workspace|build_RNUM    
 Parallel job on  1  processors
 Processing $rem in /cm/shared/apps/spack/cpu/opt/spack/linux-centos8-zen2/gcc-10.2.0/qchem-5.4-akfmr7b3t57bfs6qan3padb2wnb2i7cl/config/preferences:
 Processing $rem in /home/rramji/.qchemrc:
 Symmetry turned off for PCM/SM12/SMD calculation
 Core orbitals will be frozen

 Checking the input file for inconsistencies... 	...done.

 Q-Chem warning in module forms1/BasisType.C, line 2236:

 You are not using the predefined 5D/6D in this basis set.


--------------------------------------------------------------
User input:
--------------------------------------------------------------
$molecule
0 1
C	0.195868	-6.741404	-0.166281
C	1.196048	-6.155638	-1.005696
C	-0.634911	-5.791452	0.530233
C	1.409599	-4.803786	-1.184587
H	1.868538	-6.821518	-1.570232
C	-0.410996	-4.378638	0.343266
C	0.608444	-3.838032	-0.511683
C	-1.211179	-3.413062	1.015440
C	0.830559	-2.426473	-0.697165
C	-0.999915	-2.059348	0.838968
C	-0.000000	-1.478216	-0.000000
H	-1.673009	-1.394783	1.404302
C	-1.741129	-6.187987	1.456059
C	-2.307170	-3.798164	1.934944
N	-2.494766	-5.170003	2.090139
C	2.508468	-4.424987	-2.106725
C	1.936893	-2.036627	-1.624494
N	2.690936	-3.049156	-2.258486
O	-2.042736	-7.353131	1.705414
O	-3.013823	-2.986854	2.529122
O	3.206857	-5.248946	-2.693680
O	2.254108	-0.878829	-1.888802
C	-3.577543	-5.563799	2.997334
H	-3.612920	-6.664085	3.025519
H	-4.536833	-5.147101	2.635109
H	-3.387762	-5.148785	4.005702
C	3.756883	-2.587487	-3.152347
H	4.248464	-3.483329	-3.566218
H	4.478763	-1.964972	-2.590383
H	3.329599	-1.962932	-3.959687
H	0.053215	-7.822318	-0.046998
C	0.000000	0.000000	0.000000
S	0.335026	0.718942	1.580530
C	1.027130	2.203226	0.904911
C	0.421617	0.904557	-0.985400
C	0.979485	2.101144	-0.493528
H	0.322049	0.690978	-2.059934
H	1.351718	2.899571	-1.152593
H	1.399246	3.001430	1.556025
$end

$rem
JOBTYPE		SP
EXCHANGE	HF
CORRELATION	pRIMP2
BASIS		cc-pvtz
METHOD		rimp2
AUX_BASIS	rimp2-cc-pvtz
SOLVENT_METHOD	PCM
PURECART	11111
SYMMETRY	false
MEM_TOTAL	110000
SCF_CONVERGENCE = 6
THRESH=10
GUI = 2
$end



$solvent
dielectric 4.90
$end
--------------------------------------------------------------
 ----------------------------------------------------------------
             Standard Nuclear Orientation (Angstroms)
    I     Atom           X                Y                Z
 ----------------------------------------------------------------
    1      C       0.1958680000    -6.7414040000    -0.1662810000
    2      C       1.1960480000    -6.1556380000    -1.0056960000
    3      C      -0.6349110000    -5.7914520000     0.5302330000
    4      C       1.4095990000    -4.8037860000    -1.1845870000
    5      H       1.8685380000    -6.8215180000    -1.5702320000
    6      C      -0.4109960000    -4.3786380000     0.3432660000
    7      C       0.6084440000    -3.8380320000    -0.5116830000
    8      C      -1.2111790000    -3.4130620000     1.0154400000
    9      C       0.8305590000    -2.4264730000    -0.6971650000
   10      C      -0.9999150000    -2.0593480000     0.8389680000
   11      C       0.0000000000    -1.4782160000     0.0000000000
   12      H      -1.6730090000    -1.3947830000     1.4043020000
   13      C      -1.7411290000    -6.1879870000     1.4560590000
   14      C      -2.3071700000    -3.7981640000     1.9349440000
   15      N      -2.4947660000    -5.1700030000     2.0901390000
   16      C       2.5084680000    -4.4249870000    -2.1067250000
   17      C       1.9368930000    -2.0366270000    -1.6244940000
   18      N       2.6909360000    -3.0491560000    -2.2584860000
   19      O      -2.0427360000    -7.3531310000     1.7054140000
   20      O      -3.0138230000    -2.9868540000     2.5291220000
   21      O       3.2068570000    -5.2489460000    -2.6936800000
   22      O       2.2541080000    -0.8788290000    -1.8888020000
   23      C      -3.5775430000    -5.5637990000     2.9973340000
   24      H      -3.6129200000    -6.6640850000     3.0255190000
   25      H      -4.5368330000    -5.1471010000     2.6351090000
   26      H      -3.3877620000    -5.1487850000     4.0057020000
   27      C       3.7568830000    -2.5874870000    -3.1523470000
   28      H       4.2484640000    -3.4833290000    -3.5662180000
   29      H       4.4787630000    -1.9649720000    -2.5903830000
   30      H       3.3295990000    -1.9629320000    -3.9596870000
   31      H       0.0532150000    -7.8223180000    -0.0469980000
   32      C       0.0000000000     0.0000000000     0.0000000000
   33      S       0.3350260000     0.7189420000     1.5805300000
   34      C       1.0271300000     2.2032260000     0.9049110000
   35      C       0.4216170000     0.9045570000    -0.9854000000
   36      C       0.9794850000     2.1011440000    -0.4935280000
   37      H       0.3220490000     0.6909780000    -2.0599340000
   38      H       1.3517180000     2.8995710000    -1.1525930000
   39      H       1.3992460000     3.0014300000     1.5560250000
 ----------------------------------------------------------------
 Nuclear Repulsion Energy =        2502.57346378 hartrees
 There are       97 alpha and       97 beta electrons
 Requested basis set is cc-pVTZ
 There are 344 shells and 982 basis functions

 Total QAlloc Memory Limit 110000 MB
 Mega-Array Size       188 MB
 MEM_STATIC part       192 MB
 Discretize the solute cavity surface with Lebedev spheres
	Using 110 Lebedev grid points for each H atom
	Using 194 Lebedev grid points for other atoms
	Atomic van der Waals radii will be scaled by 1.20
 Remove points where switching function is < 1.0e-08
 Keep 2515 surface tesserae and discard 4043 interior tesserae
 Molecular Surface Area = 364.701 Angst**2
 Requested basis set is rimp2-cc-pVTZ
 There are 750 shells and 2588 basis functions
 A cutoff of  1.0D-10 yielded  31891 shell pairs
 There are    245621 function pairs (    319250 Cartesian)
 Smallest overlap matrix eigenvalue = 9.71E-06

 Q-Chem warning in module stvman/mkSTV.C, line 323:

 Overlap eigenvalue is smaller than square root of threshold
 Use THRESH >= 12 to get rid of this warning


 Scale SEOQF with 1.000000e-01/1.000000e-02/1.000000e-01

 Standard Electronic Orientation quadrupole field applied
 Nucleus-field energy     =    -0.0000000126 hartrees
 Guess from superposition of atomic densities
 Warning:  Energy on first SCF cycle will be non-variational
 SAD guess density has 194.000000 electrons

 -----------------------------------------------------------------------
  General SCF calculation program by
  Eric Jon Sundstrom, Paul Horn, Yuezhi Mao, Dmitri Zuev, Alec White,
  David Stuck, Shaama M.S., Shane Yost, Joonho Lee, David Small,
  Daniel Levine, Susi Lehtola, Hugh Burton, Evgeny Epifanovsky,
  Bang C. Huynh
 -----------------------------------------------------------------------
 Hartree-Fock
 using 64 threads for integral computing
 -------------------------------------------------------
 OpenMP Integral computing Module                
 Release: version 1.0, May 2013, Q-Chem Inc. Pittsburgh 
 -------------------------------------------------------
 A restricted SCF calculation will be
 performed using DIIS
 SCF converges when DIIS error is below 1.0e-06
 ---------------------------------------
  Cycle       Energy         DIIS error
 ---------------------------------------
    1   -1581.3143012162      1.87e-02  
    2   -1570.1069160115      2.09e-03  
    3   -1570.4331609924      1.63e-03  
    4   -1570.6648400904      2.57e-04  
    5   -1570.6770231874      7.62e-05  
    6   -1570.6781160854      2.85e-05  
    7   -1570.6783742303      1.44e-05  
    8   -1570.6784568845      6.19e-06  
    9   -1570.6784702210      2.33e-06  
   10   -1570.6784725796      8.40e-07  Convergence criterion met
 ---------------------------------------
 SCF time:   CPU 5836.38s  wall 215.00s 

************** Final PCM Free Energy Summary **************
 G_electrostatic  =      -0.02277122 hartree =     -14.28915662 kcal/mol
 G_cavitation     =       0.00000000 hartree =       0.00000000 kcal/mol
 G_dispersion     =       0.00000000 hartree =       0.00000000 kcal/mol
 G_repulsion      =       0.00000000 hartree =       0.00000000 kcal/mol
 --------------------------------------------------
 Non-electrostatic Free Energy =       0.00000000 hartree =       0.00000000 kcal/mol
 Total                         =      -0.02277122 hartree =     -14.28915662 kcal/mol
 --------------------------------------------------
 SCF Energy (H0 + V/2)                       =   -1570.67847258 
 Solute Internal Energy (H0)                 =   -1570.65570136 
 Total Free Energy (H0 + V/2 + non-elec)     =   -1570.67847258 hartree
                                             = -985615.61743952 kcal/mol
***********************************************************

 SCF   energy in the final basis set =    -1570.6784725796
 Total energy in the final basis set =    -1570.6784725796


 --------------------------------------------------------------
  Generalized many-body perturbation theory program
  by Joonho Lee, Fazle Rob, Xintian Feng, Evgeny Epifanovsky

 No regularization used 
 (reg. param. = 0.0000e+00)
  (P|Q)^-1/2 Time:  CPU 110.80 s  wall 1.76 s

 In RI-MP2 calculation: 
 # of frozen core orbitals: 31

 Components of the RIMP2 correlation energy:
        aaaa    correlation energy =        -0.6170622285 a.u.
        abab    correlation energy =        -3.3935396907 a.u.
        bbbb    correlation energy =        -0.6170622285 a.u.
        non-Brillouin singles      =        -0.0000000000 a.u.
        total same-spin energy     =        -1.2341244570 a.u.
        total opposite-spin energy =        -3.3935396907 a.u.

 Total  RIMP2   correlation energy =        -4.6276641477 a.u.
        RIMP2         total energy =     -1575.3061367273 a.u.

 RI-MP2 Energy Time:  CPU 1895.19 s  wall 30.95 s
 
 --------------------------------------------------------------
 
                    Orbital Energies (a.u.)
 --------------------------------------------------------------
 
 Alpha MOs
 -- Occupied --
-91.9932 -20.5582 -20.5558 -20.5541 -20.5528 -15.6308 -15.6299 -11.3997
-11.3951 -11.3916 -11.3900 -11.3158 -11.3020 -11.3010 -11.2996 -11.2962
-11.2958 -11.2905 -11.2856 -11.2844 -11.2814 -11.2794 -11.2761 -11.2645
-11.2642 -11.2602 -11.2502  -8.9926  -6.6734  -6.6729  -6.6723  -1.4245
 -1.4231  -1.4038  -1.4022  -1.2669  -1.2645  -1.2164  -1.1760  -1.1435
 -1.1161  -1.0622  -1.0487  -0.9923  -0.9892  -0.9852  -0.9586  -0.9478
 -0.8960  -0.8788  -0.8759  -0.8607  -0.7947  -0.7765  -0.7723  -0.7610
 -0.7363  -0.7179  -0.7045  -0.6939  -0.6803  -0.6720  -0.6658  -0.6617
 -0.6559  -0.6415  -0.6364  -0.6331  -0.6282  -0.6120  -0.5865  -0.5839
 -0.5769  -0.5751  -0.5650  -0.5624  -0.5600  -0.5550  -0.5513  -0.5480
 -0.5356  -0.5251  -0.5210  -0.5166  -0.4825  -0.4706  -0.4646  -0.4616
 -0.4588  -0.4526  -0.4276  -0.4178  -0.4083  -0.3670  -0.3496  -0.3355
 -0.3072
 -- Virtual --
 -0.0187   0.0601   0.0700   0.0960   0.1166   0.1521   0.1578   0.1596
  0.1661   0.1717   0.1790   0.1839   0.1861   0.1951   0.2023   0.2079
  0.2162   0.2272   0.2290   0.2310   0.2399   0.2422   0.2600   0.2628
  0.2657   0.3105   0.3123   0.3131   0.3156   0.3243   0.3249   0.3375
  0.3450   0.3461   0.3518   0.3562   0.3587   0.3638   0.3699   0.3748
  0.3766   0.3843   0.3911   0.3980   0.4015   0.4035   0.4073   0.4103
  0.4173   0.4260   0.4330   0.4396   0.4428   0.4454   0.4501   0.4550
  0.4574   0.4591   0.4651   0.4757   0.4798   0.4804   0.4908   0.4973
  0.4990   0.5027   0.5096   0.5149   0.5175   0.5234   0.5264   0.5288
  0.5332   0.5419   0.5442   0.5456   0.5494   0.5560   0.5585   0.5661
  0.5704   0.5739   0.5776   0.5840   0.5929   0.5943   0.5967   0.6004
  0.6032   0.6128   0.6157   0.6166   0.6191   0.6240   0.6274   0.6328
  0.6335   0.6349   0.6390   0.6420   0.6457   0.6519   0.6551   0.6655
  0.6729   0.6791   0.6924   0.6970   0.6995   0.7080   0.7141   0.7174
  0.7306   0.7355   0.7373   0.7435   0.7535   0.7578   0.7596   0.7670
  0.7711   0.7724   0.7847   0.7879   0.7979   0.8002   0.8045   0.8134
  0.8176   0.8225   0.8335   0.8368   0.8434   0.8486   0.8574   0.8629
  0.8663   0.8691   0.8734   0.8746   0.8792   0.8912   0.8942   0.9089
  0.9108   0.9169   0.9213   0.9270   0.9306   0.9342   0.9347   0.9454
  0.9479   0.9618   0.9638   0.9698   0.9721   0.9792   0.9807   0.9883
  0.9895   0.9966   1.0013   1.0055   1.0098   1.0122   1.0199   1.0252
  1.0340   1.0414   1.0480   1.0547   1.0590   1.0678   1.0719   1.0746
  1.0797   1.0816   1.0875   1.0893   1.0947   1.0996   1.1047   1.1182
  1.1286   1.1299   1.1335   1.1412   1.1454   1.1479   1.1560   1.1572
  1.1657   1.1728   1.1764   1.1804   1.1882   1.1932   1.1942   1.1998
  1.2032   1.2109   1.2211   1.2244   1.2266   1.2315   1.2331   1.2402
  1.2473   1.2498   1.2541   1.2572   1.2680   1.2827   1.2966   1.3171
  1.3185   1.3255   1.3394   1.3416   1.3435   1.3464   1.3481   1.3543
  1.3624   1.3759   1.3822   1.3840   1.3899   1.3958   1.4046   1.4127
  1.4214   1.4265   1.4336   1.4435   1.4478   1.4537   1.4593   1.4622
  1.4771   1.4860   1.4877   1.4930   1.5035   1.5085   1.5139   1.5157
  1.5235   1.5334   1.5400   1.5452   1.5485   1.5545   1.5565   1.5642
  1.5673   1.5692   1.5756   1.5882   1.5992   1.6068   1.6215   1.6338
  1.6413   1.6480   1.6504   1.6566   1.6683   1.6783   1.6799   1.6860
  1.7002   1.7028   1.7143   1.7174   1.7320   1.7381   1.7459   1.7494
  1.7553   1.7594   1.7679   1.7898   1.7903   1.7972   1.8055   1.8091
  1.8177   1.8360   1.8370   1.8489   1.8561   1.8599   1.8651   1.8684
  1.8733   1.8849   1.8999   1.9149   1.9189   1.9247   1.9381   1.9513
  1.9611   1.9688   1.9731   1.9846   1.9917   1.9938   2.0174   2.0184
  2.0470   2.0556   2.0606   2.0807   2.0928   2.1086   2.1146   2.1296
  2.1404   2.1541   2.1588   2.1633   2.1847   2.1942   2.2177   2.2200
  2.2358   2.2406   2.2538   2.2575   2.2810   2.2908   2.2965   2.3012
  2.3100   2.3195   2.3339   2.3374   2.3573   2.3622   2.3739   2.3810
  2.3858   2.4219   2.4243   2.4395   2.4500   2.4532   2.4579   2.4632
  2.4723   2.4862   2.4964   2.5001   2.5097   2.5146   2.5265   2.5385
  2.5614   2.5669   2.5785   2.5824   2.5926   2.6003   2.6064   2.6134
  2.6165   2.6200   2.6289   2.6425   2.6537   2.6594   2.6663   2.6690
  2.6809   2.6893   2.6930   2.7054   2.7112   2.7175   2.7244   2.7263
  2.7304   2.7465   2.7536   2.7592   2.7597   2.7711   2.7827   2.7900
  2.8041   2.8179   2.8321   2.8341   2.8394   2.8402   2.8585   2.8659
  2.8670   2.8735   2.8758   2.8834   2.8876   2.8964   2.9033   2.9127
  2.9157   2.9231   2.9320   2.9385   2.9513   2.9542   2.9654   2.9676
  2.9752   2.9766   2.9873   2.9953   3.0025   3.0076   3.0150   3.0227
  3.0258   3.0306   3.0387   3.0415   3.0523   3.0547   3.0699   3.0756
  3.0867   3.0916   3.0994   3.0999   3.1039   3.1106   3.1118   3.1215
  3.1272   3.1286   3.1364   3.1534   3.1580   3.1702   3.1748   3.1761
  3.1862   3.1919   3.2009   3.2049   3.2103   3.2133   3.2164   3.2230
  3.2248   3.2304   3.2351   3.2460   3.2515   3.2533   3.2602   3.2648
  3.2685   3.2724   3.2788   3.2863   3.2881   3.2898   3.2911   3.2995
  3.3073   3.3109   3.3167   3.3253   3.3293   3.3302   3.3358   3.3420
  3.3450   3.3464   3.3494   3.3538   3.3606   3.3651   3.3692   3.3708
  3.3778   3.3812   3.3877   3.3950   3.4010   3.4055   3.4113   3.4197
  3.4237   3.4257   3.4338   3.4359   3.4438   3.4504   3.4529   3.4555
  3.4606   3.4636   3.4688   3.4796   3.4821   3.4880   3.4912   3.4920
  3.4957   3.4978   3.5067   3.5098   3.5156   3.5196   3.5222   3.5272
  3.5389   3.5474   3.5499   3.5566   3.5605   3.5721   3.5831   3.5844
  3.5875   3.5963   3.6065   3.6093   3.6108   3.6231   3.6269   3.6296
  3.6331   3.6392   3.6422   3.6519   3.6545   3.6588   3.6677   3.6767
  3.6866   3.6927   3.6936   3.7002   3.7069   3.7121   3.7164   3.7281
  3.7315   3.7349   3.7385   3.7481   3.7537   3.7578   3.7635   3.7674
  3.7781   3.7810   3.7852   3.7887   3.7962   3.7977   3.8018   3.8077
  3.8113   3.8172   3.8244   3.8335   3.8456   3.8517   3.8547   3.8607
  3.8688   3.8807   3.8831   3.8843   3.8876   3.8948   3.9023   3.9136
  3.9288   3.9343   3.9377   3.9422   3.9536   3.9590   3.9664   3.9805
  3.9842   3.9918   4.0044   4.0067   4.0130   4.0243   4.0291   4.0391
  4.0519   4.0651   4.0743   4.0749   4.0850   4.0888   4.1012   4.1125
  4.1220   4.1303   4.1307   4.1354   4.1410   4.1528   4.1616   4.1749
  4.1795   4.1868   4.1916   4.2003   4.2061   4.2153   4.2228   4.2373
  4.2465   4.2566   4.2649   4.2730   4.2803   4.2833   4.2866   4.2956
  4.2974   4.3013   4.3077   4.3150   4.3202   4.3208   4.3322   4.3377
  4.3449   4.3523   4.3584   4.3660   4.3680   4.3717   4.3765   4.3887
  4.3908   4.4016   4.4053   4.4079   4.4117   4.4206   4.4231   4.4524
  4.4587   4.4608   4.4666   4.4754   4.4930   4.4988   4.5132   4.5176
  4.5193   4.5231   4.5300   4.5436   4.5523   4.5618   4.5649   4.5673
  4.5710   4.5751   4.5823   4.5879   4.6034   4.6115   4.6286   4.6386
  4.6485   4.6555   4.6627   4.6699   4.6776   4.6861   4.6937   4.7022
  4.7106   4.7222   4.7261   4.7469   4.7491   4.7634   4.7714   4.7896
  4.8071   4.8194   4.8260   4.8409   4.8478   4.8623   4.8701   4.8764
  4.8836   4.9020   4.9139   4.9185   4.9381   4.9537   4.9632   4.9736
  4.9885   5.0020   5.0221   5.0403   5.0434   5.0469   5.0514   5.0532
  5.0925   5.1048   5.1052   5.1131   5.1249   5.1301   5.1457   5.1480
  5.1652   5.1672   5.1816   5.1931   5.2079   5.2305   5.2431   5.2571
  5.2611   5.2788   5.2827   5.2955   5.3047   5.3234   5.3312   5.3385
  5.3602   5.3929   5.3959   5.4033   5.4090   5.4234   5.4316   5.4658
  5.4875   5.5054   5.5091   5.5107   5.5132   5.5330   5.5463   5.5510
  5.5566   5.5594   5.5607   5.5746   5.5781   5.5901   5.6010   5.6058
  5.6167   5.6369   5.6528   5.6553   5.6582   5.6771   5.6785   5.6928
  5.6995   5.7035   5.7141   5.7407   5.7530   5.7589   5.7636   5.7723
  5.7752   5.7780   5.8105   5.8240   5.8380   5.8672   5.8866   5.9139
  5.9443   5.9554   5.9936   6.0189   6.0227   6.0243   6.0320   6.0437
  6.0889   6.1007   6.1016   6.1168   6.1227   6.1683   6.1915   6.2098
  6.2178   6.2192   6.2215   6.2588   6.2676   6.2714   6.3023   6.3420
  6.3513   6.4035   6.4098   6.4470   6.4669   6.5252   6.5625   6.5706
  6.5867   6.6024   6.6431   6.6482   6.6601   6.6856   6.7051   6.8321
  6.8356   6.8821   6.8864   6.8964   6.9118   6.9283   6.9531   7.0788
  7.1072   7.1396   7.1877   7.1908   7.2310   7.3327   7.3419   7.3448
  7.3574   7.4680   7.5474   7.5584   7.5735   7.5785   7.6035   7.6341
  7.6751   7.6900   7.7274   8.3765   9.9562  10.3066  11.1260  11.2527
 11.6758  11.7357  11.9855  12.3702  12.4362  12.5868  12.8474  13.0934
 13.2571  13.5764  13.8146  13.9465  14.0042  14.1572  14.3255  14.3738
 14.4197  14.7409  15.3332  15.7168  15.9838
 --------------------------------------------------------------
 
          Ground-State Mulliken Net Atomic Charges

     Atom                 Charge (a.u.)
  ----------------------------------------
      1 C                    -0.139618
      2 C                    -0.107875
      3 C                    -0.039093
      4 C                    -0.005345
      5 H                     0.188174
      6 C                    -0.014125
      7 C                     0.081830
      8 C                     0.025238
      9 C                    -0.030140
     10 C                    -0.186953
     11 C                     0.118666
     12 H                     0.180120
     13 C                     0.361133
     14 C                     0.365753
     15 N                    -0.101236
     16 C                     0.359500
     17 C                     0.373105
     18 N                    -0.093596
     19 O                    -0.464783
     20 O                    -0.476076
     21 O                    -0.482031
     22 O                    -0.467205
     23 C                    -0.201081
     24 H                     0.140950
     25 H                     0.112278
     26 H                     0.112408
     27 C                    -0.196815
     28 H                     0.133954
     29 H                     0.113099
     30 H                     0.111669
     31 H                     0.213301
     32 C                    -0.095287
     33 S                     0.038236
     34 C                    -0.193795
     35 C                    -0.127858
     36 C                    -0.198492
     37 H                     0.187152
     38 H                     0.190279
     39 H                     0.214558
  ----------------------------------------
  Sum of atomic charges =     0.000000

 -----------------------------------------------------------------
                    Cartesian Multipole Moments
 -----------------------------------------------------------------
    Charge (ESU x 10^10)
                 0.0000
    Dipole Moment (Debye)
         X       1.1077      Y       1.7814      Z      -1.0652
       Tot       2.3526
    Quadrupole Moments (Debye-Ang)
        XX    -174.2356     XY       4.4858     YY    -168.8853
        XZ      10.6307     YZ       0.8884     ZZ    -165.9974
    Octopole Moments (Debye-Ang^2)
       XXX    -101.9932    XXY     525.6698    XYY     -12.8285
       YYY    1608.8512    XXZ      -1.8982    XYZ     -38.3036
       YYZ      -2.0682    XZZ     -30.2482    YZZ     517.2775
       ZZZ     -20.7562
    Hexadecapole Moments (Debye-Ang^3)
      XXXX   -3741.7505   XXXY    -208.3441   XXYY   -3587.0284
      XYYY    -658.1721   YYYY  -17177.7184   XXXZ    1473.9518
      XXYZ     -75.0771   XYYZ     772.1727   YYYZ     470.3866
      XXZZ   -1150.8688   XYZZ       8.0555   YYZZ   -3334.5692
      XZZZ    1449.1977   YZZZ      87.3761   ZZZZ   -2865.3880
 -----------------------------------------------------------------
 Total job time:  249.33s(wall), 7825.24s(cpu) 
 Fri Dec 15 13:53:46 2023

        *************************************************************
        *                                                           *
        *  Thank you very much for using Q-Chem.  Have a nice day.  *
        *                                                           *
        *************************************************************


0 sent ACK to 0 
now end server 0 ... 
cleanup process ... done
remove work dirs ./qchem728480.0 -- ./qchem728480.0
rm -rf ./qchem728480.0
rm -rf ./qchem728480
