You are running Q-Chem version: 5.4.0

#
# job setting
#
local host:  exp-1-19
current dir: /home/rramji/project-csd799/aromodel/pndit-qchem/rotation_run
input file:  Dimethyl_Naphthalene_Dicarboximide_Phi_10_Theta_230_Thiophene.qcin
output file: 
nprocs     : 1
nthreads   : 64
#
# qchem installation setting
#
QC:          /cm/shared/apps/spack/cpu/opt/spack/linux-centos8-zen2/gcc-10.2.0/qchem-5.4-akfmr7b3t57bfs6qan3padb2wnb2i7cl
QCAUX:       /cm/shared/apps/spack/cpu/opt/spack/linux-centos8-zen2/gcc-10.2.0/qchem-5.4-akfmr7b3t57bfs6qan3padb2wnb2i7cl/qcaux
QCPROG:      /cm/shared/apps/spack/cpu/opt/spack/linux-centos8-zen2/gcc-10.2.0/qchem-5.4-akfmr7b3t57bfs6qan3padb2wnb2i7cl/exe/qcprog.exe
QCPROG_S:    /cm/shared/apps/spack/cpu/opt/spack/linux-centos8-zen2/gcc-10.2.0/qchem-5.4-akfmr7b3t57bfs6qan3padb2wnb2i7cl/exe/qcprog.exe_s
PARALLEL:    -DPARALLEL
QCMPI:       mpich
#
# qchem directory setting
#
qcrun:       qchem428984
QCSCRATCH:   .
QCLOCALSCR:  
QCTMPDIR:    .
QCFILEPREF:  ./qchem428984
QCSAVEDIR:   
workdirs:    ./qchem428984
workdir0:    ./qchem428984
partmpdirs =  
#
# parallel setting
#
QCRSH:           ssh
QCMPI:           mpich
QCMPIRUN:        /cm/shared/apps/spack/cpu/opt/spack/linux-centos8-zen2/gcc-10.2.0/qchem-5.4-akfmr7b3t57bfs6qan3padb2wnb2i7cl/bin/mpi/mpirun_qchem
QCMACHINEFILE:   ./qchem428984/hostfile
exp-1-19

#
# env setting
#
exported envs:   QC QCAUX QCSCRATCH QCRUNNAME QCFILEPREF QCPROG QCPROG_S GUIFILE

Running Job 1 of 1 Dimethyl_Naphthalene_Dicarboximide_Phi_10_Theta_230_Thiophene.qcin
qchem Dimethyl_Naphthalene_Dicarboximide_Phi_10_Theta_230_Thiophene.qcin_428984.0 ./qchem428984/ 1
/cm/shared/apps/spack/cpu/opt/spack/linux-centos8-zen2/gcc-10.2.0/qchem-5.4-akfmr7b3t57bfs6qan3padb2wnb2i7cl/bin/mpi/mpirun_qchem -machinefile ./qchem428984/hostfile -np 1 /cm/shared/apps/spack/cpu/opt/spack/linux-centos8-zen2/gcc-10.2.0/qchem-5.4-akfmr7b3t57bfs6qan3padb2wnb2i7cl/exe/qcprog.exe Dimethyl_Naphthalene_Dicarboximide_Phi_10_Theta_230_Thiophene.qcin_428984.0 ./qchem428984/

Process 0 of 1 is on exp-1-19 - thread support 0
initial socket setup ...start
initial socket setup ...done 
now start server 0 ... 
                  Welcome to Q-Chem
     A Quantum Leap Into The Future Of Chemistry


 Q-Chem 5.4, Q-Chem, Inc., Pleasanton, CA (2021)

 License issued to: University of California, San Diego (site)

 E. Epifanovsky,  A. T. B. Gilbert,  Xintian Feng,  Joonho Lee,  Yuezhi Mao,  
 N. Mardirossian,  P. Pokhilko,  A. White,  M. Wormit,  M. P. Coons,  
 A. L. Dempwolff,  Zhengting Gan,  D. Hait,  P. R. Horn,  L. D. Jacobson,  
 I. Kaliman,  J. Kussmann,  A. W. Lange,  Ka Un Lao,  D. S. Levine,  Jie Liu,  
 S. C. McKenzie,  A. F. Morrison,  K. Nanda,  F. Plasser,  D. R. Rehn,  
 M. L. Vidal,  Zhi-Qiang You,  Ying Zhu,  B. Alam,  B. Albrecht,  
 A. Aldossary,  E. Alguire,  J. H. Andersen,  D. Barton,  K. Begam,  A. Behn,  
 Y. A. Bernard,  E. J. Berquist,  H. Burton,  A. Carreras,  K. Carter-Fenk,  
 R. Chakraborty,  A. D. Chien,  K. D. Closser,  V. Cofer-Shabica,  
 S. Dasgupta,  Jia Deng,  M. de Wergifosse,  M. Diedenhofen,  Hainam Do,  
 S. Ehlert,  Po-Tung Fang,  S. Fatehi,  Qingguo Feng,  J. Gayvert,  
 Qinghui Ge,  G. Gidofalvi,  M. Goldey,  J. Gomes,  C. Gonzalez-Espinoza,  
 S. Gulania,  A. Gunina,  M. W. D. Hanson-Heine,  P. H. P. Harbach,  
 A. W. Hauser,  M. F. Herbst,  M. Hernandez Vera,  M. Hodecker,  
 Z. C. Holden,  S. Houck,  Xunkun Huang,  Kerwin Hui,  B. C. Huynh,  
 M. Ivanov,  Hyunjun Ji,  Hanjie Jiang,  B. Kaduk,  S. Kaehler,  
 K. Khistyaev,  Jaehoon Kim,  P. Klunzinger,  Z. Koczor-Benda,  
 Joong Hoon Koh,  D. Kosenkov,  L. Koulias,  T. Kowalczyk,  C. M. Krauter,  
 K. Kue,  A. Kunitsa,  T. Kus,  A. Landau,  K. V. Lawler,  D. Lefrancois,  
 S. Lehtola,  Rain Li,  Yi-Pei Li,  Jiashu Liang,  M. Liebenthal,  
 Hung-Hsuan Lin,  You-Sheng Lin,  Fenglai Liu,  Kuan-Yu Liu,  
 M. Loipersberger,  A. Luenser,  A. Manjanath,  P. Manohar,  E. Mansoor,  
 S. F. Manzer,  Shan-Ping Mao,  A. V. Marenich,  T. Markovich,  S. Mason,  
 S. A. Maurer,  P. F. McLaughlin,  M. F. S. J. Menger,  J.-M. Mewes,  
 S. A. Mewes,  P. Morgante,  J. W. Mullinax,  T. S. Nguyen-Beck,  
 K. J. Oosterbaan,  G. Paran,  Alexander C. Paul,  Suranjan K. Paul,  
 F. Pavosevic,  Zheng Pei,  S. Prager,  E. I. Proynov,  E. Ramos,  B. Rana,  
 A. E. Rask,  A. Rettig,  R. M. Richard,  F. Rob,  E. Rossomme,  T. Scheele,  
 M. Scheurer,  M. Schneider,  N. Sergueev,  S. M. Sharada,  W. Skomorowski,  
 D. W. Small,  C. J. Stein,  Yu-Chuan Su,  E. J. Sundstrom,  Zhen Tao,  
 J. Thirman,  T. Tsuchimochi,  N. M. Tubman,  S. P. Veccham,  O. Vydrov,  
 J. Wenzel,  J. Witte,  A. Yamada,  Kun Yao,  S. Yeganeh,  S. R. Yost,  
 A. Zech,  Igor Ying Zhang,  Xing Zhang,  Yu Zhang,  D. Zuev,  
 A. Aspuru-Guzik,  A. T. Bell,  N. A. Besley,  K. B. Bravaya,  B. R. Brooks,  
 D. Casanova,  Jeng-Da Chai,  S. Coriani,  C. J. Cramer,  
 A. E. DePrince, III,  R. A. DiStasio Jr.,  A. Dreuw,  B. D. Dunietz,  
 T. R. Furlani,  W. A. Goddard III,  S. Grimme,  S. Hammes-Schiffer,  
 T. Head-Gordon,  W. J. Hehre,  Chao-Ping Hsu,  T.-C. Jagau,  Yousung Jung,  
 A. Klamt,  Jing Kong,  D. S. Lambrecht,  WanZhen Liang,  N. J. Mayhall,  
 C. W. McCurdy,  J. B. Neaton,  C. Ochsenfeld,  J. A. Parkhill,  R. Peverati,  
 V. A. Rassolov,  Yihan Shao,  L. V. Slipchenko,  T. Stauch,  R. P. Steele,  
 J. E. Subotnik,  A. J. W. Thom,  A. Tkatchenko,  D. G. Truhlar,  
 T. Van Voorhis,  T. A. Wesolowski,  K. B. Whaley,  H. L. Woodcock III,  
 P. M. Zimmerman,  S. Faraji,  P. M. W. Gill,  M. Head-Gordon,  
 J. M. Herbert,  A. I. Krylov

 Contributors to earlier versions of Q-Chem not listed above: 
 R. D. Adamson,  B. Austin,  R. Baer,  J. Baker,  G. J. O. Beran,  
 K. Brandhorst,  S. T. Brown,  E. F. C. Byrd,  A. K. Chakraborty,  
 G. K. L. Chan,  Chun-Min Chang,  Yunqing Chen,  C.-L. Cheng,  
 Siu Hung Chien,  D. M. Chipman,  D. L. Crittenden,  H. Dachsel,  
 R. J. Doerksen,  A. D. Dutoi,  R. G. Edgar,  J. Fosso-Tande,  
 L. Fusti-Molnar,  D. Ghosh,  A. Ghysels,  A. Golubeva-Zadorozhnaya,  
 J. Gonthier,  M. S. Gordon,  S. R. Gwaltney,  G. Hawkins,  J. E. Herr,  
 A. Heyden,  S. Hirata,  E. G. Hohenstein,  G. Kedziora,  F. J. Keil,  
 C. Kelley,  Jihan Kim,  R. A. King,  R. Z. Khaliullin,  P. P. Korambath,  
 W. Kurlancheek,  A. Laurent,  A. M. Lee,  M. S. Lee,  S. V. Levchenko,  
 Ching Yeh Lin,  D. Liotard,  E. Livshits,  R. C. Lochan,  I. Lotan,  
 L. A. Martinez-Martinez,  P. E. Maslen,  N. Nair,  D. P. O'Neill,  
 D. Neuhauser,  E. Neuscamman,  C. M. Oana,  R. Olivares-Amaya,  R. Olson,  
 T. M. Perrine,  B. Peters,  P. A. Pieniazek,  A. Prociuk,  Y. M. Rhee,  
 J. Ritchie,  M. A. Rohrdanz,  E. Rosta,  N. J. Russ,  H. F. Schaefer III,  
 M. W. Schmidt,  N. E. Schultz,  S. Sharma,  N. Shenvi,  C. D. Sherrill,  
 A. C. Simmonett,  A. Sodt,  T. Stein,  D. Stuck,  K. S. Thanthiriwatte,  
 V. Vanovschi,  L. Vogt,  Tao Wang,  A. Warshel,  M. A. Watson,  
 C. F. Williams,  Q. Wu,  X. Xu,  Jun Yang,  W. Zhang,  Yan Zhao

 Please cite Q-Chem as follows:
 Y. Shao et al., Mol. Phys. 113, 184-215 (2015)
 DOI: 10.1080/00268976.2014.952696

 Q-Chem 5.4.0 for Intel X86 EM64T Linux

 Parts of Q-Chem use Armadillo 9.800.1 (Horizon Scraper).
 http://arma.sourceforge.net/

 Q-Chem begins on Fri Dec 15 15:13:46 2023  

 Host: 
0

     Scratch files written to ./qchem428984//
 May1621 |scratch|qcdevops|jenkins|workspace|build_RNUM    
 Parallel job on  1  processors
 Processing $rem in /cm/shared/apps/spack/cpu/opt/spack/linux-centos8-zen2/gcc-10.2.0/qchem-5.4-akfmr7b3t57bfs6qan3padb2wnb2i7cl/config/preferences:
 Processing $rem in /home/rramji/.qchemrc:
 Symmetry turned off for PCM/SM12/SMD calculation
 Core orbitals will be frozen

 Checking the input file for inconsistencies... 	...done.

 Q-Chem warning in module forms1/BasisType.C, line 2236:

 You are not using the predefined 5D/6D in this basis set.


--------------------------------------------------------------
User input:
--------------------------------------------------------------
$molecule
0 1
C	-0.195868	-6.741404	0.166281
C	-1.196048	-6.155638	1.005696
C	0.634911	-5.791452	-0.530233
C	-1.409599	-4.803786	1.184587
H	-1.868538	-6.821518	1.570232
C	0.410996	-4.378638	-0.343266
C	-0.608444	-3.838032	0.511683
C	1.211179	-3.413062	-1.015440
C	-0.830559	-2.426473	0.697165
C	0.999915	-2.059348	-0.838968
C	-0.000000	-1.478216	-0.000000
H	1.673009	-1.394783	-1.404302
C	1.741129	-6.187987	-1.456059
C	2.307170	-3.798164	-1.934944
N	2.494766	-5.170003	-2.090139
C	-2.508468	-4.424987	2.106725
C	-1.936893	-2.036627	1.624494
N	-2.690936	-3.049156	2.258486
O	2.042736	-7.353131	-1.705414
O	3.013823	-2.986854	-2.529122
O	-3.206857	-5.248946	2.693680
O	-2.254108	-0.878829	1.888802
C	3.577543	-5.563799	-2.997334
H	3.612920	-6.664085	-3.025519
H	4.536833	-5.147101	-2.635109
H	3.387762	-5.148785	-4.005702
C	-3.756883	-2.587487	3.152347
H	-4.248464	-3.483329	3.566218
H	-4.478763	-1.964972	2.590383
H	-3.329599	-1.962932	3.959687
H	-0.053215	-7.822318	0.046998
C	0.000000	0.000000	0.000000
S	0.137535	0.781156	1.580530
C	0.421895	2.393994	0.904911
C	0.173134	0.982857	-0.985400
C	0.402294	2.283058	-0.493528
H	0.132237	0.750786	-2.059934
H	0.555196	3.150621	-1.152593
H	0.574741	3.261310	1.556025
$end

$rem
JOBTYPE		SP
EXCHANGE	HF
CORRELATION	pRIMP2
BASIS		cc-pvtz
METHOD		rimp2
AUX_BASIS	rimp2-cc-pvtz
SOLVENT_METHOD	PCM
PURECART	11111
SYMMETRY	false
MEM_TOTAL	110000
SCF_CONVERGENCE = 6
THRESH=10
GUI = 2
$end



$solvent
dielectric 4.90
$end
--------------------------------------------------------------
 ----------------------------------------------------------------
             Standard Nuclear Orientation (Angstroms)
    I     Atom           X                Y                Z
 ----------------------------------------------------------------
    1      C      -0.1958680000    -6.7414040000     0.1662810000
    2      C      -1.1960480000    -6.1556380000     1.0056960000
    3      C       0.6349110000    -5.7914520000    -0.5302330000
    4      C      -1.4095990000    -4.8037860000     1.1845870000
    5      H      -1.8685380000    -6.8215180000     1.5702320000
    6      C       0.4109960000    -4.3786380000    -0.3432660000
    7      C      -0.6084440000    -3.8380320000     0.5116830000
    8      C       1.2111790000    -3.4130620000    -1.0154400000
    9      C      -0.8305590000    -2.4264730000     0.6971650000
   10      C       0.9999150000    -2.0593480000    -0.8389680000
   11      C       0.0000000000    -1.4782160000     0.0000000000
   12      H       1.6730090000    -1.3947830000    -1.4043020000
   13      C       1.7411290000    -6.1879870000    -1.4560590000
   14      C       2.3071700000    -3.7981640000    -1.9349440000
   15      N       2.4947660000    -5.1700030000    -2.0901390000
   16      C      -2.5084680000    -4.4249870000     2.1067250000
   17      C      -1.9368930000    -2.0366270000     1.6244940000
   18      N      -2.6909360000    -3.0491560000     2.2584860000
   19      O       2.0427360000    -7.3531310000    -1.7054140000
   20      O       3.0138230000    -2.9868540000    -2.5291220000
   21      O      -3.2068570000    -5.2489460000     2.6936800000
   22      O      -2.2541080000    -0.8788290000     1.8888020000
   23      C       3.5775430000    -5.5637990000    -2.9973340000
   24      H       3.6129200000    -6.6640850000    -3.0255190000
   25      H       4.5368330000    -5.1471010000    -2.6351090000
   26      H       3.3877620000    -5.1487850000    -4.0057020000
   27      C      -3.7568830000    -2.5874870000     3.1523470000
   28      H      -4.2484640000    -3.4833290000     3.5662180000
   29      H      -4.4787630000    -1.9649720000     2.5903830000
   30      H      -3.3295990000    -1.9629320000     3.9596870000
   31      H      -0.0532150000    -7.8223180000     0.0469980000
   32      C       0.0000000000     0.0000000000     0.0000000000
   33      S       0.1375350000     0.7811560000     1.5805300000
   34      C       0.4218950000     2.3939940000     0.9049110000
   35      C       0.1731340000     0.9828570000    -0.9854000000
   36      C       0.4022940000     2.2830580000    -0.4935280000
   37      H       0.1322370000     0.7507860000    -2.0599340000
   38      H       0.5551960000     3.1506210000    -1.1525930000
   39      H       0.5747410000     3.2613100000     1.5560250000
 ----------------------------------------------------------------
 Nuclear Repulsion Energy =        2498.64184529 hartrees
 There are       97 alpha and       97 beta electrons
 Requested basis set is cc-pVTZ
 There are 344 shells and 982 basis functions

 Total QAlloc Memory Limit 110000 MB
 Mega-Array Size       188 MB
 MEM_STATIC part       192 MB
 Discretize the solute cavity surface with Lebedev spheres
	Using 110 Lebedev grid points for each H atom
	Using 194 Lebedev grid points for other atoms
	Atomic van der Waals radii will be scaled by 1.20
 Remove points where switching function is < 1.0e-08
 Keep 2521 surface tesserae and discard 4037 interior tesserae
 Molecular Surface Area = 365.819 Angst**2
 Requested basis set is rimp2-cc-pVTZ
 There are 750 shells and 2588 basis functions
 A cutoff of  1.0D-10 yielded  31562 shell pairs
 There are    242990 function pairs (    315765 Cartesian)
 Smallest overlap matrix eigenvalue = 9.74E-06

 Q-Chem warning in module stvman/mkSTV.C, line 323:

 Overlap eigenvalue is smaller than square root of threshold
 Use THRESH >= 12 to get rid of this warning


 Scale SEOQF with 1.000000e-01/1.000000e-02/1.000000e-01

 Standard Electronic Orientation quadrupole field applied
 Nucleus-field energy     =    -0.0000000131 hartrees
 Guess from superposition of atomic densities
 Warning:  Energy on first SCF cycle will be non-variational
 SAD guess density has 194.000000 electrons

 -----------------------------------------------------------------------
  General SCF calculation program by
  Eric Jon Sundstrom, Paul Horn, Yuezhi Mao, Dmitri Zuev, Alec White,
  David Stuck, Shaama M.S., Shane Yost, Joonho Lee, David Small,
  Daniel Levine, Susi Lehtola, Hugh Burton, Evgeny Epifanovsky,
  Bang C. Huynh
 -----------------------------------------------------------------------
 Hartree-Fock
 using 64 threads for integral computing
 -------------------------------------------------------
 OpenMP Integral computing Module                
 Release: version 1.0, May 2013, Q-Chem Inc. Pittsburgh 
 -------------------------------------------------------
 A restricted SCF calculation will be
 performed using DIIS
 SCF converges when DIIS error is below 1.0e-06
 ---------------------------------------
  Cycle       Energy         DIIS error
 ---------------------------------------
    1   -1581.2960313450      1.87e-02  
    2   -1570.1169387560      2.09e-03  
    3   -1570.4430535660      1.63e-03  
    4   -1570.6741372544      2.57e-04  
    5   -1570.6861455662      7.57e-05  
    6   -1570.6871960849      2.78e-05  
    7   -1570.6874352217      1.43e-05  
    8   -1570.6875111544      5.87e-06  
    9   -1570.6875231020      2.29e-06  
   10   -1570.6875251060      7.25e-07  Convergence criterion met
 ---------------------------------------
 SCF time:   CPU 5547.70s  wall 222.00s 

************** Final PCM Free Energy Summary **************
 G_electrostatic  =      -0.02436208 hartree =     -15.28743528 kcal/mol
 G_cavitation     =       0.00000000 hartree =       0.00000000 kcal/mol
 G_dispersion     =       0.00000000 hartree =       0.00000000 kcal/mol
 G_repulsion      =       0.00000000 hartree =       0.00000000 kcal/mol
 --------------------------------------------------
 Non-electrostatic Free Energy =       0.00000000 hartree =       0.00000000 kcal/mol
 Total                         =      -0.02436208 hartree =     -15.28743528 kcal/mol
 --------------------------------------------------
 SCF Energy (H0 + V/2)                       =   -1570.68752511 
 Solute Internal Energy (H0)                 =   -1570.66316303 
 Total Free Energy (H0 + V/2 + non-elec)     =   -1570.68752511 hartree
                                             = -985621.29798560 kcal/mol
***********************************************************

 SCF   energy in the final basis set =    -1570.6875251060
 Total energy in the final basis set =    -1570.6875251060


 --------------------------------------------------------------
  Generalized many-body perturbation theory program
  by Joonho Lee, Fazle Rob, Xintian Feng, Evgeny Epifanovsky

 No regularization used 
 (reg. param. = 0.0000e+00)
  (P|Q)^-1/2 Time:  CPU 171.69 s  wall 2.76 s

 In RI-MP2 calculation: 
 # of frozen core orbitals: 31

 Components of the RIMP2 correlation energy:
        aaaa    correlation energy =        -0.6168963194 a.u.
        abab    correlation energy =        -3.3928620392 a.u.
        bbbb    correlation energy =        -0.6168963194 a.u.
        non-Brillouin singles      =        -0.0000000000 a.u.
        total same-spin energy     =        -1.2337926387 a.u.
        total opposite-spin energy =        -3.3928620392 a.u.

 Total  RIMP2   correlation energy =        -4.6266546779 a.u.
        RIMP2         total energy =     -1575.3141797840 a.u.

 RI-MP2 Energy Time:  CPU 1828.29 s  wall 30.86 s
 
 --------------------------------------------------------------
 
                    Orbital Energies (a.u.)
 --------------------------------------------------------------
 
 Alpha MOs
 -- Occupied --
-91.9876 -20.5589 -20.5567 -20.5550 -20.5547 -15.6315 -15.6305 -11.4004
-11.3962 -11.3923 -11.3910 -11.3174 -11.3047 -11.3029 -11.3012 -11.2983
-11.2976 -11.2921 -11.2867 -11.2859 -11.2829 -11.2805 -11.2785 -11.2648
-11.2644 -11.2588 -11.2486  -8.9870  -6.6677  -6.6672  -6.6666  -1.4252
 -1.4240  -1.4046  -1.4031  -1.2677  -1.2652  -1.2178  -1.1746  -1.1441
 -1.1177  -1.0631  -1.0501  -0.9931  -0.9891  -0.9831  -0.9592  -0.9482
 -0.8971  -0.8797  -0.8780  -0.8614  -0.7951  -0.7772  -0.7738  -0.7615
 -0.7339  -0.7186  -0.7051  -0.6947  -0.6822  -0.6741  -0.6665  -0.6623
 -0.6570  -0.6416  -0.6376  -0.6335  -0.6294  -0.6133  -0.5846  -0.5841
 -0.5786  -0.5719  -0.5666  -0.5654  -0.5642  -0.5555  -0.5537  -0.5485
 -0.5329  -0.5246  -0.5203  -0.5189  -0.4838  -0.4720  -0.4652  -0.4596
 -0.4589  -0.4516  -0.4282  -0.4182  -0.4091  -0.3651  -0.3485  -0.3366
 -0.3090
 -- Virtual --
 -0.0211   0.0594   0.0702   0.1010   0.1224   0.1544   0.1585   0.1587
  0.1658   0.1698   0.1794   0.1805   0.1843   0.1964   0.2065   0.2077
  0.2206   0.2256   0.2281   0.2311   0.2369   0.2427   0.2611   0.2624
  0.2658   0.3063   0.3129   0.3157   0.3217   0.3240   0.3258   0.3378
  0.3426   0.3448   0.3517   0.3567   0.3589   0.3600   0.3745   0.3749
  0.3770   0.3832   0.3887   0.3907   0.3993   0.4029   0.4071   0.4111
  0.4190   0.4272   0.4338   0.4378   0.4418   0.4456   0.4518   0.4559
  0.4579   0.4601   0.4673   0.4746   0.4767   0.4849   0.4901   0.4943
  0.5023   0.5054   0.5073   0.5112   0.5155   0.5240   0.5292   0.5311
  0.5326   0.5383   0.5479   0.5497   0.5528   0.5561   0.5623   0.5652
  0.5706   0.5730   0.5751   0.5843   0.5905   0.5932   0.5962   0.5999
  0.6058   0.6065   0.6121   0.6127   0.6202   0.6223   0.6239   0.6295
  0.6315   0.6344   0.6356   0.6381   0.6423   0.6485   0.6544   0.6662
  0.6753   0.6841   0.6910   0.6922   0.6955   0.7068   0.7121   0.7152
  0.7209   0.7344   0.7402   0.7422   0.7432   0.7560   0.7598   0.7616
  0.7690   0.7776   0.7805   0.7912   0.7983   0.8113   0.8128   0.8172
  0.8233   0.8281   0.8352   0.8383   0.8426   0.8481   0.8485   0.8618
  0.8636   0.8645   0.8669   0.8734   0.8804   0.8842   0.8947   0.9059
  0.9119   0.9137   0.9219   0.9264   0.9275   0.9328   0.9436   0.9445
  0.9481   0.9566   0.9618   0.9673   0.9707   0.9777   0.9803   0.9867
  0.9894   0.9905   1.0002   1.0045   1.0111   1.0155   1.0239   1.0276
  1.0310   1.0377   1.0422   1.0558   1.0616   1.0646   1.0704   1.0728
  1.0802   1.0830   1.0867   1.0877   1.0931   1.1033   1.1049   1.1055
  1.1276   1.1299   1.1344   1.1373   1.1414   1.1511   1.1545   1.1553
  1.1626   1.1670   1.1686   1.1774   1.1812   1.1848   1.1906   1.1972
  1.2003   1.2087   1.2128   1.2212   1.2255   1.2317   1.2348   1.2400
  1.2444   1.2496   1.2583   1.2621   1.2656   1.2666   1.2773   1.3014
  1.3048   1.3230   1.3313   1.3355   1.3410   1.3463   1.3496   1.3608
  1.3613   1.3761   1.3799   1.3829   1.3898   1.3985   1.4051   1.4178
  1.4244   1.4283   1.4384   1.4414   1.4473   1.4494   1.4576   1.4655
  1.4749   1.4790   1.4869   1.4916   1.4967   1.5044   1.5117   1.5142
  1.5207   1.5320   1.5346   1.5455   1.5502   1.5578   1.5594   1.5645
  1.5690   1.5763   1.5791   1.5878   1.6020   1.6097   1.6184   1.6297
  1.6361   1.6451   1.6474   1.6574   1.6667   1.6728   1.6800   1.6898
  1.6941   1.7001   1.7133   1.7203   1.7284   1.7353   1.7433   1.7441
  1.7476   1.7554   1.7676   1.7790   1.7920   1.8021   1.8049   1.8109
  1.8133   1.8308   1.8349   1.8412   1.8512   1.8586   1.8597   1.8688
  1.8704   1.8804   1.8949   1.9094   1.9173   1.9220   1.9442   1.9464
  1.9578   1.9710   1.9727   1.9863   1.9958   2.0123   2.0173   2.0290
  2.0408   2.0461   2.0588   2.0714   2.0921   2.1060   2.1259   2.1267
  2.1413   2.1552   2.1637   2.1784   2.1903   2.2006   2.2198   2.2297
  2.2338   2.2489   2.2566   2.2644   2.2846   2.2916   2.2951   2.3004
  2.3077   2.3224   2.3322   2.3347   2.3535   2.3631   2.3646   2.3798
  2.4078   2.4222   2.4338   2.4434   2.4454   2.4538   2.4567   2.4616
  2.4762   2.4838   2.4907   2.4965   2.5076   2.5153   2.5233   2.5386
  2.5507   2.5590   2.5765   2.5856   2.5884   2.5947   2.6017   2.6036
  2.6159   2.6208   2.6226   2.6466   2.6501   2.6593   2.6633   2.6644
  2.6739   2.6806   2.6850   2.6974   2.7073   2.7157   2.7182   2.7248
  2.7303   2.7429   2.7445   2.7479   2.7559   2.7682   2.7762   2.7871
  2.7978   2.8029   2.8212   2.8230   2.8363   2.8458   2.8513   2.8604
  2.8632   2.8673   2.8730   2.8791   2.8864   2.8920   2.8986   2.9033
  2.9075   2.9166   2.9283   2.9341   2.9472   2.9534   2.9622   2.9652
  2.9724   2.9787   2.9803   2.9935   3.0011   3.0054   3.0058   3.0110
  3.0181   3.0299   3.0310   3.0402   3.0458   3.0612   3.0659   3.0718
  3.0845   3.0895   3.1013   3.1018   3.1044   3.1075   3.1112   3.1182
  3.1252   3.1306   3.1412   3.1492   3.1574   3.1643   3.1705   3.1817
  3.1847   3.1950   3.1976   3.2043   3.2077   3.2153   3.2198   3.2228
  3.2258   3.2280   3.2353   3.2433   3.2510   3.2539   3.2573   3.2624
  3.2709   3.2760   3.2785   3.2819   3.2874   3.2889   3.2941   3.2981
  3.3047   3.3162   3.3230   3.3239   3.3275   3.3302   3.3340   3.3371
  3.3410   3.3429   3.3487   3.3501   3.3606   3.3652   3.3681   3.3714
  3.3785   3.3811   3.3898   3.3963   3.3982   3.4026   3.4057   3.4195
  3.4263   3.4306   3.4350   3.4438   3.4443   3.4499   3.4537   3.4577
  3.4608   3.4653   3.4679   3.4713   3.4797   3.4800   3.4832   3.4921
  3.4958   3.4982   3.5013   3.5075   3.5118   3.5153   3.5224   3.5257
  3.5338   3.5378   3.5452   3.5470   3.5537   3.5601   3.5665   3.5735
  3.5801   3.5865   3.5885   3.6032   3.6116   3.6190   3.6248   3.6285
  3.6297   3.6354   3.6414   3.6430   3.6500   3.6625   3.6692   3.6813
  3.6842   3.6896   3.6927   3.6990   3.7011   3.7114   3.7133   3.7215
  3.7278   3.7302   3.7337   3.7415   3.7442   3.7561   3.7588   3.7679
  3.7695   3.7749   3.7830   3.7837   3.7910   3.7959   3.7984   3.8022
  3.8128   3.8164   3.8269   3.8389   3.8460   3.8517   3.8553   3.8581
  3.8612   3.8738   3.8764   3.8808   3.8908   3.8930   3.9088   3.9205
  3.9282   3.9328   3.9410   3.9452   3.9527   3.9574   3.9673   3.9730
  3.9850   3.9909   4.0013   4.0097   4.0129   4.0172   4.0324   4.0371
  4.0512   4.0620   4.0690   4.0852   4.0913   4.0948   4.1065   4.1129
  4.1238   4.1288   4.1339   4.1364   4.1410   4.1586   4.1656   4.1675
  4.1711   4.1826   4.1863   4.1953   4.2030   4.2127   4.2224   4.2343
  4.2430   4.2510   4.2558   4.2685   4.2717   4.2744   4.2766   4.2895
  4.2925   4.2964   4.2997   4.3118   4.3168   4.3259   4.3339   4.3394
  4.3415   4.3539   4.3569   4.3638   4.3668   4.3683   4.3731   4.3822
  4.3921   4.4000   4.4028   4.4051   4.4164   4.4171   4.4252   4.4297
  4.4461   4.4617   4.4668   4.4830   4.4849   4.5107   4.5127   4.5176
  4.5218   4.5273   4.5326   4.5428   4.5466   4.5520   4.5672   4.5740
  4.5772   4.5791   4.5892   4.5937   4.6074   4.6113   4.6210   4.6304
  4.6406   4.6573   4.6625   4.6665   4.6707   4.6807   4.6868   4.6926
  4.7099   4.7250   4.7332   4.7400   4.7626   4.7655   4.7690   4.7956
  4.8087   4.8261   4.8319   4.8390   4.8483   4.8572   4.8703   4.8713
  4.8789   4.8963   4.9075   4.9254   4.9337   4.9513   4.9725   4.9804
  5.0026   5.0033   5.0199   5.0332   5.0410   5.0483   5.0508   5.0557
  5.0895   5.0973   5.1049   5.1146   5.1200   5.1247   5.1429   5.1444
  5.1615   5.1758   5.1846   5.1926   5.1977   5.2236   5.2385   5.2564
  5.2643   5.2775   5.2832   5.2914   5.3211   5.3276   5.3307   5.3360
  5.3499   5.3778   5.3959   5.4027   5.4161   5.4300   5.4325   5.4458
  5.4901   5.5049   5.5084   5.5117   5.5130   5.5338   5.5463   5.5548
  5.5556   5.5598   5.5667   5.5744   5.5774   5.5903   5.6010   5.6040
  5.6223   5.6297   5.6522   5.6543   5.6551   5.6733   5.6764   5.6899
  5.6966   5.6988   5.7328   5.7371   5.7448   5.7576   5.7599   5.7700
  5.7739   5.7779   5.8164   5.8288   5.8404   5.8735   5.8790   5.9303
  5.9379   5.9616   6.0049   6.0187   6.0234   6.0294   6.0305   6.0523
  6.0767   6.0981   6.1003   6.1156   6.1174   6.1692   6.1965   6.2073
  6.2173   6.2181   6.2211   6.2565   6.2648   6.2691   6.3024   6.3406
  6.3502   6.3747   6.4375   6.4469   6.4634   6.5217   6.5616   6.5691
  6.5827   6.5981   6.6299   6.6470   6.6591   6.6813   6.7116   6.8309
  6.8318   6.8789   6.8857   6.8955   6.9110   6.9248   6.9391   7.0778
  7.1008   7.1403   7.1851   7.1875   7.2270   7.3320   7.3412   7.3438
  7.3557   7.4661   7.5424   7.5571   7.5725   7.5762   7.5898   7.6335
  7.6729   7.6852   7.7214   8.3528   9.9291  10.2891  11.1121  11.2417
 11.6443  11.7167  11.9524  12.3553  12.4271  12.7194  12.8479  12.8964
 13.2922  13.5543  13.8085  13.9233  14.0173  14.1389  14.2529  14.3449
 14.4213  14.7193  15.3125  15.7300  15.9655
 --------------------------------------------------------------
 
          Ground-State Mulliken Net Atomic Charges

     Atom                 Charge (a.u.)
  ----------------------------------------
      1 C                    -0.135227
      2 C                    -0.108243
      3 C                    -0.040416
      4 C                    -0.003511
      5 H                     0.188945
      6 C                     0.002671
      7 C                     0.075231
      8 C                     0.002006
      9 C                    -0.047335
     10 C                    -0.129989
     11 C                     0.084950
     12 H                     0.186798
     13 C                     0.360472
     14 C                     0.365402
     15 N                    -0.101618
     16 C                     0.359871
     17 C                     0.353059
     18 N                    -0.095705
     19 O                    -0.464476
     20 O                    -0.476399
     21 O                    -0.481024
     22 O                    -0.459537
     23 C                    -0.201032
     24 H                     0.141163
     25 H                     0.112487
     26 H                     0.112276
     27 C                    -0.196198
     28 H                     0.133657
     29 H                     0.113288
     30 H                     0.113026
     31 H                     0.214009
     32 C                    -0.029110
     33 S                     0.059830
     34 C                    -0.208032
     35 C                    -0.191009
     36 C                    -0.206714
     37 H                     0.194325
     38 H                     0.190817
     39 H                     0.211294
  ----------------------------------------
  Sum of atomic charges =     0.000000

 -----------------------------------------------------------------
                    Cartesian Multipole Moments
 -----------------------------------------------------------------
    Charge (ESU x 10^10)
                 0.0000
    Dipole Moment (Debye)
         X       0.2693      Y       1.0995      Z      -0.7734
       Tot       1.3709
    Quadrupole Moments (Debye-Ang)
        XX    -175.8262     XY       2.3516     YY    -165.7440
        XZ       9.9619     YZ       0.4550     ZZ    -165.6496
    Octopole Moments (Debye-Ang^2)
       XXX      14.3406    XXY     513.1092    XYY       6.2303
       YYY    1590.0995    XXZ     -30.2401    XYZ     -39.2987
       YYZ     -16.2211    XZZ       7.8146    YZZ     512.5724
       ZZZ     -87.4157
    Hexadecapole Moments (Debye-Ang^3)
      XXXX   -3655.2402   XXXY      60.3935   XXYY   -3603.6618
      XYYY     589.2305   YYYY  -17127.1276   XXXZ    1480.8986
      XXYZ      45.4204   XYYZ     766.7692   YYYZ    -528.7812
      XXZZ   -1140.2175   XYZZ     -32.5308   YYZZ   -3337.4344
      XZZZ    1455.4181   YZZZ    -171.4847   ZZZZ   -2860.2419
 -----------------------------------------------------------------
 Total job time:  258.71s(wall), 7567.39s(cpu) 
 Fri Dec 15 15:18:05 2023

        *************************************************************
        *                                                           *
        *  Thank you very much for using Q-Chem.  Have a nice day.  *
        *                                                           *
        *************************************************************


0 sent ACK to 0 
now end server 0 ... 
cleanup process ... done
remove work dirs ./qchem428984.0 -- ./qchem428984.0
rm -rf ./qchem428984.0
rm -rf ./qchem428984
