You are running Q-Chem version: 5.4.0

#
# job setting
#
local host:  exp-1-19
current dir: /home/rramji/project-csd799/aromodel/pndit-qchem/rotation_run
input file:  Dimethyl_Naphthalene_Dicarboximide_Phi_10_Theta_180_Thiophene.qcin
output file: 
nprocs     : 1
nthreads   : 64
#
# qchem installation setting
#
QC:          /cm/shared/apps/spack/cpu/opt/spack/linux-centos8-zen2/gcc-10.2.0/qchem-5.4-akfmr7b3t57bfs6qan3padb2wnb2i7cl
QCAUX:       /cm/shared/apps/spack/cpu/opt/spack/linux-centos8-zen2/gcc-10.2.0/qchem-5.4-akfmr7b3t57bfs6qan3padb2wnb2i7cl/qcaux
QCPROG:      /cm/shared/apps/spack/cpu/opt/spack/linux-centos8-zen2/gcc-10.2.0/qchem-5.4-akfmr7b3t57bfs6qan3padb2wnb2i7cl/exe/qcprog.exe
QCPROG_S:    /cm/shared/apps/spack/cpu/opt/spack/linux-centos8-zen2/gcc-10.2.0/qchem-5.4-akfmr7b3t57bfs6qan3padb2wnb2i7cl/exe/qcprog.exe_s
PARALLEL:    -DPARALLEL
QCMPI:       mpich
#
# qchem directory setting
#
qcrun:       qchem398167
QCSCRATCH:   .
QCLOCALSCR:  
QCTMPDIR:    .
QCFILEPREF:  ./qchem398167
QCSAVEDIR:   
workdirs:    ./qchem398167
workdir0:    ./qchem398167
partmpdirs =  
#
# parallel setting
#
QCRSH:           ssh
QCMPI:           mpich
QCMPIRUN:        /cm/shared/apps/spack/cpu/opt/spack/linux-centos8-zen2/gcc-10.2.0/qchem-5.4-akfmr7b3t57bfs6qan3padb2wnb2i7cl/bin/mpi/mpirun_qchem
QCMACHINEFILE:   ./qchem398167/hostfile
exp-1-19

#
# env setting
#
exported envs:   QC QCAUX QCSCRATCH QCRUNNAME QCFILEPREF QCPROG QCPROG_S GUIFILE

Running Job 1 of 1 Dimethyl_Naphthalene_Dicarboximide_Phi_10_Theta_180_Thiophene.qcin
qchem Dimethyl_Naphthalene_Dicarboximide_Phi_10_Theta_180_Thiophene.qcin_398167.0 ./qchem398167/ 1
/cm/shared/apps/spack/cpu/opt/spack/linux-centos8-zen2/gcc-10.2.0/qchem-5.4-akfmr7b3t57bfs6qan3padb2wnb2i7cl/bin/mpi/mpirun_qchem -machinefile ./qchem398167/hostfile -np 1 /cm/shared/apps/spack/cpu/opt/spack/linux-centos8-zen2/gcc-10.2.0/qchem-5.4-akfmr7b3t57bfs6qan3padb2wnb2i7cl/exe/qcprog.exe Dimethyl_Naphthalene_Dicarboximide_Phi_10_Theta_180_Thiophene.qcin_398167.0 ./qchem398167/

Process 0 of 1 is on exp-1-19 - thread support 0
initial socket setup ...start
initial socket setup ...done 
now start server 0 ... 
                  Welcome to Q-Chem
     A Quantum Leap Into The Future Of Chemistry


 Q-Chem 5.4, Q-Chem, Inc., Pleasanton, CA (2021)

 License issued to: University of California, San Diego (site)

 E. Epifanovsky,  A. T. B. Gilbert,  Xintian Feng,  Joonho Lee,  Yuezhi Mao,  
 N. Mardirossian,  P. Pokhilko,  A. White,  M. Wormit,  M. P. Coons,  
 A. L. Dempwolff,  Zhengting Gan,  D. Hait,  P. R. Horn,  L. D. Jacobson,  
 I. Kaliman,  J. Kussmann,  A. W. Lange,  Ka Un Lao,  D. S. Levine,  Jie Liu,  
 S. C. McKenzie,  A. F. Morrison,  K. Nanda,  F. Plasser,  D. R. Rehn,  
 M. L. Vidal,  Zhi-Qiang You,  Ying Zhu,  B. Alam,  B. Albrecht,  
 A. Aldossary,  E. Alguire,  J. H. Andersen,  D. Barton,  K. Begam,  A. Behn,  
 Y. A. Bernard,  E. J. Berquist,  H. Burton,  A. Carreras,  K. Carter-Fenk,  
 R. Chakraborty,  A. D. Chien,  K. D. Closser,  V. Cofer-Shabica,  
 S. Dasgupta,  Jia Deng,  M. de Wergifosse,  M. Diedenhofen,  Hainam Do,  
 S. Ehlert,  Po-Tung Fang,  S. Fatehi,  Qingguo Feng,  J. Gayvert,  
 Qinghui Ge,  G. Gidofalvi,  M. Goldey,  J. Gomes,  C. Gonzalez-Espinoza,  
 S. Gulania,  A. Gunina,  M. W. D. Hanson-Heine,  P. H. P. Harbach,  
 A. W. Hauser,  M. F. Herbst,  M. Hernandez Vera,  M. Hodecker,  
 Z. C. Holden,  S. Houck,  Xunkun Huang,  Kerwin Hui,  B. C. Huynh,  
 M. Ivanov,  Hyunjun Ji,  Hanjie Jiang,  B. Kaduk,  S. Kaehler,  
 K. Khistyaev,  Jaehoon Kim,  P. Klunzinger,  Z. Koczor-Benda,  
 Joong Hoon Koh,  D. Kosenkov,  L. Koulias,  T. Kowalczyk,  C. M. Krauter,  
 K. Kue,  A. Kunitsa,  T. Kus,  A. Landau,  K. V. Lawler,  D. Lefrancois,  
 S. Lehtola,  Rain Li,  Yi-Pei Li,  Jiashu Liang,  M. Liebenthal,  
 Hung-Hsuan Lin,  You-Sheng Lin,  Fenglai Liu,  Kuan-Yu Liu,  
 M. Loipersberger,  A. Luenser,  A. Manjanath,  P. Manohar,  E. Mansoor,  
 S. F. Manzer,  Shan-Ping Mao,  A. V. Marenich,  T. Markovich,  S. Mason,  
 S. A. Maurer,  P. F. McLaughlin,  M. F. S. J. Menger,  J.-M. Mewes,  
 S. A. Mewes,  P. Morgante,  J. W. Mullinax,  T. S. Nguyen-Beck,  
 K. J. Oosterbaan,  G. Paran,  Alexander C. Paul,  Suranjan K. Paul,  
 F. Pavosevic,  Zheng Pei,  S. Prager,  E. I. Proynov,  E. Ramos,  B. Rana,  
 A. E. Rask,  A. Rettig,  R. M. Richard,  F. Rob,  E. Rossomme,  T. Scheele,  
 M. Scheurer,  M. Schneider,  N. Sergueev,  S. M. Sharada,  W. Skomorowski,  
 D. W. Small,  C. J. Stein,  Yu-Chuan Su,  E. J. Sundstrom,  Zhen Tao,  
 J. Thirman,  T. Tsuchimochi,  N. M. Tubman,  S. P. Veccham,  O. Vydrov,  
 J. Wenzel,  J. Witte,  A. Yamada,  Kun Yao,  S. Yeganeh,  S. R. Yost,  
 A. Zech,  Igor Ying Zhang,  Xing Zhang,  Yu Zhang,  D. Zuev,  
 A. Aspuru-Guzik,  A. T. Bell,  N. A. Besley,  K. B. Bravaya,  B. R. Brooks,  
 D. Casanova,  Jeng-Da Chai,  S. Coriani,  C. J. Cramer,  
 A. E. DePrince, III,  R. A. DiStasio Jr.,  A. Dreuw,  B. D. Dunietz,  
 T. R. Furlani,  W. A. Goddard III,  S. Grimme,  S. Hammes-Schiffer,  
 T. Head-Gordon,  W. J. Hehre,  Chao-Ping Hsu,  T.-C. Jagau,  Yousung Jung,  
 A. Klamt,  Jing Kong,  D. S. Lambrecht,  WanZhen Liang,  N. J. Mayhall,  
 C. W. McCurdy,  J. B. Neaton,  C. Ochsenfeld,  J. A. Parkhill,  R. Peverati,  
 V. A. Rassolov,  Yihan Shao,  L. V. Slipchenko,  T. Stauch,  R. P. Steele,  
 J. E. Subotnik,  A. J. W. Thom,  A. Tkatchenko,  D. G. Truhlar,  
 T. Van Voorhis,  T. A. Wesolowski,  K. B. Whaley,  H. L. Woodcock III,  
 P. M. Zimmerman,  S. Faraji,  P. M. W. Gill,  M. Head-Gordon,  
 J. M. Herbert,  A. I. Krylov

 Contributors to earlier versions of Q-Chem not listed above: 
 R. D. Adamson,  B. Austin,  R. Baer,  J. Baker,  G. J. O. Beran,  
 K. Brandhorst,  S. T. Brown,  E. F. C. Byrd,  A. K. Chakraborty,  
 G. K. L. Chan,  Chun-Min Chang,  Yunqing Chen,  C.-L. Cheng,  
 Siu Hung Chien,  D. M. Chipman,  D. L. Crittenden,  H. Dachsel,  
 R. J. Doerksen,  A. D. Dutoi,  R. G. Edgar,  J. Fosso-Tande,  
 L. Fusti-Molnar,  D. Ghosh,  A. Ghysels,  A. Golubeva-Zadorozhnaya,  
 J. Gonthier,  M. S. Gordon,  S. R. Gwaltney,  G. Hawkins,  J. E. Herr,  
 A. Heyden,  S. Hirata,  E. G. Hohenstein,  G. Kedziora,  F. J. Keil,  
 C. Kelley,  Jihan Kim,  R. A. King,  R. Z. Khaliullin,  P. P. Korambath,  
 W. Kurlancheek,  A. Laurent,  A. M. Lee,  M. S. Lee,  S. V. Levchenko,  
 Ching Yeh Lin,  D. Liotard,  E. Livshits,  R. C. Lochan,  I. Lotan,  
 L. A. Martinez-Martinez,  P. E. Maslen,  N. Nair,  D. P. O'Neill,  
 D. Neuhauser,  E. Neuscamman,  C. M. Oana,  R. Olivares-Amaya,  R. Olson,  
 T. M. Perrine,  B. Peters,  P. A. Pieniazek,  A. Prociuk,  Y. M. Rhee,  
 J. Ritchie,  M. A. Rohrdanz,  E. Rosta,  N. J. Russ,  H. F. Schaefer III,  
 M. W. Schmidt,  N. E. Schultz,  S. Sharma,  N. Shenvi,  C. D. Sherrill,  
 A. C. Simmonett,  A. Sodt,  T. Stein,  D. Stuck,  K. S. Thanthiriwatte,  
 V. Vanovschi,  L. Vogt,  Tao Wang,  A. Warshel,  M. A. Watson,  
 C. F. Williams,  Q. Wu,  X. Xu,  Jun Yang,  W. Zhang,  Yan Zhao

 Please cite Q-Chem as follows:
 Y. Shao et al., Mol. Phys. 113, 184-215 (2015)
 DOI: 10.1080/00268976.2014.952696

 Q-Chem 5.4.0 for Intel X86 EM64T Linux

 Parts of Q-Chem use Armadillo 9.800.1 (Horizon Scraper).
 http://arma.sourceforge.net/

 Q-Chem begins on Fri Dec 15 14:51:17 2023  

 Host: 
0

     Scratch files written to ./qchem398167//
 May1621 |scratch|qcdevops|jenkins|workspace|build_RNUM    
 Parallel job on  1  processors
 Processing $rem in /cm/shared/apps/spack/cpu/opt/spack/linux-centos8-zen2/gcc-10.2.0/qchem-5.4-akfmr7b3t57bfs6qan3padb2wnb2i7cl/config/preferences:
 Processing $rem in /home/rramji/.qchemrc:
 Symmetry turned off for PCM/SM12/SMD calculation
 Core orbitals will be frozen

 Checking the input file for inconsistencies... 	...done.

 Q-Chem warning in module forms1/BasisType.C, line 2236:

 You are not using the predefined 5D/6D in this basis set.


--------------------------------------------------------------
User input:
--------------------------------------------------------------
$molecule
0 1
C	0.001478	-6.741404	0.256927
C	0.001603	-6.155638	1.562675
C	0.001931	-5.791452	-0.827197
C	0.001374	-4.803786	1.841253
H	0.001794	-6.821518	2.440709
C	0.001227	-4.378638	-0.535488
C	0.000872	-3.838032	0.794999
C	0.000658	-3.413062	-1.580529
C	0.000186	-2.426473	1.084374
C	0.000046	-2.059348	-1.305258
C	-0.000000	-1.478216	-0.000000
H	-0.000369	-1.394783	-2.184267
C	0.003770	-6.187987	-2.269719
C	0.000767	-3.798164	-3.011152
N	0.002465	-5.170003	-3.254617
C	0.001433	-4.424987	3.275775
C	-0.000576	-2.036627	2.527951
N	0.000400	-3.049156	3.513104
O	0.006623	-7.353131	-2.661046
O	-0.000172	-2.986854	-3.934410
O	0.002151	-5.248946	4.188059
O	-0.002006	-0.878829	2.940845
C	0.003509	-5.563799	-4.667206
H	0.004658	-6.664085	-4.712423
H	0.897610	-5.147101	-5.169231
H	-0.890935	-5.148785	-5.169992
C	-0.000039	-2.587487	4.904229
H	0.001022	-3.483329	5.546833
H	-0.894545	-1.964972	5.095998
H	0.893071	-1.962932	5.095858
H	0.001797	-7.822318	0.070974
C	0.000000	0.000000	0.000000
S	0.137535	0.781156	1.580530
C	0.421895	2.393994	0.904911
C	0.173134	0.982857	-0.985400
C	0.402294	2.283058	-0.493528
H	0.132237	0.750786	-2.059934
H	0.555196	3.150621	-1.152593
H	0.574741	3.261310	1.556025
$end

$rem
JOBTYPE		SP
EXCHANGE	HF
CORRELATION	pRIMP2
BASIS		cc-pvtz
METHOD		rimp2
AUX_BASIS	rimp2-cc-pvtz
SOLVENT_METHOD	PCM
PURECART	11111
SYMMETRY	false
MEM_TOTAL	110000
SCF_CONVERGENCE = 6
THRESH=10
GUI = 2
$end



$solvent
dielectric 4.90
$end
--------------------------------------------------------------
 ----------------------------------------------------------------
             Standard Nuclear Orientation (Angstroms)
    I     Atom           X                Y                Z
 ----------------------------------------------------------------
    1      C       0.0014780000    -6.7414040000     0.2569270000
    2      C       0.0016030000    -6.1556380000     1.5626750000
    3      C       0.0019310000    -5.7914520000    -0.8271970000
    4      C       0.0013740000    -4.8037860000     1.8412530000
    5      H       0.0017940000    -6.8215180000     2.4407090000
    6      C       0.0012270000    -4.3786380000    -0.5354880000
    7      C       0.0008720000    -3.8380320000     0.7949990000
    8      C       0.0006580000    -3.4130620000    -1.5805290000
    9      C       0.0001860000    -2.4264730000     1.0843740000
   10      C       0.0000460000    -2.0593480000    -1.3052580000
   11      C       0.0000000000    -1.4782160000     0.0000000000
   12      H      -0.0003690000    -1.3947830000    -2.1842670000
   13      C       0.0037700000    -6.1879870000    -2.2697190000
   14      C       0.0007670000    -3.7981640000    -3.0111520000
   15      N       0.0024650000    -5.1700030000    -3.2546170000
   16      C       0.0014330000    -4.4249870000     3.2757750000
   17      C      -0.0005760000    -2.0366270000     2.5279510000
   18      N       0.0004000000    -3.0491560000     3.5131040000
   19      O       0.0066230000    -7.3531310000    -2.6610460000
   20      O      -0.0001720000    -2.9868540000    -3.9344100000
   21      O       0.0021510000    -5.2489460000     4.1880590000
   22      O      -0.0020060000    -0.8788290000     2.9408450000
   23      C       0.0035090000    -5.5637990000    -4.6672060000
   24      H       0.0046580000    -6.6640850000    -4.7124230000
   25      H       0.8976100000    -5.1471010000    -5.1692310000
   26      H      -0.8909350000    -5.1487850000    -5.1699920000
   27      C      -0.0000390000    -2.5874870000     4.9042290000
   28      H       0.0010220000    -3.4833290000     5.5468330000
   29      H      -0.8945450000    -1.9649720000     5.0959980000
   30      H       0.8930710000    -1.9629320000     5.0958580000
   31      H       0.0017970000    -7.8223180000     0.0709740000
   32      C       0.0000000000     0.0000000000     0.0000000000
   33      S       0.1375350000     0.7811560000     1.5805300000
   34      C       0.4218950000     2.3939940000     0.9049110000
   35      C       0.1731340000     0.9828570000    -0.9854000000
   36      C       0.4022940000     2.2830580000    -0.4935280000
   37      H       0.1322370000     0.7507860000    -2.0599340000
   38      H       0.5551960000     3.1506210000    -1.1525930000
   39      H       0.5747410000     3.2613100000     1.5560250000
 ----------------------------------------------------------------
 Nuclear Repulsion Energy =        2514.09483414 hartrees
 There are       97 alpha and       97 beta electrons
 Requested basis set is cc-pVTZ
 There are 344 shells and 982 basis functions

 Total QAlloc Memory Limit 110000 MB
 Mega-Array Size       188 MB
 MEM_STATIC part       192 MB
 Discretize the solute cavity surface with Lebedev spheres
	Using 110 Lebedev grid points for each H atom
	Using 194 Lebedev grid points for other atoms
	Atomic van der Waals radii will be scaled by 1.20
 Remove points where switching function is < 1.0e-08
 Keep 2492 surface tesserae and discard 4066 interior tesserae
 Molecular Surface Area = 359.684 Angst**2
 Requested basis set is rimp2-cc-pVTZ
 There are 750 shells and 2588 basis functions
 A cutoff of  1.0D-10 yielded  31728 shell pairs
 There are    244330 function pairs (    317423 Cartesian)
 Smallest overlap matrix eigenvalue = 9.56E-06

 Q-Chem warning in module stvman/mkSTV.C, line 323:

 Overlap eigenvalue is smaller than square root of threshold
 Use THRESH >= 12 to get rid of this warning


 Scale SEOQF with 1.000000e+00/1.000000e-02/1.000000e-02

 Standard Electronic Orientation quadrupole field applied
 Nucleus-field energy     =     0.0000000109 hartrees
 Guess from superposition of atomic densities
 Warning:  Energy on first SCF cycle will be non-variational
 SAD guess density has 194.000000 electrons

 -----------------------------------------------------------------------
  General SCF calculation program by
  Eric Jon Sundstrom, Paul Horn, Yuezhi Mao, Dmitri Zuev, Alec White,
  David Stuck, Shaama M.S., Shane Yost, Joonho Lee, David Small,
  Daniel Levine, Susi Lehtola, Hugh Burton, Evgeny Epifanovsky,
  Bang C. Huynh
 -----------------------------------------------------------------------
 Hartree-Fock
 using 64 threads for integral computing
 -------------------------------------------------------
 OpenMP Integral computing Module                
 Release: version 1.0, May 2013, Q-Chem Inc. Pittsburgh 
 -------------------------------------------------------
 A restricted SCF calculation will be
 performed using DIIS
 SCF converges when DIIS error is below 1.0e-06
 ---------------------------------------
  Cycle       Energy         DIIS error
 ---------------------------------------
    1   -1581.4688911435      1.88e-02  
    2   -1570.0823238044      2.07e-03  
    3   -1570.4084220796      1.60e-03  
    4   -1570.6325964236      2.60e-04  
    5   -1570.6448103388      7.66e-05  
    6   -1570.6458807745      2.84e-05  
    7   -1570.6461353800      1.46e-05  
    8   -1570.6462203530      5.95e-06  
    9   -1570.6462344456      2.32e-06  
   10   -1570.6462368923      8.79e-07  Convergence criterion met
 ---------------------------------------
 SCF time:   CPU 5779.39s  wall 227.00s 

************** Final PCM Free Energy Summary **************
 G_electrostatic  =      -0.02216208 hartree =     -13.90691772 kcal/mol
 G_cavitation     =       0.00000000 hartree =       0.00000000 kcal/mol
 G_dispersion     =       0.00000000 hartree =       0.00000000 kcal/mol
 G_repulsion      =       0.00000000 hartree =       0.00000000 kcal/mol
 --------------------------------------------------
 Non-electrostatic Free Energy =       0.00000000 hartree =       0.00000000 kcal/mol
 Total                         =      -0.02216208 hartree =     -13.90691772 kcal/mol
 --------------------------------------------------
 SCF Energy (H0 + V/2)                       =   -1570.64623689 
 Solute Internal Energy (H0)                 =   -1570.62407481 
 Total Free Energy (H0 + V/2 + non-elec)     =   -1570.64623689 hartree
                                             = -985595.38924045 kcal/mol
***********************************************************

 SCF   energy in the final basis set =    -1570.6462368923
 Total energy in the final basis set =    -1570.6462368923


 --------------------------------------------------------------
  Generalized many-body perturbation theory program
  by Joonho Lee, Fazle Rob, Xintian Feng, Evgeny Epifanovsky

 No regularization used 
 (reg. param. = 0.0000e+00)
  (P|Q)^-1/2 Time:  CPU 119.66 s  wall 2.53 s

 In RI-MP2 calculation: 
 # of frozen core orbitals: 31

 Components of the RIMP2 correlation energy:
        aaaa    correlation energy =        -0.6201648501 a.u.
        abab    correlation energy =        -3.3983866384 a.u.
        bbbb    correlation energy =        -0.6201648501 a.u.
        non-Brillouin singles      =        -0.0000000000 a.u.
        total same-spin energy     =        -1.2403297002 a.u.
        total opposite-spin energy =        -3.3983866384 a.u.

 Total  RIMP2   correlation energy =        -4.6387163386 a.u.
        RIMP2         total energy =     -1575.2849532309 a.u.

 RI-MP2 Energy Time:  CPU 1790.04 s  wall 31.84 s
 
 --------------------------------------------------------------
 
                    Orbital Energies (a.u.)
 --------------------------------------------------------------
 
 Alpha MOs
 -- Occupied --
-91.9753 -20.5606 -20.5591 -20.5572 -20.5544 -15.6328 -15.6318 -11.4013
-11.4004 -11.3923 -11.3915 -11.3221 -11.3027 -11.3017 -11.3001 -11.2957
-11.2940 -11.2899 -11.2881 -11.2837 -11.2794 -11.2791 -11.2674 -11.2659
-11.2650 -11.2607 -11.2424  -8.9750  -6.6554  -6.6539  -6.6530  -1.4355
 -1.4255  -1.4084  -1.4049  -1.2706  -1.2669  -1.2175  -1.1720  -1.1425
 -1.1172  -1.0620  -1.0502  -0.9936  -0.9900  -0.9800  -0.9598  -0.9469
 -0.8982  -0.8810  -0.8787  -0.8640  -0.7937  -0.7792  -0.7778  -0.7596
 -0.7325  -0.7291  -0.7026  -0.6934  -0.6896  -0.6747  -0.6688  -0.6638
 -0.6579  -0.6415  -0.6391  -0.6369  -0.6275  -0.6150  -0.5847  -0.5836
 -0.5813  -0.5764  -0.5715  -0.5653  -0.5617  -0.5568  -0.5565  -0.5496
 -0.5330  -0.5255  -0.5216  -0.5193  -0.4901  -0.4724  -0.4697  -0.4638
 -0.4572  -0.4330  -0.4210  -0.4104  -0.3842  -0.3756  -0.3428  -0.3377
 -0.2950
 -- Virtual --
 -0.0199   0.0552   0.0668   0.1083   0.1235   0.1558   0.1575   0.1605
  0.1662   0.1805   0.1814   0.1858   0.1886   0.2019   0.2073   0.2155
  0.2265   0.2273   0.2281   0.2366   0.2576   0.2614   0.2708   0.2737
  0.2772   0.3085   0.3119   0.3153   0.3256   0.3305   0.3342   0.3388
  0.3455   0.3514   0.3545   0.3571   0.3614   0.3656   0.3745   0.3808
  0.3830   0.3896   0.3953   0.3965   0.4032   0.4104   0.4107   0.4196
  0.4248   0.4346   0.4375   0.4413   0.4432   0.4451   0.4558   0.4574
  0.4597   0.4645   0.4703   0.4726   0.4759   0.4802   0.4886   0.4964
  0.5034   0.5082   0.5106   0.5162   0.5210   0.5270   0.5287   0.5322
  0.5370   0.5395   0.5489   0.5534   0.5574   0.5608   0.5642   0.5679
  0.5750   0.5789   0.5839   0.5855   0.5897   0.5971   0.6011   0.6030
  0.6044   0.6079   0.6113   0.6175   0.6225   0.6237   0.6259   0.6274
  0.6349   0.6372   0.6384   0.6428   0.6456   0.6592   0.6651   0.6763
  0.6852   0.6911   0.6961   0.7002   0.7065   0.7127   0.7224   0.7330
  0.7374   0.7393   0.7451   0.7547   0.7564   0.7624   0.7667   0.7689
  0.7788   0.7831   0.7962   0.7976   0.8088   0.8100   0.8193   0.8211
  0.8327   0.8383   0.8409   0.8451   0.8505   0.8548   0.8648   0.8654
  0.8660   0.8726   0.8817   0.8844   0.8936   0.8979   0.9012   0.9093
  0.9183   0.9219   0.9251   0.9289   0.9321   0.9389   0.9415   0.9477
  0.9534   0.9573   0.9635   0.9652   0.9715   0.9750   0.9835   0.9892
  0.9979   1.0043   1.0053   1.0086   1.0177   1.0220   1.0232   1.0311
  1.0427   1.0442   1.0607   1.0641   1.0671   1.0706   1.0728   1.0787
  1.0801   1.0808   1.0903   1.0959   1.0990   1.1003   1.1063   1.1117
  1.1169   1.1288   1.1345   1.1402   1.1430   1.1474   1.1551   1.1633
  1.1653   1.1719   1.1809   1.1828   1.1861   1.1931   1.2006   1.2020
  1.2095   1.2112   1.2196   1.2214   1.2269   1.2305   1.2359   1.2396
  1.2442   1.2554   1.2580   1.2661   1.2699   1.2761   1.2883   1.3082
  1.3179   1.3204   1.3274   1.3325   1.3347   1.3434   1.3604   1.3651
  1.3684   1.3798   1.3825   1.3858   1.3919   1.3954   1.4159   1.4187
  1.4248   1.4308   1.4314   1.4403   1.4544   1.4622   1.4688   1.4740
  1.4794   1.4821   1.4870   1.4935   1.4957   1.5096   1.5113   1.5269
  1.5330   1.5391   1.5408   1.5519   1.5581   1.5596   1.5675   1.5708
  1.5740   1.5782   1.5865   1.5895   1.6078   1.6097   1.6276   1.6356
  1.6381   1.6471   1.6539   1.6549   1.6690   1.6812   1.6866   1.7003
  1.7032   1.7144   1.7259   1.7291   1.7308   1.7357   1.7485   1.7536
  1.7627   1.7701   1.7742   1.7846   1.7912   1.8002   1.8057   1.8221
  1.8287   1.8307   1.8441   1.8474   1.8557   1.8610   1.8650   1.8765
  1.8819   1.8893   1.9110   1.9133   1.9228   1.9348   1.9441   1.9459
  1.9618   1.9704   1.9731   2.0021   2.0036   2.0279   2.0314   2.0369
  2.0601   2.0812   2.0891   2.1084   2.1118   2.1170   2.1363   2.1438
  2.1549   2.1677   2.1798   2.2003   2.2107   2.2197   2.2227   2.2366
  2.2479   2.2542   2.2737   2.2829   2.2862   2.2973   2.2991   2.3203
  2.3276   2.3364   2.3379   2.3582   2.3599   2.3657   2.3806   2.4059
  2.4078   2.4330   2.4408   2.4425   2.4533   2.4580   2.4616   2.4790
  2.4845   2.4971   2.5042   2.5080   2.5204   2.5230   2.5311   2.5453
  2.5567   2.5680   2.5837   2.5874   2.5947   2.5967   2.6074   2.6154
  2.6186   2.6261   2.6481   2.6510   2.6603   2.6639   2.6652   2.6709
  2.6776   2.6864   2.6931   2.7053   2.7183   2.7241   2.7283   2.7395
  2.7403   2.7463   2.7499   2.7632   2.7695   2.7754   2.7882   2.7973
  2.7984   2.8139   2.8227   2.8288   2.8428   2.8520   2.8550   2.8577
  2.8706   2.8744   2.8790   2.8851   2.8949   2.8954   2.8991   2.9118
  2.9177   2.9275   2.9292   2.9423   2.9520   2.9577   2.9630   2.9728
  2.9751   2.9787   2.9838   2.9979   3.0016   3.0072   3.0134   3.0204
  3.0236   3.0397   3.0467   3.0510   3.0512   3.0562   3.0742   3.0788
  3.0873   3.0945   3.0971   3.1012   3.1059   3.1111   3.1151   3.1193
  3.1276   3.1297   3.1346   3.1598   3.1703   3.1756   3.1785   3.1861
  3.1932   3.1945   3.2044   3.2082   3.2183   3.2205   3.2226   3.2255
  3.2292   3.2355   3.2393   3.2498   3.2520   3.2528   3.2622   3.2637
  3.2686   3.2738   3.2823   3.2873   3.2938   3.2977   3.2995   3.3001
  3.3073   3.3089   3.3161   3.3193   3.3237   3.3255   3.3336   3.3395
  3.3410   3.3453   3.3478   3.3603   3.3611   3.3675   3.3695   3.3748
  3.3850   3.3891   3.3946   3.3959   3.4007   3.4048   3.4122   3.4176
  3.4239   3.4343   3.4379   3.4437   3.4457   3.4485   3.4545   3.4604
  3.4634   3.4670   3.4721   3.4744   3.4813   3.4873   3.4923   3.4975
  3.4995   3.5034   3.5089   3.5116   3.5156   3.5211   3.5238   3.5277
  3.5322   3.5338   3.5406   3.5478   3.5562   3.5587   3.5773   3.5829
  3.5909   3.5976   3.5992   3.6033   3.6138   3.6168   3.6254   3.6308
  3.6365   3.6387   3.6408   3.6521   3.6572   3.6683   3.6772   3.6775
  3.6805   3.6857   3.6899   3.7025   3.7056   3.7084   3.7107   3.7234
  3.7336   3.7362   3.7411   3.7453   3.7501   3.7571   3.7603   3.7692
  3.7796   3.7822   3.7866   3.7901   3.7954   3.7974   3.7995   3.8082
  3.8215   3.8252   3.8329   3.8351   3.8401   3.8446   3.8545   3.8588
  3.8653   3.8692   3.8743   3.8881   3.8921   3.9042   3.9124   3.9259
  3.9338   3.9394   3.9428   3.9451   3.9475   3.9556   3.9800   3.9849
  3.9891   4.0009   4.0133   4.0144   4.0210   4.0274   4.0422   4.0491
  4.0569   4.0636   4.0685   4.0809   4.0857   4.1040   4.1074   4.1151
  4.1188   4.1338   4.1367   4.1423   4.1438   4.1602   4.1620   4.1746
  4.1764   4.1878   4.1913   4.2051   4.2067   4.2166   4.2340   4.2385
  4.2469   4.2573   4.2734   4.2758   4.2762   4.2796   4.2848   4.2904
  4.2977   4.3009   4.3032   4.3119   4.3314   4.3337   4.3377   4.3434
  4.3529   4.3570   4.3639   4.3663   4.3702   4.3713   4.3753   4.3902
  4.3957   4.3996   4.4050   4.4129   4.4146   4.4203   4.4257   4.4462
  4.4581   4.4659   4.4727   4.4845   4.5069   4.5108   4.5141   4.5199
  4.5239   4.5304   4.5408   4.5466   4.5514   4.5565   4.5697   4.5756
  4.5800   4.5822   4.5897   4.6006   4.6161   4.6172   4.6259   4.6327
  4.6433   4.6603   4.6668   4.6716   4.6744   4.6849   4.6901   4.6964
  4.7114   4.7253   4.7356   4.7364   4.7671   4.7750   4.7783   4.7861
  4.8235   4.8277   4.8311   4.8366   4.8574   4.8681   4.8711   4.8804
  4.8995   4.9185   4.9285   4.9423   4.9535   4.9767   4.9826   4.9887
  5.0056   5.0143   5.0303   5.0395   5.0486   5.0527   5.0593   5.0608
  5.1002   5.1051   5.1092   5.1131   5.1247   5.1379   5.1464   5.1587
  5.1743   5.1785   5.1920   5.1973   5.2078   5.2418   5.2518   5.2547
  5.2707   5.2758   5.2950   5.2972   5.3055   5.3230   5.3299   5.3590
  5.3614   5.3939   5.3981   5.4013   5.4297   5.4326   5.4492   5.4525
  5.4885   5.5079   5.5082   5.5108   5.5165   5.5432   5.5506   5.5522
  5.5593   5.5632   5.5707   5.5767   5.5809   5.5914   5.6071   5.6154
  5.6283   5.6355   5.6515   5.6536   5.6680   5.6758   5.6783   5.6907
  5.6994   5.7153   5.7366   5.7531   5.7552   5.7577   5.7656   5.7716
  5.7858   5.7896   5.8202   5.8339   5.8737   5.8943   5.9132   5.9404
  5.9516   5.9715   6.0195   6.0210   6.0268   6.0275   6.0500   6.0662
  6.0836   6.0990   6.1077   6.1136   6.1443   6.1872   6.2087   6.2114
  6.2170   6.2205   6.2276   6.2693   6.2784   6.2910   6.3177   6.3518
  6.3545   6.3743   6.4465   6.4620   6.4903   6.5319   6.5595   6.5640
  6.5900   6.6279   6.6413   6.6448   6.6568   6.6914   6.7240   6.8347
  6.8412   6.8838   6.8853   6.8960   6.9105   6.9332   6.9593   7.0795
  7.1341   7.1490   7.1865   7.2155   7.2980   7.3316   7.3387   7.3428
  7.3478   7.4675   7.5480   7.5578   7.5752   7.5807   7.6340   7.6485
  7.6774   7.7116   7.7656   8.4617   9.9290  10.3634  11.1917  11.2477
 11.7053  11.7872  12.0201  12.3997  12.4761  12.7911  12.8671  12.9474
 13.4313  13.5430  13.8204  13.9400  14.0550  14.2060  14.3352  14.3850
 14.5434  14.7595  15.3541  15.7650  15.9985
 --------------------------------------------------------------
 
          Ground-State Mulliken Net Atomic Charges

     Atom                 Charge (a.u.)
  ----------------------------------------
      1 C                    -0.146637
      2 C                    -0.111797
      3 C                    -0.028398
      4 C                    -0.001533
      5 H                     0.188078
      6 C                     0.004675
      7 C                     0.081848
      8 C                     0.000601
      9 C                    -0.082299
     10 C                    -0.132052
     11 C                     0.065457
     12 H                     0.183743
     13 C                     0.359013
     14 C                     0.363712
     15 N                    -0.101857
     16 C                     0.359213
     17 C                     0.375531
     18 N                    -0.091428
     19 O                    -0.463662
     20 O                    -0.476728
     21 O                    -0.481971
     22 O                    -0.440410
     23 C                    -0.201137
     24 H                     0.141308
     25 H                     0.112461
     26 H                     0.112492
     27 C                    -0.198995
     28 H                     0.135491
     29 H                     0.113767
     30 H                     0.113697
     31 H                     0.212596
     32 C                    -0.003348
     33 S                     0.098227
     34 C                    -0.233250
     35 C                    -0.161339
     36 C                    -0.240825
     37 H                     0.187226
     38 H                     0.182844
     39 H                     0.205684
  ----------------------------------------
  Sum of atomic charges =     0.000000

 -----------------------------------------------------------------
                    Cartesian Multipole Moments
 -----------------------------------------------------------------
    Charge (ESU x 10^10)
                 0.0000
    Dipole Moment (Debye)
         X       0.2848      Y       0.9243      Z      -0.1395
       Tot       0.9772
    Quadrupole Moments (Debye-Ang)
        XX    -163.8340     XY       1.6770     YY    -170.3259
        XZ       0.1983     YZ       0.1257     ZZ    -175.5085
    Octopole Moments (Debye-Ang^2)
       XXX     -26.9313    XXY     464.8906    XYY      -2.3284
       YYY    1605.9712    XXZ     -33.1137    XYZ       1.1521
       YYZ     -23.7185    XZZ      -6.4957    YZZ     557.4079
       ZZZ    -101.4268
    Hexadecapole Moments (Debye-Ang^3)
      XXXX    -208.1453   XXXY     -47.3362   XXYY   -2694.6879
      XYYY     -15.5193   YYYY  -17281.4888   XXXZ      -8.2781
      XXYZ    -134.8110   XYYZ       2.8391   YYYZ    -792.4009
      XXZZ   -1063.7934   XYZZ      -7.9367   YYZZ   -4252.9850
      XZZZ      -6.5530   YZZZ     -40.2082   ZZZZ   -6424.6319
 -----------------------------------------------------------------
 Total job time:  267.57s(wall), 7730.92s(cpu) 
 Fri Dec 15 14:55:45 2023

        *************************************************************
        *                                                           *
        *  Thank you very much for using Q-Chem.  Have a nice day.  *
        *                                                           *
        *************************************************************


0 sent ACK to 0 
now end server 0 ... 
cleanup process ... done
remove work dirs ./qchem398167.0 -- ./qchem398167.0
rm -rf ./qchem398167.0
rm -rf ./qchem398167
