You are running Q-Chem version: 5.4.0

#
# job setting
#
local host:  exp-1-10
current dir: /home/rramji/project-csd799/aromodel/pndit-qchem/rotation_run
input file:  Dimethyl_Naphthalene_Dicarboximide_Phi_0_Theta_200_Thiophene.qcin
output file: 
nprocs     : 1
nthreads   : 64
#
# qchem installation setting
#
QC:          /cm/shared/apps/spack/cpu/opt/spack/linux-centos8-zen2/gcc-10.2.0/qchem-5.4-akfmr7b3t57bfs6qan3padb2wnb2i7cl
QCAUX:       /cm/shared/apps/spack/cpu/opt/spack/linux-centos8-zen2/gcc-10.2.0/qchem-5.4-akfmr7b3t57bfs6qan3padb2wnb2i7cl/qcaux
QCPROG:      /cm/shared/apps/spack/cpu/opt/spack/linux-centos8-zen2/gcc-10.2.0/qchem-5.4-akfmr7b3t57bfs6qan3padb2wnb2i7cl/exe/qcprog.exe
QCPROG_S:    /cm/shared/apps/spack/cpu/opt/spack/linux-centos8-zen2/gcc-10.2.0/qchem-5.4-akfmr7b3t57bfs6qan3padb2wnb2i7cl/exe/qcprog.exe_s
PARALLEL:    -DPARALLEL
QCMPI:       mpich
#
# qchem directory setting
#
qcrun:       qchem4038502
QCSCRATCH:   .
QCLOCALSCR:  
QCTMPDIR:    .
QCFILEPREF:  ./qchem4038502
QCSAVEDIR:   
workdirs:    ./qchem4038502
workdir0:    ./qchem4038502
partmpdirs =  
#
# parallel setting
#
QCRSH:           ssh
QCMPI:           mpich
QCMPIRUN:        /cm/shared/apps/spack/cpu/opt/spack/linux-centos8-zen2/gcc-10.2.0/qchem-5.4-akfmr7b3t57bfs6qan3padb2wnb2i7cl/bin/mpi/mpirun_qchem
QCMACHINEFILE:   ./qchem4038502/hostfile
exp-1-10

#
# env setting
#
exported envs:   QC QCAUX QCSCRATCH QCRUNNAME QCFILEPREF QCPROG QCPROG_S GUIFILE

Running Job 1 of 1 Dimethyl_Naphthalene_Dicarboximide_Phi_0_Theta_200_Thiophene.qcin
qchem Dimethyl_Naphthalene_Dicarboximide_Phi_0_Theta_200_Thiophene.qcin_4038502.0 ./qchem4038502/ 1
/cm/shared/apps/spack/cpu/opt/spack/linux-centos8-zen2/gcc-10.2.0/qchem-5.4-akfmr7b3t57bfs6qan3padb2wnb2i7cl/bin/mpi/mpirun_qchem -machinefile ./qchem4038502/hostfile -np 1 /cm/shared/apps/spack/cpu/opt/spack/linux-centos8-zen2/gcc-10.2.0/qchem-5.4-akfmr7b3t57bfs6qan3padb2wnb2i7cl/exe/qcprog.exe Dimethyl_Naphthalene_Dicarboximide_Phi_0_Theta_200_Thiophene.qcin_4038502.0 ./qchem4038502/

Process 0 of 1 is on exp-1-10 - thread support 0
initial socket setup ...start
initial socket setup ...done 
now start server 0 ... 
                  Welcome to Q-Chem
     A Quantum Leap Into The Future Of Chemistry


 Q-Chem 5.4, Q-Chem, Inc., Pleasanton, CA (2021)

 License issued to: University of California, San Diego (site)

 E. Epifanovsky,  A. T. B. Gilbert,  Xintian Feng,  Joonho Lee,  Yuezhi Mao,  
 N. Mardirossian,  P. Pokhilko,  A. White,  M. Wormit,  M. P. Coons,  
 A. L. Dempwolff,  Zhengting Gan,  D. Hait,  P. R. Horn,  L. D. Jacobson,  
 I. Kaliman,  J. Kussmann,  A. W. Lange,  Ka Un Lao,  D. S. Levine,  Jie Liu,  
 S. C. McKenzie,  A. F. Morrison,  K. Nanda,  F. Plasser,  D. R. Rehn,  
 M. L. Vidal,  Zhi-Qiang You,  Ying Zhu,  B. Alam,  B. Albrecht,  
 A. Aldossary,  E. Alguire,  J. H. Andersen,  D. Barton,  K. Begam,  A. Behn,  
 Y. A. Bernard,  E. J. Berquist,  H. Burton,  A. Carreras,  K. Carter-Fenk,  
 R. Chakraborty,  A. D. Chien,  K. D. Closser,  V. Cofer-Shabica,  
 S. Dasgupta,  Jia Deng,  M. de Wergifosse,  M. Diedenhofen,  Hainam Do,  
 S. Ehlert,  Po-Tung Fang,  S. Fatehi,  Qingguo Feng,  J. Gayvert,  
 Qinghui Ge,  G. Gidofalvi,  M. Goldey,  J. Gomes,  C. Gonzalez-Espinoza,  
 S. Gulania,  A. Gunina,  M. W. D. Hanson-Heine,  P. H. P. Harbach,  
 A. W. Hauser,  M. F. Herbst,  M. Hernandez Vera,  M. Hodecker,  
 Z. C. Holden,  S. Houck,  Xunkun Huang,  Kerwin Hui,  B. C. Huynh,  
 M. Ivanov,  Hyunjun Ji,  Hanjie Jiang,  B. Kaduk,  S. Kaehler,  
 K. Khistyaev,  Jaehoon Kim,  P. Klunzinger,  Z. Koczor-Benda,  
 Joong Hoon Koh,  D. Kosenkov,  L. Koulias,  T. Kowalczyk,  C. M. Krauter,  
 K. Kue,  A. Kunitsa,  T. Kus,  A. Landau,  K. V. Lawler,  D. Lefrancois,  
 S. Lehtola,  Rain Li,  Yi-Pei Li,  Jiashu Liang,  M. Liebenthal,  
 Hung-Hsuan Lin,  You-Sheng Lin,  Fenglai Liu,  Kuan-Yu Liu,  
 M. Loipersberger,  A. Luenser,  A. Manjanath,  P. Manohar,  E. Mansoor,  
 S. F. Manzer,  Shan-Ping Mao,  A. V. Marenich,  T. Markovich,  S. Mason,  
 S. A. Maurer,  P. F. McLaughlin,  M. F. S. J. Menger,  J.-M. Mewes,  
 S. A. Mewes,  P. Morgante,  J. W. Mullinax,  T. S. Nguyen-Beck,  
 K. J. Oosterbaan,  G. Paran,  Alexander C. Paul,  Suranjan K. Paul,  
 F. Pavosevic,  Zheng Pei,  S. Prager,  E. I. Proynov,  E. Ramos,  B. Rana,  
 A. E. Rask,  A. Rettig,  R. M. Richard,  F. Rob,  E. Rossomme,  T. Scheele,  
 M. Scheurer,  M. Schneider,  N. Sergueev,  S. M. Sharada,  W. Skomorowski,  
 D. W. Small,  C. J. Stein,  Yu-Chuan Su,  E. J. Sundstrom,  Zhen Tao,  
 J. Thirman,  T. Tsuchimochi,  N. M. Tubman,  S. P. Veccham,  O. Vydrov,  
 J. Wenzel,  J. Witte,  A. Yamada,  Kun Yao,  S. Yeganeh,  S. R. Yost,  
 A. Zech,  Igor Ying Zhang,  Xing Zhang,  Yu Zhang,  D. Zuev,  
 A. Aspuru-Guzik,  A. T. Bell,  N. A. Besley,  K. B. Bravaya,  B. R. Brooks,  
 D. Casanova,  Jeng-Da Chai,  S. Coriani,  C. J. Cramer,  
 A. E. DePrince, III,  R. A. DiStasio Jr.,  A. Dreuw,  B. D. Dunietz,  
 T. R. Furlani,  W. A. Goddard III,  S. Grimme,  S. Hammes-Schiffer,  
 T. Head-Gordon,  W. J. Hehre,  Chao-Ping Hsu,  T.-C. Jagau,  Yousung Jung,  
 A. Klamt,  Jing Kong,  D. S. Lambrecht,  WanZhen Liang,  N. J. Mayhall,  
 C. W. McCurdy,  J. B. Neaton,  C. Ochsenfeld,  J. A. Parkhill,  R. Peverati,  
 V. A. Rassolov,  Yihan Shao,  L. V. Slipchenko,  T. Stauch,  R. P. Steele,  
 J. E. Subotnik,  A. J. W. Thom,  A. Tkatchenko,  D. G. Truhlar,  
 T. Van Voorhis,  T. A. Wesolowski,  K. B. Whaley,  H. L. Woodcock III,  
 P. M. Zimmerman,  S. Faraji,  P. M. W. Gill,  M. Head-Gordon,  
 J. M. Herbert,  A. I. Krylov

 Contributors to earlier versions of Q-Chem not listed above: 
 R. D. Adamson,  B. Austin,  R. Baer,  J. Baker,  G. J. O. Beran,  
 K. Brandhorst,  S. T. Brown,  E. F. C. Byrd,  A. K. Chakraborty,  
 G. K. L. Chan,  Chun-Min Chang,  Yunqing Chen,  C.-L. Cheng,  
 Siu Hung Chien,  D. M. Chipman,  D. L. Crittenden,  H. Dachsel,  
 R. J. Doerksen,  A. D. Dutoi,  R. G. Edgar,  J. Fosso-Tande,  
 L. Fusti-Molnar,  D. Ghosh,  A. Ghysels,  A. Golubeva-Zadorozhnaya,  
 J. Gonthier,  M. S. Gordon,  S. R. Gwaltney,  G. Hawkins,  J. E. Herr,  
 A. Heyden,  S. Hirata,  E. G. Hohenstein,  G. Kedziora,  F. J. Keil,  
 C. Kelley,  Jihan Kim,  R. A. King,  R. Z. Khaliullin,  P. P. Korambath,  
 W. Kurlancheek,  A. Laurent,  A. M. Lee,  M. S. Lee,  S. V. Levchenko,  
 Ching Yeh Lin,  D. Liotard,  E. Livshits,  R. C. Lochan,  I. Lotan,  
 L. A. Martinez-Martinez,  P. E. Maslen,  N. Nair,  D. P. O'Neill,  
 D. Neuhauser,  E. Neuscamman,  C. M. Oana,  R. Olivares-Amaya,  R. Olson,  
 T. M. Perrine,  B. Peters,  P. A. Pieniazek,  A. Prociuk,  Y. M. Rhee,  
 J. Ritchie,  M. A. Rohrdanz,  E. Rosta,  N. J. Russ,  H. F. Schaefer III,  
 M. W. Schmidt,  N. E. Schultz,  S. Sharma,  N. Shenvi,  C. D. Sherrill,  
 A. C. Simmonett,  A. Sodt,  T. Stein,  D. Stuck,  K. S. Thanthiriwatte,  
 V. Vanovschi,  L. Vogt,  Tao Wang,  A. Warshel,  M. A. Watson,  
 C. F. Williams,  Q. Wu,  X. Xu,  Jun Yang,  W. Zhang,  Yan Zhao

 Please cite Q-Chem as follows:
 Y. Shao et al., Mol. Phys. 113, 184-215 (2015)
 DOI: 10.1080/00268976.2014.952696

 Q-Chem 5.4.0 for Intel X86 EM64T Linux

 Parts of Q-Chem use Armadillo 9.800.1 (Horizon Scraper).
 http://arma.sourceforge.net/

 Q-Chem begins on Fri Dec 15 14:59:51 2023  

 Host: 
0

     Scratch files written to ./qchem4038502//
 May1621 |scratch|qcdevops|jenkins|workspace|build_RNUM    
 Parallel job on  1  processors
 Processing $rem in /cm/shared/apps/spack/cpu/opt/spack/linux-centos8-zen2/gcc-10.2.0/qchem-5.4-akfmr7b3t57bfs6qan3padb2wnb2i7cl/config/preferences:
 Processing $rem in /home/rramji/.qchemrc:
 Symmetry turned off for PCM/SM12/SMD calculation
 Core orbitals will be frozen

 Checking the input file for inconsistencies... 	...done.

 Q-Chem warning in module forms1/BasisType.C, line 2236:

 You are not using the predefined 5D/6D in this basis set.


--------------------------------------------------------------
User input:
--------------------------------------------------------------
$molecule
0 1
C	-0.086486	-6.741404	0.241938
C	-0.532960	-6.155638	1.468983
C	0.284733	-5.791452	-0.776651
C	-0.628455	-4.803786	1.730681
H	-0.833086	-6.821518	2.294130
C	0.184300	-4.378638	-0.502775
C	-0.271086	-3.838032	0.747353
C	0.541191	-3.413062	-1.484986
C	-0.370703	-2.426473	1.019042
C	0.446468	-2.059348	-1.226525
C	-0.000000	-1.478216	-0.000000
H	0.746717	-1.394783	-2.052666
C	0.779832	-6.187987	-2.131549
C	1.030596	-3.798164	-2.829295
N	1.115461	-5.170003	-3.057496
C	-1.119034	-4.424987	3.078712
C	-0.865151	-2.036627	2.375300
N	-1.201176	-3.049156	3.301374
O	0.916355	-7.353131	-2.498300
O	1.345486	-2.986854	-3.697195
O	-1.430379	-5.248946	3.936224
O	-1.007714	-0.878829	2.762805
C	1.599576	-5.563799	-4.384539
H	1.616121	-6.664085	-4.426636
H	2.611458	-5.147101	-4.550487
H	0.931037	-5.148785	-5.162921
C	-1.677382	-2.587487	4.608454
H	-1.896168	-3.483329	5.212668
H	-2.583531	-1.964972	4.482719
H	-0.903674	-1.962932	5.093988
H	-0.022586	-7.822318	0.067309
C	0.000000	0.000000	0.000000
S	-0.000201	0.793171	1.580530
C	-0.000228	2.430885	0.904911
C	-0.000168	0.997990	-0.985400
C	-0.000267	2.318231	-0.493528
H	-0.000145	0.762343	-2.059934
H	-0.000339	3.199164	-1.152593
H	-0.000311	3.311566	1.556025
$end

$rem
JOBTYPE		SP
EXCHANGE	HF
CORRELATION	pRIMP2
BASIS		cc-pvtz
METHOD		rimp2
AUX_BASIS	rimp2-cc-pvtz
SOLVENT_METHOD	PCM
PURECART	11111
SYMMETRY	false
MEM_TOTAL	110000
SCF_CONVERGENCE = 6
THRESH=10
GUI = 2
$end



$solvent
dielectric 4.90
$end
--------------------------------------------------------------
 ----------------------------------------------------------------
             Standard Nuclear Orientation (Angstroms)
    I     Atom           X                Y                Z
 ----------------------------------------------------------------
    1      C      -0.0864860000    -6.7414040000     0.2419380000
    2      C      -0.5329600000    -6.1556380000     1.4689830000
    3      C       0.2847330000    -5.7914520000    -0.7766510000
    4      C      -0.6284550000    -4.8037860000     1.7306810000
    5      H      -0.8330860000    -6.8215180000     2.2941300000
    6      C       0.1843000000    -4.3786380000    -0.5027750000
    7      C      -0.2710860000    -3.8380320000     0.7473530000
    8      C       0.5411910000    -3.4130620000    -1.4849860000
    9      C      -0.3707030000    -2.4264730000     1.0190420000
   10      C       0.4464680000    -2.0593480000    -1.2265250000
   11      C       0.0000000000    -1.4782160000     0.0000000000
   12      H       0.7467170000    -1.3947830000    -2.0526660000
   13      C       0.7798320000    -6.1879870000    -2.1315490000
   14      C       1.0305960000    -3.7981640000    -2.8292950000
   15      N       1.1154610000    -5.1700030000    -3.0574960000
   16      C      -1.1190340000    -4.4249870000     3.0787120000
   17      C      -0.8651510000    -2.0366270000     2.3753000000
   18      N      -1.2011760000    -3.0491560000     3.3013740000
   19      O       0.9163550000    -7.3531310000    -2.4983000000
   20      O       1.3454860000    -2.9868540000    -3.6971950000
   21      O      -1.4303790000    -5.2489460000     3.9362240000
   22      O      -1.0077140000    -0.8788290000     2.7628050000
   23      C       1.5995760000    -5.5637990000    -4.3845390000
   24      H       1.6161210000    -6.6640850000    -4.4266360000
   25      H       2.6114580000    -5.1471010000    -4.5504870000
   26      H       0.9310370000    -5.1487850000    -5.1629210000
   27      C      -1.6773820000    -2.5874870000     4.6084540000
   28      H      -1.8961680000    -3.4833290000     5.2126680000
   29      H      -2.5835310000    -1.9649720000     4.4827190000
   30      H      -0.9036740000    -1.9629320000     5.0939880000
   31      H      -0.0225860000    -7.8223180000     0.0673090000
   32      C       0.0000000000     0.0000000000     0.0000000000
   33      S      -0.0002010000     0.7931710000     1.5805300000
   34      C      -0.0002280000     2.4308850000     0.9049110000
   35      C      -0.0001680000     0.9979900000    -0.9854000000
   36      C      -0.0002670000     2.3182310000    -0.4935280000
   37      H      -0.0001450000     0.7623430000    -2.0599340000
   38      H      -0.0003390000     3.1991640000    -1.1525930000
   39      H      -0.0003110000     3.3115660000     1.5560250000
 ----------------------------------------------------------------
 Nuclear Repulsion Energy =        2510.04757126 hartrees
 There are       97 alpha and       97 beta electrons
 Requested basis set is cc-pVTZ
 There are 344 shells and 982 basis functions

 Total QAlloc Memory Limit 110000 MB
 Mega-Array Size       188 MB
 MEM_STATIC part       192 MB
 Discretize the solute cavity surface with Lebedev spheres
	Using 110 Lebedev grid points for each H atom
	Using 194 Lebedev grid points for other atoms
	Atomic van der Waals radii will be scaled by 1.20
 Remove points where switching function is < 1.0e-08
 Keep 2516 surface tesserae and discard 4042 interior tesserae
 Molecular Surface Area = 360.138 Angst**2
 Requested basis set is rimp2-cc-pVTZ
 There are 750 shells and 2588 basis functions
 A cutoff of  1.0D-10 yielded  31685 shell pairs
 There are    244075 function pairs (    317102 Cartesian)
 Smallest overlap matrix eigenvalue = 9.88E-06

 Q-Chem warning in module stvman/mkSTV.C, line 323:

 Overlap eigenvalue is smaller than square root of threshold
 Use THRESH >= 12 to get rid of this warning


 Scale SEOQF with 1.000000e-01/1.000000e-02/1.000000e-01

 Standard Electronic Orientation quadrupole field applied
 Nucleus-field energy     =    -0.0000000975 hartrees
 Guess from superposition of atomic densities
 Warning:  Energy on first SCF cycle will be non-variational
 SAD guess density has 194.000000 electrons

 -----------------------------------------------------------------------
  General SCF calculation program by
  Eric Jon Sundstrom, Paul Horn, Yuezhi Mao, Dmitri Zuev, Alec White,
  David Stuck, Shaama M.S., Shane Yost, Joonho Lee, David Small,
  Daniel Levine, Susi Lehtola, Hugh Burton, Evgeny Epifanovsky,
  Bang C. Huynh
 -----------------------------------------------------------------------
 Hartree-Fock
 using 64 threads for integral computing
 -------------------------------------------------------
 OpenMP Integral computing Module                
 Release: version 1.0, May 2013, Q-Chem Inc. Pittsburgh 
 -------------------------------------------------------
 A restricted SCF calculation will be
 performed using DIIS
 SCF converges when DIIS error is below 1.0e-06
 ---------------------------------------
  Cycle       Energy         DIIS error
 ---------------------------------------
    1   -1581.4067589702      1.87e-02  
    2   -1570.0945481266      2.08e-03  
    3   -1570.4198230240      1.61e-03  
    4   -1570.6470997367      2.59e-04  
    5   -1570.6592440881      7.65e-05  
    6   -1570.6603052607      2.81e-05  
    7   -1570.6605517499      1.44e-05  
    8   -1570.6606320703      5.85e-06  
    9   -1570.6606450375      2.29e-06  
   10   -1570.6606472821      8.00e-07  Convergence criterion met
 ---------------------------------------
 SCF time:   CPU 5805.66s  wall 230.00s 

************** Final PCM Free Energy Summary **************
 G_electrostatic  =      -0.02237719 hartree =     -14.04189976 kcal/mol
 G_cavitation     =       0.00000000 hartree =       0.00000000 kcal/mol
 G_dispersion     =       0.00000000 hartree =       0.00000000 kcal/mol
 G_repulsion      =       0.00000000 hartree =       0.00000000 kcal/mol
 --------------------------------------------------
 Non-electrostatic Free Energy =       0.00000000 hartree =       0.00000000 kcal/mol
 Total                         =      -0.02237719 hartree =     -14.04189976 kcal/mol
 --------------------------------------------------
 SCF Energy (H0 + V/2)                       =   -1570.66064728 
 Solute Internal Energy (H0)                 =   -1570.63827009 
 Total Free Energy (H0 + V/2 + non-elec)     =   -1570.66064728 hartree
                                             = -985604.43189648 kcal/mol
***********************************************************

 SCF   energy in the final basis set =    -1570.6606472821
 Total energy in the final basis set =    -1570.6606472821


 --------------------------------------------------------------
  Generalized many-body perturbation theory program
  by Joonho Lee, Fazle Rob, Xintian Feng, Evgeny Epifanovsky

 No regularization used 
 (reg. param. = 0.0000e+00)
  (P|Q)^-1/2 Time:  CPU 204.06 s  wall 3.32 s

 In RI-MP2 calculation: 
 # of frozen core orbitals: 31

 Components of the RIMP2 correlation energy:
        aaaa    correlation energy =        -0.6194340810 a.u.
        abab    correlation energy =        -3.3970892048 a.u.
        bbbb    correlation energy =        -0.6194340810 a.u.
        non-Brillouin singles      =        -0.0000000000 a.u.
        total same-spin energy     =        -1.2388681619 a.u.
        total opposite-spin energy =        -3.3970892048 a.u.

 Total  RIMP2   correlation energy =        -4.6359573668 a.u.
        RIMP2         total energy =     -1575.2966046488 a.u.

 RI-MP2 Energy Time:  CPU 1928.22 s  wall 33.85 s
 
 --------------------------------------------------------------
 
                    Orbital Energies (a.u.)
 --------------------------------------------------------------
 
 Alpha MOs
 -- Occupied --
-91.9794 -20.5590 -20.5570 -20.5564 -20.5544 -15.6318 -15.6316 -11.4003
-11.3992 -11.3921 -11.3913 -11.3206 -11.3026 -11.3016 -11.3005 -11.2961
-11.2948 -11.2896 -11.2876 -11.2841 -11.2796 -11.2787 -11.2746 -11.2653
-11.2649 -11.2598 -11.2428  -8.9791  -6.6595  -6.6585  -6.6578  -1.4302
 -1.4253  -1.4067  -1.4047  -1.2690  -1.2665  -1.2173  -1.1721  -1.1428
 -1.1171  -1.0621  -1.0499  -0.9933  -0.9888  -0.9807  -0.9594  -0.9471
 -0.8974  -0.8804  -0.8782  -0.8631  -0.7938  -0.7780  -0.7761  -0.7598
 -0.7323  -0.7237  -0.7030  -0.6932  -0.6883  -0.6744  -0.6675  -0.6632
 -0.6574  -0.6406  -0.6386  -0.6364  -0.6279  -0.6144  -0.5842  -0.5818
 -0.5815  -0.5734  -0.5700  -0.5651  -0.5634  -0.5562  -0.5558  -0.5492
 -0.5332  -0.5233  -0.5222  -0.5195  -0.4879  -0.4728  -0.4671  -0.4638
 -0.4572  -0.4331  -0.4221  -0.4117  -0.4072  -0.3741  -0.3375  -0.3358
 -0.2974
 -- Virtual --
 -0.0208   0.0561   0.0685   0.1069   0.1273   0.1553   0.1578   0.1599
  0.1662   0.1778   0.1817   0.1837   0.1865   0.2006   0.2072   0.2124
  0.2265   0.2271   0.2282   0.2364   0.2547   0.2559   0.2645   0.2681
  0.2749   0.3075   0.3130   0.3152   0.3261   0.3288   0.3327   0.3397
  0.3432   0.3514   0.3527   0.3557   0.3610   0.3618   0.3724   0.3766
  0.3824   0.3867   0.3934   0.3947   0.4002   0.4070   0.4119   0.4142
  0.4263   0.4271   0.4343   0.4402   0.4450   0.4464   0.4513   0.4584
  0.4607   0.4630   0.4692   0.4768   0.4777   0.4797   0.4905   0.4949
  0.5058   0.5088   0.5101   0.5151   0.5173   0.5208   0.5256   0.5325
  0.5379   0.5408   0.5497   0.5538   0.5542   0.5603   0.5631   0.5690
  0.5727   0.5764   0.5826   0.5855   0.5910   0.5945   0.5997   0.6021
  0.6050   0.6074   0.6129   0.6167   0.6211   0.6243   0.6259   0.6292
  0.6339   0.6361   0.6384   0.6402   0.6456   0.6555   0.6669   0.6698
  0.6816   0.6878   0.6956   0.6983   0.7054   0.7119   0.7170   0.7297
  0.7337   0.7345   0.7410   0.7516   0.7530   0.7554   0.7624   0.7698
  0.7725   0.7802   0.7867   0.8017   0.8076   0.8114   0.8158   0.8210
  0.8288   0.8387   0.8414   0.8438   0.8475   0.8524   0.8598   0.8647
  0.8654   0.8671   0.8778   0.8837   0.8876   0.8931   0.9070   0.9099
  0.9125   0.9137   0.9190   0.9274   0.9289   0.9379   0.9447   0.9482
  0.9520   0.9590   0.9626   0.9692   0.9733   0.9791   0.9818   0.9888
  0.9934   0.9957   0.9977   1.0091   1.0155   1.0176   1.0260   1.0325
  1.0357   1.0457   1.0575   1.0617   1.0628   1.0685   1.0729   1.0776
  1.0808   1.0833   1.0864   1.0900   1.0914   1.1029   1.1104   1.1156
  1.1214   1.1308   1.1347   1.1401   1.1439   1.1484   1.1497   1.1579
  1.1641   1.1672   1.1734   1.1759   1.1819   1.1889   1.1942   1.2003
  1.2077   1.2119   1.2137   1.2222   1.2247   1.2311   1.2384   1.2420
  1.2446   1.2514   1.2579   1.2598   1.2674   1.2727   1.2905   1.2982
  1.3088   1.3247   1.3255   1.3331   1.3407   1.3428   1.3535   1.3573
  1.3659   1.3724   1.3804   1.3828   1.3887   1.3926   1.3987   1.4189
  1.4206   1.4341   1.4387   1.4441   1.4508   1.4530   1.4602   1.4708
  1.4757   1.4796   1.4848   1.4932   1.5001   1.5099   1.5209   1.5232
  1.5308   1.5355   1.5411   1.5466   1.5541   1.5595   1.5627   1.5655
  1.5718   1.5748   1.5834   1.5937   1.6039   1.6092   1.6215   1.6359
  1.6376   1.6479   1.6542   1.6567   1.6700   1.6760   1.6784   1.6953
  1.7016   1.7116   1.7218   1.7243   1.7331   1.7367   1.7392   1.7470
  1.7551   1.7689   1.7720   1.7789   1.7940   1.8045   1.8056   1.8175
  1.8285   1.8336   1.8426   1.8479   1.8497   1.8581   1.8624   1.8755
  1.8788   1.8897   1.9009   1.9084   1.9173   1.9265   1.9365   1.9440
  1.9533   1.9649   1.9719   1.9747   1.9796   2.0117   2.0283   2.0393
  2.0576   2.0726   2.0838   2.0970   2.1039   2.1202   2.1345   2.1440
  2.1559   2.1658   2.1778   2.1957   2.1984   2.2233   2.2267   2.2366
  2.2470   2.2590   2.2646   2.2769   2.2867   2.2927   2.2971   2.3026
  2.3248   2.3309   2.3361   2.3544   2.3628   2.3731   2.3793   2.4168
  2.4199   2.4279   2.4357   2.4442   2.4514   2.4563   2.4596   2.4759
  2.4835   2.4891   2.4957   2.5039   2.5095   2.5363   2.5388   2.5500
  2.5516   2.5703   2.5839   2.5859   2.5961   2.5989   2.6103   2.6163
  2.6191   2.6320   2.6396   2.6452   2.6536   2.6635   2.6666   2.6727
  2.6804   2.6825   2.6949   2.6982   2.7089   2.7199   2.7266   2.7360
  2.7383   2.7421   2.7506   2.7592   2.7650   2.7674   2.7714   2.7870
  2.7977   2.8089   2.8135   2.8311   2.8353   2.8467   2.8522   2.8547
  2.8682   2.8715   2.8777   2.8795   2.8877   2.8896   2.8921   2.9052
  2.9107   2.9132   2.9271   2.9320   2.9471   2.9516   2.9639   2.9722
  2.9733   2.9742   2.9870   2.9959   3.0012   3.0067   3.0123   3.0164
  3.0236   3.0351   3.0383   3.0433   3.0484   3.0589   3.0651   3.0758
  3.0813   3.0890   3.0969   3.1013   3.1046   3.1083   3.1130   3.1197
  3.1278   3.1298   3.1316   3.1563   3.1622   3.1695   3.1730   3.1795
  3.1866   3.1976   3.2043   3.2070   3.2108   3.2182   3.2220   3.2243
  3.2292   3.2312   3.2421   3.2494   3.2536   3.2567   3.2621   3.2709
  3.2754   3.2791   3.2799   3.2837   3.2846   3.2892   3.2991   3.3038
  3.3065   3.3112   3.3191   3.3216   3.3272   3.3309   3.3330   3.3398
  3.3412   3.3438   3.3461   3.3502   3.3603   3.3651   3.3684   3.3687
  3.3791   3.3848   3.3887   3.3924   3.3968   3.4024   3.4100   3.4141
  3.4228   3.4325   3.4342   3.4415   3.4451   3.4495   3.4540   3.4560
  3.4600   3.4623   3.4666   3.4742   3.4779   3.4830   3.4877   3.4932
  3.4971   3.5015   3.5086   3.5108   3.5145   3.5243   3.5271   3.5275
  3.5349   3.5394   3.5447   3.5484   3.5540   3.5647   3.5691   3.5815
  3.5872   3.5941   3.5955   3.6030   3.6130   3.6208   3.6263   3.6295
  3.6343   3.6411   3.6415   3.6482   3.6569   3.6641   3.6703   3.6779
  3.6814   3.6876   3.6946   3.7016   3.7057   3.7115   3.7142   3.7240
  3.7290   3.7326   3.7372   3.7398   3.7504   3.7552   3.7587   3.7630
  3.7750   3.7828   3.7841   3.7860   3.7939   3.7966   3.7997   3.8050
  3.8205   3.8270   3.8315   3.8391   3.8408   3.8444   3.8563   3.8593
  3.8606   3.8681   3.8741   3.8816   3.8913   3.8971   3.9181   3.9245
  3.9307   3.9331   3.9400   3.9446   3.9499   3.9538   3.9704   3.9801
  3.9845   3.9982   4.0057   4.0125   4.0221   4.0228   4.0398   4.0458
  4.0545   4.0612   4.0693   4.0852   4.0884   4.1023   4.1075   4.1110
  4.1222   4.1292   4.1322   4.1378   4.1472   4.1571   4.1641   4.1685
  4.1751   4.1869   4.1911   4.1980   4.2056   4.2172   4.2312   4.2371
  4.2469   4.2488   4.2615   4.2700   4.2748   4.2790   4.2807   4.2872
  4.2968   4.2979   4.3042   4.3053   4.3277   4.3303   4.3362   4.3425
  4.3530   4.3548   4.3625   4.3647   4.3668   4.3675   4.3720   4.3794
  4.3928   4.4008   4.4061   4.4165   4.4203   4.4250   4.4284   4.4416
  4.4519   4.4643   4.4700   4.4822   4.4946   4.5103   4.5148   4.5207
  4.5252   4.5310   4.5413   4.5447   4.5497   4.5560   4.5594   4.5731
  4.5773   4.5830   4.5886   4.5972   4.6145   4.6196   4.6230   4.6341
  4.6400   4.6609   4.6692   4.6707   4.6736   4.6821   4.6893   4.6897
  4.7107   4.7271   4.7351   4.7395   4.7597   4.7747   4.7815   4.7843
  4.8200   4.8303   4.8359   4.8396   4.8582   4.8660   4.8731   4.8819
  4.8892   4.8980   4.9190   4.9297   4.9466   4.9633   4.9701   4.9859
  5.0007   5.0144   5.0273   5.0381   5.0446   5.0503   5.0527   5.0563
  5.0980   5.1020   5.1082   5.1168   5.1246   5.1336   5.1421   5.1447
  5.1728   5.1759   5.1905   5.1932   5.2000   5.2398   5.2463   5.2560
  5.2688   5.2771   5.2891   5.2930   5.3158   5.3239   5.3317   5.3465
  5.3578   5.3876   5.3957   5.4029   5.4254   5.4313   5.4454   5.4484
  5.4885   5.5066   5.5083   5.5123   5.5155   5.5449   5.5512   5.5549
  5.5594   5.5617   5.5737   5.5758   5.5773   5.5903   5.6041   5.6061
  5.6263   5.6315   5.6519   5.6540   5.6593   5.6731   5.6763   5.6917
  5.6983   5.7112   5.7340   5.7446   5.7494   5.7576   5.7618   5.7761
  5.7791   5.7828   5.8183   5.8266   5.8613   5.8866   5.9072   5.9400
  5.9475   5.9666   6.0162   6.0219   6.0237   6.0334   6.0408   6.0652
  6.0766   6.1001   6.1053   6.1156   6.1433   6.1817   6.2084   6.2097
  6.2173   6.2191   6.2233   6.2639   6.2748   6.2817   6.3114   6.3452
  6.3518   6.3689   6.4449   6.4594   6.4811   6.5264   6.5613   6.5679
  6.5875   6.6116   6.6364   6.6463   6.6582   6.6910   6.7214   6.8336
  6.8370   6.8809   6.8856   6.8972   6.9108   6.9293   6.9878   7.0791
  7.1270   7.1451   7.1852   7.2097   7.2468   7.3320   7.3415   7.3437
  7.3582   7.4666   7.5454   7.5567   7.5738   7.5792   7.6202   7.6339
  7.6760   7.6905   7.7286   8.4177   9.9159  10.3233  11.1736  11.2641
 11.7008  11.7518  11.9804  12.3881  12.4476  12.7857  12.8571  12.9371
 13.3718  13.5481  13.8181  13.9304  14.0503  14.2068  14.3193  14.3744
 14.4838  14.7371  15.3525  15.7508  15.9718
 --------------------------------------------------------------
 
          Ground-State Mulliken Net Atomic Charges

     Atom                 Charge (a.u.)
  ----------------------------------------
      1 C                    -0.144609
      2 C                    -0.110170
      3 C                    -0.032514
      4 C                    -0.003910
      5 H                     0.188387
      6 C                     0.002037
      7 C                     0.082826
      8 C                    -0.002109
      9 C                    -0.082399
     10 C                    -0.136631
     11 C                     0.096343
     12 H                     0.182809
     13 C                     0.359707
     14 C                     0.366628
     15 N                    -0.101871
     16 C                     0.359987
     17 C                     0.381722
     18 N                    -0.094344
     19 O                    -0.463900
     20 O                    -0.476724
     21 O                    -0.481994
     22 O                    -0.456112
     23 C                    -0.201069
     24 H                     0.141213
     25 H                     0.112459
     26 H                     0.112447
     27 C                    -0.197989
     28 H                     0.134757
     29 H                     0.113434
     30 H                     0.113467
     31 H                     0.212904
     32 C                    -0.044689
     33 S                     0.090875
     34 C                    -0.213978
     35 C                    -0.148373
     36 C                    -0.240055
     37 H                     0.187831
     38 H                     0.184977
     39 H                     0.208631
  ----------------------------------------
  Sum of atomic charges =     0.000000

 -----------------------------------------------------------------
                    Cartesian Multipole Moments
 -----------------------------------------------------------------
    Charge (ESU x 10^10)
                 0.0000
    Dipole Moment (Debye)
         X      -0.2450      Y       1.1310      Z      -0.2353
       Tot       1.1809
    Quadrupole Moments (Debye-Ang)
        XX    -166.3809     XY       0.0559     YY    -169.0605
        XZ       5.8387     YZ       0.5481     ZZ    -173.8636
    Octopole Moments (Debye-Ang^2)
       XXX      16.3154    XXY     472.4833    XYY       3.8732
       YYY    1603.4010    XXZ     -32.7322    XYZ     -26.4753
       YYZ     -21.6069    XZZ       5.7694    YZZ     549.1845
       ZZZ    -100.7198
    Hexadecapole Moments (Debye-Ang^3)
      XXXX    -860.3245   XXXY     109.4739   XXYY   -2881.4155
      XYYY     270.8847   YYYY  -17256.8205   XXXZ     924.8810
      XXYZ     -88.3911   XYYZ     499.3565   YYYZ    -748.0686
      XXZZ   -1093.2453   XYZZ     -68.2267   YYZZ   -4073.0950
      XZZZ     996.9594   YZZZ     -74.7438   ZZZZ   -5706.0812
 -----------------------------------------------------------------
 Total job time:  276.47s(wall), 8127.20s(cpu) 
 Fri Dec 15 15:04:27 2023

        *************************************************************
        *                                                           *
        *  Thank you very much for using Q-Chem.  Have a nice day.  *
        *                                                           *
        *************************************************************


0 sent ACK to 0 
now end server 0 ... 
cleanup process ... done
remove work dirs ./qchem4038502.0 -- ./qchem4038502.0
rm -rf ./qchem4038502.0
rm -rf ./qchem4038502
