You are running Q-Chem version: 5.4.0

#
# job setting
#
local host:  exp-1-19
current dir: /home/rramji/project-csd799/aromodel/pndit-qchem/rotation_run
input file:  Dimethyl_Naphthalene_Dicarboximide_Phi_10_Theta_240_Thiophene.qcin
output file: 
nprocs     : 1
nthreads   : 64
#
# qchem installation setting
#
QC:          /cm/shared/apps/spack/cpu/opt/spack/linux-centos8-zen2/gcc-10.2.0/qchem-5.4-akfmr7b3t57bfs6qan3padb2wnb2i7cl
QCAUX:       /cm/shared/apps/spack/cpu/opt/spack/linux-centos8-zen2/gcc-10.2.0/qchem-5.4-akfmr7b3t57bfs6qan3padb2wnb2i7cl/qcaux
QCPROG:      /cm/shared/apps/spack/cpu/opt/spack/linux-centos8-zen2/gcc-10.2.0/qchem-5.4-akfmr7b3t57bfs6qan3padb2wnb2i7cl/exe/qcprog.exe
QCPROG_S:    /cm/shared/apps/spack/cpu/opt/spack/linux-centos8-zen2/gcc-10.2.0/qchem-5.4-akfmr7b3t57bfs6qan3padb2wnb2i7cl/exe/qcprog.exe_s
PARALLEL:    -DPARALLEL
QCMPI:       mpich
#
# qchem directory setting
#
qcrun:       qchem436507
QCSCRATCH:   .
QCLOCALSCR:  
QCTMPDIR:    .
QCFILEPREF:  ./qchem436507
QCSAVEDIR:   
workdirs:    ./qchem436507
workdir0:    ./qchem436507
partmpdirs =  
#
# parallel setting
#
QCRSH:           ssh
QCMPI:           mpich
QCMPIRUN:        /cm/shared/apps/spack/cpu/opt/spack/linux-centos8-zen2/gcc-10.2.0/qchem-5.4-akfmr7b3t57bfs6qan3padb2wnb2i7cl/bin/mpi/mpirun_qchem
QCMACHINEFILE:   ./qchem436507/hostfile
exp-1-19

#
# env setting
#
exported envs:   QC QCAUX QCSCRATCH QCRUNNAME QCFILEPREF QCPROG QCPROG_S GUIFILE

Running Job 1 of 1 Dimethyl_Naphthalene_Dicarboximide_Phi_10_Theta_240_Thiophene.qcin
qchem Dimethyl_Naphthalene_Dicarboximide_Phi_10_Theta_240_Thiophene.qcin_436507.0 ./qchem436507/ 1
/cm/shared/apps/spack/cpu/opt/spack/linux-centos8-zen2/gcc-10.2.0/qchem-5.4-akfmr7b3t57bfs6qan3padb2wnb2i7cl/bin/mpi/mpirun_qchem -machinefile ./qchem436507/hostfile -np 1 /cm/shared/apps/spack/cpu/opt/spack/linux-centos8-zen2/gcc-10.2.0/qchem-5.4-akfmr7b3t57bfs6qan3padb2wnb2i7cl/exe/qcprog.exe Dimethyl_Naphthalene_Dicarboximide_Phi_10_Theta_240_Thiophene.qcin_436507.0 ./qchem436507/

Process 0 of 1 is on exp-1-19 - thread support 0
initial socket setup ...start
initial socket setup ...done 
now start server 0 ... 
                  Welcome to Q-Chem
     A Quantum Leap Into The Future Of Chemistry


 Q-Chem 5.4, Q-Chem, Inc., Pleasanton, CA (2021)

 License issued to: University of California, San Diego (site)

 E. Epifanovsky,  A. T. B. Gilbert,  Xintian Feng,  Joonho Lee,  Yuezhi Mao,  
 N. Mardirossian,  P. Pokhilko,  A. White,  M. Wormit,  M. P. Coons,  
 A. L. Dempwolff,  Zhengting Gan,  D. Hait,  P. R. Horn,  L. D. Jacobson,  
 I. Kaliman,  J. Kussmann,  A. W. Lange,  Ka Un Lao,  D. S. Levine,  Jie Liu,  
 S. C. McKenzie,  A. F. Morrison,  K. Nanda,  F. Plasser,  D. R. Rehn,  
 M. L. Vidal,  Zhi-Qiang You,  Ying Zhu,  B. Alam,  B. Albrecht,  
 A. Aldossary,  E. Alguire,  J. H. Andersen,  D. Barton,  K. Begam,  A. Behn,  
 Y. A. Bernard,  E. J. Berquist,  H. Burton,  A. Carreras,  K. Carter-Fenk,  
 R. Chakraborty,  A. D. Chien,  K. D. Closser,  V. Cofer-Shabica,  
 S. Dasgupta,  Jia Deng,  M. de Wergifosse,  M. Diedenhofen,  Hainam Do,  
 S. Ehlert,  Po-Tung Fang,  S. Fatehi,  Qingguo Feng,  J. Gayvert,  
 Qinghui Ge,  G. Gidofalvi,  M. Goldey,  J. Gomes,  C. Gonzalez-Espinoza,  
 S. Gulania,  A. Gunina,  M. W. D. Hanson-Heine,  P. H. P. Harbach,  
 A. W. Hauser,  M. F. Herbst,  M. Hernandez Vera,  M. Hodecker,  
 Z. C. Holden,  S. Houck,  Xunkun Huang,  Kerwin Hui,  B. C. Huynh,  
 M. Ivanov,  Hyunjun Ji,  Hanjie Jiang,  B. Kaduk,  S. Kaehler,  
 K. Khistyaev,  Jaehoon Kim,  P. Klunzinger,  Z. Koczor-Benda,  
 Joong Hoon Koh,  D. Kosenkov,  L. Koulias,  T. Kowalczyk,  C. M. Krauter,  
 K. Kue,  A. Kunitsa,  T. Kus,  A. Landau,  K. V. Lawler,  D. Lefrancois,  
 S. Lehtola,  Rain Li,  Yi-Pei Li,  Jiashu Liang,  M. Liebenthal,  
 Hung-Hsuan Lin,  You-Sheng Lin,  Fenglai Liu,  Kuan-Yu Liu,  
 M. Loipersberger,  A. Luenser,  A. Manjanath,  P. Manohar,  E. Mansoor,  
 S. F. Manzer,  Shan-Ping Mao,  A. V. Marenich,  T. Markovich,  S. Mason,  
 S. A. Maurer,  P. F. McLaughlin,  M. F. S. J. Menger,  J.-M. Mewes,  
 S. A. Mewes,  P. Morgante,  J. W. Mullinax,  T. S. Nguyen-Beck,  
 K. J. Oosterbaan,  G. Paran,  Alexander C. Paul,  Suranjan K. Paul,  
 F. Pavosevic,  Zheng Pei,  S. Prager,  E. I. Proynov,  E. Ramos,  B. Rana,  
 A. E. Rask,  A. Rettig,  R. M. Richard,  F. Rob,  E. Rossomme,  T. Scheele,  
 M. Scheurer,  M. Schneider,  N. Sergueev,  S. M. Sharada,  W. Skomorowski,  
 D. W. Small,  C. J. Stein,  Yu-Chuan Su,  E. J. Sundstrom,  Zhen Tao,  
 J. Thirman,  T. Tsuchimochi,  N. M. Tubman,  S. P. Veccham,  O. Vydrov,  
 J. Wenzel,  J. Witte,  A. Yamada,  Kun Yao,  S. Yeganeh,  S. R. Yost,  
 A. Zech,  Igor Ying Zhang,  Xing Zhang,  Yu Zhang,  D. Zuev,  
 A. Aspuru-Guzik,  A. T. Bell,  N. A. Besley,  K. B. Bravaya,  B. R. Brooks,  
 D. Casanova,  Jeng-Da Chai,  S. Coriani,  C. J. Cramer,  
 A. E. DePrince, III,  R. A. DiStasio Jr.,  A. Dreuw,  B. D. Dunietz,  
 T. R. Furlani,  W. A. Goddard III,  S. Grimme,  S. Hammes-Schiffer,  
 T. Head-Gordon,  W. J. Hehre,  Chao-Ping Hsu,  T.-C. Jagau,  Yousung Jung,  
 A. Klamt,  Jing Kong,  D. S. Lambrecht,  WanZhen Liang,  N. J. Mayhall,  
 C. W. McCurdy,  J. B. Neaton,  C. Ochsenfeld,  J. A. Parkhill,  R. Peverati,  
 V. A. Rassolov,  Yihan Shao,  L. V. Slipchenko,  T. Stauch,  R. P. Steele,  
 J. E. Subotnik,  A. J. W. Thom,  A. Tkatchenko,  D. G. Truhlar,  
 T. Van Voorhis,  T. A. Wesolowski,  K. B. Whaley,  H. L. Woodcock III,  
 P. M. Zimmerman,  S. Faraji,  P. M. W. Gill,  M. Head-Gordon,  
 J. M. Herbert,  A. I. Krylov

 Contributors to earlier versions of Q-Chem not listed above: 
 R. D. Adamson,  B. Austin,  R. Baer,  J. Baker,  G. J. O. Beran,  
 K. Brandhorst,  S. T. Brown,  E. F. C. Byrd,  A. K. Chakraborty,  
 G. K. L. Chan,  Chun-Min Chang,  Yunqing Chen,  C.-L. Cheng,  
 Siu Hung Chien,  D. M. Chipman,  D. L. Crittenden,  H. Dachsel,  
 R. J. Doerksen,  A. D. Dutoi,  R. G. Edgar,  J. Fosso-Tande,  
 L. Fusti-Molnar,  D. Ghosh,  A. Ghysels,  A. Golubeva-Zadorozhnaya,  
 J. Gonthier,  M. S. Gordon,  S. R. Gwaltney,  G. Hawkins,  J. E. Herr,  
 A. Heyden,  S. Hirata,  E. G. Hohenstein,  G. Kedziora,  F. J. Keil,  
 C. Kelley,  Jihan Kim,  R. A. King,  R. Z. Khaliullin,  P. P. Korambath,  
 W. Kurlancheek,  A. Laurent,  A. M. Lee,  M. S. Lee,  S. V. Levchenko,  
 Ching Yeh Lin,  D. Liotard,  E. Livshits,  R. C. Lochan,  I. Lotan,  
 L. A. Martinez-Martinez,  P. E. Maslen,  N. Nair,  D. P. O'Neill,  
 D. Neuhauser,  E. Neuscamman,  C. M. Oana,  R. Olivares-Amaya,  R. Olson,  
 T. M. Perrine,  B. Peters,  P. A. Pieniazek,  A. Prociuk,  Y. M. Rhee,  
 J. Ritchie,  M. A. Rohrdanz,  E. Rosta,  N. J. Russ,  H. F. Schaefer III,  
 M. W. Schmidt,  N. E. Schultz,  S. Sharma,  N. Shenvi,  C. D. Sherrill,  
 A. C. Simmonett,  A. Sodt,  T. Stein,  D. Stuck,  K. S. Thanthiriwatte,  
 V. Vanovschi,  L. Vogt,  Tao Wang,  A. Warshel,  M. A. Watson,  
 C. F. Williams,  Q. Wu,  X. Xu,  Jun Yang,  W. Zhang,  Yan Zhao

 Please cite Q-Chem as follows:
 Y. Shao et al., Mol. Phys. 113, 184-215 (2015)
 DOI: 10.1080/00268976.2014.952696

 Q-Chem 5.4.0 for Intel X86 EM64T Linux

 Parts of Q-Chem use Armadillo 9.800.1 (Horizon Scraper).
 http://arma.sourceforge.net/

 Q-Chem begins on Fri Dec 15 15:18:08 2023  

 Host: 
0

     Scratch files written to ./qchem436507//
 May1621 |scratch|qcdevops|jenkins|workspace|build_RNUM    
 Parallel job on  1  processors
 Processing $rem in /cm/shared/apps/spack/cpu/opt/spack/linux-centos8-zen2/gcc-10.2.0/qchem-5.4-akfmr7b3t57bfs6qan3padb2wnb2i7cl/config/preferences:
 Processing $rem in /home/rramji/.qchemrc:
 Symmetry turned off for PCM/SM12/SMD calculation
 Core orbitals will be frozen

 Checking the input file for inconsistencies... 	...done.

 Q-Chem warning in module forms1/BasisType.C, line 2236:

 You are not using the predefined 5D/6D in this basis set.


--------------------------------------------------------------
User input:
--------------------------------------------------------------
$molecule
0 1
C	-0.221766	-6.741404	0.129743
C	-1.352515	-6.155638	0.782726
C	0.717339	-5.791452	-0.411926
C	-1.593885	-4.803786	0.921816
H	-2.112819	-6.821518	1.221908
C	0.464360	-4.378638	-0.266682
C	-0.688053	-3.838032	0.398255
C	1.369108	-3.413062	-0.789694
C	-0.939002	-2.426473	0.542349
C	1.130409	-2.059348	-0.652589
C	-0.000000	-1.478216	-0.000000
H	1.891446	-1.394783	-1.092453
C	1.967519	-6.187987	-1.131595
C	2.608118	-3.798164	-1.504912
N	2.819813	-5.170003	-1.625174
C	-2.836188	-4.424987	1.639129
C	-2.189558	-2.036627	1.263477
N	-3.042237	-3.049156	1.756898
O	2.307845	-7.353131	-1.324787
O	3.407213	-2.986854	-1.967354
O	-3.625890	-5.248946	2.095892
O	-2.547850	-0.878829	1.468685
C	4.043674	-5.563799	-2.330564
H	4.083407	-6.664085	-2.352178
H	4.925490	-5.147101	-1.807263
H	4.031877	-5.148785	-3.356568
C	-4.247206	-2.587487	2.452080
H	-4.803187	-3.483329	2.774302
H	-4.860536	-1.964972	1.773301
H	-3.966607	-1.962932	3.321351
H	-0.060567	-7.822318	0.037043
C	0.000000	0.000000	0.000000
S	0.137535	0.781156	1.580530
C	0.421895	2.393994	0.904911
C	0.173134	0.982857	-0.985400
C	0.402294	2.283058	-0.493528
H	0.132237	0.750786	-2.059934
H	0.555196	3.150621	-1.152593
H	0.574741	3.261310	1.556025
$end

$rem
JOBTYPE		SP
EXCHANGE	HF
CORRELATION	pRIMP2
BASIS		cc-pvtz
METHOD		rimp2
AUX_BASIS	rimp2-cc-pvtz
SOLVENT_METHOD	PCM
PURECART	11111
SYMMETRY	false
MEM_TOTAL	110000
SCF_CONVERGENCE = 6
THRESH=10
GUI = 2
$end



$solvent
dielectric 4.90
$end
--------------------------------------------------------------
 ----------------------------------------------------------------
             Standard Nuclear Orientation (Angstroms)
    I     Atom           X                Y                Z
 ----------------------------------------------------------------
    1      C      -0.2217660000    -6.7414040000     0.1297430000
    2      C      -1.3525150000    -6.1556380000     0.7827260000
    3      C       0.7173390000    -5.7914520000    -0.4119260000
    4      C      -1.5938850000    -4.8037860000     0.9218160000
    5      H      -2.1128190000    -6.8215180000     1.2219080000
    6      C       0.4643600000    -4.3786380000    -0.2666820000
    7      C      -0.6880530000    -3.8380320000     0.3982550000
    8      C       1.3691080000    -3.4130620000    -0.7896940000
    9      C      -0.9390020000    -2.4264730000     0.5423490000
   10      C       1.1304090000    -2.0593480000    -0.6525890000
   11      C       0.0000000000    -1.4782160000     0.0000000000
   12      H       1.8914460000    -1.3947830000    -1.0924530000
   13      C       1.9675190000    -6.1879870000    -1.1315950000
   14      C       2.6081180000    -3.7981640000    -1.5049120000
   15      N       2.8198130000    -5.1700030000    -1.6251740000
   16      C      -2.8361880000    -4.4249870000     1.6391290000
   17      C      -2.1895580000    -2.0366270000     1.2634770000
   18      N      -3.0422370000    -3.0491560000     1.7568980000
   19      O       2.3078450000    -7.3531310000    -1.3247870000
   20      O       3.4072130000    -2.9868540000    -1.9673540000
   21      O      -3.6258900000    -5.2489460000     2.0958920000
   22      O      -2.5478500000    -0.8788290000     1.4686850000
   23      C       4.0436740000    -5.5637990000    -2.3305640000
   24      H       4.0834070000    -6.6640850000    -2.3521780000
   25      H       4.9254900000    -5.1471010000    -1.8072630000
   26      H       4.0318770000    -5.1487850000    -3.3565680000
   27      C      -4.2472060000    -2.5874870000     2.4520800000
   28      H      -4.8031870000    -3.4833290000     2.7743020000
   29      H      -4.8605360000    -1.9649720000     1.7733010000
   30      H      -3.9666070000    -1.9629320000     3.3213510000
   31      H      -0.0605670000    -7.8223180000     0.0370430000
   32      C       0.0000000000     0.0000000000     0.0000000000
   33      S       0.1375350000     0.7811560000     1.5805300000
   34      C       0.4218950000     2.3939940000     0.9049110000
   35      C       0.1731340000     0.9828570000    -0.9854000000
   36      C       0.4022940000     2.2830580000    -0.4935280000
   37      H       0.1322370000     0.7507860000    -2.0599340000
   38      H       0.5551960000     3.1506210000    -1.1525930000
   39      H       0.5747410000     3.2613100000     1.5560250000
 ----------------------------------------------------------------
 Nuclear Repulsion Energy =        2495.49344646 hartrees
 There are       97 alpha and       97 beta electrons
 Requested basis set is cc-pVTZ
 There are 344 shells and 982 basis functions

 Total QAlloc Memory Limit 110000 MB
 Mega-Array Size       188 MB
 MEM_STATIC part       192 MB
 Discretize the solute cavity surface with Lebedev spheres
	Using 110 Lebedev grid points for each H atom
	Using 194 Lebedev grid points for other atoms
	Atomic van der Waals radii will be scaled by 1.20
 Remove points where switching function is < 1.0e-08
 Keep 2544 surface tesserae and discard 4014 interior tesserae
 Molecular Surface Area = 368.585 Angst**2
 Requested basis set is rimp2-cc-pVTZ
 There are 750 shells and 2588 basis functions
 A cutoff of  1.0D-10 yielded  31538 shell pairs
 There are    242766 function pairs (    315471 Cartesian)
 Smallest overlap matrix eigenvalue = 9.60E-06

 Q-Chem warning in module stvman/mkSTV.C, line 323:

 Overlap eigenvalue is smaller than square root of threshold
 Use THRESH >= 12 to get rid of this warning


 Scale SEOQF with 1.000000e-01/1.000000e-02/1.000000e-01

 Standard Electronic Orientation quadrupole field applied
 Nucleus-field energy     =     0.0000000162 hartrees
 Guess from superposition of atomic densities
 Warning:  Energy on first SCF cycle will be non-variational
 SAD guess density has 194.000000 electrons

 -----------------------------------------------------------------------
  General SCF calculation program by
  Eric Jon Sundstrom, Paul Horn, Yuezhi Mao, Dmitri Zuev, Alec White,
  David Stuck, Shaama M.S., Shane Yost, Joonho Lee, David Small,
  Daniel Levine, Susi Lehtola, Hugh Burton, Evgeny Epifanovsky,
  Bang C. Huynh
 -----------------------------------------------------------------------
 Hartree-Fock
 using 64 threads for integral computing
 -------------------------------------------------------
 OpenMP Integral computing Module                
 Release: version 1.0, May 2013, Q-Chem Inc. Pittsburgh 
 -------------------------------------------------------
 A restricted SCF calculation will be
 performed using DIIS
 SCF converges when DIIS error is below 1.0e-06
 ---------------------------------------
  Cycle       Energy         DIIS error
 ---------------------------------------
    1   -1581.2834949503      1.87e-02  
    2   -1570.1181703466      2.09e-03  
    3   -1570.4444864315      1.63e-03  
    4   -1570.6759961255      2.56e-04  
    5   -1570.6879731835      7.53e-05  
    6   -1570.6890142397      2.77e-05  
    7   -1570.6892497290      1.43e-05  
    8   -1570.6893245171      5.86e-06  
    9   -1570.6893362053      2.29e-06  
   10   -1570.6893381520      7.14e-07  Convergence criterion met
 ---------------------------------------
 SCF time:   CPU 5565.50s  wall 221.00s 

************** Final PCM Free Energy Summary **************
 G_electrostatic  =      -0.02492562 hartree =     -15.64106117 kcal/mol
 G_cavitation     =       0.00000000 hartree =       0.00000000 kcal/mol
 G_dispersion     =       0.00000000 hartree =       0.00000000 kcal/mol
 G_repulsion      =       0.00000000 hartree =       0.00000000 kcal/mol
 --------------------------------------------------
 Non-electrostatic Free Energy =       0.00000000 hartree =       0.00000000 kcal/mol
 Total                         =      -0.02492562 hartree =     -15.64106117 kcal/mol
 --------------------------------------------------
 SCF Energy (H0 + V/2)                       =   -1570.68933815 
 Solute Internal Energy (H0)                 =   -1570.66441253 
 Total Free Energy (H0 + V/2 + non-elec)     =   -1570.68933815 hartree
                                             = -985622.43568913 kcal/mol
***********************************************************

 SCF   energy in the final basis set =    -1570.6893381520
 Total energy in the final basis set =    -1570.6893381520


 --------------------------------------------------------------
  Generalized many-body perturbation theory program
  by Joonho Lee, Fazle Rob, Xintian Feng, Evgeny Epifanovsky

 No regularization used 
 (reg. param. = 0.0000e+00)
  (P|Q)^-1/2 Time:  CPU 152.57 s  wall 2.77 s

 In RI-MP2 calculation: 
 # of frozen core orbitals: 31

 Components of the RIMP2 correlation energy:
        aaaa    correlation energy =        -0.6164344607 a.u.
        abab    correlation energy =        -3.3922047311 a.u.
        bbbb    correlation energy =        -0.6164344607 a.u.
        non-Brillouin singles      =        -0.0000000000 a.u.
        total same-spin energy     =        -1.2328689215 a.u.
        total opposite-spin energy =        -3.3922047311 a.u.

 Total  RIMP2   correlation energy =        -4.6250736526 a.u.
        RIMP2         total energy =     -1575.3144118047 a.u.

 RI-MP2 Energy Time:  CPU 1788.58 s  wall 31.65 s
 
 --------------------------------------------------------------
 
                    Orbital Energies (a.u.)
 --------------------------------------------------------------
 
 Alpha MOs
 -- Occupied --
-91.9891 -20.5589 -20.5566 -20.5561 -20.5552 -15.6316 -15.6308 -11.4005
-11.3967 -11.3928 -11.3910 -11.3168 -11.3063 -11.3031 -11.3014 -11.2991
-11.2985 -11.2931 -11.2866 -11.2866 -11.2821 -11.2808 -11.2788 -11.2648
-11.2645 -11.2574 -11.2493  -8.9885  -6.6692  -6.6687  -6.6682  -1.4252
 -1.4242  -1.4046  -1.4033  -1.2678  -1.2654  -1.2181  -1.1748  -1.1444
 -1.1181  -1.0634  -1.0505  -0.9933  -0.9893  -0.9831  -0.9593  -0.9484
 -0.8975  -0.8798  -0.8782  -0.8614  -0.7955  -0.7774  -0.7737  -0.7611
 -0.7348  -0.7190  -0.7054  -0.6950  -0.6818  -0.6740  -0.6666  -0.6624
 -0.6572  -0.6421  -0.6378  -0.6338  -0.6300  -0.6132  -0.5850  -0.5845
 -0.5784  -0.5724  -0.5666  -0.5644  -0.5643  -0.5555  -0.5535  -0.5486
 -0.5331  -0.5255  -0.5195  -0.5190  -0.4836  -0.4716  -0.4662  -0.4602
 -0.4590  -0.4533  -0.4285  -0.4184  -0.4092  -0.3609  -0.3507  -0.3364
 -0.3138
 -- Virtual --
 -0.0207   0.0615   0.0705   0.0993   0.1190   0.1547   0.1581   0.1588
  0.1655   0.1681   0.1783   0.1812   0.1844   0.1956   0.2048   0.2071
  0.2185   0.2228   0.2279   0.2297   0.2345   0.2400   0.2594   0.2614
  0.2649   0.3062   0.3106   0.3154   0.3186   0.3226   0.3244   0.3364
  0.3422   0.3433   0.3515   0.3573   0.3590   0.3605   0.3723   0.3747
  0.3778   0.3816   0.3889   0.3905   0.3986   0.4023   0.4061   0.4103
  0.4166   0.4263   0.4319   0.4364   0.4421   0.4457   0.4511   0.4551
  0.4588   0.4606   0.4661   0.4726   0.4737   0.4836   0.4903   0.4925
  0.4963   0.5039   0.5052   0.5123   0.5145   0.5254   0.5269   0.5290
  0.5328   0.5383   0.5489   0.5508   0.5527   0.5570   0.5609   0.5645
  0.5705   0.5719   0.5748   0.5825   0.5894   0.5929   0.5976   0.5993
  0.6030   0.6061   0.6095   0.6153   0.6197   0.6227   0.6239   0.6294
  0.6324   0.6340   0.6362   0.6383   0.6409   0.6476   0.6510   0.6670
  0.6716   0.6782   0.6920   0.6942   0.6958   0.7056   0.7129   0.7133
  0.7208   0.7338   0.7373   0.7389   0.7452   0.7558   0.7598   0.7611
  0.7660   0.7735   0.7788   0.7912   0.7983   0.8062   0.8105   0.8137
  0.8193   0.8257   0.8337   0.8379   0.8415   0.8437   0.8485   0.8610
  0.8643   0.8647   0.8654   0.8738   0.8817   0.8877   0.8947   0.9068
  0.9093   0.9155   0.9204   0.9238   0.9284   0.9331   0.9425   0.9440
  0.9445   0.9572   0.9601   0.9634   0.9718   0.9744   0.9784   0.9859
  0.9882   0.9921   0.9999   1.0028   1.0122   1.0137   1.0221   1.0280
  1.0306   1.0356   1.0422   1.0519   1.0610   1.0640   1.0698   1.0728
  1.0796   1.0826   1.0851   1.0894   1.0934   1.1011   1.1035   1.1051
  1.1270   1.1300   1.1305   1.1376   1.1428   1.1501   1.1536   1.1566
  1.1601   1.1637   1.1696   1.1753   1.1809   1.1844   1.1937   1.1973
  1.1989   1.2122   1.2141   1.2226   1.2251   1.2315   1.2329   1.2397
  1.2408   1.2496   1.2534   1.2604   1.2633   1.2667   1.2867   1.2985
  1.3072   1.3227   1.3288   1.3349   1.3409   1.3449   1.3470   1.3571
  1.3633   1.3771   1.3820   1.3831   1.3904   1.4051   1.4097   1.4183
  1.4225   1.4273   1.4353   1.4421   1.4468   1.4496   1.4570   1.4680
  1.4785   1.4819   1.4875   1.4898   1.5004   1.5042   1.5087   1.5138
  1.5175   1.5327   1.5337   1.5424   1.5499   1.5543   1.5595   1.5644
  1.5650   1.5766   1.5776   1.5851   1.6016   1.6113   1.6165   1.6315
  1.6330   1.6443   1.6502   1.6584   1.6659   1.6730   1.6750   1.6887
  1.6981   1.6995   1.7130   1.7178   1.7296   1.7394   1.7410   1.7461
  1.7481   1.7553   1.7682   1.7776   1.7904   1.7998   1.8021   1.8107
  1.8115   1.8319   1.8338   1.8379   1.8523   1.8573   1.8597   1.8643
  1.8664   1.8801   1.8956   1.9118   1.9179   1.9267   1.9440   1.9474
  1.9598   1.9692   1.9729   1.9828   1.9986   2.0048   2.0137   2.0287
  2.0362   2.0438   2.0584   2.0608   2.0828   2.1067   2.1175   2.1276
  2.1421   2.1562   2.1663   2.1711   2.1955   2.2045   2.2161   2.2219
  2.2324   2.2441   2.2513   2.2601   2.2840   2.2898   2.2948   2.3005
  2.3187   2.3196   2.3287   2.3340   2.3502   2.3618   2.3635   2.3825
  2.4066   2.4242   2.4348   2.4405   2.4444   2.4499   2.4564   2.4616
  2.4744   2.4843   2.4902   2.4971   2.5089   2.5188   2.5218   2.5368
  2.5485   2.5600   2.5758   2.5812   2.5861   2.5925   2.6011   2.6022
  2.6155   2.6190   2.6200   2.6468   2.6501   2.6569   2.6630   2.6654
  2.6755   2.6798   2.6871   2.6973   2.7080   2.7134   2.7148   2.7245
  2.7305   2.7408   2.7450   2.7463   2.7548   2.7674   2.7767   2.7864
  2.8010   2.8097   2.8188   2.8261   2.8356   2.8406   2.8527   2.8569
  2.8619   2.8677   2.8731   2.8779   2.8866   2.8932   2.9009   2.9032
  2.9082   2.9178   2.9271   2.9325   2.9476   2.9536   2.9605   2.9676
  2.9747   2.9779   2.9800   2.9958   2.9998   3.0026   3.0045   3.0137
  3.0162   3.0280   3.0318   3.0400   3.0454   3.0620   3.0662   3.0712
  3.0841   3.0893   3.0972   3.1011   3.1054   3.1100   3.1171   3.1201
  3.1261   3.1297   3.1434   3.1543   3.1598   3.1668   3.1696   3.1817
  3.1871   3.1943   3.2000   3.2042   3.2065   3.2140   3.2193   3.2204
  3.2245   3.2295   3.2367   3.2395   3.2501   3.2555   3.2578   3.2616
  3.2705   3.2732   3.2788   3.2791   3.2873   3.2875   3.2934   3.2979
  3.3034   3.3169   3.3215   3.3232   3.3266   3.3282   3.3337   3.3367
  3.3403   3.3413   3.3502   3.3509   3.3601   3.3636   3.3659   3.3709
  3.3789   3.3810   3.3867   3.3971   3.3976   3.4026   3.4074   3.4214
  3.4274   3.4302   3.4400   3.4411   3.4465   3.4499   3.4530   3.4570
  3.4605   3.4638   3.4703   3.4737   3.4784   3.4823   3.4829   3.4919
  3.4962   3.4987   3.5013   3.5057   3.5096   3.5158   3.5166   3.5262
  3.5329   3.5374   3.5432   3.5493   3.5604   3.5636   3.5650   3.5767
  3.5818   3.5866   3.5894   3.6037   3.6099   3.6151   3.6258   3.6290
  3.6315   3.6353   3.6421   3.6441   3.6490   3.6610   3.6675   3.6824
  3.6871   3.6884   3.6908   3.6992   3.7017   3.7112   3.7138   3.7199
  3.7264   3.7302   3.7371   3.7386   3.7469   3.7546   3.7577   3.7670
  3.7687   3.7756   3.7817   3.7827   3.7903   3.7964   3.7971   3.8010
  3.8090   3.8126   3.8268   3.8371   3.8460   3.8493   3.8536   3.8571
  3.8578   3.8767   3.8772   3.8798   3.8910   3.8964   3.9083   3.9181
  3.9270   3.9335   3.9424   3.9464   3.9529   3.9568   3.9676   3.9695
  3.9872   3.9884   3.9998   4.0073   4.0081   4.0167   4.0277   4.0357
  4.0514   4.0616   4.0677   4.0849   4.0890   4.0958   4.1037   4.1150
  4.1221   4.1232   4.1333   4.1354   4.1422   4.1562   4.1656   4.1670
  4.1766   4.1819   4.1852   4.1928   4.2015   4.2098   4.2245   4.2391
  4.2418   4.2520   4.2544   4.2641   4.2700   4.2780   4.2790   4.2879
  4.2939   4.2962   4.3008   4.3070   4.3156   4.3266   4.3320   4.3386
  4.3418   4.3520   4.3583   4.3627   4.3670   4.3681   4.3735   4.3804
  4.3932   4.4006   4.4013   4.4030   4.4110   4.4165   4.4231   4.4272
  4.4442   4.4631   4.4657   4.4841   4.4882   4.5090   4.5127   4.5163
  4.5207   4.5255   4.5317   4.5398   4.5435   4.5510   4.5669   4.5737
  4.5767   4.5791   4.5891   4.5957   4.6036   4.6080   4.6212   4.6301
  4.6417   4.6600   4.6610   4.6659   4.6697   4.6787   4.6893   4.6920
  4.7100   4.7268   4.7308   4.7391   4.7596   4.7613   4.7700   4.7977
  4.8128   4.8253   4.8335   4.8383   4.8476   4.8582   4.8682   4.8703
  4.8809   4.8956   4.9045   4.9241   4.9316   4.9488   4.9757   4.9793
  4.9968   5.0009   5.0201   5.0330   5.0429   5.0490   5.0504   5.0562
  5.0911   5.0985   5.1034   5.1110   5.1205   5.1246   5.1428   5.1440
  5.1627   5.1770   5.1824   5.1911   5.1973   5.2193   5.2361   5.2561
  5.2617   5.2761   5.2798   5.2911   5.3214   5.3293   5.3319   5.3377
  5.3501   5.3783   5.3956   5.4021   5.4170   5.4299   5.4349   5.4456
  5.4913   5.5057   5.5083   5.5105   5.5126   5.5291   5.5459   5.5545
  5.5553   5.5598   5.5682   5.5739   5.5772   5.5897   5.6036   5.6050
  5.6219   5.6292   5.6519   5.6538   5.6551   5.6735   5.6764   5.6872
  5.6953   5.6994   5.7323   5.7370   5.7465   5.7563   5.7592   5.7691
  5.7739   5.7770   5.8147   5.8289   5.8411   5.8623   5.8800   5.9274
  5.9381   5.9595   6.0035   6.0194   6.0220   6.0282   6.0289   6.0504
  6.0812   6.0990   6.1002   6.1134   6.1161   6.1659   6.1947   6.2065
  6.2172   6.2178   6.2207   6.2548   6.2632   6.2682   6.3002   6.3397
  6.3503   6.3796   6.4344   6.4444   6.4633   6.5214   6.5616   6.5687
  6.5834   6.5971   6.6309   6.6469   6.6589   6.6756   6.7088   6.8297
  6.8314   6.8782   6.8857   6.8941   6.9108   6.9227   6.9279   7.0774
  7.0996   7.1395   7.1840   7.1871   7.2264   7.3320   7.3407   7.3439
  7.3537   7.4657   7.5419   7.5566   7.5721   7.5739   7.5858   7.6332
  7.6692   7.6809   7.7204   8.3407   9.9241  10.2934  11.1098  11.2349
 11.6355  11.7168  11.9487  12.3542  12.4370  12.7136  12.8470  12.8886
 13.2799  13.5531  13.8060  13.9256  14.0151  14.1284  14.2220  14.3420
 14.4124  14.7148  15.3066  15.7255  15.9805
 --------------------------------------------------------------
 
          Ground-State Mulliken Net Atomic Charges

     Atom                 Charge (a.u.)
  ----------------------------------------
      1 C                    -0.132442
      2 C                    -0.108171
      3 C                    -0.042279
      4 C                    -0.001509
      5 H                     0.189067
      6 C                     0.002041
      7 C                     0.073070
      8 C                     0.004033
      9 C                    -0.031653
     10 C                    -0.120600
     11 C                     0.063360
     12 H                     0.186974
     13 C                     0.360650
     14 C                     0.365468
     15 N                    -0.101693
     16 C                     0.359864
     17 C                     0.349969
     18 N                    -0.096209
     19 O                    -0.464642
     20 O                    -0.476293
     21 O                    -0.480270
     22 O                    -0.457160
     23 C                    -0.201035
     24 H                     0.141142
     25 H                     0.112562
     26 H                     0.112339
     27 C                    -0.196075
     28 H                     0.133665
     29 H                     0.113365
     30 H                     0.113235
     31 H                     0.214306
     32 C                    -0.023594
     33 S                     0.047119
     34 C                    -0.208745
     35 C                    -0.193372
     36 C                    -0.202457
     37 H                     0.193465
     38 H                     0.191434
     39 H                     0.211069
  ----------------------------------------
  Sum of atomic charges =     0.000000

 -----------------------------------------------------------------
                    Cartesian Multipole Moments
 -----------------------------------------------------------------
    Charge (ESU x 10^10)
                 0.0000
    Dipole Moment (Debye)
         X       0.2788      Y       0.8824      Z      -0.8346
       Tot       1.2461
    Quadrupole Moments (Debye-Ang)
        XX    -179.0710     XY       2.6690     YY    -164.7696
        XZ       8.7518     YZ       0.3550     ZZ    -162.4498
    Octopole Moments (Debye-Ang^2)
       XXX      20.3903    XXY     525.7469    XYY       6.2649
       YYY    1584.1757    XXZ     -27.7490    XYZ     -34.0830
       YYZ     -14.4566    XZZ       8.8271    YZZ     498.7881
       ZZZ     -79.8342
    Hexadecapole Moments (Debye-Ang^3)
      XXXX   -4648.9066   XXXY      24.6454   XXYY   -3854.3310
      XYYY     672.8354   YYYY  -17089.6201   XXXZ    1321.7949
      XXYZ      60.6176   XYYZ     672.9516   YYYZ    -419.3101
      XXZZ   -1122.7179   XYZZ      16.3361   YYZZ   -3082.0926
      XZZZ    1256.6070   YZZZ    -172.3090   ZZZZ   -1899.1815
 -----------------------------------------------------------------
 Total job time:  261.26s(wall), 7562.29s(cpu) 
 Fri Dec 15 15:22:29 2023

        *************************************************************
        *                                                           *
        *  Thank you very much for using Q-Chem.  Have a nice day.  *
        *                                                           *
        *************************************************************


0 sent ACK to 0 
now end server 0 ... 
cleanup process ... done
remove work dirs ./qchem436507.0 -- ./qchem436507.0
rm -rf ./qchem436507.0
rm -rf ./qchem436507
