You are running Q-Chem version: 5.4.0

#
# job setting
#
local host:  exp-4-09
current dir: /home/rramji/project-csd799/aromodel/pndit-qchem/rotation_run
input file:  Dimethyl_Naphthalene_Dicarboximide_Phi_30_Theta_130_Thiophene.qcin
output file: 
nprocs     : 1
nthreads   : 64
#
# qchem installation setting
#
QC:          /cm/shared/apps/spack/cpu/opt/spack/linux-centos8-zen2/gcc-10.2.0/qchem-5.4-akfmr7b3t57bfs6qan3padb2wnb2i7cl
QCAUX:       /cm/shared/apps/spack/cpu/opt/spack/linux-centos8-zen2/gcc-10.2.0/qchem-5.4-akfmr7b3t57bfs6qan3padb2wnb2i7cl/qcaux
QCPROG:      /cm/shared/apps/spack/cpu/opt/spack/linux-centos8-zen2/gcc-10.2.0/qchem-5.4-akfmr7b3t57bfs6qan3padb2wnb2i7cl/exe/qcprog.exe
QCPROG_S:    /cm/shared/apps/spack/cpu/opt/spack/linux-centos8-zen2/gcc-10.2.0/qchem-5.4-akfmr7b3t57bfs6qan3padb2wnb2i7cl/exe/qcprog.exe_s
PARALLEL:    -DPARALLEL
QCMPI:       mpich
#
# qchem directory setting
#
qcrun:       qchem2779955
QCSCRATCH:   .
QCLOCALSCR:  
QCTMPDIR:    .
QCFILEPREF:  ./qchem2779955
QCSAVEDIR:   
workdirs:    ./qchem2779955
workdir0:    ./qchem2779955
partmpdirs =  
#
# parallel setting
#
QCRSH:           ssh
QCMPI:           mpich
QCMPIRUN:        /cm/shared/apps/spack/cpu/opt/spack/linux-centos8-zen2/gcc-10.2.0/qchem-5.4-akfmr7b3t57bfs6qan3padb2wnb2i7cl/bin/mpi/mpirun_qchem
QCMACHINEFILE:   ./qchem2779955/hostfile
exp-4-09

#
# env setting
#
exported envs:   QC QCAUX QCSCRATCH QCRUNNAME QCFILEPREF QCPROG QCPROG_S GUIFILE

Running Job 1 of 1 Dimethyl_Naphthalene_Dicarboximide_Phi_30_Theta_130_Thiophene.qcin
qchem Dimethyl_Naphthalene_Dicarboximide_Phi_30_Theta_130_Thiophene.qcin_2779955.0 ./qchem2779955/ 1
/cm/shared/apps/spack/cpu/opt/spack/linux-centos8-zen2/gcc-10.2.0/qchem-5.4-akfmr7b3t57bfs6qan3padb2wnb2i7cl/bin/mpi/mpirun_qchem -machinefile ./qchem2779955/hostfile -np 1 /cm/shared/apps/spack/cpu/opt/spack/linux-centos8-zen2/gcc-10.2.0/qchem-5.4-akfmr7b3t57bfs6qan3padb2wnb2i7cl/exe/qcprog.exe Dimethyl_Naphthalene_Dicarboximide_Phi_30_Theta_130_Thiophene.qcin_2779955.0 ./qchem2779955/

Process 0 of 1 is on exp-4-09 - thread support 0
initial socket setup ...start
initial socket setup ...done 
now start server 0 ... 
                  Welcome to Q-Chem
     A Quantum Leap Into The Future Of Chemistry


 Q-Chem 5.4, Q-Chem, Inc., Pleasanton, CA (2021)

 License issued to: University of California, San Diego (site)

 E. Epifanovsky,  A. T. B. Gilbert,  Xintian Feng,  Joonho Lee,  Yuezhi Mao,  
 N. Mardirossian,  P. Pokhilko,  A. White,  M. Wormit,  M. P. Coons,  
 A. L. Dempwolff,  Zhengting Gan,  D. Hait,  P. R. Horn,  L. D. Jacobson,  
 I. Kaliman,  J. Kussmann,  A. W. Lange,  Ka Un Lao,  D. S. Levine,  Jie Liu,  
 S. C. McKenzie,  A. F. Morrison,  K. Nanda,  F. Plasser,  D. R. Rehn,  
 M. L. Vidal,  Zhi-Qiang You,  Ying Zhu,  B. Alam,  B. Albrecht,  
 A. Aldossary,  E. Alguire,  J. H. Andersen,  D. Barton,  K. Begam,  A. Behn,  
 Y. A. Bernard,  E. J. Berquist,  H. Burton,  A. Carreras,  K. Carter-Fenk,  
 R. Chakraborty,  A. D. Chien,  K. D. Closser,  V. Cofer-Shabica,  
 S. Dasgupta,  Jia Deng,  M. de Wergifosse,  M. Diedenhofen,  Hainam Do,  
 S. Ehlert,  Po-Tung Fang,  S. Fatehi,  Qingguo Feng,  J. Gayvert,  
 Qinghui Ge,  G. Gidofalvi,  M. Goldey,  J. Gomes,  C. Gonzalez-Espinoza,  
 S. Gulania,  A. Gunina,  M. W. D. Hanson-Heine,  P. H. P. Harbach,  
 A. W. Hauser,  M. F. Herbst,  M. Hernandez Vera,  M. Hodecker,  
 Z. C. Holden,  S. Houck,  Xunkun Huang,  Kerwin Hui,  B. C. Huynh,  
 M. Ivanov,  Hyunjun Ji,  Hanjie Jiang,  B. Kaduk,  S. Kaehler,  
 K. Khistyaev,  Jaehoon Kim,  P. Klunzinger,  Z. Koczor-Benda,  
 Joong Hoon Koh,  D. Kosenkov,  L. Koulias,  T. Kowalczyk,  C. M. Krauter,  
 K. Kue,  A. Kunitsa,  T. Kus,  A. Landau,  K. V. Lawler,  D. Lefrancois,  
 S. Lehtola,  Rain Li,  Yi-Pei Li,  Jiashu Liang,  M. Liebenthal,  
 Hung-Hsuan Lin,  You-Sheng Lin,  Fenglai Liu,  Kuan-Yu Liu,  
 M. Loipersberger,  A. Luenser,  A. Manjanath,  P. Manohar,  E. Mansoor,  
 S. F. Manzer,  Shan-Ping Mao,  A. V. Marenich,  T. Markovich,  S. Mason,  
 S. A. Maurer,  P. F. McLaughlin,  M. F. S. J. Menger,  J.-M. Mewes,  
 S. A. Mewes,  P. Morgante,  J. W. Mullinax,  T. S. Nguyen-Beck,  
 K. J. Oosterbaan,  G. Paran,  Alexander C. Paul,  Suranjan K. Paul,  
 F. Pavosevic,  Zheng Pei,  S. Prager,  E. I. Proynov,  E. Ramos,  B. Rana,  
 A. E. Rask,  A. Rettig,  R. M. Richard,  F. Rob,  E. Rossomme,  T. Scheele,  
 M. Scheurer,  M. Schneider,  N. Sergueev,  S. M. Sharada,  W. Skomorowski,  
 D. W. Small,  C. J. Stein,  Yu-Chuan Su,  E. J. Sundstrom,  Zhen Tao,  
 J. Thirman,  T. Tsuchimochi,  N. M. Tubman,  S. P. Veccham,  O. Vydrov,  
 J. Wenzel,  J. Witte,  A. Yamada,  Kun Yao,  S. Yeganeh,  S. R. Yost,  
 A. Zech,  Igor Ying Zhang,  Xing Zhang,  Yu Zhang,  D. Zuev,  
 A. Aspuru-Guzik,  A. T. Bell,  N. A. Besley,  K. B. Bravaya,  B. R. Brooks,  
 D. Casanova,  Jeng-Da Chai,  S. Coriani,  C. J. Cramer,  
 A. E. DePrince, III,  R. A. DiStasio Jr.,  A. Dreuw,  B. D. Dunietz,  
 T. R. Furlani,  W. A. Goddard III,  S. Grimme,  S. Hammes-Schiffer,  
 T. Head-Gordon,  W. J. Hehre,  Chao-Ping Hsu,  T.-C. Jagau,  Yousung Jung,  
 A. Klamt,  Jing Kong,  D. S. Lambrecht,  WanZhen Liang,  N. J. Mayhall,  
 C. W. McCurdy,  J. B. Neaton,  C. Ochsenfeld,  J. A. Parkhill,  R. Peverati,  
 V. A. Rassolov,  Yihan Shao,  L. V. Slipchenko,  T. Stauch,  R. P. Steele,  
 J. E. Subotnik,  A. J. W. Thom,  A. Tkatchenko,  D. G. Truhlar,  
 T. Van Voorhis,  T. A. Wesolowski,  K. B. Whaley,  H. L. Woodcock III,  
 P. M. Zimmerman,  S. Faraji,  P. M. W. Gill,  M. Head-Gordon,  
 J. M. Herbert,  A. I. Krylov

 Contributors to earlier versions of Q-Chem not listed above: 
 R. D. Adamson,  B. Austin,  R. Baer,  J. Baker,  G. J. O. Beran,  
 K. Brandhorst,  S. T. Brown,  E. F. C. Byrd,  A. K. Chakraborty,  
 G. K. L. Chan,  Chun-Min Chang,  Yunqing Chen,  C.-L. Cheng,  
 Siu Hung Chien,  D. M. Chipman,  D. L. Crittenden,  H. Dachsel,  
 R. J. Doerksen,  A. D. Dutoi,  R. G. Edgar,  J. Fosso-Tande,  
 L. Fusti-Molnar,  D. Ghosh,  A. Ghysels,  A. Golubeva-Zadorozhnaya,  
 J. Gonthier,  M. S. Gordon,  S. R. Gwaltney,  G. Hawkins,  J. E. Herr,  
 A. Heyden,  S. Hirata,  E. G. Hohenstein,  G. Kedziora,  F. J. Keil,  
 C. Kelley,  Jihan Kim,  R. A. King,  R. Z. Khaliullin,  P. P. Korambath,  
 W. Kurlancheek,  A. Laurent,  A. M. Lee,  M. S. Lee,  S. V. Levchenko,  
 Ching Yeh Lin,  D. Liotard,  E. Livshits,  R. C. Lochan,  I. Lotan,  
 L. A. Martinez-Martinez,  P. E. Maslen,  N. Nair,  D. P. O'Neill,  
 D. Neuhauser,  E. Neuscamman,  C. M. Oana,  R. Olivares-Amaya,  R. Olson,  
 T. M. Perrine,  B. Peters,  P. A. Pieniazek,  A. Prociuk,  Y. M. Rhee,  
 J. Ritchie,  M. A. Rohrdanz,  E. Rosta,  N. J. Russ,  H. F. Schaefer III,  
 M. W. Schmidt,  N. E. Schultz,  S. Sharma,  N. Shenvi,  C. D. Sherrill,  
 A. C. Simmonett,  A. Sodt,  T. Stein,  D. Stuck,  K. S. Thanthiriwatte,  
 V. Vanovschi,  L. Vogt,  Tao Wang,  A. Warshel,  M. A. Watson,  
 C. F. Williams,  Q. Wu,  X. Xu,  Jun Yang,  W. Zhang,  Yan Zhao

 Please cite Q-Chem as follows:
 Y. Shao et al., Mol. Phys. 113, 184-215 (2015)
 DOI: 10.1080/00268976.2014.952696

 Q-Chem 5.4.0 for Intel X86 EM64T Linux

 Parts of Q-Chem use Armadillo 9.800.1 (Horizon Scraper).
 http://arma.sourceforge.net/

 Q-Chem begins on Fri Dec 15 14:24:06 2023  

 Host: 
0

     Scratch files written to ./qchem2779955//
 May1621 |scratch|qcdevops|jenkins|workspace|build_RNUM    
 Parallel job on  1  processors
 Processing $rem in /cm/shared/apps/spack/cpu/opt/spack/linux-centos8-zen2/gcc-10.2.0/qchem-5.4-akfmr7b3t57bfs6qan3padb2wnb2i7cl/config/preferences:
 Processing $rem in /home/rramji/.qchemrc:
 Symmetry turned off for PCM/SM12/SMD calculation
 Core orbitals will be frozen

 Checking the input file for inconsistencies... 	...done.

 Q-Chem warning in module forms1/BasisType.C, line 2236:

 You are not using the predefined 5D/6D in this basis set.


--------------------------------------------------------------
User input:
--------------------------------------------------------------
$molecule
0 1
C	0.197767	-6.741404	0.164018
C	1.198109	-6.155638	1.003240
C	-0.632428	-5.791452	-0.533192
C	1.411364	-4.803786	1.182482
H	1.870845	-6.821518	1.567483
C	-0.409419	-4.378638	-0.345145
C	0.609565	-3.838032	0.510347
C	-1.210332	-3.413062	-1.016449
C	0.830799	-2.426473	0.696879
C	-0.999856	-2.059348	-0.839039
C	-0.000000	-1.478216	-0.000000
H	-1.673483	-1.394783	-1.403737
C	-1.736282	-6.187987	-1.461835
C	-2.306183	-3.798164	-1.936119
N	-2.491597	-5.170003	-2.093916
C	2.510310	-4.424987	2.104529
C	1.936153	-2.036627	1.625377
N	2.691451	-3.049156	2.257873
O	-2.034222	-7.353131	-1.715561
O	-3.014044	-2.986854	-2.528858
O	3.209622	-5.248946	2.690385
O	2.251529	-0.878829	1.891876
C	-3.573032	-5.563799	-3.002711
H	-3.606932	-6.664085	-3.032655
H	-3.382888	-5.147101	-4.010326
H	-4.533125	-5.148785	-2.640711
C	3.756832	-2.587487	3.152408
H	4.249778	-3.483329	3.564653
H	3.328759	-1.964972	3.960905
H	4.477709	-1.962932	2.591422
H	0.055524	-7.822318	0.044245
C	0.000000	0.000000	0.000000
S	0.396411	0.687007	1.580530
C	1.215245	2.105322	0.904911
C	0.498850	0.864369	-0.985400
C	1.158885	2.007781	-0.493528
H	0.381046	0.660280	-2.059934
H	1.599289	2.770727	-1.152593
H	1.655514	2.868056	1.556025
$end

$rem
JOBTYPE		SP
EXCHANGE	HF
CORRELATION	pRIMP2
BASIS		cc-pvtz
METHOD		rimp2
AUX_BASIS	rimp2-cc-pvtz
SOLVENT_METHOD	PCM
PURECART	11111
SYMMETRY	false
MEM_TOTAL	110000
SCF_CONVERGENCE = 6
THRESH=10
GUI = 2
$end



$solvent
dielectric 4.90
$end
--------------------------------------------------------------
 ----------------------------------------------------------------
             Standard Nuclear Orientation (Angstroms)
    I     Atom           X                Y                Z
 ----------------------------------------------------------------
    1      C       0.1977670000    -6.7414040000     0.1640180000
    2      C       1.1981090000    -6.1556380000     1.0032400000
    3      C      -0.6324280000    -5.7914520000    -0.5331920000
    4      C       1.4113640000    -4.8037860000     1.1824820000
    5      H       1.8708450000    -6.8215180000     1.5674830000
    6      C      -0.4094190000    -4.3786380000    -0.3451450000
    7      C       0.6095650000    -3.8380320000     0.5103470000
    8      C      -1.2103320000    -3.4130620000    -1.0164490000
    9      C       0.8307990000    -2.4264730000     0.6968790000
   10      C      -0.9998560000    -2.0593480000    -0.8390390000
   11      C       0.0000000000    -1.4782160000     0.0000000000
   12      H      -1.6734830000    -1.3947830000    -1.4037370000
   13      C      -1.7362820000    -6.1879870000    -1.4618350000
   14      C      -2.3061830000    -3.7981640000    -1.9361190000
   15      N      -2.4915970000    -5.1700030000    -2.0939160000
   16      C       2.5103100000    -4.4249870000     2.1045290000
   17      C       1.9361530000    -2.0366270000     1.6253770000
   18      N       2.6914510000    -3.0491560000     2.2578730000
   19      O      -2.0342220000    -7.3531310000    -1.7155610000
   20      O      -3.0140440000    -2.9868540000    -2.5288580000
   21      O       3.2096220000    -5.2489460000     2.6903850000
   22      O       2.2515290000    -0.8788290000     1.8918760000
   23      C      -3.5730320000    -5.5637990000    -3.0027110000
   24      H      -3.6069320000    -6.6640850000    -3.0326550000
   25      H      -3.3828880000    -5.1471010000    -4.0103260000
   26      H      -4.5331250000    -5.1487850000    -2.6407110000
   27      C       3.7568320000    -2.5874870000     3.1524080000
   28      H       4.2497780000    -3.4833290000     3.5646530000
   29      H       3.3287590000    -1.9649720000     3.9609050000
   30      H       4.4777090000    -1.9629320000     2.5914220000
   31      H       0.0555240000    -7.8223180000     0.0442450000
   32      C       0.0000000000     0.0000000000     0.0000000000
   33      S       0.3964110000     0.6870070000     1.5805300000
   34      C       1.2152450000     2.1053220000     0.9049110000
   35      C       0.4988500000     0.8643690000    -0.9854000000
   36      C       1.1588850000     2.0077810000    -0.4935280000
   37      H       0.3810460000     0.6602800000    -2.0599340000
   38      H       1.5992890000     2.7707270000    -1.1525930000
   39      H       1.6555140000     2.8680560000     1.5560250000
 ----------------------------------------------------------------
 Nuclear Repulsion Energy =        2519.56289804 hartrees
 There are       97 alpha and       97 beta electrons
 Requested basis set is cc-pVTZ
 There are 344 shells and 982 basis functions

 Total QAlloc Memory Limit 110000 MB
 Mega-Array Size       188 MB
 MEM_STATIC part       192 MB
 Discretize the solute cavity surface with Lebedev spheres
	Using 110 Lebedev grid points for each H atom
	Using 194 Lebedev grid points for other atoms
	Atomic van der Waals radii will be scaled by 1.20
 Remove points where switching function is < 1.0e-08
 Keep 2509 surface tesserae and discard 4049 interior tesserae
 Molecular Surface Area = 362.026 Angst**2
 Requested basis set is rimp2-cc-pVTZ
 There are 750 shells and 2588 basis functions
 A cutoff of  1.0D-10 yielded  32023 shell pairs
 There are    246429 function pairs (    320180 Cartesian)
 Smallest overlap matrix eigenvalue = 9.57E-06

 Q-Chem warning in module stvman/mkSTV.C, line 323:

 Overlap eigenvalue is smaller than square root of threshold
 Use THRESH >= 12 to get rid of this warning


 Scale SEOQF with 1.000000e-01/1.000000e-02/1.000000e-01

 Standard Electronic Orientation quadrupole field applied
 Nucleus-field energy     =    -0.0000000125 hartrees
 Guess from superposition of atomic densities
 Warning:  Energy on first SCF cycle will be non-variational
 SAD guess density has 194.000000 electrons

 -----------------------------------------------------------------------
  General SCF calculation program by
  Eric Jon Sundstrom, Paul Horn, Yuezhi Mao, Dmitri Zuev, Alec White,
  David Stuck, Shaama M.S., Shane Yost, Joonho Lee, David Small,
  Daniel Levine, Susi Lehtola, Hugh Burton, Evgeny Epifanovsky,
  Bang C. Huynh
 -----------------------------------------------------------------------
 Hartree-Fock
 using 64 threads for integral computing
 -------------------------------------------------------
 OpenMP Integral computing Module                
 Release: version 1.0, May 2013, Q-Chem Inc. Pittsburgh 
 -------------------------------------------------------
 A restricted SCF calculation will be
 performed using DIIS
 SCF converges when DIIS error is below 1.0e-06
 ---------------------------------------
  Cycle       Energy         DIIS error
 ---------------------------------------
    1   -1581.3669694359      1.87e-02  
    2   -1570.0795409708      2.09e-03  
    3   -1570.4029914988      1.63e-03  
    4   -1570.6337690721      2.58e-04  
    5   -1570.6459184167      7.60e-05  
    6   -1570.6469797297      2.76e-05  
    7   -1570.6472248956      1.42e-05  
    8   -1570.6473032740      5.99e-06  
    9   -1570.6473166406      2.44e-06  
   10   -1570.6473193001      8.94e-07  Convergence criterion met
 ---------------------------------------
 SCF time:   CPU 5747.40s  wall 212.00s 

************** Final PCM Free Energy Summary **************
 G_electrostatic  =      -0.02290810 hartree =     -14.37504748 kcal/mol
 G_cavitation     =       0.00000000 hartree =       0.00000000 kcal/mol
 G_dispersion     =       0.00000000 hartree =       0.00000000 kcal/mol
 G_repulsion      =       0.00000000 hartree =       0.00000000 kcal/mol
 --------------------------------------------------
 Non-electrostatic Free Energy =       0.00000000 hartree =       0.00000000 kcal/mol
 Total                         =      -0.02290810 hartree =     -14.37504748 kcal/mol
 --------------------------------------------------
 SCF Energy (H0 + V/2)                       =   -1570.64731930 
 Solute Internal Energy (H0)                 =   -1570.62441120 
 Total Free Energy (H0 + V/2 + non-elec)     =   -1570.64731930 hartree
                                             = -985596.06846158 kcal/mol
***********************************************************

 SCF   energy in the final basis set =    -1570.6473193001
 Total energy in the final basis set =    -1570.6473193001


 --------------------------------------------------------------
  Generalized many-body perturbation theory program
  by Joonho Lee, Fazle Rob, Xintian Feng, Evgeny Epifanovsky

 No regularization used 
 (reg. param. = 0.0000e+00)
  (P|Q)^-1/2 Time:  CPU 109.27 s  wall 2.23 s

 In RI-MP2 calculation: 
 # of frozen core orbitals: 31

 Components of the RIMP2 correlation energy:
        aaaa    correlation energy =        -0.6195637231 a.u.
        abab    correlation energy =        -3.3993809572 a.u.
        bbbb    correlation energy =        -0.6195637231 a.u.
        non-Brillouin singles      =        -0.0000000000 a.u.
        total same-spin energy     =        -1.2391274461 a.u.
        total opposite-spin energy =        -3.3993809572 a.u.

 Total  RIMP2   correlation energy =        -4.6385084034 a.u.
        RIMP2         total energy =     -1575.2858277035 a.u.

 RI-MP2 Energy Time:  CPU 1840.89 s  wall 30.52 s
 
 --------------------------------------------------------------
 
                    Orbital Energies (a.u.)
 --------------------------------------------------------------
 
 Alpha MOs
 -- Occupied --
-91.9808 -20.5584 -20.5560 -20.5539 -20.5503 -15.6309 -15.6298 -11.3998
-11.3948 -11.3915 -11.3901 -11.3163 -11.3021 -11.3013 -11.3000 -11.2961
-11.2957 -11.2857 -11.2854 -11.2844 -11.2800 -11.2795 -11.2750 -11.2644
-11.2644 -11.2616 -11.2451  -8.9810  -6.6613  -6.6609  -6.6606  -1.4247
 -1.4244  -1.4040  -1.4035  -1.2672  -1.2650  -1.2164  -1.1734  -1.1424
 -1.1162  -1.0612  -1.0487  -0.9925  -0.9878  -0.9816  -0.9587  -0.9474
 -0.8957  -0.8792  -0.8751  -0.8613  -0.7920  -0.7765  -0.7739  -0.7590
 -0.7331  -0.7194  -0.7036  -0.6933  -0.6828  -0.6726  -0.6659  -0.6618
 -0.6564  -0.6419  -0.6374  -0.6356  -0.6284  -0.6124  -0.5848  -0.5828
 -0.5769  -0.5706  -0.5674  -0.5648  -0.5634  -0.5553  -0.5538  -0.5483
 -0.5363  -0.5249  -0.5207  -0.5099  -0.4814  -0.4699  -0.4633  -0.4575
 -0.4566  -0.4472  -0.4267  -0.4179  -0.4086  -0.3642  -0.3356  -0.3245
 -0.3084
 -- Virtual --
 -0.0192   0.0599   0.0713   0.0967   0.1226   0.1542   0.1576   0.1609
  0.1663   0.1680   0.1781   0.1830   0.1856   0.1882   0.2031   0.2073
  0.2181   0.2248   0.2276   0.2310   0.2362   0.2449   0.2583   0.2619
  0.2651   0.2961   0.3072   0.3128   0.3179   0.3230   0.3288   0.3330
  0.3414   0.3488   0.3514   0.3554   0.3586   0.3608   0.3665   0.3737
  0.3793   0.3818   0.3859   0.3981   0.3985   0.4037   0.4064   0.4111
  0.4181   0.4274   0.4296   0.4344   0.4417   0.4460   0.4478   0.4532
  0.4560   0.4578   0.4599   0.4746   0.4778   0.4854   0.4881   0.4985
  0.5057   0.5084   0.5155   0.5181   0.5200   0.5235   0.5247   0.5313
  0.5351   0.5383   0.5410   0.5508   0.5536   0.5555   0.5583   0.5655
  0.5729   0.5769   0.5831   0.5873   0.5892   0.5939   0.5960   0.6015
  0.6086   0.6119   0.6153   0.6155   0.6204   0.6234   0.6248   0.6335
  0.6339   0.6354   0.6370   0.6406   0.6423   0.6471   0.6531   0.6703
  0.6808   0.6845   0.6869   0.6974   0.7020   0.7036   0.7138   0.7169
  0.7258   0.7340   0.7350   0.7396   0.7460   0.7565   0.7600   0.7648
  0.7662   0.7820   0.7841   0.7955   0.8023   0.8086   0.8139   0.8146
  0.8215   0.8276   0.8321   0.8378   0.8442   0.8492   0.8532   0.8624
  0.8654   0.8674   0.8711   0.8759   0.8792   0.8902   0.8985   0.9028
  0.9110   0.9176   0.9246   0.9271   0.9306   0.9342   0.9388   0.9468
  0.9514   0.9561   0.9642   0.9683   0.9726   0.9783   0.9821   0.9867
  0.9902   0.9958   1.0012   1.0104   1.0108   1.0218   1.0309   1.0327
  1.0364   1.0433   1.0480   1.0527   1.0604   1.0685   1.0731   1.0767
  1.0794   1.0835   1.0869   1.0892   1.0996   1.1013   1.1082   1.1250
  1.1276   1.1318   1.1339   1.1388   1.1418   1.1479   1.1538   1.1554
  1.1632   1.1693   1.1710   1.1779   1.1806   1.1853   1.1897   1.1978
  1.2006   1.2092   1.2123   1.2175   1.2265   1.2286   1.2380   1.2393
  1.2459   1.2489   1.2574   1.2598   1.2715   1.2779   1.2828   1.2933
  1.3166   1.3291   1.3356   1.3375   1.3453   1.3467   1.3566   1.3689
  1.3747   1.3804   1.3822   1.3851   1.3924   1.3938   1.4036   1.4148
  1.4195   1.4238   1.4255   1.4414   1.4470   1.4521   1.4597   1.4626
  1.4802   1.4822   1.4876   1.4941   1.4989   1.5032   1.5100   1.5209
  1.5258   1.5320   1.5334   1.5467   1.5491   1.5533   1.5614   1.5633
  1.5676   1.5731   1.5811   1.5889   1.5913   1.5984   1.6088   1.6282
  1.6445   1.6483   1.6511   1.6609   1.6706   1.6744   1.6788   1.6867
  1.6923   1.7062   1.7188   1.7226   1.7302   1.7342   1.7450   1.7494
  1.7521   1.7624   1.7673   1.7737   1.7850   1.7920   1.8039   1.8095
  1.8168   1.8248   1.8356   1.8455   1.8537   1.8553   1.8603   1.8663
  1.8739   1.8793   1.8886   1.9136   1.9177   1.9323   1.9408   1.9585
  1.9666   1.9728   1.9812   1.9826   1.9978   2.0151   2.0264   2.0307
  2.0503   2.0561   2.0650   2.0779   2.1068   2.1199   2.1332   2.1358
  2.1416   2.1456   2.1624   2.1756   2.1930   2.2088   2.2235   2.2317
  2.2417   2.2508   2.2586   2.2759   2.2867   2.2947   2.3017   2.3111
  2.3127   2.3260   2.3329   2.3356   2.3571   2.3639   2.3773   2.3943
  2.4143   2.4286   2.4375   2.4430   2.4521   2.4570   2.4669   2.4731
  2.4786   2.4947   2.4992   2.5047   2.5182   2.5331   2.5418   2.5471
  2.5588   2.5667   2.5761   2.5891   2.5933   2.6026   2.6079   2.6145
  2.6163   2.6278   2.6303   2.6451   2.6567   2.6649   2.6679   2.6761
  2.6777   2.6948   2.7002   2.7069   2.7151   2.7187   2.7241   2.7345
  2.7399   2.7480   2.7530   2.7564   2.7641   2.7729   2.7835   2.7908
  2.8028   2.8156   2.8303   2.8336   2.8469   2.8475   2.8536   2.8616
  2.8687   2.8724   2.8813   2.8845   2.8911   2.8940   2.9023   2.9113
  2.9150   2.9259   2.9318   2.9358   2.9411   2.9504   2.9598   2.9681
  2.9743   2.9808   2.9890   2.9999   3.0039   3.0064   3.0142   3.0177
  3.0317   3.0349   3.0406   3.0434   3.0482   3.0673   3.0693   3.0806
  3.0886   3.0923   3.0993   3.1026   3.1104   3.1122   3.1201   3.1273
  3.1338   3.1366   3.1478   3.1567   3.1647   3.1661   3.1732   3.1801
  3.1881   3.2002   3.2030   3.2095   3.2099   3.2192   3.2212   3.2256
  3.2269   3.2300   3.2391   3.2426   3.2473   3.2550   3.2571   3.2614
  3.2704   3.2761   3.2808   3.2838   3.2861   3.2928   3.2992   3.3013
  3.3067   3.3109   3.3142   3.3219   3.3271   3.3302   3.3371   3.3392
  3.3436   3.3444   3.3521   3.3570   3.3628   3.3644   3.3671   3.3708
  3.3777   3.3833   3.3914   3.3969   3.4004   3.4039   3.4152   3.4177
  3.4197   3.4306   3.4320   3.4379   3.4465   3.4478   3.4537   3.4552
  3.4623   3.4651   3.4677   3.4753   3.4814   3.4843   3.4895   3.4945
  3.4987   3.5018   3.5031   3.5082   3.5124   3.5150   3.5231   3.5260
  3.5298   3.5383   3.5425   3.5493   3.5596   3.5636   3.5717   3.5808
  3.5828   3.5945   3.6010   3.6076   3.6109   3.6173   3.6277   3.6332
  3.6340   3.6403   3.6446   3.6512   3.6516   3.6593   3.6690   3.6726
  3.6754   3.6899   3.7000   3.7042   3.7101   3.7117   3.7169   3.7267
  3.7306   3.7326   3.7412   3.7423   3.7511   3.7583   3.7639   3.7692
  3.7758   3.7814   3.7837   3.7910   3.7948   3.7976   3.8034   3.8071
  3.8112   3.8288   3.8338   3.8383   3.8433   3.8471   3.8541   3.8583
  3.8610   3.8658   3.8820   3.8834   3.8890   3.9063   3.9170   3.9243
  3.9279   3.9322   3.9381   3.9456   3.9541   3.9559   3.9694   3.9725
  3.9769   3.9957   4.0034   4.0093   4.0208   4.0223   4.0266   4.0484
  4.0489   4.0601   4.0652   4.0714   4.0842   4.0914   4.0996   4.1043
  4.1238   4.1272   4.1389   4.1508   4.1539   4.1564   4.1658   4.1762
  4.1833   4.1866   4.1905   4.2028   4.2088   4.2160   4.2301   4.2379
  4.2426   4.2550   4.2619   4.2723   4.2752   4.2771   4.2852   4.2894
  4.2931   4.2972   4.3018   4.3128   4.3192   4.3227   4.3316   4.3407
  4.3455   4.3521   4.3532   4.3648   4.3680   4.3708   4.3746   4.3800
  4.3934   4.3994   4.4027   4.4097   4.4187   4.4222   4.4306   4.4393
  4.4472   4.4611   4.4677   4.4778   4.4827   4.5021   4.5206   4.5215
  4.5257   4.5286   4.5379   4.5411   4.5474   4.5555   4.5637   4.5679
  4.5766   4.5824   4.5833   4.5850   4.6076   4.6137   4.6310   4.6423
  4.6461   4.6521   4.6557   4.6710   4.6752   4.6798   4.6897   4.6988
  4.7172   4.7186   4.7393   4.7441   4.7573   4.7695   4.7787   4.7926
  4.8012   4.8233   4.8307   4.8399   4.8455   4.8561   4.8714   4.8757
  4.8914   4.9015   4.9112   4.9280   4.9361   4.9488   4.9696   4.9742
  4.9871   5.0147   5.0307   5.0375   5.0437   5.0464   5.0512   5.0550
  5.0890   5.0963   5.1048   5.1087   5.1211   5.1290   5.1417   5.1456
  5.1594   5.1713   5.1847   5.1897   5.1977   5.2275   5.2367   5.2556
  5.2588   5.2784   5.2809   5.2919   5.3218   5.3302   5.3359   5.3424
  5.3547   5.3943   5.3966   5.4038   5.4151   5.4313   5.4380   5.4607
  5.4881   5.4997   5.5073   5.5089   5.5135   5.5303   5.5481   5.5569
  5.5588   5.5604   5.5641   5.5746   5.5778   5.5899   5.6042   5.6110
  5.6205   5.6346   5.6527   5.6531   5.6559   5.6752   5.6768   5.6980
  5.7037   5.7155   5.7192   5.7401   5.7509   5.7581   5.7599   5.7731
  5.7753   5.7796   5.8092   5.8243   5.8547   5.8824   5.9149   5.9183
  5.9486   5.9713   6.0066   6.0131   6.0215   6.0252   6.0373   6.0521
  6.0767   6.1007   6.1070   6.1166   6.1363   6.1641   6.1931   6.2105
  6.2178   6.2189   6.2228   6.2595   6.2661   6.2762   6.3063   6.3440
  6.3513   6.3736   6.4248   6.4456   6.4661   6.5259   6.5622   6.5712
  6.5857   6.6068   6.6101   6.6462   6.6486   6.6600   6.7050   6.8310
  6.8370   6.8806   6.8862   6.8977   6.9116   6.9276   6.9905   7.0787
  7.1140   7.1401   7.1861   7.1968   7.2298   7.3325   7.3420   7.3445
  7.3592   7.4668   7.5456   7.5579   7.5736   7.5787   7.6179   7.6339
  7.6719   7.6886   7.7246   8.3383   9.8705  10.3121  11.0984  11.2264
 11.6799  11.7370  11.9998  12.3627  12.4420  12.7897  12.8294  12.9452
 13.2591  13.5788  13.8164  13.9472  14.0567  14.0918  14.2252  14.3482
 14.4094  14.7361  15.3265  15.7145  15.9788
 --------------------------------------------------------------
 
          Ground-State Mulliken Net Atomic Charges

     Atom                 Charge (a.u.)
  ----------------------------------------
      1 C                    -0.139949
      2 C                    -0.107908
      3 C                    -0.037632
      4 C                    -0.004085
      5 H                     0.188255
      6 C                    -0.011101
      7 C                     0.074867
      8 C                     0.012052
      9 C                    -0.055767
     10 C                    -0.159129
     11 C                     0.093977
     12 H                     0.180793
     13 C                     0.360984
     14 C                     0.365559
     15 N                    -0.101345
     16 C                     0.358080
     17 C                     0.406020
     18 N                    -0.095331
     19 O                    -0.464682
     20 O                    -0.476353
     21 O                    -0.482224
     22 O                    -0.461243
     23 C                    -0.201074
     24 H                     0.141020
     25 H                     0.112109
     26 H                     0.112388
     27 C                    -0.196278
     28 H                     0.134001
     29 H                     0.112428
     30 H                     0.112411
     31 H                     0.213252
     32 C                    -0.079624
     33 S                     0.057308
     34 C                    -0.172936
     35 C                    -0.150203
     36 C                    -0.230635
     37 H                     0.192816
     38 H                     0.189514
     39 H                     0.209665
  ----------------------------------------
  Sum of atomic charges =     0.000000

 -----------------------------------------------------------------
                    Cartesian Multipole Moments
 -----------------------------------------------------------------
    Charge (ESU x 10^10)
                 0.0000
    Dipole Moment (Debye)
         X       1.6571      Y       1.1938      Z      -0.4163
       Tot       2.0843
    Quadrupole Moments (Debye-Ang)
        XX    -173.0679     XY       5.0140     YY    -171.0351
        XZ      -8.5744     YZ       0.3970     ZZ    -165.2294
    Octopole Moments (Debye-Ang^2)
       XXX    -111.2066    XXY     529.9174    XYY     -17.2835
       YYY    1609.0884    XXZ     -26.9696    XYZ      45.8485
       YYZ     -17.9050    XZZ     -30.8661    YZZ     517.5111
       ZZZ     -85.3742
    Hexadecapole Moments (Debye-Ang^3)
      XXXX   -3775.8734   XXXY    -210.2901   XXYY   -3579.9064
      XYYY    -662.4586   YYYY  -17170.4459   XXXZ   -1514.1366
      XXYZ      54.0239   XYYZ    -767.4185   YYYZ    -535.4463
      XXZZ   -1151.3840   XYZZ       5.2303   YYZZ   -3336.4395
      XZZZ   -1482.4643   YZZZ    -171.8251   ZZZZ   -2862.2379
 -----------------------------------------------------------------
 Total job time:  246.27s(wall), 7696.62s(cpu) 
 Fri Dec 15 14:28:13 2023

        *************************************************************
        *                                                           *
        *  Thank you very much for using Q-Chem.  Have a nice day.  *
        *                                                           *
        *************************************************************


0 sent ACK to 0 
now end server 0 ... 
cleanup process ... done
remove work dirs ./qchem2779955.0 -- ./qchem2779955.0
rm -rf ./qchem2779955.0
rm -rf ./qchem2779955
