You are running Q-Chem version: 5.4.0

#
# job setting
#
local host:  exp-2-40
current dir: /home/rramji/project-csd799/aromodel/pndit-qchem/rotation_run
input file:  Dimethyl_Naphthalene_Dicarboximide_Phi_25_Theta_10_Thiophene.qcin
output file: 
nprocs     : 1
nthreads   : 64
#
# qchem installation setting
#
QC:          /cm/shared/apps/spack/cpu/opt/spack/linux-centos8-zen2/gcc-10.2.0/qchem-5.4-akfmr7b3t57bfs6qan3padb2wnb2i7cl
QCAUX:       /cm/shared/apps/spack/cpu/opt/spack/linux-centos8-zen2/gcc-10.2.0/qchem-5.4-akfmr7b3t57bfs6qan3padb2wnb2i7cl/qcaux
QCPROG:      /cm/shared/apps/spack/cpu/opt/spack/linux-centos8-zen2/gcc-10.2.0/qchem-5.4-akfmr7b3t57bfs6qan3padb2wnb2i7cl/exe/qcprog.exe
QCPROG_S:    /cm/shared/apps/spack/cpu/opt/spack/linux-centos8-zen2/gcc-10.2.0/qchem-5.4-akfmr7b3t57bfs6qan3padb2wnb2i7cl/exe/qcprog.exe_s
PARALLEL:    -DPARALLEL
QCMPI:       mpich
#
# qchem directory setting
#
qcrun:       qchem724290
QCSCRATCH:   .
QCLOCALSCR:  
QCTMPDIR:    .
QCFILEPREF:  ./qchem724290
QCSAVEDIR:   
workdirs:    ./qchem724290
workdir0:    ./qchem724290
partmpdirs =  
#
# parallel setting
#
QCRSH:           ssh
QCMPI:           mpich
QCMPIRUN:        /cm/shared/apps/spack/cpu/opt/spack/linux-centos8-zen2/gcc-10.2.0/qchem-5.4-akfmr7b3t57bfs6qan3padb2wnb2i7cl/bin/mpi/mpirun_qchem
QCMACHINEFILE:   ./qchem724290/hostfile
exp-2-40

#
# env setting
#
exported envs:   QC QCAUX QCSCRATCH QCRUNNAME QCFILEPREF QCPROG QCPROG_S GUIFILE

Running Job 1 of 1 Dimethyl_Naphthalene_Dicarboximide_Phi_25_Theta_10_Thiophene.qcin
qchem Dimethyl_Naphthalene_Dicarboximide_Phi_25_Theta_10_Thiophene.qcin_724290.0 ./qchem724290/ 1
/cm/shared/apps/spack/cpu/opt/spack/linux-centos8-zen2/gcc-10.2.0/qchem-5.4-akfmr7b3t57bfs6qan3padb2wnb2i7cl/bin/mpi/mpirun_qchem -machinefile ./qchem724290/hostfile -np 1 /cm/shared/apps/spack/cpu/opt/spack/linux-centos8-zen2/gcc-10.2.0/qchem-5.4-akfmr7b3t57bfs6qan3padb2wnb2i7cl/exe/qcprog.exe Dimethyl_Naphthalene_Dicarboximide_Phi_25_Theta_10_Thiophene.qcin_724290.0 ./qchem724290/

Process 0 of 1 is on exp-2-40 - thread support 0
initial socket setup ...start
initial socket setup ...done 
now start server 0 ... 
                  Welcome to Q-Chem
     A Quantum Leap Into The Future Of Chemistry


 Q-Chem 5.4, Q-Chem, Inc., Pleasanton, CA (2021)

 License issued to: University of California, San Diego (site)

 E. Epifanovsky,  A. T. B. Gilbert,  Xintian Feng,  Joonho Lee,  Yuezhi Mao,  
 N. Mardirossian,  P. Pokhilko,  A. White,  M. Wormit,  M. P. Coons,  
 A. L. Dempwolff,  Zhengting Gan,  D. Hait,  P. R. Horn,  L. D. Jacobson,  
 I. Kaliman,  J. Kussmann,  A. W. Lange,  Ka Un Lao,  D. S. Levine,  Jie Liu,  
 S. C. McKenzie,  A. F. Morrison,  K. Nanda,  F. Plasser,  D. R. Rehn,  
 M. L. Vidal,  Zhi-Qiang You,  Ying Zhu,  B. Alam,  B. Albrecht,  
 A. Aldossary,  E. Alguire,  J. H. Andersen,  D. Barton,  K. Begam,  A. Behn,  
 Y. A. Bernard,  E. J. Berquist,  H. Burton,  A. Carreras,  K. Carter-Fenk,  
 R. Chakraborty,  A. D. Chien,  K. D. Closser,  V. Cofer-Shabica,  
 S. Dasgupta,  Jia Deng,  M. de Wergifosse,  M. Diedenhofen,  Hainam Do,  
 S. Ehlert,  Po-Tung Fang,  S. Fatehi,  Qingguo Feng,  J. Gayvert,  
 Qinghui Ge,  G. Gidofalvi,  M. Goldey,  J. Gomes,  C. Gonzalez-Espinoza,  
 S. Gulania,  A. Gunina,  M. W. D. Hanson-Heine,  P. H. P. Harbach,  
 A. W. Hauser,  M. F. Herbst,  M. Hernandez Vera,  M. Hodecker,  
 Z. C. Holden,  S. Houck,  Xunkun Huang,  Kerwin Hui,  B. C. Huynh,  
 M. Ivanov,  Hyunjun Ji,  Hanjie Jiang,  B. Kaduk,  S. Kaehler,  
 K. Khistyaev,  Jaehoon Kim,  P. Klunzinger,  Z. Koczor-Benda,  
 Joong Hoon Koh,  D. Kosenkov,  L. Koulias,  T. Kowalczyk,  C. M. Krauter,  
 K. Kue,  A. Kunitsa,  T. Kus,  A. Landau,  K. V. Lawler,  D. Lefrancois,  
 S. Lehtola,  Rain Li,  Yi-Pei Li,  Jiashu Liang,  M. Liebenthal,  
 Hung-Hsuan Lin,  You-Sheng Lin,  Fenglai Liu,  Kuan-Yu Liu,  
 M. Loipersberger,  A. Luenser,  A. Manjanath,  P. Manohar,  E. Mansoor,  
 S. F. Manzer,  Shan-Ping Mao,  A. V. Marenich,  T. Markovich,  S. Mason,  
 S. A. Maurer,  P. F. McLaughlin,  M. F. S. J. Menger,  J.-M. Mewes,  
 S. A. Mewes,  P. Morgante,  J. W. Mullinax,  T. S. Nguyen-Beck,  
 K. J. Oosterbaan,  G. Paran,  Alexander C. Paul,  Suranjan K. Paul,  
 F. Pavosevic,  Zheng Pei,  S. Prager,  E. I. Proynov,  E. Ramos,  B. Rana,  
 A. E. Rask,  A. Rettig,  R. M. Richard,  F. Rob,  E. Rossomme,  T. Scheele,  
 M. Scheurer,  M. Schneider,  N. Sergueev,  S. M. Sharada,  W. Skomorowski,  
 D. W. Small,  C. J. Stein,  Yu-Chuan Su,  E. J. Sundstrom,  Zhen Tao,  
 J. Thirman,  T. Tsuchimochi,  N. M. Tubman,  S. P. Veccham,  O. Vydrov,  
 J. Wenzel,  J. Witte,  A. Yamada,  Kun Yao,  S. Yeganeh,  S. R. Yost,  
 A. Zech,  Igor Ying Zhang,  Xing Zhang,  Yu Zhang,  D. Zuev,  
 A. Aspuru-Guzik,  A. T. Bell,  N. A. Besley,  K. B. Bravaya,  B. R. Brooks,  
 D. Casanova,  Jeng-Da Chai,  S. Coriani,  C. J. Cramer,  
 A. E. DePrince, III,  R. A. DiStasio Jr.,  A. Dreuw,  B. D. Dunietz,  
 T. R. Furlani,  W. A. Goddard III,  S. Grimme,  S. Hammes-Schiffer,  
 T. Head-Gordon,  W. J. Hehre,  Chao-Ping Hsu,  T.-C. Jagau,  Yousung Jung,  
 A. Klamt,  Jing Kong,  D. S. Lambrecht,  WanZhen Liang,  N. J. Mayhall,  
 C. W. McCurdy,  J. B. Neaton,  C. Ochsenfeld,  J. A. Parkhill,  R. Peverati,  
 V. A. Rassolov,  Yihan Shao,  L. V. Slipchenko,  T. Stauch,  R. P. Steele,  
 J. E. Subotnik,  A. J. W. Thom,  A. Tkatchenko,  D. G. Truhlar,  
 T. Van Voorhis,  T. A. Wesolowski,  K. B. Whaley,  H. L. Woodcock III,  
 P. M. Zimmerman,  S. Faraji,  P. M. W. Gill,  M. Head-Gordon,  
 J. M. Herbert,  A. I. Krylov

 Contributors to earlier versions of Q-Chem not listed above: 
 R. D. Adamson,  B. Austin,  R. Baer,  J. Baker,  G. J. O. Beran,  
 K. Brandhorst,  S. T. Brown,  E. F. C. Byrd,  A. K. Chakraborty,  
 G. K. L. Chan,  Chun-Min Chang,  Yunqing Chen,  C.-L. Cheng,  
 Siu Hung Chien,  D. M. Chipman,  D. L. Crittenden,  H. Dachsel,  
 R. J. Doerksen,  A. D. Dutoi,  R. G. Edgar,  J. Fosso-Tande,  
 L. Fusti-Molnar,  D. Ghosh,  A. Ghysels,  A. Golubeva-Zadorozhnaya,  
 J. Gonthier,  M. S. Gordon,  S. R. Gwaltney,  G. Hawkins,  J. E. Herr,  
 A. Heyden,  S. Hirata,  E. G. Hohenstein,  G. Kedziora,  F. J. Keil,  
 C. Kelley,  Jihan Kim,  R. A. King,  R. Z. Khaliullin,  P. P. Korambath,  
 W. Kurlancheek,  A. Laurent,  A. M. Lee,  M. S. Lee,  S. V. Levchenko,  
 Ching Yeh Lin,  D. Liotard,  E. Livshits,  R. C. Lochan,  I. Lotan,  
 L. A. Martinez-Martinez,  P. E. Maslen,  N. Nair,  D. P. O'Neill,  
 D. Neuhauser,  E. Neuscamman,  C. M. Oana,  R. Olivares-Amaya,  R. Olson,  
 T. M. Perrine,  B. Peters,  P. A. Pieniazek,  A. Prociuk,  Y. M. Rhee,  
 J. Ritchie,  M. A. Rohrdanz,  E. Rosta,  N. J. Russ,  H. F. Schaefer III,  
 M. W. Schmidt,  N. E. Schultz,  S. Sharma,  N. Shenvi,  C. D. Sherrill,  
 A. C. Simmonett,  A. Sodt,  T. Stein,  D. Stuck,  K. S. Thanthiriwatte,  
 V. Vanovschi,  L. Vogt,  Tao Wang,  A. Warshel,  M. A. Watson,  
 C. F. Williams,  Q. Wu,  X. Xu,  Jun Yang,  W. Zhang,  Yan Zhao

 Please cite Q-Chem as follows:
 Y. Shao et al., Mol. Phys. 113, 184-215 (2015)
 DOI: 10.1080/00268976.2014.952696

 Q-Chem 5.4.0 for Intel X86 EM64T Linux

 Parts of Q-Chem use Armadillo 9.800.1 (Horizon Scraper).
 http://arma.sourceforge.net/

 Q-Chem begins on Fri Dec 15 13:32:35 2023  

 Host: 
0

     Scratch files written to ./qchem724290//
 May1621 |scratch|qcdevops|jenkins|workspace|build_RNUM    
 Parallel job on  1  processors
 Processing $rem in /cm/shared/apps/spack/cpu/opt/spack/linux-centos8-zen2/gcc-10.2.0/qchem-5.4-akfmr7b3t57bfs6qan3padb2wnb2i7cl/config/preferences:
 Processing $rem in /home/rramji/.qchemrc:
 Symmetry turned off for PCM/SM12/SMD calculation
 Core orbitals will be frozen

 Checking the input file for inconsistencies... 	...done.

 Q-Chem warning in module forms1/BasisType.C, line 2236:

 You are not using the predefined 5D/6D in this basis set.


--------------------------------------------------------------
User input:
--------------------------------------------------------------
$molecule
0 1
C	0.043160	-6.741404	-0.253280
C	0.269777	-6.155638	-1.539213
C	-0.145543	-5.791452	0.814295
C	0.318377	-4.803786	-1.813519
H	0.422058	-6.821518	-2.403941
C	-0.094194	-4.378638	0.527140
C	0.137191	-3.838032	-0.783072
C	-0.275104	-3.413062	1.556403
C	0.188116	-2.426473	-1.067932
C	-0.226701	-2.059348	1.285420
C	-0.000000	-1.478216	-0.000000
H	-0.378931	-1.394783	2.151147
C	-0.397845	-6.187987	2.234582
C	-0.523637	-3.798164	2.965273
N	-0.567586	-5.170003	3.204744
C	0.567421	-4.424987	-3.226257
C	0.439541	-2.036627	-2.489446
N	0.609650	-3.049156	-3.459801
O	-0.468608	-7.353131	2.619468
O	-0.683034	-2.986854	3.874668
O	0.725131	-5.248946	-4.124806
O	0.512648	-0.878829	-2.895819
C	-0.813908	-5.563799	4.595691
H	-0.822891	-6.664085	4.640022
H	-1.781600	-5.147101	4.934830
H	-0.020360	-5.148785	5.246157
C	0.851649	-2.587487	-4.829716
H	0.962191	-3.483329	-5.462742
H	1.765865	-1.964972	-4.863242
H	0.005383	-1.962932	-5.173521
H	0.010555	-7.822318	-0.070208
C	0.000000	0.000000	0.000000
S	0.335026	0.718942	1.580530
C	1.027130	2.203226	0.904911
C	0.421617	0.904557	-0.985400
C	0.979485	2.101144	-0.493528
H	0.322049	0.690978	-2.059934
H	1.351718	2.899571	-1.152593
H	1.399246	3.001430	1.556025
$end

$rem
JOBTYPE		SP
EXCHANGE	HF
CORRELATION	pRIMP2
BASIS		cc-pvtz
METHOD		rimp2
AUX_BASIS	rimp2-cc-pvtz
SOLVENT_METHOD	PCM
PURECART	11111
SYMMETRY	false
MEM_TOTAL	110000
SCF_CONVERGENCE = 6
THRESH=10
GUI = 2
$end



$solvent
dielectric 4.90
$end
--------------------------------------------------------------
 ----------------------------------------------------------------
             Standard Nuclear Orientation (Angstroms)
    I     Atom           X                Y                Z
 ----------------------------------------------------------------
    1      C       0.0431600000    -6.7414040000    -0.2532800000
    2      C       0.2697770000    -6.1556380000    -1.5392130000
    3      C      -0.1455430000    -5.7914520000     0.8142950000
    4      C       0.3183770000    -4.8037860000    -1.8135190000
    5      H       0.4220580000    -6.8215180000    -2.4039410000
    6      C      -0.0941940000    -4.3786380000     0.5271400000
    7      C       0.1371910000    -3.8380320000    -0.7830720000
    8      C      -0.2751040000    -3.4130620000     1.5564030000
    9      C       0.1881160000    -2.4264730000    -1.0679320000
   10      C      -0.2267010000    -2.0593480000     1.2854200000
   11      C       0.0000000000    -1.4782160000     0.0000000000
   12      H      -0.3789310000    -1.3947830000     2.1511470000
   13      C      -0.3978450000    -6.1879870000     2.2345820000
   14      C      -0.5236370000    -3.7981640000     2.9652730000
   15      N      -0.5675860000    -5.1700030000     3.2047440000
   16      C       0.5674210000    -4.4249870000    -3.2262570000
   17      C       0.4395410000    -2.0366270000    -2.4894460000
   18      N       0.6096500000    -3.0491560000    -3.4598010000
   19      O      -0.4686080000    -7.3531310000     2.6194680000
   20      O      -0.6830340000    -2.9868540000     3.8746680000
   21      O       0.7251310000    -5.2489460000    -4.1248060000
   22      O       0.5126480000    -0.8788290000    -2.8958190000
   23      C      -0.8139080000    -5.5637990000     4.5956910000
   24      H      -0.8228910000    -6.6640850000     4.6400220000
   25      H      -1.7816000000    -5.1471010000     4.9348300000
   26      H      -0.0203600000    -5.1487850000     5.2461570000
   27      C       0.8516490000    -2.5874870000    -4.8297160000
   28      H       0.9621910000    -3.4833290000    -5.4627420000
   29      H       1.7658650000    -1.9649720000    -4.8632420000
   30      H       0.0053830000    -1.9629320000    -5.1735210000
   31      H       0.0105550000    -7.8223180000    -0.0702080000
   32      C       0.0000000000     0.0000000000     0.0000000000
   33      S       0.3350260000     0.7189420000     1.5805300000
   34      C       1.0271300000     2.2032260000     0.9049110000
   35      C       0.4216170000     0.9045570000    -0.9854000000
   36      C       0.9794850000     2.1011440000    -0.4935280000
   37      H       0.3220490000     0.6909780000    -2.0599340000
   38      H       1.3517180000     2.8995710000    -1.1525930000
   39      H       1.3992460000     3.0014300000     1.5560250000
 ----------------------------------------------------------------
 Nuclear Repulsion Energy =        2504.02853339 hartrees
 There are       97 alpha and       97 beta electrons
 Requested basis set is cc-pVTZ
 There are 344 shells and 982 basis functions

 Total QAlloc Memory Limit 110000 MB
 Mega-Array Size       188 MB
 MEM_STATIC part       192 MB
 Discretize the solute cavity surface with Lebedev spheres
	Using 110 Lebedev grid points for each H atom
	Using 194 Lebedev grid points for other atoms
	Atomic van der Waals radii will be scaled by 1.20
 Remove points where switching function is < 1.0e-08
 Keep 2539 surface tesserae and discard 4019 interior tesserae
 Molecular Surface Area = 359.105 Angst**2
 Requested basis set is rimp2-cc-pVTZ
 There are 750 shells and 2588 basis functions
 A cutoff of  1.0D-10 yielded  31879 shell pairs
 There are    245377 function pairs (    318819 Cartesian)
 Smallest overlap matrix eigenvalue = 9.95E-06

 Q-Chem warning in module stvman/mkSTV.C, line 323:

 Overlap eigenvalue is smaller than square root of threshold
 Use THRESH >= 12 to get rid of this warning


 Scale SEOQF with 1.000000e-01/1.000000e-02/1.000000e-02

 Standard Electronic Orientation quadrupole field applied
 Nucleus-field energy     =     0.0000000110 hartrees
 Guess from superposition of atomic densities
 Warning:  Energy on first SCF cycle will be non-variational
 SAD guess density has 194.000000 electrons

 -----------------------------------------------------------------------
  General SCF calculation program by
  Eric Jon Sundstrom, Paul Horn, Yuezhi Mao, Dmitri Zuev, Alec White,
  David Stuck, Shaama M.S., Shane Yost, Joonho Lee, David Small,
  Daniel Levine, Susi Lehtola, Hugh Burton, Evgeny Epifanovsky,
  Bang C. Huynh
 -----------------------------------------------------------------------
 Hartree-Fock
 using 64 threads for integral computing
 -------------------------------------------------------
 OpenMP Integral computing Module                
 Release: version 1.0, May 2013, Q-Chem Inc. Pittsburgh 
 -------------------------------------------------------
 A restricted SCF calculation will be
 performed using DIIS
 SCF converges when DIIS error is below 1.0e-06
 ---------------------------------------
  Cycle       Energy         DIIS error
 ---------------------------------------
    1   -1581.4242525128      1.87e-02  
    2   -1570.1034285041      2.08e-03  
    3   -1570.4329170346      1.60e-03  
    4   -1570.6571263797      2.59e-04  
    5   -1570.6694794051      7.81e-05  
    6   -1570.6706231029      2.91e-05  
    7   -1570.6708955682      1.44e-05  
    8   -1570.6709817922      6.19e-06  
    9   -1570.6709958519      2.37e-06  
   10   -1570.6709984531      9.18e-07  Convergence criterion met
 ---------------------------------------
 SCF time:   CPU 6090.78s  wall 223.00s 

************** Final PCM Free Energy Summary **************
 G_electrostatic  =      -0.02068986 hartree =     -12.98308023 kcal/mol
 G_cavitation     =       0.00000000 hartree =       0.00000000 kcal/mol
 G_dispersion     =       0.00000000 hartree =       0.00000000 kcal/mol
 G_repulsion      =       0.00000000 hartree =       0.00000000 kcal/mol
 --------------------------------------------------
 Non-electrostatic Free Energy =       0.00000000 hartree =       0.00000000 kcal/mol
 Total                         =      -0.02068986 hartree =     -12.98308023 kcal/mol
 --------------------------------------------------
 SCF Energy (H0 + V/2)                       =   -1570.67099845 
 Solute Internal Energy (H0)                 =   -1570.65030860 
 Total Free Energy (H0 + V/2 + non-elec)     =   -1570.67099845 hartree
                                             = -985610.92735432 kcal/mol
***********************************************************

 SCF   energy in the final basis set =    -1570.6709984531
 Total energy in the final basis set =    -1570.6709984531


 --------------------------------------------------------------
  Generalized many-body perturbation theory program
  by Joonho Lee, Fazle Rob, Xintian Feng, Evgeny Epifanovsky

 No regularization used 
 (reg. param. = 0.0000e+00)
  (P|Q)^-1/2 Time:  CPU 95.38 s  wall 1.51 s

 In RI-MP2 calculation: 
 # of frozen core orbitals: 31

 Components of the RIMP2 correlation energy:
        aaaa    correlation energy =        -0.6181732193 a.u.
        abab    correlation energy =        -3.3938959791 a.u.
        bbbb    correlation energy =        -0.6181732193 a.u.
        non-Brillouin singles      =        -0.0000000000 a.u.
        total same-spin energy     =        -1.2363464385 a.u.
        total opposite-spin energy =        -3.3938959791 a.u.

 Total  RIMP2   correlation energy =        -4.6302424176 a.u.
        RIMP2         total energy =     -1575.3012408707 a.u.

 RI-MP2 Energy Time:  CPU 1867.39 s  wall 30.21 s
 
 --------------------------------------------------------------
 
                    Orbital Energies (a.u.)
 --------------------------------------------------------------
 
 Alpha MOs
 -- Occupied --
-91.9929 -20.5582 -20.5561 -20.5547 -20.5530 -15.6308 -15.6303 -11.3994
-11.3971 -11.3908 -11.3904 -11.3199 -11.3014 -11.2992 -11.2956 -11.2944
-11.2937 -11.2926 -11.2868 -11.2864 -11.2821 -11.2781 -11.2776 -11.2648
-11.2642 -11.2538 -11.2498  -8.9930  -6.6737  -6.6732  -6.6726  -1.4259
 -1.4245  -1.4041  -1.4039  -1.2673  -1.2652  -1.2163  -1.1787  -1.1433
 -1.1153  -1.0630  -1.0486  -0.9921  -0.9903  -0.9883  -0.9585  -0.9469
 -0.8968  -0.8787  -0.8776  -0.8613  -0.7959  -0.7793  -0.7730  -0.7629
 -0.7352  -0.7265  -0.7029  -0.6934  -0.6818  -0.6736  -0.6663  -0.6621
 -0.6556  -0.6410  -0.6377  -0.6340  -0.6273  -0.6126  -0.5907  -0.5833
 -0.5783  -0.5715  -0.5669  -0.5638  -0.5606  -0.5559  -0.5541  -0.5466
 -0.5337  -0.5247  -0.5234  -0.5162  -0.4808  -0.4674  -0.4644  -0.4629
 -0.4575  -0.4484  -0.4291  -0.4191  -0.4094  -0.3773  -0.3545  -0.3360
 -0.2986
 -- Virtual --
 -0.0177   0.0509   0.0681   0.1028   0.1284   0.1544   0.1584   0.1590
  0.1669   0.1720   0.1754   0.1861   0.1964   0.1990   0.2081   0.2107
  0.2250   0.2276   0.2296   0.2368   0.2460   0.2543   0.2627   0.2641
  0.2679   0.3086   0.3132   0.3157   0.3212   0.3354   0.3366   0.3420
  0.3483   0.3503   0.3558   0.3564   0.3587   0.3650   0.3755   0.3774
  0.3810   0.3884   0.3939   0.3984   0.4048   0.4077   0.4107   0.4151
  0.4258   0.4293   0.4332   0.4370   0.4444   0.4483   0.4491   0.4564
  0.4587   0.4608   0.4694   0.4739   0.4797   0.4803   0.4870   0.4921
  0.4972   0.5072   0.5140   0.5169   0.5219   0.5248   0.5271   0.5298
  0.5381   0.5426   0.5451   0.5518   0.5523   0.5584   0.5646   0.5693
  0.5725   0.5732   0.5796   0.5872   0.5939   0.5957   0.5991   0.6019
  0.6041   0.6077   0.6152   0.6173   0.6234   0.6272   0.6290   0.6327
  0.6336   0.6363   0.6383   0.6441   0.6533   0.6570   0.6675   0.6750
  0.6817   0.6845   0.6882   0.6967   0.7021   0.7124   0.7129   0.7247
  0.7361   0.7382   0.7401   0.7488   0.7527   0.7603   0.7639   0.7685
  0.7793   0.7839   0.7870   0.7884   0.8007   0.8093   0.8155   0.8190
  0.8249   0.8345   0.8390   0.8445   0.8469   0.8529   0.8547   0.8603
  0.8642   0.8651   0.8734   0.8789   0.8861   0.8956   0.8968   0.9101
  0.9149   0.9192   0.9285   0.9311   0.9320   0.9366   0.9398   0.9493
  0.9561   0.9585   0.9624   0.9657   0.9741   0.9771   0.9856   0.9929
  0.9976   1.0003   1.0013   1.0097   1.0123   1.0208   1.0274   1.0298
  1.0360   1.0463   1.0492   1.0555   1.0642   1.0696   1.0704   1.0736
  1.0793   1.0818   1.0832   1.0861   1.0961   1.1021   1.1085   1.1168
  1.1209   1.1319   1.1364   1.1394   1.1460   1.1468   1.1520   1.1584
  1.1651   1.1662   1.1724   1.1814   1.1869   1.1889   1.1970   1.1991
  1.2088   1.2121   1.2143   1.2245   1.2271   1.2327   1.2393   1.2414
  1.2438   1.2485   1.2558   1.2605   1.2671   1.2788   1.2794   1.3008
  1.3143   1.3252   1.3283   1.3359   1.3433   1.3482   1.3587   1.3644
  1.3682   1.3802   1.3852   1.3888   1.3898   1.3982   1.4053   1.4193
  1.4209   1.4265   1.4344   1.4417   1.4470   1.4506   1.4635   1.4711
  1.4750   1.4805   1.4853   1.4950   1.4986   1.5096   1.5163   1.5226
  1.5268   1.5354   1.5386   1.5447   1.5527   1.5588   1.5619   1.5651
  1.5747   1.5826   1.5864   1.6008   1.6053   1.6144   1.6157   1.6304
  1.6385   1.6464   1.6481   1.6559   1.6678   1.6722   1.6861   1.6915
  1.6967   1.7128   1.7213   1.7253   1.7314   1.7432   1.7469   1.7526
  1.7615   1.7676   1.7818   1.7882   1.7927   1.7989   1.8019   1.8231
  1.8282   1.8396   1.8447   1.8548   1.8565   1.8633   1.8681   1.8754
  1.8821   1.8897   1.9007   1.9100   1.9246   1.9339   1.9418   1.9559
  1.9656   1.9721   1.9752   1.9796   1.9947   2.0175   2.0209   2.0380
  2.0547   2.0660   2.0747   2.1013   2.1067   2.1182   2.1299   2.1435
  2.1581   2.1635   2.1674   2.1796   2.1872   2.2156   2.2197   2.2366
  2.2437   2.2514   2.2600   2.2752   2.2850   2.2862   2.2939   2.3036
  2.3129   2.3316   2.3375   2.3497   2.3607   2.3659   2.3759   2.3888
  2.4083   2.4166   2.4215   2.4412   2.4506   2.4517   2.4587   2.4739
  2.4837   2.4896   2.4971   2.5011   2.5092   2.5269   2.5351   2.5427
  2.5603   2.5646   2.5723   2.5877   2.5902   2.5962   2.6097   2.6105
  2.6156   2.6253   2.6404   2.6490   2.6562   2.6656   2.6689   2.6720
  2.6771   2.6836   2.6940   2.7043   2.7108   2.7118   2.7189   2.7252
  2.7378   2.7422   2.7488   2.7566   2.7629   2.7698   2.7863   2.7974
  2.7985   2.8135   2.8244   2.8376   2.8405   2.8541   2.8561   2.8643
  2.8726   2.8738   2.8823   2.8888   2.8902   2.8962   2.9091   2.9131
  2.9265   2.9275   2.9356   2.9463   2.9497   2.9578   2.9663   2.9733
  2.9754   2.9776   2.9946   3.0020   3.0038   3.0084   3.0139   3.0171
  3.0193   3.0355   3.0374   3.0430   3.0534   3.0578   3.0713   3.0864
  3.0893   3.0931   3.0968   3.1010   3.1100   3.1113   3.1125   3.1226
  3.1279   3.1335   3.1363   3.1485   3.1645   3.1734   3.1823   3.1846
  3.1958   3.1986   3.2015   3.2055   3.2091   3.2166   3.2238   3.2283
  3.2316   3.2331   3.2374   3.2469   3.2498   3.2546   3.2602   3.2639
  3.2690   3.2716   3.2771   3.2801   3.2901   3.2914   3.2947   3.3021
  3.3094   3.3118   3.3197   3.3280   3.3320   3.3357   3.3376   3.3412
  3.3425   3.3499   3.3515   3.3582   3.3629   3.3650   3.3689   3.3726
  3.3772   3.3844   3.3867   3.3962   3.3995   3.4096   3.4138   3.4214
  3.4271   3.4291   3.4345   3.4377   3.4444   3.4502   3.4534   3.4613
  3.4633   3.4639   3.4746   3.4758   3.4832   3.4848   3.4872   3.4948
  3.4994   3.5034   3.5045   3.5129   3.5154   3.5185   3.5282   3.5291
  3.5397   3.5458   3.5542   3.5598   3.5681   3.5756   3.5785   3.5854
  3.5913   3.6015   3.6066   3.6079   3.6178   3.6217   3.6286   3.6302
  3.6338   3.6375   3.6429   3.6488   3.6588   3.6641   3.6718   3.6787
  3.6915   3.6966   3.6987   3.7049   3.7092   3.7138   3.7175   3.7250
  3.7323   3.7371   3.7399   3.7480   3.7500   3.7529   3.7617   3.7736
  3.7816   3.7848   3.7904   3.7911   3.7977   3.7985   3.8040   3.8101
  3.8183   3.8187   3.8210   3.8401   3.8441   3.8539   3.8589   3.8620
  3.8669   3.8796   3.8846   3.8887   3.9004   3.9031   3.9124   3.9296
  3.9336   3.9379   3.9416   3.9442   3.9642   3.9650   3.9755   3.9782
  3.9911   3.9942   4.0083   4.0096   4.0228   4.0269   4.0400   4.0459
  4.0566   4.0639   4.0684   4.0821   4.0887   4.0975   4.1024   4.1101
  4.1255   4.1312   4.1345   4.1444   4.1571   4.1628   4.1709   4.1780
  4.1807   4.1879   4.1962   4.2051   4.2069   4.2188   4.2326   4.2417
  4.2459   4.2570   4.2694   4.2758   4.2778   4.2873   4.2931   4.2986
  4.3020   4.3041   4.3104   4.3191   4.3253   4.3326   4.3348   4.3484
  4.3533   4.3561   4.3652   4.3669   4.3678   4.3785   4.3842   4.3897
  4.3947   4.4015   4.4080   4.4110   4.4151   4.4228   4.4468   4.4478
  4.4596   4.4711   4.4804   4.4888   4.5011   4.5041   4.5166   4.5229
  4.5255   4.5344   4.5476   4.5525   4.5566   4.5636   4.5708   4.5781
  4.5791   4.5820   4.5861   4.6014   4.6077   4.6190   4.6299   4.6398
  4.6440   4.6528   4.6629   4.6737   4.6790   4.6807   4.6905   4.7055
  4.7128   4.7266   4.7363   4.7503   4.7589   4.7755   4.7830   4.7996
  4.8103   4.8234   4.8364   4.8421   4.8468   4.8631   4.8779   4.8804
  4.8892   4.9102   4.9266   4.9320   4.9437   4.9490   4.9749   4.9916
  4.9968   5.0108   5.0246   5.0399   5.0455   5.0514   5.0569   5.0593
  5.1018   5.1062   5.1145   5.1255   5.1262   5.1336   5.1522   5.1616
  5.1663   5.1850   5.1924   5.2137   5.2181   5.2395   5.2558   5.2575
  5.2762   5.2799   5.2927   5.3025   5.3078   5.3238   5.3319   5.3452
  5.3624   5.3955   5.4020   5.4062   5.4253   5.4273   5.4335   5.4665
  5.4785   5.5073   5.5089   5.5125   5.5159   5.5417   5.5449   5.5572
  5.5605   5.5637   5.5710   5.5733   5.5778   5.5943   5.6049   5.6146
  5.6305   5.6406   5.6526   5.6549   5.6629   5.6769   5.6824   5.6914
  5.7045   5.7193   5.7233   5.7464   5.7592   5.7655   5.7710   5.7727
  5.7895   5.7929   5.8149   5.8228   5.8557   5.8869   5.8987   5.9128
  5.9480   5.9602   5.9921   6.0104   6.0238   6.0261   6.0379   6.0458
  6.0991   6.1009   6.1068   6.1203   6.1251   6.1854   6.2013   6.2112
  6.2179   6.2218   6.2359   6.2684   6.2746   6.2986   6.3057   6.3488
  6.3635   6.3954   6.4362   6.4511   6.4696   6.5291   6.5624   6.5705
  6.5871   6.6224   6.6467   6.6476   6.6599   6.6971   6.7232   6.8349
  6.8404   6.8864   6.8869   6.8970   6.9117   6.9335   6.9552   7.0809
  7.1371   7.1469   7.1968   7.2102   7.2772   7.3328   7.3428   7.3447
  7.3603   7.4715   7.5497   7.5610   7.5766   7.5815   7.6349   7.6409
  7.6816   7.7183   7.8518   8.4302   9.9277  10.3737  11.1239  11.2424
 11.7042  11.7800  12.0243  12.3918  12.5001  12.6173  12.8504  13.1018
 13.3136  13.5576  13.8228  13.9512  14.0543  14.1551  14.3102  14.4078
 14.4375  14.7571  15.3466  15.7400  16.0018
 --------------------------------------------------------------
 
          Ground-State Mulliken Net Atomic Charges

     Atom                 Charge (a.u.)
  ----------------------------------------
      1 C                    -0.148662
      2 C                    -0.111746
      3 C                    -0.029479
      4 C                    -0.002573
      5 H                     0.187461
      6 C                    -0.003945
      7 C                     0.075570
      8 C                     0.040794
      9 C                    -0.077601
     10 C                    -0.160406
     11 C                     0.058703
     12 H                     0.166567
     13 C                     0.359148
     14 C                     0.364159
     15 N                    -0.101396
     16 C                     0.358694
     17 C                     0.384031
     18 N                    -0.091578
     19 O                    -0.464236
     20 O                    -0.476709
     21 O                    -0.483828
     22 O                    -0.477131
     23 C                    -0.201264
     24 H                     0.141086
     25 H                     0.112359
     26 H                     0.112431
     27 C                    -0.198670
     28 H                     0.134629
     29 H                     0.112378
     30 H                     0.112554
     31 H                     0.212112
     32 C                     0.005551
     33 S                     0.021996
     34 C                    -0.189717
     35 C                    -0.164813
     36 C                    -0.218070
     37 H                     0.229921
     38 H                     0.193269
     39 H                     0.218411
  ----------------------------------------
  Sum of atomic charges =     0.000000

 -----------------------------------------------------------------
                    Cartesian Multipole Moments
 -----------------------------------------------------------------
    Charge (ESU x 10^10)
                -0.0000
    Dipole Moment (Debye)
         X       1.1497      Y       2.4626      Z      -0.8583
       Tot       2.8501
    Quadrupole Moments (Debye-Ang)
        XX    -162.3715     XY       4.7329     YY    -171.5221
        XZ       3.9036     YZ       0.2975     ZZ    -177.5721
    Octopole Moments (Debye-Ang^2)
       XXX     -68.3366    XXY     479.5209    XYY      -6.3063
       YYY    1629.2892    XXZ       0.8867    XYZ     -11.0316
       YYZ       5.9084    XZZ     -18.9422    YZZ     565.1352
       ZZZ       2.9818
    Hexadecapole Moments (Debye-Ang^3)
      XXXX    -460.8517   XXXY    -161.5857   XXYY   -2719.3651
      XYYY    -192.2065   YYYY  -17305.2172   XXXZ     468.9140
      XXYZ      93.5651   XYYZ     271.8115   YYYZ     720.8607
      XXZZ   -1081.4733   XYZZ      22.8258   YYZZ   -4207.9311
      XZZZ     521.9650   YZZZ     -49.4018   ZZZZ   -6280.3966
 -----------------------------------------------------------------
 Total job time:  257.93s(wall), 8057.92s(cpu) 
 Fri Dec 15 13:36:53 2023

        *************************************************************
        *                                                           *
        *  Thank you very much for using Q-Chem.  Have a nice day.  *
        *                                                           *
        *************************************************************


0 sent ACK to 0 
now end server 0 ... 
cleanup process ... done
remove work dirs ./qchem724290.0 -- ./qchem724290.0
rm -rf ./qchem724290.0
rm -rf ./qchem724290
