You are running Q-Chem version: 5.4.0

#
# job setting
#
local host:  exp-2-40
current dir: /home/rramji/project-csd799/aromodel/pndit-qchem/rotation_run
input file:  Dimethyl_Naphthalene_Dicarboximide_Phi_25_Theta_340_Thiophene.qcin
output file: 
nprocs     : 1
nthreads   : 64
#
# qchem installation setting
#
QC:          /cm/shared/apps/spack/cpu/opt/spack/linux-centos8-zen2/gcc-10.2.0/qchem-5.4-akfmr7b3t57bfs6qan3padb2wnb2i7cl
QCAUX:       /cm/shared/apps/spack/cpu/opt/spack/linux-centos8-zen2/gcc-10.2.0/qchem-5.4-akfmr7b3t57bfs6qan3padb2wnb2i7cl/qcaux
QCPROG:      /cm/shared/apps/spack/cpu/opt/spack/linux-centos8-zen2/gcc-10.2.0/qchem-5.4-akfmr7b3t57bfs6qan3padb2wnb2i7cl/exe/qcprog.exe
QCPROG_S:    /cm/shared/apps/spack/cpu/opt/spack/linux-centos8-zen2/gcc-10.2.0/qchem-5.4-akfmr7b3t57bfs6qan3padb2wnb2i7cl/exe/qcprog.exe_s
PARALLEL:    -DPARALLEL
QCMPI:       mpich
#
# qchem directory setting
#
qcrun:       qchem754953
QCSCRATCH:   .
QCLOCALSCR:  
QCTMPDIR:    .
QCFILEPREF:  ./qchem754953
QCSAVEDIR:   
workdirs:    ./qchem754953
workdir0:    ./qchem754953
partmpdirs =  
#
# parallel setting
#
QCRSH:           ssh
QCMPI:           mpich
QCMPIRUN:        /cm/shared/apps/spack/cpu/opt/spack/linux-centos8-zen2/gcc-10.2.0/qchem-5.4-akfmr7b3t57bfs6qan3padb2wnb2i7cl/bin/mpi/mpirun_qchem
QCMACHINEFILE:   ./qchem754953/hostfile
exp-2-40

#
# env setting
#
exported envs:   QC QCAUX QCSCRATCH QCRUNNAME QCFILEPREF QCPROG QCPROG_S GUIFILE

Running Job 1 of 1 Dimethyl_Naphthalene_Dicarboximide_Phi_25_Theta_340_Thiophene.qcin
qchem Dimethyl_Naphthalene_Dicarboximide_Phi_25_Theta_340_Thiophene.qcin_754953.0 ./qchem754953/ 1
/cm/shared/apps/spack/cpu/opt/spack/linux-centos8-zen2/gcc-10.2.0/qchem-5.4-akfmr7b3t57bfs6qan3padb2wnb2i7cl/bin/mpi/mpirun_qchem -machinefile ./qchem754953/hostfile -np 1 /cm/shared/apps/spack/cpu/opt/spack/linux-centos8-zen2/gcc-10.2.0/qchem-5.4-akfmr7b3t57bfs6qan3padb2wnb2i7cl/exe/qcprog.exe Dimethyl_Naphthalene_Dicarboximide_Phi_25_Theta_340_Thiophene.qcin_754953.0 ./qchem754953/

Process 0 of 1 is on exp-2-40 - thread support 0
initial socket setup ...start
initial socket setup ...done 
now start server 0 ... 
                  Welcome to Q-Chem
     A Quantum Leap Into The Future Of Chemistry


 Q-Chem 5.4, Q-Chem, Inc., Pleasanton, CA (2021)

 License issued to: University of California, San Diego (site)

 E. Epifanovsky,  A. T. B. Gilbert,  Xintian Feng,  Joonho Lee,  Yuezhi Mao,  
 N. Mardirossian,  P. Pokhilko,  A. White,  M. Wormit,  M. P. Coons,  
 A. L. Dempwolff,  Zhengting Gan,  D. Hait,  P. R. Horn,  L. D. Jacobson,  
 I. Kaliman,  J. Kussmann,  A. W. Lange,  Ka Un Lao,  D. S. Levine,  Jie Liu,  
 S. C. McKenzie,  A. F. Morrison,  K. Nanda,  F. Plasser,  D. R. Rehn,  
 M. L. Vidal,  Zhi-Qiang You,  Ying Zhu,  B. Alam,  B. Albrecht,  
 A. Aldossary,  E. Alguire,  J. H. Andersen,  D. Barton,  K. Begam,  A. Behn,  
 Y. A. Bernard,  E. J. Berquist,  H. Burton,  A. Carreras,  K. Carter-Fenk,  
 R. Chakraborty,  A. D. Chien,  K. D. Closser,  V. Cofer-Shabica,  
 S. Dasgupta,  Jia Deng,  M. de Wergifosse,  M. Diedenhofen,  Hainam Do,  
 S. Ehlert,  Po-Tung Fang,  S. Fatehi,  Qingguo Feng,  J. Gayvert,  
 Qinghui Ge,  G. Gidofalvi,  M. Goldey,  J. Gomes,  C. Gonzalez-Espinoza,  
 S. Gulania,  A. Gunina,  M. W. D. Hanson-Heine,  P. H. P. Harbach,  
 A. W. Hauser,  M. F. Herbst,  M. Hernandez Vera,  M. Hodecker,  
 Z. C. Holden,  S. Houck,  Xunkun Huang,  Kerwin Hui,  B. C. Huynh,  
 M. Ivanov,  Hyunjun Ji,  Hanjie Jiang,  B. Kaduk,  S. Kaehler,  
 K. Khistyaev,  Jaehoon Kim,  P. Klunzinger,  Z. Koczor-Benda,  
 Joong Hoon Koh,  D. Kosenkov,  L. Koulias,  T. Kowalczyk,  C. M. Krauter,  
 K. Kue,  A. Kunitsa,  T. Kus,  A. Landau,  K. V. Lawler,  D. Lefrancois,  
 S. Lehtola,  Rain Li,  Yi-Pei Li,  Jiashu Liang,  M. Liebenthal,  
 Hung-Hsuan Lin,  You-Sheng Lin,  Fenglai Liu,  Kuan-Yu Liu,  
 M. Loipersberger,  A. Luenser,  A. Manjanath,  P. Manohar,  E. Mansoor,  
 S. F. Manzer,  Shan-Ping Mao,  A. V. Marenich,  T. Markovich,  S. Mason,  
 S. A. Maurer,  P. F. McLaughlin,  M. F. S. J. Menger,  J.-M. Mewes,  
 S. A. Mewes,  P. Morgante,  J. W. Mullinax,  T. S. Nguyen-Beck,  
 K. J. Oosterbaan,  G. Paran,  Alexander C. Paul,  Suranjan K. Paul,  
 F. Pavosevic,  Zheng Pei,  S. Prager,  E. I. Proynov,  E. Ramos,  B. Rana,  
 A. E. Rask,  A. Rettig,  R. M. Richard,  F. Rob,  E. Rossomme,  T. Scheele,  
 M. Scheurer,  M. Schneider,  N. Sergueev,  S. M. Sharada,  W. Skomorowski,  
 D. W. Small,  C. J. Stein,  Yu-Chuan Su,  E. J. Sundstrom,  Zhen Tao,  
 J. Thirman,  T. Tsuchimochi,  N. M. Tubman,  S. P. Veccham,  O. Vydrov,  
 J. Wenzel,  J. Witte,  A. Yamada,  Kun Yao,  S. Yeganeh,  S. R. Yost,  
 A. Zech,  Igor Ying Zhang,  Xing Zhang,  Yu Zhang,  D. Zuev,  
 A. Aspuru-Guzik,  A. T. Bell,  N. A. Besley,  K. B. Bravaya,  B. R. Brooks,  
 D. Casanova,  Jeng-Da Chai,  S. Coriani,  C. J. Cramer,  
 A. E. DePrince, III,  R. A. DiStasio Jr.,  A. Dreuw,  B. D. Dunietz,  
 T. R. Furlani,  W. A. Goddard III,  S. Grimme,  S. Hammes-Schiffer,  
 T. Head-Gordon,  W. J. Hehre,  Chao-Ping Hsu,  T.-C. Jagau,  Yousung Jung,  
 A. Klamt,  Jing Kong,  D. S. Lambrecht,  WanZhen Liang,  N. J. Mayhall,  
 C. W. McCurdy,  J. B. Neaton,  C. Ochsenfeld,  J. A. Parkhill,  R. Peverati,  
 V. A. Rassolov,  Yihan Shao,  L. V. Slipchenko,  T. Stauch,  R. P. Steele,  
 J. E. Subotnik,  A. J. W. Thom,  A. Tkatchenko,  D. G. Truhlar,  
 T. Van Voorhis,  T. A. Wesolowski,  K. B. Whaley,  H. L. Woodcock III,  
 P. M. Zimmerman,  S. Faraji,  P. M. W. Gill,  M. Head-Gordon,  
 J. M. Herbert,  A. I. Krylov

 Contributors to earlier versions of Q-Chem not listed above: 
 R. D. Adamson,  B. Austin,  R. Baer,  J. Baker,  G. J. O. Beran,  
 K. Brandhorst,  S. T. Brown,  E. F. C. Byrd,  A. K. Chakraborty,  
 G. K. L. Chan,  Chun-Min Chang,  Yunqing Chen,  C.-L. Cheng,  
 Siu Hung Chien,  D. M. Chipman,  D. L. Crittenden,  H. Dachsel,  
 R. J. Doerksen,  A. D. Dutoi,  R. G. Edgar,  J. Fosso-Tande,  
 L. Fusti-Molnar,  D. Ghosh,  A. Ghysels,  A. Golubeva-Zadorozhnaya,  
 J. Gonthier,  M. S. Gordon,  S. R. Gwaltney,  G. Hawkins,  J. E. Herr,  
 A. Heyden,  S. Hirata,  E. G. Hohenstein,  G. Kedziora,  F. J. Keil,  
 C. Kelley,  Jihan Kim,  R. A. King,  R. Z. Khaliullin,  P. P. Korambath,  
 W. Kurlancheek,  A. Laurent,  A. M. Lee,  M. S. Lee,  S. V. Levchenko,  
 Ching Yeh Lin,  D. Liotard,  E. Livshits,  R. C. Lochan,  I. Lotan,  
 L. A. Martinez-Martinez,  P. E. Maslen,  N. Nair,  D. P. O'Neill,  
 D. Neuhauser,  E. Neuscamman,  C. M. Oana,  R. Olivares-Amaya,  R. Olson,  
 T. M. Perrine,  B. Peters,  P. A. Pieniazek,  A. Prociuk,  Y. M. Rhee,  
 J. Ritchie,  M. A. Rohrdanz,  E. Rosta,  N. J. Russ,  H. F. Schaefer III,  
 M. W. Schmidt,  N. E. Schultz,  S. Sharma,  N. Shenvi,  C. D. Sherrill,  
 A. C. Simmonett,  A. Sodt,  T. Stein,  D. Stuck,  K. S. Thanthiriwatte,  
 V. Vanovschi,  L. Vogt,  Tao Wang,  A. Warshel,  M. A. Watson,  
 C. F. Williams,  Q. Wu,  X. Xu,  Jun Yang,  W. Zhang,  Yan Zhao

 Please cite Q-Chem as follows:
 Y. Shao et al., Mol. Phys. 113, 184-215 (2015)
 DOI: 10.1080/00268976.2014.952696

 Q-Chem 5.4.0 for Intel X86 EM64T Linux

 Parts of Q-Chem use Armadillo 9.800.1 (Horizon Scraper).
 http://arma.sourceforge.net/

 Q-Chem begins on Fri Dec 15 15:57:13 2023  

 Host: 
0

     Scratch files written to ./qchem754953//
 May1621 |scratch|qcdevops|jenkins|workspace|build_RNUM    
 Parallel job on  1  processors
 Processing $rem in /cm/shared/apps/spack/cpu/opt/spack/linux-centos8-zen2/gcc-10.2.0/qchem-5.4-akfmr7b3t57bfs6qan3padb2wnb2i7cl/config/preferences:
 Processing $rem in /home/rramji/.qchemrc:
 Symmetry turned off for PCM/SM12/SMD calculation
 Core orbitals will be frozen

 Checking the input file for inconsistencies... 	...done.

 Q-Chem warning in module forms1/BasisType.C, line 2236:

 You are not using the predefined 5D/6D in this basis set.


--------------------------------------------------------------
User input:
--------------------------------------------------------------
$molecule
0 1
C	-0.089263	-6.741404	-0.240927
C	-0.535973	-6.155638	-1.467886
C	0.281103	-5.791452	0.777972
C	-0.631036	-4.803786	-1.729742
H	-0.836458	-6.821518	-2.292903
C	0.181995	-4.378638	0.503614
C	-0.272725	-3.838032	-0.746756
C	0.539954	-3.413062	1.485437
C	-0.371053	-2.426473	-1.018915
C	0.446381	-2.059348	1.226557
C	-0.000000	-1.478216	-0.000000
H	0.747410	-1.394783	2.052413
C	0.772747	-6.187987	2.134128
C	1.029154	-3.798164	2.829820
N	1.110828	-5.170003	3.059182
C	-1.121728	-4.424987	-3.077731
C	-0.864069	-2.036627	-2.375694
N	-1.201928	-3.049156	-3.301101
O	0.903908	-7.353131	2.502830
O	1.345809	-2.986854	3.697078
O	-1.434422	-5.248946	-3.934752
O	-1.003943	-0.878829	-2.764177
C	1.592981	-5.563799	4.386939
H	1.607367	-6.664085	4.429822
H	0.924504	-5.147101	5.164489
H	2.605446	-5.148785	4.553486
C	-1.677308	-2.587487	-4.608481
H	-1.898089	-3.483329	-5.211969
H	-0.902337	-1.964972	-5.094624
H	-2.582098	-1.962932	-4.483092
H	-0.025963	-7.822318	-0.066080
C	0.000000	0.000000	0.000000
S	0.335026	0.718942	1.580530
C	1.027130	2.203226	0.904911
C	0.421617	0.904557	-0.985400
C	0.979485	2.101144	-0.493528
H	0.322049	0.690978	-2.059934
H	1.351718	2.899571	-1.152593
H	1.399246	3.001430	1.556025
$end

$rem
JOBTYPE		SP
EXCHANGE	HF
CORRELATION	pRIMP2
BASIS		cc-pvtz
METHOD		rimp2
AUX_BASIS	rimp2-cc-pvtz
SOLVENT_METHOD	PCM
PURECART	11111
SYMMETRY	false
MEM_TOTAL	110000
SCF_CONVERGENCE = 6
THRESH=10
GUI = 2
$end



$solvent
dielectric 4.90
$end
--------------------------------------------------------------
 ----------------------------------------------------------------
             Standard Nuclear Orientation (Angstroms)
    I     Atom           X                Y                Z
 ----------------------------------------------------------------
    1      C      -0.0892630000    -6.7414040000    -0.2409270000
    2      C      -0.5359730000    -6.1556380000    -1.4678860000
    3      C       0.2811030000    -5.7914520000     0.7779720000
    4      C      -0.6310360000    -4.8037860000    -1.7297420000
    5      H      -0.8364580000    -6.8215180000    -2.2929030000
    6      C       0.1819950000    -4.3786380000     0.5036140000
    7      C      -0.2727250000    -3.8380320000    -0.7467560000
    8      C       0.5399540000    -3.4130620000     1.4854370000
    9      C      -0.3710530000    -2.4264730000    -1.0189150000
   10      C       0.4463810000    -2.0593480000     1.2265570000
   11      C       0.0000000000    -1.4782160000     0.0000000000
   12      H       0.7474100000    -1.3947830000     2.0524130000
   13      C       0.7727470000    -6.1879870000     2.1341280000
   14      C       1.0291540000    -3.7981640000     2.8298200000
   15      N       1.1108280000    -5.1700030000     3.0591820000
   16      C      -1.1217280000    -4.4249870000    -3.0777310000
   17      C      -0.8640690000    -2.0366270000    -2.3756940000
   18      N      -1.2019280000    -3.0491560000    -3.3011010000
   19      O       0.9039080000    -7.3531310000     2.5028300000
   20      O       1.3458090000    -2.9868540000     3.6970780000
   21      O      -1.4344220000    -5.2489460000    -3.9347520000
   22      O      -1.0039430000    -0.8788290000    -2.7641770000
   23      C       1.5929810000    -5.5637990000     4.3869390000
   24      H       1.6073670000    -6.6640850000     4.4298220000
   25      H       0.9245040000    -5.1471010000     5.1644890000
   26      H       2.6054460000    -5.1487850000     4.5534860000
   27      C      -1.6773080000    -2.5874870000    -4.6084810000
   28      H      -1.8980890000    -3.4833290000    -5.2119690000
   29      H      -0.9023370000    -1.9649720000    -5.0946240000
   30      H      -2.5820980000    -1.9629320000    -4.4830920000
   31      H      -0.0259630000    -7.8223180000    -0.0660800000
   32      C       0.0000000000     0.0000000000     0.0000000000
   33      S       0.3350260000     0.7189420000     1.5805300000
   34      C       1.0271300000     2.2032260000     0.9049110000
   35      C       0.4216170000     0.9045570000    -0.9854000000
   36      C       0.9794850000     2.1011440000    -0.4935280000
   37      H       0.3220490000     0.6909780000    -2.0599340000
   38      H       1.3517180000     2.8995710000    -1.1525930000
   39      H       1.3992460000     3.0014300000     1.5560250000
 ----------------------------------------------------------------
 Nuclear Repulsion Energy =        2501.25654768 hartrees
 There are       97 alpha and       97 beta electrons
 Requested basis set is cc-pVTZ
 There are 344 shells and 982 basis functions

 Total QAlloc Memory Limit 110000 MB
 Mega-Array Size       188 MB
 MEM_STATIC part       192 MB
 Discretize the solute cavity surface with Lebedev spheres
	Using 110 Lebedev grid points for each H atom
	Using 194 Lebedev grid points for other atoms
	Atomic van der Waals radii will be scaled by 1.20
 Remove points where switching function is < 1.0e-08
 Keep 2512 surface tesserae and discard 4046 interior tesserae
 Molecular Surface Area = 361.763 Angst**2
 Requested basis set is rimp2-cc-pVTZ
 There are 750 shells and 2588 basis functions
 A cutoff of  1.0D-10 yielded  31770 shell pairs
 There are    244846 function pairs (    318237 Cartesian)
 Smallest overlap matrix eigenvalue = 9.37E-06

 Q-Chem warning in module stvman/mkSTV.C, line 323:

 Overlap eigenvalue is smaller than square root of threshold
 Use THRESH >= 12 to get rid of this warning


 Scale SEOQF with 1.000000e-01/1.000000e-02/1.000000e-01

 Standard Electronic Orientation quadrupole field applied
 Nucleus-field energy     =    -0.0000000970 hartrees
 Guess from superposition of atomic densities
 Warning:  Energy on first SCF cycle will be non-variational
 SAD guess density has 194.000000 electrons

 -----------------------------------------------------------------------
  General SCF calculation program by
  Eric Jon Sundstrom, Paul Horn, Yuezhi Mao, Dmitri Zuev, Alec White,
  David Stuck, Shaama M.S., Shane Yost, Joonho Lee, David Small,
  Daniel Levine, Susi Lehtola, Hugh Burton, Evgeny Epifanovsky,
  Bang C. Huynh
 -----------------------------------------------------------------------
 Hartree-Fock
 using 64 threads for integral computing
 -------------------------------------------------------
 OpenMP Integral computing Module                
 Release: version 1.0, May 2013, Q-Chem Inc. Pittsburgh 
 -------------------------------------------------------
 A restricted SCF calculation will be
 performed using DIIS
 SCF converges when DIIS error is below 1.0e-06
 ---------------------------------------
  Cycle       Energy         DIIS error
 ---------------------------------------
    1   -1581.3885037210      1.87e-02  
    2   -1570.1078336674      2.08e-03  
    3   -1570.4366452971      1.61e-03  
    4   -1570.6625450301      2.58e-04  
    5   -1570.6747841390      7.73e-05  
    6   -1570.6758948344      2.85e-05  
    7   -1570.6761543624      1.43e-05  
    8   -1570.6762357136      6.04e-06  
    9   -1570.6762486183      2.29e-06  
   10   -1570.6762508500      8.14e-07  Convergence criterion met
 ---------------------------------------
 SCF time:   CPU 5962.90s  wall 218.00s 

************** Final PCM Free Energy Summary **************
 G_electrostatic  =      -0.02187147 hartree =     -13.72455538 kcal/mol
 G_cavitation     =       0.00000000 hartree =       0.00000000 kcal/mol
 G_dispersion     =       0.00000000 hartree =       0.00000000 kcal/mol
 G_repulsion      =       0.00000000 hartree =       0.00000000 kcal/mol
 --------------------------------------------------
 Non-electrostatic Free Energy =       0.00000000 hartree =       0.00000000 kcal/mol
 Total                         =      -0.02187147 hartree =     -13.72455538 kcal/mol
 --------------------------------------------------
 SCF Energy (H0 + V/2)                       =   -1570.67625085 
 Solute Internal Energy (H0)                 =   -1570.65437938 
 Total Free Energy (H0 + V/2 + non-elec)     =   -1570.67625085 hartree
                                             = -985614.22328313 kcal/mol
***********************************************************

 SCF   energy in the final basis set =    -1570.6762508500
 Total energy in the final basis set =    -1570.6762508500


 --------------------------------------------------------------
  Generalized many-body perturbation theory program
  by Joonho Lee, Fazle Rob, Xintian Feng, Evgeny Epifanovsky

 No regularization used 
 (reg. param. = 0.0000e+00)
  (P|Q)^-1/2 Time:  CPU 83.00 s  wall 1.94 s

 In RI-MP2 calculation: 
 # of frozen core orbitals: 31

 Components of the RIMP2 correlation energy:
        aaaa    correlation energy =        -0.6178708915 a.u.
        abab    correlation energy =        -3.3940563804 a.u.
        bbbb    correlation energy =        -0.6178708915 a.u.
        non-Brillouin singles      =        -0.0000000000 a.u.
        total same-spin energy     =        -1.2357417829 a.u.
        total opposite-spin energy =        -3.3940563804 a.u.

 Total  RIMP2   correlation energy =        -4.6297981634 a.u.
        RIMP2         total energy =     -1575.3060490133 a.u.

 RI-MP2 Energy Time:  CPU 1858.97 s  wall 31.17 s
 
 --------------------------------------------------------------
 
                    Orbital Energies (a.u.)
 --------------------------------------------------------------
 
 Alpha MOs
 -- Occupied --
-91.9927 -20.5582 -20.5562 -20.5548 -20.5531 -15.6309 -15.6297 -11.3995
-11.3952 -11.3908 -11.3903 -11.3190 -11.3016 -11.2993 -11.2968 -11.2943
-11.2937 -11.2937 -11.2899 -11.2862 -11.2827 -11.2786 -11.2746 -11.2644
-11.2643 -11.2620 -11.2517  -8.9930  -6.6737  -6.6732  -6.6726  -1.4246
 -1.4236  -1.4039  -1.4025  -1.2669  -1.2644  -1.2165  -1.1802  -1.1433
 -1.1155  -1.0635  -1.0486  -0.9922  -0.9911  -0.9892  -0.9583  -0.9467
 -0.8965  -0.8782  -0.8778  -0.8601  -0.7966  -0.7799  -0.7723  -0.7626
 -0.7354  -0.7191  -0.7040  -0.6946  -0.6810  -0.6737  -0.6659  -0.6617
 -0.6556  -0.6414  -0.6362  -0.6327  -0.6276  -0.6127  -0.5897  -0.5840
 -0.5803  -0.5731  -0.5668  -0.5629  -0.5621  -0.5559  -0.5527  -0.5474
 -0.5392  -0.5257  -0.5235  -0.5109  -0.4824  -0.4678  -0.4663  -0.4613
 -0.4592  -0.4521  -0.4281  -0.4183  -0.4091  -0.3753  -0.3552  -0.3358
 -0.3011
 -- Virtual --
 -0.0194   0.0520   0.0684   0.1014   0.1281   0.1536   0.1581   0.1590
  0.1667   0.1710   0.1791   0.1857   0.1937   0.1953   0.2071   0.2131
  0.2201   0.2275   0.2294   0.2339   0.2469   0.2494   0.2641   0.2643
  0.2667   0.3062   0.3097   0.3158   0.3200   0.3305   0.3391   0.3422
  0.3443   0.3463   0.3521   0.3552   0.3577   0.3627   0.3647   0.3770
  0.3805   0.3885   0.3944   0.3975   0.4031   0.4075   0.4108   0.4148
  0.4234   0.4249   0.4325   0.4372   0.4392   0.4478   0.4550   0.4567
  0.4604   0.4652   0.4698   0.4738   0.4773   0.4833   0.4890   0.4931
  0.4973   0.5043   0.5108   0.5126   0.5189   0.5235   0.5258   0.5286
  0.5355   0.5395   0.5497   0.5513   0.5553   0.5586   0.5644   0.5695
  0.5713   0.5751   0.5798   0.5844   0.5920   0.5936   0.5954   0.5970
  0.6051   0.6085   0.6127   0.6192   0.6212   0.6232   0.6294   0.6329
  0.6337   0.6352   0.6366   0.6484   0.6541   0.6620   0.6672   0.6713
  0.6754   0.6828   0.6941   0.6971   0.7042   0.7105   0.7125   0.7199
  0.7262   0.7306   0.7376   0.7396   0.7578   0.7593   0.7603   0.7649
  0.7667   0.7717   0.7820   0.7920   0.7969   0.8034   0.8067   0.8189
  0.8243   0.8351   0.8389   0.8449   0.8468   0.8554   0.8593   0.8608
  0.8652   0.8671   0.8716   0.8761   0.8780   0.8851   0.9023   0.9052
  0.9120   0.9169   0.9237   0.9251   0.9307   0.9346   0.9442   0.9450
  0.9528   0.9553   0.9629   0.9657   0.9704   0.9771   0.9827   0.9864
  0.9880   0.9990   0.9998   1.0078   1.0148   1.0161   1.0259   1.0316
  1.0322   1.0446   1.0497   1.0564   1.0573   1.0624   1.0719   1.0747
  1.0766   1.0814   1.0847   1.0867   1.0931   1.1056   1.1070   1.1154
  1.1280   1.1312   1.1348   1.1353   1.1418   1.1508   1.1545   1.1567
  1.1576   1.1651   1.1677   1.1763   1.1781   1.1827   1.1911   1.2004
  1.2014   1.2062   1.2132   1.2215   1.2271   1.2291   1.2320   1.2398
  1.2419   1.2452   1.2561   1.2617   1.2649   1.2693   1.2799   1.2993
  1.3090   1.3250   1.3304   1.3331   1.3385   1.3439   1.3521   1.3590
  1.3686   1.3776   1.3827   1.3831   1.3951   1.3968   1.4024   1.4181
  1.4204   1.4252   1.4299   1.4413   1.4478   1.4504   1.4576   1.4658
  1.4694   1.4825   1.4856   1.4912   1.4933   1.5002   1.5076   1.5225
  1.5305   1.5327   1.5354   1.5465   1.5514   1.5593   1.5612   1.5695
  1.5732   1.5804   1.5894   1.5917   1.6030   1.6128   1.6262   1.6364
  1.6454   1.6493   1.6525   1.6569   1.6608   1.6834   1.6898   1.6924
  1.6987   1.7113   1.7221   1.7262   1.7331   1.7381   1.7460   1.7470
  1.7542   1.7695   1.7705   1.7791   1.7888   1.8043   1.8077   1.8119
  1.8265   1.8290   1.8414   1.8477   1.8527   1.8571   1.8629   1.8668
  1.8738   1.8897   1.8949   1.9116   1.9152   1.9294   1.9331   1.9498
  1.9539   1.9687   1.9721   1.9826   2.0040   2.0102   2.0325   2.0373
  2.0513   2.0543   2.0633   2.0771   2.0882   2.1129   2.1240   2.1400
  2.1507   2.1597   2.1658   2.1745   2.1878   2.2019   2.2103   2.2288
  2.2387   2.2416   2.2584   2.2682   2.2788   2.2885   2.2954   2.3017
  2.3089   2.3275   2.3301   2.3527   2.3536   2.3595   2.3718   2.3775
  2.4150   2.4233   2.4271   2.4436   2.4519   2.4577   2.4614   2.4826
  2.4876   2.4929   2.4994   2.5019   2.5112   2.5266   2.5304   2.5461
  2.5484   2.5659   2.5837   2.5877   2.5904   2.5972   2.6038   2.6105
  2.6157   2.6198   2.6307   2.6475   2.6574   2.6645   2.6672   2.6689
  2.6775   2.6852   2.6962   2.7081   2.7096   2.7169   2.7231   2.7305
  2.7422   2.7454   2.7505   2.7550   2.7681   2.7706   2.7750   2.7981
  2.8064   2.8081   2.8297   2.8358   2.8414   2.8486   2.8562   2.8578
  2.8632   2.8750   2.8792   2.8798   2.8873   2.8945   2.9043   2.9099
  2.9205   2.9267   2.9335   2.9395   2.9454   2.9536   2.9649   2.9704
  2.9745   2.9771   2.9942   2.9984   3.0036   3.0076   3.0130   3.0168
  3.0214   3.0358   3.0408   3.0443   3.0514   3.0616   3.0753   3.0861
  3.0895   3.0917   3.0992   3.1029   3.1053   3.1096   3.1189   3.1225
  3.1267   3.1322   3.1384   3.1468   3.1611   3.1657   3.1722   3.1778
  3.1921   3.1971   3.1989   3.2090   3.2149   3.2184   3.2211   3.2282
  3.2320   3.2325   3.2328   3.2425   3.2501   3.2560   3.2605   3.2647
  3.2703   3.2732   3.2768   3.2847   3.2877   3.2910   3.2982   3.3089
  3.3120   3.3179   3.3204   3.3249   3.3262   3.3331   3.3345   3.3417
  3.3440   3.3468   3.3533   3.3565   3.3618   3.3647   3.3699   3.3703
  3.3784   3.3861   3.3899   3.3979   3.3996   3.4074   3.4113   3.4143
  3.4187   3.4264   3.4355   3.4417   3.4460   3.4523   3.4568   3.4602
  3.4607   3.4678   3.4706   3.4735   3.4758   3.4795   3.4893   3.4973
  3.4995   3.5025   3.5049   3.5094   3.5156   3.5199   3.5228   3.5296
  3.5363   3.5426   3.5515   3.5574   3.5672   3.5688   3.5718   3.5771
  3.5857   3.5941   3.6005   3.6057   3.6186   3.6258   3.6270   3.6322
  3.6352   3.6362   3.6376   3.6409   3.6462   3.6556   3.6696   3.6804
  3.6858   3.6902   3.6959   3.6983   3.7035   3.7094   3.7133   3.7287
  3.7316   3.7355   3.7388   3.7450   3.7519   3.7586   3.7622   3.7674
  3.7794   3.7835   3.7857   3.7941   3.7967   3.7994   3.8061   3.8083
  3.8122   3.8185   3.8292   3.8413   3.8442   3.8510   3.8534   3.8616
  3.8714   3.8770   3.8804   3.8850   3.8999   3.9137   3.9178   3.9223
  3.9269   3.9332   3.9346   3.9429   3.9523   3.9602   3.9666   3.9711
  3.9898   3.9942   4.0000   4.0147   4.0158   4.0214   4.0391   4.0501
  4.0520   4.0664   4.0724   4.0787   4.0847   4.0903   4.0986   4.1120
  4.1237   4.1310   4.1366   4.1405   4.1477   4.1560   4.1640   4.1706
  4.1813   4.1856   4.1909   4.1934   4.2095   4.2234   4.2317   4.2363
  4.2499   4.2609   4.2733   4.2756   4.2770   4.2836   4.2918   4.2948
  4.2969   4.2990   4.3093   4.3124   4.3200   4.3262   4.3368   4.3404
  4.3460   4.3546   4.3584   4.3662   4.3687   4.3757   4.3803   4.3857
  4.3908   4.3980   4.4055   4.4071   4.4144   4.4217   4.4333   4.4386
  4.4564   4.4619   4.4686   4.4859   4.4944   4.5058   4.5164   4.5181
  4.5244   4.5269   4.5388   4.5464   4.5532   4.5591   4.5711   4.5717
  4.5772   4.5834   4.5858   4.5997   4.6060   4.6181   4.6331   4.6382
  4.6416   4.6563   4.6636   4.6685   4.6756   4.6822   4.6917   4.7016
  4.7157   4.7265   4.7340   4.7460   4.7778   4.7820   4.7853   4.7968
  4.8077   4.8283   4.8388   4.8445   4.8488   4.8673   4.8751   4.8794
  4.8879   4.8961   4.9270   4.9411   4.9441   4.9539   4.9625   4.9949
  4.9996   5.0018   5.0207   5.0391   5.0418   5.0507   5.0537   5.0692
  5.0983   5.1026   5.1074   5.1148   5.1241   5.1263   5.1442   5.1539
  5.1612   5.1676   5.1850   5.1979   5.2139   5.2354   5.2533   5.2570
  5.2629   5.2801   5.2941   5.2974   5.3100   5.3240   5.3341   5.3412
  5.3529   5.3962   5.4029   5.4037   5.4251   5.4310   5.4327   5.4622
  5.4802   5.5070   5.5090   5.5132   5.5142   5.5326   5.5463   5.5577
  5.5589   5.5609   5.5717   5.5749   5.5780   5.5938   5.6086   5.6089
  5.6283   5.6378   5.6529   5.6559   5.6648   5.6770   5.6782   5.6975
  5.7073   5.7157   5.7297   5.7373   5.7535   5.7596   5.7617   5.7727
  5.7794   5.7914   5.8099   5.8267   5.8461   5.8810   5.9037   5.9342
  5.9542   5.9582   5.9912   6.0113   6.0239   6.0281   6.0445   6.0574
  6.0928   6.0973   6.1028   6.1205   6.1259   6.1801   6.1925   6.2095
  6.2180   6.2211   6.2243   6.2570   6.2696   6.2750   6.3044   6.3437
  6.3534   6.3966   6.4186   6.4466   6.4676   6.5282   6.5624   6.5718
  6.5871   6.6045   6.6306   6.6480   6.6569   6.6606   6.7071   6.8322
  6.8370   6.8823   6.8864   6.8981   6.9116   6.9306   6.9888   7.0794
  7.1062   7.1428   7.1862   7.1909   7.2296   7.3327   7.3428   7.3446
  7.3613   7.4683   7.5465   7.5582   7.5744   7.5805   7.6036   7.6346
  7.6808   7.6870   7.7266   8.4217   9.8623  10.3545  11.0927  11.1921
 11.7036  11.7724  12.0255  12.3749  12.4787  12.6673  12.8519  13.0305
 13.3442  13.5598  13.8145  13.9444  14.0127  14.1236  14.2443  14.3591
 14.4232  14.7450  15.3330  15.7425  16.0281
 --------------------------------------------------------------
 
          Ground-State Mulliken Net Atomic Charges

     Atom                 Charge (a.u.)
  ----------------------------------------
      1 C                    -0.145138
      2 C                    -0.109931
      3 C                    -0.029245
      4 C                    -0.005546
      5 H                     0.188010
      6 C                    -0.002074
      7 C                     0.074709
      8 C                     0.049332
      9 C                    -0.072526
     10 C                    -0.173713
     11 C                     0.047264
     12 H                     0.176701
     13 C                     0.358138
     14 C                     0.362436
     15 N                    -0.101531
     16 C                     0.358519
     17 C                     0.371764
     18 N                    -0.094276
     19 O                    -0.464501
     20 O                    -0.477087
     21 O                    -0.483608
     22 O                    -0.479251
     23 C                    -0.201293
     24 H                     0.141026
     25 H                     0.112504
     26 H                     0.112309
     27 C                    -0.197555
     28 H                     0.134022
     29 H                     0.111882
     30 H                     0.112873
     31 H                     0.212543
     32 C                    -0.015961
     33 S                     0.009344
     34 C                    -0.159403
     35 C                    -0.097740
     36 C                    -0.247187
     37 H                     0.213945
     38 H                     0.192461
     39 H                     0.217785
  ----------------------------------------
  Sum of atomic charges =     0.000000

 -----------------------------------------------------------------
                    Cartesian Multipole Moments
 -----------------------------------------------------------------
    Charge (ESU x 10^10)
                 0.0000
    Dipole Moment (Debye)
         X       1.2847      Y       2.2353      Z      -0.6417
       Tot       2.6569
    Quadrupole Moments (Debye-Ang)
        XX    -164.2717     XY       4.4731     YY    -170.4553
        XZ      -6.4509     YZ       0.5294     ZZ    -175.9228
    Octopole Moments (Debye-Ang^2)
       XXX     -42.0717    XXY     486.3779    XYY       1.0655
       YYY    1622.0235    XXZ       1.2432    XYZ      30.5169
       YYZ       3.3864    XZZ      -5.6674    YZZ     557.6666
       ZZZ       1.1448
    Hexadecapole Moments (Debye-Ang^3)
      XXXX    -958.0821   XXXY       3.2093   XXYY   -2853.0250
      XYYY     202.8390   YYYY  -17255.1838   XXXZ    -946.3926
      XXYZ      58.8057   XYYZ    -498.5371   YYYZ     697.9442
      XXZZ   -1105.7429   XYZZ     -91.4609   YYZZ   -4073.0467
      XZZZ   -1024.1171   YZZZ     -16.2132   ZZZZ   -5737.8309
 -----------------------------------------------------------------
 Total job time:  254.13s(wall), 7927.97s(cpu) 
 Fri Dec 15 16:01:27 2023

        *************************************************************
        *                                                           *
        *  Thank you very much for using Q-Chem.  Have a nice day.  *
        *                                                           *
        *************************************************************


0 sent ACK to 0 
now end server 0 ... 
cleanup process ... done
remove work dirs ./qchem754953.0 -- ./qchem754953.0
rm -rf ./qchem754953.0
rm -rf ./qchem754953
