You are running Q-Chem version: 5.4.0

#
# job setting
#
local host:  exp-5-20
current dir: /home/rramji/project-csd799/aromodel/pndit-qchem/rotation_run
input file:  Dimethyl_Naphthalene_Dicarboximide_Phi_50_Theta_200_Thiophene.qcin
output file: 
nprocs     : 1
nthreads   : 64
#
# qchem installation setting
#
QC:          /cm/shared/apps/spack/cpu/opt/spack/linux-centos8-zen2/gcc-10.2.0/qchem-5.4-akfmr7b3t57bfs6qan3padb2wnb2i7cl
QCAUX:       /cm/shared/apps/spack/cpu/opt/spack/linux-centos8-zen2/gcc-10.2.0/qchem-5.4-akfmr7b3t57bfs6qan3padb2wnb2i7cl/qcaux
QCPROG:      /cm/shared/apps/spack/cpu/opt/spack/linux-centos8-zen2/gcc-10.2.0/qchem-5.4-akfmr7b3t57bfs6qan3padb2wnb2i7cl/exe/qcprog.exe
QCPROG_S:    /cm/shared/apps/spack/cpu/opt/spack/linux-centos8-zen2/gcc-10.2.0/qchem-5.4-akfmr7b3t57bfs6qan3padb2wnb2i7cl/exe/qcprog.exe_s
PARALLEL:    -DPARALLEL
QCMPI:       mpich
#
# qchem directory setting
#
qcrun:       qchem3648926
QCSCRATCH:   .
QCLOCALSCR:  
QCTMPDIR:    .
QCFILEPREF:  ./qchem3648926
QCSAVEDIR:   
workdirs:    ./qchem3648926
workdir0:    ./qchem3648926
partmpdirs =  
#
# parallel setting
#
QCRSH:           ssh
QCMPI:           mpich
QCMPIRUN:        /cm/shared/apps/spack/cpu/opt/spack/linux-centos8-zen2/gcc-10.2.0/qchem-5.4-akfmr7b3t57bfs6qan3padb2wnb2i7cl/bin/mpi/mpirun_qchem
QCMACHINEFILE:   ./qchem3648926/hostfile
exp-5-20

#
# env setting
#
exported envs:   QC QCAUX QCSCRATCH QCRUNNAME QCFILEPREF QCPROG QCPROG_S GUIFILE

Running Job 1 of 1 Dimethyl_Naphthalene_Dicarboximide_Phi_50_Theta_200_Thiophene.qcin
qchem Dimethyl_Naphthalene_Dicarboximide_Phi_50_Theta_200_Thiophene.qcin_3648926.0 ./qchem3648926/ 1
/cm/shared/apps/spack/cpu/opt/spack/linux-centos8-zen2/gcc-10.2.0/qchem-5.4-akfmr7b3t57bfs6qan3padb2wnb2i7cl/bin/mpi/mpirun_qchem -machinefile ./qchem3648926/hostfile -np 1 /cm/shared/apps/spack/cpu/opt/spack/linux-centos8-zen2/gcc-10.2.0/qchem-5.4-akfmr7b3t57bfs6qan3padb2wnb2i7cl/exe/qcprog.exe Dimethyl_Naphthalene_Dicarboximide_Phi_50_Theta_200_Thiophene.qcin_3648926.0 ./qchem3648926/

Process 0 of 1 is on exp-5-20 - thread support 0
initial socket setup ...start
initial socket setup ...done 
now start server 0 ... 
                  Welcome to Q-Chem
     A Quantum Leap Into The Future Of Chemistry


 Q-Chem 5.4, Q-Chem, Inc., Pleasanton, CA (2021)

 License issued to: University of California, San Diego (site)

 E. Epifanovsky,  A. T. B. Gilbert,  Xintian Feng,  Joonho Lee,  Yuezhi Mao,  
 N. Mardirossian,  P. Pokhilko,  A. White,  M. Wormit,  M. P. Coons,  
 A. L. Dempwolff,  Zhengting Gan,  D. Hait,  P. R. Horn,  L. D. Jacobson,  
 I. Kaliman,  J. Kussmann,  A. W. Lange,  Ka Un Lao,  D. S. Levine,  Jie Liu,  
 S. C. McKenzie,  A. F. Morrison,  K. Nanda,  F. Plasser,  D. R. Rehn,  
 M. L. Vidal,  Zhi-Qiang You,  Ying Zhu,  B. Alam,  B. Albrecht,  
 A. Aldossary,  E. Alguire,  J. H. Andersen,  D. Barton,  K. Begam,  A. Behn,  
 Y. A. Bernard,  E. J. Berquist,  H. Burton,  A. Carreras,  K. Carter-Fenk,  
 R. Chakraborty,  A. D. Chien,  K. D. Closser,  V. Cofer-Shabica,  
 S. Dasgupta,  Jia Deng,  M. de Wergifosse,  M. Diedenhofen,  Hainam Do,  
 S. Ehlert,  Po-Tung Fang,  S. Fatehi,  Qingguo Feng,  J. Gayvert,  
 Qinghui Ge,  G. Gidofalvi,  M. Goldey,  J. Gomes,  C. Gonzalez-Espinoza,  
 S. Gulania,  A. Gunina,  M. W. D. Hanson-Heine,  P. H. P. Harbach,  
 A. W. Hauser,  M. F. Herbst,  M. Hernandez Vera,  M. Hodecker,  
 Z. C. Holden,  S. Houck,  Xunkun Huang,  Kerwin Hui,  B. C. Huynh,  
 M. Ivanov,  Hyunjun Ji,  Hanjie Jiang,  B. Kaduk,  S. Kaehler,  
 K. Khistyaev,  Jaehoon Kim,  P. Klunzinger,  Z. Koczor-Benda,  
 Joong Hoon Koh,  D. Kosenkov,  L. Koulias,  T. Kowalczyk,  C. M. Krauter,  
 K. Kue,  A. Kunitsa,  T. Kus,  A. Landau,  K. V. Lawler,  D. Lefrancois,  
 S. Lehtola,  Rain Li,  Yi-Pei Li,  Jiashu Liang,  M. Liebenthal,  
 Hung-Hsuan Lin,  You-Sheng Lin,  Fenglai Liu,  Kuan-Yu Liu,  
 M. Loipersberger,  A. Luenser,  A. Manjanath,  P. Manohar,  E. Mansoor,  
 S. F. Manzer,  Shan-Ping Mao,  A. V. Marenich,  T. Markovich,  S. Mason,  
 S. A. Maurer,  P. F. McLaughlin,  M. F. S. J. Menger,  J.-M. Mewes,  
 S. A. Mewes,  P. Morgante,  J. W. Mullinax,  T. S. Nguyen-Beck,  
 K. J. Oosterbaan,  G. Paran,  Alexander C. Paul,  Suranjan K. Paul,  
 F. Pavosevic,  Zheng Pei,  S. Prager,  E. I. Proynov,  E. Ramos,  B. Rana,  
 A. E. Rask,  A. Rettig,  R. M. Richard,  F. Rob,  E. Rossomme,  T. Scheele,  
 M. Scheurer,  M. Schneider,  N. Sergueev,  S. M. Sharada,  W. Skomorowski,  
 D. W. Small,  C. J. Stein,  Yu-Chuan Su,  E. J. Sundstrom,  Zhen Tao,  
 J. Thirman,  T. Tsuchimochi,  N. M. Tubman,  S. P. Veccham,  O. Vydrov,  
 J. Wenzel,  J. Witte,  A. Yamada,  Kun Yao,  S. Yeganeh,  S. R. Yost,  
 A. Zech,  Igor Ying Zhang,  Xing Zhang,  Yu Zhang,  D. Zuev,  
 A. Aspuru-Guzik,  A. T. Bell,  N. A. Besley,  K. B. Bravaya,  B. R. Brooks,  
 D. Casanova,  Jeng-Da Chai,  S. Coriani,  C. J. Cramer,  
 A. E. DePrince, III,  R. A. DiStasio Jr.,  A. Dreuw,  B. D. Dunietz,  
 T. R. Furlani,  W. A. Goddard III,  S. Grimme,  S. Hammes-Schiffer,  
 T. Head-Gordon,  W. J. Hehre,  Chao-Ping Hsu,  T.-C. Jagau,  Yousung Jung,  
 A. Klamt,  Jing Kong,  D. S. Lambrecht,  WanZhen Liang,  N. J. Mayhall,  
 C. W. McCurdy,  J. B. Neaton,  C. Ochsenfeld,  J. A. Parkhill,  R. Peverati,  
 V. A. Rassolov,  Yihan Shao,  L. V. Slipchenko,  T. Stauch,  R. P. Steele,  
 J. E. Subotnik,  A. J. W. Thom,  A. Tkatchenko,  D. G. Truhlar,  
 T. Van Voorhis,  T. A. Wesolowski,  K. B. Whaley,  H. L. Woodcock III,  
 P. M. Zimmerman,  S. Faraji,  P. M. W. Gill,  M. Head-Gordon,  
 J. M. Herbert,  A. I. Krylov

 Contributors to earlier versions of Q-Chem not listed above: 
 R. D. Adamson,  B. Austin,  R. Baer,  J. Baker,  G. J. O. Beran,  
 K. Brandhorst,  S. T. Brown,  E. F. C. Byrd,  A. K. Chakraborty,  
 G. K. L. Chan,  Chun-Min Chang,  Yunqing Chen,  C.-L. Cheng,  
 Siu Hung Chien,  D. M. Chipman,  D. L. Crittenden,  H. Dachsel,  
 R. J. Doerksen,  A. D. Dutoi,  R. G. Edgar,  J. Fosso-Tande,  
 L. Fusti-Molnar,  D. Ghosh,  A. Ghysels,  A. Golubeva-Zadorozhnaya,  
 J. Gonthier,  M. S. Gordon,  S. R. Gwaltney,  G. Hawkins,  J. E. Herr,  
 A. Heyden,  S. Hirata,  E. G. Hohenstein,  G. Kedziora,  F. J. Keil,  
 C. Kelley,  Jihan Kim,  R. A. King,  R. Z. Khaliullin,  P. P. Korambath,  
 W. Kurlancheek,  A. Laurent,  A. M. Lee,  M. S. Lee,  S. V. Levchenko,  
 Ching Yeh Lin,  D. Liotard,  E. Livshits,  R. C. Lochan,  I. Lotan,  
 L. A. Martinez-Martinez,  P. E. Maslen,  N. Nair,  D. P. O'Neill,  
 D. Neuhauser,  E. Neuscamman,  C. M. Oana,  R. Olivares-Amaya,  R. Olson,  
 T. M. Perrine,  B. Peters,  P. A. Pieniazek,  A. Prociuk,  Y. M. Rhee,  
 J. Ritchie,  M. A. Rohrdanz,  E. Rosta,  N. J. Russ,  H. F. Schaefer III,  
 M. W. Schmidt,  N. E. Schultz,  S. Sharma,  N. Shenvi,  C. D. Sherrill,  
 A. C. Simmonett,  A. Sodt,  T. Stein,  D. Stuck,  K. S. Thanthiriwatte,  
 V. Vanovschi,  L. Vogt,  Tao Wang,  A. Warshel,  M. A. Watson,  
 C. F. Williams,  Q. Wu,  X. Xu,  Jun Yang,  W. Zhang,  Yan Zhao

 Please cite Q-Chem as follows:
 Y. Shao et al., Mol. Phys. 113, 184-215 (2015)
 DOI: 10.1080/00268976.2014.952696

 Q-Chem 5.4.0 for Intel X86 EM64T Linux

 Parts of Q-Chem use Armadillo 9.800.1 (Horizon Scraper).
 http://arma.sourceforge.net/

 Q-Chem begins on Fri Dec 15 15:06:47 2023  

 Host: 
0

     Scratch files written to ./qchem3648926//
 May1621 |scratch|qcdevops|jenkins|workspace|build_RNUM    
 Parallel job on  1  processors
 Processing $rem in /cm/shared/apps/spack/cpu/opt/spack/linux-centos8-zen2/gcc-10.2.0/qchem-5.4-akfmr7b3t57bfs6qan3padb2wnb2i7cl/config/preferences:
 Processing $rem in /home/rramji/.qchemrc:
 Symmetry turned off for PCM/SM12/SMD calculation
 Core orbitals will be frozen

 Checking the input file for inconsistencies... 	...done.

 Q-Chem warning in module forms1/BasisType.C, line 2236:

 You are not using the predefined 5D/6D in this basis set.


--------------------------------------------------------------
User input:
--------------------------------------------------------------
$molecule
0 1
C	-0.086486	-6.741404	0.241938
C	-0.532960	-6.155638	1.468983
C	0.284733	-5.791452	-0.776651
C	-0.628455	-4.803786	1.730681
H	-0.833086	-6.821518	2.294130
C	0.184300	-4.378638	-0.502775
C	-0.271086	-3.838032	0.747353
C	0.541191	-3.413062	-1.484986
C	-0.370703	-2.426473	1.019042
C	0.446468	-2.059348	-1.226525
C	-0.000000	-1.478216	-0.000000
H	0.746717	-1.394783	-2.052666
C	0.779832	-6.187987	-2.131549
C	1.030596	-3.798164	-2.829295
N	1.115461	-5.170003	-3.057496
C	-1.119034	-4.424987	3.078712
C	-0.865151	-2.036627	2.375300
N	-1.201176	-3.049156	3.301374
O	0.916355	-7.353131	-2.498300
O	1.345486	-2.986854	-3.697195
O	-1.430379	-5.248946	3.936224
O	-1.007714	-0.878829	2.762805
C	1.599576	-5.563799	-4.384539
H	1.616121	-6.664085	-4.426636
H	2.611458	-5.147101	-4.550487
H	0.931037	-5.148785	-5.162921
C	-1.677382	-2.587487	4.608454
H	-1.896168	-3.483329	5.212668
H	-2.583531	-1.964972	4.482719
H	-0.903674	-1.962932	5.093988
H	-0.022586	-7.822318	0.067309
C	0.000000	0.000000	0.000000
S	0.607475	0.509994	1.580530
C	1.862020	1.562717	0.904911
C	0.764397	0.641624	-0.985400
C	1.775697	1.490335	-0.493528
H	0.583895	0.490135	-2.059934
H	2.450484	2.056643	-1.152593
H	2.536607	2.128872	1.556025
$end

$rem
JOBTYPE		SP
EXCHANGE	HF
CORRELATION	pRIMP2
BASIS		cc-pvtz
METHOD		rimp2
AUX_BASIS	rimp2-cc-pvtz
SOLVENT_METHOD	PCM
PURECART	11111
SYMMETRY	false
MEM_TOTAL	110000
SCF_CONVERGENCE = 6
THRESH=10
GUI = 2
$end



$solvent
dielectric 4.90
$end
--------------------------------------------------------------
 ----------------------------------------------------------------
             Standard Nuclear Orientation (Angstroms)
    I     Atom           X                Y                Z
 ----------------------------------------------------------------
    1      C      -0.0864860000    -6.7414040000     0.2419380000
    2      C      -0.5329600000    -6.1556380000     1.4689830000
    3      C       0.2847330000    -5.7914520000    -0.7766510000
    4      C      -0.6284550000    -4.8037860000     1.7306810000
    5      H      -0.8330860000    -6.8215180000     2.2941300000
    6      C       0.1843000000    -4.3786380000    -0.5027750000
    7      C      -0.2710860000    -3.8380320000     0.7473530000
    8      C       0.5411910000    -3.4130620000    -1.4849860000
    9      C      -0.3707030000    -2.4264730000     1.0190420000
   10      C       0.4464680000    -2.0593480000    -1.2265250000
   11      C       0.0000000000    -1.4782160000     0.0000000000
   12      H       0.7467170000    -1.3947830000    -2.0526660000
   13      C       0.7798320000    -6.1879870000    -2.1315490000
   14      C       1.0305960000    -3.7981640000    -2.8292950000
   15      N       1.1154610000    -5.1700030000    -3.0574960000
   16      C      -1.1190340000    -4.4249870000     3.0787120000
   17      C      -0.8651510000    -2.0366270000     2.3753000000
   18      N      -1.2011760000    -3.0491560000     3.3013740000
   19      O       0.9163550000    -7.3531310000    -2.4983000000
   20      O       1.3454860000    -2.9868540000    -3.6971950000
   21      O      -1.4303790000    -5.2489460000     3.9362240000
   22      O      -1.0077140000    -0.8788290000     2.7628050000
   23      C       1.5995760000    -5.5637990000    -4.3845390000
   24      H       1.6161210000    -6.6640850000    -4.4266360000
   25      H       2.6114580000    -5.1471010000    -4.5504870000
   26      H       0.9310370000    -5.1487850000    -5.1629210000
   27      C      -1.6773820000    -2.5874870000     4.6084540000
   28      H      -1.8961680000    -3.4833290000     5.2126680000
   29      H      -2.5835310000    -1.9649720000     4.4827190000
   30      H      -0.9036740000    -1.9629320000     5.0939880000
   31      H      -0.0225860000    -7.8223180000     0.0673090000
   32      C       0.0000000000     0.0000000000     0.0000000000
   33      S       0.6074750000     0.5099940000     1.5805300000
   34      C       1.8620200000     1.5627170000     0.9049110000
   35      C       0.7643970000     0.6416240000    -0.9854000000
   36      C       1.7756970000     1.4903350000    -0.4935280000
   37      H       0.5838950000     0.4901350000    -2.0599340000
   38      H       2.4504840000     2.0566430000    -1.1525930000
   39      H       2.5366070000     2.1288720000     1.5560250000
 ----------------------------------------------------------------
 Nuclear Repulsion Energy =        2531.35177239 hartrees
 There are       97 alpha and       97 beta electrons
 Requested basis set is cc-pVTZ
 There are 344 shells and 982 basis functions

 Total QAlloc Memory Limit 110000 MB
 Mega-Array Size       188 MB
 MEM_STATIC part       192 MB
 Discretize the solute cavity surface with Lebedev spheres
	Using 110 Lebedev grid points for each H atom
	Using 194 Lebedev grid points for other atoms
	Atomic van der Waals radii will be scaled by 1.20
 Remove points where switching function is < 1.0e-08
 Keep 2475 surface tesserae and discard 4083 interior tesserae
 Molecular Surface Area = 358.345 Angst**2
 Requested basis set is rimp2-cc-pVTZ
 There are 750 shells and 2588 basis functions
 A cutoff of  1.0D-10 yielded  32267 shell pairs
 There are    248121 function pairs (    322333 Cartesian)
 Smallest overlap matrix eigenvalue = 8.87E-06

 Q-Chem warning in module stvman/mkSTV.C, line 323:

 Overlap eigenvalue is smaller than square root of threshold
 Use THRESH >= 12 to get rid of this warning


 Scale SEOQF with 1.000000e-01/1.000000e-02/1.000000e-01

 Standard Electronic Orientation quadrupole field applied
 Nucleus-field energy     =    -0.0000000958 hartrees
 Guess from superposition of atomic densities
 Warning:  Energy on first SCF cycle will be non-variational
 SAD guess density has 194.000000 electrons

 -----------------------------------------------------------------------
  General SCF calculation program by
  Eric Jon Sundstrom, Paul Horn, Yuezhi Mao, Dmitri Zuev, Alec White,
  David Stuck, Shaama M.S., Shane Yost, Joonho Lee, David Small,
  Daniel Levine, Susi Lehtola, Hugh Burton, Evgeny Epifanovsky,
  Bang C. Huynh
 -----------------------------------------------------------------------
 Hartree-Fock
 using 64 threads for integral computing
 -------------------------------------------------------
 OpenMP Integral computing Module                
 Release: version 1.0, May 2013, Q-Chem Inc. Pittsburgh 
 -------------------------------------------------------
 A restricted SCF calculation will be
 performed using DIIS
 SCF converges when DIIS error is below 1.0e-06
 ---------------------------------------
  Cycle       Energy         DIIS error
 ---------------------------------------
    1   -1581.4688942474      1.88e-02  
    2   -1570.0747732447      2.07e-03  
    3   -1570.4012245863      1.60e-03  
    4   -1570.6229347102      2.60e-04  
    5   -1570.6353654273      7.76e-05  
    6   -1570.6365119278      2.95e-05  
    7   -1570.6368052146      1.51e-05  
    8   -1570.6369068017      6.79e-06  
    9   -1570.6369259667      2.62e-06  
   10   -1570.6369300275      1.18e-06  
   11   -1570.6369309237      5.19e-07  Convergence criterion met
 ---------------------------------------
 SCF time:   CPU 6572.86s  wall 242.00s 

************** Final PCM Free Energy Summary **************
 G_electrostatic  =      -0.02351943 hartree =     -14.75866672 kcal/mol
 G_cavitation     =       0.00000000 hartree =       0.00000000 kcal/mol
 G_dispersion     =       0.00000000 hartree =       0.00000000 kcal/mol
 G_repulsion      =       0.00000000 hartree =       0.00000000 kcal/mol
 --------------------------------------------------
 Non-electrostatic Free Energy =       0.00000000 hartree =       0.00000000 kcal/mol
 Total                         =      -0.02351943 hartree =     -14.75866672 kcal/mol
 --------------------------------------------------
 SCF Energy (H0 + V/2)                       =   -1570.63693092 
 Solute Internal Energy (H0)                 =   -1570.61341149 
 Total Free Energy (H0 + V/2 + non-elec)     =   -1570.63693092 hartree
                                             = -985589.54965701 kcal/mol
***********************************************************

 SCF   energy in the final basis set =    -1570.6369309237
 Total energy in the final basis set =    -1570.6369309237


 --------------------------------------------------------------
  Generalized many-body perturbation theory program
  by Joonho Lee, Fazle Rob, Xintian Feng, Evgeny Epifanovsky

 No regularization used 
 (reg. param. = 0.0000e+00)
  (P|Q)^-1/2 Time:  CPU 129.94 s  wall 2.45 s

 In RI-MP2 calculation: 
 # of frozen core orbitals: 31

 Components of the RIMP2 correlation energy:
        aaaa    correlation energy =        -0.6200231640 a.u.
        abab    correlation energy =        -3.3998869466 a.u.
        bbbb    correlation energy =        -0.6200231640 a.u.
        non-Brillouin singles      =        -0.0000000000 a.u.
        total same-spin energy     =        -1.2400463281 a.u.
        total opposite-spin energy =        -3.3998869466 a.u.

 Total  RIMP2   correlation energy =        -4.6399332747 a.u.
        RIMP2         total energy =     -1575.2768641984 a.u.

 RI-MP2 Energy Time:  CPU 1888.34 s  wall 31.18 s
 
 --------------------------------------------------------------
 
                    Orbital Energies (a.u.)
 --------------------------------------------------------------
 
 Alpha MOs
 -- Occupied --
-91.9870 -20.5579 -20.5562 -20.5546 -20.5509 -15.6306 -15.6283 -11.3989
-11.3935 -11.3901 -11.3888 -11.3204 -11.3001 -11.2974 -11.2969 -11.2900
-11.2894 -11.2883 -11.2849 -11.2791 -11.2777 -11.2765 -11.2764 -11.2728
-11.2643 -11.2633 -11.2526  -8.9867  -6.6671  -6.6661  -6.6656  -1.4250
 -1.4243  -1.4038  -1.4027  -1.2664  -1.2639  -1.2155  -1.1844  -1.1406
 -1.1131  -1.0613  -1.0464  -0.9930  -0.9920  -0.9898  -0.9573  -0.9453
 -0.8944  -0.8771  -0.8737  -0.8593  -0.7920  -0.7767  -0.7756  -0.7666
 -0.7317  -0.7174  -0.7053  -0.6923  -0.6858  -0.6743  -0.6655  -0.6613
 -0.6550  -0.6392  -0.6346  -0.6331  -0.6247  -0.6132  -0.5890  -0.5848
 -0.5805  -0.5718  -0.5713  -0.5651  -0.5634  -0.5548  -0.5544  -0.5478
 -0.5327  -0.5281  -0.5158  -0.5117  -0.4873  -0.4726  -0.4613  -0.4564
 -0.4559  -0.4345  -0.4234  -0.4135  -0.4065  -0.3745  -0.3545  -0.3341
 -0.2982
 -- Virtual --
 -0.0147   0.0465   0.0696   0.0943   0.1210   0.1528   0.1585   0.1606
  0.1676   0.1755   0.1804   0.1830   0.1866   0.1910   0.2085   0.2114
  0.2280   0.2283   0.2297   0.2381   0.2552   0.2600   0.2618   0.2656
  0.2762   0.2992   0.3146   0.3167   0.3194   0.3220   0.3321   0.3412
  0.3456   0.3500   0.3543   0.3582   0.3584   0.3604   0.3744   0.3754
  0.3795   0.3855   0.3916   0.3942   0.4015   0.4072   0.4099   0.4131
  0.4179   0.4267   0.4322   0.4347   0.4386   0.4439   0.4459   0.4573
  0.4600   0.4655   0.4689   0.4743   0.4816   0.4876   0.4913   0.4931
  0.4995   0.5037   0.5106   0.5132   0.5151   0.5176   0.5287   0.5325
  0.5381   0.5412   0.5468   0.5505   0.5531   0.5569   0.5645   0.5695
  0.5745   0.5790   0.5828   0.5871   0.5906   0.5932   0.5956   0.6009
  0.6078   0.6136   0.6176   0.6193   0.6220   0.6231   0.6325   0.6336
  0.6348   0.6365   0.6409   0.6420   0.6484   0.6555   0.6640   0.6741
  0.6759   0.6862   0.6933   0.6982   0.7005   0.7054   0.7148   0.7186
  0.7263   0.7355   0.7402   0.7422   0.7573   0.7622   0.7641   0.7678
  0.7713   0.7827   0.7923   0.7963   0.8037   0.8106   0.8157   0.8175
  0.8285   0.8387   0.8445   0.8458   0.8493   0.8512   0.8565   0.8612
  0.8662   0.8684   0.8698   0.8744   0.8824   0.8920   0.8975   0.9069
  0.9119   0.9142   0.9248   0.9291   0.9315   0.9350   0.9407   0.9427
  0.9488   0.9634   0.9647   0.9727   0.9748   0.9785   0.9832   0.9881
  0.9928   1.0000   1.0050   1.0102   1.0134   1.0178   1.0275   1.0367
  1.0390   1.0468   1.0491   1.0528   1.0613   1.0654   1.0713   1.0727
  1.0787   1.0799   1.0826   1.0915   1.0990   1.1039   1.1096   1.1178
  1.1217   1.1294   1.1333   1.1402   1.1480   1.1503   1.1557   1.1630
  1.1671   1.1733   1.1753   1.1802   1.1842   1.1909   1.1981   1.2029
  1.2080   1.2127   1.2168   1.2211   1.2259   1.2333   1.2361   1.2421
  1.2509   1.2530   1.2599   1.2700   1.2802   1.2894   1.2916   1.3058
  1.3107   1.3223   1.3319   1.3375   1.3441   1.3523   1.3580   1.3634
  1.3723   1.3834   1.3855   1.3875   1.3916   1.4031   1.4078   1.4136
  1.4206   1.4241   1.4338   1.4443   1.4480   1.4500   1.4575   1.4757
  1.4799   1.4842   1.4895   1.4929   1.4994   1.5051   1.5171   1.5222
  1.5294   1.5310   1.5341   1.5384   1.5501   1.5588   1.5650   1.5675
  1.5736   1.5754   1.5819   1.5898   1.6041   1.6086   1.6310   1.6364
  1.6433   1.6507   1.6548   1.6565   1.6716   1.6823   1.6880   1.6951
  1.7017   1.7069   1.7135   1.7268   1.7344   1.7411   1.7444   1.7492
  1.7604   1.7684   1.7745   1.7873   1.7956   1.8041   1.8070   1.8140
  1.8234   1.8323   1.8383   1.8463   1.8546   1.8576   1.8625   1.8672
  1.8788   1.8975   1.9019   1.9083   1.9230   1.9318   1.9479   1.9573
  1.9637   1.9656   1.9723   1.9826   1.9850   2.0024   2.0344   2.0402
  2.0515   2.0615   2.0774   2.0808   2.1026   2.1194   2.1360   2.1372
  2.1504   2.1601   2.1771   2.1824   2.1860   2.2085   2.2207   2.2283
  2.2385   2.2577   2.2592   2.2870   2.2880   2.2928   2.2949   2.3107
  2.3163   2.3279   2.3394   2.3412   2.3575   2.3679   2.3822   2.3828
  2.3996   2.4273   2.4382   2.4463   2.4512   2.4554   2.4580   2.4665
  2.4851   2.4915   2.5011   2.5057   2.5087   2.5211   2.5436   2.5477
  2.5572   2.5657   2.5746   2.5852   2.5913   2.5972   2.6012   2.6143
  2.6157   2.6183   2.6311   2.6415   2.6543   2.6638   2.6674   2.6722
  2.6818   2.6856   2.6966   2.7070   2.7146   2.7200   2.7272   2.7288
  2.7365   2.7457   2.7525   2.7546   2.7651   2.7666   2.7769   2.7948
  2.8046   2.8139   2.8268   2.8378   2.8422   2.8549   2.8615   2.8624
  2.8744   2.8796   2.8859   2.8908   2.8931   2.8987   2.9102   2.9127
  2.9158   2.9289   2.9320   2.9434   2.9511   2.9588   2.9665   2.9746
  2.9794   2.9885   2.9888   2.9961   3.0061   3.0078   3.0090   3.0221
  3.0305   3.0361   3.0427   3.0525   3.0562   3.0691   3.0765   3.0850
  3.0893   3.0961   3.1009   3.1042   3.1062   3.1136   3.1144   3.1231
  3.1287   3.1362   3.1458   3.1571   3.1596   3.1682   3.1789   3.1835
  3.1865   3.1953   3.1998   3.2074   3.2101   3.2154   3.2170   3.2273
  3.2316   3.2334   3.2377   3.2465   3.2524   3.2558   3.2577   3.2636
  3.2692   3.2731   3.2824   3.2845   3.2879   3.2923   3.2991   3.3024
  3.3090   3.3137   3.3172   3.3285   3.3287   3.3331   3.3355   3.3367
  3.3427   3.3456   3.3471   3.3555   3.3610   3.3682   3.3689   3.3730
  3.3834   3.3862   3.3872   3.3942   3.4034   3.4100   3.4117   3.4139
  3.4215   3.4252   3.4302   3.4427   3.4454   3.4496   3.4560   3.4575
  3.4614   3.4663   3.4734   3.4762   3.4836   3.4894   3.4927   3.4945
  3.4975   3.5045   3.5093   3.5130   3.5166   3.5240   3.5270   3.5369
  3.5403   3.5466   3.5513   3.5580   3.5649   3.5729   3.5819   3.5859
  3.5961   3.6056   3.6083   3.6143   3.6161   3.6212   3.6306   3.6334
  3.6363   3.6479   3.6492   3.6515   3.6575   3.6685   3.6755   3.6867
  3.6900   3.6962   3.7038   3.7084   3.7116   3.7158   3.7199   3.7308
  3.7324   3.7358   3.7384   3.7487   3.7557   3.7638   3.7654   3.7691
  3.7822   3.7832   3.7884   3.7987   3.8009   3.8032   3.8064   3.8217
  3.8233   3.8272   3.8297   3.8440   3.8509   3.8535   3.8586   3.8691
  3.8728   3.8795   3.8842   3.8956   3.8983   3.9121   3.9246   3.9315
  3.9329   3.9392   3.9427   3.9510   3.9605   3.9756   3.9801   3.9895
  3.9904   3.9997   4.0120   4.0172   4.0212   4.0314   4.0360   4.0571
  4.0580   4.0638   4.0756   4.0778   4.0876   4.0948   4.1025   4.1140
  4.1248   4.1394   4.1430   4.1513   4.1587   4.1622   4.1672   4.1685
  4.1802   4.1915   4.2042   4.2120   4.2152   4.2338   4.2388   4.2461
  4.2593   4.2639   4.2746   4.2772   4.2833   4.2901   4.2936   4.3003
  4.3063   4.3090   4.3133   4.3202   4.3279   4.3352   4.3425   4.3487
  4.3589   4.3611   4.3664   4.3691   4.3712   4.3797   4.3818   4.3893
  4.3979   4.4006   4.4111   4.4128   4.4218   4.4274   4.4498   4.4620
  4.4660   4.4702   4.4753   4.4906   4.4964   4.5088   4.5208   4.5222
  4.5259   4.5358   4.5463   4.5528   4.5531   4.5644   4.5762   4.5801
  4.5831   4.5882   4.5940   4.6070   4.6154   4.6201   4.6289   4.6374
  4.6457   4.6576   4.6634   4.6724   4.6792   4.6842   4.6879   4.6981
  4.7248   4.7347   4.7386   4.7475   4.7711   4.7905   4.7944   4.7967
  4.8091   4.8165   4.8382   4.8447   4.8537   4.8635   4.8704   4.8736
  4.8780   4.8928   4.9164   4.9330   4.9467   4.9616   4.9693   4.9777
  5.0020   5.0147   5.0317   5.0360   5.0486   5.0541   5.0563   5.0867
  5.0927   5.1028   5.1092   5.1210   5.1268   5.1411   5.1468   5.1611
  5.1647   5.1736   5.1787   5.1902   5.2051   5.2321   5.2475   5.2587
  5.2685   5.2774   5.2858   5.2992   5.3146   5.3244   5.3341   5.3430
  5.3552   5.3975   5.4057   5.4093   5.4213   5.4336   5.4418   5.4607
  5.4846   5.5073   5.5091   5.5113   5.5156   5.5318   5.5479   5.5579
  5.5602   5.5623   5.5767   5.5790   5.5821   5.5954   5.6072   5.6153
  5.6267   5.6400   5.6532   5.6569   5.6582   5.6709   5.6768   5.6891
  5.6982   5.7125   5.7237   5.7347   5.7448   5.7585   5.7614   5.7732
  5.7790   5.7839   5.8143   5.8278   5.8449   5.8665   5.8991   5.9364
  5.9453   5.9671   5.9766   5.9941   6.0240   6.0257   6.0392   6.0481
  6.0776   6.0865   6.1021   6.1205   6.1254   6.1631   6.1916   6.2092
  6.2181   6.2200   6.2246   6.2574   6.2696   6.2763   6.3044   6.3444
  6.3514   6.3814   6.3886   6.4485   6.4676   6.5284   6.5621   6.5634
  6.5710   6.5931   6.6107   6.6484   6.6577   6.6611   6.7095   6.8329
  6.8401   6.8828   6.8867   6.9009   6.9118   6.9318   7.0200   7.0807
  7.1176   7.1427   7.1863   7.1996   7.2309   7.3331   7.3441   7.3450
  7.3629   7.4681   7.5467   7.5587   7.5758   7.5816   7.6172   7.6352
  7.6798   7.6866   7.7254   8.4050   9.9815  10.3219  11.0746  11.2109
 11.7144  11.8046  12.1353  12.3949  12.4610  12.6460  12.8516  12.9944
 13.3061  13.5605  13.8203  13.9479  14.0655  14.1334  14.2250  14.3575
 14.4196  14.7409  15.3240  15.7420  16.0232
 --------------------------------------------------------------
 
          Ground-State Mulliken Net Atomic Charges

     Atom                 Charge (a.u.)
  ----------------------------------------
      1 C                    -0.157265
      2 C                    -0.109602
      3 C                    -0.022820
      4 C                    -0.006194
      5 H                     0.187054
      6 C                    -0.016608
      7 C                     0.076629
      8 C                     0.022270
      9 C                    -0.099103
     10 C                    -0.151550
     11 C                     0.087623
     12 H                     0.175416
     13 C                     0.358322
     14 C                     0.363413
     15 N                    -0.101410
     16 C                     0.355611
     17 C                     0.377793
     18 N                    -0.093418
     19 O                    -0.464418
     20 O                    -0.479656
     21 O                    -0.486136
     22 O                    -0.481678
     23 C                    -0.201526
     24 H                     0.141168
     25 H                     0.111879
     26 H                     0.112096
     27 C                    -0.197765
     28 H                     0.133859
     29 H                     0.112327
     30 H                     0.112250
     31 H                     0.210849
     32 C                    -0.067809
     33 S                     0.104566
     34 C                    -0.162261
     35 C                    -0.117276
     36 C                    -0.226593
     37 H                     0.193237
     38 H                     0.192142
     39 H                     0.214586
  ----------------------------------------
  Sum of atomic charges =     0.000000

 -----------------------------------------------------------------
                    Cartesian Multipole Moments
 -----------------------------------------------------------------
    Charge (ESU x 10^10)
                 0.0000
    Dipole Moment (Debye)
         X       2.4132      Y       2.6178      Z      -0.8938
       Tot       3.6709
    Quadrupole Moments (Debye-Ang)
        XX    -159.3855     XY       5.8374     YY    -180.1498
        XZ       7.9605     YZ       1.4760     ZZ    -175.2773
    Octopole Moments (Debye-Ang^2)
       XXX     -75.3199    XXY     512.1157    XYY     -17.4618
       YYY    1670.2713    XXZ     -28.2933    XYZ     -23.5578
       YYZ     -30.0376    XZZ     -18.8614    YZZ     569.9841
       ZZZ    -107.1534
    Hexadecapole Moments (Debye-Ang^3)
      XXXX   -1138.1958   XXXY      19.0342   XXYY   -2843.3646
      XYYY     155.6658   YYYY  -17309.4297   XXXZ     904.3838
      XXYZ     -67.3533   XYYZ     505.6991   YYYZ    -722.6548
      XXZZ   -1126.9721   XYZZ     -95.5651   YYZZ   -4069.3893
      XZZZ     977.4056   YZZZ     -47.9187   ZZZZ   -5737.6291
 -----------------------------------------------------------------
 Total job time:  278.24s(wall), 8573.44s(cpu) 
 Fri Dec 15 15:11:25 2023

        *************************************************************
        *                                                           *
        *  Thank you very much for using Q-Chem.  Have a nice day.  *
        *                                                           *
        *************************************************************


0 sent ACK to 0 
now end server 0 ... 
cleanup process ... done
remove work dirs ./qchem3648926.0 -- ./qchem3648926.0
rm -rf ./qchem3648926.0
rm -rf ./qchem3648926
