You are running Q-Chem version: 5.4.0

#
# job setting
#
local host:  exp-4-09
current dir: /home/rramji/project-csd799/aromodel/pndit-qchem/rotation_run
input file:  Dimethyl_Naphthalene_Dicarboximide_Phi_30_Theta_300_Thiophene.qcin
output file: 
nprocs     : 1
nthreads   : 64
#
# qchem installation setting
#
QC:          /cm/shared/apps/spack/cpu/opt/spack/linux-centos8-zen2/gcc-10.2.0/qchem-5.4-akfmr7b3t57bfs6qan3padb2wnb2i7cl
QCAUX:       /cm/shared/apps/spack/cpu/opt/spack/linux-centos8-zen2/gcc-10.2.0/qchem-5.4-akfmr7b3t57bfs6qan3padb2wnb2i7cl/qcaux
QCPROG:      /cm/shared/apps/spack/cpu/opt/spack/linux-centos8-zen2/gcc-10.2.0/qchem-5.4-akfmr7b3t57bfs6qan3padb2wnb2i7cl/exe/qcprog.exe
QCPROG_S:    /cm/shared/apps/spack/cpu/opt/spack/linux-centos8-zen2/gcc-10.2.0/qchem-5.4-akfmr7b3t57bfs6qan3padb2wnb2i7cl/exe/qcprog.exe_s
PARALLEL:    -DPARALLEL
QCMPI:       mpich
#
# qchem directory setting
#
qcrun:       qchem2795918
QCSCRATCH:   .
QCLOCALSCR:  
QCTMPDIR:    .
QCFILEPREF:  ./qchem2795918
QCSAVEDIR:   
workdirs:    ./qchem2795918
workdir0:    ./qchem2795918
partmpdirs =  
#
# parallel setting
#
QCRSH:           ssh
QCMPI:           mpich
QCMPIRUN:        /cm/shared/apps/spack/cpu/opt/spack/linux-centos8-zen2/gcc-10.2.0/qchem-5.4-akfmr7b3t57bfs6qan3padb2wnb2i7cl/bin/mpi/mpirun_qchem
QCMACHINEFILE:   ./qchem2795918/hostfile
exp-4-09

#
# env setting
#
exported envs:   QC QCAUX QCSCRATCH QCRUNNAME QCFILEPREF QCPROG QCPROG_S GUIFILE

Running Job 1 of 1 Dimethyl_Naphthalene_Dicarboximide_Phi_30_Theta_300_Thiophene.qcin
qchem Dimethyl_Naphthalene_Dicarboximide_Phi_30_Theta_300_Thiophene.qcin_2795918.0 ./qchem2795918/ 1
/cm/shared/apps/spack/cpu/opt/spack/linux-centos8-zen2/gcc-10.2.0/qchem-5.4-akfmr7b3t57bfs6qan3padb2wnb2i7cl/bin/mpi/mpirun_qchem -machinefile ./qchem2795918/hostfile -np 1 /cm/shared/apps/spack/cpu/opt/spack/linux-centos8-zen2/gcc-10.2.0/qchem-5.4-akfmr7b3t57bfs6qan3padb2wnb2i7cl/exe/qcprog.exe Dimethyl_Naphthalene_Dicarboximide_Phi_30_Theta_300_Thiophene.qcin_2795918.0 ./qchem2795918/

Process 0 of 1 is on exp-4-09 - thread support 0
initial socket setup ...start
initial socket setup ...done 
now start server 0 ... 
                  Welcome to Q-Chem
     A Quantum Leap Into The Future Of Chemistry


 Q-Chem 5.4, Q-Chem, Inc., Pleasanton, CA (2021)

 License issued to: University of California, San Diego (site)

 E. Epifanovsky,  A. T. B. Gilbert,  Xintian Feng,  Joonho Lee,  Yuezhi Mao,  
 N. Mardirossian,  P. Pokhilko,  A. White,  M. Wormit,  M. P. Coons,  
 A. L. Dempwolff,  Zhengting Gan,  D. Hait,  P. R. Horn,  L. D. Jacobson,  
 I. Kaliman,  J. Kussmann,  A. W. Lange,  Ka Un Lao,  D. S. Levine,  Jie Liu,  
 S. C. McKenzie,  A. F. Morrison,  K. Nanda,  F. Plasser,  D. R. Rehn,  
 M. L. Vidal,  Zhi-Qiang You,  Ying Zhu,  B. Alam,  B. Albrecht,  
 A. Aldossary,  E. Alguire,  J. H. Andersen,  D. Barton,  K. Begam,  A. Behn,  
 Y. A. Bernard,  E. J. Berquist,  H. Burton,  A. Carreras,  K. Carter-Fenk,  
 R. Chakraborty,  A. D. Chien,  K. D. Closser,  V. Cofer-Shabica,  
 S. Dasgupta,  Jia Deng,  M. de Wergifosse,  M. Diedenhofen,  Hainam Do,  
 S. Ehlert,  Po-Tung Fang,  S. Fatehi,  Qingguo Feng,  J. Gayvert,  
 Qinghui Ge,  G. Gidofalvi,  M. Goldey,  J. Gomes,  C. Gonzalez-Espinoza,  
 S. Gulania,  A. Gunina,  M. W. D. Hanson-Heine,  P. H. P. Harbach,  
 A. W. Hauser,  M. F. Herbst,  M. Hernandez Vera,  M. Hodecker,  
 Z. C. Holden,  S. Houck,  Xunkun Huang,  Kerwin Hui,  B. C. Huynh,  
 M. Ivanov,  Hyunjun Ji,  Hanjie Jiang,  B. Kaduk,  S. Kaehler,  
 K. Khistyaev,  Jaehoon Kim,  P. Klunzinger,  Z. Koczor-Benda,  
 Joong Hoon Koh,  D. Kosenkov,  L. Koulias,  T. Kowalczyk,  C. M. Krauter,  
 K. Kue,  A. Kunitsa,  T. Kus,  A. Landau,  K. V. Lawler,  D. Lefrancois,  
 S. Lehtola,  Rain Li,  Yi-Pei Li,  Jiashu Liang,  M. Liebenthal,  
 Hung-Hsuan Lin,  You-Sheng Lin,  Fenglai Liu,  Kuan-Yu Liu,  
 M. Loipersberger,  A. Luenser,  A. Manjanath,  P. Manohar,  E. Mansoor,  
 S. F. Manzer,  Shan-Ping Mao,  A. V. Marenich,  T. Markovich,  S. Mason,  
 S. A. Maurer,  P. F. McLaughlin,  M. F. S. J. Menger,  J.-M. Mewes,  
 S. A. Mewes,  P. Morgante,  J. W. Mullinax,  T. S. Nguyen-Beck,  
 K. J. Oosterbaan,  G. Paran,  Alexander C. Paul,  Suranjan K. Paul,  
 F. Pavosevic,  Zheng Pei,  S. Prager,  E. I. Proynov,  E. Ramos,  B. Rana,  
 A. E. Rask,  A. Rettig,  R. M. Richard,  F. Rob,  E. Rossomme,  T. Scheele,  
 M. Scheurer,  M. Schneider,  N. Sergueev,  S. M. Sharada,  W. Skomorowski,  
 D. W. Small,  C. J. Stein,  Yu-Chuan Su,  E. J. Sundstrom,  Zhen Tao,  
 J. Thirman,  T. Tsuchimochi,  N. M. Tubman,  S. P. Veccham,  O. Vydrov,  
 J. Wenzel,  J. Witte,  A. Yamada,  Kun Yao,  S. Yeganeh,  S. R. Yost,  
 A. Zech,  Igor Ying Zhang,  Xing Zhang,  Yu Zhang,  D. Zuev,  
 A. Aspuru-Guzik,  A. T. Bell,  N. A. Besley,  K. B. Bravaya,  B. R. Brooks,  
 D. Casanova,  Jeng-Da Chai,  S. Coriani,  C. J. Cramer,  
 A. E. DePrince, III,  R. A. DiStasio Jr.,  A. Dreuw,  B. D. Dunietz,  
 T. R. Furlani,  W. A. Goddard III,  S. Grimme,  S. Hammes-Schiffer,  
 T. Head-Gordon,  W. J. Hehre,  Chao-Ping Hsu,  T.-C. Jagau,  Yousung Jung,  
 A. Klamt,  Jing Kong,  D. S. Lambrecht,  WanZhen Liang,  N. J. Mayhall,  
 C. W. McCurdy,  J. B. Neaton,  C. Ochsenfeld,  J. A. Parkhill,  R. Peverati,  
 V. A. Rassolov,  Yihan Shao,  L. V. Slipchenko,  T. Stauch,  R. P. Steele,  
 J. E. Subotnik,  A. J. W. Thom,  A. Tkatchenko,  D. G. Truhlar,  
 T. Van Voorhis,  T. A. Wesolowski,  K. B. Whaley,  H. L. Woodcock III,  
 P. M. Zimmerman,  S. Faraji,  P. M. W. Gill,  M. Head-Gordon,  
 J. M. Herbert,  A. I. Krylov

 Contributors to earlier versions of Q-Chem not listed above: 
 R. D. Adamson,  B. Austin,  R. Baer,  J. Baker,  G. J. O. Beran,  
 K. Brandhorst,  S. T. Brown,  E. F. C. Byrd,  A. K. Chakraborty,  
 G. K. L. Chan,  Chun-Min Chang,  Yunqing Chen,  C.-L. Cheng,  
 Siu Hung Chien,  D. M. Chipman,  D. L. Crittenden,  H. Dachsel,  
 R. J. Doerksen,  A. D. Dutoi,  R. G. Edgar,  J. Fosso-Tande,  
 L. Fusti-Molnar,  D. Ghosh,  A. Ghysels,  A. Golubeva-Zadorozhnaya,  
 J. Gonthier,  M. S. Gordon,  S. R. Gwaltney,  G. Hawkins,  J. E. Herr,  
 A. Heyden,  S. Hirata,  E. G. Hohenstein,  G. Kedziora,  F. J. Keil,  
 C. Kelley,  Jihan Kim,  R. A. King,  R. Z. Khaliullin,  P. P. Korambath,  
 W. Kurlancheek,  A. Laurent,  A. M. Lee,  M. S. Lee,  S. V. Levchenko,  
 Ching Yeh Lin,  D. Liotard,  E. Livshits,  R. C. Lochan,  I. Lotan,  
 L. A. Martinez-Martinez,  P. E. Maslen,  N. Nair,  D. P. O'Neill,  
 D. Neuhauser,  E. Neuscamman,  C. M. Oana,  R. Olivares-Amaya,  R. Olson,  
 T. M. Perrine,  B. Peters,  P. A. Pieniazek,  A. Prociuk,  Y. M. Rhee,  
 J. Ritchie,  M. A. Rohrdanz,  E. Rosta,  N. J. Russ,  H. F. Schaefer III,  
 M. W. Schmidt,  N. E. Schultz,  S. Sharma,  N. Shenvi,  C. D. Sherrill,  
 A. C. Simmonett,  A. Sodt,  T. Stein,  D. Stuck,  K. S. Thanthiriwatte,  
 V. Vanovschi,  L. Vogt,  Tao Wang,  A. Warshel,  M. A. Watson,  
 C. F. Williams,  Q. Wu,  X. Xu,  Jun Yang,  W. Zhang,  Yan Zhao

 Please cite Q-Chem as follows:
 Y. Shao et al., Mol. Phys. 113, 184-215 (2015)
 DOI: 10.1080/00268976.2014.952696

 Q-Chem 5.4.0 for Intel X86 EM64T Linux

 Parts of Q-Chem use Armadillo 9.800.1 (Horizon Scraper).
 http://arma.sourceforge.net/

 Q-Chem begins on Fri Dec 15 15:38:06 2023  

 Host: 
0

     Scratch files written to ./qchem2795918//
 May1621 |scratch|qcdevops|jenkins|workspace|build_RNUM    
 Parallel job on  1  processors
 Processing $rem in /cm/shared/apps/spack/cpu/opt/spack/linux-centos8-zen2/gcc-10.2.0/qchem-5.4-akfmr7b3t57bfs6qan3padb2wnb2i7cl/config/preferences:
 Processing $rem in /home/rramji/.qchemrc:
 Symmetry turned off for PCM/SM12/SMD calculation
 Core orbitals will be frozen

 Checking the input file for inconsistencies... 	...done.

 Q-Chem warning in module forms1/BasisType.C, line 2236:

 You are not using the predefined 5D/6D in this basis set.


--------------------------------------------------------------
User input:
--------------------------------------------------------------
$molecule
0 1
C	-0.223244	-6.741404	-0.127184
C	-1.354118	-6.155638	-0.779949
C	0.715408	-5.791452	0.415271
C	-1.595259	-4.803786	-0.919437
H	-2.114613	-6.821518	-1.218801
C	0.463133	-4.378638	0.268806
C	-0.688925	-3.838032	-0.396744
C	1.368449	-3.413062	0.790835
C	-0.939189	-2.426473	-0.542026
C	1.130363	-2.059348	0.652669
C	-0.000000	-1.478216	-0.000000
H	1.891815	-1.394783	1.091814
C	1.963749	-6.187987	1.138124
C	2.607351	-3.798164	1.506241
N	2.817348	-5.170003	1.629443
C	-2.837621	-4.424987	-1.636646
C	-2.188982	-2.036627	-1.264474
N	-3.042637	-3.049156	-1.756205
O	2.301222	-7.353131	1.336258
O	3.407386	-2.986854	1.967056
O	-3.628041	-5.248946	-2.092167
O	-2.545844	-0.878829	-1.472160
C	4.040164	-5.563799	2.336642
H	4.078749	-6.664085	2.360245
H	4.027880	-5.147101	3.361968
H	4.922811	-5.148785	1.813424
C	-4.247167	-2.587487	-2.452149
H	-4.804209	-3.483329	-2.772531
H	-3.965991	-1.964972	-3.322697
H	-4.859678	-1.962932	-1.774507
H	-0.062364	-7.822318	-0.033931
C	0.000000	0.000000	0.000000
S	0.396411	0.687007	1.580530
C	1.215245	2.105322	0.904911
C	0.498850	0.864369	-0.985400
C	1.158885	2.007781	-0.493528
H	0.381046	0.660280	-2.059934
H	1.599289	2.770727	-1.152593
H	1.655514	2.868056	1.556025
$end

$rem
JOBTYPE		SP
EXCHANGE	HF
CORRELATION	pRIMP2
BASIS		cc-pvtz
METHOD		rimp2
AUX_BASIS	rimp2-cc-pvtz
SOLVENT_METHOD	PCM
PURECART	11111
SYMMETRY	false
MEM_TOTAL	110000
SCF_CONVERGENCE = 6
THRESH=10
GUI = 2
$end



$solvent
dielectric 4.90
$end
--------------------------------------------------------------
 ----------------------------------------------------------------
             Standard Nuclear Orientation (Angstroms)
    I     Atom           X                Y                Z
 ----------------------------------------------------------------
    1      C      -0.2232440000    -6.7414040000    -0.1271840000
    2      C      -1.3541180000    -6.1556380000    -0.7799490000
    3      C       0.7154080000    -5.7914520000     0.4152710000
    4      C      -1.5952590000    -4.8037860000    -0.9194370000
    5      H      -2.1146130000    -6.8215180000    -1.2188010000
    6      C       0.4631330000    -4.3786380000     0.2688060000
    7      C      -0.6889250000    -3.8380320000    -0.3967440000
    8      C       1.3684490000    -3.4130620000     0.7908350000
    9      C      -0.9391890000    -2.4264730000    -0.5420260000
   10      C       1.1303630000    -2.0593480000     0.6526690000
   11      C       0.0000000000    -1.4782160000     0.0000000000
   12      H       1.8918150000    -1.3947830000     1.0918140000
   13      C       1.9637490000    -6.1879870000     1.1381240000
   14      C       2.6073510000    -3.7981640000     1.5062410000
   15      N       2.8173480000    -5.1700030000     1.6294430000
   16      C      -2.8376210000    -4.4249870000    -1.6366460000
   17      C      -2.1889820000    -2.0366270000    -1.2644740000
   18      N      -3.0426370000    -3.0491560000    -1.7562050000
   19      O       2.3012220000    -7.3531310000     1.3362580000
   20      O       3.4073860000    -2.9868540000     1.9670560000
   21      O      -3.6280410000    -5.2489460000    -2.0921670000
   22      O      -2.5458440000    -0.8788290000    -1.4721600000
   23      C       4.0401640000    -5.5637990000     2.3366420000
   24      H       4.0787490000    -6.6640850000     2.3602450000
   25      H       4.0278800000    -5.1471010000     3.3619680000
   26      H       4.9228110000    -5.1487850000     1.8134240000
   27      C      -4.2471670000    -2.5874870000    -2.4521490000
   28      H      -4.8042090000    -3.4833290000    -2.7725310000
   29      H      -3.9659910000    -1.9649720000    -3.3226970000
   30      H      -4.8596780000    -1.9629320000    -1.7745070000
   31      H      -0.0623640000    -7.8223180000    -0.0339310000
   32      C       0.0000000000     0.0000000000     0.0000000000
   33      S       0.3964110000     0.6870070000     1.5805300000
   34      C       1.2152450000     2.1053220000     0.9049110000
   35      C       0.4988500000     0.8643690000    -0.9854000000
   36      C       1.1588850000     2.0077810000    -0.4935280000
   37      H       0.3810460000     0.6602800000    -2.0599340000
   38      H       1.5992890000     2.7707270000    -1.1525930000
   39      H       1.6555140000     2.8680560000     1.5560250000
 ----------------------------------------------------------------
 Nuclear Repulsion Energy =        2497.51298805 hartrees
 There are       97 alpha and       97 beta electrons
 Requested basis set is cc-pVTZ
 There are 344 shells and 982 basis functions

 Total QAlloc Memory Limit 110000 MB
 Mega-Array Size       188 MB
 MEM_STATIC part       192 MB
 Discretize the solute cavity surface with Lebedev spheres
	Using 110 Lebedev grid points for each H atom
	Using 194 Lebedev grid points for other atoms
	Atomic van der Waals radii will be scaled by 1.20
 Remove points where switching function is < 1.0e-08
 Keep 2540 surface tesserae and discard 4018 interior tesserae
 Molecular Surface Area = 369.566 Angst**2
 Requested basis set is rimp2-cc-pVTZ
 There are 750 shells and 2588 basis functions
 A cutoff of  1.0D-10 yielded  31598 shell pairs
 There are    243284 function pairs (    316176 Cartesian)
 Smallest overlap matrix eigenvalue = 9.20E-06

 Q-Chem warning in module stvman/mkSTV.C, line 323:

 Overlap eigenvalue is smaller than square root of threshold
 Use THRESH >= 12 to get rid of this warning


 Scale SEOQF with 1.000000e-01/1.000000e-02/1.000000e-01

 Standard Electronic Orientation quadrupole field applied
 Nucleus-field energy     =     0.0000000168 hartrees
 Guess from superposition of atomic densities
 Warning:  Energy on first SCF cycle will be non-variational
 SAD guess density has 194.000000 electrons

 -----------------------------------------------------------------------
  General SCF calculation program by
  Eric Jon Sundstrom, Paul Horn, Yuezhi Mao, Dmitri Zuev, Alec White,
  David Stuck, Shaama M.S., Shane Yost, Joonho Lee, David Small,
  Daniel Levine, Susi Lehtola, Hugh Burton, Evgeny Epifanovsky,
  Bang C. Huynh
 -----------------------------------------------------------------------
 Hartree-Fock
 using 64 threads for integral computing
 -------------------------------------------------------
 OpenMP Integral computing Module                
 Release: version 1.0, May 2013, Q-Chem Inc. Pittsburgh 
 -------------------------------------------------------
 A restricted SCF calculation will be
 performed using DIIS
 SCF converges when DIIS error is below 1.0e-06
 ---------------------------------------
  Cycle       Energy         DIIS error
 ---------------------------------------
    1   -1581.3188758118      1.87e-02  
    2   -1570.1068126648      2.09e-03  
    3   -1570.4338877678      1.62e-03  
    4   -1570.6631253247      2.57e-04  
    5   -1570.6751952379      7.58e-05  
    6   -1570.6762545903      2.81e-05  
    7   -1570.6764944203      1.43e-05  
    8   -1570.6765703133      5.99e-06  
    9   -1570.6765822571      2.28e-06  
   10   -1570.6765842484      7.37e-07  Convergence criterion met
 ---------------------------------------
 SCF time:   CPU 5727.87s  wall 211.00s 

************** Final PCM Free Energy Summary **************
 G_electrostatic  =      -0.02470846 hartree =     -15.50479125 kcal/mol
 G_cavitation     =       0.00000000 hartree =       0.00000000 kcal/mol
 G_dispersion     =       0.00000000 hartree =       0.00000000 kcal/mol
 G_repulsion      =       0.00000000 hartree =       0.00000000 kcal/mol
 --------------------------------------------------
 Non-electrostatic Free Energy =       0.00000000 hartree =       0.00000000 kcal/mol
 Total                         =      -0.02470846 hartree =     -15.50479125 kcal/mol
 --------------------------------------------------
 SCF Energy (H0 + V/2)                       =   -1570.67658425 
 Solute Internal Energy (H0)                 =   -1570.65187579 
 Total Free Energy (H0 + V/2 + non-elec)     =   -1570.67658425 hartree
                                             = -985614.43249382 kcal/mol
***********************************************************

 SCF   energy in the final basis set =    -1570.6765842484
 Total energy in the final basis set =    -1570.6765842484


 --------------------------------------------------------------
  Generalized many-body perturbation theory program
  by Joonho Lee, Fazle Rob, Xintian Feng, Evgeny Epifanovsky

 No regularization used 
 (reg. param. = 0.0000e+00)
  (P|Q)^-1/2 Time:  CPU 103.08 s  wall 2.13 s

 In RI-MP2 calculation: 
 # of frozen core orbitals: 31

 Components of the RIMP2 correlation energy:
        aaaa    correlation energy =        -0.6169722978 a.u.
        abab    correlation energy =        -3.3940188536 a.u.
        bbbb    correlation energy =        -0.6169722978 a.u.
        non-Brillouin singles      =        -0.0000000000 a.u.
        total same-spin energy     =        -1.2339445957 a.u.
        total opposite-spin energy =        -3.3940188536 a.u.

 Total  RIMP2   correlation energy =        -4.6279634493 a.u.
        RIMP2         total energy =     -1575.3045476978 a.u.

 RI-MP2 Energy Time:  CPU 1848.69 s  wall 30.44 s
 
 --------------------------------------------------------------
 
                    Orbital Energies (a.u.)
 --------------------------------------------------------------
 
 Alpha MOs
 -- Occupied --
-91.9921 -20.5583 -20.5562 -20.5558 -20.5547 -15.6310 -15.6305 -11.3999
-11.3962 -11.3922 -11.3902 -11.3167 -11.3027 -11.3022 -11.2996 -11.2973
-11.2970 -11.2901 -11.2882 -11.2853 -11.2853 -11.2797 -11.2768 -11.2644
-11.2644 -11.2620 -11.2522  -8.9919  -6.6727  -6.6721  -6.6716  -1.4246
 -1.4237  -1.4039  -1.4027  -1.2672  -1.2649  -1.2174  -1.1796  -1.1434
 -1.1168  -1.0632  -1.0493  -0.9926  -0.9910  -0.9870  -0.9588  -0.9473
 -0.8971  -0.8788  -0.8773  -0.8597  -0.7958  -0.7779  -0.7729  -0.7613
 -0.7373  -0.7176  -0.7061  -0.6949  -0.6808  -0.6734  -0.6661  -0.6620
 -0.6565  -0.6419  -0.6373  -0.6333  -0.6294  -0.6126  -0.5857  -0.5841
 -0.5788  -0.5745  -0.5672  -0.5638  -0.5611  -0.5551  -0.5527  -0.5480
 -0.5403  -0.5269  -0.5204  -0.5079  -0.4833  -0.4708  -0.4673  -0.4630
 -0.4599  -0.4531  -0.4279  -0.4181  -0.4084  -0.3664  -0.3493  -0.3350
 -0.3146
 -- Virtual --
 -0.0187   0.0621   0.0717   0.0909   0.1152   0.1539   0.1578   0.1587
  0.1657   0.1691   0.1760   0.1834   0.1862   0.1913   0.2061   0.2090
  0.2102   0.2237   0.2281   0.2298   0.2313   0.2383   0.2568   0.2615
  0.2641   0.2981   0.3093   0.3125   0.3163   0.3200   0.3288   0.3329
  0.3408   0.3441   0.3495   0.3568   0.3596   0.3610   0.3630   0.3741
  0.3757   0.3817   0.3910   0.3957   0.3958   0.4037   0.4046   0.4098
  0.4168   0.4254   0.4327   0.4378   0.4424   0.4439   0.4478   0.4545
  0.4562   0.4617   0.4654   0.4688   0.4758   0.4840   0.4865   0.4933
  0.4969   0.5011   0.5049   0.5113   0.5193   0.5221   0.5276   0.5300
  0.5350   0.5411   0.5457   0.5498   0.5524   0.5553   0.5630   0.5674
  0.5714   0.5745   0.5777   0.5827   0.5874   0.5946   0.5978   0.5999
  0.6041   0.6049   0.6081   0.6140   0.6218   0.6237   0.6256   0.6304
  0.6326   0.6337   0.6365   0.6382   0.6428   0.6505   0.6552   0.6622
  0.6678   0.6770   0.6923   0.6935   0.6972   0.7041   0.7120   0.7165
  0.7246   0.7259   0.7330   0.7372   0.7429   0.7544   0.7596   0.7669
  0.7689   0.7721   0.7829   0.7894   0.7925   0.7994   0.8046   0.8121
  0.8183   0.8248   0.8294   0.8376   0.8435   0.8461   0.8516   0.8536
  0.8631   0.8639   0.8695   0.8742   0.8807   0.8896   0.8963   0.9056
  0.9087   0.9112   0.9175   0.9237   0.9312   0.9328   0.9368   0.9421
  0.9508   0.9540   0.9589   0.9647   0.9696   0.9762   0.9791   0.9849
  0.9885   0.9972   1.0009   1.0037   1.0126   1.0148   1.0243   1.0247
  1.0334   1.0409   1.0441   1.0549   1.0579   1.0622   1.0670   1.0727
  1.0769   1.0795   1.0818   1.0846   1.0903   1.0962   1.1034   1.1078
  1.1255   1.1303   1.1344   1.1378   1.1454   1.1478   1.1515   1.1597
  1.1616   1.1671   1.1740   1.1761   1.1778   1.1840   1.1929   1.1957
  1.2006   1.2035   1.2096   1.2134   1.2253   1.2268   1.2336   1.2398
  1.2426   1.2507   1.2521   1.2583   1.2651   1.2751   1.2808   1.2955
  1.3120   1.3269   1.3308   1.3349   1.3417   1.3445   1.3480   1.3602
  1.3730   1.3769   1.3793   1.3843   1.3849   1.3937   1.4035   1.4129
  1.4239   1.4280   1.4378   1.4446   1.4464   1.4510   1.4570   1.4683
  1.4784   1.4842   1.4856   1.4923   1.4999   1.5131   1.5217   1.5240
  1.5288   1.5306   1.5363   1.5401   1.5482   1.5534   1.5560   1.5629
  1.5655   1.5715   1.5826   1.5888   1.5982   1.5991   1.6147   1.6351
  1.6365   1.6387   1.6517   1.6599   1.6615   1.6720   1.6826   1.6909
  1.6928   1.6982   1.7045   1.7184   1.7244   1.7349   1.7404   1.7436
  1.7500   1.7599   1.7678   1.7709   1.7785   1.7911   1.8056   1.8114
  1.8158   1.8263   1.8369   1.8442   1.8535   1.8549   1.8592   1.8625
  1.8687   1.8779   1.8953   1.9107   1.9125   1.9227   1.9334   1.9460
  1.9587   1.9639   1.9729   1.9769   1.9890   2.0086   2.0147   2.0365
  2.0415   2.0466   2.0561   2.0637   2.0911   2.1083   2.1244   2.1325
  2.1382   2.1432   2.1591   2.1831   2.1966   2.1996   2.2125   2.2231
  2.2267   2.2367   2.2539   2.2597   2.2751   2.2871   2.2944   2.3052
  2.3165   2.3221   2.3255   2.3404   2.3479   2.3581   2.3621   2.3716
  2.3898   2.4194   2.4334   2.4344   2.4487   2.4501   2.4569   2.4608
  2.4634   2.4786   2.4863   2.4990   2.5005   2.5138   2.5198   2.5341
  2.5510   2.5638   2.5803   2.5853   2.5883   2.5957   2.6007   2.6075
  2.6121   2.6145   2.6256   2.6432   2.6497   2.6651   2.6663   2.6745
  2.6772   2.6893   2.6961   2.6973   2.7091   2.7144   2.7150   2.7289
  2.7364   2.7383   2.7497   2.7550   2.7576   2.7680   2.7862   2.7914
  2.8045   2.8183   2.8311   2.8329   2.8362   2.8422   2.8514   2.8617
  2.8657   2.8677   2.8752   2.8836   2.8859   2.8915   2.8984   2.9076
  2.9153   2.9168   2.9274   2.9408   2.9481   2.9537   2.9555   2.9654
  2.9726   2.9766   2.9878   2.9956   3.0004   3.0026   3.0047   3.0109
  3.0212   3.0283   3.0388   3.0411   3.0545   3.0593   3.0638   3.0800
  3.0830   3.0891   3.0944   3.1006   3.1086   3.1117   3.1183   3.1209
  3.1276   3.1305   3.1442   3.1512   3.1623   3.1670   3.1741   3.1814
  3.1818   3.1981   3.2015   3.2035   3.2113   3.2157   3.2181   3.2260
  3.2284   3.2313   3.2370   3.2441   3.2471   3.2521   3.2581   3.2629
  3.2687   3.2730   3.2756   3.2811   3.2867   3.2894   3.2970   3.3012
  3.3039   3.3163   3.3209   3.3243   3.3277   3.3314   3.3386   3.3407
  3.3429   3.3438   3.3464   3.3517   3.3591   3.3635   3.3650   3.3709
  3.3787   3.3838   3.3869   3.3937   3.3959   3.4018   3.4117   3.4180
  3.4202   3.4243   3.4320   3.4392   3.4422   3.4450   3.4530   3.4546
  3.4583   3.4625   3.4660   3.4692   3.4758   3.4807   3.4853   3.4885
  3.4961   3.5008   3.5038   3.5063   3.5149   3.5184   3.5192   3.5239
  3.5323   3.5385   3.5420   3.5515   3.5614   3.5679   3.5805   3.5808
  3.5852   3.5925   3.5933   3.6069   3.6135   3.6220   3.6262   3.6300
  3.6319   3.6374   3.6406   3.6460   3.6508   3.6676   3.6708   3.6785
  3.6814   3.6873   3.6927   3.6973   3.7081   3.7136   3.7149   3.7225
  3.7317   3.7329   3.7356   3.7410   3.7483   3.7577   3.7636   3.7721
  3.7793   3.7801   3.7833   3.7909   3.7949   3.7955   3.8008   3.8040
  3.8084   3.8151   3.8284   3.8380   3.8435   3.8508   3.8557   3.8583
  3.8637   3.8714   3.8772   3.8861   3.8885   3.8995   3.9081   3.9180
  3.9260   3.9339   3.9363   3.9446   3.9480   3.9508   3.9597   3.9667
  3.9847   3.9880   3.9975   4.0049   4.0116   4.0167   4.0292   4.0443
  4.0532   4.0583   4.0656   4.0750   4.0821   4.0896   4.1000   4.1058
  4.1179   4.1248   4.1366   4.1434   4.1485   4.1534   4.1654   4.1757
  4.1778   4.1839   4.1866   4.1995   4.2040   4.2151   4.2294   4.2373
  4.2482   4.2617   4.2621   4.2718   4.2738   4.2779   4.2863   4.2895
  4.2923   4.2965   4.2997   4.3090   4.3173   4.3235   4.3262   4.3357
  4.3424   4.3501   4.3529   4.3645   4.3668   4.3689   4.3782   4.3784
  4.3836   4.3941   4.4007   4.4081   4.4096   4.4192   4.4302   4.4330
  4.4506   4.4581   4.4689   4.4763   4.4955   4.5011   4.5138   4.5171
  4.5227   4.5302   4.5360   4.5414   4.5471   4.5513   4.5589   4.5693
  4.5746   4.5824   4.5864   4.5886   4.6030   4.6120   4.6319   4.6354
  4.6434   4.6523   4.6595   4.6621   4.6706   4.6792   4.6867   4.6946
  4.7111   4.7283   4.7389   4.7446   4.7494   4.7600   4.7808   4.7832
  4.7975   4.8284   4.8343   4.8386   4.8486   4.8579   4.8661   4.8767
  4.8800   4.8934   4.9063   4.9082   4.9365   4.9483   4.9708   4.9832
  4.9878   5.0090   5.0268   5.0337   5.0402   5.0505   5.0544   5.0616
  5.0952   5.0993   5.1062   5.1150   5.1251   5.1316   5.1417   5.1471
  5.1617   5.1703   5.1778   5.1885   5.2074   5.2111   5.2347   5.2563
  5.2602   5.2768   5.2870   5.2900   5.3196   5.3265   5.3317   5.3387
  5.3474   5.3953   5.4001   5.4065   5.4145   5.4315   5.4400   5.4541
  5.4856   5.5020   5.5077   5.5089   5.5128   5.5312   5.5442   5.5485
  5.5552   5.5603   5.5635   5.5738   5.5777   5.5884   5.6026   5.6043
  5.6209   5.6338   5.6525   5.6543   5.6590   5.6742   5.6770   5.6877
  5.7002   5.7085   5.7291   5.7396   5.7507   5.7542   5.7591   5.7692
  5.7706   5.7753   5.8118   5.8215   5.8410   5.8708   5.9047   5.9099
  5.9416   5.9560   5.9789   5.9934   6.0197   6.0220   6.0291   6.0372
  6.0824   6.0902   6.1007   6.1149   6.1168   6.1532   6.1870   6.2061
  6.2174   6.2186   6.2207   6.2516   6.2636   6.2693   6.2986   6.3396
  6.3503   6.3860   6.4009   6.4436   6.4632   6.5242   6.5621   6.5689
  6.5872   6.5947   6.6048   6.6458   6.6475   6.6595   6.7046   6.8286
  6.8307   6.8789   6.8863   6.8937   6.9116   6.9230   6.9246   7.0774
  7.0980   7.1397   7.1826   7.1871   7.2267   7.3325   7.3405   7.3444
  7.3506   7.4659   7.5425   7.5565   7.5724   7.5733   7.5852   7.6335
  7.6661   7.6801   7.7205   8.3130   9.8495  10.2859  11.0879  11.1878
 11.6777  11.7458  12.0129  12.3576  12.4526  12.7037  12.8328  12.9092
 13.2885  13.5534  13.8066  13.9276  14.0003  14.0937  14.1912  14.3448
 14.4097  14.7333  15.3041  15.7313  15.9995
 --------------------------------------------------------------
 
          Ground-State Mulliken Net Atomic Charges

     Atom                 Charge (a.u.)
  ----------------------------------------
      1 C                    -0.134646
      2 C                    -0.109631
      3 C                    -0.040256
      4 C                    -0.000083
      5 H                     0.188527
      6 C                     0.002418
      7 C                     0.072505
      8 C                    -0.001528
      9 C                    -0.028749
     10 C                    -0.110395
     11 C                     0.028836
     12 H                     0.190132
     13 C                     0.360051
     14 C                     0.363418
     15 N                    -0.101407
     16 C                     0.358872
     17 C                     0.354858
     18 N                    -0.097137
     19 O                    -0.465183
     20 O                    -0.476756
     21 O                    -0.480627
     22 O                    -0.463035
     23 C                    -0.201258
     24 H                     0.141024
     25 H                     0.112443
     26 H                     0.112268
     27 C                    -0.196394
     28 H                     0.133669
     29 H                     0.112445
     30 H                     0.113460
     31 H                     0.213750
     32 C                    -0.011219
     33 S                     0.018281
     34 C                    -0.190652
     35 C                    -0.154125
     36 C                    -0.209720
     37 H                     0.190177
     38 H                     0.192949
     39 H                     0.212716
  ----------------------------------------
  Sum of atomic charges =     0.000000

 -----------------------------------------------------------------
                    Cartesian Multipole Moments
 -----------------------------------------------------------------
    Charge (ESU x 10^10)
                 0.0000
    Dipole Moment (Debye)
         X       1.3228      Y       1.2427      Z      -0.8868
       Tot       2.0200
    Quadrupole Moments (Debye-Ang)
        XX    -176.7400     XY       5.7922     YY    -168.7021
        XZ      -8.5844     YZ       1.1131     ZZ    -162.4240
    Octopole Moments (Debye-Ang^2)
       XXX     -22.2226    XXY     542.1979    XYY       0.9211
       YYY    1602.5773    XXZ      -4.1537    XYZ      39.5432
       YYZ      -6.7335    XZZ      -1.4975    YZZ     504.1366
       ZZZ     -29.1587
    Hexadecapole Moments (Debye-Ang^3)
      XXXX   -4770.1861   XXXY     -36.4241   XXYY   -3828.9079
      XYYY     615.9428   YYYY  -17110.2146   XXXZ   -1357.4546
      XXYZ     -84.9197   XYYZ    -673.4300   YYYZ     373.9897
      XXZZ   -1134.6486   XYZZ       2.9874   YYZZ   -3075.6610
      XZZZ   -1287.5410   YZZZ      97.4725   ZZZZ   -1901.6362
 -----------------------------------------------------------------
 Total job time:  244.86s(wall), 7672.95s(cpu) 
 Fri Dec 15 15:42:11 2023

        *************************************************************
        *                                                           *
        *  Thank you very much for using Q-Chem.  Have a nice day.  *
        *                                                           *
        *************************************************************


0 sent ACK to 0 
now end server 0 ... 
cleanup process ... done
remove work dirs ./qchem2795918.0 -- ./qchem2795918.0
rm -rf ./qchem2795918.0
rm -rf ./qchem2795918
