You are running Q-Chem version: 5.4.0

#
# job setting
#
local host:  exp-1-10
current dir: /home/rramji/project-csd799/aromodel/pndit-qchem/rotation_run
input file:  Dimethyl_Naphthalene_Dicarboximide_Phi_0_Theta_60_Thiophene.qcin
output file: 
nprocs     : 1
nthreads   : 64
#
# qchem installation setting
#
QC:          /cm/shared/apps/spack/cpu/opt/spack/linux-centos8-zen2/gcc-10.2.0/qchem-5.4-akfmr7b3t57bfs6qan3padb2wnb2i7cl
QCAUX:       /cm/shared/apps/spack/cpu/opt/spack/linux-centos8-zen2/gcc-10.2.0/qchem-5.4-akfmr7b3t57bfs6qan3padb2wnb2i7cl/qcaux
QCPROG:      /cm/shared/apps/spack/cpu/opt/spack/linux-centos8-zen2/gcc-10.2.0/qchem-5.4-akfmr7b3t57bfs6qan3padb2wnb2i7cl/exe/qcprog.exe
QCPROG_S:    /cm/shared/apps/spack/cpu/opt/spack/linux-centos8-zen2/gcc-10.2.0/qchem-5.4-akfmr7b3t57bfs6qan3padb2wnb2i7cl/exe/qcprog.exe_s
PARALLEL:    -DPARALLEL
QCMPI:       mpich
#
# qchem directory setting
#
qcrun:       qchem3962563
QCSCRATCH:   .
QCLOCALSCR:  
QCTMPDIR:    .
QCFILEPREF:  ./qchem3962563
QCSAVEDIR:   
workdirs:    ./qchem3962563
workdir0:    ./qchem3962563
partmpdirs =  
#
# parallel setting
#
QCRSH:           ssh
QCMPI:           mpich
QCMPIRUN:        /cm/shared/apps/spack/cpu/opt/spack/linux-centos8-zen2/gcc-10.2.0/qchem-5.4-akfmr7b3t57bfs6qan3padb2wnb2i7cl/bin/mpi/mpirun_qchem
QCMACHINEFILE:   ./qchem3962563/hostfile
exp-1-10

#
# env setting
#
exported envs:   QC QCAUX QCSCRATCH QCRUNNAME QCFILEPREF QCPROG QCPROG_S GUIFILE

Running Job 1 of 1 Dimethyl_Naphthalene_Dicarboximide_Phi_0_Theta_60_Thiophene.qcin
qchem Dimethyl_Naphthalene_Dicarboximide_Phi_0_Theta_60_Thiophene.qcin_3962563.0 ./qchem3962563/ 1
/cm/shared/apps/spack/cpu/opt/spack/linux-centos8-zen2/gcc-10.2.0/qchem-5.4-akfmr7b3t57bfs6qan3padb2wnb2i7cl/bin/mpi/mpirun_qchem -machinefile ./qchem3962563/hostfile -np 1 /cm/shared/apps/spack/cpu/opt/spack/linux-centos8-zen2/gcc-10.2.0/qchem-5.4-akfmr7b3t57bfs6qan3padb2wnb2i7cl/exe/qcprog.exe Dimethyl_Naphthalene_Dicarboximide_Phi_0_Theta_60_Thiophene.qcin_3962563.0 ./qchem3962563/

Process 0 of 1 is on exp-1-10 - thread support 0
initial socket setup ...start
initial socket setup ...done 
now start server 0 ... 
                  Welcome to Q-Chem
     A Quantum Leap Into The Future Of Chemistry


 Q-Chem 5.4, Q-Chem, Inc., Pleasanton, CA (2021)

 License issued to: University of California, San Diego (site)

 E. Epifanovsky,  A. T. B. Gilbert,  Xintian Feng,  Joonho Lee,  Yuezhi Mao,  
 N. Mardirossian,  P. Pokhilko,  A. White,  M. Wormit,  M. P. Coons,  
 A. L. Dempwolff,  Zhengting Gan,  D. Hait,  P. R. Horn,  L. D. Jacobson,  
 I. Kaliman,  J. Kussmann,  A. W. Lange,  Ka Un Lao,  D. S. Levine,  Jie Liu,  
 S. C. McKenzie,  A. F. Morrison,  K. Nanda,  F. Plasser,  D. R. Rehn,  
 M. L. Vidal,  Zhi-Qiang You,  Ying Zhu,  B. Alam,  B. Albrecht,  
 A. Aldossary,  E. Alguire,  J. H. Andersen,  D. Barton,  K. Begam,  A. Behn,  
 Y. A. Bernard,  E. J. Berquist,  H. Burton,  A. Carreras,  K. Carter-Fenk,  
 R. Chakraborty,  A. D. Chien,  K. D. Closser,  V. Cofer-Shabica,  
 S. Dasgupta,  Jia Deng,  M. de Wergifosse,  M. Diedenhofen,  Hainam Do,  
 S. Ehlert,  Po-Tung Fang,  S. Fatehi,  Qingguo Feng,  J. Gayvert,  
 Qinghui Ge,  G. Gidofalvi,  M. Goldey,  J. Gomes,  C. Gonzalez-Espinoza,  
 S. Gulania,  A. Gunina,  M. W. D. Hanson-Heine,  P. H. P. Harbach,  
 A. W. Hauser,  M. F. Herbst,  M. Hernandez Vera,  M. Hodecker,  
 Z. C. Holden,  S. Houck,  Xunkun Huang,  Kerwin Hui,  B. C. Huynh,  
 M. Ivanov,  Hyunjun Ji,  Hanjie Jiang,  B. Kaduk,  S. Kaehler,  
 K. Khistyaev,  Jaehoon Kim,  P. Klunzinger,  Z. Koczor-Benda,  
 Joong Hoon Koh,  D. Kosenkov,  L. Koulias,  T. Kowalczyk,  C. M. Krauter,  
 K. Kue,  A. Kunitsa,  T. Kus,  A. Landau,  K. V. Lawler,  D. Lefrancois,  
 S. Lehtola,  Rain Li,  Yi-Pei Li,  Jiashu Liang,  M. Liebenthal,  
 Hung-Hsuan Lin,  You-Sheng Lin,  Fenglai Liu,  Kuan-Yu Liu,  
 M. Loipersberger,  A. Luenser,  A. Manjanath,  P. Manohar,  E. Mansoor,  
 S. F. Manzer,  Shan-Ping Mao,  A. V. Marenich,  T. Markovich,  S. Mason,  
 S. A. Maurer,  P. F. McLaughlin,  M. F. S. J. Menger,  J.-M. Mewes,  
 S. A. Mewes,  P. Morgante,  J. W. Mullinax,  T. S. Nguyen-Beck,  
 K. J. Oosterbaan,  G. Paran,  Alexander C. Paul,  Suranjan K. Paul,  
 F. Pavosevic,  Zheng Pei,  S. Prager,  E. I. Proynov,  E. Ramos,  B. Rana,  
 A. E. Rask,  A. Rettig,  R. M. Richard,  F. Rob,  E. Rossomme,  T. Scheele,  
 M. Scheurer,  M. Schneider,  N. Sergueev,  S. M. Sharada,  W. Skomorowski,  
 D. W. Small,  C. J. Stein,  Yu-Chuan Su,  E. J. Sundstrom,  Zhen Tao,  
 J. Thirman,  T. Tsuchimochi,  N. M. Tubman,  S. P. Veccham,  O. Vydrov,  
 J. Wenzel,  J. Witte,  A. Yamada,  Kun Yao,  S. Yeganeh,  S. R. Yost,  
 A. Zech,  Igor Ying Zhang,  Xing Zhang,  Yu Zhang,  D. Zuev,  
 A. Aspuru-Guzik,  A. T. Bell,  N. A. Besley,  K. B. Bravaya,  B. R. Brooks,  
 D. Casanova,  Jeng-Da Chai,  S. Coriani,  C. J. Cramer,  
 A. E. DePrince, III,  R. A. DiStasio Jr.,  A. Dreuw,  B. D. Dunietz,  
 T. R. Furlani,  W. A. Goddard III,  S. Grimme,  S. Hammes-Schiffer,  
 T. Head-Gordon,  W. J. Hehre,  Chao-Ping Hsu,  T.-C. Jagau,  Yousung Jung,  
 A. Klamt,  Jing Kong,  D. S. Lambrecht,  WanZhen Liang,  N. J. Mayhall,  
 C. W. McCurdy,  J. B. Neaton,  C. Ochsenfeld,  J. A. Parkhill,  R. Peverati,  
 V. A. Rassolov,  Yihan Shao,  L. V. Slipchenko,  T. Stauch,  R. P. Steele,  
 J. E. Subotnik,  A. J. W. Thom,  A. Tkatchenko,  D. G. Truhlar,  
 T. Van Voorhis,  T. A. Wesolowski,  K. B. Whaley,  H. L. Woodcock III,  
 P. M. Zimmerman,  S. Faraji,  P. M. W. Gill,  M. Head-Gordon,  
 J. M. Herbert,  A. I. Krylov

 Contributors to earlier versions of Q-Chem not listed above: 
 R. D. Adamson,  B. Austin,  R. Baer,  J. Baker,  G. J. O. Beran,  
 K. Brandhorst,  S. T. Brown,  E. F. C. Byrd,  A. K. Chakraborty,  
 G. K. L. Chan,  Chun-Min Chang,  Yunqing Chen,  C.-L. Cheng,  
 Siu Hung Chien,  D. M. Chipman,  D. L. Crittenden,  H. Dachsel,  
 R. J. Doerksen,  A. D. Dutoi,  R. G. Edgar,  J. Fosso-Tande,  
 L. Fusti-Molnar,  D. Ghosh,  A. Ghysels,  A. Golubeva-Zadorozhnaya,  
 J. Gonthier,  M. S. Gordon,  S. R. Gwaltney,  G. Hawkins,  J. E. Herr,  
 A. Heyden,  S. Hirata,  E. G. Hohenstein,  G. Kedziora,  F. J. Keil,  
 C. Kelley,  Jihan Kim,  R. A. King,  R. Z. Khaliullin,  P. P. Korambath,  
 W. Kurlancheek,  A. Laurent,  A. M. Lee,  M. S. Lee,  S. V. Levchenko,  
 Ching Yeh Lin,  D. Liotard,  E. Livshits,  R. C. Lochan,  I. Lotan,  
 L. A. Martinez-Martinez,  P. E. Maslen,  N. Nair,  D. P. O'Neill,  
 D. Neuhauser,  E. Neuscamman,  C. M. Oana,  R. Olivares-Amaya,  R. Olson,  
 T. M. Perrine,  B. Peters,  P. A. Pieniazek,  A. Prociuk,  Y. M. Rhee,  
 J. Ritchie,  M. A. Rohrdanz,  E. Rosta,  N. J. Russ,  H. F. Schaefer III,  
 M. W. Schmidt,  N. E. Schultz,  S. Sharma,  N. Shenvi,  C. D. Sherrill,  
 A. C. Simmonett,  A. Sodt,  T. Stein,  D. Stuck,  K. S. Thanthiriwatte,  
 V. Vanovschi,  L. Vogt,  Tao Wang,  A. Warshel,  M. A. Watson,  
 C. F. Williams,  Q. Wu,  X. Xu,  Jun Yang,  W. Zhang,  Yan Zhao

 Please cite Q-Chem as follows:
 Y. Shao et al., Mol. Phys. 113, 184-215 (2015)
 DOI: 10.1080/00268976.2014.952696

 Q-Chem 5.4.0 for Intel X86 EM64T Linux

 Parts of Q-Chem use Armadillo 9.800.1 (Horizon Scraper).
 http://arma.sourceforge.net/

 Q-Chem begins on Fri Dec 15 13:56:15 2023  

 Host: 
0

     Scratch files written to ./qchem3962563//
 May1621 |scratch|qcdevops|jenkins|workspace|build_RNUM    
 Parallel job on  1  processors
 Processing $rem in /cm/shared/apps/spack/cpu/opt/spack/linux-centos8-zen2/gcc-10.2.0/qchem-5.4-akfmr7b3t57bfs6qan3padb2wnb2i7cl/config/preferences:
 Processing $rem in /home/rramji/.qchemrc:
 Symmetry turned off for PCM/SM12/SMD calculation
 Core orbitals will be frozen

 Checking the input file for inconsistencies... 	...done.

 Q-Chem warning in module forms1/BasisType.C, line 2236:

 You are not using the predefined 5D/6D in this basis set.


--------------------------------------------------------------
User input:
--------------------------------------------------------------
$molecule
0 1
C	0.221766	-6.741404	-0.129743
C	1.352515	-6.155638	-0.782726
C	-0.717339	-5.791452	0.411926
C	1.593885	-4.803786	-0.921816
H	2.112819	-6.821518	-1.221908
C	-0.464360	-4.378638	0.266682
C	0.688053	-3.838032	-0.398255
C	-1.369108	-3.413062	0.789694
C	0.939002	-2.426473	-0.542349
C	-1.130409	-2.059348	0.652589
C	-0.000000	-1.478216	-0.000000
H	-1.891446	-1.394783	1.092453
C	-1.967519	-6.187987	1.131595
C	-2.608118	-3.798164	1.504912
N	-2.819813	-5.170003	1.625174
C	2.836188	-4.424987	-1.639129
C	2.189558	-2.036627	-1.263477
N	3.042237	-3.049156	-1.756898
O	-2.307845	-7.353131	1.324787
O	-3.407213	-2.986854	1.967354
O	3.625890	-5.248946	-2.095892
O	2.547850	-0.878829	-1.468685
C	-4.043674	-5.563799	2.330564
H	-4.083407	-6.664085	2.352178
H	-4.925490	-5.147101	1.807263
H	-4.031877	-5.148785	3.356568
C	4.247206	-2.587487	-2.452080
H	4.803187	-3.483329	-2.774302
H	4.860536	-1.964972	-1.773301
H	3.966607	-1.962932	-3.321351
H	0.060567	-7.822318	-0.037043
C	0.000000	0.000000	0.000000
S	-0.000201	0.793171	1.580530
C	-0.000228	2.430885	0.904911
C	-0.000168	0.997990	-0.985400
C	-0.000267	2.318231	-0.493528
H	-0.000145	0.762343	-2.059934
H	-0.000339	3.199164	-1.152593
H	-0.000311	3.311566	1.556025
$end

$rem
JOBTYPE		SP
EXCHANGE	HF
CORRELATION	pRIMP2
BASIS		cc-pvtz
METHOD		rimp2
AUX_BASIS	rimp2-cc-pvtz
SOLVENT_METHOD	PCM
PURECART	11111
SYMMETRY	false
MEM_TOTAL	110000
SCF_CONVERGENCE = 6
THRESH=10
GUI = 2
$end



$solvent
dielectric 4.90
$end
--------------------------------------------------------------
 ----------------------------------------------------------------
             Standard Nuclear Orientation (Angstroms)
    I     Atom           X                Y                Z
 ----------------------------------------------------------------
    1      C       0.2217660000    -6.7414040000    -0.1297430000
    2      C       1.3525150000    -6.1556380000    -0.7827260000
    3      C      -0.7173390000    -5.7914520000     0.4119260000
    4      C       1.5938850000    -4.8037860000    -0.9218160000
    5      H       2.1128190000    -6.8215180000    -1.2219080000
    6      C      -0.4643600000    -4.3786380000     0.2666820000
    7      C       0.6880530000    -3.8380320000    -0.3982550000
    8      C      -1.3691080000    -3.4130620000     0.7896940000
    9      C       0.9390020000    -2.4264730000    -0.5423490000
   10      C      -1.1304090000    -2.0593480000     0.6525890000
   11      C       0.0000000000    -1.4782160000     0.0000000000
   12      H      -1.8914460000    -1.3947830000     1.0924530000
   13      C      -1.9675190000    -6.1879870000     1.1315950000
   14      C      -2.6081180000    -3.7981640000     1.5049120000
   15      N      -2.8198130000    -5.1700030000     1.6251740000
   16      C       2.8361880000    -4.4249870000    -1.6391290000
   17      C       2.1895580000    -2.0366270000    -1.2634770000
   18      N       3.0422370000    -3.0491560000    -1.7568980000
   19      O      -2.3078450000    -7.3531310000     1.3247870000
   20      O      -3.4072130000    -2.9868540000     1.9673540000
   21      O       3.6258900000    -5.2489460000    -2.0958920000
   22      O       2.5478500000    -0.8788290000    -1.4686850000
   23      C      -4.0436740000    -5.5637990000     2.3305640000
   24      H      -4.0834070000    -6.6640850000     2.3521780000
   25      H      -4.9254900000    -5.1471010000     1.8072630000
   26      H      -4.0318770000    -5.1487850000     3.3565680000
   27      C       4.2472060000    -2.5874870000    -2.4520800000
   28      H       4.8031870000    -3.4833290000    -2.7743020000
   29      H       4.8605360000    -1.9649720000    -1.7733010000
   30      H       3.9666070000    -1.9629320000    -3.3213510000
   31      H       0.0605670000    -7.8223180000    -0.0370430000
   32      C       0.0000000000     0.0000000000     0.0000000000
   33      S      -0.0002010000     0.7931710000     1.5805300000
   34      C      -0.0002280000     2.4308850000     0.9049110000
   35      C      -0.0001680000     0.9979900000    -0.9854000000
   36      C      -0.0002670000     2.3182310000    -0.4935280000
   37      H      -0.0001450000     0.7623430000    -2.0599340000
   38      H      -0.0003390000     3.1991640000    -1.1525930000
   39      H      -0.0003110000     3.3115660000     1.5560250000
 ----------------------------------------------------------------
 Nuclear Repulsion Energy =        2490.69276390 hartrees
 There are       97 alpha and       97 beta electrons
 Requested basis set is cc-pVTZ
 There are 344 shells and 982 basis functions

 Total QAlloc Memory Limit 110000 MB
 Mega-Array Size       188 MB
 MEM_STATIC part       192 MB
 Discretize the solute cavity surface with Lebedev spheres
	Using 110 Lebedev grid points for each H atom
	Using 194 Lebedev grid points for other atoms
	Atomic van der Waals radii will be scaled by 1.20
 Remove points where switching function is < 1.0e-08
 Keep 2548 surface tesserae and discard 4010 interior tesserae
 Molecular Surface Area = 369.904 Angst**2
 Requested basis set is rimp2-cc-pVTZ
 There are 750 shells and 2588 basis functions
 A cutoff of  1.0D-10 yielded  31542 shell pairs
 There are    243068 function pairs (    315976 Cartesian)
 Smallest overlap matrix eigenvalue = 9.61E-06

 Q-Chem warning in module stvman/mkSTV.C, line 323:

 Overlap eigenvalue is smaller than square root of threshold
 Use THRESH >= 12 to get rid of this warning


 Scale SEOQF with 1.000000e-01/1.000000e-02/1.000000e-01

 Standard Electronic Orientation quadrupole field applied
 Nucleus-field energy     =     0.0000000161 hartrees
 Guess from superposition of atomic densities
 Warning:  Energy on first SCF cycle will be non-variational
 SAD guess density has 194.000000 electrons

 -----------------------------------------------------------------------
  General SCF calculation program by
  Eric Jon Sundstrom, Paul Horn, Yuezhi Mao, Dmitri Zuev, Alec White,
  David Stuck, Shaama M.S., Shane Yost, Joonho Lee, David Small,
  Daniel Levine, Susi Lehtola, Hugh Burton, Evgeny Epifanovsky,
  Bang C. Huynh
 -----------------------------------------------------------------------
 Hartree-Fock
 using 64 threads for integral computing
 -------------------------------------------------------
 OpenMP Integral computing Module                
 Release: version 1.0, May 2013, Q-Chem Inc. Pittsburgh 
 -------------------------------------------------------
 A restricted SCF calculation will be
 performed using DIIS
 SCF converges when DIIS error is below 1.0e-06
 ---------------------------------------
  Cycle       Energy         DIIS error
 ---------------------------------------
    1   -1581.2830459282      1.87e-02  
    2   -1570.1193032750      2.10e-03  
    3   -1570.4463990915      1.63e-03  
    4   -1570.6782285741      2.56e-04  
    5   -1570.6902072251      7.55e-05  
    6   -1570.6912530765      2.79e-05  
    7   -1570.6914882581      1.42e-05  
    8   -1570.6915625335      5.87e-06  
    9   -1570.6915739792      2.27e-06  
   10   -1570.6915758662      7.02e-07  Convergence criterion met
 ---------------------------------------
 SCF time:   CPU 5762.45s  wall 224.00s 

************** Final PCM Free Energy Summary **************
 G_electrostatic  =      -0.02428319 hartree =     -15.23792909 kcal/mol
 G_cavitation     =       0.00000000 hartree =       0.00000000 kcal/mol
 G_dispersion     =       0.00000000 hartree =       0.00000000 kcal/mol
 G_repulsion      =       0.00000000 hartree =       0.00000000 kcal/mol
 --------------------------------------------------
 Non-electrostatic Free Energy =       0.00000000 hartree =       0.00000000 kcal/mol
 Total                         =      -0.02428319 hartree =     -15.23792909 kcal/mol
 --------------------------------------------------
 SCF Energy (H0 + V/2)                       =   -1570.69157587 
 Solute Internal Energy (H0)                 =   -1570.66729268 
 Total Free Energy (H0 + V/2 + non-elec)     =   -1570.69157587 hartree
                                             = -985623.83987597 kcal/mol
***********************************************************

 SCF   energy in the final basis set =    -1570.6915758662
 Total energy in the final basis set =    -1570.6915758662


 --------------------------------------------------------------
  Generalized many-body perturbation theory program
  by Joonho Lee, Fazle Rob, Xintian Feng, Evgeny Epifanovsky

 No regularization used 
 (reg. param. = 0.0000e+00)
  (P|Q)^-1/2 Time:  CPU 170.29 s  wall 3.20 s

 In RI-MP2 calculation: 
 # of frozen core orbitals: 31

 Components of the RIMP2 correlation energy:
        aaaa    correlation energy =        -0.6162000209 a.u.
        abab    correlation energy =        -3.3916279693 a.u.
        bbbb    correlation energy =        -0.6162000209 a.u.
        non-Brillouin singles      =        -0.0000000000 a.u.
        total same-spin energy     =        -1.2324000417 a.u.
        total opposite-spin energy =        -3.3916279693 a.u.

 Total  RIMP2   correlation energy =        -4.6240280110 a.u.
        RIMP2         total energy =     -1575.3156038773 a.u.

 RI-MP2 Energy Time:  CPU 1917.10 s  wall 34.70 s
 
 --------------------------------------------------------------
 
                    Orbital Energies (a.u.)
 --------------------------------------------------------------
 
 Alpha MOs
 -- Occupied --
-91.9935 -20.5588 -20.5563 -20.5560 -20.5553 -15.6314 -15.6310 -11.4004
-11.3967 -11.3929 -11.3907 -11.3165 -11.3062 -11.3031 -11.3012 -11.2991
-11.2985 -11.2924 -11.2867 -11.2866 -11.2827 -11.2808 -11.2788 -11.2648
-11.2646 -11.2554 -11.2504  -8.9927  -6.6736  -6.6731  -6.6725  -1.4250
 -1.4241  -1.4043  -1.4031  -1.2677  -1.2654  -1.2181  -1.1752  -1.1446
 -1.1179  -1.0637  -1.0504  -0.9932  -0.9898  -0.9835  -0.9594  -0.9485
 -0.8975  -0.8798  -0.8783  -0.8614  -0.7962  -0.7779  -0.7731  -0.7597
 -0.7379  -0.7180  -0.7054  -0.6953  -0.6808  -0.6730  -0.6666  -0.6624
 -0.6570  -0.6425  -0.6376  -0.6337  -0.6301  -0.6128  -0.5862  -0.5845
 -0.5783  -0.5732  -0.5660  -0.5641  -0.5608  -0.5554  -0.5524  -0.5486
 -0.5366  -0.5267  -0.5206  -0.5178  -0.4837  -0.4707  -0.4667  -0.4627
 -0.4603  -0.4536  -0.4285  -0.4183  -0.4091  -0.3614  -0.3538  -0.3359
 -0.3135
 -- Virtual --
 -0.0206   0.0617   0.0710   0.1000   0.1156   0.1540   0.1582   0.1587
  0.1654   0.1698   0.1794   0.1831   0.1922   0.1931   0.1967   0.2070
  0.2121   0.2255   0.2281   0.2297   0.2345   0.2387   0.2584   0.2614
  0.2641   0.3044   0.3091   0.3132   0.3186   0.3211   0.3240   0.3342
  0.3430   0.3446   0.3509   0.3576   0.3591   0.3634   0.3675   0.3752
  0.3766   0.3850   0.3927   0.3931   0.3974   0.4030   0.4057   0.4104
  0.4155   0.4258   0.4327   0.4397   0.4400   0.4443   0.4509   0.4550
  0.4568   0.4622   0.4701   0.4731   0.4769   0.4801   0.4857   0.4925
  0.4961   0.5048   0.5074   0.5104   0.5151   0.5240   0.5273   0.5303
  0.5336   0.5372   0.5422   0.5454   0.5471   0.5542   0.5596   0.5636
  0.5688   0.5722   0.5799   0.5841   0.5904   0.5921   0.5960   0.5976
  0.6005   0.6060   0.6136   0.6157   0.6212   0.6225   0.6250   0.6299
  0.6328   0.6348   0.6359   0.6369   0.6398   0.6491   0.6531   0.6636
  0.6709   0.6729   0.6938   0.6955   0.6988   0.7069   0.7112   0.7160
  0.7205   0.7272   0.7342   0.7413   0.7464   0.7567   0.7598   0.7640
  0.7716   0.7768   0.7801   0.7898   0.7932   0.7990   0.8062   0.8137
  0.8191   0.8276   0.8329   0.8403   0.8434   0.8482   0.8487   0.8530
  0.8618   0.8652   0.8692   0.8742   0.8791   0.8869   0.8978   0.9067
  0.9089   0.9160   0.9236   0.9264   0.9283   0.9328   0.9361   0.9432
  0.9483   0.9564   0.9628   0.9678   0.9719   0.9775   0.9798   0.9859
  0.9911   0.9941   1.0000   1.0032   1.0057   1.0153   1.0169   1.0285
  1.0340   1.0382   1.0411   1.0527   1.0590   1.0628   1.0691   1.0751
  1.0786   1.0795   1.0811   1.0846   1.0905   1.0922   1.1036   1.1071
  1.1228   1.1285   1.1330   1.1361   1.1412   1.1477   1.1543   1.1570
  1.1630   1.1638   1.1673   1.1726   1.1816   1.1850   1.1902   1.1930
  1.2050   1.2074   1.2114   1.2191   1.2251   1.2312   1.2341   1.2380
  1.2443   1.2479   1.2566   1.2607   1.2658   1.2690   1.2796   1.3002
  1.3020   1.3239   1.3288   1.3331   1.3412   1.3460   1.3556   1.3607
  1.3680   1.3703   1.3770   1.3808   1.3863   1.3936   1.4070   1.4169
  1.4198   1.4286   1.4323   1.4442   1.4447   1.4530   1.4551   1.4707
  1.4803   1.4808   1.4893   1.4964   1.5003   1.5054   1.5169   1.5193
  1.5212   1.5330   1.5364   1.5401   1.5489   1.5558   1.5571   1.5636
  1.5664   1.5715   1.5864   1.5933   1.5971   1.6064   1.6139   1.6322
  1.6393   1.6406   1.6530   1.6581   1.6689   1.6732   1.6768   1.6894
  1.6949   1.7034   1.7102   1.7212   1.7305   1.7369   1.7437   1.7454
  1.7500   1.7619   1.7663   1.7811   1.7882   1.7934   1.8053   1.8144
  1.8245   1.8322   1.8371   1.8503   1.8530   1.8559   1.8626   1.8669
  1.8727   1.8774   1.8868   1.9046   1.9120   1.9215   1.9242   1.9379
  1.9524   1.9649   1.9718   1.9795   1.9908   2.0048   2.0115   2.0255
  2.0422   2.0526   2.0592   2.0677   2.0835   2.0963   2.1115   2.1251
  2.1415   2.1530   2.1543   2.1741   2.1972   2.2047   2.2193   2.2285
  2.2343   2.2377   2.2564   2.2614   2.2813   2.2900   2.2938   2.3072
  2.3097   2.3198   2.3297   2.3363   2.3553   2.3611   2.3749   2.3869
  2.3931   2.4195   2.4323   2.4356   2.4466   2.4475   2.4567   2.4599
  2.4657   2.4792   2.4901   2.4982   2.5087   2.5158   2.5278   2.5293
  2.5387   2.5603   2.5729   2.5829   2.5850   2.5956   2.6029   2.6042
  2.6109   2.6167   2.6212   2.6352   2.6510   2.6643   2.6654   2.6686
  2.6759   2.6846   2.6885   2.6991   2.7047   2.7089   2.7144   2.7265
  2.7358   2.7383   2.7440   2.7480   2.7531   2.7675   2.7805   2.7831
  2.8008   2.8166   2.8223   2.8322   2.8355   2.8473   2.8578   2.8599
  2.8628   2.8676   2.8716   2.8799   2.8851   2.8922   2.8951   2.9065
  2.9079   2.9237   2.9276   2.9306   2.9467   2.9538   2.9578   2.9682
  2.9708   2.9757   2.9849   2.9889   3.0008   3.0029   3.0132   3.0168
  3.0233   3.0323   3.0370   3.0403   3.0530   3.0553   3.0642   3.0806
  3.0849   3.0903   3.0981   3.1001   3.1061   3.1094   3.1127   3.1219
  3.1272   3.1325   3.1410   3.1524   3.1553   3.1662   3.1738   3.1764
  3.1847   3.1942   3.1982   3.2032   3.2085   3.2148   3.2180   3.2217
  3.2285   3.2304   3.2329   3.2426   3.2486   3.2503   3.2583   3.2681
  3.2692   3.2786   3.2804   3.2847   3.2890   3.2924   3.2964   3.3008
  3.3075   3.3091   3.3170   3.3210   3.3277   3.3299   3.3352   3.3357
  3.3404   3.3456   3.3457   3.3512   3.3596   3.3648   3.3677   3.3730
  3.3757   3.3791   3.3835   3.3912   3.3960   3.4018   3.4042   3.4185
  3.4218   3.4251   3.4328   3.4353   3.4437   3.4494   3.4514   3.4551
  3.4577   3.4646   3.4676   3.4711   3.4781   3.4823   3.4857   3.4893
  3.4948   3.5003   3.5032   3.5049   3.5121   3.5175   3.5197   3.5255
  3.5295   3.5335   3.5464   3.5504   3.5598   3.5667   3.5719   3.5744
  3.5841   3.5853   3.5911   3.6037   3.6123   3.6152   3.6241   3.6284
  3.6316   3.6340   3.6407   3.6443   3.6484   3.6649   3.6712   3.6779
  3.6826   3.6878   3.6960   3.6999   3.7048   3.7083   3.7122   3.7131
  3.7291   3.7326   3.7375   3.7417   3.7481   3.7507   3.7585   3.7678
  3.7767   3.7800   3.7843   3.7869   3.7910   3.7948   3.8010   3.8028
  3.8106   3.8205   3.8286   3.8343   3.8374   3.8513   3.8536   3.8587
  3.8623   3.8736   3.8787   3.8841   3.8878   3.8930   3.9039   3.9197
  3.9210   3.9345   3.9407   3.9451   3.9495   3.9595   3.9636   3.9755
  3.9828   3.9970   4.0008   4.0045   4.0094   4.0242   4.0288   4.0466
  4.0496   4.0636   4.0687   4.0791   4.0876   4.0943   4.0983   4.1143
  4.1181   4.1234   4.1338   4.1367   4.1482   4.1514   4.1604   4.1752
  4.1817   4.1865   4.1914   4.2056   4.2080   4.2103   4.2210   4.2305
  4.2459   4.2469   4.2546   4.2688   4.2713   4.2780   4.2867   4.2912
  4.2920   4.2954   4.3022   4.3066   4.3129   4.3236   4.3270   4.3335
  4.3467   4.3539   4.3573   4.3647   4.3678   4.3702   4.3752   4.3836
  4.3894   4.4007   4.4035   4.4067   4.4115   4.4139   4.4218   4.4322
  4.4540   4.4618   4.4665   4.4826   4.4920   4.5007   4.5110   4.5170
  4.5215   4.5282   4.5337   4.5426   4.5459   4.5540   4.5606   4.5702
  4.5744   4.5801   4.5836   4.5899   4.6030   4.6132   4.6286   4.6358
  4.6404   4.6496   4.6614   4.6626   4.6677   4.6726   4.6900   4.6998
  4.7121   4.7213   4.7319   4.7402   4.7517   4.7607   4.7817   4.7938
  4.8123   4.8184   4.8349   4.8359   4.8510   4.8551   4.8668   4.8769
  4.8781   4.9010   4.9118   4.9255   4.9360   4.9563   4.9724   4.9803
  4.9871   4.9962   5.0147   5.0333   5.0410   5.0460   5.0495   5.0651
  5.0981   5.1031   5.1088   5.1119   5.1247   5.1339   5.1415   5.1465
  5.1621   5.1822   5.1855   5.1937   5.2001   5.2339   5.2396   5.2561
  5.2621   5.2750   5.2803   5.2959   5.3160   5.3240   5.3292   5.3323
  5.3521   5.3852   5.3953   5.4020   5.4171   5.4287   5.4310   5.4682
  5.4849   5.5052   5.5086   5.5104   5.5125   5.5250   5.5466   5.5549
  5.5577   5.5600   5.5736   5.5773   5.5779   5.5922   5.6027   5.6100
  5.6207   5.6341   5.6454   5.6522   5.6541   5.6756   5.6769   5.6887
  5.6906   5.7022   5.7206   5.7376   5.7527   5.7547   5.7586   5.7687
  5.7717   5.7735   5.8087   5.8226   5.8421   5.8638   5.8747   5.9173
  5.9428   5.9554   5.9982   6.0107   6.0210   6.0216   6.0285   6.0486
  6.0932   6.1004   6.1012   6.1133   6.1174   6.1707   6.1915   6.2074
  6.2173   6.2182   6.2207   6.2536   6.2626   6.2659   6.3005   6.3401
  6.3502   6.3983   6.4272   6.4432   6.4644   6.5225   6.5618   6.5686
  6.5851   6.5985   6.6422   6.6471   6.6587   6.6924   6.7031   6.8305
  6.8310   6.8782   6.8859   6.8939   6.9111   6.9237   6.9301   7.0775
  7.0973   7.1383   7.1830   7.1870   7.2273   7.3321   7.3403   7.3440
  7.3518   7.4657   7.5440   7.5562   7.5725   7.5760   7.5895   7.6330
  7.6673   7.6795   7.7210   8.3555   9.9120  10.2822  11.1332  11.2850
 11.6528  11.7137  11.9314  12.3604  12.4469  12.6474  12.8425  13.0393
 13.2585  13.5623  13.8077  13.9337  14.0180  14.1264  14.2261  14.3402
 14.4074  14.7231  15.3210  15.7157  15.9784
 --------------------------------------------------------------
 
          Ground-State Mulliken Net Atomic Charges

     Atom                 Charge (a.u.)
  ----------------------------------------
      1 C                    -0.132655
      2 C                    -0.107472
      3 C                    -0.042047
      4 C                    -0.002533
      5 H                     0.188941
      6 C                    -0.004225
      7 C                     0.074324
      8 C                     0.006179
      9 C                    -0.018375
     10 C                    -0.147224
     11 C                     0.087058
     12 H                     0.186670
     13 C                     0.360902
     14 C                     0.368210
     15 N                    -0.101780
     16 C                     0.360235
     17 C                     0.349195
     18 N                    -0.095314
     19 O                    -0.464719
     20 O                    -0.475994
     21 O                    -0.480230
     22 O                    -0.457614
     23 C                    -0.200950
     24 H                     0.141039
     25 H                     0.112441
     26 H                     0.112606
     27 C                    -0.196080
     28 H                     0.133835
     29 H                     0.113589
     30 H                     0.112490
     31 H                     0.214316
     32 C                    -0.053048
     33 S                     0.031744
     34 C                    -0.208592
     35 C                    -0.150110
     36 C                    -0.205910
     37 H                     0.187465
     38 H                     0.191312
     39 H                     0.212317
  ----------------------------------------
  Sum of atomic charges =     0.000000

 -----------------------------------------------------------------
                    Cartesian Multipole Moments
 -----------------------------------------------------------------
    Charge (ESU x 10^10)
                 0.0000
    Dipole Moment (Debye)
         X       0.0068      Y       1.0133      Z      -0.9756
       Tot       1.4066
    Quadrupole Moments (Debye-Ang)
        XX    -179.4400     XY      -0.7544     YY    -164.2581
        XZ       8.8413     YZ       1.1099     ZZ    -162.5854
    Octopole Moments (Debye-Ang^2)
       XXX     -47.1495    XXY     523.6460    XYY      -7.1667
       YYY    1584.9314    XXZ      -6.2129    XYZ     -35.4148
       YYZ      -4.3607    XZZ     -15.7617    YZZ     498.4848
       ZZZ     -28.5763
    Hexadecapole Moments (Debye-Ang^3)
      XXXX   -4631.3784   XXXY     -74.7248   XXYY   -3859.8510
      XYYY    -693.4907   YYYY  -17097.6212   XXXZ    1331.7821
      XXYZ     -95.9284   XYYZ     671.4792   YYYZ     364.6301
      XXZZ   -1122.0295   XYZZ     -23.8364   YYZZ   -3083.1569
      XZZZ    1265.2655   YZZZ      86.4519   ZZZZ   -1900.1530
 -----------------------------------------------------------------
 Total job time:  266.20s(wall), 7885.01s(cpu) 
 Fri Dec 15 14:00:41 2023

        *************************************************************
        *                                                           *
        *  Thank you very much for using Q-Chem.  Have a nice day.  *
        *                                                           *
        *************************************************************


0 sent ACK to 0 
now end server 0 ... 
cleanup process ... done
remove work dirs ./qchem3962563.0 -- ./qchem3962563.0
rm -rf ./qchem3962563.0
rm -rf ./qchem3962563
