You are running Q-Chem version: 5.4.0

#
# job setting
#
local host:  exp-2-40
current dir: /home/rramji/project-csd799/aromodel/pndit-qchem/rotation_run
input file:  Dimethyl_Naphthalene_Dicarboximide_Phi_25_Theta_200_Thiophene.qcin
output file: 
nprocs     : 1
nthreads   : 64
#
# qchem installation setting
#
QC:          /cm/shared/apps/spack/cpu/opt/spack/linux-centos8-zen2/gcc-10.2.0/qchem-5.4-akfmr7b3t57bfs6qan3padb2wnb2i7cl
QCAUX:       /cm/shared/apps/spack/cpu/opt/spack/linux-centos8-zen2/gcc-10.2.0/qchem-5.4-akfmr7b3t57bfs6qan3padb2wnb2i7cl/qcaux
QCPROG:      /cm/shared/apps/spack/cpu/opt/spack/linux-centos8-zen2/gcc-10.2.0/qchem-5.4-akfmr7b3t57bfs6qan3padb2wnb2i7cl/exe/qcprog.exe
QCPROG_S:    /cm/shared/apps/spack/cpu/opt/spack/linux-centos8-zen2/gcc-10.2.0/qchem-5.4-akfmr7b3t57bfs6qan3padb2wnb2i7cl/exe/qcprog.exe_s
PARALLEL:    -DPARALLEL
QCMPI:       mpich
#
# qchem directory setting
#
qcrun:       qchem743322
QCSCRATCH:   .
QCLOCALSCR:  
QCTMPDIR:    .
QCFILEPREF:  ./qchem743322
QCSAVEDIR:   
workdirs:    ./qchem743322
workdir0:    ./qchem743322
partmpdirs =  
#
# parallel setting
#
QCRSH:           ssh
QCMPI:           mpich
QCMPIRUN:        /cm/shared/apps/spack/cpu/opt/spack/linux-centos8-zen2/gcc-10.2.0/qchem-5.4-akfmr7b3t57bfs6qan3padb2wnb2i7cl/bin/mpi/mpirun_qchem
QCMACHINEFILE:   ./qchem743322/hostfile
exp-2-40

#
# env setting
#
exported envs:   QC QCAUX QCSCRATCH QCRUNNAME QCFILEPREF QCPROG QCPROG_S GUIFILE

Running Job 1 of 1 Dimethyl_Naphthalene_Dicarboximide_Phi_25_Theta_200_Thiophene.qcin
qchem Dimethyl_Naphthalene_Dicarboximide_Phi_25_Theta_200_Thiophene.qcin_743322.0 ./qchem743322/ 1
/cm/shared/apps/spack/cpu/opt/spack/linux-centos8-zen2/gcc-10.2.0/qchem-5.4-akfmr7b3t57bfs6qan3padb2wnb2i7cl/bin/mpi/mpirun_qchem -machinefile ./qchem743322/hostfile -np 1 /cm/shared/apps/spack/cpu/opt/spack/linux-centos8-zen2/gcc-10.2.0/qchem-5.4-akfmr7b3t57bfs6qan3padb2wnb2i7cl/exe/qcprog.exe Dimethyl_Naphthalene_Dicarboximide_Phi_25_Theta_200_Thiophene.qcin_743322.0 ./qchem743322/

Process 0 of 1 is on exp-2-40 - thread support 0
initial socket setup ...start
initial socket setup ...done 
now start server 0 ... 
                  Welcome to Q-Chem
     A Quantum Leap Into The Future Of Chemistry


 Q-Chem 5.4, Q-Chem, Inc., Pleasanton, CA (2021)

 License issued to: University of California, San Diego (site)

 E. Epifanovsky,  A. T. B. Gilbert,  Xintian Feng,  Joonho Lee,  Yuezhi Mao,  
 N. Mardirossian,  P. Pokhilko,  A. White,  M. Wormit,  M. P. Coons,  
 A. L. Dempwolff,  Zhengting Gan,  D. Hait,  P. R. Horn,  L. D. Jacobson,  
 I. Kaliman,  J. Kussmann,  A. W. Lange,  Ka Un Lao,  D. S. Levine,  Jie Liu,  
 S. C. McKenzie,  A. F. Morrison,  K. Nanda,  F. Plasser,  D. R. Rehn,  
 M. L. Vidal,  Zhi-Qiang You,  Ying Zhu,  B. Alam,  B. Albrecht,  
 A. Aldossary,  E. Alguire,  J. H. Andersen,  D. Barton,  K. Begam,  A. Behn,  
 Y. A. Bernard,  E. J. Berquist,  H. Burton,  A. Carreras,  K. Carter-Fenk,  
 R. Chakraborty,  A. D. Chien,  K. D. Closser,  V. Cofer-Shabica,  
 S. Dasgupta,  Jia Deng,  M. de Wergifosse,  M. Diedenhofen,  Hainam Do,  
 S. Ehlert,  Po-Tung Fang,  S. Fatehi,  Qingguo Feng,  J. Gayvert,  
 Qinghui Ge,  G. Gidofalvi,  M. Goldey,  J. Gomes,  C. Gonzalez-Espinoza,  
 S. Gulania,  A. Gunina,  M. W. D. Hanson-Heine,  P. H. P. Harbach,  
 A. W. Hauser,  M. F. Herbst,  M. Hernandez Vera,  M. Hodecker,  
 Z. C. Holden,  S. Houck,  Xunkun Huang,  Kerwin Hui,  B. C. Huynh,  
 M. Ivanov,  Hyunjun Ji,  Hanjie Jiang,  B. Kaduk,  S. Kaehler,  
 K. Khistyaev,  Jaehoon Kim,  P. Klunzinger,  Z. Koczor-Benda,  
 Joong Hoon Koh,  D. Kosenkov,  L. Koulias,  T. Kowalczyk,  C. M. Krauter,  
 K. Kue,  A. Kunitsa,  T. Kus,  A. Landau,  K. V. Lawler,  D. Lefrancois,  
 S. Lehtola,  Rain Li,  Yi-Pei Li,  Jiashu Liang,  M. Liebenthal,  
 Hung-Hsuan Lin,  You-Sheng Lin,  Fenglai Liu,  Kuan-Yu Liu,  
 M. Loipersberger,  A. Luenser,  A. Manjanath,  P. Manohar,  E. Mansoor,  
 S. F. Manzer,  Shan-Ping Mao,  A. V. Marenich,  T. Markovich,  S. Mason,  
 S. A. Maurer,  P. F. McLaughlin,  M. F. S. J. Menger,  J.-M. Mewes,  
 S. A. Mewes,  P. Morgante,  J. W. Mullinax,  T. S. Nguyen-Beck,  
 K. J. Oosterbaan,  G. Paran,  Alexander C. Paul,  Suranjan K. Paul,  
 F. Pavosevic,  Zheng Pei,  S. Prager,  E. I. Proynov,  E. Ramos,  B. Rana,  
 A. E. Rask,  A. Rettig,  R. M. Richard,  F. Rob,  E. Rossomme,  T. Scheele,  
 M. Scheurer,  M. Schneider,  N. Sergueev,  S. M. Sharada,  W. Skomorowski,  
 D. W. Small,  C. J. Stein,  Yu-Chuan Su,  E. J. Sundstrom,  Zhen Tao,  
 J. Thirman,  T. Tsuchimochi,  N. M. Tubman,  S. P. Veccham,  O. Vydrov,  
 J. Wenzel,  J. Witte,  A. Yamada,  Kun Yao,  S. Yeganeh,  S. R. Yost,  
 A. Zech,  Igor Ying Zhang,  Xing Zhang,  Yu Zhang,  D. Zuev,  
 A. Aspuru-Guzik,  A. T. Bell,  N. A. Besley,  K. B. Bravaya,  B. R. Brooks,  
 D. Casanova,  Jeng-Da Chai,  S. Coriani,  C. J. Cramer,  
 A. E. DePrince, III,  R. A. DiStasio Jr.,  A. Dreuw,  B. D. Dunietz,  
 T. R. Furlani,  W. A. Goddard III,  S. Grimme,  S. Hammes-Schiffer,  
 T. Head-Gordon,  W. J. Hehre,  Chao-Ping Hsu,  T.-C. Jagau,  Yousung Jung,  
 A. Klamt,  Jing Kong,  D. S. Lambrecht,  WanZhen Liang,  N. J. Mayhall,  
 C. W. McCurdy,  J. B. Neaton,  C. Ochsenfeld,  J. A. Parkhill,  R. Peverati,  
 V. A. Rassolov,  Yihan Shao,  L. V. Slipchenko,  T. Stauch,  R. P. Steele,  
 J. E. Subotnik,  A. J. W. Thom,  A. Tkatchenko,  D. G. Truhlar,  
 T. Van Voorhis,  T. A. Wesolowski,  K. B. Whaley,  H. L. Woodcock III,  
 P. M. Zimmerman,  S. Faraji,  P. M. W. Gill,  M. Head-Gordon,  
 J. M. Herbert,  A. I. Krylov

 Contributors to earlier versions of Q-Chem not listed above: 
 R. D. Adamson,  B. Austin,  R. Baer,  J. Baker,  G. J. O. Beran,  
 K. Brandhorst,  S. T. Brown,  E. F. C. Byrd,  A. K. Chakraborty,  
 G. K. L. Chan,  Chun-Min Chang,  Yunqing Chen,  C.-L. Cheng,  
 Siu Hung Chien,  D. M. Chipman,  D. L. Crittenden,  H. Dachsel,  
 R. J. Doerksen,  A. D. Dutoi,  R. G. Edgar,  J. Fosso-Tande,  
 L. Fusti-Molnar,  D. Ghosh,  A. Ghysels,  A. Golubeva-Zadorozhnaya,  
 J. Gonthier,  M. S. Gordon,  S. R. Gwaltney,  G. Hawkins,  J. E. Herr,  
 A. Heyden,  S. Hirata,  E. G. Hohenstein,  G. Kedziora,  F. J. Keil,  
 C. Kelley,  Jihan Kim,  R. A. King,  R. Z. Khaliullin,  P. P. Korambath,  
 W. Kurlancheek,  A. Laurent,  A. M. Lee,  M. S. Lee,  S. V. Levchenko,  
 Ching Yeh Lin,  D. Liotard,  E. Livshits,  R. C. Lochan,  I. Lotan,  
 L. A. Martinez-Martinez,  P. E. Maslen,  N. Nair,  D. P. O'Neill,  
 D. Neuhauser,  E. Neuscamman,  C. M. Oana,  R. Olivares-Amaya,  R. Olson,  
 T. M. Perrine,  B. Peters,  P. A. Pieniazek,  A. Prociuk,  Y. M. Rhee,  
 J. Ritchie,  M. A. Rohrdanz,  E. Rosta,  N. J. Russ,  H. F. Schaefer III,  
 M. W. Schmidt,  N. E. Schultz,  S. Sharma,  N. Shenvi,  C. D. Sherrill,  
 A. C. Simmonett,  A. Sodt,  T. Stein,  D. Stuck,  K. S. Thanthiriwatte,  
 V. Vanovschi,  L. Vogt,  Tao Wang,  A. Warshel,  M. A. Watson,  
 C. F. Williams,  Q. Wu,  X. Xu,  Jun Yang,  W. Zhang,  Yan Zhao

 Please cite Q-Chem as follows:
 Y. Shao et al., Mol. Phys. 113, 184-215 (2015)
 DOI: 10.1080/00268976.2014.952696

 Q-Chem 5.4.0 for Intel X86 EM64T Linux

 Parts of Q-Chem use Armadillo 9.800.1 (Horizon Scraper).
 http://arma.sourceforge.net/

 Q-Chem begins on Fri Dec 15 14:55:34 2023  

 Host: 
0

     Scratch files written to ./qchem743322//
 May1621 |scratch|qcdevops|jenkins|workspace|build_RNUM    
 Parallel job on  1  processors
 Processing $rem in /cm/shared/apps/spack/cpu/opt/spack/linux-centos8-zen2/gcc-10.2.0/qchem-5.4-akfmr7b3t57bfs6qan3padb2wnb2i7cl/config/preferences:
 Processing $rem in /home/rramji/.qchemrc:
 Symmetry turned off for PCM/SM12/SMD calculation
 Core orbitals will be frozen

 Checking the input file for inconsistencies... 	...done.

 Q-Chem warning in module forms1/BasisType.C, line 2236:

 You are not using the predefined 5D/6D in this basis set.


--------------------------------------------------------------
User input:
--------------------------------------------------------------
$molecule
0 1
C	-0.086486	-6.741404	0.241938
C	-0.532960	-6.155638	1.468983
C	0.284733	-5.791452	-0.776651
C	-0.628455	-4.803786	1.730681
H	-0.833086	-6.821518	2.294130
C	0.184300	-4.378638	-0.502775
C	-0.271086	-3.838032	0.747353
C	0.541191	-3.413062	-1.484986
C	-0.370703	-2.426473	1.019042
C	0.446468	-2.059348	-1.226525
C	-0.000000	-1.478216	-0.000000
H	0.746717	-1.394783	-2.052666
C	0.779832	-6.187987	-2.131549
C	1.030596	-3.798164	-2.829295
N	1.115461	-5.170003	-3.057496
C	-1.119034	-4.424987	3.078712
C	-0.865151	-2.036627	2.375300
N	-1.201176	-3.049156	3.301374
O	0.916355	-7.353131	-2.498300
O	1.345486	-2.986854	-3.697195
O	-1.430379	-5.248946	3.936224
O	-1.007714	-0.878829	2.762805
C	1.599576	-5.563799	-4.384539
H	1.616121	-6.664085	-4.426636
H	2.611458	-5.147101	-4.550487
H	0.931037	-5.148785	-5.162921
C	-1.677382	-2.587487	4.608454
H	-1.896168	-3.483329	5.212668
H	-2.583531	-1.964972	4.482719
H	-0.903674	-1.962932	5.093988
H	-0.022586	-7.822318	0.067309
C	0.000000	0.000000	0.000000
S	0.335026	0.718942	1.580530
C	1.027130	2.203226	0.904911
C	0.421617	0.904557	-0.985400
C	0.979485	2.101144	-0.493528
H	0.322049	0.690978	-2.059934
H	1.351718	2.899571	-1.152593
H	1.399246	3.001430	1.556025
$end

$rem
JOBTYPE		SP
EXCHANGE	HF
CORRELATION	pRIMP2
BASIS		cc-pvtz
METHOD		rimp2
AUX_BASIS	rimp2-cc-pvtz
SOLVENT_METHOD	PCM
PURECART	11111
SYMMETRY	false
MEM_TOTAL	110000
SCF_CONVERGENCE = 6
THRESH=10
GUI = 2
$end



$solvent
dielectric 4.90
$end
--------------------------------------------------------------
 ----------------------------------------------------------------
             Standard Nuclear Orientation (Angstroms)
    I     Atom           X                Y                Z
 ----------------------------------------------------------------
    1      C      -0.0864860000    -6.7414040000     0.2419380000
    2      C      -0.5329600000    -6.1556380000     1.4689830000
    3      C       0.2847330000    -5.7914520000    -0.7766510000
    4      C      -0.6284550000    -4.8037860000     1.7306810000
    5      H      -0.8330860000    -6.8215180000     2.2941300000
    6      C       0.1843000000    -4.3786380000    -0.5027750000
    7      C      -0.2710860000    -3.8380320000     0.7473530000
    8      C       0.5411910000    -3.4130620000    -1.4849860000
    9      C      -0.3707030000    -2.4264730000     1.0190420000
   10      C       0.4464680000    -2.0593480000    -1.2265250000
   11      C       0.0000000000    -1.4782160000     0.0000000000
   12      H       0.7467170000    -1.3947830000    -2.0526660000
   13      C       0.7798320000    -6.1879870000    -2.1315490000
   14      C       1.0305960000    -3.7981640000    -2.8292950000
   15      N       1.1154610000    -5.1700030000    -3.0574960000
   16      C      -1.1190340000    -4.4249870000     3.0787120000
   17      C      -0.8651510000    -2.0366270000     2.3753000000
   18      N      -1.2011760000    -3.0491560000     3.3013740000
   19      O       0.9163550000    -7.3531310000    -2.4983000000
   20      O       1.3454860000    -2.9868540000    -3.6971950000
   21      O      -1.4303790000    -5.2489460000     3.9362240000
   22      O      -1.0077140000    -0.8788290000     2.7628050000
   23      C       1.5995760000    -5.5637990000    -4.3845390000
   24      H       1.6161210000    -6.6640850000    -4.4266360000
   25      H       2.6114580000    -5.1471010000    -4.5504870000
   26      H       0.9310370000    -5.1487850000    -5.1629210000
   27      C      -1.6773820000    -2.5874870000     4.6084540000
   28      H      -1.8961680000    -3.4833290000     5.2126680000
   29      H      -2.5835310000    -1.9649720000     4.4827190000
   30      H      -0.9036740000    -1.9629320000     5.0939880000
   31      H      -0.0225860000    -7.8223180000     0.0673090000
   32      C       0.0000000000     0.0000000000     0.0000000000
   33      S       0.3350260000     0.7189420000     1.5805300000
   34      C       1.0271300000     2.2032260000     0.9049110000
   35      C       0.4216170000     0.9045570000    -0.9854000000
   36      C       0.9794850000     2.1011440000    -0.4935280000
   37      H       0.3220490000     0.6909780000    -2.0599340000
   38      H       1.3517180000     2.8995710000    -1.1525930000
   39      H       1.3992460000     3.0014300000     1.5560250000
 ----------------------------------------------------------------
 Nuclear Repulsion Energy =        2513.17253790 hartrees
 There are       97 alpha and       97 beta electrons
 Requested basis set is cc-pVTZ
 There are 344 shells and 982 basis functions

 Total QAlloc Memory Limit 110000 MB
 Mega-Array Size       188 MB
 MEM_STATIC part       192 MB
 Discretize the solute cavity surface with Lebedev spheres
	Using 110 Lebedev grid points for each H atom
	Using 194 Lebedev grid points for other atoms
	Atomic van der Waals radii will be scaled by 1.20
 Remove points where switching function is < 1.0e-08
 Keep 2509 surface tesserae and discard 4049 interior tesserae
 Molecular Surface Area = 360.215 Angst**2
 Requested basis set is rimp2-cc-pVTZ
 There are 750 shells and 2588 basis functions
 A cutoff of  1.0D-10 yielded  31788 shell pairs
 There are    244842 function pairs (    318132 Cartesian)
 Smallest overlap matrix eigenvalue = 9.57E-06

 Q-Chem warning in module stvman/mkSTV.C, line 323:

 Overlap eigenvalue is smaller than square root of threshold
 Use THRESH >= 12 to get rid of this warning


 Scale SEOQF with 1.000000e-01/1.000000e-02/1.000000e-01

 Standard Electronic Orientation quadrupole field applied
 Nucleus-field energy     =    -0.0000000970 hartrees
 Guess from superposition of atomic densities
 Warning:  Energy on first SCF cycle will be non-variational
 SAD guess density has 194.000000 electrons

 -----------------------------------------------------------------------
  General SCF calculation program by
  Eric Jon Sundstrom, Paul Horn, Yuezhi Mao, Dmitri Zuev, Alec White,
  David Stuck, Shaama M.S., Shane Yost, Joonho Lee, David Small,
  Daniel Levine, Susi Lehtola, Hugh Burton, Evgeny Epifanovsky,
  Bang C. Huynh
 -----------------------------------------------------------------------
 Hartree-Fock
 using 64 threads for integral computing
 -------------------------------------------------------
 OpenMP Integral computing Module                
 Release: version 1.0, May 2013, Q-Chem Inc. Pittsburgh 
 -------------------------------------------------------
 A restricted SCF calculation will be
 performed using DIIS
 SCF converges when DIIS error is below 1.0e-06
 ---------------------------------------
  Cycle       Energy         DIIS error
 ---------------------------------------
    1   -1581.3965080730      1.87e-02  
    2   -1570.1008060851      2.08e-03  
    3   -1570.4267180270      1.61e-03  
    4   -1570.6525760868      2.59e-04  
    5   -1570.6647714823      7.65e-05  
    6   -1570.6658497857      2.83e-05  
    7   -1570.6661053102      1.45e-05  
    8   -1570.6661889730      6.03e-06  
    9   -1570.6662027066      2.31e-06  
   10   -1570.6662051295      8.50e-07  Convergence criterion met
 ---------------------------------------
 SCF time:   CPU 5995.67s  wall 218.00s 

************** Final PCM Free Energy Summary **************
 G_electrostatic  =      -0.02278650 hartree =     -14.29874452 kcal/mol
 G_cavitation     =       0.00000000 hartree =       0.00000000 kcal/mol
 G_dispersion     =       0.00000000 hartree =       0.00000000 kcal/mol
 G_repulsion      =       0.00000000 hartree =       0.00000000 kcal/mol
 --------------------------------------------------
 Non-electrostatic Free Energy =       0.00000000 hartree =       0.00000000 kcal/mol
 Total                         =      -0.02278650 hartree =     -14.29874452 kcal/mol
 --------------------------------------------------
 SCF Energy (H0 + V/2)                       =   -1570.66620513 
 Solute Internal Energy (H0)                 =   -1570.64341863 
 Total Free Energy (H0 + V/2 + non-elec)     =   -1570.66620513 hartree
                                             = -985607.91949840 kcal/mol
***********************************************************

 SCF   energy in the final basis set =    -1570.6662051295
 Total energy in the final basis set =    -1570.6662051295


 --------------------------------------------------------------
  Generalized many-body perturbation theory program
  by Joonho Lee, Fazle Rob, Xintian Feng, Evgeny Epifanovsky

 No regularization used 
 (reg. param. = 0.0000e+00)
  (P|Q)^-1/2 Time:  CPU 104.92 s  wall 2.30 s

 In RI-MP2 calculation: 
 # of frozen core orbitals: 31

 Components of the RIMP2 correlation energy:
        aaaa    correlation energy =        -0.6189763037 a.u.
        abab    correlation energy =        -3.3966018520 a.u.
        bbbb    correlation energy =        -0.6189763037 a.u.
        non-Brillouin singles      =        -0.0000000000 a.u.
        total same-spin energy     =        -1.2379526073 a.u.
        total opposite-spin energy =        -3.3966018520 a.u.

 Total  RIMP2   correlation energy =        -4.6345544593 a.u.
        RIMP2         total energy =     -1575.3007595888 a.u.

 RI-MP2 Energy Time:  CPU 1884.77 s  wall 31.14 s
 
 --------------------------------------------------------------
 
                    Orbital Energies (a.u.)
 --------------------------------------------------------------
 
 Alpha MOs
 -- Occupied --
-91.9827 -20.5586 -20.5567 -20.5566 -20.5533 -15.6313 -15.6305 -11.3999
-11.3970 -11.3911 -11.3909 -11.3202 -11.3019 -11.3002 -11.2975 -11.2946
-11.2935 -11.2881 -11.2868 -11.2828 -11.2817 -11.2787 -11.2773 -11.2650
-11.2647 -11.2645 -11.2475  -8.9822  -6.6627  -6.6618  -6.6612  -1.4275
 -1.4250  -1.4050  -1.4044  -1.2678  -1.2657  -1.2165  -1.1759  -1.1427
 -1.1160  -1.0619  -1.0488  -0.9926  -0.9896  -0.9846  -0.9587  -0.9469
 -0.8964  -0.8792  -0.8770  -0.8616  -0.7934  -0.7772  -0.7752  -0.7628
 -0.7320  -0.7204  -0.7040  -0.6934  -0.6869  -0.6746  -0.6667  -0.6626
 -0.6565  -0.6401  -0.6369  -0.6351  -0.6269  -0.6140  -0.5836  -0.5834
 -0.5815  -0.5724  -0.5703  -0.5660  -0.5643  -0.5556  -0.5551  -0.5487
 -0.5325  -0.5256  -0.5201  -0.5173  -0.4881  -0.4734  -0.4633  -0.4628
 -0.4569  -0.4336  -0.4236  -0.4137  -0.4079  -0.3743  -0.3478  -0.3364
 -0.2984
 -- Virtual --
 -0.0196   0.0535   0.0689   0.1027   0.1237   0.1552   0.1582   0.1603
  0.1666   0.1779   0.1807   0.1835   0.1862   0.1969   0.2077   0.2127
  0.2276   0.2278   0.2286   0.2375   0.2565   0.2579   0.2654   0.2685
  0.2798   0.3053   0.3146   0.3161   0.3248   0.3288   0.3354   0.3386
  0.3431   0.3474   0.3528   0.3550   0.3592   0.3608   0.3742   0.3753
  0.3841   0.3865   0.3919   0.3957   0.4001   0.4057   0.4104   0.4145
  0.4244   0.4309   0.4342   0.4371   0.4411   0.4438   0.4531   0.4560
  0.4594   0.4600   0.4697   0.4736   0.4798   0.4826   0.4911   0.4944
  0.4997   0.5026   0.5104   0.5124   0.5159   0.5183   0.5267   0.5350
  0.5371   0.5414   0.5505   0.5508   0.5552   0.5566   0.5647   0.5674
  0.5729   0.5790   0.5830   0.5864   0.5917   0.5952   0.5985   0.6016
  0.6061   0.6076   0.6145   0.6157   0.6209   0.6276   0.6289   0.6333
  0.6338   0.6367   0.6371   0.6395   0.6450   0.6475   0.6617   0.6698
  0.6853   0.6899   0.6921   0.6974   0.7006   0.7079   0.7136   0.7266
  0.7325   0.7379   0.7387   0.7505   0.7527   0.7590   0.7631   0.7697
  0.7701   0.7827   0.7898   0.7911   0.8023   0.8086   0.8135   0.8200
  0.8320   0.8327   0.8386   0.8462   0.8476   0.8538   0.8546   0.8652
  0.8657   0.8689   0.8722   0.8775   0.8899   0.8986   0.9019   0.9099
  0.9142   0.9162   0.9222   0.9276   0.9295   0.9339   0.9386   0.9473
  0.9532   0.9644   0.9688   0.9723   0.9758   0.9776   0.9810   0.9851
  0.9916   0.9978   0.9984   1.0061   1.0107   1.0216   1.0259   1.0301
  1.0323   1.0422   1.0471   1.0503   1.0637   1.0665   1.0697   1.0759
  1.0791   1.0802   1.0832   1.0859   1.0943   1.1003   1.1095   1.1134
  1.1214   1.1315   1.1328   1.1355   1.1436   1.1493   1.1506   1.1563
  1.1632   1.1719   1.1734   1.1745   1.1781   1.1820   1.1952   1.2006
  1.2047   1.2113   1.2182   1.2234   1.2247   1.2296   1.2391   1.2430
  1.2483   1.2493   1.2538   1.2586   1.2611   1.2721   1.2881   1.3067
  1.3113   1.3247   1.3295   1.3384   1.3392   1.3452   1.3549   1.3666
  1.3716   1.3761   1.3822   1.3835   1.3847   1.3912   1.3975   1.4153
  1.4198   1.4308   1.4379   1.4414   1.4449   1.4505   1.4559   1.4700
  1.4771   1.4812   1.4842   1.4914   1.4971   1.5062   1.5178   1.5200
  1.5308   1.5315   1.5389   1.5519   1.5559   1.5585   1.5621   1.5686
  1.5692   1.5750   1.5861   1.5969   1.6000   1.6076   1.6227   1.6282
  1.6385   1.6446   1.6519   1.6574   1.6709   1.6721   1.6817   1.6936
  1.6983   1.7096   1.7128   1.7253   1.7323   1.7356   1.7409   1.7485
  1.7609   1.7649   1.7716   1.7811   1.7936   1.8011   1.8085   1.8169
  1.8254   1.8288   1.8408   1.8459   1.8542   1.8624   1.8628   1.8654
  1.8784   1.8908   1.8987   1.9128   1.9196   1.9231   1.9500   1.9555
  1.9593   1.9656   1.9739   1.9787   1.9862   1.9971   2.0357   2.0460
  2.0543   2.0605   2.0732   2.0885   2.1084   2.1174   2.1322   2.1405
  2.1560   2.1595   2.1742   2.1829   2.1968   2.2186   2.2273   2.2345
  2.2400   2.2560   2.2631   2.2817   2.2868   2.2911   2.2963   2.3050
  2.3230   2.3280   2.3301   2.3494   2.3588   2.3677   2.3731   2.3962
  2.4004   2.4284   2.4342   2.4501   2.4534   2.4570   2.4643   2.4708
  2.4810   2.4910   2.4982   2.5025   2.5097   2.5287   2.5372   2.5427
  2.5595   2.5679   2.5702   2.5891   2.5925   2.5939   2.6015   2.6111
  2.6174   2.6221   2.6297   2.6465   2.6554   2.6610   2.6646   2.6753
  2.6785   2.6859   2.6902   2.7052   2.7117   2.7198   2.7270   2.7350
  2.7396   2.7428   2.7521   2.7532   2.7594   2.7697   2.7719   2.7912
  2.7946   2.7992   2.8219   2.8331   2.8353   2.8493   2.8556   2.8605
  2.8704   2.8758   2.8777   2.8806   2.8921   2.8956   2.8976   2.9078
  2.9105   2.9187   2.9268   2.9324   2.9487   2.9505   2.9668   2.9700
  2.9753   2.9786   2.9859   2.9988   3.0035   3.0086   3.0125   3.0182
  3.0282   3.0358   3.0433   3.0492   3.0522   3.0590   3.0722   3.0824
  3.0871   3.0928   3.1008   3.1016   3.1066   3.1119   3.1135   3.1191
  3.1261   3.1280   3.1329   3.1494   3.1595   3.1683   3.1731   3.1786
  3.1877   3.1916   3.1975   3.2053   3.2079   3.2126   3.2179   3.2231
  3.2255   3.2296   3.2339   3.2386   3.2449   3.2535   3.2538   3.2639
  3.2715   3.2772   3.2798   3.2847   3.2869   3.2916   3.2947   3.2997
  3.3026   3.3107   3.3162   3.3229   3.3267   3.3284   3.3340   3.3378
  3.3417   3.3456   3.3459   3.3495   3.3584   3.3632   3.3691   3.3758
  3.3795   3.3861   3.3886   3.3993   3.4023   3.4037   3.4079   3.4175
  3.4216   3.4260   3.4336   3.4380   3.4408   3.4489   3.4524   3.4556
  3.4606   3.4679   3.4689   3.4759   3.4791   3.4844   3.4905   3.4945
  3.4989   3.5022   3.5061   3.5113   3.5143   3.5195   3.5236   3.5297
  3.5353   3.5369   3.5440   3.5541   3.5605   3.5682   3.5791   3.5816
  3.5877   3.5978   3.6037   3.6087   3.6100   3.6209   3.6231   3.6297
  3.6307   3.6372   3.6405   3.6424   3.6518   3.6612   3.6702   3.6739
  3.6769   3.6868   3.6978   3.7012   3.7053   3.7117   3.7125   3.7264
  3.7324   3.7356   3.7419   3.7498   3.7537   3.7553   3.7600   3.7707
  3.7749   3.7813   3.7852   3.7902   3.7946   3.7985   3.8035   3.8059
  3.8145   3.8271   3.8302   3.8378   3.8429   3.8443   3.8535   3.8598
  3.8658   3.8692   3.8750   3.8847   3.8922   3.8942   3.9120   3.9273
  3.9302   3.9349   3.9373   3.9481   3.9509   3.9609   3.9692   3.9771
  3.9830   4.0023   4.0108   4.0152   4.0217   4.0252   4.0341   4.0439
  4.0570   4.0610   4.0652   4.0855   4.0938   4.0990   4.1045   4.1125
  4.1158   4.1336   4.1369   4.1479   4.1514   4.1597   4.1647   4.1724
  4.1780   4.1846   4.1906   4.2017   4.2070   4.2189   4.2295   4.2355
  4.2483   4.2623   4.2677   4.2735   4.2767   4.2825   4.2878   4.2904
  4.2945   4.3006   4.3053   4.3101   4.3230   4.3299   4.3410   4.3450
  4.3530   4.3564   4.3653   4.3656   4.3697   4.3723   4.3789   4.3825
  4.3962   4.4031   4.4043   4.4126   4.4183   4.4226   4.4258   4.4370
  4.4609   4.4624   4.4700   4.4818   4.5022   4.5116   4.5162   4.5180
  4.5223   4.5241   4.5398   4.5409   4.5484   4.5557   4.5653   4.5758
  4.5793   4.5848   4.5922   4.5966   4.6094   4.6155   4.6279   4.6347
  4.6437   4.6531   4.6652   4.6695   4.6769   4.6791   4.6867   4.6972
  4.7140   4.7257   4.7339   4.7463   4.7651   4.7765   4.7829   4.7880
  4.8192   4.8233   4.8304   4.8369   4.8542   4.8643   4.8711   4.8732
  4.8863   4.8973   4.9133   4.9256   4.9441   4.9620   4.9728   4.9797
  4.9994   5.0141   5.0244   5.0389   5.0422   5.0474   5.0533   5.0785
  5.0918   5.1012   5.1067   5.1206   5.1258   5.1294   5.1399   5.1480
  5.1553   5.1749   5.1864   5.1945   5.2012   5.2264   5.2486   5.2568
  5.2713   5.2776   5.2903   5.2981   5.3060   5.3233   5.3324   5.3481
  5.3533   5.3965   5.4032   5.4064   5.4191   5.4319   5.4348   5.4537
  5.4869   5.5057   5.5086   5.5118   5.5137   5.5322   5.5472   5.5564
  5.5598   5.5609   5.5748   5.5759   5.5780   5.5911   5.6008   5.6075
  5.6246   5.6347   5.6526   5.6559   5.6616   5.6732   5.6763   5.6925
  5.6985   5.7149   5.7329   5.7421   5.7474   5.7566   5.7619   5.7713
  5.7815   5.7847   5.8211   5.8367   5.8418   5.8788   5.9043   5.9205
  5.9404   5.9661   5.9954   6.0074   6.0234   6.0310   6.0391   6.0424
  6.0814   6.0904   6.1011   6.1180   6.1212   6.1705   6.1965   6.2087
  6.2175   6.2188   6.2234   6.2594   6.2667   6.2782   6.3043   6.3428
  6.3498   6.3724   6.4301   6.4481   6.4662   6.5244   6.5618   6.5689
  6.5829   6.6059   6.6272   6.6470   6.6589   6.6741   6.7126   6.8321
  6.8380   6.8810   6.8860   6.8984   6.9111   6.9312   7.0005   7.0795
  7.1193   7.1429   7.1850   7.2008   7.2327   7.3323   7.3423   7.3441
  7.3590   7.4662   7.5449   7.5571   7.5739   7.5800   7.6144   7.6341
  7.6770   7.6845   7.7246   8.3922   9.9193  10.3207  11.1045  11.2033
 11.7009  11.7655  12.0344  12.3853  12.4267  12.6924  12.8476  12.9230
 13.3413  13.5456  13.8185  13.9332  14.0424  14.1607  14.2818  14.3595
 14.4409  14.7358  15.3314  15.7493  15.9988
 --------------------------------------------------------------
 
          Ground-State Mulliken Net Atomic Charges

     Atom                 Charge (a.u.)
  ----------------------------------------
      1 C                    -0.147009
      2 C                    -0.110423
      3 C                    -0.028992
      4 C                    -0.005387
      5 H                     0.188082
      6 C                     0.000418
      7 C                     0.083678
      8 C                     0.008891
      9 C                    -0.081709
     10 C                    -0.138621
     11 C                     0.073728
     12 H                     0.179627
     13 C                     0.358520
     14 C                     0.363832
     15 N                    -0.101823
     16 C                     0.358125
     17 C                     0.372090
     18 N                    -0.094153
     19 O                    -0.464139
     20 O                    -0.477690
     21 O                    -0.483049
     22 O                    -0.470705
     23 C                    -0.201323
     24 H                     0.141227
     25 H                     0.112328
     26 H                     0.112351
     27 C                    -0.197541
     28 H                     0.134391
     29 H                     0.113009
     30 H                     0.113095
     31 H                     0.212420
     32 C                     0.012587
     33 S                     0.098582
     34 C                    -0.212987
     35 C                    -0.203445
     36 C                    -0.206127
     37 H                     0.188292
     38 H                     0.189141
     39 H                     0.210709
  ----------------------------------------
  Sum of atomic charges =     0.000000

 -----------------------------------------------------------------
                    Cartesian Multipole Moments
 -----------------------------------------------------------------
    Charge (ESU x 10^10)
                 0.0000
    Dipole Moment (Debye)
         X       0.8419      Y       1.7264      Z      -0.5944
       Tot       2.0106
    Quadrupole Moments (Debye-Ang)
        XX    -164.5442     XY       4.1726     YY    -171.6622
        XZ       6.7738     YZ       0.8127     ZZ    -174.6082
    Octopole Moments (Debye-Ang^2)
       XXX     -44.1196    XXY     485.7819    XYY      -1.2585
       YYY    1618.9990    XXZ     -31.9777    XYZ     -23.8480
       YYZ     -23.6668    XZZ      -8.4516    YZZ     555.3131
       ZZZ    -103.5424
    Hexadecapole Moments (Debye-Ang^3)
      XXXX    -960.8478   XXXY       8.1183   XXYY   -2856.1504
      XYYY     211.9653   YYYY  -17266.9626   XXXZ     906.4777
      XXYZ     -81.3538   XYYZ     505.1120   YYYZ    -743.8553
      XXZZ   -1104.5016   XYZZ     -88.6873   YYZZ   -4071.0020
      XZZZ     984.0678   YZZZ     -67.2675   ZZZZ   -5718.1488
 -----------------------------------------------------------------
 Total job time:  253.77s(wall), 7980.70s(cpu) 
 Fri Dec 15 14:59:47 2023

        *************************************************************
        *                                                           *
        *  Thank you very much for using Q-Chem.  Have a nice day.  *
        *                                                           *
        *************************************************************


0 sent ACK to 0 
now end server 0 ... 
cleanup process ... done
remove work dirs ./qchem743322.0 -- ./qchem743322.0
rm -rf ./qchem743322.0
rm -rf ./qchem743322
