You are running Q-Chem version: 5.4.0

#
# job setting
#
local host:  exp-1-56
current dir: /home/rramji/project-csd799/aromodel/pndit-qchem/rotation_run
input file:  Dimethyl_Naphthalene_Dicarboximide_Phi_20_Theta_90_Thiophene.qcin
output file: 
nprocs     : 1
nthreads   : 64
#
# qchem installation setting
#
QC:          /cm/shared/apps/spack/cpu/opt/spack/linux-centos8-zen2/gcc-10.2.0/qchem-5.4-akfmr7b3t57bfs6qan3padb2wnb2i7cl
QCAUX:       /cm/shared/apps/spack/cpu/opt/spack/linux-centos8-zen2/gcc-10.2.0/qchem-5.4-akfmr7b3t57bfs6qan3padb2wnb2i7cl/qcaux
QCPROG:      /cm/shared/apps/spack/cpu/opt/spack/linux-centos8-zen2/gcc-10.2.0/qchem-5.4-akfmr7b3t57bfs6qan3padb2wnb2i7cl/exe/qcprog.exe
QCPROG_S:    /cm/shared/apps/spack/cpu/opt/spack/linux-centos8-zen2/gcc-10.2.0/qchem-5.4-akfmr7b3t57bfs6qan3padb2wnb2i7cl/exe/qcprog.exe_s
PARALLEL:    -DPARALLEL
QCMPI:       mpich
#
# qchem directory setting
#
qcrun:       qchem3163836
QCSCRATCH:   .
QCLOCALSCR:  
QCTMPDIR:    .
QCFILEPREF:  ./qchem3163836
QCSAVEDIR:   
workdirs:    ./qchem3163836
workdir0:    ./qchem3163836
partmpdirs =  
#
# parallel setting
#
QCRSH:           ssh
QCMPI:           mpich
QCMPIRUN:        /cm/shared/apps/spack/cpu/opt/spack/linux-centos8-zen2/gcc-10.2.0/qchem-5.4-akfmr7b3t57bfs6qan3padb2wnb2i7cl/bin/mpi/mpirun_qchem
QCMACHINEFILE:   ./qchem3163836/hostfile
exp-1-56

#
# env setting
#
exported envs:   QC QCAUX QCSCRATCH QCRUNNAME QCFILEPREF QCPROG QCPROG_S GUIFILE

Running Job 1 of 1 Dimethyl_Naphthalene_Dicarboximide_Phi_20_Theta_90_Thiophene.qcin
qchem Dimethyl_Naphthalene_Dicarboximide_Phi_20_Theta_90_Thiophene.qcin_3163836.0 ./qchem3163836/ 1
/cm/shared/apps/spack/cpu/opt/spack/linux-centos8-zen2/gcc-10.2.0/qchem-5.4-akfmr7b3t57bfs6qan3padb2wnb2i7cl/bin/mpi/mpirun_qchem -machinefile ./qchem3163836/hostfile -np 1 /cm/shared/apps/spack/cpu/opt/spack/linux-centos8-zen2/gcc-10.2.0/qchem-5.4-akfmr7b3t57bfs6qan3padb2wnb2i7cl/exe/qcprog.exe Dimethyl_Naphthalene_Dicarboximide_Phi_20_Theta_90_Thiophene.qcin_3163836.0 ./qchem3163836/

Process 0 of 1 is on exp-1-56 - thread support 0
initial socket setup ...start
initial socket setup ...done 
now start server 0 ... 
                  Welcome to Q-Chem
     A Quantum Leap Into The Future Of Chemistry


 Q-Chem 5.4, Q-Chem, Inc., Pleasanton, CA (2021)

 License issued to: University of California, San Diego (site)

 E. Epifanovsky,  A. T. B. Gilbert,  Xintian Feng,  Joonho Lee,  Yuezhi Mao,  
 N. Mardirossian,  P. Pokhilko,  A. White,  M. Wormit,  M. P. Coons,  
 A. L. Dempwolff,  Zhengting Gan,  D. Hait,  P. R. Horn,  L. D. Jacobson,  
 I. Kaliman,  J. Kussmann,  A. W. Lange,  Ka Un Lao,  D. S. Levine,  Jie Liu,  
 S. C. McKenzie,  A. F. Morrison,  K. Nanda,  F. Plasser,  D. R. Rehn,  
 M. L. Vidal,  Zhi-Qiang You,  Ying Zhu,  B. Alam,  B. Albrecht,  
 A. Aldossary,  E. Alguire,  J. H. Andersen,  D. Barton,  K. Begam,  A. Behn,  
 Y. A. Bernard,  E. J. Berquist,  H. Burton,  A. Carreras,  K. Carter-Fenk,  
 R. Chakraborty,  A. D. Chien,  K. D. Closser,  V. Cofer-Shabica,  
 S. Dasgupta,  Jia Deng,  M. de Wergifosse,  M. Diedenhofen,  Hainam Do,  
 S. Ehlert,  Po-Tung Fang,  S. Fatehi,  Qingguo Feng,  J. Gayvert,  
 Qinghui Ge,  G. Gidofalvi,  M. Goldey,  J. Gomes,  C. Gonzalez-Espinoza,  
 S. Gulania,  A. Gunina,  M. W. D. Hanson-Heine,  P. H. P. Harbach,  
 A. W. Hauser,  M. F. Herbst,  M. Hernandez Vera,  M. Hodecker,  
 Z. C. Holden,  S. Houck,  Xunkun Huang,  Kerwin Hui,  B. C. Huynh,  
 M. Ivanov,  Hyunjun Ji,  Hanjie Jiang,  B. Kaduk,  S. Kaehler,  
 K. Khistyaev,  Jaehoon Kim,  P. Klunzinger,  Z. Koczor-Benda,  
 Joong Hoon Koh,  D. Kosenkov,  L. Koulias,  T. Kowalczyk,  C. M. Krauter,  
 K. Kue,  A. Kunitsa,  T. Kus,  A. Landau,  K. V. Lawler,  D. Lefrancois,  
 S. Lehtola,  Rain Li,  Yi-Pei Li,  Jiashu Liang,  M. Liebenthal,  
 Hung-Hsuan Lin,  You-Sheng Lin,  Fenglai Liu,  Kuan-Yu Liu,  
 M. Loipersberger,  A. Luenser,  A. Manjanath,  P. Manohar,  E. Mansoor,  
 S. F. Manzer,  Shan-Ping Mao,  A. V. Marenich,  T. Markovich,  S. Mason,  
 S. A. Maurer,  P. F. McLaughlin,  M. F. S. J. Menger,  J.-M. Mewes,  
 S. A. Mewes,  P. Morgante,  J. W. Mullinax,  T. S. Nguyen-Beck,  
 K. J. Oosterbaan,  G. Paran,  Alexander C. Paul,  Suranjan K. Paul,  
 F. Pavosevic,  Zheng Pei,  S. Prager,  E. I. Proynov,  E. Ramos,  B. Rana,  
 A. E. Rask,  A. Rettig,  R. M. Richard,  F. Rob,  E. Rossomme,  T. Scheele,  
 M. Scheurer,  M. Schneider,  N. Sergueev,  S. M. Sharada,  W. Skomorowski,  
 D. W. Small,  C. J. Stein,  Yu-Chuan Su,  E. J. Sundstrom,  Zhen Tao,  
 J. Thirman,  T. Tsuchimochi,  N. M. Tubman,  S. P. Veccham,  O. Vydrov,  
 J. Wenzel,  J. Witte,  A. Yamada,  Kun Yao,  S. Yeganeh,  S. R. Yost,  
 A. Zech,  Igor Ying Zhang,  Xing Zhang,  Yu Zhang,  D. Zuev,  
 A. Aspuru-Guzik,  A. T. Bell,  N. A. Besley,  K. B. Bravaya,  B. R. Brooks,  
 D. Casanova,  Jeng-Da Chai,  S. Coriani,  C. J. Cramer,  
 A. E. DePrince, III,  R. A. DiStasio Jr.,  A. Dreuw,  B. D. Dunietz,  
 T. R. Furlani,  W. A. Goddard III,  S. Grimme,  S. Hammes-Schiffer,  
 T. Head-Gordon,  W. J. Hehre,  Chao-Ping Hsu,  T.-C. Jagau,  Yousung Jung,  
 A. Klamt,  Jing Kong,  D. S. Lambrecht,  WanZhen Liang,  N. J. Mayhall,  
 C. W. McCurdy,  J. B. Neaton,  C. Ochsenfeld,  J. A. Parkhill,  R. Peverati,  
 V. A. Rassolov,  Yihan Shao,  L. V. Slipchenko,  T. Stauch,  R. P. Steele,  
 J. E. Subotnik,  A. J. W. Thom,  A. Tkatchenko,  D. G. Truhlar,  
 T. Van Voorhis,  T. A. Wesolowski,  K. B. Whaley,  H. L. Woodcock III,  
 P. M. Zimmerman,  S. Faraji,  P. M. W. Gill,  M. Head-Gordon,  
 J. M. Herbert,  A. I. Krylov

 Contributors to earlier versions of Q-Chem not listed above: 
 R. D. Adamson,  B. Austin,  R. Baer,  J. Baker,  G. J. O. Beran,  
 K. Brandhorst,  S. T. Brown,  E. F. C. Byrd,  A. K. Chakraborty,  
 G. K. L. Chan,  Chun-Min Chang,  Yunqing Chen,  C.-L. Cheng,  
 Siu Hung Chien,  D. M. Chipman,  D. L. Crittenden,  H. Dachsel,  
 R. J. Doerksen,  A. D. Dutoi,  R. G. Edgar,  J. Fosso-Tande,  
 L. Fusti-Molnar,  D. Ghosh,  A. Ghysels,  A. Golubeva-Zadorozhnaya,  
 J. Gonthier,  M. S. Gordon,  S. R. Gwaltney,  G. Hawkins,  J. E. Herr,  
 A. Heyden,  S. Hirata,  E. G. Hohenstein,  G. Kedziora,  F. J. Keil,  
 C. Kelley,  Jihan Kim,  R. A. King,  R. Z. Khaliullin,  P. P. Korambath,  
 W. Kurlancheek,  A. Laurent,  A. M. Lee,  M. S. Lee,  S. V. Levchenko,  
 Ching Yeh Lin,  D. Liotard,  E. Livshits,  R. C. Lochan,  I. Lotan,  
 L. A. Martinez-Martinez,  P. E. Maslen,  N. Nair,  D. P. O'Neill,  
 D. Neuhauser,  E. Neuscamman,  C. M. Oana,  R. Olivares-Amaya,  R. Olson,  
 T. M. Perrine,  B. Peters,  P. A. Pieniazek,  A. Prociuk,  Y. M. Rhee,  
 J. Ritchie,  M. A. Rohrdanz,  E. Rosta,  N. J. Russ,  H. F. Schaefer III,  
 M. W. Schmidt,  N. E. Schultz,  S. Sharma,  N. Shenvi,  C. D. Sherrill,  
 A. C. Simmonett,  A. Sodt,  T. Stein,  D. Stuck,  K. S. Thanthiriwatte,  
 V. Vanovschi,  L. Vogt,  Tao Wang,  A. Warshel,  M. A. Watson,  
 C. F. Williams,  Q. Wu,  X. Xu,  Jun Yang,  W. Zhang,  Yan Zhao

 Please cite Q-Chem as follows:
 Y. Shao et al., Mol. Phys. 113, 184-215 (2015)
 DOI: 10.1080/00268976.2014.952696

 Q-Chem 5.4.0 for Intel X86 EM64T Linux

 Parts of Q-Chem use Armadillo 9.800.1 (Horizon Scraper).
 http://arma.sourceforge.net/

 Q-Chem begins on Fri Dec 15 14:10:00 2023  

 Host: 
0

     Scratch files written to ./qchem3163836//
 May1621 |scratch|qcdevops|jenkins|workspace|build_RNUM    
 Parallel job on  1  processors
 Processing $rem in /cm/shared/apps/spack/cpu/opt/spack/linux-centos8-zen2/gcc-10.2.0/qchem-5.4-akfmr7b3t57bfs6qan3padb2wnb2i7cl/config/preferences:
 Processing $rem in /home/rramji/.qchemrc:
 Symmetry turned off for PCM/SM12/SMD calculation
 Core orbitals will be frozen

 Checking the input file for inconsistencies... 	...done.

 Q-Chem warning in module forms1/BasisType.C, line 2236:

 You are not using the predefined 5D/6D in this basis set.


--------------------------------------------------------------
User input:
--------------------------------------------------------------
$molecule
0 1
C	0.256927	-6.741404	-0.001478
C	1.562675	-6.155638	-0.001603
C	-0.827197	-5.791452	-0.001931
C	1.841253	-4.803786	-0.001374
H	2.440709	-6.821518	-0.001794
C	-0.535488	-4.378638	-0.001227
C	0.794999	-3.838032	-0.000872
C	-1.580529	-3.413062	-0.000658
C	1.084374	-2.426473	-0.000186
C	-1.305258	-2.059348	-0.000046
C	-0.000000	-1.478216	-0.000000
H	-2.184267	-1.394783	0.000369
C	-2.269719	-6.187987	-0.003770
C	-3.011152	-3.798164	-0.000767
N	-3.254617	-5.170003	-0.002465
C	3.275775	-4.424987	-0.001433
C	2.527951	-2.036627	0.000576
N	3.513104	-3.049156	-0.000400
O	-2.661046	-7.353131	-0.006623
O	-3.934410	-2.986854	0.000172
O	4.188059	-5.248946	-0.002151
O	2.940845	-0.878829	0.002006
C	-4.667206	-5.563799	-0.003509
H	-4.712423	-6.664085	-0.004658
H	-5.169231	-5.147101	-0.897610
H	-5.169992	-5.148785	0.890935
C	4.904229	-2.587487	0.000039
H	5.546833	-3.483329	-0.001022
H	5.095998	-1.964972	0.894545
H	5.095858	-1.962932	-0.893071
H	0.070974	-7.822318	-0.001797
C	0.000000	0.000000	0.000000
S	0.271091	0.745405	1.580530
C	0.831198	2.284363	0.904911
C	0.341175	0.937861	-0.985400
C	0.792631	2.178516	-0.493528
H	0.260601	0.716417	-2.059934
H	1.093860	3.006347	-1.152593
H	1.132330	3.111961	1.556025
$end

$rem
JOBTYPE		SP
EXCHANGE	HF
CORRELATION	pRIMP2
BASIS		cc-pvtz
METHOD		rimp2
AUX_BASIS	rimp2-cc-pvtz
SOLVENT_METHOD	PCM
PURECART	11111
SYMMETRY	false
MEM_TOTAL	110000
SCF_CONVERGENCE = 6
THRESH=10
GUI = 2
$end



$solvent
dielectric 4.90
$end
--------------------------------------------------------------
 ----------------------------------------------------------------
             Standard Nuclear Orientation (Angstroms)
    I     Atom           X                Y                Z
 ----------------------------------------------------------------
    1      C       0.2569270000    -6.7414040000    -0.0014780000
    2      C       1.5626750000    -6.1556380000    -0.0016030000
    3      C      -0.8271970000    -5.7914520000    -0.0019310000
    4      C       1.8412530000    -4.8037860000    -0.0013740000
    5      H       2.4407090000    -6.8215180000    -0.0017940000
    6      C      -0.5354880000    -4.3786380000    -0.0012270000
    7      C       0.7949990000    -3.8380320000    -0.0008720000
    8      C      -1.5805290000    -3.4130620000    -0.0006580000
    9      C       1.0843740000    -2.4264730000    -0.0001860000
   10      C      -1.3052580000    -2.0593480000    -0.0000460000
   11      C       0.0000000000    -1.4782160000     0.0000000000
   12      H      -2.1842670000    -1.3947830000     0.0003690000
   13      C      -2.2697190000    -6.1879870000    -0.0037700000
   14      C      -3.0111520000    -3.7981640000    -0.0007670000
   15      N      -3.2546170000    -5.1700030000    -0.0024650000
   16      C       3.2757750000    -4.4249870000    -0.0014330000
   17      C       2.5279510000    -2.0366270000     0.0005760000
   18      N       3.5131040000    -3.0491560000    -0.0004000000
   19      O      -2.6610460000    -7.3531310000    -0.0066230000
   20      O      -3.9344100000    -2.9868540000     0.0001720000
   21      O       4.1880590000    -5.2489460000    -0.0021510000
   22      O       2.9408450000    -0.8788290000     0.0020060000
   23      C      -4.6672060000    -5.5637990000    -0.0035090000
   24      H      -4.7124230000    -6.6640850000    -0.0046580000
   25      H      -5.1692310000    -5.1471010000    -0.8976100000
   26      H      -5.1699920000    -5.1487850000     0.8909350000
   27      C       4.9042290000    -2.5874870000     0.0000390000
   28      H       5.5468330000    -3.4833290000    -0.0010220000
   29      H       5.0959980000    -1.9649720000     0.8945450000
   30      H       5.0958580000    -1.9629320000    -0.8930710000
   31      H       0.0709740000    -7.8223180000    -0.0017970000
   32      C       0.0000000000     0.0000000000     0.0000000000
   33      S       0.2710910000     0.7454050000     1.5805300000
   34      C       0.8311980000     2.2843630000     0.9049110000
   35      C       0.3411750000     0.9378610000    -0.9854000000
   36      C       0.7926310000     2.1785160000    -0.4935280000
   37      H       0.2606010000     0.7164170000    -2.0599340000
   38      H       1.0938600000     3.0063470000    -1.1525930000
   39      H       1.1323300000     3.1119610000     1.5560250000
 ----------------------------------------------------------------
 Nuclear Repulsion Energy =        2500.27272547 hartrees
 There are       97 alpha and       97 beta electrons
 Requested basis set is cc-pVTZ
 There are 344 shells and 982 basis functions

 Total QAlloc Memory Limit 110000 MB
 Mega-Array Size       188 MB
 MEM_STATIC part       192 MB
 Discretize the solute cavity surface with Lebedev spheres
	Using 110 Lebedev grid points for each H atom
	Using 194 Lebedev grid points for other atoms
	Atomic van der Waals radii will be scaled by 1.20
 Remove points where switching function is < 1.0e-08
 Keep 2540 surface tesserae and discard 4018 interior tesserae
 Molecular Surface Area = 370.401 Angst**2
 Requested basis set is rimp2-cc-pVTZ
 There are 750 shells and 2588 basis functions
 A cutoff of  1.0D-10 yielded  31793 shell pairs
 There are    245165 function pairs (    318788 Cartesian)
 Smallest overlap matrix eigenvalue = 9.38E-06

 Q-Chem warning in module stvman/mkSTV.C, line 323:

 Overlap eigenvalue is smaller than square root of threshold
 Use THRESH >= 12 to get rid of this warning


 Scale SEOQF with 1.000000e-02/1.000000e-02/1.000000e-01

 Standard Electronic Orientation quadrupole field applied
 Nucleus-field energy     =     0.0000000204 hartrees
 Guess from superposition of atomic densities
 Warning:  Energy on first SCF cycle will be non-variational
 SAD guess density has 194.000000 electrons

 -----------------------------------------------------------------------
  General SCF calculation program by
  Eric Jon Sundstrom, Paul Horn, Yuezhi Mao, Dmitri Zuev, Alec White,
  David Stuck, Shaama M.S., Shane Yost, Joonho Lee, David Small,
  Daniel Levine, Susi Lehtola, Hugh Burton, Evgeny Epifanovsky,
  Bang C. Huynh
 -----------------------------------------------------------------------
 Hartree-Fock
 using 64 threads for integral computing
 -------------------------------------------------------
 OpenMP Integral computing Module                
 Release: version 1.0, May 2013, Q-Chem Inc. Pittsburgh 
 -------------------------------------------------------
 A restricted SCF calculation will be
 performed using DIIS
 SCF converges when DIIS error is below 1.0e-06
 ---------------------------------------
  Cycle       Energy         DIIS error
 ---------------------------------------
    1   -1581.2786485092      1.87e-02  
    2   -1570.1107208118      2.09e-03  
    3   -1570.4368933128      1.63e-03  
    4   -1570.6690273368      2.56e-04  
    5   -1570.6809895012      7.50e-05  
    6   -1570.6820220698      2.78e-05  
    7   -1570.6822540364      1.42e-05  
    8   -1570.6823278304      5.94e-06  
    9   -1570.6823394346      2.30e-06  
   10   -1570.6823414649      7.52e-07  Convergence criterion met
 ---------------------------------------
 SCF time:   CPU 5904.98s  wall 221.00s 

************** Final PCM Free Energy Summary **************
 G_electrostatic  =      -0.02500105 hartree =     -15.68839687 kcal/mol
 G_cavitation     =       0.00000000 hartree =       0.00000000 kcal/mol
 G_dispersion     =       0.00000000 hartree =       0.00000000 kcal/mol
 G_repulsion      =       0.00000000 hartree =       0.00000000 kcal/mol
 --------------------------------------------------
 Non-electrostatic Free Energy =       0.00000000 hartree =       0.00000000 kcal/mol
 Total                         =      -0.02500105 hartree =     -15.68839687 kcal/mol
 --------------------------------------------------
 SCF Energy (H0 + V/2)                       =   -1570.68234146 
 Solute Internal Energy (H0)                 =   -1570.65734041 
 Total Free Energy (H0 + V/2 + non-elec)     =   -1570.68234146 hartree
                                             = -985618.04520169 kcal/mol
***********************************************************

 SCF   energy in the final basis set =    -1570.6823414649
 Total energy in the final basis set =    -1570.6823414649


 --------------------------------------------------------------
  Generalized many-body perturbation theory program
  by Joonho Lee, Fazle Rob, Xintian Feng, Evgeny Epifanovsky

 No regularization used 
 (reg. param. = 0.0000e+00)
  (P|Q)^-1/2 Time:  CPU 132.15 s  wall 2.55 s

 In RI-MP2 calculation: 
 # of frozen core orbitals: 31

 Components of the RIMP2 correlation energy:
        aaaa    correlation energy =        -0.6164469939 a.u.
        abab    correlation energy =        -3.3931299560 a.u.
        bbbb    correlation energy =        -0.6164469939 a.u.
        non-Brillouin singles      =        -0.0000000000 a.u.
        total same-spin energy     =        -1.2328939879 a.u.
        total opposite-spin energy =        -3.3931299560 a.u.

 Total  RIMP2   correlation energy =        -4.6260239439 a.u.
        RIMP2         total energy =     -1575.3083654088 a.u.

 RI-MP2 Energy Time:  CPU 2292.64 s  wall 39.26 s
 
 --------------------------------------------------------------
 
                    Orbital Energies (a.u.)
 --------------------------------------------------------------
 
 Alpha MOs
 -- Occupied --
-91.9906 -20.5586 -20.5563 -20.5560 -20.5553 -15.6311 -15.6308 -11.4002
-11.3962 -11.3929 -11.3903 -11.3143 -11.3073 -11.3030 -11.3011 -11.2993
-11.2990 -11.2871 -11.2870 -11.2853 -11.2832 -11.2808 -11.2768 -11.2646
-11.2645 -11.2567 -11.2493  -8.9899  -6.6707  -6.6702  -6.6696  -1.4248
 -1.4239  -1.4041  -1.4030  -1.2675  -1.2652  -1.2177  -1.1740  -1.1440
 -1.1177  -1.0627  -1.0501  -0.9931  -0.9888  -0.9824  -0.9593  -0.9487
 -0.8970  -0.8798  -0.8768  -0.8614  -0.7947  -0.7771  -0.7731  -0.7591
 -0.7368  -0.7188  -0.7053  -0.6952  -0.6802  -0.6723  -0.6663  -0.6622
 -0.6571  -0.6426  -0.6375  -0.6341  -0.6301  -0.6124  -0.5853  -0.5843
 -0.5775  -0.5730  -0.5661  -0.5641  -0.5614  -0.5552  -0.5527  -0.5486
 -0.5356  -0.5268  -0.5202  -0.5117  -0.4828  -0.4707  -0.4655  -0.4603
 -0.4581  -0.4527  -0.4281  -0.4181  -0.4088  -0.3540  -0.3492  -0.3322
 -0.3254
 -- Virtual --
 -0.0194   0.0648   0.0750   0.0880   0.1143   0.1556   0.1578   0.1590
  0.1652   0.1668   0.1768   0.1838   0.1858   0.1928   0.1962   0.2067
  0.2122   0.2241   0.2273   0.2300   0.2318   0.2381   0.2601   0.2613
  0.2632   0.2918   0.3065   0.3134   0.3162   0.3203   0.3218   0.3333
  0.3414   0.3434   0.3523   0.3559   0.3583   0.3624   0.3699   0.3724
  0.3774   0.3790   0.3896   0.3972   0.4004   0.4016   0.4050   0.4109
  0.4119   0.4205   0.4302   0.4357   0.4380   0.4407   0.4491   0.4537
  0.4554   0.4593   0.4636   0.4651   0.4713   0.4839   0.4876   0.4941
  0.5005   0.5018   0.5077   0.5106   0.5163   0.5255   0.5265   0.5305
  0.5343   0.5376   0.5417   0.5466   0.5497   0.5575   0.5611   0.5645
  0.5708   0.5719   0.5791   0.5813   0.5919   0.5933   0.5964   0.5997
  0.6024   0.6063   0.6104   0.6199   0.6219   0.6237   0.6251   0.6313
  0.6338   0.6344   0.6373   0.6413   0.6447   0.6460   0.6538   0.6672
  0.6736   0.6757   0.6811   0.6944   0.7024   0.7073   0.7105   0.7142
  0.7216   0.7285   0.7332   0.7392   0.7507   0.7565   0.7595   0.7633
  0.7661   0.7685   0.7784   0.7837   0.7950   0.7957   0.8046   0.8121
  0.8217   0.8252   0.8306   0.8389   0.8426   0.8432   0.8491   0.8582
  0.8617   0.8651   0.8697   0.8737   0.8778   0.8871   0.8969   0.8990
  0.9030   0.9167   0.9222   0.9233   0.9310   0.9369   0.9415   0.9430
  0.9487   0.9569   0.9589   0.9635   0.9716   0.9778   0.9839   0.9897
  0.9926   0.9986   0.9996   1.0027   1.0060   1.0148   1.0182   1.0265
  1.0293   1.0342   1.0414   1.0504   1.0599   1.0661   1.0697   1.0739
  1.0762   1.0813   1.0824   1.0875   1.0891   1.0964   1.1081   1.1124
  1.1192   1.1237   1.1346   1.1385   1.1438   1.1476   1.1555   1.1561
  1.1569   1.1648   1.1737   1.1773   1.1793   1.1841   1.1870   1.1964
  1.1994   1.2038   1.2131   1.2153   1.2240   1.2284   1.2352   1.2406
  1.2456   1.2481   1.2490   1.2539   1.2650   1.2791   1.2903   1.2940
  1.3061   1.3249   1.3292   1.3342   1.3387   1.3439   1.3472   1.3562
  1.3681   1.3766   1.3785   1.3815   1.3885   1.3920   1.4042   1.4165
  1.4203   1.4265   1.4332   1.4395   1.4442   1.4503   1.4632   1.4683
  1.4752   1.4841   1.4875   1.4901   1.4972   1.5064   1.5118   1.5192
  1.5282   1.5322   1.5355   1.5435   1.5542   1.5550   1.5591   1.5638
  1.5675   1.5746   1.5800   1.5892   1.6006   1.6041   1.6180   1.6325
  1.6370   1.6443   1.6489   1.6574   1.6638   1.6713   1.6792   1.6886
  1.6954   1.7031   1.7064   1.7140   1.7305   1.7352   1.7430   1.7451
  1.7518   1.7585   1.7665   1.7768   1.7863   1.7981   1.8001   1.8085
  1.8138   1.8204   1.8360   1.8381   1.8521   1.8532   1.8619   1.8650
  1.8695   1.8856   1.8893   1.9073   1.9117   1.9166   1.9342   1.9508
  1.9623   1.9637   1.9730   1.9797   1.9896   1.9996   2.0152   2.0280
  2.0444   2.0570   2.0596   2.0714   2.0973   2.1115   2.1192   2.1320
  2.1434   2.1499   2.1573   2.1659   2.1823   2.2058   2.2117   2.2198
  2.2252   2.2335   2.2558   2.2696   2.2769   2.2893   2.2925   2.2950
  2.3002   2.3187   2.3231   2.3375   2.3560   2.3592   2.3736   2.3950
  2.4014   2.4203   2.4333   2.4421   2.4512   2.4552   2.4571   2.4665
  2.4705   2.4833   2.4938   2.4976   2.5078   2.5146   2.5287   2.5324
  2.5406   2.5601   2.5782   2.5792   2.5861   2.5896   2.6055   2.6077
  2.6157   2.6174   2.6265   2.6415   2.6479   2.6565   2.6649   2.6679
  2.6754   2.6858   2.7010   2.7049   2.7066   2.7158   2.7180   2.7274
  2.7298   2.7451   2.7482   2.7530   2.7581   2.7654   2.7724   2.7907
  2.7998   2.8212   2.8251   2.8285   2.8332   2.8457   2.8487   2.8544
  2.8629   2.8699   2.8749   2.8817   2.8850   2.8919   2.8946   2.9067
  2.9160   2.9264   2.9294   2.9380   2.9495   2.9539   2.9616   2.9651
  2.9762   2.9763   2.9835   2.9878   3.0015   3.0060   3.0123   3.0188
  3.0300   3.0305   3.0333   3.0423   3.0440   3.0601   3.0657   3.0719
  3.0829   3.0906   3.0938   3.1009   3.1096   3.1121   3.1205   3.1233
  3.1279   3.1331   3.1451   3.1542   3.1582   3.1715   3.1739   3.1760
  3.1902   3.1954   3.2008   3.2054   3.2142   3.2159   3.2219   3.2222
  3.2233   3.2292   3.2362   3.2442   3.2497   3.2542   3.2628   3.2643
  3.2699   3.2721   3.2791   3.2837   3.2890   3.2894   3.2946   3.2953
  3.2977   3.3059   3.3167   3.3198   3.3253   3.3274   3.3363   3.3402
  3.3440   3.3445   3.3514   3.3540   3.3561   3.3649   3.3700   3.3747
  3.3777   3.3801   3.3884   3.3899   3.3968   3.3990   3.4058   3.4193
  3.4253   3.4283   3.4316   3.4392   3.4415   3.4454   3.4510   3.4558
  3.4626   3.4632   3.4687   3.4748   3.4783   3.4842   3.4885   3.4943
  3.4983   3.5025   3.5041   3.5055   3.5129   3.5214   3.5232   3.5267
  3.5366   3.5371   3.5478   3.5516   3.5609   3.5680   3.5700   3.5807
  3.5852   3.5888   3.5991   3.6048   3.6087   3.6152   3.6262   3.6302
  3.6341   3.6370   3.6407   3.6436   3.6509   3.6543   3.6641   3.6759
  3.6852   3.6873   3.6977   3.7067   3.7106   3.7117   3.7156   3.7244
  3.7286   3.7332   3.7374   3.7422   3.7503   3.7543   3.7591   3.7657
  3.7686   3.7795   3.7816   3.7903   3.7930   3.7948   3.8000   3.8019
  3.8032   3.8192   3.8205   3.8315   3.8413   3.8434   3.8523   3.8580
  3.8623   3.8670   3.8792   3.8796   3.8852   3.8971   3.9115   3.9149
  3.9214   3.9356   3.9384   3.9450   3.9499   3.9542   3.9587   3.9681
  3.9822   3.9902   4.0021   4.0062   4.0133   4.0230   4.0314   4.0411
  4.0544   4.0608   4.0662   4.0676   4.0806   4.0836   4.0975   4.1047
  4.1127   4.1276   4.1337   4.1398   4.1443   4.1515   4.1575   4.1776
  4.1832   4.1850   4.1888   4.1988   4.1997   4.2165   4.2201   4.2333
  4.2483   4.2545   4.2617   4.2670   4.2718   4.2775   4.2846   4.2892
  4.2911   4.2951   4.2990   4.3001   4.3074   4.3250   4.3306   4.3346
  4.3444   4.3496   4.3607   4.3649   4.3671   4.3698   4.3754   4.3779
  4.3866   4.3956   4.4020   4.4065   4.4122   4.4228   4.4276   4.4337
  4.4462   4.4604   4.4654   4.4775   4.4913   4.5038   4.5145   4.5166
  4.5243   4.5271   4.5368   4.5418   4.5472   4.5549   4.5616   4.5676
  4.5763   4.5805   4.5808   4.5919   4.6017   4.6135   4.6303   4.6328
  4.6415   4.6525   4.6548   4.6672   4.6716   4.6731   4.6896   4.6914
  4.7174   4.7288   4.7300   4.7411   4.7464   4.7703   4.7742   4.7852
  4.8133   4.8192   4.8255   4.8427   4.8477   4.8594   4.8685   4.8776
  4.8861   4.9077   4.9118   4.9314   4.9346   4.9497   4.9674   4.9810
  4.9890   5.0034   5.0218   5.0357   5.0411   5.0487   5.0510   5.0538
  5.0916   5.0989   5.1041   5.1118   5.1250   5.1350   5.1387   5.1454
  5.1655   5.1681   5.1801   5.1929   5.2128   5.2254   5.2347   5.2563
  5.2601   5.2773   5.2840   5.2893   5.3213   5.3279   5.3332   5.3394
  5.3469   5.3914   5.3954   5.4022   5.4176   5.4284   5.4323   5.4641
  5.4881   5.5027   5.5067   5.5086   5.5129   5.5258   5.5438   5.5553
  5.5572   5.5602   5.5667   5.5734   5.5775   5.5899   5.6042   5.6076
  5.6164   5.6353   5.6520   5.6528   5.6543   5.6765   5.6768   5.6862
  5.7015   5.7061   5.7161   5.7360   5.7515   5.7579   5.7658   5.7675
  5.7724   5.7817   5.8121   5.8173   5.8395   5.8518   5.8760   5.9137
  5.9395   5.9521   5.9868   5.9969   6.0214   6.0219   6.0291   6.0440
  6.0768   6.0983   6.1004   6.1126   6.1161   6.1574   6.1909   6.2078
  6.2174   6.2179   6.2207   6.2502   6.2638   6.2680   6.2992   6.3402
  6.3507   6.3872   6.4276   6.4442   6.4650   6.5232   6.5620   6.5690
  6.5850   6.5988   6.6421   6.6472   6.6579   6.6660   6.7022   6.8287
  6.8327   6.8784   6.8859   6.8938   6.9113   6.9243   6.9291   7.0769
  7.0991   7.1381   7.1834   7.1887   7.2271   7.3323   7.3406   7.3443
  7.3537   7.4660   7.5446   7.5573   7.5727   7.5758   7.5879   7.6330
  7.6658   7.6807   7.7211   8.3116   9.8757  10.2738  11.1198  11.2438
 11.6469  11.7240  11.9782  12.3612  12.4434  12.7128  12.8562  12.9228
 13.2443  13.5639  13.8040  13.9337  13.9928  14.1060  14.2135  14.3427
 14.4069  14.7250  15.3225  15.7096  15.9591
 --------------------------------------------------------------
 
          Ground-State Mulliken Net Atomic Charges

     Atom                 Charge (a.u.)
  ----------------------------------------
      1 C                    -0.129599
      2 C                    -0.107602
      3 C                    -0.044671
      4 C                    -0.000049
      5 H                     0.188788
      6 C                    -0.005929
      7 C                     0.068816
      8 C                     0.014990
      9 C                     0.012658
     10 C                    -0.147299
     11 C                     0.074305
     12 H                     0.179149
     13 C                     0.361140
     14 C                     0.368408
     15 N                    -0.101722
     16 C                     0.358353
     17 C                     0.363044
     18 N                    -0.095641
     19 O                    -0.465011
     20 O                    -0.476109
     21 O                    -0.479963
     22 O                    -0.456707
     23 C                    -0.200989
     24 H                     0.141000
     25 H                     0.112308
     26 H                     0.112530
     27 C                    -0.196463
     28 H                     0.133805
     29 H                     0.113416
     30 H                     0.112682
     31 H                     0.214628
     32 C                    -0.061047
     33 S                     0.031254
     34 C                    -0.205800
     35 C                    -0.181964
     36 C                    -0.194181
     37 H                     0.187462
     38 H                     0.190665
     39 H                     0.211344
  ----------------------------------------
  Sum of atomic charges =     0.000000

 -----------------------------------------------------------------
                    Cartesian Multipole Moments
 -----------------------------------------------------------------
    Charge (ESU x 10^10)
                 0.0000
    Dipole Moment (Debye)
         X       0.9129      Y       0.8351      Z      -0.9560
       Tot       1.5635
    Quadrupole Moments (Debye-Ang)
        XX    -183.2202     XY       2.6050     YY    -165.3651
        XZ       0.3110     YZ       0.6407     ZZ    -157.4970
    Octopole Moments (Debye-Ang^2)
       XXX    -105.8414    XXY     553.0694    XYY     -10.6821
       YYY    1584.2216    XXZ     -16.0781    XYZ       2.6185
       YYZ      -9.3748    XZZ     -28.4134    YZZ     479.9935
       ZZZ     -54.3097
    Hexadecapole Moments (Debye-Ang^3)
      XXXX   -6257.7935   XXXY     -83.9620   XXYY   -4230.4455
      XYYY    -846.3886   YYYY  -17057.3626   XXXZ     -17.1689
      XXYZ     -15.6349   XYYZ       1.2603   YYYZ     -35.4888
      XXZZ   -1069.3176   XYZZ    -134.2551   YYZZ   -2690.1936
      XZZZ     -14.9780   YZZZ     -43.4764   ZZZZ    -460.1670
 -----------------------------------------------------------------
 Total job time:  274.23s(wall), 8334.22s(cpu) 
 Fri Dec 15 14:14:34 2023

        *************************************************************
        *                                                           *
        *  Thank you very much for using Q-Chem.  Have a nice day.  *
        *                                                           *
        *************************************************************


0 sent ACK to 0 
now end server 0 ... 
cleanup process ... done
remove work dirs ./qchem3163836.0 -- ./qchem3163836.0
rm -rf ./qchem3163836.0
rm -rf ./qchem3163836
