You are running Q-Chem version: 5.4.0

#
# job setting
#
local host:  exp-4-09
current dir: /home/rramji/project-csd799/aromodel/pndit-qchem/rotation_run
input file:  Dimethyl_Naphthalene_Dicarboximide_Phi_40_Theta_130_Thiophene.qcin
output file: 
nprocs     : 1
nthreads   : 64
#
# qchem installation setting
#
QC:          /cm/shared/apps/spack/cpu/opt/spack/linux-centos8-zen2/gcc-10.2.0/qchem-5.4-akfmr7b3t57bfs6qan3padb2wnb2i7cl
QCAUX:       /cm/shared/apps/spack/cpu/opt/spack/linux-centos8-zen2/gcc-10.2.0/qchem-5.4-akfmr7b3t57bfs6qan3padb2wnb2i7cl/qcaux
QCPROG:      /cm/shared/apps/spack/cpu/opt/spack/linux-centos8-zen2/gcc-10.2.0/qchem-5.4-akfmr7b3t57bfs6qan3padb2wnb2i7cl/exe/qcprog.exe
QCPROG_S:    /cm/shared/apps/spack/cpu/opt/spack/linux-centos8-zen2/gcc-10.2.0/qchem-5.4-akfmr7b3t57bfs6qan3padb2wnb2i7cl/exe/qcprog.exe_s
PARALLEL:    -DPARALLEL
QCMPI:       mpich
#
# qchem directory setting
#
qcrun:       qchem2780507
QCSCRATCH:   .
QCLOCALSCR:  
QCTMPDIR:    .
QCFILEPREF:  ./qchem2780507
QCSAVEDIR:   
workdirs:    ./qchem2780507
workdir0:    ./qchem2780507
partmpdirs =  
#
# parallel setting
#
QCRSH:           ssh
QCMPI:           mpich
QCMPIRUN:        /cm/shared/apps/spack/cpu/opt/spack/linux-centos8-zen2/gcc-10.2.0/qchem-5.4-akfmr7b3t57bfs6qan3padb2wnb2i7cl/bin/mpi/mpirun_qchem
QCMACHINEFILE:   ./qchem2780507/hostfile
exp-4-09

#
# env setting
#
exported envs:   QC QCAUX QCSCRATCH QCRUNNAME QCFILEPREF QCPROG QCPROG_S GUIFILE

Running Job 1 of 1 Dimethyl_Naphthalene_Dicarboximide_Phi_40_Theta_130_Thiophene.qcin
qchem Dimethyl_Naphthalene_Dicarboximide_Phi_40_Theta_130_Thiophene.qcin_2780507.0 ./qchem2780507/ 1
/cm/shared/apps/spack/cpu/opt/spack/linux-centos8-zen2/gcc-10.2.0/qchem-5.4-akfmr7b3t57bfs6qan3padb2wnb2i7cl/bin/mpi/mpirun_qchem -machinefile ./qchem2780507/hostfile -np 1 /cm/shared/apps/spack/cpu/opt/spack/linux-centos8-zen2/gcc-10.2.0/qchem-5.4-akfmr7b3t57bfs6qan3padb2wnb2i7cl/exe/qcprog.exe Dimethyl_Naphthalene_Dicarboximide_Phi_40_Theta_130_Thiophene.qcin_2780507.0 ./qchem2780507/

Process 0 of 1 is on exp-4-09 - thread support 0
initial socket setup ...start
initial socket setup ...done 
now start server 0 ... 
                  Welcome to Q-Chem
     A Quantum Leap Into The Future Of Chemistry


 Q-Chem 5.4, Q-Chem, Inc., Pleasanton, CA (2021)

 License issued to: University of California, San Diego (site)

 E. Epifanovsky,  A. T. B. Gilbert,  Xintian Feng,  Joonho Lee,  Yuezhi Mao,  
 N. Mardirossian,  P. Pokhilko,  A. White,  M. Wormit,  M. P. Coons,  
 A. L. Dempwolff,  Zhengting Gan,  D. Hait,  P. R. Horn,  L. D. Jacobson,  
 I. Kaliman,  J. Kussmann,  A. W. Lange,  Ka Un Lao,  D. S. Levine,  Jie Liu,  
 S. C. McKenzie,  A. F. Morrison,  K. Nanda,  F. Plasser,  D. R. Rehn,  
 M. L. Vidal,  Zhi-Qiang You,  Ying Zhu,  B. Alam,  B. Albrecht,  
 A. Aldossary,  E. Alguire,  J. H. Andersen,  D. Barton,  K. Begam,  A. Behn,  
 Y. A. Bernard,  E. J. Berquist,  H. Burton,  A. Carreras,  K. Carter-Fenk,  
 R. Chakraborty,  A. D. Chien,  K. D. Closser,  V. Cofer-Shabica,  
 S. Dasgupta,  Jia Deng,  M. de Wergifosse,  M. Diedenhofen,  Hainam Do,  
 S. Ehlert,  Po-Tung Fang,  S. Fatehi,  Qingguo Feng,  J. Gayvert,  
 Qinghui Ge,  G. Gidofalvi,  M. Goldey,  J. Gomes,  C. Gonzalez-Espinoza,  
 S. Gulania,  A. Gunina,  M. W. D. Hanson-Heine,  P. H. P. Harbach,  
 A. W. Hauser,  M. F. Herbst,  M. Hernandez Vera,  M. Hodecker,  
 Z. C. Holden,  S. Houck,  Xunkun Huang,  Kerwin Hui,  B. C. Huynh,  
 M. Ivanov,  Hyunjun Ji,  Hanjie Jiang,  B. Kaduk,  S. Kaehler,  
 K. Khistyaev,  Jaehoon Kim,  P. Klunzinger,  Z. Koczor-Benda,  
 Joong Hoon Koh,  D. Kosenkov,  L. Koulias,  T. Kowalczyk,  C. M. Krauter,  
 K. Kue,  A. Kunitsa,  T. Kus,  A. Landau,  K. V. Lawler,  D. Lefrancois,  
 S. Lehtola,  Rain Li,  Yi-Pei Li,  Jiashu Liang,  M. Liebenthal,  
 Hung-Hsuan Lin,  You-Sheng Lin,  Fenglai Liu,  Kuan-Yu Liu,  
 M. Loipersberger,  A. Luenser,  A. Manjanath,  P. Manohar,  E. Mansoor,  
 S. F. Manzer,  Shan-Ping Mao,  A. V. Marenich,  T. Markovich,  S. Mason,  
 S. A. Maurer,  P. F. McLaughlin,  M. F. S. J. Menger,  J.-M. Mewes,  
 S. A. Mewes,  P. Morgante,  J. W. Mullinax,  T. S. Nguyen-Beck,  
 K. J. Oosterbaan,  G. Paran,  Alexander C. Paul,  Suranjan K. Paul,  
 F. Pavosevic,  Zheng Pei,  S. Prager,  E. I. Proynov,  E. Ramos,  B. Rana,  
 A. E. Rask,  A. Rettig,  R. M. Richard,  F. Rob,  E. Rossomme,  T. Scheele,  
 M. Scheurer,  M. Schneider,  N. Sergueev,  S. M. Sharada,  W. Skomorowski,  
 D. W. Small,  C. J. Stein,  Yu-Chuan Su,  E. J. Sundstrom,  Zhen Tao,  
 J. Thirman,  T. Tsuchimochi,  N. M. Tubman,  S. P. Veccham,  O. Vydrov,  
 J. Wenzel,  J. Witte,  A. Yamada,  Kun Yao,  S. Yeganeh,  S. R. Yost,  
 A. Zech,  Igor Ying Zhang,  Xing Zhang,  Yu Zhang,  D. Zuev,  
 A. Aspuru-Guzik,  A. T. Bell,  N. A. Besley,  K. B. Bravaya,  B. R. Brooks,  
 D. Casanova,  Jeng-Da Chai,  S. Coriani,  C. J. Cramer,  
 A. E. DePrince, III,  R. A. DiStasio Jr.,  A. Dreuw,  B. D. Dunietz,  
 T. R. Furlani,  W. A. Goddard III,  S. Grimme,  S. Hammes-Schiffer,  
 T. Head-Gordon,  W. J. Hehre,  Chao-Ping Hsu,  T.-C. Jagau,  Yousung Jung,  
 A. Klamt,  Jing Kong,  D. S. Lambrecht,  WanZhen Liang,  N. J. Mayhall,  
 C. W. McCurdy,  J. B. Neaton,  C. Ochsenfeld,  J. A. Parkhill,  R. Peverati,  
 V. A. Rassolov,  Yihan Shao,  L. V. Slipchenko,  T. Stauch,  R. P. Steele,  
 J. E. Subotnik,  A. J. W. Thom,  A. Tkatchenko,  D. G. Truhlar,  
 T. Van Voorhis,  T. A. Wesolowski,  K. B. Whaley,  H. L. Woodcock III,  
 P. M. Zimmerman,  S. Faraji,  P. M. W. Gill,  M. Head-Gordon,  
 J. M. Herbert,  A. I. Krylov

 Contributors to earlier versions of Q-Chem not listed above: 
 R. D. Adamson,  B. Austin,  R. Baer,  J. Baker,  G. J. O. Beran,  
 K. Brandhorst,  S. T. Brown,  E. F. C. Byrd,  A. K. Chakraborty,  
 G. K. L. Chan,  Chun-Min Chang,  Yunqing Chen,  C.-L. Cheng,  
 Siu Hung Chien,  D. M. Chipman,  D. L. Crittenden,  H. Dachsel,  
 R. J. Doerksen,  A. D. Dutoi,  R. G. Edgar,  J. Fosso-Tande,  
 L. Fusti-Molnar,  D. Ghosh,  A. Ghysels,  A. Golubeva-Zadorozhnaya,  
 J. Gonthier,  M. S. Gordon,  S. R. Gwaltney,  G. Hawkins,  J. E. Herr,  
 A. Heyden,  S. Hirata,  E. G. Hohenstein,  G. Kedziora,  F. J. Keil,  
 C. Kelley,  Jihan Kim,  R. A. King,  R. Z. Khaliullin,  P. P. Korambath,  
 W. Kurlancheek,  A. Laurent,  A. M. Lee,  M. S. Lee,  S. V. Levchenko,  
 Ching Yeh Lin,  D. Liotard,  E. Livshits,  R. C. Lochan,  I. Lotan,  
 L. A. Martinez-Martinez,  P. E. Maslen,  N. Nair,  D. P. O'Neill,  
 D. Neuhauser,  E. Neuscamman,  C. M. Oana,  R. Olivares-Amaya,  R. Olson,  
 T. M. Perrine,  B. Peters,  P. A. Pieniazek,  A. Prociuk,  Y. M. Rhee,  
 J. Ritchie,  M. A. Rohrdanz,  E. Rosta,  N. J. Russ,  H. F. Schaefer III,  
 M. W. Schmidt,  N. E. Schultz,  S. Sharma,  N. Shenvi,  C. D. Sherrill,  
 A. C. Simmonett,  A. Sodt,  T. Stein,  D. Stuck,  K. S. Thanthiriwatte,  
 V. Vanovschi,  L. Vogt,  Tao Wang,  A. Warshel,  M. A. Watson,  
 C. F. Williams,  Q. Wu,  X. Xu,  Jun Yang,  W. Zhang,  Yan Zhao

 Please cite Q-Chem as follows:
 Y. Shao et al., Mol. Phys. 113, 184-215 (2015)
 DOI: 10.1080/00268976.2014.952696

 Q-Chem 5.4.0 for Intel X86 EM64T Linux

 Parts of Q-Chem use Armadillo 9.800.1 (Horizon Scraper).
 http://arma.sourceforge.net/

 Q-Chem begins on Fri Dec 15 14:26:24 2023  

 Host: 
0

     Scratch files written to ./qchem2780507//
 May1621 |scratch|qcdevops|jenkins|workspace|build_RNUM    
 Parallel job on  1  processors
 Processing $rem in /cm/shared/apps/spack/cpu/opt/spack/linux-centos8-zen2/gcc-10.2.0/qchem-5.4-akfmr7b3t57bfs6qan3padb2wnb2i7cl/config/preferences:
 Processing $rem in /home/rramji/.qchemrc:
 Symmetry turned off for PCM/SM12/SMD calculation
 Core orbitals will be frozen

 Checking the input file for inconsistencies... 	...done.

 Q-Chem warning in module forms1/BasisType.C, line 2236:

 You are not using the predefined 5D/6D in this basis set.


--------------------------------------------------------------
User input:
--------------------------------------------------------------
$molecule
0 1
C	0.197767	-6.741404	0.164018
C	1.198109	-6.155638	1.003240
C	-0.632428	-5.791452	-0.533192
C	1.411364	-4.803786	1.182482
H	1.870845	-6.821518	1.567483
C	-0.409419	-4.378638	-0.345145
C	0.609565	-3.838032	0.510347
C	-1.210332	-3.413062	-1.016449
C	0.830799	-2.426473	0.696879
C	-0.999856	-2.059348	-0.839039
C	0.000000	-1.478216	0.000000
H	-1.673483	-1.394783	-1.403737
C	-1.736282	-6.187987	-1.461835
C	-2.306183	-3.798164	-1.936119
N	-2.491597	-5.170003	-2.093916
C	2.510310	-4.424987	2.104529
C	1.936153	-2.036627	1.625377
N	2.691451	-3.049156	2.257873
O	-2.034222	-7.353131	-1.715561
O	-3.014044	-2.986854	-2.528858
O	3.209622	-5.248946	2.690385
O	2.251529	-0.878829	1.891876
C	-3.573032	-5.563799	-3.002711
H	-3.606932	-6.664085	-3.032655
H	-3.382888	-5.147101	-4.010326
H	-4.533125	-5.148785	-2.640711
C	3.756832	-2.587487	3.152408
H	4.249778	-3.483329	3.564653
H	3.328759	-1.964972	3.960905
H	4.477709	-1.962932	2.591422
H	0.055524	-7.822318	0.044245
C	0.000000	0.000000	0.000000
S	0.509686	0.607733	1.580530
C	1.562368	1.862312	0.904911
C	0.641367	0.764613	-0.985400
C	1.489926	1.776040	-0.493528
H	0.489914	0.584081	-2.059934
H	2.056124	2.450920	-1.152593
H	2.128395	2.537007	1.556025
$end

$rem
JOBTYPE		SP
EXCHANGE	HF
CORRELATION	pRIMP2
BASIS		cc-pvtz
METHOD		rimp2
AUX_BASIS	rimp2-cc-pvtz
SOLVENT_METHOD	PCM
PURECART	11111
SYMMETRY	false
MEM_TOTAL	110000
SCF_CONVERGENCE = 6
THRESH=10
GUI = 2
$end



$solvent
dielectric 4.90
$end
--------------------------------------------------------------
 ----------------------------------------------------------------
             Standard Nuclear Orientation (Angstroms)
    I     Atom           X                Y                Z
 ----------------------------------------------------------------
    1      C       0.1977670000    -6.7414040000     0.1640180000
    2      C       1.1981090000    -6.1556380000     1.0032400000
    3      C      -0.6324280000    -5.7914520000    -0.5331920000
    4      C       1.4113640000    -4.8037860000     1.1824820000
    5      H       1.8708450000    -6.8215180000     1.5674830000
    6      C      -0.4094190000    -4.3786380000    -0.3451450000
    7      C       0.6095650000    -3.8380320000     0.5103470000
    8      C      -1.2103320000    -3.4130620000    -1.0164490000
    9      C       0.8307990000    -2.4264730000     0.6968790000
   10      C      -0.9998560000    -2.0593480000    -0.8390390000
   11      C       0.0000000000    -1.4782160000     0.0000000000
   12      H      -1.6734830000    -1.3947830000    -1.4037370000
   13      C      -1.7362820000    -6.1879870000    -1.4618350000
   14      C      -2.3061830000    -3.7981640000    -1.9361190000
   15      N      -2.4915970000    -5.1700030000    -2.0939160000
   16      C       2.5103100000    -4.4249870000     2.1045290000
   17      C       1.9361530000    -2.0366270000     1.6253770000
   18      N       2.6914510000    -3.0491560000     2.2578730000
   19      O      -2.0342220000    -7.3531310000    -1.7155610000
   20      O      -3.0140440000    -2.9868540000    -2.5288580000
   21      O       3.2096220000    -5.2489460000     2.6903850000
   22      O       2.2515290000    -0.8788290000     1.8918760000
   23      C      -3.5730320000    -5.5637990000    -3.0027110000
   24      H      -3.6069320000    -6.6640850000    -3.0326550000
   25      H      -3.3828880000    -5.1471010000    -4.0103260000
   26      H      -4.5331250000    -5.1487850000    -2.6407110000
   27      C       3.7568320000    -2.5874870000     3.1524080000
   28      H       4.2497780000    -3.4833290000     3.5646530000
   29      H       3.3287590000    -1.9649720000     3.9609050000
   30      H       4.4777090000    -1.9629320000     2.5914220000
   31      H       0.0555240000    -7.8223180000     0.0442450000
   32      C       0.0000000000     0.0000000000     0.0000000000
   33      S       0.5096860000     0.6077330000     1.5805300000
   34      C       1.5623680000     1.8623120000     0.9049110000
   35      C       0.6413670000     0.7646130000    -0.9854000000
   36      C       1.4899260000     1.7760400000    -0.4935280000
   37      H       0.4899140000     0.5840810000    -2.0599340000
   38      H       2.0561240000     2.4509200000    -1.1525930000
   39      H       2.1283950000     2.5370070000     1.5560250000
 ----------------------------------------------------------------
 Nuclear Repulsion Energy =        2531.73954418 hartrees
 There are       97 alpha and       97 beta electrons
 Requested basis set is cc-pVTZ
 There are 344 shells and 982 basis functions

 Total QAlloc Memory Limit 110000 MB
 Mega-Array Size       188 MB
 MEM_STATIC part       192 MB
 Discretize the solute cavity surface with Lebedev spheres
	Using 110 Lebedev grid points for each H atom
	Using 194 Lebedev grid points for other atoms
	Atomic van der Waals radii will be scaled by 1.20
 Remove points where switching function is < 1.0e-08
 Keep 2484 surface tesserae and discard 4074 interior tesserae
 Molecular Surface Area = 360.064 Angst**2
 Requested basis set is rimp2-cc-pVTZ
 There are 750 shells and 2588 basis functions
 A cutoff of  1.0D-10 yielded  32245 shell pairs
 There are    248071 function pairs (    322343 Cartesian)
 Smallest overlap matrix eigenvalue = 9.51E-06

 Q-Chem warning in module stvman/mkSTV.C, line 323:

 Overlap eigenvalue is smaller than square root of threshold
 Use THRESH >= 12 to get rid of this warning


 Scale SEOQF with 1.000000e-01/1.000000e-02/1.000000e-01

 Standard Electronic Orientation quadrupole field applied
 Nucleus-field energy     =    -0.0000000120 hartrees
 Guess from superposition of atomic densities
 Warning:  Energy on first SCF cycle will be non-variational
 SAD guess density has 194.000000 electrons

 -----------------------------------------------------------------------
  General SCF calculation program by
  Eric Jon Sundstrom, Paul Horn, Yuezhi Mao, Dmitri Zuev, Alec White,
  David Stuck, Shaama M.S., Shane Yost, Joonho Lee, David Small,
  Daniel Levine, Susi Lehtola, Hugh Burton, Evgeny Epifanovsky,
  Bang C. Huynh
 -----------------------------------------------------------------------
 Hartree-Fock
 using 64 threads for integral computing
 -------------------------------------------------------
 OpenMP Integral computing Module                
 Release: version 1.0, May 2013, Q-Chem Inc. Pittsburgh 
 -------------------------------------------------------
 A restricted SCF calculation will be
 performed using DIIS
 SCF converges when DIIS error is below 1.0e-06
 ---------------------------------------
  Cycle       Energy         DIIS error
 ---------------------------------------
    1   -1581.4258315473      1.88e-02  
    2   -1570.0566278193      2.08e-03  
    3   -1570.3788346795      1.62e-03  
    4   -1570.6073373845      2.60e-04  
    5   -1570.6196153584      7.64e-05  
    6   -1570.6206996064      2.77e-05  
    7   -1570.6209568578      1.42e-05  
    8   -1570.6210408209      6.14e-06  
    9   -1570.6210563384      2.59e-06  
   10   -1570.6210598123      1.08e-06  
   11   -1570.6210605386      4.84e-07  Convergence criterion met
 ---------------------------------------
 SCF time:   CPU 6280.23s  wall 232.00s 

************** Final PCM Free Energy Summary **************
 G_electrostatic  =      -0.02247791 hartree =     -14.10509924 kcal/mol
 G_cavitation     =       0.00000000 hartree =       0.00000000 kcal/mol
 G_dispersion     =       0.00000000 hartree =       0.00000000 kcal/mol
 G_repulsion      =       0.00000000 hartree =       0.00000000 kcal/mol
 --------------------------------------------------
 Non-electrostatic Free Energy =       0.00000000 hartree =       0.00000000 kcal/mol
 Total                         =      -0.02247791 hartree =     -14.10509924 kcal/mol
 --------------------------------------------------
 SCF Energy (H0 + V/2)                       =   -1570.62106054 
 Solute Internal Energy (H0)                 =   -1570.59858263 
 Total Free Energy (H0 + V/2 + non-elec)     =   -1570.62106054 hartree
                                             = -985579.59084002 kcal/mol
***********************************************************

 SCF   energy in the final basis set =    -1570.6210605386
 Total energy in the final basis set =    -1570.6210605386


 --------------------------------------------------------------
  Generalized many-body perturbation theory program
  by Joonho Lee, Fazle Rob, Xintian Feng, Evgeny Epifanovsky

 No regularization used 
 (reg. param. = 0.0000e+00)
  (P|Q)^-1/2 Time:  CPU 111.18 s  wall 2.54 s

 In RI-MP2 calculation: 
 # of frozen core orbitals: 31

 Components of the RIMP2 correlation energy:
        aaaa    correlation energy =        -0.6211342717 a.u.
        abab    correlation energy =        -3.4032990248 a.u.
        bbbb    correlation energy =        -0.6211342717 a.u.
        non-Brillouin singles      =        -0.0000000000 a.u.
        total same-spin energy     =        -1.2422685435 a.u.
        total opposite-spin energy =        -3.4032990248 a.u.

 Total  RIMP2   correlation energy =        -4.6455675683 a.u.
        RIMP2         total energy =     -1575.2666281069 a.u.

 RI-MP2 Energy Time:  CPU 1843.36 s  wall 30.79 s
 
 --------------------------------------------------------------
 
                    Orbital Energies (a.u.)
 --------------------------------------------------------------
 
 Alpha MOs
 -- Occupied --
-91.9808 -20.5583 -20.5558 -20.5538 -20.5503 -15.6307 -15.6303 -11.3996
-11.3955 -11.3913 -11.3898 -11.3165 -11.3018 -11.2999 -11.2981 -11.2948
-11.2944 -11.2870 -11.2849 -11.2834 -11.2790 -11.2736 -11.2730 -11.2648
-11.2643 -11.2631 -11.2451  -8.9810  -6.6612  -6.6610  -6.6605  -1.4266
 -1.4244  -1.4048  -1.4038  -1.2675  -1.2654  -1.2159  -1.1746  -1.1416
 -1.1154  -1.0604  -1.0480  -0.9923  -0.9879  -0.9829  -0.9586  -0.9471
 -0.8956  -0.8790  -0.8737  -0.8612  -0.7906  -0.7767  -0.7740  -0.7589
 -0.7329  -0.7203  -0.7033  -0.6929  -0.6841  -0.6722  -0.6658  -0.6620
 -0.6563  -0.6438  -0.6381  -0.6358  -0.6279  -0.6122  -0.5853  -0.5825
 -0.5762  -0.5710  -0.5691  -0.5645  -0.5627  -0.5555  -0.5544  -0.5483
 -0.5368  -0.5244  -0.5204  -0.5085  -0.4805  -0.4701  -0.4629  -0.4569
 -0.4549  -0.4459  -0.4262  -0.4181  -0.4083  -0.3633  -0.3354  -0.3136
 -0.3074
 -- Virtual --
 -0.0182   0.0591   0.0712   0.0923   0.1211   0.1527   0.1576   0.1622
  0.1665   0.1678   0.1784   0.1837   0.1861   0.1868   0.2028   0.2074
  0.2175   0.2249   0.2274   0.2312   0.2362   0.2466   0.2583   0.2621
  0.2650   0.2909   0.3072   0.3119   0.3176   0.3225   0.3297   0.3330
  0.3403   0.3485   0.3515   0.3548   0.3586   0.3606   0.3669   0.3721
  0.3788   0.3805   0.3893   0.3974   0.3994   0.4027   0.4063   0.4108
  0.4165   0.4241   0.4301   0.4357   0.4408   0.4447   0.4481   0.4531
  0.4560   0.4585   0.4614   0.4751   0.4795   0.4855   0.4881   0.4994
  0.5044   0.5092   0.5144   0.5166   0.5219   0.5224   0.5298   0.5303
  0.5357   0.5381   0.5398   0.5513   0.5538   0.5565   0.5617   0.5645
  0.5753   0.5780   0.5833   0.5868   0.5896   0.5943   0.5963   0.6006
  0.6088   0.6095   0.6153   0.6159   0.6209   0.6236   0.6241   0.6340
  0.6355   0.6369   0.6371   0.6421   0.6438   0.6468   0.6516   0.6737
  0.6851   0.6862   0.6883   0.6993   0.7021   0.7059   0.7164   0.7193
  0.7263   0.7352   0.7364   0.7391   0.7489   0.7569   0.7614   0.7644
  0.7681   0.7804   0.7854   0.7958   0.8019   0.8077   0.8138   0.8161
  0.8222   0.8305   0.8352   0.8433   0.8460   0.8511   0.8558   0.8611
  0.8650   0.8684   0.8741   0.8814   0.8841   0.8898   0.8971   0.9012
  0.9091   0.9160   0.9242   0.9273   0.9308   0.9353   0.9398   0.9492
  0.9530   0.9594   0.9653   0.9694   0.9746   0.9798   0.9817   0.9867
  0.9890   0.9977   1.0037   1.0091   1.0118   1.0228   1.0298   1.0351
  1.0385   1.0458   1.0490   1.0551   1.0652   1.0687   1.0726   1.0793
  1.0829   1.0844   1.0870   1.0912   1.1002   1.1081   1.1160   1.1251
  1.1326   1.1332   1.1373   1.1393   1.1438   1.1489   1.1547   1.1624
  1.1652   1.1675   1.1750   1.1810   1.1835   1.1889   1.1931   1.1993
  1.2026   1.2100   1.2128   1.2189   1.2293   1.2295   1.2383   1.2409
  1.2480   1.2507   1.2617   1.2651   1.2717   1.2874   1.2911   1.2987
  1.3206   1.3315   1.3337   1.3384   1.3450   1.3519   1.3645   1.3698
  1.3733   1.3807   1.3838   1.3867   1.3934   1.3973   1.4029   1.4155
  1.4233   1.4269   1.4326   1.4426   1.4475   1.4551   1.4614   1.4631
  1.4815   1.4860   1.4905   1.4934   1.5037   1.5056   1.5125   1.5255
  1.5292   1.5334   1.5349   1.5436   1.5514   1.5541   1.5609   1.5633
  1.5687   1.5730   1.5764   1.5869   1.5918   1.5995   1.6105   1.6269
  1.6443   1.6491   1.6512   1.6635   1.6711   1.6782   1.6816   1.6920
  1.6942   1.7081   1.7199   1.7221   1.7314   1.7333   1.7460   1.7488
  1.7524   1.7632   1.7680   1.7767   1.7847   1.7942   1.8026   1.8096
  1.8181   1.8257   1.8397   1.8454   1.8540   1.8576   1.8603   1.8675
  1.8754   1.8795   1.8815   1.9141   1.9242   1.9289   1.9409   1.9544
  1.9624   1.9723   1.9748   1.9824   2.0006   2.0167   2.0275   2.0319
  2.0511   2.0542   2.0690   2.0840   2.1011   2.1186   2.1240   2.1363
  2.1430   2.1555   2.1766   2.1851   2.1957   2.1974   2.2260   2.2311
  2.2422   2.2543   2.2606   2.2783   2.2881   2.2947   2.3024   2.3114
  2.3141   2.3225   2.3344   2.3456   2.3583   2.3696   2.3787   2.3920
  2.4155   2.4299   2.4341   2.4444   2.4523   2.4572   2.4609   2.4737
  2.4822   2.4976   2.5010   2.5058   2.5270   2.5350   2.5415   2.5574
  2.5611   2.5787   2.5902   2.5912   2.5950   2.6056   2.6103   2.6154
  2.6235   2.6337   2.6406   2.6502   2.6617   2.6664   2.6687   2.6762
  2.6831   2.6993   2.7031   2.7077   2.7127   2.7209   2.7250   2.7364
  2.7430   2.7469   2.7562   2.7579   2.7719   2.7802   2.7889   2.7947
  2.8105   2.8230   2.8290   2.8443   2.8488   2.8526   2.8571   2.8649
  2.8682   2.8796   2.8822   2.8895   2.8964   2.8983   2.9029   2.9154
  2.9203   2.9277   2.9374   2.9398   2.9498   2.9523   2.9621   2.9719
  2.9771   2.9823   2.9874   3.0002   3.0068   3.0123   3.0173   3.0228
  3.0292   3.0321   3.0387   3.0461   3.0494   3.0713   3.0747   3.0810
  3.0893   3.0914   3.0982   3.1021   3.1095   3.1132   3.1205   3.1271
  3.1307   3.1376   3.1540   3.1567   3.1659   3.1707   3.1758   3.1870
  3.1887   3.2010   3.2034   3.2097   3.2121   3.2206   3.2255   3.2262
  3.2290   3.2297   3.2408   3.2471   3.2516   3.2566   3.2569   3.2625
  3.2703   3.2767   3.2788   3.2814   3.2876   3.2933   3.2984   3.3042
  3.3057   3.3177   3.3194   3.3249   3.3269   3.3305   3.3351   3.3396
  3.3458   3.3477   3.3515   3.3571   3.3636   3.3682   3.3695   3.3746
  3.3789   3.3868   3.3899   3.4011   3.4056   3.4060   3.4142   3.4163
  3.4227   3.4287   3.4332   3.4354   3.4445   3.4518   3.4538   3.4558
  3.4617   3.4657   3.4697   3.4762   3.4832   3.4855   3.4887   3.4986
  3.5005   3.5009   3.5059   3.5060   3.5191   3.5198   3.5277   3.5305
  3.5337   3.5374   3.5457   3.5470   3.5615   3.5729   3.5743   3.5788
  3.5861   3.5965   3.6070   3.6103   3.6134   3.6199   3.6277   3.6343
  3.6364   3.6421   3.6438   3.6536   3.6579   3.6652   3.6678   3.6740
  3.6861   3.6953   3.7031   3.7100   3.7112   3.7162   3.7180   3.7278
  3.7331   3.7371   3.7407   3.7476   3.7533   3.7604   3.7650   3.7693
  3.7775   3.7825   3.7845   3.7942   3.7964   3.7990   3.8030   3.8088
  3.8105   3.8324   3.8374   3.8417   3.8468   3.8522   3.8595   3.8600
  3.8635   3.8790   3.8812   3.8856   3.8911   3.9161   3.9216   3.9280
  3.9338   3.9368   3.9421   3.9463   3.9538   3.9584   3.9691   3.9729
  3.9848   4.0022   4.0053   4.0096   4.0199   4.0250   4.0327   4.0488
  4.0554   4.0643   4.0673   4.0752   4.0858   4.0909   4.1028   4.1086
  4.1253   4.1280   4.1413   4.1504   4.1569   4.1587   4.1732   4.1772
  4.1781   4.1885   4.1928   4.2003   4.2096   4.2168   4.2355   4.2397
  4.2427   4.2562   4.2592   4.2749   4.2768   4.2810   4.2881   4.2911
  4.2946   4.2990   4.3031   4.3150   4.3216   4.3265   4.3311   4.3396
  4.3462   4.3523   4.3546   4.3656   4.3677   4.3728   4.3779   4.3826
  4.3920   4.3996   4.4034   4.4104   4.4203   4.4212   4.4295   4.4416
  4.4496   4.4614   4.4687   4.4771   4.4879   4.5056   4.5208   4.5218
  4.5260   4.5336   4.5390   4.5445   4.5522   4.5579   4.5630   4.5696
  4.5792   4.5839   4.5853   4.5871   4.6065   4.6154   4.6321   4.6444
  4.6503   4.6532   4.6578   4.6720   4.6755   4.6839   4.6898   4.6954
  4.7183   4.7237   4.7437   4.7473   4.7612   4.7699   4.7736   4.7951
  4.7998   4.8282   4.8311   4.8384   4.8453   4.8577   4.8724   4.8758
  4.8933   4.9029   4.9090   4.9248   4.9394   4.9480   4.9689   4.9788
  4.9877   5.0175   5.0325   5.0369   5.0422   5.0474   5.0504   5.0540
  5.0893   5.1023   5.1068   5.1086   5.1210   5.1288   5.1417   5.1469
  5.1585   5.1721   5.1842   5.1896   5.2001   5.2293   5.2356   5.2555
  5.2593   5.2790   5.2813   5.2973   5.3216   5.3292   5.3357   5.3425
  5.3596   5.3968   5.4013   5.4045   5.4130   5.4317   5.4365   5.4641
  5.4856   5.4984   5.5079   5.5091   5.5133   5.5368   5.5469   5.5507
  5.5576   5.5603   5.5613   5.5741   5.5778   5.5902   5.6040   5.6156
  5.6201   5.6348   5.6529   5.6551   5.6566   5.6757   5.6770   5.7000
  5.7045   5.7077   5.7205   5.7349   5.7458   5.7586   5.7614   5.7730
  5.7817   5.7837   5.8097   5.8259   5.8605   5.8813   5.9112   5.9243
  5.9518   5.9711   6.0051   6.0199   6.0238   6.0326   6.0380   6.0602
  6.0769   6.1012   6.1063   6.1173   6.1367   6.1683   6.1921   6.2110
  6.2179   6.2191   6.2231   6.2586   6.2667   6.2775   6.3078   6.3453
  6.3519   6.3734   6.4130   6.4466   6.4679   6.5260   6.5622   6.5707
  6.5798   6.5924   6.6123   6.6475   6.6487   6.6599   6.7062   6.8313
  6.8400   6.8816   6.8864   6.8982   6.9118   6.9295   7.0158   7.0792
  7.1239   7.1427   7.1864   7.2067   7.2371   7.3327   7.3423   7.3448
  7.3628   7.4668   7.5465   7.5584   7.5742   7.5791   7.6336   7.6368
  7.6735   7.6957   7.7297   8.3334   9.9057  10.3210  11.0944  11.2354
 11.6932  11.7599  12.0651  12.3620  12.4537  12.7864  12.8431  12.9523
 13.2662  13.5796  13.8193  13.9487  14.0534  14.1119  14.2338  14.3595
 14.4099  14.7484  15.3249  15.7166  15.9820
 --------------------------------------------------------------
 
          Ground-State Mulliken Net Atomic Charges

     Atom                 Charge (a.u.)
  ----------------------------------------
      1 C                    -0.143850
      2 C                    -0.107505
      3 C                    -0.035007
      4 C                    -0.004608
      5 H                     0.187926
      6 C                    -0.012978
      7 C                     0.075034
      8 C                     0.009340
      9 C                    -0.076891
     10 C                    -0.156284
     11 C                     0.101220
     12 H                     0.180039
     13 C                     0.360848
     14 C                     0.364775
     15 N                    -0.101318
     16 C                     0.357656
     17 C                     0.419004
     18 N                    -0.093487
     19 O                    -0.464592
     20 O                    -0.476194
     21 O                    -0.482793
     22 O                    -0.459480
     23 C                    -0.201192
     24 H                     0.140959
     25 H                     0.112055
     26 H                     0.112359
     27 C                    -0.196725
     28 H                     0.134390
     29 H                     0.112450
     30 H                     0.112152
     31 H                     0.212746
     32 C                    -0.097476
     33 S                     0.054087
     34 C                    -0.153468
     35 C                    -0.133777
     36 C                    -0.240026
     37 H                     0.192591
     38 H                     0.189085
     39 H                     0.208935
  ----------------------------------------
  Sum of atomic charges =     0.000000

 -----------------------------------------------------------------
                    Cartesian Multipole Moments
 -----------------------------------------------------------------
    Charge (ESU x 10^10)
                 0.0000
    Dipole Moment (Debye)
         X       2.2692      Y       1.1622      Z      -0.2888
       Tot       2.5658
    Quadrupole Moments (Debye-Ang)
        XX    -170.7868     XY       5.8462     YY    -174.2427
        XZ      -8.0112     YZ       0.2343     ZZ    -164.9743
    Octopole Moments (Debye-Ang^2)
       XXX    -125.0622    XXY     540.2845    XYY     -25.1393
       YYY    1623.3350    XXZ     -24.5304    XYZ      46.5267
       YYZ     -19.9717    XZZ     -35.3116    YZZ     521.0983
       ZZZ     -84.8049
    Hexadecapole Moments (Debye-Ang^3)
      XXXX   -3849.9052   XXXY    -209.2600   XXYY   -3572.1502
      XYYY    -682.9040   YYYY  -17170.2820   XXXZ   -1515.7668
      XXYZ      58.9581   XYYZ    -770.4069   YYYZ    -533.1788
      XXZZ   -1158.3314   XYZZ       1.9592   YYZZ   -3330.7510
      XZZZ   -1487.2613   YZZZ    -168.3956   ZZZZ   -2861.1703
 -----------------------------------------------------------------
 Total job time:  266.37s(wall), 8209.69s(cpu) 
 Fri Dec 15 14:30:51 2023

        *************************************************************
        *                                                           *
        *  Thank you very much for using Q-Chem.  Have a nice day.  *
        *                                                           *
        *************************************************************


0 sent ACK to 0 
now end server 0 ... 
cleanup process ... done
remove work dirs ./qchem2780507.0 -- ./qchem2780507.0
rm -rf ./qchem2780507.0
rm -rf ./qchem2780507
