You are running Q-Chem version: 5.4.0

#
# job setting
#
local host:  exp-4-09
current dir: /home/rramji/project-csd799/aromodel/pndit-qchem/rotation_run
input file:  Dimethyl_Naphthalene_Dicarboximide_Phi_40_Theta_240_Thiophene.qcin
output file: 
nprocs     : 1
nthreads   : 64
#
# qchem installation setting
#
QC:          /cm/shared/apps/spack/cpu/opt/spack/linux-centos8-zen2/gcc-10.2.0/qchem-5.4-akfmr7b3t57bfs6qan3padb2wnb2i7cl
QCAUX:       /cm/shared/apps/spack/cpu/opt/spack/linux-centos8-zen2/gcc-10.2.0/qchem-5.4-akfmr7b3t57bfs6qan3padb2wnb2i7cl/qcaux
QCPROG:      /cm/shared/apps/spack/cpu/opt/spack/linux-centos8-zen2/gcc-10.2.0/qchem-5.4-akfmr7b3t57bfs6qan3padb2wnb2i7cl/exe/qcprog.exe
QCPROG_S:    /cm/shared/apps/spack/cpu/opt/spack/linux-centos8-zen2/gcc-10.2.0/qchem-5.4-akfmr7b3t57bfs6qan3padb2wnb2i7cl/exe/qcprog.exe_s
PARALLEL:    -DPARALLEL
QCMPI:       mpich
#
# qchem directory setting
#
qcrun:       qchem2791084
QCSCRATCH:   .
QCLOCALSCR:  
QCTMPDIR:    .
QCFILEPREF:  ./qchem2791084
QCSAVEDIR:   
workdirs:    ./qchem2791084
workdir0:    ./qchem2791084
partmpdirs =  
#
# parallel setting
#
QCRSH:           ssh
QCMPI:           mpich
QCMPIRUN:        /cm/shared/apps/spack/cpu/opt/spack/linux-centos8-zen2/gcc-10.2.0/qchem-5.4-akfmr7b3t57bfs6qan3padb2wnb2i7cl/bin/mpi/mpirun_qchem
QCMACHINEFILE:   ./qchem2791084/hostfile
exp-4-09

#
# env setting
#
exported envs:   QC QCAUX QCSCRATCH QCRUNNAME QCFILEPREF QCPROG QCPROG_S GUIFILE

Running Job 1 of 1 Dimethyl_Naphthalene_Dicarboximide_Phi_40_Theta_240_Thiophene.qcin
qchem Dimethyl_Naphthalene_Dicarboximide_Phi_40_Theta_240_Thiophene.qcin_2791084.0 ./qchem2791084/ 1
/cm/shared/apps/spack/cpu/opt/spack/linux-centos8-zen2/gcc-10.2.0/qchem-5.4-akfmr7b3t57bfs6qan3padb2wnb2i7cl/bin/mpi/mpirun_qchem -machinefile ./qchem2791084/hostfile -np 1 /cm/shared/apps/spack/cpu/opt/spack/linux-centos8-zen2/gcc-10.2.0/qchem-5.4-akfmr7b3t57bfs6qan3padb2wnb2i7cl/exe/qcprog.exe Dimethyl_Naphthalene_Dicarboximide_Phi_40_Theta_240_Thiophene.qcin_2791084.0 ./qchem2791084/

Process 0 of 1 is on exp-4-09 - thread support 0
initial socket setup ...start
initial socket setup ...done 
now start server 0 ... 
                  Welcome to Q-Chem
     A Quantum Leap Into The Future Of Chemistry


 Q-Chem 5.4, Q-Chem, Inc., Pleasanton, CA (2021)

 License issued to: University of California, San Diego (site)

 E. Epifanovsky,  A. T. B. Gilbert,  Xintian Feng,  Joonho Lee,  Yuezhi Mao,  
 N. Mardirossian,  P. Pokhilko,  A. White,  M. Wormit,  M. P. Coons,  
 A. L. Dempwolff,  Zhengting Gan,  D. Hait,  P. R. Horn,  L. D. Jacobson,  
 I. Kaliman,  J. Kussmann,  A. W. Lange,  Ka Un Lao,  D. S. Levine,  Jie Liu,  
 S. C. McKenzie,  A. F. Morrison,  K. Nanda,  F. Plasser,  D. R. Rehn,  
 M. L. Vidal,  Zhi-Qiang You,  Ying Zhu,  B. Alam,  B. Albrecht,  
 A. Aldossary,  E. Alguire,  J. H. Andersen,  D. Barton,  K. Begam,  A. Behn,  
 Y. A. Bernard,  E. J. Berquist,  H. Burton,  A. Carreras,  K. Carter-Fenk,  
 R. Chakraborty,  A. D. Chien,  K. D. Closser,  V. Cofer-Shabica,  
 S. Dasgupta,  Jia Deng,  M. de Wergifosse,  M. Diedenhofen,  Hainam Do,  
 S. Ehlert,  Po-Tung Fang,  S. Fatehi,  Qingguo Feng,  J. Gayvert,  
 Qinghui Ge,  G. Gidofalvi,  M. Goldey,  J. Gomes,  C. Gonzalez-Espinoza,  
 S. Gulania,  A. Gunina,  M. W. D. Hanson-Heine,  P. H. P. Harbach,  
 A. W. Hauser,  M. F. Herbst,  M. Hernandez Vera,  M. Hodecker,  
 Z. C. Holden,  S. Houck,  Xunkun Huang,  Kerwin Hui,  B. C. Huynh,  
 M. Ivanov,  Hyunjun Ji,  Hanjie Jiang,  B. Kaduk,  S. Kaehler,  
 K. Khistyaev,  Jaehoon Kim,  P. Klunzinger,  Z. Koczor-Benda,  
 Joong Hoon Koh,  D. Kosenkov,  L. Koulias,  T. Kowalczyk,  C. M. Krauter,  
 K. Kue,  A. Kunitsa,  T. Kus,  A. Landau,  K. V. Lawler,  D. Lefrancois,  
 S. Lehtola,  Rain Li,  Yi-Pei Li,  Jiashu Liang,  M. Liebenthal,  
 Hung-Hsuan Lin,  You-Sheng Lin,  Fenglai Liu,  Kuan-Yu Liu,  
 M. Loipersberger,  A. Luenser,  A. Manjanath,  P. Manohar,  E. Mansoor,  
 S. F. Manzer,  Shan-Ping Mao,  A. V. Marenich,  T. Markovich,  S. Mason,  
 S. A. Maurer,  P. F. McLaughlin,  M. F. S. J. Menger,  J.-M. Mewes,  
 S. A. Mewes,  P. Morgante,  J. W. Mullinax,  T. S. Nguyen-Beck,  
 K. J. Oosterbaan,  G. Paran,  Alexander C. Paul,  Suranjan K. Paul,  
 F. Pavosevic,  Zheng Pei,  S. Prager,  E. I. Proynov,  E. Ramos,  B. Rana,  
 A. E. Rask,  A. Rettig,  R. M. Richard,  F. Rob,  E. Rossomme,  T. Scheele,  
 M. Scheurer,  M. Schneider,  N. Sergueev,  S. M. Sharada,  W. Skomorowski,  
 D. W. Small,  C. J. Stein,  Yu-Chuan Su,  E. J. Sundstrom,  Zhen Tao,  
 J. Thirman,  T. Tsuchimochi,  N. M. Tubman,  S. P. Veccham,  O. Vydrov,  
 J. Wenzel,  J. Witte,  A. Yamada,  Kun Yao,  S. Yeganeh,  S. R. Yost,  
 A. Zech,  Igor Ying Zhang,  Xing Zhang,  Yu Zhang,  D. Zuev,  
 A. Aspuru-Guzik,  A. T. Bell,  N. A. Besley,  K. B. Bravaya,  B. R. Brooks,  
 D. Casanova,  Jeng-Da Chai,  S. Coriani,  C. J. Cramer,  
 A. E. DePrince, III,  R. A. DiStasio Jr.,  A. Dreuw,  B. D. Dunietz,  
 T. R. Furlani,  W. A. Goddard III,  S. Grimme,  S. Hammes-Schiffer,  
 T. Head-Gordon,  W. J. Hehre,  Chao-Ping Hsu,  T.-C. Jagau,  Yousung Jung,  
 A. Klamt,  Jing Kong,  D. S. Lambrecht,  WanZhen Liang,  N. J. Mayhall,  
 C. W. McCurdy,  J. B. Neaton,  C. Ochsenfeld,  J. A. Parkhill,  R. Peverati,  
 V. A. Rassolov,  Yihan Shao,  L. V. Slipchenko,  T. Stauch,  R. P. Steele,  
 J. E. Subotnik,  A. J. W. Thom,  A. Tkatchenko,  D. G. Truhlar,  
 T. Van Voorhis,  T. A. Wesolowski,  K. B. Whaley,  H. L. Woodcock III,  
 P. M. Zimmerman,  S. Faraji,  P. M. W. Gill,  M. Head-Gordon,  
 J. M. Herbert,  A. I. Krylov

 Contributors to earlier versions of Q-Chem not listed above: 
 R. D. Adamson,  B. Austin,  R. Baer,  J. Baker,  G. J. O. Beran,  
 K. Brandhorst,  S. T. Brown,  E. F. C. Byrd,  A. K. Chakraborty,  
 G. K. L. Chan,  Chun-Min Chang,  Yunqing Chen,  C.-L. Cheng,  
 Siu Hung Chien,  D. M. Chipman,  D. L. Crittenden,  H. Dachsel,  
 R. J. Doerksen,  A. D. Dutoi,  R. G. Edgar,  J. Fosso-Tande,  
 L. Fusti-Molnar,  D. Ghosh,  A. Ghysels,  A. Golubeva-Zadorozhnaya,  
 J. Gonthier,  M. S. Gordon,  S. R. Gwaltney,  G. Hawkins,  J. E. Herr,  
 A. Heyden,  S. Hirata,  E. G. Hohenstein,  G. Kedziora,  F. J. Keil,  
 C. Kelley,  Jihan Kim,  R. A. King,  R. Z. Khaliullin,  P. P. Korambath,  
 W. Kurlancheek,  A. Laurent,  A. M. Lee,  M. S. Lee,  S. V. Levchenko,  
 Ching Yeh Lin,  D. Liotard,  E. Livshits,  R. C. Lochan,  I. Lotan,  
 L. A. Martinez-Martinez,  P. E. Maslen,  N. Nair,  D. P. O'Neill,  
 D. Neuhauser,  E. Neuscamman,  C. M. Oana,  R. Olivares-Amaya,  R. Olson,  
 T. M. Perrine,  B. Peters,  P. A. Pieniazek,  A. Prociuk,  Y. M. Rhee,  
 J. Ritchie,  M. A. Rohrdanz,  E. Rosta,  N. J. Russ,  H. F. Schaefer III,  
 M. W. Schmidt,  N. E. Schultz,  S. Sharma,  N. Shenvi,  C. D. Sherrill,  
 A. C. Simmonett,  A. Sodt,  T. Stein,  D. Stuck,  K. S. Thanthiriwatte,  
 V. Vanovschi,  L. Vogt,  Tao Wang,  A. Warshel,  M. A. Watson,  
 C. F. Williams,  Q. Wu,  X. Xu,  Jun Yang,  W. Zhang,  Yan Zhao

 Please cite Q-Chem as follows:
 Y. Shao et al., Mol. Phys. 113, 184-215 (2015)
 DOI: 10.1080/00268976.2014.952696

 Q-Chem 5.4.0 for Intel X86 EM64T Linux

 Parts of Q-Chem use Armadillo 9.800.1 (Horizon Scraper).
 http://arma.sourceforge.net/

 Q-Chem begins on Fri Dec 15 15:16:09 2023  

 Host: 
0

     Scratch files written to ./qchem2791084//
 May1621 |scratch|qcdevops|jenkins|workspace|build_RNUM    
 Parallel job on  1  processors
 Processing $rem in /cm/shared/apps/spack/cpu/opt/spack/linux-centos8-zen2/gcc-10.2.0/qchem-5.4-akfmr7b3t57bfs6qan3padb2wnb2i7cl/config/preferences:
 Processing $rem in /home/rramji/.qchemrc:
 Symmetry turned off for PCM/SM12/SMD calculation
 Core orbitals will be frozen

 Checking the input file for inconsistencies... 	...done.

 Q-Chem warning in module forms1/BasisType.C, line 2236:

 You are not using the predefined 5D/6D in this basis set.


--------------------------------------------------------------
User input:
--------------------------------------------------------------
$molecule
0 1
C	-0.221766	-6.741404	0.129743
C	-1.352515	-6.155638	0.782726
C	0.717339	-5.791452	-0.411926
C	-1.593885	-4.803786	0.921816
H	-2.112819	-6.821518	1.221908
C	0.464360	-4.378638	-0.266682
C	-0.688053	-3.838032	0.398255
C	1.369108	-3.413062	-0.789694
C	-0.939002	-2.426473	0.542349
C	1.130409	-2.059348	-0.652589
C	0.000000	-1.478216	0.000000
H	1.891446	-1.394783	-1.092453
C	1.967519	-6.187987	-1.131595
C	2.608118	-3.798164	-1.504912
N	2.819813	-5.170003	-1.625174
C	-2.836188	-4.424987	1.639129
C	-2.189558	-2.036627	1.263477
N	-3.042237	-3.049156	1.756898
O	2.307845	-7.353131	-1.324787
O	3.407213	-2.986854	-1.967354
O	-3.625890	-5.248946	2.095892
O	-2.547850	-0.878829	1.468685
C	4.043674	-5.563799	-2.330564
H	4.083407	-6.664085	-2.352178
H	4.925490	-5.147101	-1.807263
H	4.031877	-5.148785	-3.356568
C	-4.247206	-2.587487	2.452080
H	-4.803187	-3.483329	2.774302
H	-4.860536	-1.964972	1.773301
H	-3.966607	-1.962932	3.321351
H	-0.060567	-7.822318	0.037043
C	0.000000	0.000000	0.000000
S	0.509686	0.607733	1.580530
C	1.562368	1.862312	0.904911
C	0.641367	0.764613	-0.985400
C	1.489926	1.776040	-0.493528
H	0.489914	0.584081	-2.059934
H	2.056124	2.450920	-1.152593
H	2.128395	2.537007	1.556025
$end

$rem
JOBTYPE		SP
EXCHANGE	HF
CORRELATION	pRIMP2
BASIS		cc-pvtz
METHOD		rimp2
AUX_BASIS	rimp2-cc-pvtz
SOLVENT_METHOD	PCM
PURECART	11111
SYMMETRY	false
MEM_TOTAL	110000
SCF_CONVERGENCE = 6
THRESH=10
GUI = 2
$end



$solvent
dielectric 4.90
$end
--------------------------------------------------------------
 ----------------------------------------------------------------
             Standard Nuclear Orientation (Angstroms)
    I     Atom           X                Y                Z
 ----------------------------------------------------------------
    1      C      -0.2217660000    -6.7414040000     0.1297430000
    2      C      -1.3525150000    -6.1556380000     0.7827260000
    3      C       0.7173390000    -5.7914520000    -0.4119260000
    4      C      -1.5938850000    -4.8037860000     0.9218160000
    5      H      -2.1128190000    -6.8215180000     1.2219080000
    6      C       0.4643600000    -4.3786380000    -0.2666820000
    7      C      -0.6880530000    -3.8380320000     0.3982550000
    8      C       1.3691080000    -3.4130620000    -0.7896940000
    9      C      -0.9390020000    -2.4264730000     0.5423490000
   10      C       1.1304090000    -2.0593480000    -0.6525890000
   11      C       0.0000000000    -1.4782160000     0.0000000000
   12      H       1.8914460000    -1.3947830000    -1.0924530000
   13      C       1.9675190000    -6.1879870000    -1.1315950000
   14      C       2.6081180000    -3.7981640000    -1.5049120000
   15      N       2.8198130000    -5.1700030000    -1.6251740000
   16      C      -2.8361880000    -4.4249870000     1.6391290000
   17      C      -2.1895580000    -2.0366270000     1.2634770000
   18      N      -3.0422370000    -3.0491560000     1.7568980000
   19      O       2.3078450000    -7.3531310000    -1.3247870000
   20      O       3.4072130000    -2.9868540000    -1.9673540000
   21      O      -3.6258900000    -5.2489460000     2.0958920000
   22      O      -2.5478500000    -0.8788290000     1.4686850000
   23      C       4.0436740000    -5.5637990000    -2.3305640000
   24      H       4.0834070000    -6.6640850000    -2.3521780000
   25      H       4.9254900000    -5.1471010000    -1.8072630000
   26      H       4.0318770000    -5.1487850000    -3.3565680000
   27      C      -4.2472060000    -2.5874870000     2.4520800000
   28      H      -4.8031870000    -3.4833290000     2.7743020000
   29      H      -4.8605360000    -1.9649720000     1.7733010000
   30      H      -3.9666070000    -1.9629320000     3.3213510000
   31      H      -0.0605670000    -7.8223180000     0.0370430000
   32      C       0.0000000000     0.0000000000     0.0000000000
   33      S       0.5096860000     0.6077330000     1.5805300000
   34      C       1.5623680000     1.8623120000     0.9049110000
   35      C       0.6413670000     0.7646130000    -0.9854000000
   36      C       1.4899260000     1.7760400000    -0.4935280000
   37      H       0.4899140000     0.5840810000    -2.0599340000
   38      H       2.0561240000     2.4509200000    -1.1525930000
   39      H       2.1283950000     2.5370070000     1.5560250000
 ----------------------------------------------------------------
 Nuclear Repulsion Energy =        2507.18147827 hartrees
 There are       97 alpha and       97 beta electrons
 Requested basis set is cc-pVTZ
 There are 344 shells and 982 basis functions

 Total QAlloc Memory Limit 110000 MB
 Mega-Array Size       188 MB
 MEM_STATIC part       192 MB
 Discretize the solute cavity surface with Lebedev spheres
	Using 110 Lebedev grid points for each H atom
	Using 194 Lebedev grid points for other atoms
	Atomic van der Waals radii will be scaled by 1.20
 Remove points where switching function is < 1.0e-08
 Keep 2518 surface tesserae and discard 4040 interior tesserae
 Molecular Surface Area = 367.856 Angst**2
 Requested basis set is rimp2-cc-pVTZ
 There are 750 shells and 2588 basis functions
 A cutoff of  1.0D-10 yielded  31821 shell pairs
 There are    244885 function pairs (    318167 Cartesian)
 Smallest overlap matrix eigenvalue = 9.18E-06

 Q-Chem warning in module stvman/mkSTV.C, line 323:

 Overlap eigenvalue is smaller than square root of threshold
 Use THRESH >= 12 to get rid of this warning


 Scale SEOQF with 1.000000e-01/1.000000e-02/1.000000e-01

 Standard Electronic Orientation quadrupole field applied
 Nucleus-field energy     =     0.0000000174 hartrees
 Guess from superposition of atomic densities
 Warning:  Energy on first SCF cycle will be non-variational
 SAD guess density has 194.000000 electrons

 -----------------------------------------------------------------------
  General SCF calculation program by
  Eric Jon Sundstrom, Paul Horn, Yuezhi Mao, Dmitri Zuev, Alec White,
  David Stuck, Shaama M.S., Shane Yost, Joonho Lee, David Small,
  Daniel Levine, Susi Lehtola, Hugh Burton, Evgeny Epifanovsky,
  Bang C. Huynh
 -----------------------------------------------------------------------
 Hartree-Fock
 using 64 threads for integral computing
 -------------------------------------------------------
 OpenMP Integral computing Module                
 Release: version 1.0, May 2013, Q-Chem Inc. Pittsburgh 
 -------------------------------------------------------
 A restricted SCF calculation will be
 performed using DIIS
 SCF converges when DIIS error is below 1.0e-06
 ---------------------------------------
  Cycle       Energy         DIIS error
 ---------------------------------------
    1   -1581.3303790870      1.87e-02  
    2   -1570.1003042038      2.09e-03  
    3   -1570.4262805134      1.62e-03  
    4   -1570.6544632324      2.57e-04  
    5   -1570.6665716200      7.60e-05  
    6   -1570.6676513096      2.83e-05  
    7   -1570.6679048715      1.44e-05  
    8   -1570.6679874048      6.28e-06  
    9   -1570.6680014630      2.39e-06  
   10   -1570.6680041108      8.99e-07  Convergence criterion met
 ---------------------------------------
 SCF time:   CPU 5787.00s  wall 212.00s 

************** Final PCM Free Energy Summary **************
 G_electrostatic  =      -0.02526779 hartree =     -15.85577532 kcal/mol
 G_cavitation     =       0.00000000 hartree =       0.00000000 kcal/mol
 G_dispersion     =       0.00000000 hartree =       0.00000000 kcal/mol
 G_repulsion      =       0.00000000 hartree =       0.00000000 kcal/mol
 --------------------------------------------------
 Non-electrostatic Free Energy =       0.00000000 hartree =       0.00000000 kcal/mol
 Total                         =      -0.02526779 hartree =     -15.85577532 kcal/mol
 --------------------------------------------------
 SCF Energy (H0 + V/2)                       =   -1570.66800411 
 Solute Internal Energy (H0)                 =   -1570.64273632 
 Total Free Energy (H0 + V/2 + non-elec)     =   -1570.66800411 hartree
                                             = -985609.04837617 kcal/mol
***********************************************************

 SCF   energy in the final basis set =    -1570.6680041108
 Total energy in the final basis set =    -1570.6680041108


 --------------------------------------------------------------
  Generalized many-body perturbation theory program
  by Joonho Lee, Fazle Rob, Xintian Feng, Evgeny Epifanovsky

 No regularization used 
 (reg. param. = 0.0000e+00)
  (P|Q)^-1/2 Time:  CPU 109.30 s  wall 1.95 s

 In RI-MP2 calculation: 
 # of frozen core orbitals: 31

 Components of the RIMP2 correlation energy:
        aaaa    correlation energy =        -0.6175548183 a.u.
        abab    correlation energy =        -3.3956953196 a.u.
        bbbb    correlation energy =        -0.6175548183 a.u.
        non-Brillouin singles      =        -0.0000000000 a.u.
        total same-spin energy     =        -1.2351096366 a.u.
        total opposite-spin energy =        -3.3956953196 a.u.

 Total  RIMP2   correlation energy =        -4.6308049562 a.u.
        RIMP2         total energy =     -1575.2988090670 a.u.

 RI-MP2 Energy Time:  CPU 1825.19 s  wall 29.68 s
 
 --------------------------------------------------------------
 
                    Orbital Energies (a.u.)
 --------------------------------------------------------------
 
 Alpha MOs
 -- Occupied --
-91.9940 -20.5584 -20.5563 -20.5554 -20.5539 -15.6311 -15.6297 -11.3998
-11.3952 -11.3915 -11.3905 -11.3162 -11.3020 -11.3000 -11.2989 -11.2962
-11.2961 -11.2930 -11.2854 -11.2845 -11.2843 -11.2794 -11.2757 -11.2646
-11.2638 -11.2638 -11.2535  -8.9934  -6.6741  -6.6736  -6.6730  -1.4248
 -1.4231  -1.4041  -1.4021  -1.2671  -1.2644  -1.2170  -1.1816  -1.1428
 -1.1161  -1.0625  -1.0487  -0.9924  -0.9914  -0.9888  -0.9585  -0.9469
 -0.8964  -0.8784  -0.8760  -0.8590  -0.7944  -0.7761  -0.7738  -0.7648
 -0.7340  -0.7176  -0.7062  -0.6940  -0.6819  -0.6743  -0.6659  -0.6616
 -0.6562  -0.6413  -0.6369  -0.6329  -0.6282  -0.6127  -0.5851  -0.5845
 -0.5782  -0.5758  -0.5671  -0.5641  -0.5636  -0.5550  -0.5530  -0.5479
 -0.5316  -0.5268  -0.5206  -0.5116  -0.4829  -0.4735  -0.4661  -0.4602
 -0.4580  -0.4527  -0.4275  -0.4178  -0.4080  -0.3659  -0.3498  -0.3362
 -0.3129
 -- Virtual --
 -0.0184   0.0591   0.0698   0.0856   0.1164   0.1524   0.1583   0.1591
  0.1660   0.1684   0.1773   0.1840   0.1860   0.1910   0.2076   0.2085
  0.2160   0.2232   0.2283   0.2296   0.2347   0.2398   0.2618   0.2620
  0.2654   0.3001   0.3138   0.3153   0.3167   0.3236   0.3268   0.3342
  0.3410   0.3446   0.3505   0.3555   0.3589   0.3598   0.3704   0.3764
  0.3791   0.3803   0.3871   0.3964   0.3989   0.4027   0.4079   0.4101
  0.4115   0.4254   0.4314   0.4367   0.4392   0.4445   0.4499   0.4557
  0.4561   0.4597   0.4687   0.4743   0.4791   0.4815   0.4847   0.4914
  0.4947   0.4976   0.5026   0.5138   0.5157   0.5198   0.5249   0.5287
  0.5308   0.5399   0.5483   0.5514   0.5532   0.5587   0.5663   0.5702
  0.5712   0.5721   0.5838   0.5853   0.5890   0.5960   0.5980   0.6005
  0.6036   0.6059   0.6078   0.6145   0.6224   0.6245   0.6262   0.6293
  0.6322   0.6353   0.6362   0.6384   0.6411   0.6544   0.6570   0.6640
  0.6777   0.6798   0.6880   0.6941   0.6991   0.7039   0.7130   0.7225
  0.7294   0.7316   0.7361   0.7431   0.7491   0.7570   0.7582   0.7616
  0.7655   0.7760   0.7825   0.7914   0.7948   0.7979   0.8036   0.8146
  0.8167   0.8274   0.8324   0.8349   0.8446   0.8482   0.8510   0.8582
  0.8652   0.8668   0.8695   0.8734   0.8875   0.8885   0.8936   0.9010
  0.9071   0.9146   0.9185   0.9246   0.9319   0.9346   0.9387   0.9470
  0.9513   0.9574   0.9650   0.9663   0.9722   0.9787   0.9804   0.9815
  0.9917   0.9971   1.0002   1.0026   1.0114   1.0124   1.0182   1.0266
  1.0335   1.0419   1.0465   1.0598   1.0640   1.0658   1.0734   1.0775
  1.0805   1.0821   1.0867   1.0924   1.0938   1.0981   1.1049   1.1097
  1.1214   1.1267   1.1308   1.1430   1.1436   1.1492   1.1547   1.1599
  1.1622   1.1682   1.1699   1.1749   1.1811   1.1857   1.1932   1.2013
  1.2034   1.2091   1.2137   1.2213   1.2261   1.2302   1.2364   1.2386
  1.2467   1.2514   1.2567   1.2650   1.2696   1.2837   1.2956   1.3000
  1.3117   1.3268   1.3310   1.3329   1.3404   1.3480   1.3532   1.3629
  1.3716   1.3794   1.3823   1.3834   1.3913   1.3964   1.4091   1.4169
  1.4272   1.4292   1.4363   1.4378   1.4468   1.4508   1.4572   1.4673
  1.4791   1.4827   1.4882   1.4904   1.4959   1.5098   1.5184   1.5226
  1.5254   1.5333   1.5361   1.5412   1.5510   1.5577   1.5604   1.5643
  1.5689   1.5715   1.5754   1.5867   1.5922   1.6089   1.6142   1.6315
  1.6388   1.6476   1.6522   1.6664   1.6751   1.6799   1.6855   1.6879
  1.6983   1.7047   1.7057   1.7170   1.7251   1.7312   1.7421   1.7448
  1.7512   1.7566   1.7707   1.7833   1.7870   1.7948   1.8062   1.8117
  1.8231   1.8321   1.8386   1.8454   1.8530   1.8592   1.8641   1.8685
  1.8734   1.8843   1.8885   1.9120   1.9130   1.9283   1.9324   1.9435
  1.9580   1.9650   1.9730   1.9778   1.9920   1.9959   2.0187   2.0278
  2.0366   2.0479   2.0588   2.0707   2.0913   2.1168   2.1220   2.1270
  2.1386   2.1479   2.1578   2.1711   2.1808   2.1985   2.2088   2.2244
  2.2331   2.2401   2.2484   2.2600   2.2744   2.2880   2.2936   2.2955
  2.3105   2.3217   2.3224   2.3345   2.3544   2.3577   2.3652   2.3798
  2.4017   2.4158   2.4331   2.4387   2.4480   2.4548   2.4574   2.4669
  2.4810   2.4855   2.4913   2.4971   2.5025   2.5086   2.5254   2.5499
  2.5643   2.5679   2.5764   2.5875   2.5909   2.5942   2.6019   2.6068
  2.6147   2.6196   2.6319   2.6438   2.6563   2.6585   2.6646   2.6678
  2.6781   2.6811   2.6931   2.7019   2.7063   2.7129   2.7134   2.7254
  2.7294   2.7484   2.7503   2.7558   2.7593   2.7654   2.7825   2.7959
  2.7996   2.8197   2.8207   2.8330   2.8389   2.8474   2.8530   2.8625
  2.8684   2.8751   2.8795   2.8835   2.8948   2.8964   2.9028   2.9061
  2.9212   2.9232   2.9266   2.9326   2.9484   2.9545   2.9585   2.9668
  2.9725   2.9799   2.9831   2.9882   3.0018   3.0069   3.0101   3.0154
  3.0253   3.0280   3.0405   3.0472   3.0497   3.0581   3.0646   3.0729
  3.0875   3.0922   3.0939   3.1016   3.1090   3.1120   3.1159   3.1211
  3.1289   3.1321   3.1507   3.1524   3.1550   3.1675   3.1736   3.1786
  3.1873   3.1907   3.1965   3.2048   3.2061   3.2088   3.2167   3.2238
  3.2269   3.2342   3.2411   3.2439   3.2469   3.2511   3.2569   3.2631
  3.2668   3.2675   3.2778   3.2815   3.2879   3.2880   3.2903   3.2961
  3.3027   3.3074   3.3129   3.3195   3.3208   3.3265   3.3321   3.3390
  3.3409   3.3447   3.3465   3.3527   3.3578   3.3644   3.3671   3.3698
  3.3756   3.3804   3.3845   3.3875   3.3997   3.4025   3.4066   3.4142
  3.4201   3.4289   3.4346   3.4376   3.4436   3.4474   3.4537   3.4556
  3.4568   3.4647   3.4676   3.4692   3.4787   3.4834   3.4864   3.4900
  3.4950   3.4983   3.5031   3.5107   3.5127   3.5188   3.5251   3.5362
  3.5402   3.5426   3.5466   3.5564   3.5643   3.5688   3.5763   3.5831
  3.5847   3.5946   3.6037   3.6102   3.6151   3.6235   3.6287   3.6302
  3.6345   3.6357   3.6408   3.6495   3.6624   3.6680   3.6701   3.6814
  3.6864   3.6891   3.6958   3.7010   3.7119   3.7136   3.7224   3.7269
  3.7292   3.7364   3.7398   3.7472   3.7530   3.7575   3.7657   3.7667
  3.7779   3.7822   3.7843   3.7910   3.7935   3.7979   3.7990   3.8032
  3.8189   3.8212   3.8360   3.8412   3.8473   3.8547   3.8556   3.8646
  3.8653   3.8699   3.8766   3.8858   3.8959   3.9069   3.9137   3.9236
  3.9281   3.9349   3.9426   3.9438   3.9513   3.9546   3.9604   3.9812
  3.9852   3.9967   4.0008   4.0121   4.0166   4.0192   4.0290   4.0497
  4.0591   4.0626   4.0661   4.0694   4.0778   4.0956   4.1003   4.1070
  4.1232   4.1252   4.1401   4.1453   4.1526   4.1568   4.1619   4.1720
  4.1812   4.1855   4.1909   4.2031   4.2081   4.2167   4.2324   4.2384
  4.2424   4.2556   4.2678   4.2699   4.2733   4.2830   4.2868   4.2901
  4.2968   4.3012   4.3054   4.3119   4.3153   4.3299   4.3328   4.3352
  4.3449   4.3528   4.3613   4.3671   4.3689   4.3699   4.3778   4.3806
  4.3905   4.3974   4.4029   4.4063   4.4106   4.4156   4.4304   4.4379
  4.4630   4.4653   4.4732   4.4847   4.4962   4.5102   4.5178   4.5199
  4.5246   4.5290   4.5307   4.5430   4.5495   4.5621   4.5729   4.5761
  4.5769   4.5822   4.5877   4.5895   4.6044   4.6149   4.6222   4.6296
  4.6441   4.6510   4.6589   4.6667   4.6759   4.6785   4.6850   4.6948
  4.7123   4.7264   4.7339   4.7387   4.7584   4.7734   4.7780   4.7938
  4.8027   4.8109   4.8311   4.8389   4.8452   4.8621   4.8691   4.8767
  4.8786   4.8946   4.9088   4.9149   4.9289   4.9420   4.9623   4.9683
  4.9970   5.0106   5.0227   5.0327   5.0430   5.0506   5.0517   5.0743
  5.0857   5.1046   5.1073   5.1157   5.1253   5.1312   5.1395   5.1458
  5.1648   5.1733   5.1772   5.1843   5.1979   5.2186   5.2399   5.2567
  5.2625   5.2777   5.2816   5.2980   5.3159   5.3242   5.3311   5.3374
  5.3630   5.3959   5.4030   5.4078   5.4182   5.4294   5.4319   5.4538
  5.4888   5.4987   5.5074   5.5088   5.5135   5.5257   5.5472   5.5555
  5.5600   5.5628   5.5739   5.5748   5.5777   5.5924   5.6010   5.6057
  5.6196   5.6351   5.6525   5.6548   5.6628   5.6725   5.6769   5.6872
  5.6929   5.7071   5.7279   5.7368   5.7431   5.7545   5.7587   5.7695
  5.7741   5.7780   5.8132   5.8259   5.8433   5.8689   5.8768   5.9100
  5.9377   5.9585   5.9843   6.0006   6.0219   6.0249   6.0290   6.0352
  6.0820   6.0896   6.1007   6.1164   6.1173   6.1607   6.1885   6.2068
  6.2174   6.2193   6.2211   6.2516   6.2656   6.2753   6.3019   6.3403
  6.3509   6.3833   6.3949   6.4461   6.4632   6.5240   6.5621   6.5696
  6.5701   6.5949   6.6105   6.6477   6.6598   6.6652   6.7070   6.8299
  6.8323   6.8797   6.8862   6.8944   6.9112   6.9237   6.9261   7.0783
  7.1003   7.1411   7.1837   7.1887   7.2277   7.3325   7.3415   7.3441
  7.3531   7.4673   7.5431   7.5579   7.5731   7.5749   7.5855   7.6340
  7.6723   7.6824   7.7218   8.3345  10.0087  10.2902  11.0675  11.1633
 11.6909  11.7686  12.1287  12.3749  12.4398  12.6007  12.8488  12.9345
 13.2832  13.5639  13.8114  13.9350  14.0456  14.1113  14.2197  14.3455
 14.4195  14.7287  15.3055  15.7403  16.0054
 --------------------------------------------------------------
 
          Ground-State Mulliken Net Atomic Charges

     Atom                 Charge (a.u.)
  ----------------------------------------
      1 C                    -0.138086
      2 C                    -0.109096
      3 C                    -0.036561
      4 C                    -0.000417
      5 H                     0.188399
      6 C                    -0.004395
      7 C                     0.077298
      8 C                     0.003062
      9 C                    -0.048764
     10 C                    -0.129382
     11 C                     0.063353
     12 H                     0.186720
     13 C                     0.359148
     14 C                     0.364566
     15 N                    -0.101297
     16 C                     0.357569
     17 C                     0.357967
     18 N                    -0.095772
     19 O                    -0.464871
     20 O                    -0.477479
     21 O                    -0.481563
     22 O                    -0.464698
     23 C                    -0.201414
     24 H                     0.141158
     25 H                     0.112345
     26 H                     0.112160
     27 C                    -0.196962
     28 H                     0.133419
     29 H                     0.113119
     30 H                     0.112994
     31 H                     0.213341
     32 C                    -0.031299
     33 S                     0.055285
     34 C                    -0.185435
     35 C                    -0.202418
     36 C                    -0.188646
     37 H                     0.197634
     38 H                     0.194789
     39 H                     0.214229
  ----------------------------------------
  Sum of atomic charges =     0.000000

 -----------------------------------------------------------------
                    Cartesian Multipole Moments
 -----------------------------------------------------------------
    Charge (ESU x 10^10)
                 0.0000
    Dipole Moment (Debye)
         X       1.8324      Y       1.3934      Z      -0.9190
       Tot       2.4787
    Quadrupole Moments (Debye-Ang)
        XX    -174.8987     XY       6.5527     YY    -171.1390
        XZ       9.7514     YZ       0.5383     ZZ    -162.2634
    Octopole Moments (Debye-Ang^2)
       XXX     -36.6392    XXY     553.4823    XYY      -5.2907
       YYY    1614.4009    XXZ     -24.8992    XYZ     -31.9093
       YYZ     -17.6891    XZZ      -6.8650    YZZ     508.2849
       ZZZ     -80.4837
    Hexadecapole Moments (Debye-Ang^3)
      XXXX   -4850.0824   XXXY     -33.2799   XXYY   -3822.5991
      XYYY     593.2218   YYYY  -17084.5551   XXXZ    1309.6909
      XXYZ      74.3765   XYYZ     675.6856   YYYZ    -414.8742
      XXZZ   -1143.3300   XYZZ       0.7062   YYZZ   -3067.3226
      XZZZ    1239.5462   YZZZ    -162.2287   ZZZZ   -1898.8623
 -----------------------------------------------------------------
 Total job time:  245.52s(wall), 7720.65s(cpu) 
 Fri Dec 15 15:20:14 2023

        *************************************************************
        *                                                           *
        *  Thank you very much for using Q-Chem.  Have a nice day.  *
        *                                                           *
        *************************************************************


0 sent ACK to 0 
now end server 0 ... 
cleanup process ... done
remove work dirs ./qchem2791084.0 -- ./qchem2791084.0
rm -rf ./qchem2791084.0
rm -rf ./qchem2791084
