You are running Q-Chem version: 5.4.0

#
# job setting
#
local host:  exp-9-02
current dir: /expanse/lustre/projects/csd626/rramji/aromodel/PTB7_fin/Hydrogenated_Impropers_Test
input file:  fin_bdt_Phi_30_Theta_260_fin_ftt_Hydrogenated_Improper.qcin
output file: 
nprocs     : 1
nthreads   : 64
#
# qchem installation setting
#
QC:          /cm/shared/apps/spack/cpu/opt/spack/linux-centos8-zen2/gcc-10.2.0/qchem-5.4-akfmr7b3t57bfs6qan3padb2wnb2i7cl
QCAUX:       /cm/shared/apps/spack/cpu/opt/spack/linux-centos8-zen2/gcc-10.2.0/qchem-5.4-akfmr7b3t57bfs6qan3padb2wnb2i7cl/qcaux
QCPROG:      /cm/shared/apps/spack/cpu/opt/spack/linux-centos8-zen2/gcc-10.2.0/qchem-5.4-akfmr7b3t57bfs6qan3padb2wnb2i7cl/exe/qcprog.exe
QCPROG_S:    /cm/shared/apps/spack/cpu/opt/spack/linux-centos8-zen2/gcc-10.2.0/qchem-5.4-akfmr7b3t57bfs6qan3padb2wnb2i7cl/exe/qcprog.exe_s
PARALLEL:    -DPARALLEL
QCMPI:       mpich
#
# qchem directory setting
#
qcrun:       qchem642179
QCSCRATCH:   .
QCLOCALSCR:  
QCTMPDIR:    .
QCFILEPREF:  ./qchem642179
QCSAVEDIR:   
workdirs:    ./qchem642179
workdir0:    ./qchem642179
partmpdirs =  
#
# parallel setting
#
QCRSH:           ssh
QCMPI:           mpich
QCMPIRUN:        /cm/shared/apps/spack/cpu/opt/spack/linux-centos8-zen2/gcc-10.2.0/qchem-5.4-akfmr7b3t57bfs6qan3padb2wnb2i7cl/bin/mpi/mpirun_qchem
QCMACHINEFILE:   ./qchem642179/hostfile
exp-9-02

#
# env setting
#
exported envs:   QC QCAUX QCSCRATCH QCRUNNAME QCFILEPREF QCPROG QCPROG_S GUIFILE

Running Job 1 of 1 fin_bdt_Phi_30_Theta_260_fin_ftt_Hydrogenated_Improper.qcin
qchem fin_bdt_Phi_30_Theta_260_fin_ftt_Hydrogenated_Improper.qcin_642179.0 ./qchem642179/ 1
/cm/shared/apps/spack/cpu/opt/spack/linux-centos8-zen2/gcc-10.2.0/qchem-5.4-akfmr7b3t57bfs6qan3padb2wnb2i7cl/bin/mpi/mpirun_qchem -machinefile ./qchem642179/hostfile -np 1 /cm/shared/apps/spack/cpu/opt/spack/linux-centos8-zen2/gcc-10.2.0/qchem-5.4-akfmr7b3t57bfs6qan3padb2wnb2i7cl/exe/qcprog.exe fin_bdt_Phi_30_Theta_260_fin_ftt_Hydrogenated_Improper.qcin_642179.0 ./qchem642179/

Process 0 of 1 is on exp-9-02 - thread support 0
initial socket setup ...start
initial socket setup ...done 
now start server 0 ... 
                  Welcome to Q-Chem
     A Quantum Leap Into The Future Of Chemistry


 Q-Chem 5.4, Q-Chem, Inc., Pleasanton, CA (2021)

 License issued to: University of California, San Diego (site)

 E. Epifanovsky,  A. T. B. Gilbert,  Xintian Feng,  Joonho Lee,  Yuezhi Mao,  
 N. Mardirossian,  P. Pokhilko,  A. White,  M. Wormit,  M. P. Coons,  
 A. L. Dempwolff,  Zhengting Gan,  D. Hait,  P. R. Horn,  L. D. Jacobson,  
 I. Kaliman,  J. Kussmann,  A. W. Lange,  Ka Un Lao,  D. S. Levine,  Jie Liu,  
 S. C. McKenzie,  A. F. Morrison,  K. Nanda,  F. Plasser,  D. R. Rehn,  
 M. L. Vidal,  Zhi-Qiang You,  Ying Zhu,  B. Alam,  B. Albrecht,  
 A. Aldossary,  E. Alguire,  J. H. Andersen,  D. Barton,  K. Begam,  A. Behn,  
 Y. A. Bernard,  E. J. Berquist,  H. Burton,  A. Carreras,  K. Carter-Fenk,  
 R. Chakraborty,  A. D. Chien,  K. D. Closser,  V. Cofer-Shabica,  
 S. Dasgupta,  Jia Deng,  M. de Wergifosse,  M. Diedenhofen,  Hainam Do,  
 S. Ehlert,  Po-Tung Fang,  S. Fatehi,  Qingguo Feng,  J. Gayvert,  
 Qinghui Ge,  G. Gidofalvi,  M. Goldey,  J. Gomes,  C. Gonzalez-Espinoza,  
 S. Gulania,  A. Gunina,  M. W. D. Hanson-Heine,  P. H. P. Harbach,  
 A. W. Hauser,  M. F. Herbst,  M. Hernandez Vera,  M. Hodecker,  
 Z. C. Holden,  S. Houck,  Xunkun Huang,  Kerwin Hui,  B. C. Huynh,  
 M. Ivanov,  Hyunjun Ji,  Hanjie Jiang,  B. Kaduk,  S. Kaehler,  
 K. Khistyaev,  Jaehoon Kim,  P. Klunzinger,  Z. Koczor-Benda,  
 Joong Hoon Koh,  D. Kosenkov,  L. Koulias,  T. Kowalczyk,  C. M. Krauter,  
 K. Kue,  A. Kunitsa,  T. Kus,  A. Landau,  K. V. Lawler,  D. Lefrancois,  
 S. Lehtola,  Rain Li,  Yi-Pei Li,  Jiashu Liang,  M. Liebenthal,  
 Hung-Hsuan Lin,  You-Sheng Lin,  Fenglai Liu,  Kuan-Yu Liu,  
 M. Loipersberger,  A. Luenser,  A. Manjanath,  P. Manohar,  E. Mansoor,  
 S. F. Manzer,  Shan-Ping Mao,  A. V. Marenich,  T. Markovich,  S. Mason,  
 S. A. Maurer,  P. F. McLaughlin,  M. F. S. J. Menger,  J.-M. Mewes,  
 S. A. Mewes,  P. Morgante,  J. W. Mullinax,  T. S. Nguyen-Beck,  
 K. J. Oosterbaan,  G. Paran,  Alexander C. Paul,  Suranjan K. Paul,  
 F. Pavosevic,  Zheng Pei,  S. Prager,  E. I. Proynov,  E. Ramos,  B. Rana,  
 A. E. Rask,  A. Rettig,  R. M. Richard,  F. Rob,  E. Rossomme,  T. Scheele,  
 M. Scheurer,  M. Schneider,  N. Sergueev,  S. M. Sharada,  W. Skomorowski,  
 D. W. Small,  C. J. Stein,  Yu-Chuan Su,  E. J. Sundstrom,  Zhen Tao,  
 J. Thirman,  T. Tsuchimochi,  N. M. Tubman,  S. P. Veccham,  O. Vydrov,  
 J. Wenzel,  J. Witte,  A. Yamada,  Kun Yao,  S. Yeganeh,  S. R. Yost,  
 A. Zech,  Igor Ying Zhang,  Xing Zhang,  Yu Zhang,  D. Zuev,  
 A. Aspuru-Guzik,  A. T. Bell,  N. A. Besley,  K. B. Bravaya,  B. R. Brooks,  
 D. Casanova,  Jeng-Da Chai,  S. Coriani,  C. J. Cramer,  
 A. E. DePrince, III,  R. A. DiStasio Jr.,  A. Dreuw,  B. D. Dunietz,  
 T. R. Furlani,  W. A. Goddard III,  S. Grimme,  S. Hammes-Schiffer,  
 T. Head-Gordon,  W. J. Hehre,  Chao-Ping Hsu,  T.-C. Jagau,  Yousung Jung,  
 A. Klamt,  Jing Kong,  D. S. Lambrecht,  WanZhen Liang,  N. J. Mayhall,  
 C. W. McCurdy,  J. B. Neaton,  C. Ochsenfeld,  J. A. Parkhill,  R. Peverati,  
 V. A. Rassolov,  Yihan Shao,  L. V. Slipchenko,  T. Stauch,  R. P. Steele,  
 J. E. Subotnik,  A. J. W. Thom,  A. Tkatchenko,  D. G. Truhlar,  
 T. Van Voorhis,  T. A. Wesolowski,  K. B. Whaley,  H. L. Woodcock III,  
 P. M. Zimmerman,  S. Faraji,  P. M. W. Gill,  M. Head-Gordon,  
 J. M. Herbert,  A. I. Krylov

 Contributors to earlier versions of Q-Chem not listed above: 
 R. D. Adamson,  B. Austin,  R. Baer,  J. Baker,  G. J. O. Beran,  
 K. Brandhorst,  S. T. Brown,  E. F. C. Byrd,  A. K. Chakraborty,  
 G. K. L. Chan,  Chun-Min Chang,  Yunqing Chen,  C.-L. Cheng,  
 Siu Hung Chien,  D. M. Chipman,  D. L. Crittenden,  H. Dachsel,  
 R. J. Doerksen,  A. D. Dutoi,  R. G. Edgar,  J. Fosso-Tande,  
 L. Fusti-Molnar,  D. Ghosh,  A. Ghysels,  A. Golubeva-Zadorozhnaya,  
 J. Gonthier,  M. S. Gordon,  S. R. Gwaltney,  G. Hawkins,  J. E. Herr,  
 A. Heyden,  S. Hirata,  E. G. Hohenstein,  G. Kedziora,  F. J. Keil,  
 C. Kelley,  Jihan Kim,  R. A. King,  R. Z. Khaliullin,  P. P. Korambath,  
 W. Kurlancheek,  A. Laurent,  A. M. Lee,  M. S. Lee,  S. V. Levchenko,  
 Ching Yeh Lin,  D. Liotard,  E. Livshits,  R. C. Lochan,  I. Lotan,  
 L. A. Martinez-Martinez,  P. E. Maslen,  N. Nair,  D. P. O'Neill,  
 D. Neuhauser,  E. Neuscamman,  C. M. Oana,  R. Olivares-Amaya,  R. Olson,  
 T. M. Perrine,  B. Peters,  P. A. Pieniazek,  A. Prociuk,  Y. M. Rhee,  
 J. Ritchie,  M. A. Rohrdanz,  E. Rosta,  N. J. Russ,  H. F. Schaefer III,  
 M. W. Schmidt,  N. E. Schultz,  S. Sharma,  N. Shenvi,  C. D. Sherrill,  
 A. C. Simmonett,  A. Sodt,  T. Stein,  D. Stuck,  K. S. Thanthiriwatte,  
 V. Vanovschi,  L. Vogt,  Tao Wang,  A. Warshel,  M. A. Watson,  
 C. F. Williams,  Q. Wu,  X. Xu,  Jun Yang,  W. Zhang,  Yan Zhao

 Please cite Q-Chem as follows:
 Y. Shao et al., Mol. Phys. 113, 184-215 (2015)
 DOI: 10.1080/00268976.2014.952696

 Q-Chem 5.4.0 for Intel X86 EM64T Linux

 Parts of Q-Chem use Armadillo 9.800.1 (Horizon Scraper).
 http://arma.sourceforge.net/

 Q-Chem begins on Sun Sep 24 17:10:39 2023  

 Host: 
0

     Scratch files written to ./qchem642179//
 May1621 |scratch|qcdevops|jenkins|workspace|build_RNUM    
 Parallel job on  1  processors
 Processing $rem in /cm/shared/apps/spack/cpu/opt/spack/linux-centos8-zen2/gcc-10.2.0/qchem-5.4-akfmr7b3t57bfs6qan3padb2wnb2i7cl/config/preferences:
 Processing $rem in /home/rramji/.qchemrc:
 Symmetry turned off for PCM/SM12/SMD calculation
 Core orbitals will be frozen

 Checking the input file for inconsistencies... 	...done.

 Q-Chem warning in module forms1/BasisType.C, line 2236:

 You are not using the predefined 5D/6D in this basis set.


--------------------------------------------------------------
User input:
--------------------------------------------------------------
$molecule
0 1
C	-0.444148	-0.717327	1.025187
S	0.007452	0.060473	2.535887
C	0.794252	1.425273	1.752787
C	0.009952	0.069273	-0.039513
C	0.703052	1.272673	0.346887
C	-0.021848	0.010873	-1.460913
C	0.610452	1.106373	-2.081713
S	1.231352	2.188373	-0.940513
C	0.741752	1.324373	-3.534813
O	0.277552	0.514473	-4.325113
O	1.386152	2.434073	-3.979213
F	-0.575448	-0.955927	-2.221113
C	1.574352	2.739673	-5.309813
H	2.127352	3.696273	-5.345113
H	0.608052	2.847873	-5.850413
H	2.157752	1.952473	-5.836713
C	-0.444148	-2.152527	1.025187
H	-0.640048	-2.161527	-0.036913
H	0.378952	-2.836427	0.879687
H	-1.372548	-2.676927	1.196987
H	1.254252	2.221973	2.346687
$end

$rem
JOBTYPE		SP
EXCHANGE	HF
CORRELATION	pRIMP2
BASIS		cc-pvtz
METHOD		rimp2
AUX_BASIS	rimp2-cc-pvtz
SOLVENT_METHOD	PCM
PURECART	11111
SYMMETRY	false
MEM_TOTAL	110000
SCF_CONVERGENCE = 6
THRESH=10
GUI = 2
$end



$solvent
dielectric 4.90
$end
--------------------------------------------------------------
 ----------------------------------------------------------------
             Standard Nuclear Orientation (Angstroms)
    I     Atom           X                Y                Z
 ----------------------------------------------------------------
    1      C      -0.4441480000    -0.7173270000     1.0251870000
    2      S       0.0074520000     0.0604730000     2.5358870000
    3      C       0.7942520000     1.4252730000     1.7527870000
    4      C       0.0099520000     0.0692730000    -0.0395130000
    5      C       0.7030520000     1.2726730000     0.3468870000
    6      C      -0.0218480000     0.0108730000    -1.4609130000
    7      C       0.6104520000     1.1063730000    -2.0817130000
    8      S       1.2313520000     2.1883730000    -0.9405130000
    9      C       0.7417520000     1.3243730000    -3.5348130000
   10      O       0.2775520000     0.5144730000    -4.3251130000
   11      O       1.3861520000     2.4340730000    -3.9792130000
   12      F      -0.5754480000    -0.9559270000    -2.2211130000
   13      C       1.5743520000     2.7396730000    -5.3098130000
   14      H       2.1273520000     3.6962730000    -5.3451130000
   15      H       0.6080520000     2.8478730000    -5.8504130000
   16      H       2.1577520000     1.9524730000    -5.8367130000
   17      C      -0.4441480000    -2.1525270000     1.0251870000
   18      H      -0.6400480000    -2.1615270000    -0.0369130000
   19      H       0.3789520000    -2.8364270000     0.8796870000
   20      H      -1.3725480000    -2.6769270000     1.1969870000
   21      H       1.2542520000     2.2219730000     2.3466870000
 ----------------------------------------------------------------
 Nuclear Repulsion Energy =        1091.92043522 hartrees
 There are       59 alpha and       59 beta electrons
 Requested basis set is cc-pVTZ
 There are 186 shells and 526 basis functions

 Total QAlloc Memory Limit 110000 MB
 Mega-Array Size       188 MB
 MEM_STATIC part       192 MB
 Discretize the solute cavity surface with Lebedev spheres
	Using 110 Lebedev grid points for each H atom
	Using 194 Lebedev grid points for other atoms
	Atomic van der Waals radii will be scaled by 1.20
 Remove points where switching function is < 1.0e-08
 Keep 1545 surface tesserae and discard 1941 interior tesserae
 Molecular Surface Area = 239.991 Angst**2
 Requested basis set is rimp2-cc-pVTZ
 There are 410 shells and 1426 basis functions
 A cutoff of  1.0D-10 yielded  11649 shell pairs
 There are     91445 function pairs (    119701 Cartesian)
 Smallest overlap matrix eigenvalue = 5.82E-05

 Scale SEOQF with 1.000000e-01/1.000000e-01/1.000000e-02

 Standard Electronic Orientation quadrupole field applied
 Nucleus-field energy     =     0.0000000154 hartrees
 Guess from superposition of atomic densities
 Warning:  Energy on first SCF cycle will be non-variational
 SAD guess density has 118.000000 electrons

 -----------------------------------------------------------------------
  General SCF calculation program by
  Eric Jon Sundstrom, Paul Horn, Yuezhi Mao, Dmitri Zuev, Alec White,
  David Stuck, Shaama M.S., Shane Yost, Joonho Lee, David Small,
  Daniel Levine, Susi Lehtola, Hugh Burton, Evgeny Epifanovsky,
  Bang C. Huynh
 -----------------------------------------------------------------------
 Hartree-Fock
 using 64 threads for integral computing
 -------------------------------------------------------
 OpenMP Integral computing Module                
 Release: version 1.0, May 2013, Q-Chem Inc. Pittsburgh 
 -------------------------------------------------------
 A restricted SCF calculation will be
 performed using DIIS
 SCF converges when DIIS error is below 1.0e-06
 ---------------------------------------
  Cycle       Energy         DIIS error
 ---------------------------------------
    1   -1394.5873472433      2.53e-02  
    2   -1388.9949570433      2.51e-03  
    3   -1389.1667205637      1.59e-03  
    4   -1389.2300982184      3.48e-04  
    5   -1389.2357791681      1.10e-04  
    6   -1389.2364389544      3.64e-05  
    7   -1389.2365814636      1.85e-05  
    8   -1389.2366321719      7.71e-06  
    9   -1389.2366449528      3.70e-06  
   10   -1389.2366472518      1.47e-06  
   11   -1389.2366476488      5.78e-07  Convergence criterion met
 ---------------------------------------
 SCF time:   CPU 1685.23s  wall 48.00s 

************** Final PCM Free Energy Summary **************
 G_electrostatic  =      -0.01205314 hartree =      -7.56346225 kcal/mol
 G_cavitation     =       0.00000000 hartree =       0.00000000 kcal/mol
 G_dispersion     =       0.00000000 hartree =       0.00000000 kcal/mol
 G_repulsion      =       0.00000000 hartree =       0.00000000 kcal/mol
 --------------------------------------------------
 Non-electrostatic Free Energy =       0.00000000 hartree =       0.00000000 kcal/mol
 Total                         =      -0.01205314 hartree =      -7.56346225 kcal/mol
 --------------------------------------------------
 SCF Energy (H0 + V/2)                       =   -1389.23664765 
 Solute Internal Energy (H0)                 =   -1389.22459450 
 Total Free Energy (H0 + V/2 + non-elec)     =   -1389.23664765 hartree
                                             = -871759.15385989 kcal/mol
***********************************************************

 SCF   energy in the final basis set =    -1389.2366476488
 Total energy in the final basis set =    -1389.2366476488


 --------------------------------------------------------------
  Generalized many-body perturbation theory program
  by Joonho Lee, Fazle Rob, Xintian Feng, Evgeny Epifanovsky

 No regularization used 
 (reg. param. = 0.0000e+00)
  (P|Q)^-1/2 Time:  CPU 21.60 s  wall 0.34 s

 In RI-MP2 calculation: 
 # of frozen core orbitals: 22

 Components of the RIMP2 correlation energy:
        aaaa    correlation energy =        -0.3307150799 a.u.
        abab    correlation energy =        -1.8515821878 a.u.
        bbbb    correlation energy =        -0.3307150799 a.u.
        non-Brillouin singles      =        -0.0000000000 a.u.
        total same-spin energy     =        -0.6614301597 a.u.
        total opposite-spin energy =        -1.8515821878 a.u.

 Total  RIMP2   correlation energy =        -2.5130123475 a.u.
        RIMP2         total energy =     -1391.7496599962 a.u.

 RI-MP2 Energy Time:  CPU 174.79 s  wall 3.22 s
 
 --------------------------------------------------------------
 
                    Orbital Energies (a.u.)
 --------------------------------------------------------------
 
 Alpha MOs
 -- Occupied --
-92.0029 -91.9934 -26.3353 -20.6120 -20.5501 -11.4102 -11.3760 -11.2968
-11.2967 -11.2927 -11.2916 -11.2885 -11.2768 -11.2233  -9.0020  -8.9974
 -6.6827  -6.6820  -6.6818  -6.6787  -6.6781  -6.6767  -1.6486  -1.4718
 -1.3672  -1.2298  -1.1465  -1.0681  -1.0277  -1.0046  -0.9695  -0.9103
 -0.8648  -0.7962  -0.7872  -0.7685  -0.7274  -0.7167  -0.6971  -0.6785
 -0.6777  -0.6706  -0.6066  -0.6056  -0.5993  -0.5902  -0.5780  -0.5663
 -0.5420  -0.5257  -0.5066  -0.4825  -0.4726  -0.4621  -0.4611  -0.4460
 -0.3965  -0.3445  -0.2851
 -- Virtual --
  0.0275   0.1163   0.1389   0.1556   0.1588   0.1707   0.1851   0.1958
  0.2070   0.2185   0.2198   0.2273   0.2365   0.2421   0.2610   0.2708
  0.2890   0.3066   0.3220   0.3349   0.3510   0.3588   0.3721   0.3763
  0.3801   0.3914   0.3941   0.4081   0.4177   0.4264   0.4381   0.4448
  0.4552   0.4663   0.4679   0.4763   0.4852   0.5063   0.5147   0.5302
  0.5344   0.5402   0.5502   0.5523   0.5593   0.5635   0.5703   0.5855
  0.5895   0.5982   0.6018   0.6100   0.6166   0.6209   0.6264   0.6333
  0.6401   0.6435   0.6495   0.6621   0.6775   0.6868   0.6904   0.6997
  0.7120   0.7153   0.7433   0.7570   0.7668   0.7815   0.7859   0.8012
  0.8027   0.8105   0.8246   0.8478   0.8639   0.8792   0.8816   0.8877
  0.8967   0.9027   0.9126   0.9375   0.9418   0.9451   0.9477   0.9735
  0.9866   0.9938   1.0055   1.0105   1.0188   1.0286   1.0400   1.0477
  1.0635   1.0705   1.0791   1.0960   1.1005   1.1125   1.1222   1.1376
  1.1545   1.1573   1.1681   1.1706   1.1773   1.1873   1.1928   1.2121
  1.2184   1.2223   1.2424   1.2526   1.2596   1.2802   1.2859   1.3055
  1.3320   1.3347   1.3447   1.3520   1.3567   1.3734   1.3805   1.3916
  1.4074   1.4223   1.4409   1.4599   1.4701   1.4938   1.4992   1.5117
  1.5123   1.5150   1.5428   1.5500   1.5621   1.5871   1.5897   1.6047
  1.6269   1.6325   1.6569   1.6692   1.6809   1.7023   1.7231   1.7284
  1.7572   1.7686   1.7763   1.8133   1.8226   1.8332   1.8438   1.8563
  1.8678   1.8772   1.8836   1.9261   1.9291   1.9440   1.9519   1.9742
  1.9775   2.0062   2.0281   2.0298   2.0533   2.0937   2.1035   2.1216
  2.1425   2.1526   2.1573   2.1637   2.1883   2.1954   2.2143   2.2347
  2.2417   2.2641   2.2655   2.2786   2.2872   2.2974   2.3333   2.3377
  2.3662   2.3817   2.4063   2.4325   2.4587   2.4665   2.4826   2.5064
  2.5298   2.5646   2.5711   2.5803   2.5896   2.5938   2.6177   2.6196
  2.6505   2.6533   2.6594   2.6770   2.6927   2.7001   2.7233   2.7323
  2.7379   2.7491   2.7590   2.7729   2.7920   2.8134   2.8256   2.8379
  2.8441   2.8630   2.8759   2.8811   2.9091   2.9233   2.9378   2.9428
  2.9613   2.9873   3.0034   3.0294   3.0360   3.0438   3.0511   3.0643
  3.0837   3.0902   3.0920   3.1117   3.1178   3.1325   3.1503   3.1538
  3.1835   3.1874   3.1917   3.2098   3.2168   3.2238   3.2444   3.2560
  3.2653   3.2661   3.2807   3.2884   3.2999   3.3065   3.3142   3.3269
  3.3344   3.3446   3.3524   3.3625   3.3725   3.3857   3.3993   3.4258
  3.4316   3.4464   3.4551   3.4564   3.4647   3.4829   3.4919   3.5015
  3.5068   3.5267   3.5356   3.5486   3.5636   3.5726   3.5848   3.5896
  3.5919   3.6041   3.6253   3.6332   3.6434   3.6564   3.6634   3.6729
  3.6940   3.7037   3.7050   3.7131   3.7279   3.7295   3.7468   3.7477
  3.7637   3.7825   3.7870   3.7966   3.8222   3.8274   3.8337   3.8501
  3.8620   3.8683   3.8701   3.8821   3.9024   3.9207   3.9300   3.9341
  3.9458   3.9757   3.9819   3.9854   4.0045   4.0253   4.0388   4.0554
  4.0705   4.0789   4.0900   4.0943   4.1091   4.1614   4.1712   4.1729
  4.1956   4.2223   4.2302   4.2645   4.2733   4.3012   4.3085   4.3274
  4.3482   4.3758   4.3813   4.3907   4.3968   4.4054   4.4311   4.4352
  4.4780   4.4870   4.4981   4.5134   4.5426   4.5569   4.5846   4.6118
  4.6355   4.6427   4.6541   4.6588   4.6789   4.7018   4.7139   4.7402
  4.7669   4.7776   4.7965   4.8054   4.8286   4.8735   4.8939   4.9164
  4.9678   5.0023   5.0124   5.0242   5.0690   5.0802   5.1172   5.1575
  5.1829   5.2030   5.2231   5.2463   5.2590   5.2644   5.2818   5.3547
  5.3553   5.3621   5.3952   5.4247   5.4497   5.4730   5.4857   5.5335
  5.5477   5.5864   5.6176   5.6364   5.6389   5.6817   5.7373   5.8009
  5.8198   5.8300   5.8517   5.8947   5.9366   5.9560   5.9697   5.9850
  6.0352   6.1232   6.1336   6.1855   6.2051   6.3087   6.3519   6.4163
  6.4661   6.5058   6.5564   6.6645   6.6768   6.7342   6.7418   6.8604
  6.8816   6.9904   7.1785   7.2102   7.3264   7.3716   7.3754   7.4280
  7.4626   7.4853   7.5167   7.5483   7.6059   7.7689   7.8314   7.9033
  8.0011   8.1189   8.3809   8.9275   9.0103   9.3622   9.5023   9.7006
 10.1903  11.2251  11.7816  11.9370  12.3009  12.6496  13.1646  13.4783
 13.8147  14.0948  14.4662
 --------------------------------------------------------------
 
          Ground-State Mulliken Net Atomic Charges

     Atom                 Charge (a.u.)
  ----------------------------------------
      1 C                    -0.006347
      2 S                     0.089637
      3 C                    -0.230334
      4 C                    -0.085663
      5 C                    -0.013140
      6 C                     0.359336
      7 C                    -0.143338
      8 S                     0.039935
      9 C                     0.456826
     10 O                    -0.450582
     11 O                    -0.297775
     12 F                    -0.212073
     13 C                    -0.054821
     14 H                     0.116689
     15 H                     0.084404
     16 H                     0.084304
     17 C                    -0.350088
     18 H                     0.110349
     19 H                     0.157616
     20 H                     0.133801
     21 H                     0.211264
  ----------------------------------------
  Sum of atomic charges =     0.000000

 -----------------------------------------------------------------
                    Cartesian Multipole Moments
 -----------------------------------------------------------------
    Charge (ESU x 10^10)
                -0.0000
    Dipole Moment (Debye)
         X       1.6263      Y       1.4027      Z       2.6170
       Tot       3.3855
    Quadrupole Moments (Debye-Ang)
        XX     -93.4439     XY       4.7581     YY     -85.0436
        XZ      -5.1396     YZ      -8.8720     ZZ     -96.8638
    Octopole Moments (Debye-Ang^2)
       XXX    -130.4533    XXY     -65.3122    XYY     -32.2109
       YYY    -200.9900    XXZ      75.0323    XYZ      -8.0212
       YYZ      65.5266    XZZ       3.5408    YZZ      13.3937
       ZZZ     250.0159
    Hexadecapole Moments (Debye-Ang^3)
      XXXX    -508.9035   XXXY    -346.3667   XXYY    -308.9194
      XYYY    -312.2812   YYYY   -1435.2495   XXXZ     343.1149
      XXYZ     194.2486   XYYZ      81.1740   YYYZ     588.6704
      XXZZ    -668.2301   XYZZ       8.1831   YYZZ    -694.5643
      XZZZ     146.3419   YZZZ     294.5787   ZZZZ   -3772.8494
 -----------------------------------------------------------------
 Total job time:  61.35s(wall), 2430.39s(cpu) 
 Sun Sep 24 17:11:40 2023

        *************************************************************
        *                                                           *
        *  Thank you very much for using Q-Chem.  Have a nice day.  *
        *                                                           *
        *************************************************************


0 sent ACK to 0 
now end server 0 ... 
cleanup process ... done
remove work dirs ./qchem642179.0 -- ./qchem642179.0
rm -rf ./qchem642179.0
rm -rf ./qchem642179
