You are running Q-Chem version: 5.4.0

#
# job setting
#
local host:  exp-9-02
current dir: /expanse/lustre/projects/csd626/rramji/aromodel/PTB7_fin/Hydrogenated_Impropers_Test
input file:  fin_bdt_Phi_30_Theta_290_fin_ftt_Hydrogenated_Improper.qcin
output file: 
nprocs     : 1
nthreads   : 64
#
# qchem installation setting
#
QC:          /cm/shared/apps/spack/cpu/opt/spack/linux-centos8-zen2/gcc-10.2.0/qchem-5.4-akfmr7b3t57bfs6qan3padb2wnb2i7cl
QCAUX:       /cm/shared/apps/spack/cpu/opt/spack/linux-centos8-zen2/gcc-10.2.0/qchem-5.4-akfmr7b3t57bfs6qan3padb2wnb2i7cl/qcaux
QCPROG:      /cm/shared/apps/spack/cpu/opt/spack/linux-centos8-zen2/gcc-10.2.0/qchem-5.4-akfmr7b3t57bfs6qan3padb2wnb2i7cl/exe/qcprog.exe
QCPROG_S:    /cm/shared/apps/spack/cpu/opt/spack/linux-centos8-zen2/gcc-10.2.0/qchem-5.4-akfmr7b3t57bfs6qan3padb2wnb2i7cl/exe/qcprog.exe_s
PARALLEL:    -DPARALLEL
QCMPI:       mpich
#
# qchem directory setting
#
qcrun:       qchem643465
QCSCRATCH:   .
QCLOCALSCR:  
QCTMPDIR:    .
QCFILEPREF:  ./qchem643465
QCSAVEDIR:   
workdirs:    ./qchem643465
workdir0:    ./qchem643465
partmpdirs =  
#
# parallel setting
#
QCRSH:           ssh
QCMPI:           mpich
QCMPIRUN:        /cm/shared/apps/spack/cpu/opt/spack/linux-centos8-zen2/gcc-10.2.0/qchem-5.4-akfmr7b3t57bfs6qan3padb2wnb2i7cl/bin/mpi/mpirun_qchem
QCMACHINEFILE:   ./qchem643465/hostfile
exp-9-02

#
# env setting
#
exported envs:   QC QCAUX QCSCRATCH QCRUNNAME QCFILEPREF QCPROG QCPROG_S GUIFILE

Running Job 1 of 1 fin_bdt_Phi_30_Theta_290_fin_ftt_Hydrogenated_Improper.qcin
qchem fin_bdt_Phi_30_Theta_290_fin_ftt_Hydrogenated_Improper.qcin_643465.0 ./qchem643465/ 1
/cm/shared/apps/spack/cpu/opt/spack/linux-centos8-zen2/gcc-10.2.0/qchem-5.4-akfmr7b3t57bfs6qan3padb2wnb2i7cl/bin/mpi/mpirun_qchem -machinefile ./qchem643465/hostfile -np 1 /cm/shared/apps/spack/cpu/opt/spack/linux-centos8-zen2/gcc-10.2.0/qchem-5.4-akfmr7b3t57bfs6qan3padb2wnb2i7cl/exe/qcprog.exe fin_bdt_Phi_30_Theta_290_fin_ftt_Hydrogenated_Improper.qcin_643465.0 ./qchem643465/

Process 0 of 1 is on exp-9-02 - thread support 0
initial socket setup ...start
initial socket setup ...done 
now start server 0 ... 
                  Welcome to Q-Chem
     A Quantum Leap Into The Future Of Chemistry


 Q-Chem 5.4, Q-Chem, Inc., Pleasanton, CA (2021)

 License issued to: University of California, San Diego (site)

 E. Epifanovsky,  A. T. B. Gilbert,  Xintian Feng,  Joonho Lee,  Yuezhi Mao,  
 N. Mardirossian,  P. Pokhilko,  A. White,  M. Wormit,  M. P. Coons,  
 A. L. Dempwolff,  Zhengting Gan,  D. Hait,  P. R. Horn,  L. D. Jacobson,  
 I. Kaliman,  J. Kussmann,  A. W. Lange,  Ka Un Lao,  D. S. Levine,  Jie Liu,  
 S. C. McKenzie,  A. F. Morrison,  K. Nanda,  F. Plasser,  D. R. Rehn,  
 M. L. Vidal,  Zhi-Qiang You,  Ying Zhu,  B. Alam,  B. Albrecht,  
 A. Aldossary,  E. Alguire,  J. H. Andersen,  D. Barton,  K. Begam,  A. Behn,  
 Y. A. Bernard,  E. J. Berquist,  H. Burton,  A. Carreras,  K. Carter-Fenk,  
 R. Chakraborty,  A. D. Chien,  K. D. Closser,  V. Cofer-Shabica,  
 S. Dasgupta,  Jia Deng,  M. de Wergifosse,  M. Diedenhofen,  Hainam Do,  
 S. Ehlert,  Po-Tung Fang,  S. Fatehi,  Qingguo Feng,  J. Gayvert,  
 Qinghui Ge,  G. Gidofalvi,  M. Goldey,  J. Gomes,  C. Gonzalez-Espinoza,  
 S. Gulania,  A. Gunina,  M. W. D. Hanson-Heine,  P. H. P. Harbach,  
 A. W. Hauser,  M. F. Herbst,  M. Hernandez Vera,  M. Hodecker,  
 Z. C. Holden,  S. Houck,  Xunkun Huang,  Kerwin Hui,  B. C. Huynh,  
 M. Ivanov,  Hyunjun Ji,  Hanjie Jiang,  B. Kaduk,  S. Kaehler,  
 K. Khistyaev,  Jaehoon Kim,  P. Klunzinger,  Z. Koczor-Benda,  
 Joong Hoon Koh,  D. Kosenkov,  L. Koulias,  T. Kowalczyk,  C. M. Krauter,  
 K. Kue,  A. Kunitsa,  T. Kus,  A. Landau,  K. V. Lawler,  D. Lefrancois,  
 S. Lehtola,  Rain Li,  Yi-Pei Li,  Jiashu Liang,  M. Liebenthal,  
 Hung-Hsuan Lin,  You-Sheng Lin,  Fenglai Liu,  Kuan-Yu Liu,  
 M. Loipersberger,  A. Luenser,  A. Manjanath,  P. Manohar,  E. Mansoor,  
 S. F. Manzer,  Shan-Ping Mao,  A. V. Marenich,  T. Markovich,  S. Mason,  
 S. A. Maurer,  P. F. McLaughlin,  M. F. S. J. Menger,  J.-M. Mewes,  
 S. A. Mewes,  P. Morgante,  J. W. Mullinax,  T. S. Nguyen-Beck,  
 K. J. Oosterbaan,  G. Paran,  Alexander C. Paul,  Suranjan K. Paul,  
 F. Pavosevic,  Zheng Pei,  S. Prager,  E. I. Proynov,  E. Ramos,  B. Rana,  
 A. E. Rask,  A. Rettig,  R. M. Richard,  F. Rob,  E. Rossomme,  T. Scheele,  
 M. Scheurer,  M. Schneider,  N. Sergueev,  S. M. Sharada,  W. Skomorowski,  
 D. W. Small,  C. J. Stein,  Yu-Chuan Su,  E. J. Sundstrom,  Zhen Tao,  
 J. Thirman,  T. Tsuchimochi,  N. M. Tubman,  S. P. Veccham,  O. Vydrov,  
 J. Wenzel,  J. Witte,  A. Yamada,  Kun Yao,  S. Yeganeh,  S. R. Yost,  
 A. Zech,  Igor Ying Zhang,  Xing Zhang,  Yu Zhang,  D. Zuev,  
 A. Aspuru-Guzik,  A. T. Bell,  N. A. Besley,  K. B. Bravaya,  B. R. Brooks,  
 D. Casanova,  Jeng-Da Chai,  S. Coriani,  C. J. Cramer,  
 A. E. DePrince, III,  R. A. DiStasio Jr.,  A. Dreuw,  B. D. Dunietz,  
 T. R. Furlani,  W. A. Goddard III,  S. Grimme,  S. Hammes-Schiffer,  
 T. Head-Gordon,  W. J. Hehre,  Chao-Ping Hsu,  T.-C. Jagau,  Yousung Jung,  
 A. Klamt,  Jing Kong,  D. S. Lambrecht,  WanZhen Liang,  N. J. Mayhall,  
 C. W. McCurdy,  J. B. Neaton,  C. Ochsenfeld,  J. A. Parkhill,  R. Peverati,  
 V. A. Rassolov,  Yihan Shao,  L. V. Slipchenko,  T. Stauch,  R. P. Steele,  
 J. E. Subotnik,  A. J. W. Thom,  A. Tkatchenko,  D. G. Truhlar,  
 T. Van Voorhis,  T. A. Wesolowski,  K. B. Whaley,  H. L. Woodcock III,  
 P. M. Zimmerman,  S. Faraji,  P. M. W. Gill,  M. Head-Gordon,  
 J. M. Herbert,  A. I. Krylov

 Contributors to earlier versions of Q-Chem not listed above: 
 R. D. Adamson,  B. Austin,  R. Baer,  J. Baker,  G. J. O. Beran,  
 K. Brandhorst,  S. T. Brown,  E. F. C. Byrd,  A. K. Chakraborty,  
 G. K. L. Chan,  Chun-Min Chang,  Yunqing Chen,  C.-L. Cheng,  
 Siu Hung Chien,  D. M. Chipman,  D. L. Crittenden,  H. Dachsel,  
 R. J. Doerksen,  A. D. Dutoi,  R. G. Edgar,  J. Fosso-Tande,  
 L. Fusti-Molnar,  D. Ghosh,  A. Ghysels,  A. Golubeva-Zadorozhnaya,  
 J. Gonthier,  M. S. Gordon,  S. R. Gwaltney,  G. Hawkins,  J. E. Herr,  
 A. Heyden,  S. Hirata,  E. G. Hohenstein,  G. Kedziora,  F. J. Keil,  
 C. Kelley,  Jihan Kim,  R. A. King,  R. Z. Khaliullin,  P. P. Korambath,  
 W. Kurlancheek,  A. Laurent,  A. M. Lee,  M. S. Lee,  S. V. Levchenko,  
 Ching Yeh Lin,  D. Liotard,  E. Livshits,  R. C. Lochan,  I. Lotan,  
 L. A. Martinez-Martinez,  P. E. Maslen,  N. Nair,  D. P. O'Neill,  
 D. Neuhauser,  E. Neuscamman,  C. M. Oana,  R. Olivares-Amaya,  R. Olson,  
 T. M. Perrine,  B. Peters,  P. A. Pieniazek,  A. Prociuk,  Y. M. Rhee,  
 J. Ritchie,  M. A. Rohrdanz,  E. Rosta,  N. J. Russ,  H. F. Schaefer III,  
 M. W. Schmidt,  N. E. Schultz,  S. Sharma,  N. Shenvi,  C. D. Sherrill,  
 A. C. Simmonett,  A. Sodt,  T. Stein,  D. Stuck,  K. S. Thanthiriwatte,  
 V. Vanovschi,  L. Vogt,  Tao Wang,  A. Warshel,  M. A. Watson,  
 C. F. Williams,  Q. Wu,  X. Xu,  Jun Yang,  W. Zhang,  Yan Zhao

 Please cite Q-Chem as follows:
 Y. Shao et al., Mol. Phys. 113, 184-215 (2015)
 DOI: 10.1080/00268976.2014.952696

 Q-Chem 5.4.0 for Intel X86 EM64T Linux

 Parts of Q-Chem use Armadillo 9.800.1 (Horizon Scraper).
 http://arma.sourceforge.net/

 Q-Chem begins on Sun Sep 24 17:13:43 2023  

 Host: 
0

     Scratch files written to ./qchem643465//
 May1621 |scratch|qcdevops|jenkins|workspace|build_RNUM    
 Parallel job on  1  processors
 Processing $rem in /cm/shared/apps/spack/cpu/opt/spack/linux-centos8-zen2/gcc-10.2.0/qchem-5.4-akfmr7b3t57bfs6qan3padb2wnb2i7cl/config/preferences:
 Processing $rem in /home/rramji/.qchemrc:
 Symmetry turned off for PCM/SM12/SMD calculation
 Core orbitals will be frozen

 Checking the input file for inconsistencies... 	...done.

 Q-Chem warning in module forms1/BasisType.C, line 2236:

 You are not using the predefined 5D/6D in this basis set.


--------------------------------------------------------------
User input:
--------------------------------------------------------------
$molecule
0 1
C	-0.445370	-0.717327	1.025213
S	0.006230	0.060473	2.535913
C	0.793030	1.425273	1.752813
C	0.008730	0.069273	-0.039487
C	0.701830	1.272673	0.346913
C	-0.023070	0.010873	-1.460887
C	0.609230	1.106373	-2.081687
S	1.230130	2.188373	-0.940487
C	0.740530	1.324373	-3.534787
O	0.276330	0.514473	-4.325087
O	1.384930	2.434073	-3.979187
F	-0.576670	-0.955927	-2.221087
C	1.573130	2.739673	-5.309787
H	2.126130	3.696273	-5.345087
H	0.606830	2.847873	-5.850387
H	2.156530	1.952473	-5.836687
C	-0.445370	-2.152527	1.025213
H	-0.083970	-2.161527	0.007513
H	0.340230	-2.836427	1.310713
H	-1.335270	-2.676927	0.709813
H	1.253030	2.221973	2.346713
$end

$rem
JOBTYPE		SP
EXCHANGE	HF
CORRELATION	pRIMP2
BASIS		cc-pvtz
METHOD		rimp2
AUX_BASIS	rimp2-cc-pvtz
SOLVENT_METHOD	PCM
PURECART	11111
SYMMETRY	false
MEM_TOTAL	110000
SCF_CONVERGENCE = 6
THRESH=10
GUI = 2
$end



$solvent
dielectric 4.90
$end
--------------------------------------------------------------
 ----------------------------------------------------------------
             Standard Nuclear Orientation (Angstroms)
    I     Atom           X                Y                Z
 ----------------------------------------------------------------
    1      C      -0.4453700000    -0.7173270000     1.0252130000
    2      S       0.0062300000     0.0604730000     2.5359130000
    3      C       0.7930300000     1.4252730000     1.7528130000
    4      C       0.0087300000     0.0692730000    -0.0394870000
    5      C       0.7018300000     1.2726730000     0.3469130000
    6      C      -0.0230700000     0.0108730000    -1.4608870000
    7      C       0.6092300000     1.1063730000    -2.0816870000
    8      S       1.2301300000     2.1883730000    -0.9404870000
    9      C       0.7405300000     1.3243730000    -3.5347870000
   10      O       0.2763300000     0.5144730000    -4.3250870000
   11      O       1.3849300000     2.4340730000    -3.9791870000
   12      F      -0.5766700000    -0.9559270000    -2.2210870000
   13      C       1.5731300000     2.7396730000    -5.3097870000
   14      H       2.1261300000     3.6962730000    -5.3450870000
   15      H       0.6068300000     2.8478730000    -5.8503870000
   16      H       2.1565300000     1.9524730000    -5.8366870000
   17      C      -0.4453700000    -2.1525270000     1.0252130000
   18      H      -0.0839700000    -2.1615270000     0.0075130000
   19      H       0.3402300000    -2.8364270000     1.3107130000
   20      H      -1.3352700000    -2.6769270000     0.7098130000
   21      H       1.2530300000     2.2219730000     2.3467130000
 ----------------------------------------------------------------
 Nuclear Repulsion Energy =        1092.26850069 hartrees
 There are       59 alpha and       59 beta electrons
 Requested basis set is cc-pVTZ
 There are 186 shells and 526 basis functions

 Total QAlloc Memory Limit 110000 MB
 Mega-Array Size       188 MB
 MEM_STATIC part       192 MB
 Discretize the solute cavity surface with Lebedev spheres
	Using 110 Lebedev grid points for each H atom
	Using 194 Lebedev grid points for other atoms
	Atomic van der Waals radii will be scaled by 1.20
 Remove points where switching function is < 1.0e-08
 Keep 1548 surface tesserae and discard 1938 interior tesserae
 Molecular Surface Area = 240.357 Angst**2
 Requested basis set is rimp2-cc-pVTZ
 There are 410 shells and 1426 basis functions
 A cutoff of  1.0D-10 yielded  11664 shell pairs
 There are     91552 function pairs (    119831 Cartesian)
 Smallest overlap matrix eigenvalue = 6.14E-05

 Scale SEOQF with 1.000000e-01/1.000000e-01/1.000000e-02

 Standard Electronic Orientation quadrupole field applied
 Nucleus-field energy     =     0.0000000153 hartrees
 Guess from superposition of atomic densities
 Warning:  Energy on first SCF cycle will be non-variational
 SAD guess density has 118.000000 electrons

 -----------------------------------------------------------------------
  General SCF calculation program by
  Eric Jon Sundstrom, Paul Horn, Yuezhi Mao, Dmitri Zuev, Alec White,
  David Stuck, Shaama M.S., Shane Yost, Joonho Lee, David Small,
  Daniel Levine, Susi Lehtola, Hugh Burton, Evgeny Epifanovsky,
  Bang C. Huynh
 -----------------------------------------------------------------------
 Hartree-Fock
 using 64 threads for integral computing
 -------------------------------------------------------
 OpenMP Integral computing Module                
 Release: version 1.0, May 2013, Q-Chem Inc. Pittsburgh 
 -------------------------------------------------------
 A restricted SCF calculation will be
 performed using DIIS
 SCF converges when DIIS error is below 1.0e-06
 ---------------------------------------
  Cycle       Energy         DIIS error
 ---------------------------------------
    1   -1394.5940320430      2.53e-02  
    2   -1388.9926254503      2.51e-03  
    3   -1389.1646139118      1.59e-03  
    4   -1389.2275651949      3.48e-04  
    5   -1389.2332482586      1.10e-04  
    6   -1389.2339094300      3.64e-05  
    7   -1389.2340526024      1.85e-05  
    8   -1389.2341032226      7.68e-06  
    9   -1389.2341158139      3.67e-06  
   10   -1389.2341180586      1.45e-06  
   11   -1389.2341184435      5.67e-07  Convergence criterion met
 ---------------------------------------
 SCF time:   CPU 1666.56s  wall 49.00s 

************** Final PCM Free Energy Summary **************
 G_electrostatic  =      -0.01223237 hartree =      -7.67593077 kcal/mol
 G_cavitation     =       0.00000000 hartree =       0.00000000 kcal/mol
 G_dispersion     =       0.00000000 hartree =       0.00000000 kcal/mol
 G_repulsion      =       0.00000000 hartree =       0.00000000 kcal/mol
 --------------------------------------------------
 Non-electrostatic Free Energy =       0.00000000 hartree =       0.00000000 kcal/mol
 Total                         =      -0.01223237 hartree =      -7.67593077 kcal/mol
 --------------------------------------------------
 SCF Energy (H0 + V/2)                       =   -1389.23411844 
 Solute Internal Energy (H0)                 =   -1389.22188607 
 Total Free Energy (H0 + V/2 + non-elec)     =   -1389.23411844 hartree
                                             = -871757.56675960 kcal/mol
***********************************************************

 SCF   energy in the final basis set =    -1389.2341184435
 Total energy in the final basis set =    -1389.2341184435


 --------------------------------------------------------------
  Generalized many-body perturbation theory program
  by Joonho Lee, Fazle Rob, Xintian Feng, Evgeny Epifanovsky

 No regularization used 
 (reg. param. = 0.0000e+00)
  (P|Q)^-1/2 Time:  CPU 20.28 s  wall 0.32 s

 In RI-MP2 calculation: 
 # of frozen core orbitals: 22

 Components of the RIMP2 correlation energy:
        aaaa    correlation energy =        -0.3307595702 a.u.
        abab    correlation energy =        -1.8516206718 a.u.
        bbbb    correlation energy =        -0.3307595702 a.u.
        non-Brillouin singles      =        -0.0000000000 a.u.
        total same-spin energy     =        -0.6615191403 a.u.
        total opposite-spin energy =        -1.8516206718 a.u.

 Total  RIMP2   correlation energy =        -2.5131398121 a.u.
        RIMP2         total energy =     -1391.7472582555 a.u.

 RI-MP2 Energy Time:  CPU 171.85 s  wall 2.89 s
 
 --------------------------------------------------------------
 
                    Orbital Energies (a.u.)
 --------------------------------------------------------------
 
 Alpha MOs
 -- Occupied --
-92.0051 -91.9930 -26.3352 -20.6117 -20.5495 -11.4097 -11.3757 -11.3001
-11.2957 -11.2923 -11.2888 -11.2884 -11.2743 -11.2244  -9.0040  -8.9971
 -6.6847  -6.6840  -6.6837  -6.6783  -6.6777  -6.6763  -1.6484  -1.4714
 -1.3667  -1.2295  -1.1472  -1.0685  -1.0274  -1.0045  -0.9693  -0.9097
 -0.8645  -0.7959  -0.7868  -0.7682  -0.7271  -0.7166  -0.6971  -0.6783
 -0.6777  -0.6701  -0.6071  -0.6053  -0.5979  -0.5897  -0.5846  -0.5645
 -0.5391  -0.5257  -0.5060  -0.4829  -0.4673  -0.4644  -0.4609  -0.4552
 -0.3931  -0.3443  -0.2832
 -- Virtual --
  0.0285   0.1169   0.1392   0.1558   0.1594   0.1711   0.1867   0.1934
  0.2041   0.2161   0.2197   0.2300   0.2338   0.2358   0.2613   0.2714
  0.2896   0.3049   0.3224   0.3355   0.3493   0.3564   0.3719   0.3780
  0.3803   0.3908   0.3928   0.4076   0.4193   0.4230   0.4391   0.4437
  0.4531   0.4622   0.4702   0.4828   0.4940   0.5076   0.5125   0.5240
  0.5324   0.5363   0.5447   0.5533   0.5618   0.5645   0.5765   0.5893
  0.5934   0.5976   0.6041   0.6094   0.6179   0.6233   0.6315   0.6356
  0.6397   0.6441   0.6535   0.6602   0.6726   0.6838   0.6935   0.6969
  0.7117   0.7215   0.7366   0.7644   0.7694   0.7745   0.7792   0.7958
  0.7993   0.8122   0.8226   0.8382   0.8607   0.8659   0.8780   0.8872
  0.8968   0.8973   0.9150   0.9321   0.9421   0.9463   0.9582   0.9729
  0.9910   0.9938   1.0066   1.0086   1.0173   1.0389   1.0404   1.0464
  1.0638   1.0750   1.0839   1.0907   1.1008   1.1165   1.1238   1.1355
  1.1524   1.1585   1.1597   1.1707   1.1858   1.1968   1.2061   1.2148
  1.2170   1.2277   1.2388   1.2523   1.2577   1.2843   1.3011   1.3187
  1.3201   1.3307   1.3429   1.3539   1.3603   1.3700   1.3845   1.3939
  1.4136   1.4321   1.4430   1.4631   1.4678   1.4830   1.4973   1.5046
  1.5131   1.5224   1.5398   1.5574   1.5620   1.5716   1.5862   1.6000
  1.6068   1.6511   1.6568   1.6635   1.6702   1.7019   1.7171   1.7307
  1.7446   1.7614   1.7803   1.8160   1.8255   1.8334   1.8353   1.8579
  1.8679   1.8705   1.8833   1.9298   1.9327   1.9426   1.9484   1.9694
  1.9943   2.0234   2.0311   2.0440   2.0498   2.0995   2.1042   2.1210
  2.1432   2.1539   2.1560   2.1766   2.1926   2.1957   2.2151   2.2332
  2.2452   2.2599   2.2776   2.2829   2.2958   2.2990   2.3280   2.3387
  2.3654   2.3813   2.4087   2.4275   2.4619   2.4657   2.4839   2.5219
  2.5310   2.5545   2.5686   2.5834   2.5929   2.5980   2.6204   2.6279
  2.6408   2.6593   2.6647   2.6816   2.6954   2.7010   2.7168   2.7252
  2.7401   2.7454   2.7618   2.7785   2.7903   2.8045   2.8185   2.8372
  2.8408   2.8608   2.8741   2.8802   2.8945   2.9200   2.9381   2.9515
  2.9569   2.9857   2.9917   3.0319   3.0421   3.0441   3.0459   3.0587
  3.0810   3.0916   3.1046   3.1099   3.1234   3.1368   3.1490   3.1572
  3.1772   3.1852   3.2007   3.2102   3.2115   3.2256   3.2512   3.2531
  3.2581   3.2697   3.2784   3.2869   3.3011   3.3082   3.3151   3.3240
  3.3377   3.3434   3.3599   3.3632   3.3715   3.3849   3.4082   3.4218
  3.4383   3.4487   3.4534   3.4601   3.4656   3.4893   3.5034   3.5110
  3.5160   3.5292   3.5416   3.5525   3.5619   3.5797   3.5862   3.5911
  3.5967   3.6036   3.6200   3.6444   3.6474   3.6581   3.6613   3.6646
  3.6831   3.6986   3.7085   3.7123   3.7274   3.7299   3.7430   3.7468
  3.7578   3.7728   3.7917   3.8065   3.8247   3.8316   3.8414   3.8473
  3.8603   3.8688   3.8758   3.8916   3.9020   3.9086   3.9296   3.9377
  3.9570   3.9794   3.9902   3.9983   4.0097   4.0266   4.0440   4.0479
  4.0608   4.0714   4.0832   4.0906   4.1100   4.1429   4.1721   4.1807
  4.2171   4.2230   4.2331   4.2632   4.2673   4.2914   4.3149   4.3418
  4.3482   4.3682   4.3763   4.3818   4.3868   4.3984   4.4229   4.4388
  4.4771   4.4904   4.5051   4.5185   4.5385   4.5632   4.5844   4.6008
  4.6368   4.6498   4.6625   4.6679   4.6787   4.6893   4.7215   4.7446
  4.7692   4.7766   4.7892   4.8053   4.8223   4.8807   4.8966   4.9201
  4.9678   5.0003   5.0121   5.0301   5.0851   5.0952   5.1088   5.1448
  5.1764   5.2051   5.2157   5.2487   5.2592   5.2643   5.2861   5.3494
  5.3555   5.3709   5.4106   5.4169   5.4658   5.4732   5.4862   5.5276
  5.5423   5.5850   5.6176   5.6218   5.6385   5.6835   5.7213   5.8012
  5.8072   5.8311   5.8520   5.8737   5.9516   5.9703   5.9719   5.9823
  6.0416   6.1215   6.1339   6.1736   6.1855   6.3089   6.3607   6.3828
  6.4403   6.5046   6.5568   6.6640   6.6773   6.7329   6.7407   6.8609
  6.8816   6.9904   7.1788   7.2105   7.3270   7.3722   7.3743   7.4270
  7.4630   7.4855   7.5173   7.5487   7.6062   7.7695   7.8315   7.9036
  8.0019   8.1153   8.3698   8.9293   9.0056   9.3630   9.4941   9.6966
 10.1915  11.2236  11.7238  11.9310  12.3165  12.6712  13.1682  13.5177
 13.8481  14.1143  14.3820
 --------------------------------------------------------------
 
          Ground-State Mulliken Net Atomic Charges

     Atom                 Charge (a.u.)
  ----------------------------------------
      1 C                     0.000697
      2 S                     0.092870
      3 C                    -0.239687
      4 C                    -0.078657
      5 C                    -0.011024
      6 C                     0.347924
      7 C                    -0.143239
      8 S                     0.039952
      9 C                     0.456540
     10 O                    -0.451616
     11 O                    -0.298005
     12 F                    -0.211852
     13 C                    -0.054824
     14 H                     0.116610
     15 H                     0.084317
     16 H                     0.084173
     17 C                    -0.364652
     18 H                     0.123696
     19 H                     0.163850
     20 H                     0.132243
     21 H                     0.210683
  ----------------------------------------
  Sum of atomic charges =     0.000000

 -----------------------------------------------------------------
                    Cartesian Multipole Moments
 -----------------------------------------------------------------
    Charge (ESU x 10^10)
                -0.0000
    Dipole Moment (Debye)
         X       1.8830      Y       1.2211      Z       2.7443
       Tot       3.5451
    Quadrupole Moments (Debye-Ang)
        XX     -93.8500     XY       3.8403     YY     -85.0690
        XZ      -4.5466     YZ      -9.1390     ZZ     -96.8175
    Octopole Moments (Debye-Ang^2)
       XXX    -130.9155    XXY     -64.6796    XYY     -30.4850
       YYY    -201.7209    XXZ      74.3043    XYZ     -10.1492
       YYZ      66.1731    XZZ       3.9427    YZZ      12.2758
       ZZZ     251.9794
    Hexadecapole Moments (Debye-Ang^3)
      XXXX    -507.5903   XXXY    -345.7936   XXYY    -311.1271
      XYYY    -315.6487   YYYY   -1435.4167   XXXZ     342.8133
      XXYZ     196.2745   XYYZ      86.7722   YYYZ     585.8745
      XXZZ    -669.4276   XYZZ       4.9261   YYZZ    -693.5616
      XZZZ     145.8276   YZZZ     294.4803   ZZZZ   -3774.7156
 -----------------------------------------------------------------
 Total job time:  65.15s(wall), 2669.93s(cpu) 
 Sun Sep 24 17:14:48 2023

        *************************************************************
        *                                                           *
        *  Thank you very much for using Q-Chem.  Have a nice day.  *
        *                                                           *
        *************************************************************


0 sent ACK to 0 
now end server 0 ... 
cleanup process ... done
remove work dirs ./qchem643465.0 -- ./qchem643465.0
rm -rf ./qchem643465.0
rm -rf ./qchem643465
