You are running Q-Chem version: 5.4.0

#
# job setting
#
local host:  exp-8-29
current dir: /expanse/lustre/projects/csd626/rramji/aromodel/PTB7_fin/Hydrogenated_Impropers_Test
input file:  fin_bdt_Phi_25_Theta_30_fin_ftt_Hydrogenated_Improper.qcin
output file: 
nprocs     : 1
nthreads   : 64
#
# qchem installation setting
#
QC:          /cm/shared/apps/spack/cpu/opt/spack/linux-centos8-zen2/gcc-10.2.0/qchem-5.4-akfmr7b3t57bfs6qan3padb2wnb2i7cl
QCAUX:       /cm/shared/apps/spack/cpu/opt/spack/linux-centos8-zen2/gcc-10.2.0/qchem-5.4-akfmr7b3t57bfs6qan3padb2wnb2i7cl/qcaux
QCPROG:      /cm/shared/apps/spack/cpu/opt/spack/linux-centos8-zen2/gcc-10.2.0/qchem-5.4-akfmr7b3t57bfs6qan3padb2wnb2i7cl/exe/qcprog.exe
QCPROG_S:    /cm/shared/apps/spack/cpu/opt/spack/linux-centos8-zen2/gcc-10.2.0/qchem-5.4-akfmr7b3t57bfs6qan3padb2wnb2i7cl/exe/qcprog.exe_s
PARALLEL:    -DPARALLEL
QCMPI:       mpich
#
# qchem directory setting
#
qcrun:       qchem1135567
QCSCRATCH:   .
QCLOCALSCR:  
QCTMPDIR:    .
QCFILEPREF:  ./qchem1135567
QCSAVEDIR:   
workdirs:    ./qchem1135567
workdir0:    ./qchem1135567
partmpdirs =  
#
# parallel setting
#
QCRSH:           ssh
QCMPI:           mpich
QCMPIRUN:        /cm/shared/apps/spack/cpu/opt/spack/linux-centos8-zen2/gcc-10.2.0/qchem-5.4-akfmr7b3t57bfs6qan3padb2wnb2i7cl/bin/mpi/mpirun_qchem
QCMACHINEFILE:   ./qchem1135567/hostfile
exp-8-29

#
# env setting
#
exported envs:   QC QCAUX QCSCRATCH QCRUNNAME QCFILEPREF QCPROG QCPROG_S GUIFILE

Running Job 1 of 1 fin_bdt_Phi_25_Theta_30_fin_ftt_Hydrogenated_Improper.qcin
qchem fin_bdt_Phi_25_Theta_30_fin_ftt_Hydrogenated_Improper.qcin_1135567.0 ./qchem1135567/ 1
/cm/shared/apps/spack/cpu/opt/spack/linux-centos8-zen2/gcc-10.2.0/qchem-5.4-akfmr7b3t57bfs6qan3padb2wnb2i7cl/bin/mpi/mpirun_qchem -machinefile ./qchem1135567/hostfile -np 1 /cm/shared/apps/spack/cpu/opt/spack/linux-centos8-zen2/gcc-10.2.0/qchem-5.4-akfmr7b3t57bfs6qan3padb2wnb2i7cl/exe/qcprog.exe fin_bdt_Phi_25_Theta_30_fin_ftt_Hydrogenated_Improper.qcin_1135567.0 ./qchem1135567/

Process 0 of 1 is on exp-8-29 - thread support 0
initial socket setup ...start
initial socket setup ...done 
now start server 0 ... 
                  Welcome to Q-Chem
     A Quantum Leap Into The Future Of Chemistry


 Q-Chem 5.4, Q-Chem, Inc., Pleasanton, CA (2021)

 License issued to: University of California, San Diego (site)

 E. Epifanovsky,  A. T. B. Gilbert,  Xintian Feng,  Joonho Lee,  Yuezhi Mao,  
 N. Mardirossian,  P. Pokhilko,  A. White,  M. Wormit,  M. P. Coons,  
 A. L. Dempwolff,  Zhengting Gan,  D. Hait,  P. R. Horn,  L. D. Jacobson,  
 I. Kaliman,  J. Kussmann,  A. W. Lange,  Ka Un Lao,  D. S. Levine,  Jie Liu,  
 S. C. McKenzie,  A. F. Morrison,  K. Nanda,  F. Plasser,  D. R. Rehn,  
 M. L. Vidal,  Zhi-Qiang You,  Ying Zhu,  B. Alam,  B. Albrecht,  
 A. Aldossary,  E. Alguire,  J. H. Andersen,  D. Barton,  K. Begam,  A. Behn,  
 Y. A. Bernard,  E. J. Berquist,  H. Burton,  A. Carreras,  K. Carter-Fenk,  
 R. Chakraborty,  A. D. Chien,  K. D. Closser,  V. Cofer-Shabica,  
 S. Dasgupta,  Jia Deng,  M. de Wergifosse,  M. Diedenhofen,  Hainam Do,  
 S. Ehlert,  Po-Tung Fang,  S. Fatehi,  Qingguo Feng,  J. Gayvert,  
 Qinghui Ge,  G. Gidofalvi,  M. Goldey,  J. Gomes,  C. Gonzalez-Espinoza,  
 S. Gulania,  A. Gunina,  M. W. D. Hanson-Heine,  P. H. P. Harbach,  
 A. W. Hauser,  M. F. Herbst,  M. Hernandez Vera,  M. Hodecker,  
 Z. C. Holden,  S. Houck,  Xunkun Huang,  Kerwin Hui,  B. C. Huynh,  
 M. Ivanov,  Hyunjun Ji,  Hanjie Jiang,  B. Kaduk,  S. Kaehler,  
 K. Khistyaev,  Jaehoon Kim,  P. Klunzinger,  Z. Koczor-Benda,  
 Joong Hoon Koh,  D. Kosenkov,  L. Koulias,  T. Kowalczyk,  C. M. Krauter,  
 K. Kue,  A. Kunitsa,  T. Kus,  A. Landau,  K. V. Lawler,  D. Lefrancois,  
 S. Lehtola,  Rain Li,  Yi-Pei Li,  Jiashu Liang,  M. Liebenthal,  
 Hung-Hsuan Lin,  You-Sheng Lin,  Fenglai Liu,  Kuan-Yu Liu,  
 M. Loipersberger,  A. Luenser,  A. Manjanath,  P. Manohar,  E. Mansoor,  
 S. F. Manzer,  Shan-Ping Mao,  A. V. Marenich,  T. Markovich,  S. Mason,  
 S. A. Maurer,  P. F. McLaughlin,  M. F. S. J. Menger,  J.-M. Mewes,  
 S. A. Mewes,  P. Morgante,  J. W. Mullinax,  T. S. Nguyen-Beck,  
 K. J. Oosterbaan,  G. Paran,  Alexander C. Paul,  Suranjan K. Paul,  
 F. Pavosevic,  Zheng Pei,  S. Prager,  E. I. Proynov,  E. Ramos,  B. Rana,  
 A. E. Rask,  A. Rettig,  R. M. Richard,  F. Rob,  E. Rossomme,  T. Scheele,  
 M. Scheurer,  M. Schneider,  N. Sergueev,  S. M. Sharada,  W. Skomorowski,  
 D. W. Small,  C. J. Stein,  Yu-Chuan Su,  E. J. Sundstrom,  Zhen Tao,  
 J. Thirman,  T. Tsuchimochi,  N. M. Tubman,  S. P. Veccham,  O. Vydrov,  
 J. Wenzel,  J. Witte,  A. Yamada,  Kun Yao,  S. Yeganeh,  S. R. Yost,  
 A. Zech,  Igor Ying Zhang,  Xing Zhang,  Yu Zhang,  D. Zuev,  
 A. Aspuru-Guzik,  A. T. Bell,  N. A. Besley,  K. B. Bravaya,  B. R. Brooks,  
 D. Casanova,  Jeng-Da Chai,  S. Coriani,  C. J. Cramer,  
 A. E. DePrince, III,  R. A. DiStasio Jr.,  A. Dreuw,  B. D. Dunietz,  
 T. R. Furlani,  W. A. Goddard III,  S. Grimme,  S. Hammes-Schiffer,  
 T. Head-Gordon,  W. J. Hehre,  Chao-Ping Hsu,  T.-C. Jagau,  Yousung Jung,  
 A. Klamt,  Jing Kong,  D. S. Lambrecht,  WanZhen Liang,  N. J. Mayhall,  
 C. W. McCurdy,  J. B. Neaton,  C. Ochsenfeld,  J. A. Parkhill,  R. Peverati,  
 V. A. Rassolov,  Yihan Shao,  L. V. Slipchenko,  T. Stauch,  R. P. Steele,  
 J. E. Subotnik,  A. J. W. Thom,  A. Tkatchenko,  D. G. Truhlar,  
 T. Van Voorhis,  T. A. Wesolowski,  K. B. Whaley,  H. L. Woodcock III,  
 P. M. Zimmerman,  S. Faraji,  P. M. W. Gill,  M. Head-Gordon,  
 J. M. Herbert,  A. I. Krylov

 Contributors to earlier versions of Q-Chem not listed above: 
 R. D. Adamson,  B. Austin,  R. Baer,  J. Baker,  G. J. O. Beran,  
 K. Brandhorst,  S. T. Brown,  E. F. C. Byrd,  A. K. Chakraborty,  
 G. K. L. Chan,  Chun-Min Chang,  Yunqing Chen,  C.-L. Cheng,  
 Siu Hung Chien,  D. M. Chipman,  D. L. Crittenden,  H. Dachsel,  
 R. J. Doerksen,  A. D. Dutoi,  R. G. Edgar,  J. Fosso-Tande,  
 L. Fusti-Molnar,  D. Ghosh,  A. Ghysels,  A. Golubeva-Zadorozhnaya,  
 J. Gonthier,  M. S. Gordon,  S. R. Gwaltney,  G. Hawkins,  J. E. Herr,  
 A. Heyden,  S. Hirata,  E. G. Hohenstein,  G. Kedziora,  F. J. Keil,  
 C. Kelley,  Jihan Kim,  R. A. King,  R. Z. Khaliullin,  P. P. Korambath,  
 W. Kurlancheek,  A. Laurent,  A. M. Lee,  M. S. Lee,  S. V. Levchenko,  
 Ching Yeh Lin,  D. Liotard,  E. Livshits,  R. C. Lochan,  I. Lotan,  
 L. A. Martinez-Martinez,  P. E. Maslen,  N. Nair,  D. P. O'Neill,  
 D. Neuhauser,  E. Neuscamman,  C. M. Oana,  R. Olivares-Amaya,  R. Olson,  
 T. M. Perrine,  B. Peters,  P. A. Pieniazek,  A. Prociuk,  Y. M. Rhee,  
 J. Ritchie,  M. A. Rohrdanz,  E. Rosta,  N. J. Russ,  H. F. Schaefer III,  
 M. W. Schmidt,  N. E. Schultz,  S. Sharma,  N. Shenvi,  C. D. Sherrill,  
 A. C. Simmonett,  A. Sodt,  T. Stein,  D. Stuck,  K. S. Thanthiriwatte,  
 V. Vanovschi,  L. Vogt,  Tao Wang,  A. Warshel,  M. A. Watson,  
 C. F. Williams,  Q. Wu,  X. Xu,  Jun Yang,  W. Zhang,  Yan Zhao

 Please cite Q-Chem as follows:
 Y. Shao et al., Mol. Phys. 113, 184-215 (2015)
 DOI: 10.1080/00268976.2014.952696

 Q-Chem 5.4.0 for Intel X86 EM64T Linux

 Parts of Q-Chem use Armadillo 9.800.1 (Horizon Scraper).
 http://arma.sourceforge.net/

 Q-Chem begins on Tue Sep 26 17:53:48 2023  

 Host: 
0

     Scratch files written to ./qchem1135567//
 May1621 |scratch|qcdevops|jenkins|workspace|build_RNUM    
 Parallel job on  1  processors
 Processing $rem in /cm/shared/apps/spack/cpu/opt/spack/linux-centos8-zen2/gcc-10.2.0/qchem-5.4-akfmr7b3t57bfs6qan3padb2wnb2i7cl/config/preferences:
 Processing $rem in /home/rramji/.qchemrc:
 Symmetry turned off for PCM/SM12/SMD calculation
 Core orbitals will be frozen

 Checking the input file for inconsistencies... 	...done.

 Q-Chem warning in module forms1/BasisType.C, line 2236:

 You are not using the predefined 5D/6D in this basis set.


--------------------------------------------------------------
User input:
--------------------------------------------------------------
$molecule
0 1
C	-0.378439	-0.753180	1.021968
S	0.003661	0.061020	2.532668
C	0.668461	1.489220	1.749568
C	0.005361	0.069920	-0.042732
C	0.590961	1.329320	0.343668
C	-0.021239	0.009120	-1.464132
C	0.513261	1.155520	-2.084932
S	1.037461	2.287520	-0.943732
C	0.625061	1.384120	-3.538032
O	0.233161	0.536820	-4.328332
O	1.170261	2.545720	-3.982432
F	-0.488539	-1.002280	-2.224332
C	1.331061	2.866520	-5.313032
H	1.798561	3.867720	-5.348332
H	0.358961	2.890220	-5.853632
H	1.980961	2.133220	-5.839932
C	-0.378439	-2.188380	1.021968
H	0.561061	-2.197380	1.554568
H	-0.796039	-2.872280	1.746068
H	0.086661	-2.712780	0.200368
H	1.057361	2.323020	2.343468
$end

$rem
JOBTYPE		SP
EXCHANGE	HF
CORRELATION	pRIMP2
BASIS		cc-pvtz
METHOD		rimp2
AUX_BASIS	rimp2-cc-pvtz
SOLVENT_METHOD	PCM
PURECART	11111
SYMMETRY	false
MEM_TOTAL	110000
SCF_CONVERGENCE = 6
THRESH=10
GUI = 2
$end



$solvent
dielectric 4.90
$end
--------------------------------------------------------------
 ----------------------------------------------------------------
             Standard Nuclear Orientation (Angstroms)
    I     Atom           X                Y                Z
 ----------------------------------------------------------------
    1      C      -0.3784390000    -0.7531800000     1.0219680000
    2      S       0.0036610000     0.0610200000     2.5326680000
    3      C       0.6684610000     1.4892200000     1.7495680000
    4      C       0.0053610000     0.0699200000    -0.0427320000
    5      C       0.5909610000     1.3293200000     0.3436680000
    6      C      -0.0212390000     0.0091200000    -1.4641320000
    7      C       0.5132610000     1.1555200000    -2.0849320000
    8      S       1.0374610000     2.2875200000    -0.9437320000
    9      C       0.6250610000     1.3841200000    -3.5380320000
   10      O       0.2331610000     0.5368200000    -4.3283320000
   11      O       1.1702610000     2.5457200000    -3.9824320000
   12      F      -0.4885390000    -1.0022800000    -2.2243320000
   13      C       1.3310610000     2.8665200000    -5.3130320000
   14      H       1.7985610000     3.8677200000    -5.3483320000
   15      H       0.3589610000     2.8902200000    -5.8536320000
   16      H       1.9809610000     2.1332200000    -5.8399320000
   17      C      -0.3784390000    -2.1883800000     1.0219680000
   18      H       0.5610610000    -2.1973800000     1.5545680000
   19      H      -0.7960390000    -2.8722800000     1.7460680000
   20      H       0.0866610000    -2.7127800000     0.2003680000
   21      H       1.0573610000     2.3230200000     2.3434680000
 ----------------------------------------------------------------
 Nuclear Repulsion Energy =        1090.82469042 hartrees
 There are       59 alpha and       59 beta electrons
 Requested basis set is cc-pVTZ
 There are 186 shells and 526 basis functions

 Total QAlloc Memory Limit 110000 MB
 Mega-Array Size       188 MB
 MEM_STATIC part       192 MB
 Discretize the solute cavity surface with Lebedev spheres
	Using 110 Lebedev grid points for each H atom
	Using 194 Lebedev grid points for other atoms
	Atomic van der Waals radii will be scaled by 1.20
 Remove points where switching function is < 1.0e-08
 Keep 1563 surface tesserae and discard 1923 interior tesserae
 Molecular Surface Area = 241.771 Angst**2
 Requested basis set is rimp2-cc-pVTZ
 There are 410 shells and 1426 basis functions
 A cutoff of  1.0D-10 yielded  11583 shell pairs
 There are     91139 function pairs (    119369 Cartesian)
 Smallest overlap matrix eigenvalue = 5.99E-05

 Scale SEOQF with 1.000000e-01/1.000000e-01/1.000000e-02

 Standard Electronic Orientation quadrupole field applied
 Nucleus-field energy     =     0.0000000162 hartrees
 Guess from superposition of atomic densities
 Warning:  Energy on first SCF cycle will be non-variational
 SAD guess density has 118.000000 electrons

 -----------------------------------------------------------------------
  General SCF calculation program by
  Eric Jon Sundstrom, Paul Horn, Yuezhi Mao, Dmitri Zuev, Alec White,
  David Stuck, Shaama M.S., Shane Yost, Joonho Lee, David Small,
  Daniel Levine, Susi Lehtola, Hugh Burton, Evgeny Epifanovsky,
  Bang C. Huynh
 -----------------------------------------------------------------------
 Hartree-Fock
 using 64 threads for integral computing
 -------------------------------------------------------
 OpenMP Integral computing Module                
 Release: version 1.0, May 2013, Q-Chem Inc. Pittsburgh 
 -------------------------------------------------------
 A restricted SCF calculation will be
 performed using DIIS
 SCF converges when DIIS error is below 1.0e-06
 ---------------------------------------
  Cycle       Energy         DIIS error
 ---------------------------------------
    1   -1394.5816843024      2.53e-02  
    2   -1389.0032416803      2.51e-03  
    3   -1389.1760318355      1.58e-03  
    4   -1389.2376963523      3.47e-04  
    5   -1389.2433795589      1.11e-04  
    6   -1389.2440456376      3.65e-05  
    7   -1389.2441895139      1.82e-05  
    8   -1389.2442371501      7.16e-06  
    9   -1389.2442473605      3.19e-06  
   10   -1389.2442489227      1.21e-06  
   11   -1389.2442491632      4.60e-07  Convergence criterion met
 ---------------------------------------
 SCF time:   CPU 1691.50s  wall 49.00s 

************** Final PCM Free Energy Summary **************
 G_electrostatic  =      -0.01375174 hartree =      -8.62934570 kcal/mol
 G_cavitation     =       0.00000000 hartree =       0.00000000 kcal/mol
 G_dispersion     =       0.00000000 hartree =       0.00000000 kcal/mol
 G_repulsion      =       0.00000000 hartree =       0.00000000 kcal/mol
 --------------------------------------------------
 Non-electrostatic Free Energy =       0.00000000 hartree =       0.00000000 kcal/mol
 Total                         =      -0.01375174 hartree =      -8.62934570 kcal/mol
 --------------------------------------------------
 SCF Energy (H0 + V/2)                       =   -1389.24424916 
 Solute Internal Energy (H0)                 =   -1389.23049743 
 Total Free Energy (H0 + V/2 + non-elec)     =   -1389.24424916 hartree
                                             = -871763.92388218 kcal/mol
***********************************************************

 SCF   energy in the final basis set =    -1389.2442491632
 Total energy in the final basis set =    -1389.2442491632


 --------------------------------------------------------------
  Generalized many-body perturbation theory program
  by Joonho Lee, Fazle Rob, Xintian Feng, Evgeny Epifanovsky

 No regularization used 
 (reg. param. = 0.0000e+00)
  (P|Q)^-1/2 Time:  CPU 20.53 s  wall 0.33 s

 In RI-MP2 calculation: 
 # of frozen core orbitals: 22

 Components of the RIMP2 correlation energy:
        aaaa    correlation energy =        -0.3291767352 a.u.
        abab    correlation energy =        -1.8471768553 a.u.
        bbbb    correlation energy =        -0.3291767352 a.u.
        non-Brillouin singles      =        -0.0000000000 a.u.
        total same-spin energy     =        -0.6583534705 a.u.
        total opposite-spin energy =        -1.8471768553 a.u.

 Total  RIMP2   correlation energy =        -2.5055303258 a.u.
        RIMP2         total energy =     -1391.7497794890 a.u.

 RI-MP2 Energy Time:  CPU 172.31 s  wall 3.43 s
 
 --------------------------------------------------------------
 
                    Orbital Energies (a.u.)
 --------------------------------------------------------------
 
 Alpha MOs
 -- Occupied --
-92.0030 -91.9887 -26.3338 -20.6099 -20.5464 -11.4070 -11.3765 -11.3144
-11.2913 -11.2898 -11.2874 -11.2807 -11.2698 -11.2327  -9.0024  -8.9929
 -6.6833  -6.6826  -6.6821  -6.6742  -6.6736  -6.6722  -1.6467  -1.4694
 -1.3643  -1.2276  -1.1489  -1.0668  -1.0285  -1.0048  -0.9681  -0.9091
 -0.8635  -0.7964  -0.7845  -0.7673  -0.7264  -0.7146  -0.6958  -0.6768
 -0.6766  -0.6677  -0.6098  -0.6036  -0.6002  -0.5868  -0.5772  -0.5609
 -0.5392  -0.5257  -0.5146  -0.4917  -0.4788  -0.4604  -0.4580  -0.4549
 -0.3924  -0.3464  -0.2739
 -- Virtual --
  0.0375   0.1177   0.1363   0.1556   0.1589   0.1716   0.1937   0.1986
  0.2012   0.2108   0.2165   0.2274   0.2316   0.2441   0.2640   0.2734
  0.2863   0.3088   0.3231   0.3365   0.3457   0.3538   0.3690   0.3767
  0.3813   0.3895   0.4059   0.4114   0.4187   0.4299   0.4377   0.4406
  0.4564   0.4642   0.4711   0.4874   0.5017   0.5072   0.5129   0.5203
  0.5271   0.5363   0.5432   0.5508   0.5594   0.5649   0.5673   0.5870
  0.5941   0.5970   0.6039   0.6082   0.6148   0.6188   0.6262   0.6340
  0.6409   0.6444   0.6487   0.6611   0.6714   0.6912   0.6975   0.7021
  0.7149   0.7323   0.7441   0.7534   0.7657   0.7770   0.7860   0.7942
  0.8045   0.8145   0.8339   0.8417   0.8485   0.8663   0.8773   0.8889
  0.8953   0.9003   0.9214   0.9287   0.9376   0.9400   0.9663   0.9803
  0.9823   1.0006   1.0053   1.0133   1.0241   1.0358   1.0477   1.0525
  1.0621   1.0734   1.0824   1.0887   1.0987   1.0997   1.1215   1.1458
  1.1486   1.1544   1.1623   1.1718   1.1807   1.1917   1.1987   1.2172
  1.2227   1.2374   1.2504   1.2546   1.2649   1.2850   1.3020   1.3084
  1.3239   1.3391   1.3468   1.3474   1.3618   1.3742   1.3912   1.4069
  1.4247   1.4294   1.4484   1.4749   1.4821   1.4878   1.4947   1.5019
  1.5105   1.5137   1.5195   1.5457   1.5590   1.5624   1.5860   1.6000
  1.6181   1.6444   1.6682   1.6695   1.6867   1.7025   1.7147   1.7295
  1.7380   1.7650   1.7680   1.8139   1.8353   1.8357   1.8450   1.8690
  1.8753   1.8867   1.8943   1.9240   1.9329   1.9420   1.9521   1.9793
  2.0094   2.0168   2.0288   2.0449   2.0550   2.1004   2.1104   2.1293
  2.1422   2.1565   2.1618   2.1736   2.1983   2.2058   2.2165   2.2273
  2.2451   2.2671   2.2806   2.2857   2.2892   2.2994   2.3307   2.3631
  2.3761   2.3820   2.3931   2.4265   2.4409   2.4658   2.4799   2.4950
  2.5304   2.5513   2.5594   2.5793   2.5859   2.6026   2.6297   2.6338
  2.6468   2.6630   2.6700   2.6737   2.6886   2.7017   2.7260   2.7334
  2.7406   2.7440   2.7662   2.7735   2.7872   2.8044   2.8154   2.8344
  2.8502   2.8613   2.8717   2.8871   2.9102   2.9307   2.9346   2.9470
  2.9686   2.9863   3.0178   3.0387   3.0405   3.0448   3.0488   3.0679
  3.0867   3.0937   3.0997   3.1023   3.1200   3.1367   3.1452   3.1603
  3.1645   3.1741   3.1969   3.2051   3.2095   3.2147   3.2332   3.2542
  3.2585   3.2671   3.2793   3.2833   3.2946   3.3023   3.3115   3.3187
  3.3449   3.3539   3.3605   3.3695   3.3779   3.4005   3.4068   3.4189
  3.4349   3.4471   3.4515   3.4586   3.4702   3.4835   3.4916   3.4959
  3.5135   3.5196   3.5325   3.5416   3.5701   3.5843   3.5889   3.5951
  3.6033   3.6095   3.6210   3.6335   3.6378   3.6506   3.6647   3.6715
  3.6742   3.6925   3.7000   3.7117   3.7270   3.7297   3.7308   3.7402
  3.7495   3.7567   3.7890   3.8003   3.8245   3.8325   3.8375   3.8416
  3.8554   3.8581   3.8681   3.8822   3.8979   3.9116   3.9300   3.9481
  3.9559   3.9709   3.9871   3.9927   4.0082   4.0364   4.0533   4.0588
  4.0664   4.0751   4.0896   4.1140   4.1270   4.1437   4.1699   4.1745
  4.1901   4.2290   4.2592   4.2739   4.2906   4.2987   4.3158   4.3488
  4.3634   4.3735   4.3773   4.3929   4.3978   4.4167   4.4188   4.4361
  4.4387   4.4894   4.5024   4.5116   4.5277   4.5613   4.5760   4.5896
  4.6357   4.6420   4.6542   4.6692   4.6751   4.6978   4.7201   4.7353
  4.7539   4.7788   4.7872   4.7979   4.8150   4.8791   4.9165   4.9237
  4.9756   5.0124   5.0222   5.0293   5.0677   5.0802   5.1199   5.1389
  5.1529   5.1988   5.2194   5.2381   5.2561   5.2603   5.2929   5.3558
  5.3567   5.3695   5.4092   5.4193   5.4357   5.4741   5.4831   5.5348
  5.5528   5.5869   5.6178   5.6206   5.6405   5.6565   5.7347   5.7900
  5.8028   5.8186   5.8452   5.8683   5.9201   5.9724   5.9768   6.0442
  6.0848   6.1257   6.1351   6.1865   6.2466   6.3105   6.3671   6.4479
  6.4753   6.5120   6.5589   6.6639   6.6795   6.7387   6.7405   6.8635
  6.8834   6.9937   7.1806   7.2126   7.3295   7.3733   7.3760   7.4295
  7.4647   7.4871   7.5186   7.5514   7.6095   7.7705   7.8337   7.9085
  8.0020   8.1230   8.4178   8.9284   9.0061   9.3637   9.4968   9.6867
 10.1694  11.2239  11.5775  11.9317  12.2847  12.6346  13.1128  13.3788
 13.7497  14.0661  14.6682
 --------------------------------------------------------------
 
          Ground-State Mulliken Net Atomic Charges

     Atom                 Charge (a.u.)
  ----------------------------------------
      1 C                     0.067036
      2 S                     0.076640
      3 C                    -0.260745
      4 C                    -0.127121
      5 C                    -0.010305
      6 C                     0.378275
      7 C                    -0.165525
      8 S                     0.027153
      9 C                     0.458623
     10 O                    -0.456131
     11 O                    -0.298698
     12 F                    -0.210977
     13 C                    -0.054760
     14 H                     0.116115
     15 H                     0.083863
     16 H                     0.083637
     17 C                    -0.374740
     18 H                     0.147923
     19 H                     0.162156
     20 H                     0.147435
     21 H                     0.210145
  ----------------------------------------
  Sum of atomic charges =     0.000000

 -----------------------------------------------------------------
                    Cartesian Multipole Moments
 -----------------------------------------------------------------
    Charge (ESU x 10^10)
                -0.0000
    Dipole Moment (Debye)
         X       1.7210      Y       0.3875      Z       3.8959
       Tot       4.2767
    Quadrupole Moments (Debye-Ang)
        XX     -95.3178     XY       2.4851     YY     -83.8884
        XZ      -4.1956     YZ     -12.2720     ZZ     -95.8382
    Octopole Moments (Debye-Ang^2)
       XXX    -112.8173    XXY     -69.6618    XYY     -24.8794
       YYY    -216.1149    XXZ      75.5785    XYZ      -6.7596
       YYZ      71.6115    XZZ       1.1295    YZZ       3.4601
       ZZZ     258.4310
    Hexadecapole Moments (Debye-Ang^3)
      XXXX    -398.3145   XXXY    -310.5024   XXYY    -324.7791
      XYYY    -272.7456   YYYY   -1531.9271   XXXZ     293.7971
      XXYZ     212.5885   XYYZ      63.9233   YYYZ     593.9667
      XXZZ    -674.6338   XYZZ       9.2119   YYZZ    -679.7644
      XZZZ     124.9807   YZZZ     303.7688   ZZZZ   -3806.3712
 -----------------------------------------------------------------
 Total job time:  53.48s(wall), 1912.89s(cpu) 
 Tue Sep 26 17:54:42 2023

        *************************************************************
        *                                                           *
        *  Thank you very much for using Q-Chem.  Have a nice day.  *
        *                                                           *
        *************************************************************


0 sent ACK to 0 
now end server 0 ... 
cleanup process ... done
remove work dirs ./qchem1135567.0 -- ./qchem1135567.0
rm -rf ./qchem1135567.0
rm -rf ./qchem1135567
