You are running Q-Chem version: 5.4.0

#
# job setting
#
local host:  exp-3-30
current dir: /expanse/lustre/projects/csd626/rramji/aromodel/PTB7_fin/Hydrogenated_Impropers_Test
input file:  fin_bdt_Phi_50_Theta_190_fin_ftt_Hydrogenated_Improper.qcin
output file: 
nprocs     : 1
nthreads   : 64
#
# qchem installation setting
#
QC:          /cm/shared/apps/spack/cpu/opt/spack/linux-centos8-zen2/gcc-10.2.0/qchem-5.4-akfmr7b3t57bfs6qan3padb2wnb2i7cl
QCAUX:       /cm/shared/apps/spack/cpu/opt/spack/linux-centos8-zen2/gcc-10.2.0/qchem-5.4-akfmr7b3t57bfs6qan3padb2wnb2i7cl/qcaux
QCPROG:      /cm/shared/apps/spack/cpu/opt/spack/linux-centos8-zen2/gcc-10.2.0/qchem-5.4-akfmr7b3t57bfs6qan3padb2wnb2i7cl/exe/qcprog.exe
QCPROG_S:    /cm/shared/apps/spack/cpu/opt/spack/linux-centos8-zen2/gcc-10.2.0/qchem-5.4-akfmr7b3t57bfs6qan3padb2wnb2i7cl/exe/qcprog.exe_s
PARALLEL:    -DPARALLEL
QCMPI:       mpich
#
# qchem directory setting
#
qcrun:       qchem1282662
QCSCRATCH:   .
QCLOCALSCR:  
QCTMPDIR:    .
QCFILEPREF:  ./qchem1282662
QCSAVEDIR:   
workdirs:    ./qchem1282662
workdir0:    ./qchem1282662
partmpdirs =  
#
# parallel setting
#
QCRSH:           ssh
QCMPI:           mpich
QCMPIRUN:        /cm/shared/apps/spack/cpu/opt/spack/linux-centos8-zen2/gcc-10.2.0/qchem-5.4-akfmr7b3t57bfs6qan3padb2wnb2i7cl/bin/mpi/mpirun_qchem
QCMACHINEFILE:   ./qchem1282662/hostfile
exp-3-30

#
# env setting
#
exported envs:   QC QCAUX QCSCRATCH QCRUNNAME QCFILEPREF QCPROG QCPROG_S GUIFILE

Running Job 1 of 1 fin_bdt_Phi_50_Theta_190_fin_ftt_Hydrogenated_Improper.qcin
qchem fin_bdt_Phi_50_Theta_190_fin_ftt_Hydrogenated_Improper.qcin_1282662.0 ./qchem1282662/ 1
/cm/shared/apps/spack/cpu/opt/spack/linux-centos8-zen2/gcc-10.2.0/qchem-5.4-akfmr7b3t57bfs6qan3padb2wnb2i7cl/bin/mpi/mpirun_qchem -machinefile ./qchem1282662/hostfile -np 1 /cm/shared/apps/spack/cpu/opt/spack/linux-centos8-zen2/gcc-10.2.0/qchem-5.4-akfmr7b3t57bfs6qan3padb2wnb2i7cl/exe/qcprog.exe fin_bdt_Phi_50_Theta_190_fin_ftt_Hydrogenated_Improper.qcin_1282662.0 ./qchem1282662/

Process 0 of 1 is on exp-3-30 - thread support 0
initial socket setup ...start
initial socket setup ...done 
now start server 0 ... 
                  Welcome to Q-Chem
     A Quantum Leap Into The Future Of Chemistry


 Q-Chem 5.4, Q-Chem, Inc., Pleasanton, CA (2021)

 License issued to: University of California, San Diego (site)

 E. Epifanovsky,  A. T. B. Gilbert,  Xintian Feng,  Joonho Lee,  Yuezhi Mao,  
 N. Mardirossian,  P. Pokhilko,  A. White,  M. Wormit,  M. P. Coons,  
 A. L. Dempwolff,  Zhengting Gan,  D. Hait,  P. R. Horn,  L. D. Jacobson,  
 I. Kaliman,  J. Kussmann,  A. W. Lange,  Ka Un Lao,  D. S. Levine,  Jie Liu,  
 S. C. McKenzie,  A. F. Morrison,  K. Nanda,  F. Plasser,  D. R. Rehn,  
 M. L. Vidal,  Zhi-Qiang You,  Ying Zhu,  B. Alam,  B. Albrecht,  
 A. Aldossary,  E. Alguire,  J. H. Andersen,  D. Barton,  K. Begam,  A. Behn,  
 Y. A. Bernard,  E. J. Berquist,  H. Burton,  A. Carreras,  K. Carter-Fenk,  
 R. Chakraborty,  A. D. Chien,  K. D. Closser,  V. Cofer-Shabica,  
 S. Dasgupta,  Jia Deng,  M. de Wergifosse,  M. Diedenhofen,  Hainam Do,  
 S. Ehlert,  Po-Tung Fang,  S. Fatehi,  Qingguo Feng,  J. Gayvert,  
 Qinghui Ge,  G. Gidofalvi,  M. Goldey,  J. Gomes,  C. Gonzalez-Espinoza,  
 S. Gulania,  A. Gunina,  M. W. D. Hanson-Heine,  P. H. P. Harbach,  
 A. W. Hauser,  M. F. Herbst,  M. Hernandez Vera,  M. Hodecker,  
 Z. C. Holden,  S. Houck,  Xunkun Huang,  Kerwin Hui,  B. C. Huynh,  
 M. Ivanov,  Hyunjun Ji,  Hanjie Jiang,  B. Kaduk,  S. Kaehler,  
 K. Khistyaev,  Jaehoon Kim,  P. Klunzinger,  Z. Koczor-Benda,  
 Joong Hoon Koh,  D. Kosenkov,  L. Koulias,  T. Kowalczyk,  C. M. Krauter,  
 K. Kue,  A. Kunitsa,  T. Kus,  A. Landau,  K. V. Lawler,  D. Lefrancois,  
 S. Lehtola,  Rain Li,  Yi-Pei Li,  Jiashu Liang,  M. Liebenthal,  
 Hung-Hsuan Lin,  You-Sheng Lin,  Fenglai Liu,  Kuan-Yu Liu,  
 M. Loipersberger,  A. Luenser,  A. Manjanath,  P. Manohar,  E. Mansoor,  
 S. F. Manzer,  Shan-Ping Mao,  A. V. Marenich,  T. Markovich,  S. Mason,  
 S. A. Maurer,  P. F. McLaughlin,  M. F. S. J. Menger,  J.-M. Mewes,  
 S. A. Mewes,  P. Morgante,  J. W. Mullinax,  T. S. Nguyen-Beck,  
 K. J. Oosterbaan,  G. Paran,  Alexander C. Paul,  Suranjan K. Paul,  
 F. Pavosevic,  Zheng Pei,  S. Prager,  E. I. Proynov,  E. Ramos,  B. Rana,  
 A. E. Rask,  A. Rettig,  R. M. Richard,  F. Rob,  E. Rossomme,  T. Scheele,  
 M. Scheurer,  M. Schneider,  N. Sergueev,  S. M. Sharada,  W. Skomorowski,  
 D. W. Small,  C. J. Stein,  Yu-Chuan Su,  E. J. Sundstrom,  Zhen Tao,  
 J. Thirman,  T. Tsuchimochi,  N. M. Tubman,  S. P. Veccham,  O. Vydrov,  
 J. Wenzel,  J. Witte,  A. Yamada,  Kun Yao,  S. Yeganeh,  S. R. Yost,  
 A. Zech,  Igor Ying Zhang,  Xing Zhang,  Yu Zhang,  D. Zuev,  
 A. Aspuru-Guzik,  A. T. Bell,  N. A. Besley,  K. B. Bravaya,  B. R. Brooks,  
 D. Casanova,  Jeng-Da Chai,  S. Coriani,  C. J. Cramer,  
 A. E. DePrince, III,  R. A. DiStasio Jr.,  A. Dreuw,  B. D. Dunietz,  
 T. R. Furlani,  W. A. Goddard III,  S. Grimme,  S. Hammes-Schiffer,  
 T. Head-Gordon,  W. J. Hehre,  Chao-Ping Hsu,  T.-C. Jagau,  Yousung Jung,  
 A. Klamt,  Jing Kong,  D. S. Lambrecht,  WanZhen Liang,  N. J. Mayhall,  
 C. W. McCurdy,  J. B. Neaton,  C. Ochsenfeld,  J. A. Parkhill,  R. Peverati,  
 V. A. Rassolov,  Yihan Shao,  L. V. Slipchenko,  T. Stauch,  R. P. Steele,  
 J. E. Subotnik,  A. J. W. Thom,  A. Tkatchenko,  D. G. Truhlar,  
 T. Van Voorhis,  T. A. Wesolowski,  K. B. Whaley,  H. L. Woodcock III,  
 P. M. Zimmerman,  S. Faraji,  P. M. W. Gill,  M. Head-Gordon,  
 J. M. Herbert,  A. I. Krylov

 Contributors to earlier versions of Q-Chem not listed above: 
 R. D. Adamson,  B. Austin,  R. Baer,  J. Baker,  G. J. O. Beran,  
 K. Brandhorst,  S. T. Brown,  E. F. C. Byrd,  A. K. Chakraborty,  
 G. K. L. Chan,  Chun-Min Chang,  Yunqing Chen,  C.-L. Cheng,  
 Siu Hung Chien,  D. M. Chipman,  D. L. Crittenden,  H. Dachsel,  
 R. J. Doerksen,  A. D. Dutoi,  R. G. Edgar,  J. Fosso-Tande,  
 L. Fusti-Molnar,  D. Ghosh,  A. Ghysels,  A. Golubeva-Zadorozhnaya,  
 J. Gonthier,  M. S. Gordon,  S. R. Gwaltney,  G. Hawkins,  J. E. Herr,  
 A. Heyden,  S. Hirata,  E. G. Hohenstein,  G. Kedziora,  F. J. Keil,  
 C. Kelley,  Jihan Kim,  R. A. King,  R. Z. Khaliullin,  P. P. Korambath,  
 W. Kurlancheek,  A. Laurent,  A. M. Lee,  M. S. Lee,  S. V. Levchenko,  
 Ching Yeh Lin,  D. Liotard,  E. Livshits,  R. C. Lochan,  I. Lotan,  
 L. A. Martinez-Martinez,  P. E. Maslen,  N. Nair,  D. P. O'Neill,  
 D. Neuhauser,  E. Neuscamman,  C. M. Oana,  R. Olivares-Amaya,  R. Olson,  
 T. M. Perrine,  B. Peters,  P. A. Pieniazek,  A. Prociuk,  Y. M. Rhee,  
 J. Ritchie,  M. A. Rohrdanz,  E. Rosta,  N. J. Russ,  H. F. Schaefer III,  
 M. W. Schmidt,  N. E. Schultz,  S. Sharma,  N. Shenvi,  C. D. Sherrill,  
 A. C. Simmonett,  A. Sodt,  T. Stein,  D. Stuck,  K. S. Thanthiriwatte,  
 V. Vanovschi,  L. Vogt,  Tao Wang,  A. Warshel,  M. A. Watson,  
 C. F. Williams,  Q. Wu,  X. Xu,  Jun Yang,  W. Zhang,  Yan Zhao

 Please cite Q-Chem as follows:
 Y. Shao et al., Mol. Phys. 113, 184-215 (2015)
 DOI: 10.1080/00268976.2014.952696

 Q-Chem 5.4.0 for Intel X86 EM64T Linux

 Parts of Q-Chem use Armadillo 9.800.1 (Horizon Scraper).
 http://arma.sourceforge.net/

 Q-Chem begins on Sun Sep 24 17:09:59 2023  

 Host: 
0

     Scratch files written to ./qchem1282662//
 May1621 |scratch|qcdevops|jenkins|workspace|build_RNUM    
 Parallel job on  1  processors
 Processing $rem in /cm/shared/apps/spack/cpu/opt/spack/linux-centos8-zen2/gcc-10.2.0/qchem-5.4-akfmr7b3t57bfs6qan3padb2wnb2i7cl/config/preferences:
 Processing $rem in /home/rramji/.qchemrc:
 Symmetry turned off for PCM/SM12/SMD calculation
 Core orbitals will be frozen

 Checking the input file for inconsistencies... 	...done.

 Q-Chem warning in module forms1/BasisType.C, line 2236:

 You are not using the predefined 5D/6D in this basis set.


--------------------------------------------------------------
User input:
--------------------------------------------------------------
$molecule
0 1
C	-0.677906	-0.518946	1.023076
S	0.012494	0.057454	2.533776
C	1.218594	1.070954	1.750676
C	0.017794	0.064854	-0.041624
C	1.080694	0.958754	0.344776
C	-0.032006	0.020954	-1.463024
C	0.936894	0.834054	-2.083824
S	1.890394	1.638454	-0.942624
C	1.134794	0.994054	-3.536924
O	0.421594	0.391754	-4.327224
O	2.119894	1.816354	-3.981324
F	-0.882906	-0.698246	-2.223224
C	2.401194	2.039154	-5.311924
H	3.247994	2.748954	-5.347224
H	1.530194	2.471454	-5.852524
H	2.680194	1.099854	-5.838824
C	-0.677906	-1.954146	1.023076
H	-1.742906	-1.963146	0.843876
H	-0.533106	-2.638046	0.199876
H	-0.834006	-2.478546	1.954276
H	1.923394	1.662254	2.344576
$end

$rem
JOBTYPE		SP
EXCHANGE	HF
CORRELATION	pRIMP2
BASIS		cc-pvtz
METHOD		rimp2
AUX_BASIS	rimp2-cc-pvtz
SOLVENT_METHOD	PCM
PURECART	11111
SYMMETRY	false
MEM_TOTAL	110000
SCF_CONVERGENCE = 6
THRESH=10
GUI = 2
$end



$solvent
dielectric 4.90
$end
--------------------------------------------------------------
 ----------------------------------------------------------------
             Standard Nuclear Orientation (Angstroms)
    I     Atom           X                Y                Z
 ----------------------------------------------------------------
    1      C      -0.6779060000    -0.5189460000     1.0230760000
    2      S       0.0124940000     0.0574540000     2.5337760000
    3      C       1.2185940000     1.0709540000     1.7506760000
    4      C       0.0177940000     0.0648540000    -0.0416240000
    5      C       1.0806940000     0.9587540000     0.3447760000
    6      C      -0.0320060000     0.0209540000    -1.4630240000
    7      C       0.9368940000     0.8340540000    -2.0838240000
    8      S       1.8903940000     1.6384540000    -0.9426240000
    9      C       1.1347940000     0.9940540000    -3.5369240000
   10      O       0.4215940000     0.3917540000    -4.3272240000
   11      O       2.1198940000     1.8163540000    -3.9813240000
   12      F      -0.8829060000    -0.6982460000    -2.2232240000
   13      C       2.4011940000     2.0391540000    -5.3119240000
   14      H       3.2479940000     2.7489540000    -5.3472240000
   15      H       1.5301940000     2.4714540000    -5.8525240000
   16      H       2.6801940000     1.0998540000    -5.8388240000
   17      C      -0.6779060000    -1.9541460000     1.0230760000
   18      H      -1.7429060000    -1.9631460000     0.8438760000
   19      H      -0.5331060000    -2.6380460000     0.1998760000
   20      H      -0.8340060000    -2.4785460000     1.9542760000
   21      H       1.9233940000     1.6622540000     2.3445760000
 ----------------------------------------------------------------
 Nuclear Repulsion Energy =        1094.30829710 hartrees
 There are       59 alpha and       59 beta electrons
 Requested basis set is cc-pVTZ
 There are 186 shells and 526 basis functions

 Total QAlloc Memory Limit 110000 MB
 Mega-Array Size       188 MB
 MEM_STATIC part       192 MB
 Discretize the solute cavity surface with Lebedev spheres
	Using 110 Lebedev grid points for each H atom
	Using 194 Lebedev grid points for other atoms
	Atomic van der Waals radii will be scaled by 1.20
 Remove points where switching function is < 1.0e-08
 Keep 1537 surface tesserae and discard 1949 interior tesserae
 Molecular Surface Area = 240.547 Angst**2
 Requested basis set is rimp2-cc-pVTZ
 There are 410 shells and 1426 basis functions
 A cutoff of  1.0D-10 yielded  11666 shell pairs
 There are     91700 function pairs (    120048 Cartesian)
 Smallest overlap matrix eigenvalue = 6.10E-05

 Scale SEOQF with 1.000000e-01/1.000000e-01/1.000000e-02

 Standard Electronic Orientation quadrupole field applied
 Nucleus-field energy     =     0.0000000108 hartrees
 Guess from superposition of atomic densities
 Warning:  Energy on first SCF cycle will be non-variational
 SAD guess density has 118.000000 electrons

 -----------------------------------------------------------------------
  General SCF calculation program by
  Eric Jon Sundstrom, Paul Horn, Yuezhi Mao, Dmitri Zuev, Alec White,
  David Stuck, Shaama M.S., Shane Yost, Joonho Lee, David Small,
  Daniel Levine, Susi Lehtola, Hugh Burton, Evgeny Epifanovsky,
  Bang C. Huynh
 -----------------------------------------------------------------------
 Hartree-Fock
 using 64 threads for integral computing
 -------------------------------------------------------
 OpenMP Integral computing Module                
 Release: version 1.0, May 2013, Q-Chem Inc. Pittsburgh 
 -------------------------------------------------------
 A restricted SCF calculation will be
 performed using DIIS
 SCF converges when DIIS error is below 1.0e-06
 ---------------------------------------
  Cycle       Energy         DIIS error
 ---------------------------------------
    1   -1394.6145986552      2.53e-02  
    2   -1388.9522863512      2.51e-03  
    3   -1389.1242057090      1.60e-03  
    4   -1389.1885066182      3.50e-04  
    5   -1389.1942981538      1.12e-04  
    6   -1389.1949917137      3.72e-05  
    7   -1389.1951389645      1.85e-05  
    8   -1389.1951914501      8.05e-06  
    9   -1389.1952052256      4.05e-06  
   10   -1389.1952082514      1.77e-06  
   11   -1389.1952088908      7.34e-07  Convergence criterion met
 ---------------------------------------
 SCF time:   CPU 1757.14s  wall 70.00s 

************** Final PCM Free Energy Summary **************
 G_electrostatic  =      -0.01256026 hartree =      -7.88168161 kcal/mol
 G_cavitation     =       0.00000000 hartree =       0.00000000 kcal/mol
 G_dispersion     =       0.00000000 hartree =       0.00000000 kcal/mol
 G_repulsion      =       0.00000000 hartree =       0.00000000 kcal/mol
 --------------------------------------------------
 Non-electrostatic Free Energy =       0.00000000 hartree =       0.00000000 kcal/mol
 Total                         =      -0.01256026 hartree =      -7.88168161 kcal/mol
 --------------------------------------------------
 SCF Energy (H0 + V/2)                       =   -1389.19520889 
 Solute Internal Energy (H0)                 =   -1389.18264863 
 Total Free Energy (H0 + V/2 + non-elec)     =   -1389.19520889 hartree
                                             = -871733.15064679 kcal/mol
***********************************************************

 SCF   energy in the final basis set =    -1389.1952088908
 Total energy in the final basis set =    -1389.1952088908


 --------------------------------------------------------------
  Generalized many-body perturbation theory program
  by Joonho Lee, Fazle Rob, Xintian Feng, Evgeny Epifanovsky

 No regularization used 
 (reg. param. = 0.0000e+00)
  (P|Q)^-1/2 Time:  CPU 35.76 s  wall 0.60 s

 In RI-MP2 calculation: 
 # of frozen core orbitals: 22

 Components of the RIMP2 correlation energy:
        aaaa    correlation energy =        -0.3321455405 a.u.
        abab    correlation energy =        -1.8571885118 a.u.
        bbbb    correlation energy =        -0.3321455405 a.u.
        non-Brillouin singles      =        -0.0000000000 a.u.
        total same-spin energy     =        -0.6642910811 a.u.
        total opposite-spin energy =        -1.8571885118 a.u.

 Total  RIMP2   correlation energy =        -2.5214795929 a.u.
        RIMP2         total energy =     -1391.7166884837 a.u.

 RI-MP2 Energy Time:  CPU 203.24 s  wall 4.13 s
 
 --------------------------------------------------------------
 
                    Orbital Energies (a.u.)
 --------------------------------------------------------------
 
 Alpha MOs
 -- Occupied --
-92.0030 -91.9950 -26.3335 -20.6121 -20.5505 -11.4104 -11.3741 -11.2984
-11.2980 -11.2929 -11.2886 -11.2841 -11.2766 -11.2181  -9.0025  -8.9989
 -6.6832  -6.6823  -6.6821  -6.6801  -6.6795  -6.6782  -1.6466  -1.4719
 -1.3674  -1.2307  -1.1495  -1.0668  -1.0289  -1.0024  -0.9697  -0.9077
 -0.8656  -0.7964  -0.7862  -0.7698  -0.7275  -0.7151  -0.6955  -0.6786
 -0.6754  -0.6704  -0.6069  -0.6063  -0.5960  -0.5913  -0.5726  -0.5589
 -0.5349  -0.5212  -0.5161  -0.4949  -0.4818  -0.4617  -0.4608  -0.4420
 -0.3797  -0.3443  -0.2753
 -- Virtual --
  0.0175   0.1136   0.1374   0.1551   0.1582   0.1723   0.1836   0.1952
  0.2006   0.2106   0.2162   0.2203   0.2288   0.2415   0.2576   0.2692
  0.2849   0.2972   0.3078   0.3390   0.3504   0.3565   0.3683   0.3755
  0.3802   0.3892   0.3987   0.4048   0.4207   0.4265   0.4347   0.4382
  0.4508   0.4673   0.4786   0.4817   0.4971   0.5041   0.5124   0.5283
  0.5323   0.5422   0.5479   0.5496   0.5570   0.5692   0.5734   0.5849
  0.5936   0.5971   0.6021   0.6148   0.6197   0.6205   0.6222   0.6309
  0.6377   0.6430   0.6490   0.6588   0.6821   0.6888   0.6908   0.7079
  0.7142   0.7176   0.7318   0.7454   0.7504   0.7804   0.7830   0.7976
  0.8020   0.8074   0.8366   0.8428   0.8601   0.8736   0.8780   0.8914
  0.8964   0.9117   0.9210   0.9280   0.9390   0.9409   0.9623   0.9800
  0.9840   0.9945   1.0096   1.0246   1.0289   1.0337   1.0490   1.0524
  1.0668   1.0706   1.0858   1.0888   1.1011   1.1154   1.1263   1.1320
  1.1476   1.1544   1.1572   1.1627   1.1780   1.1902   1.1961   1.2117
  1.2212   1.2333   1.2388   1.2522   1.2825   1.2939   1.3090   1.3116
  1.3257   1.3356   1.3424   1.3559   1.3578   1.3754   1.3817   1.3940
  1.4256   1.4330   1.4589   1.4624   1.4751   1.4884   1.4980   1.5000
  1.5122   1.5141   1.5427   1.5560   1.5630   1.5700   1.5873   1.6063
  1.6174   1.6374   1.6488   1.6677   1.6753   1.6999   1.7137   1.7262
  1.7608   1.7639   1.7900   1.8131   1.8174   1.8335   1.8372   1.8537
  1.8677   1.8753   1.8899   1.9187   1.9269   1.9367   1.9420   1.9849
  1.9948   2.0181   2.0281   2.0308   2.0546   2.0981   2.1023   2.1228
  2.1402   2.1492   2.1561   2.1637   2.1944   2.1982   2.2079   2.2243
  2.2452   2.2528   2.2680   2.2791   2.2848   2.2905   2.3213   2.3443
  2.3627   2.3733   2.3915   2.4071   2.4393   2.4608   2.4844   2.4955
  2.5282   2.5351   2.5588   2.5832   2.5892   2.5988   2.6299   2.6350
  2.6425   2.6632   2.6682   2.6915   2.6944   2.6971   2.7007   2.7300
  2.7408   2.7460   2.7602   2.7812   2.7937   2.7979   2.8109   2.8332
  2.8466   2.8522   2.8843   2.8896   2.9021   2.9348   2.9393   2.9700
  2.9813   3.0137   3.0200   3.0308   3.0372   3.0453   3.0506   3.0776
  3.0908   3.0926   3.1023   3.1165   3.1236   3.1402   3.1489   3.1582
  3.1682   3.1885   3.1952   3.2060   3.2158   3.2219   3.2327   3.2462
  3.2508   3.2600   3.2750   3.2828   3.2903   3.2967   3.3215   3.3292
  3.3455   3.3494   3.3586   3.3658   3.3749   3.3866   3.4043   3.4207
  3.4336   3.4395   3.4435   3.4610   3.4715   3.4818   3.4867   3.4991
  3.5067   3.5216   3.5370   3.5547   3.5647   3.5698   3.5812   3.5920
  3.5982   3.6054   3.6158   3.6295   3.6487   3.6650   3.6692   3.6892
  3.6896   3.6964   3.7084   3.7119   3.7214   3.7293   3.7337   3.7414
  3.7656   3.7826   3.7979   3.8066   3.8265   3.8329   3.8350   3.8420
  3.8649   3.8788   3.8855   3.9039   3.9118   3.9351   3.9546   3.9651
  3.9677   3.9854   3.9909   3.9951   4.0293   4.0393   4.0547   4.0648
  4.0715   4.0854   4.0864   4.1133   4.1483   4.1672   4.1804   4.1903
  4.2014   4.2121   4.2437   4.2538   4.3038   4.3083   4.3165   4.3478
  4.3590   4.3734   4.3802   4.3825   4.3921   4.4145   4.4319   4.4557
  4.4758   4.4894   4.4981   4.5159   4.5434   4.5599   4.5811   4.5887
  4.6297   4.6372   4.6463   4.6654   4.6707   4.6796   4.7160   4.7447
  4.7548   4.7725   4.8012   4.8125   4.8391   4.8847   4.9136   4.9299
  4.9771   5.0033   5.0117   5.0198   5.0785   5.1035   5.1092   5.1361
  5.1665   5.1887   5.2100   5.2154   5.2537   5.2591   5.3023   5.3513
  5.3552   5.3616   5.3883   5.4350   5.4651   5.4730   5.4800   5.5317
  5.5552   5.5803   5.6172   5.6215   5.6361   5.6898   5.7551   5.8008
  5.8128   5.8333   5.8425   5.8802   5.9344   5.9673   5.9700   6.0068
  6.0477   6.1207   6.1336   6.1430   6.1852   6.3086   6.3486   6.4216
  6.4515   6.5047   6.5563   6.6531   6.6766   6.7333   6.7391   6.8601
  6.8811   6.9898   7.1784   7.2105   7.3262   7.3736   7.3760   7.4258
  7.4626   7.4872   7.5173   7.5482   7.6060   7.7713   7.8312   7.9034
  8.0033   8.1180   8.4066   8.9295   9.0067   9.3639   9.4926   9.6876
 10.2126  11.2110  11.8546  11.9277  12.2876  12.5798  13.0308  13.3886
 13.7570  14.0689  14.4820
 --------------------------------------------------------------
 
          Ground-State Mulliken Net Atomic Charges

     Atom                 Charge (a.u.)
  ----------------------------------------
      1 C                    -0.056299
      2 S                     0.101153
      3 C                    -0.211737
      4 C                    -0.055890
      5 C                    -0.017972
      6 C                     0.358338
      7 C                    -0.147874
      8 S                     0.046207
      9 C                     0.456287
     10 O                    -0.449411
     11 O                    -0.297772
     12 F                    -0.211299
     13 C                    -0.054622
     14 H                     0.116641
     15 H                     0.084464
     16 H                     0.084318
     17 C                    -0.392995
     18 H                     0.135460
     19 H                     0.160853
     20 H                     0.140124
     21 H                     0.212027
  ----------------------------------------
  Sum of atomic charges =     0.000000

 -----------------------------------------------------------------
                    Cartesian Multipole Moments
 -----------------------------------------------------------------
    Charge (ESU x 10^10)
                -0.0000
    Dipole Moment (Debye)
         X       2.3817      Y       0.9182      Z       3.1272
       Tot       4.0367
    Quadrupole Moments (Debye-Ang)
        XX     -90.3934     XY       6.7609     YY     -88.9981
        XZ      -8.2796     YZ      -7.5090     ZZ     -94.7410
    Octopole Moments (Debye-Ang^2)
       XXX    -187.0362    XXY     -38.0776    XYY     -60.5755
       YYY    -151.0293    XXZ      68.4338    XYZ      -7.0293
       YYZ      73.7781    XZZ       4.6759    YZZ       7.5718
       ZZZ     253.1348
    Hexadecapole Moments (Debye-Ang^3)
      XXXX   -1003.5935   XXXY    -380.2602   XXYY    -300.0948
      XYYY    -385.8940   YYYY    -935.4159   XXXZ     504.6387
      XXYZ     128.2885   XYYZ     147.4523   YYYZ     468.3134
      XXZZ    -658.9417   XYZZ      10.3125   YYZZ    -688.6572
      XZZZ     221.5793   YZZZ     220.8171   ZZZZ   -3768.7117
 -----------------------------------------------------------------
 Total job time:  76.22s(wall), 2037.03s(cpu) 
 Sun Sep 24 17:11:15 2023

        *************************************************************
        *                                                           *
        *  Thank you very much for using Q-Chem.  Have a nice day.  *
        *                                                           *
        *************************************************************


0 sent ACK to 0 
now end server 0 ... 
cleanup process ... done
remove work dirs ./qchem1282662.0 -- ./qchem1282662.0
rm -rf ./qchem1282662.0
rm -rf ./qchem1282662
