You are running Q-Chem version: 5.4.0

#
# job setting
#
local host:  exp-2-46
current dir: /expanse/lustre/projects/csd626/rramji/aromodel/PTB7_fin/Hydrogenated_Impropers_Test
input file:  fin_bdt_Phi_40_Theta_70_fin_ftt_Hydrogenated_Improper.qcin
output file: 
nprocs     : 1
nthreads   : 64
#
# qchem installation setting
#
QC:          /cm/shared/apps/spack/cpu/opt/spack/linux-centos8-zen2/gcc-10.2.0/qchem-5.4-akfmr7b3t57bfs6qan3padb2wnb2i7cl
QCAUX:       /cm/shared/apps/spack/cpu/opt/spack/linux-centos8-zen2/gcc-10.2.0/qchem-5.4-akfmr7b3t57bfs6qan3padb2wnb2i7cl/qcaux
QCPROG:      /cm/shared/apps/spack/cpu/opt/spack/linux-centos8-zen2/gcc-10.2.0/qchem-5.4-akfmr7b3t57bfs6qan3padb2wnb2i7cl/exe/qcprog.exe
QCPROG_S:    /cm/shared/apps/spack/cpu/opt/spack/linux-centos8-zen2/gcc-10.2.0/qchem-5.4-akfmr7b3t57bfs6qan3padb2wnb2i7cl/exe/qcprog.exe_s
PARALLEL:    -DPARALLEL
QCMPI:       mpich
#
# qchem directory setting
#
qcrun:       qchem1927717
QCSCRATCH:   .
QCLOCALSCR:  
QCTMPDIR:    .
QCFILEPREF:  ./qchem1927717
QCSAVEDIR:   
workdirs:    ./qchem1927717
workdir0:    ./qchem1927717
partmpdirs =  
#
# parallel setting
#
QCRSH:           ssh
QCMPI:           mpich
QCMPIRUN:        /cm/shared/apps/spack/cpu/opt/spack/linux-centos8-zen2/gcc-10.2.0/qchem-5.4-akfmr7b3t57bfs6qan3padb2wnb2i7cl/bin/mpi/mpirun_qchem
QCMACHINEFILE:   ./qchem1927717/hostfile
exp-2-46

#
# env setting
#
exported envs:   QC QCAUX QCSCRATCH QCRUNNAME QCFILEPREF QCPROG QCPROG_S GUIFILE

Running Job 1 of 1 fin_bdt_Phi_40_Theta_70_fin_ftt_Hydrogenated_Improper.qcin
qchem fin_bdt_Phi_40_Theta_70_fin_ftt_Hydrogenated_Improper.qcin_1927717.0 ./qchem1927717/ 1
/cm/shared/apps/spack/cpu/opt/spack/linux-centos8-zen2/gcc-10.2.0/qchem-5.4-akfmr7b3t57bfs6qan3padb2wnb2i7cl/bin/mpi/mpirun_qchem -machinefile ./qchem1927717/hostfile -np 1 /cm/shared/apps/spack/cpu/opt/spack/linux-centos8-zen2/gcc-10.2.0/qchem-5.4-akfmr7b3t57bfs6qan3padb2wnb2i7cl/exe/qcprog.exe fin_bdt_Phi_40_Theta_70_fin_ftt_Hydrogenated_Improper.qcin_1927717.0 ./qchem1927717/

Process 0 of 1 is on exp-2-46 - thread support 0
initial socket setup ...start
initial socket setup ...done 
now start server 0 ... 
                  Welcome to Q-Chem
     A Quantum Leap Into The Future Of Chemistry


 Q-Chem 5.4, Q-Chem, Inc., Pleasanton, CA (2021)

 License issued to: University of California, San Diego (site)

 E. Epifanovsky,  A. T. B. Gilbert,  Xintian Feng,  Joonho Lee,  Yuezhi Mao,  
 N. Mardirossian,  P. Pokhilko,  A. White,  M. Wormit,  M. P. Coons,  
 A. L. Dempwolff,  Zhengting Gan,  D. Hait,  P. R. Horn,  L. D. Jacobson,  
 I. Kaliman,  J. Kussmann,  A. W. Lange,  Ka Un Lao,  D. S. Levine,  Jie Liu,  
 S. C. McKenzie,  A. F. Morrison,  K. Nanda,  F. Plasser,  D. R. Rehn,  
 M. L. Vidal,  Zhi-Qiang You,  Ying Zhu,  B. Alam,  B. Albrecht,  
 A. Aldossary,  E. Alguire,  J. H. Andersen,  D. Barton,  K. Begam,  A. Behn,  
 Y. A. Bernard,  E. J. Berquist,  H. Burton,  A. Carreras,  K. Carter-Fenk,  
 R. Chakraborty,  A. D. Chien,  K. D. Closser,  V. Cofer-Shabica,  
 S. Dasgupta,  Jia Deng,  M. de Wergifosse,  M. Diedenhofen,  Hainam Do,  
 S. Ehlert,  Po-Tung Fang,  S. Fatehi,  Qingguo Feng,  J. Gayvert,  
 Qinghui Ge,  G. Gidofalvi,  M. Goldey,  J. Gomes,  C. Gonzalez-Espinoza,  
 S. Gulania,  A. Gunina,  M. W. D. Hanson-Heine,  P. H. P. Harbach,  
 A. W. Hauser,  M. F. Herbst,  M. Hernandez Vera,  M. Hodecker,  
 Z. C. Holden,  S. Houck,  Xunkun Huang,  Kerwin Hui,  B. C. Huynh,  
 M. Ivanov,  Hyunjun Ji,  Hanjie Jiang,  B. Kaduk,  S. Kaehler,  
 K. Khistyaev,  Jaehoon Kim,  P. Klunzinger,  Z. Koczor-Benda,  
 Joong Hoon Koh,  D. Kosenkov,  L. Koulias,  T. Kowalczyk,  C. M. Krauter,  
 K. Kue,  A. Kunitsa,  T. Kus,  A. Landau,  K. V. Lawler,  D. Lefrancois,  
 S. Lehtola,  Rain Li,  Yi-Pei Li,  Jiashu Liang,  M. Liebenthal,  
 Hung-Hsuan Lin,  You-Sheng Lin,  Fenglai Liu,  Kuan-Yu Liu,  
 M. Loipersberger,  A. Luenser,  A. Manjanath,  P. Manohar,  E. Mansoor,  
 S. F. Manzer,  Shan-Ping Mao,  A. V. Marenich,  T. Markovich,  S. Mason,  
 S. A. Maurer,  P. F. McLaughlin,  M. F. S. J. Menger,  J.-M. Mewes,  
 S. A. Mewes,  P. Morgante,  J. W. Mullinax,  T. S. Nguyen-Beck,  
 K. J. Oosterbaan,  G. Paran,  Alexander C. Paul,  Suranjan K. Paul,  
 F. Pavosevic,  Zheng Pei,  S. Prager,  E. I. Proynov,  E. Ramos,  B. Rana,  
 A. E. Rask,  A. Rettig,  R. M. Richard,  F. Rob,  E. Rossomme,  T. Scheele,  
 M. Scheurer,  M. Schneider,  N. Sergueev,  S. M. Sharada,  W. Skomorowski,  
 D. W. Small,  C. J. Stein,  Yu-Chuan Su,  E. J. Sundstrom,  Zhen Tao,  
 J. Thirman,  T. Tsuchimochi,  N. M. Tubman,  S. P. Veccham,  O. Vydrov,  
 J. Wenzel,  J. Witte,  A. Yamada,  Kun Yao,  S. Yeganeh,  S. R. Yost,  
 A. Zech,  Igor Ying Zhang,  Xing Zhang,  Yu Zhang,  D. Zuev,  
 A. Aspuru-Guzik,  A. T. Bell,  N. A. Besley,  K. B. Bravaya,  B. R. Brooks,  
 D. Casanova,  Jeng-Da Chai,  S. Coriani,  C. J. Cramer,  
 A. E. DePrince, III,  R. A. DiStasio Jr.,  A. Dreuw,  B. D. Dunietz,  
 T. R. Furlani,  W. A. Goddard III,  S. Grimme,  S. Hammes-Schiffer,  
 T. Head-Gordon,  W. J. Hehre,  Chao-Ping Hsu,  T.-C. Jagau,  Yousung Jung,  
 A. Klamt,  Jing Kong,  D. S. Lambrecht,  WanZhen Liang,  N. J. Mayhall,  
 C. W. McCurdy,  J. B. Neaton,  C. Ochsenfeld,  J. A. Parkhill,  R. Peverati,  
 V. A. Rassolov,  Yihan Shao,  L. V. Slipchenko,  T. Stauch,  R. P. Steele,  
 J. E. Subotnik,  A. J. W. Thom,  A. Tkatchenko,  D. G. Truhlar,  
 T. Van Voorhis,  T. A. Wesolowski,  K. B. Whaley,  H. L. Woodcock III,  
 P. M. Zimmerman,  S. Faraji,  P. M. W. Gill,  M. Head-Gordon,  
 J. M. Herbert,  A. I. Krylov

 Contributors to earlier versions of Q-Chem not listed above: 
 R. D. Adamson,  B. Austin,  R. Baer,  J. Baker,  G. J. O. Beran,  
 K. Brandhorst,  S. T. Brown,  E. F. C. Byrd,  A. K. Chakraborty,  
 G. K. L. Chan,  Chun-Min Chang,  Yunqing Chen,  C.-L. Cheng,  
 Siu Hung Chien,  D. M. Chipman,  D. L. Crittenden,  H. Dachsel,  
 R. J. Doerksen,  A. D. Dutoi,  R. G. Edgar,  J. Fosso-Tande,  
 L. Fusti-Molnar,  D. Ghosh,  A. Ghysels,  A. Golubeva-Zadorozhnaya,  
 J. Gonthier,  M. S. Gordon,  S. R. Gwaltney,  G. Hawkins,  J. E. Herr,  
 A. Heyden,  S. Hirata,  E. G. Hohenstein,  G. Kedziora,  F. J. Keil,  
 C. Kelley,  Jihan Kim,  R. A. King,  R. Z. Khaliullin,  P. P. Korambath,  
 W. Kurlancheek,  A. Laurent,  A. M. Lee,  M. S. Lee,  S. V. Levchenko,  
 Ching Yeh Lin,  D. Liotard,  E. Livshits,  R. C. Lochan,  I. Lotan,  
 L. A. Martinez-Martinez,  P. E. Maslen,  N. Nair,  D. P. O'Neill,  
 D. Neuhauser,  E. Neuscamman,  C. M. Oana,  R. Olivares-Amaya,  R. Olson,  
 T. M. Perrine,  B. Peters,  P. A. Pieniazek,  A. Prociuk,  Y. M. Rhee,  
 J. Ritchie,  M. A. Rohrdanz,  E. Rosta,  N. J. Russ,  H. F. Schaefer III,  
 M. W. Schmidt,  N. E. Schultz,  S. Sharma,  N. Shenvi,  C. D. Sherrill,  
 A. C. Simmonett,  A. Sodt,  T. Stein,  D. Stuck,  K. S. Thanthiriwatte,  
 V. Vanovschi,  L. Vogt,  Tao Wang,  A. Warshel,  M. A. Watson,  
 C. F. Williams,  Q. Wu,  X. Xu,  Jun Yang,  W. Zhang,  Yan Zhao

 Please cite Q-Chem as follows:
 Y. Shao et al., Mol. Phys. 113, 184-215 (2015)
 DOI: 10.1080/00268976.2014.952696

 Q-Chem 5.4.0 for Intel X86 EM64T Linux

 Parts of Q-Chem use Armadillo 9.800.1 (Horizon Scraper).
 http://arma.sourceforge.net/

 Q-Chem begins on Sun Sep 24 16:56:27 2023  

 Host: 
0

     Scratch files written to ./qchem1927717//
 May1621 |scratch|qcdevops|jenkins|workspace|build_RNUM    
 Parallel job on  1  processors
 Processing $rem in /cm/shared/apps/spack/cpu/opt/spack/linux-centos8-zen2/gcc-10.2.0/qchem-5.4-akfmr7b3t57bfs6qan3padb2wnb2i7cl/config/preferences:
 Processing $rem in /home/rramji/.qchemrc:
 Symmetry turned off for PCM/SM12/SMD calculation
 Core orbitals will be frozen

 Checking the input file for inconsistencies... 	...done.

 Q-Chem warning in module forms1/BasisType.C, line 2236:

 You are not using the predefined 5D/6D in this basis set.


--------------------------------------------------------------
User input:
--------------------------------------------------------------
$molecule
0 1
C	-0.572257	-0.628442	1.020802
S	0.007643	0.059158	2.531502
C	1.019343	1.266558	1.748402
C	0.011543	0.067358	-0.043898
C	0.903043	1.132158	0.342502
C	-0.029857	0.015358	-1.465298
C	0.783043	0.984358	-2.086098
S	1.582343	1.942158	-0.944898
C	0.950143	1.176358	-3.539198
O	0.352443	0.459358	-4.329498
O	1.777443	2.157258	-3.983598
F	-0.743057	-0.840542	-2.225498
C	2.015843	2.425458	-5.314198
H	2.726543	3.271558	-5.349498
H	1.083043	2.699958	-5.854798
H	2.453743	1.548958	-5.841098
C	-0.572257	-2.063642	1.020802
H	-0.194957	-2.072642	2.032702
H	-1.357557	-2.747542	1.307002
H	0.312143	-2.588042	0.690402
H	1.610843	1.971358	2.342302
$end

$rem
JOBTYPE		SP
EXCHANGE	HF
CORRELATION	pRIMP2
BASIS		cc-pvtz
METHOD		rimp2
AUX_BASIS	rimp2-cc-pvtz
SOLVENT_METHOD	PCM
PURECART	11111
SYMMETRY	false
MEM_TOTAL	110000
SCF_CONVERGENCE = 6
THRESH=10
GUI = 2
$end



$solvent
dielectric 4.90
$end
--------------------------------------------------------------
 ----------------------------------------------------------------
             Standard Nuclear Orientation (Angstroms)
    I     Atom           X                Y                Z
 ----------------------------------------------------------------
    1      C      -0.5722570000    -0.6284420000     1.0208020000
    2      S       0.0076430000     0.0591580000     2.5315020000
    3      C       1.0193430000     1.2665580000     1.7484020000
    4      C       0.0115430000     0.0673580000    -0.0438980000
    5      C       0.9030430000     1.1321580000     0.3425020000
    6      C      -0.0298570000     0.0153580000    -1.4652980000
    7      C       0.7830430000     0.9843580000    -2.0860980000
    8      S       1.5823430000     1.9421580000    -0.9448980000
    9      C       0.9501430000     1.1763580000    -3.5391980000
   10      O       0.3524430000     0.4593580000    -4.3294980000
   11      O       1.7774430000     2.1572580000    -3.9835980000
   12      F      -0.7430570000    -0.8405420000    -2.2254980000
   13      C       2.0158430000     2.4254580000    -5.3141980000
   14      H       2.7265430000     3.2715580000    -5.3494980000
   15      H       1.0830430000     2.6999580000    -5.8547980000
   16      H       2.4537430000     1.5489580000    -5.8410980000
   17      C      -0.5722570000    -2.0636420000     1.0208020000
   18      H      -0.1949570000    -2.0726420000     2.0327020000
   19      H      -1.3575570000    -2.7475420000     1.3070020000
   20      H       0.3121430000    -2.5880420000     0.6904020000
   21      H       1.6108430000     1.9713580000     2.3423020000
 ----------------------------------------------------------------
 Nuclear Repulsion Energy =        1092.87537927 hartrees
 There are       59 alpha and       59 beta electrons
 Requested basis set is cc-pVTZ
 There are 186 shells and 526 basis functions

 Total QAlloc Memory Limit 110000 MB
 Mega-Array Size       188 MB
 MEM_STATIC part       192 MB
 Discretize the solute cavity surface with Lebedev spheres
	Using 110 Lebedev grid points for each H atom
	Using 194 Lebedev grid points for other atoms
	Atomic van der Waals radii will be scaled by 1.20
 Remove points where switching function is < 1.0e-08
 Keep 1535 surface tesserae and discard 1951 interior tesserae
 Molecular Surface Area = 240.648 Angst**2
 Requested basis set is rimp2-cc-pVTZ
 There are 410 shells and 1426 basis functions
 A cutoff of  1.0D-10 yielded  11608 shell pairs
 There are     91316 function pairs (    119595 Cartesian)
 Smallest overlap matrix eigenvalue = 6.12E-05

 Scale SEOQF with 1.000000e-01/1.000000e-01/1.000000e-02

 Standard Electronic Orientation quadrupole field applied
 Nucleus-field energy     =     0.0000000131 hartrees
 Guess from superposition of atomic densities
 Warning:  Energy on first SCF cycle will be non-variational
 SAD guess density has 118.000000 electrons

 -----------------------------------------------------------------------
  General SCF calculation program by
  Eric Jon Sundstrom, Paul Horn, Yuezhi Mao, Dmitri Zuev, Alec White,
  David Stuck, Shaama M.S., Shane Yost, Joonho Lee, David Small,
  Daniel Levine, Susi Lehtola, Hugh Burton, Evgeny Epifanovsky,
  Bang C. Huynh
 -----------------------------------------------------------------------
 Hartree-Fock
 using 64 threads for integral computing
 -------------------------------------------------------
 OpenMP Integral computing Module                
 Release: version 1.0, May 2013, Q-Chem Inc. Pittsburgh 
 -------------------------------------------------------
 A restricted SCF calculation will be
 performed using DIIS
 SCF converges when DIIS error is below 1.0e-06
 ---------------------------------------
  Cycle       Energy         DIIS error
 ---------------------------------------
    1   -1394.6305613569      2.54e-02  
    2   -1388.9727509057      2.52e-03  
    3   -1389.1463075918      1.60e-03  
    4   -1389.2099730543      3.51e-04  
    5   -1389.2157711793      1.12e-04  
    6   -1389.2164725276      3.72e-05  
    7   -1389.2166249834      1.89e-05  
    8   -1389.2166797891      7.89e-06  
    9   -1389.2166935265      3.80e-06  
   10   -1389.2166960911      1.49e-06  
   11   -1389.2166965283      6.04e-07  Convergence criterion met
 ---------------------------------------
 SCF time:   CPU 1684.48s  wall 53.00s 

************** Final PCM Free Energy Summary **************
 G_electrostatic  =      -0.01304121 hartree =      -8.18348413 kcal/mol
 G_cavitation     =       0.00000000 hartree =       0.00000000 kcal/mol
 G_dispersion     =       0.00000000 hartree =       0.00000000 kcal/mol
 G_repulsion      =       0.00000000 hartree =       0.00000000 kcal/mol
 --------------------------------------------------
 Non-electrostatic Free Energy =       0.00000000 hartree =       0.00000000 kcal/mol
 Total                         =      -0.01304121 hartree =      -8.18348413 kcal/mol
 --------------------------------------------------
 SCF Energy (H0 + V/2)                       =   -1389.21669653 
 Solute Internal Energy (H0)                 =   -1389.20365532 
 Total Free Energy (H0 + V/2 + non-elec)     =   -1389.21669653 hartree
                                             = -871746.63434285 kcal/mol
***********************************************************

 SCF   energy in the final basis set =    -1389.2166965283
 Total energy in the final basis set =    -1389.2166965283


 --------------------------------------------------------------
  Generalized many-body perturbation theory program
  by Joonho Lee, Fazle Rob, Xintian Feng, Evgeny Epifanovsky

 No regularization used 
 (reg. param. = 0.0000e+00)
  (P|Q)^-1/2 Time:  CPU 29.17 s  wall 0.46 s

 In RI-MP2 calculation: 
 # of frozen core orbitals: 22

 Components of the RIMP2 correlation energy:
        aaaa    correlation energy =        -0.3310034160 a.u.
        abab    correlation energy =        -1.8532578057 a.u.
        bbbb    correlation energy =        -0.3310034160 a.u.
        non-Brillouin singles      =        -0.0000000000 a.u.
        total same-spin energy     =        -0.6620068320 a.u.
        total opposite-spin energy =        -1.8532578057 a.u.

 Total  RIMP2   correlation energy =        -2.5152646377 a.u.
        RIMP2         total energy =     -1391.7319611660 a.u.

 RI-MP2 Energy Time:  CPU 182.36 s  wall 3.67 s
 
 --------------------------------------------------------------
 
                    Orbital Energies (a.u.)
 --------------------------------------------------------------
 
 Alpha MOs
 -- Occupied --
-92.0046 -91.9932 -26.3329 -20.6121 -20.5504 -11.4103 -11.3743 -11.2978
-11.2958 -11.2920 -11.2916 -11.2885 -11.2752 -11.2210  -9.0043  -8.9972
 -6.6849  -6.6841  -6.6838  -6.6785  -6.6779  -6.6765  -1.6458  -1.4719
 -1.3673  -1.2302  -1.1511  -1.0658  -1.0312  -1.0025  -0.9700  -0.9054
 -0.8666  -0.7976  -0.7852  -0.7705  -0.7277  -0.7143  -0.6957  -0.6785
 -0.6750  -0.6699  -0.6085  -0.6060  -0.5996  -0.5894  -0.5704  -0.5653
 -0.5411  -0.5262  -0.5081  -0.4851  -0.4774  -0.4615  -0.4610  -0.4466
 -0.3939  -0.3428  -0.2833
 -- Virtual --
  0.0223   0.1141   0.1358   0.1551   0.1586   0.1666   0.1876   0.1942
  0.2077   0.2164   0.2193   0.2280   0.2345   0.2470   0.2615   0.2660
  0.2821   0.2943   0.3106   0.3350   0.3523   0.3632   0.3720   0.3800
  0.3804   0.3873   0.3921   0.4078   0.4196   0.4310   0.4358   0.4410
  0.4525   0.4648   0.4720   0.4767   0.4891   0.5011   0.5160   0.5254
  0.5259   0.5407   0.5438   0.5511   0.5591   0.5661   0.5731   0.5858
  0.5895   0.5965   0.5988   0.6078   0.6168   0.6187   0.6268   0.6280
  0.6436   0.6448   0.6485   0.6597   0.6744   0.6852   0.6953   0.7010
  0.7133   0.7134   0.7380   0.7460   0.7601   0.7814   0.7880   0.8001
  0.8028   0.8122   0.8310   0.8372   0.8587   0.8596   0.8825   0.8840
  0.8945   0.9059   0.9247   0.9340   0.9394   0.9448   0.9589   0.9687
  0.9880   1.0003   1.0050   1.0179   1.0314   1.0390   1.0517   1.0540
  1.0631   1.0762   1.0768   1.0870   1.0993   1.1168   1.1311   1.1327
  1.1511   1.1560   1.1635   1.1667   1.1762   1.1924   1.1961   1.2099
  1.2294   1.2326   1.2498   1.2601   1.2725   1.2807   1.2964   1.3194
  1.3283   1.3435   1.3531   1.3575   1.3644   1.3726   1.3906   1.4045
  1.4169   1.4294   1.4350   1.4554   1.4688   1.4807   1.5007   1.5057
  1.5129   1.5282   1.5393   1.5500   1.5588   1.5736   1.5805   1.6038
  1.6144   1.6489   1.6579   1.6659   1.6836   1.7085   1.7161   1.7321
  1.7426   1.7589   1.7886   1.8145   1.8221   1.8300   1.8367   1.8441
  1.8644   1.8709   1.8991   1.9238   1.9315   1.9424   1.9448   1.9697
  1.9853   2.0069   2.0280   2.0304   2.0481   2.0988   2.1103   2.1286
  2.1402   2.1487   2.1573   2.1628   2.1871   2.1963   2.2126   2.2293
  2.2446   2.2654   2.2729   2.2794   2.2905   2.2930   2.3306   2.3577
  2.3678   2.3813   2.4014   2.4197   2.4397   2.4614   2.4866   2.5217
  2.5303   2.5582   2.5700   2.5723   2.5860   2.5906   2.6295   2.6312
  2.6510   2.6532   2.6659   2.6904   2.6982   2.7096   2.7207   2.7288
  2.7469   2.7504   2.7570   2.7746   2.7921   2.7972   2.8203   2.8337
  2.8450   2.8654   2.8775   2.8927   2.9031   2.9212   2.9401   2.9584
  2.9612   2.9873   3.0128   3.0275   3.0409   3.0451   3.0553   3.0715
  3.0859   3.0913   3.0964   3.1079   3.1343   3.1377   3.1471   3.1624
  3.1842   3.1913   3.1988   3.2077   3.2126   3.2302   3.2497   3.2515
  3.2584   3.2619   3.2770   3.2808   3.2917   3.3061   3.3132   3.3224
  3.3332   3.3451   3.3627   3.3690   3.3812   3.3960   3.4135   3.4237
  3.4396   3.4407   3.4429   3.4604   3.4661   3.4775   3.4885   3.4974
  3.5127   3.5242   3.5433   3.5595   3.5648   3.5845   3.5854   3.5976
  3.6043   3.6197   3.6327   3.6374   3.6523   3.6621   3.6687   3.6812
  3.6895   3.7057   3.7095   3.7213   3.7254   3.7293   3.7342   3.7498
  3.7616   3.7951   3.8020   3.8211   3.8242   3.8357   3.8381   3.8518
  3.8577   3.8614   3.8723   3.8881   3.9014   3.9139   3.9283   3.9362
  3.9559   3.9788   3.9870   3.9986   4.0157   4.0240   4.0420   4.0525
  4.0709   4.0846   4.0902   4.0989   4.1126   4.1617   4.1718   4.1906
  4.1943   4.2083   4.2313   4.2676   4.2878   4.2986   4.3086   4.3383
  4.3481   4.3685   4.3767   4.3954   4.4118   4.4222   4.4342   4.4393
  4.4667   4.4901   4.5034   4.5175   4.5479   4.5569   4.5838   4.5953
  4.6347   4.6392   4.6475   4.6546   4.6675   4.7041   4.7202   4.7258
  4.7626   4.7783   4.8077   4.8152   4.8241   4.8504   4.9114   4.9304
  4.9695   5.0120   5.0143   5.0387   5.0729   5.0844   5.1114   5.1663
  5.1811   5.1970   5.2091   5.2192   5.2525   5.2592   5.2820   5.3549
  5.3555   5.3683   5.3954   5.4261   5.4416   5.4732   5.4799   5.5339
  5.5622   5.5850   5.6103   5.6175   5.6368   5.6700   5.7306   5.7835
  5.8008   5.8281   5.8558   5.8683   5.9386   5.9628   5.9697   6.0113
  6.0601   6.1182   6.1337   6.1554   6.1853   6.3086   6.3709   6.4033
  6.4482   6.5053   6.5564   6.6579   6.6767   6.7319   6.7389   6.8601
  6.8800   6.9899   7.1785   7.2101   7.3263   7.3742   7.3764   7.4265
  7.4626   7.4881   7.5182   7.5482   7.6019   7.7719   7.8311   7.9024
  8.0010   8.1226   8.3920   8.9291   9.0082   9.3643   9.4956   9.6870
 10.2064  11.2129  11.8176  11.9271  12.2453  12.6096  13.0961  13.3856
 13.7773  14.0801  14.4361
 --------------------------------------------------------------
 
          Ground-State Mulliken Net Atomic Charges

     Atom                 Charge (a.u.)
  ----------------------------------------
      1 C                    -0.007543
      2 S                     0.086341
      3 C                    -0.220460
      4 C                    -0.078144
      5 C                    -0.014851
      6 C                     0.369316
      7 C                    -0.154000
      8 S                     0.038623
      9 C                     0.457043
     10 O                    -0.448906
     11 O                    -0.297655
     12 F                    -0.210298
     13 C                    -0.054632
     14 H                     0.116578
     15 H                     0.084578
     16 H                     0.084320
     17 C                    -0.375208
     18 H                     0.126448
     19 H                     0.141867
     20 H                     0.143661
     21 H                     0.212923
  ----------------------------------------
  Sum of atomic charges =     0.000000

 -----------------------------------------------------------------
                    Cartesian Multipole Moments
 -----------------------------------------------------------------
    Charge (ESU x 10^10)
                -0.0000
    Dipole Moment (Debye)
         X       2.6461      Y       1.2679      Z       3.8103
       Tot       4.8091
    Quadrupole Moments (Debye-Ang)
        XX     -92.5400     XY       4.6723     YY     -87.2299
        XZ      -6.7117     YZ     -10.5002     ZZ     -93.7214
    Octopole Moments (Debye-Ang^2)
       XXX    -163.4139    XXY     -51.6942    XYY     -44.4094
       YYY    -178.5051    XXZ      71.3274    XYZ      -7.7268
       YYZ      74.6428    XZZ       3.7591    YZZ       7.2724
       ZZZ     252.7153
    Hexadecapole Moments (Debye-Ang^3)
      XXXX    -748.7497   XXXY    -382.8484   XXYY    -299.1624
      XYYY    -368.6133   YYYY   -1203.6348   XXXZ     432.1180
      XXYZ     163.5994   XYYZ     111.8886   YYYZ     530.0278
      XXZZ    -664.5566   XYZZ      12.4376   YYZZ    -684.7048
      XZZZ     185.9981   YZZZ     261.4349   ZZZZ   -3772.5688
 -----------------------------------------------------------------
 Total job time:  59.28s(wall), 1944.08s(cpu) 
 Sun Sep 24 16:57:26 2023

        *************************************************************
        *                                                           *
        *  Thank you very much for using Q-Chem.  Have a nice day.  *
        *                                                           *
        *************************************************************


0 sent ACK to 0 
now end server 0 ... 
cleanup process ... done
remove work dirs ./qchem1927717.0 -- ./qchem1927717.0
rm -rf ./qchem1927717.0
rm -rf ./qchem1927717
