You are running Q-Chem version: 5.4.0

#
# job setting
#
local host:  exp-8-29
current dir: /expanse/lustre/projects/csd626/rramji/aromodel/PTB7_fin/Hydrogenated_Impropers_Test
input file:  fin_bdt_Phi_25_Theta_200_fin_ftt_Hydrogenated_Improper.qcin
output file: 
nprocs     : 1
nthreads   : 64
#
# qchem installation setting
#
QC:          /cm/shared/apps/spack/cpu/opt/spack/linux-centos8-zen2/gcc-10.2.0/qchem-5.4-akfmr7b3t57bfs6qan3padb2wnb2i7cl
QCAUX:       /cm/shared/apps/spack/cpu/opt/spack/linux-centos8-zen2/gcc-10.2.0/qchem-5.4-akfmr7b3t57bfs6qan3padb2wnb2i7cl/qcaux
QCPROG:      /cm/shared/apps/spack/cpu/opt/spack/linux-centos8-zen2/gcc-10.2.0/qchem-5.4-akfmr7b3t57bfs6qan3padb2wnb2i7cl/exe/qcprog.exe
QCPROG_S:    /cm/shared/apps/spack/cpu/opt/spack/linux-centos8-zen2/gcc-10.2.0/qchem-5.4-akfmr7b3t57bfs6qan3padb2wnb2i7cl/exe/qcprog.exe_s
PARALLEL:    -DPARALLEL
QCMPI:       mpich
#
# qchem directory setting
#
qcrun:       qchem1178047
QCSCRATCH:   .
QCLOCALSCR:  
QCTMPDIR:    .
QCFILEPREF:  ./qchem1178047
QCSAVEDIR:   
workdirs:    ./qchem1178047
workdir0:    ./qchem1178047
partmpdirs =  
#
# parallel setting
#
QCRSH:           ssh
QCMPI:           mpich
QCMPIRUN:        /cm/shared/apps/spack/cpu/opt/spack/linux-centos8-zen2/gcc-10.2.0/qchem-5.4-akfmr7b3t57bfs6qan3padb2wnb2i7cl/bin/mpi/mpirun_qchem
QCMACHINEFILE:   ./qchem1178047/hostfile
exp-8-29

#
# env setting
#
exported envs:   QC QCAUX QCSCRATCH QCRUNNAME QCFILEPREF QCPROG QCPROG_S GUIFILE

Running Job 1 of 1 fin_bdt_Phi_25_Theta_200_fin_ftt_Hydrogenated_Improper.qcin
qchem fin_bdt_Phi_25_Theta_200_fin_ftt_Hydrogenated_Improper.qcin_1178047.0 ./qchem1178047/ 1
/cm/shared/apps/spack/cpu/opt/spack/linux-centos8-zen2/gcc-10.2.0/qchem-5.4-akfmr7b3t57bfs6qan3padb2wnb2i7cl/bin/mpi/mpirun_qchem -machinefile ./qchem1178047/hostfile -np 1 /cm/shared/apps/spack/cpu/opt/spack/linux-centos8-zen2/gcc-10.2.0/qchem-5.4-akfmr7b3t57bfs6qan3padb2wnb2i7cl/exe/qcprog.exe fin_bdt_Phi_25_Theta_200_fin_ftt_Hydrogenated_Improper.qcin_1178047.0 ./qchem1178047/

Process 0 of 1 is on exp-8-29 - thread support 0
initial socket setup ...start
initial socket setup ...done 
now start server 0 ... 
                  Welcome to Q-Chem
     A Quantum Leap Into The Future Of Chemistry


 Q-Chem 5.4, Q-Chem, Inc., Pleasanton, CA (2021)

 License issued to: University of California, San Diego (site)

 E. Epifanovsky,  A. T. B. Gilbert,  Xintian Feng,  Joonho Lee,  Yuezhi Mao,  
 N. Mardirossian,  P. Pokhilko,  A. White,  M. Wormit,  M. P. Coons,  
 A. L. Dempwolff,  Zhengting Gan,  D. Hait,  P. R. Horn,  L. D. Jacobson,  
 I. Kaliman,  J. Kussmann,  A. W. Lange,  Ka Un Lao,  D. S. Levine,  Jie Liu,  
 S. C. McKenzie,  A. F. Morrison,  K. Nanda,  F. Plasser,  D. R. Rehn,  
 M. L. Vidal,  Zhi-Qiang You,  Ying Zhu,  B. Alam,  B. Albrecht,  
 A. Aldossary,  E. Alguire,  J. H. Andersen,  D. Barton,  K. Begam,  A. Behn,  
 Y. A. Bernard,  E. J. Berquist,  H. Burton,  A. Carreras,  K. Carter-Fenk,  
 R. Chakraborty,  A. D. Chien,  K. D. Closser,  V. Cofer-Shabica,  
 S. Dasgupta,  Jia Deng,  M. de Wergifosse,  M. Diedenhofen,  Hainam Do,  
 S. Ehlert,  Po-Tung Fang,  S. Fatehi,  Qingguo Feng,  J. Gayvert,  
 Qinghui Ge,  G. Gidofalvi,  M. Goldey,  J. Gomes,  C. Gonzalez-Espinoza,  
 S. Gulania,  A. Gunina,  M. W. D. Hanson-Heine,  P. H. P. Harbach,  
 A. W. Hauser,  M. F. Herbst,  M. Hernandez Vera,  M. Hodecker,  
 Z. C. Holden,  S. Houck,  Xunkun Huang,  Kerwin Hui,  B. C. Huynh,  
 M. Ivanov,  Hyunjun Ji,  Hanjie Jiang,  B. Kaduk,  S. Kaehler,  
 K. Khistyaev,  Jaehoon Kim,  P. Klunzinger,  Z. Koczor-Benda,  
 Joong Hoon Koh,  D. Kosenkov,  L. Koulias,  T. Kowalczyk,  C. M. Krauter,  
 K. Kue,  A. Kunitsa,  T. Kus,  A. Landau,  K. V. Lawler,  D. Lefrancois,  
 S. Lehtola,  Rain Li,  Yi-Pei Li,  Jiashu Liang,  M. Liebenthal,  
 Hung-Hsuan Lin,  You-Sheng Lin,  Fenglai Liu,  Kuan-Yu Liu,  
 M. Loipersberger,  A. Luenser,  A. Manjanath,  P. Manohar,  E. Mansoor,  
 S. F. Manzer,  Shan-Ping Mao,  A. V. Marenich,  T. Markovich,  S. Mason,  
 S. A. Maurer,  P. F. McLaughlin,  M. F. S. J. Menger,  J.-M. Mewes,  
 S. A. Mewes,  P. Morgante,  J. W. Mullinax,  T. S. Nguyen-Beck,  
 K. J. Oosterbaan,  G. Paran,  Alexander C. Paul,  Suranjan K. Paul,  
 F. Pavosevic,  Zheng Pei,  S. Prager,  E. I. Proynov,  E. Ramos,  B. Rana,  
 A. E. Rask,  A. Rettig,  R. M. Richard,  F. Rob,  E. Rossomme,  T. Scheele,  
 M. Scheurer,  M. Schneider,  N. Sergueev,  S. M. Sharada,  W. Skomorowski,  
 D. W. Small,  C. J. Stein,  Yu-Chuan Su,  E. J. Sundstrom,  Zhen Tao,  
 J. Thirman,  T. Tsuchimochi,  N. M. Tubman,  S. P. Veccham,  O. Vydrov,  
 J. Wenzel,  J. Witte,  A. Yamada,  Kun Yao,  S. Yeganeh,  S. R. Yost,  
 A. Zech,  Igor Ying Zhang,  Xing Zhang,  Yu Zhang,  D. Zuev,  
 A. Aspuru-Guzik,  A. T. Bell,  N. A. Besley,  K. B. Bravaya,  B. R. Brooks,  
 D. Casanova,  Jeng-Da Chai,  S. Coriani,  C. J. Cramer,  
 A. E. DePrince, III,  R. A. DiStasio Jr.,  A. Dreuw,  B. D. Dunietz,  
 T. R. Furlani,  W. A. Goddard III,  S. Grimme,  S. Hammes-Schiffer,  
 T. Head-Gordon,  W. J. Hehre,  Chao-Ping Hsu,  T.-C. Jagau,  Yousung Jung,  
 A. Klamt,  Jing Kong,  D. S. Lambrecht,  WanZhen Liang,  N. J. Mayhall,  
 C. W. McCurdy,  J. B. Neaton,  C. Ochsenfeld,  J. A. Parkhill,  R. Peverati,  
 V. A. Rassolov,  Yihan Shao,  L. V. Slipchenko,  T. Stauch,  R. P. Steele,  
 J. E. Subotnik,  A. J. W. Thom,  A. Tkatchenko,  D. G. Truhlar,  
 T. Van Voorhis,  T. A. Wesolowski,  K. B. Whaley,  H. L. Woodcock III,  
 P. M. Zimmerman,  S. Faraji,  P. M. W. Gill,  M. Head-Gordon,  
 J. M. Herbert,  A. I. Krylov

 Contributors to earlier versions of Q-Chem not listed above: 
 R. D. Adamson,  B. Austin,  R. Baer,  J. Baker,  G. J. O. Beran,  
 K. Brandhorst,  S. T. Brown,  E. F. C. Byrd,  A. K. Chakraborty,  
 G. K. L. Chan,  Chun-Min Chang,  Yunqing Chen,  C.-L. Cheng,  
 Siu Hung Chien,  D. M. Chipman,  D. L. Crittenden,  H. Dachsel,  
 R. J. Doerksen,  A. D. Dutoi,  R. G. Edgar,  J. Fosso-Tande,  
 L. Fusti-Molnar,  D. Ghosh,  A. Ghysels,  A. Golubeva-Zadorozhnaya,  
 J. Gonthier,  M. S. Gordon,  S. R. Gwaltney,  G. Hawkins,  J. E. Herr,  
 A. Heyden,  S. Hirata,  E. G. Hohenstein,  G. Kedziora,  F. J. Keil,  
 C. Kelley,  Jihan Kim,  R. A. King,  R. Z. Khaliullin,  P. P. Korambath,  
 W. Kurlancheek,  A. Laurent,  A. M. Lee,  M. S. Lee,  S. V. Levchenko,  
 Ching Yeh Lin,  D. Liotard,  E. Livshits,  R. C. Lochan,  I. Lotan,  
 L. A. Martinez-Martinez,  P. E. Maslen,  N. Nair,  D. P. O'Neill,  
 D. Neuhauser,  E. Neuscamman,  C. M. Oana,  R. Olivares-Amaya,  R. Olson,  
 T. M. Perrine,  B. Peters,  P. A. Pieniazek,  A. Prociuk,  Y. M. Rhee,  
 J. Ritchie,  M. A. Rohrdanz,  E. Rosta,  N. J. Russ,  H. F. Schaefer III,  
 M. W. Schmidt,  N. E. Schultz,  S. Sharma,  N. Shenvi,  C. D. Sherrill,  
 A. C. Simmonett,  A. Sodt,  T. Stein,  D. Stuck,  K. S. Thanthiriwatte,  
 V. Vanovschi,  L. Vogt,  Tao Wang,  A. Warshel,  M. A. Watson,  
 C. F. Williams,  Q. Wu,  X. Xu,  Jun Yang,  W. Zhang,  Yan Zhao

 Please cite Q-Chem as follows:
 Y. Shao et al., Mol. Phys. 113, 184-215 (2015)
 DOI: 10.1080/00268976.2014.952696

 Q-Chem 5.4.0 for Intel X86 EM64T Linux

 Parts of Q-Chem use Armadillo 9.800.1 (Horizon Scraper).
 http://arma.sourceforge.net/

 Q-Chem begins on Tue Sep 26 18:09:50 2023  

 Host: 
0

     Scratch files written to ./qchem1178047//
 May1621 |scratch|qcdevops|jenkins|workspace|build_RNUM    
 Parallel job on  1  processors
 Processing $rem in /cm/shared/apps/spack/cpu/opt/spack/linux-centos8-zen2/gcc-10.2.0/qchem-5.4-akfmr7b3t57bfs6qan3padb2wnb2i7cl/config/preferences:
 Processing $rem in /home/rramji/.qchemrc:
 Symmetry turned off for PCM/SM12/SMD calculation
 Core orbitals will be frozen

 Checking the input file for inconsistencies... 	...done.

 Q-Chem warning in module forms1/BasisType.C, line 2236:

 You are not using the predefined 5D/6D in this basis set.


--------------------------------------------------------------
User input:
--------------------------------------------------------------
$molecule
0 1
C	-0.373986	-0.753180	1.023483
S	0.008114	0.061020	2.534183
C	0.672914	1.489220	1.751083
C	0.009814	0.069920	-0.041217
C	0.595414	1.329320	0.345183
C	-0.016786	0.009120	-1.462617
C	0.517714	1.155520	-2.083417
S	1.041914	2.287520	-0.942217
C	0.629514	1.384120	-3.536517
O	0.237614	0.536820	-4.326817
O	1.174714	2.545720	-3.980917
F	-0.484086	-1.002280	-2.222817
C	1.335514	2.866520	-5.311517
H	1.803014	3.867720	-5.346817
H	0.363414	2.890220	-5.852117
H	1.985414	2.133220	-5.838417
C	-0.373986	-2.188380	1.023483
H	-1.391686	-2.197380	0.662083
H	-0.088486	-2.872280	0.237883
H	-0.689386	-2.712780	1.913383
H	1.061814	2.323020	2.344983
$end

$rem
JOBTYPE		SP
EXCHANGE	HF
CORRELATION	pRIMP2
BASIS		cc-pvtz
METHOD		rimp2
AUX_BASIS	rimp2-cc-pvtz
SOLVENT_METHOD	PCM
PURECART	11111
SYMMETRY	false
MEM_TOTAL	110000
SCF_CONVERGENCE = 6
THRESH=10
GUI = 2
$end



$solvent
dielectric 4.90
$end
--------------------------------------------------------------
 ----------------------------------------------------------------
             Standard Nuclear Orientation (Angstroms)
    I     Atom           X                Y                Z
 ----------------------------------------------------------------
    1      C      -0.3739860000    -0.7531800000     1.0234830000
    2      S       0.0081140000     0.0610200000     2.5341830000
    3      C       0.6729140000     1.4892200000     1.7510830000
    4      C       0.0098140000     0.0699200000    -0.0412170000
    5      C       0.5954140000     1.3293200000     0.3451830000
    6      C      -0.0167860000     0.0091200000    -1.4626170000
    7      C       0.5177140000     1.1555200000    -2.0834170000
    8      S       1.0419140000     2.2875200000    -0.9422170000
    9      C       0.6295140000     1.3841200000    -3.5365170000
   10      O       0.2376140000     0.5368200000    -4.3268170000
   11      O       1.1747140000     2.5457200000    -3.9809170000
   12      F      -0.4840860000    -1.0022800000    -2.2228170000
   13      C       1.3355140000     2.8665200000    -5.3115170000
   14      H       1.8030140000     3.8677200000    -5.3468170000
   15      H       0.3634140000     2.8902200000    -5.8521170000
   16      H       1.9854140000     2.1332200000    -5.8384170000
   17      C      -0.3739860000    -2.1883800000     1.0234830000
   18      H      -1.3916860000    -2.1973800000     0.6620830000
   19      H      -0.0884860000    -2.8722800000     0.2378830000
   20      H      -0.6893860000    -2.7127800000     1.9133830000
   21      H       1.0618140000     2.3230200000     2.3449830000
 ----------------------------------------------------------------
 Nuclear Repulsion Energy =        1090.22674119 hartrees
 There are       59 alpha and       59 beta electrons
 Requested basis set is cc-pVTZ
 There are 186 shells and 526 basis functions

 Total QAlloc Memory Limit 110000 MB
 Mega-Array Size       188 MB
 MEM_STATIC part       192 MB
 Discretize the solute cavity surface with Lebedev spheres
	Using 110 Lebedev grid points for each H atom
	Using 194 Lebedev grid points for other atoms
	Atomic van der Waals radii will be scaled by 1.20
 Remove points where switching function is < 1.0e-08
 Keep 1567 surface tesserae and discard 1919 interior tesserae
 Molecular Surface Area = 242.161 Angst**2
 Requested basis set is rimp2-cc-pVTZ
 There are 410 shells and 1426 basis functions
 A cutoff of  1.0D-10 yielded  11563 shell pairs
 There are     90979 function pairs (    119148 Cartesian)
 Smallest overlap matrix eigenvalue = 6.08E-05

 Scale SEOQF with 1.000000e-01/1.000000e-01/1.000000e-02

 Standard Electronic Orientation quadrupole field applied
 Nucleus-field energy     =     0.0000000163 hartrees
 Guess from superposition of atomic densities
 Warning:  Energy on first SCF cycle will be non-variational
 SAD guess density has 118.000000 electrons

 -----------------------------------------------------------------------
  General SCF calculation program by
  Eric Jon Sundstrom, Paul Horn, Yuezhi Mao, Dmitri Zuev, Alec White,
  David Stuck, Shaama M.S., Shane Yost, Joonho Lee, David Small,
  Daniel Levine, Susi Lehtola, Hugh Burton, Evgeny Epifanovsky,
  Bang C. Huynh
 -----------------------------------------------------------------------
 Hartree-Fock
 using 64 threads for integral computing
 -------------------------------------------------------
 OpenMP Integral computing Module                
 Release: version 1.0, May 2013, Q-Chem Inc. Pittsburgh 
 -------------------------------------------------------
 A restricted SCF calculation will be
 performed using DIIS
 SCF converges when DIIS error is below 1.0e-06
 ---------------------------------------
  Cycle       Energy         DIIS error
 ---------------------------------------
    1   -1394.5642658335      2.53e-02  
    2   -1389.0009230991      2.50e-03  
    3   -1389.1727386911      1.57e-03  
    4   -1389.2340546596      3.46e-04  
    5   -1389.2396993222      1.10e-04  
    6   -1389.2403500497      3.60e-05  
    7   -1389.2404867800      1.78e-05  
    8   -1389.2405313412      7.11e-06  
    9   -1389.2405411935      3.25e-06  
   10   -1389.2405428390      1.28e-06  
   11   -1389.2405431180      4.91e-07  Convergence criterion met
 ---------------------------------------
 SCF time:   CPU 1677.12s  wall 48.00s 

************** Final PCM Free Energy Summary **************
 G_electrostatic  =      -0.01329435 hartree =      -8.34233010 kcal/mol
 G_cavitation     =       0.00000000 hartree =       0.00000000 kcal/mol
 G_dispersion     =       0.00000000 hartree =       0.00000000 kcal/mol
 G_repulsion      =       0.00000000 hartree =       0.00000000 kcal/mol
 --------------------------------------------------
 Non-electrostatic Free Energy =       0.00000000 hartree =       0.00000000 kcal/mol
 Total                         =      -0.01329435 hartree =      -8.34233010 kcal/mol
 --------------------------------------------------
 SCF Energy (H0 + V/2)                       =   -1389.24054312 
 Solute Internal Energy (H0)                 =   -1389.22724877 
 Total Free Energy (H0 + V/2 + non-elec)     =   -1389.24054312 hartree
                                             = -871761.59830375 kcal/mol
***********************************************************

 SCF   energy in the final basis set =    -1389.2405431180
 Total energy in the final basis set =    -1389.2405431180


 --------------------------------------------------------------
  Generalized many-body perturbation theory program
  by Joonho Lee, Fazle Rob, Xintian Feng, Evgeny Epifanovsky

 No regularization used 
 (reg. param. = 0.0000e+00)
  (P|Q)^-1/2 Time:  CPU 19.43 s  wall 0.31 s

 In RI-MP2 calculation: 
 # of frozen core orbitals: 22

 Components of the RIMP2 correlation energy:
        aaaa    correlation energy =        -0.3298106273 a.u.
        abab    correlation energy =        -1.8486476283 a.u.
        bbbb    correlation energy =        -0.3298106273 a.u.
        non-Brillouin singles      =        -0.0000000000 a.u.
        total same-spin energy     =        -0.6596212547 a.u.
        total opposite-spin energy =        -1.8486476283 a.u.

 Total  RIMP2   correlation energy =        -2.5082688829 a.u.
        RIMP2         total energy =     -1391.7488120010 a.u.

 RI-MP2 Energy Time:  CPU 173.02 s  wall 3.45 s
 
 --------------------------------------------------------------
 
                    Orbital Energies (a.u.)
 --------------------------------------------------------------
 
 Alpha MOs
 -- Occupied --
-92.0055 -91.9895 -26.3343 -20.6098 -20.5461 -11.4068 -11.3760 -11.3112
-11.2919 -11.2893 -11.2874 -11.2800 -11.2693 -11.2302  -9.0044  -8.9937
 -6.6852  -6.6845  -6.6841  -6.6750  -6.6743  -6.6729  -1.6473  -1.4693
 -1.3642  -1.2269  -1.1464  -1.0668  -1.0271  -1.0057  -0.9678  -0.9111
 -0.8630  -0.7957  -0.7848  -0.7664  -0.7259  -0.7152  -0.6961  -0.6777
 -0.6766  -0.6678  -0.6083  -0.6035  -0.5944  -0.5870  -0.5814  -0.5598
 -0.5390  -0.5230  -0.5138  -0.4938  -0.4795  -0.4603  -0.4577  -0.4543
 -0.3882  -0.3459  -0.2735
 -- Virtual --
  0.0373   0.1199   0.1351   0.1558   0.1587   0.1706   0.1833   0.1973
  0.2069   0.2148   0.2151   0.2210   0.2321   0.2438   0.2625   0.2740
  0.2868   0.3029   0.3125   0.3430   0.3474   0.3559   0.3699   0.3779
  0.3818   0.3881   0.4015   0.4097   0.4190   0.4298   0.4391   0.4404
  0.4545   0.4702   0.4810   0.4901   0.4986   0.5042   0.5091   0.5283
  0.5368   0.5438   0.5468   0.5526   0.5583   0.5684   0.5730   0.5823
  0.5870   0.5967   0.6008   0.6105   0.6175   0.6197   0.6226   0.6359
  0.6446   0.6448   0.6517   0.6607   0.6671   0.6926   0.6963   0.7039
  0.7160   0.7324   0.7392   0.7489   0.7678   0.7751   0.7876   0.7955
  0.8034   0.8135   0.8224   0.8426   0.8649   0.8664   0.8798   0.8876
  0.8985   0.9159   0.9241   0.9284   0.9412   0.9494   0.9717   0.9812
  0.9895   0.9935   1.0081   1.0164   1.0258   1.0398   1.0436   1.0586
  1.0652   1.0762   1.0795   1.0871   1.0927   1.1040   1.1099   1.1215
  1.1405   1.1584   1.1601   1.1701   1.1743   1.1835   1.1928   1.2115
  1.2200   1.2327   1.2400   1.2441   1.2734   1.2844   1.3083   1.3137
  1.3182   1.3421   1.3475   1.3495   1.3558   1.3739   1.3815   1.4082
  1.4352   1.4410   1.4668   1.4674   1.4774   1.4835   1.4962   1.5075
  1.5130   1.5138   1.5266   1.5615   1.5671   1.5749   1.5879   1.5912
  1.6189   1.6382   1.6527   1.6654   1.6897   1.7061   1.7239   1.7290
  1.7496   1.7677   1.7764   1.8109   1.8351   1.8363   1.8403   1.8507
  1.8695   1.8824   1.8844   1.9258   1.9372   1.9393   1.9507   1.9772
  2.0092   2.0162   2.0311   2.0489   2.0565   2.0986   2.1109   2.1285
  2.1429   2.1551   2.1634   2.1770   2.1973   2.2045   2.2161   2.2280
  2.2439   2.2681   2.2751   2.2808   2.2859   2.2948   2.3263   2.3607
  2.3700   2.3793   2.3935   2.4166   2.4383   2.4623   2.4903   2.5161
  2.5308   2.5481   2.5691   2.5788   2.5850   2.5981   2.6264   2.6419
  2.6519   2.6648   2.6772   2.6874   2.6945   2.7000   2.7059   2.7165
  2.7414   2.7503   2.7715   2.7819   2.7982   2.8105   2.8198   2.8383
  2.8450   2.8682   2.8845   2.8870   2.8883   2.9234   2.9291   2.9603
  2.9703   2.9799   3.0122   3.0238   3.0441   3.0458   3.0515   3.0561
  3.0899   3.0934   3.0989   3.1187   3.1214   3.1417   3.1456   3.1613
  3.1639   3.1740   3.1926   3.2034   3.2148   3.2233   3.2425   3.2548
  3.2617   3.2685   3.2727   3.2865   3.2938   3.2972   3.3133   3.3176
  3.3437   3.3480   3.3576   3.3668   3.3750   3.3985   3.4118   3.4211
  3.4400   3.4453   3.4504   3.4544   3.4631   3.4794   3.4871   3.5093
  3.5108   3.5219   3.5321   3.5394   3.5623   3.5778   3.5808   3.5889
  3.5958   3.6056   3.6145   3.6362   3.6467   3.6493   3.6635   3.6715
  3.6807   3.6956   3.7116   3.7168   3.7225   3.7293   3.7347   3.7407
  3.7631   3.7690   3.7871   3.7982   3.8132   3.8272   3.8358   3.8415
  3.8526   3.8619   3.8755   3.8809   3.9014   3.9200   3.9375   3.9435
  3.9591   3.9638   3.9759   3.9930   4.0122   4.0180   4.0488   4.0584
  4.0686   4.0902   4.0995   4.1087   4.1371   4.1629   4.1751   4.1808
  4.1895   4.2329   4.2468   4.2693   4.2755   4.3001   4.3137   4.3410
  4.3491   4.3741   4.3782   4.3791   4.3948   4.4027   4.4254   4.4404
  4.4569   4.4770   4.5031   4.5134   4.5328   4.5565   4.5777   4.5913
  4.6314   4.6436   4.6489   4.6680   4.6762   4.6836   4.6941   4.7308
  4.7464   4.7763   4.7873   4.8081   4.8115   4.8924   4.9146   4.9535
  4.9849   4.9995   5.0127   5.0144   5.0637   5.0837   5.1210   5.1352
  5.1777   5.2007   5.2123   5.2349   5.2568   5.2604   5.2780   5.3515
  5.3564   5.3696   5.4020   5.4165   5.4413   5.4741   5.4849   5.5347
  5.5586   5.5794   5.6140   5.6207   5.6407   5.7019   5.7519   5.8030
  5.8075   5.8245   5.8487   5.8882   5.9311   5.9655   5.9727   6.0255
  6.0677   6.1281   6.1351   6.1867   6.2564   6.3106   6.3727   6.4133
  6.5014   6.5361   6.5591   6.6706   6.6797   6.7397   6.7430   6.8637
  6.8845   6.9936   7.1808   7.2128   7.3297   7.3726   7.3757   7.4294
  7.4648   7.4865   7.5181   7.5513   7.6116   7.7701   7.8341   7.9086
  8.0025   8.1222   8.4177   8.9280   9.0056   9.3631   9.4961   9.6924
 10.1336  11.2230  11.6070  11.9350  12.2943  12.6589  13.1661  13.4213
 13.7455  14.0624  14.7195
 --------------------------------------------------------------
 
          Ground-State Mulliken Net Atomic Charges

     Atom                 Charge (a.u.)
  ----------------------------------------
      1 C                     0.034915
      2 S                     0.093558
      3 C                    -0.264756
      4 C                    -0.105417
      5 C                    -0.006987
      6 C                     0.372066
      7 C                    -0.164383
      8 S                     0.030500
      9 C                     0.457421
     10 O                    -0.456897
     11 O                    -0.298818
     12 F                    -0.212031
     13 C                    -0.054773
     14 H                     0.116107
     15 H                     0.083675
     16 H                     0.083634
     17 C                    -0.376079
     18 H                     0.142588
     19 H                     0.171133
     20 H                     0.145347
     21 H                     0.209196
  ----------------------------------------
  Sum of atomic charges =     0.000000

 -----------------------------------------------------------------
                    Cartesian Multipole Moments
 -----------------------------------------------------------------
    Charge (ESU x 10^10)
                -0.0000
    Dipole Moment (Debye)
         X       0.3938      Y       0.4747      Z       3.4118
       Tot       3.4671
    Quadrupole Moments (Debye-Ang)
        XX     -94.4047     XY       5.5761     YY     -83.9085
        XZ      -5.3693     YZ     -10.6235     ZZ     -96.8683
    Octopole Moments (Debye-Ang^2)
       XXX    -111.6325    XXY     -71.0140    XYY     -30.7852
       YYY    -216.1806    XXZ      76.3921    XYZ      -4.6033
       YYZ      67.2104    XZZ       0.4336    YZZ       6.1084
       ZZZ     259.1180
    Hexadecapole Moments (Debye-Ang^3)
      XXXX    -403.5448   XXXY    -316.0960   XXYY    -322.2788
      XYYY    -265.1852   YYYY   -1530.3680   XXXZ     296.5383
      XXYZ     210.4246   XYYZ      60.4488   YYYZ     603.9896
      XXZZ    -674.1141   XYZZ       9.0972   YYZZ    -687.7402
      XZZZ     126.8619   YZZZ     305.9336   ZZZZ   -3802.6599
 -----------------------------------------------------------------
 Total job time:  53.46s(wall), 1903.25s(cpu) 
 Tue Sep 26 18:10:44 2023

        *************************************************************
        *                                                           *
        *  Thank you very much for using Q-Chem.  Have a nice day.  *
        *                                                           *
        *************************************************************


0 sent ACK to 0 
now end server 0 ... 
cleanup process ... done
remove work dirs ./qchem1178047.0 -- ./qchem1178047.0
rm -rf ./qchem1178047.0
rm -rf ./qchem1178047
