You are running Q-Chem version: 5.4.0

#
# job setting
#
local host:  exp-4-45
current dir: /expanse/lustre/projects/csd626/rramji/aromodel/PTB7_fin/Hydrogenated_Impropers_Test
input file:  fin_bdt_Phi_15_Theta_270_fin_ftt_Hydrogenated_Improper.qcin
output file: 
nprocs     : 1
nthreads   : 64
#
# qchem installation setting
#
QC:          /cm/shared/apps/spack/cpu/opt/spack/linux-centos8-zen2/gcc-10.2.0/qchem-5.4-akfmr7b3t57bfs6qan3padb2wnb2i7cl
QCAUX:       /cm/shared/apps/spack/cpu/opt/spack/linux-centos8-zen2/gcc-10.2.0/qchem-5.4-akfmr7b3t57bfs6qan3padb2wnb2i7cl/qcaux
QCPROG:      /cm/shared/apps/spack/cpu/opt/spack/linux-centos8-zen2/gcc-10.2.0/qchem-5.4-akfmr7b3t57bfs6qan3padb2wnb2i7cl/exe/qcprog.exe
QCPROG_S:    /cm/shared/apps/spack/cpu/opt/spack/linux-centos8-zen2/gcc-10.2.0/qchem-5.4-akfmr7b3t57bfs6qan3padb2wnb2i7cl/exe/qcprog.exe_s
PARALLEL:    -DPARALLEL
QCMPI:       mpich
#
# qchem directory setting
#
qcrun:       qchem2470643
QCSCRATCH:   .
QCLOCALSCR:  
QCTMPDIR:    .
QCFILEPREF:  ./qchem2470643
QCSAVEDIR:   
workdirs:    ./qchem2470643
workdir0:    ./qchem2470643
partmpdirs =  
#
# parallel setting
#
QCRSH:           ssh
QCMPI:           mpich
QCMPIRUN:        /cm/shared/apps/spack/cpu/opt/spack/linux-centos8-zen2/gcc-10.2.0/qchem-5.4-akfmr7b3t57bfs6qan3padb2wnb2i7cl/bin/mpi/mpirun_qchem
QCMACHINEFILE:   ./qchem2470643/hostfile
exp-4-45

#
# env setting
#
exported envs:   QC QCAUX QCSCRATCH QCRUNNAME QCFILEPREF QCPROG QCPROG_S GUIFILE

Running Job 1 of 1 fin_bdt_Phi_15_Theta_270_fin_ftt_Hydrogenated_Improper.qcin
qchem fin_bdt_Phi_15_Theta_270_fin_ftt_Hydrogenated_Improper.qcin_2470643.0 ./qchem2470643/ 1
/cm/shared/apps/spack/cpu/opt/spack/linux-centos8-zen2/gcc-10.2.0/qchem-5.4-akfmr7b3t57bfs6qan3padb2wnb2i7cl/bin/mpi/mpirun_qchem -machinefile ./qchem2470643/hostfile -np 1 /cm/shared/apps/spack/cpu/opt/spack/linux-centos8-zen2/gcc-10.2.0/qchem-5.4-akfmr7b3t57bfs6qan3padb2wnb2i7cl/exe/qcprog.exe fin_bdt_Phi_15_Theta_270_fin_ftt_Hydrogenated_Improper.qcin_2470643.0 ./qchem2470643/

Process 0 of 1 is on exp-4-45 - thread support 0
initial socket setup ...start
initial socket setup ...done 
now start server 0 ... 
                  Welcome to Q-Chem
     A Quantum Leap Into The Future Of Chemistry


 Q-Chem 5.4, Q-Chem, Inc., Pleasanton, CA (2021)

 License issued to: University of California, San Diego (site)

 E. Epifanovsky,  A. T. B. Gilbert,  Xintian Feng,  Joonho Lee,  Yuezhi Mao,  
 N. Mardirossian,  P. Pokhilko,  A. White,  M. Wormit,  M. P. Coons,  
 A. L. Dempwolff,  Zhengting Gan,  D. Hait,  P. R. Horn,  L. D. Jacobson,  
 I. Kaliman,  J. Kussmann,  A. W. Lange,  Ka Un Lao,  D. S. Levine,  Jie Liu,  
 S. C. McKenzie,  A. F. Morrison,  K. Nanda,  F. Plasser,  D. R. Rehn,  
 M. L. Vidal,  Zhi-Qiang You,  Ying Zhu,  B. Alam,  B. Albrecht,  
 A. Aldossary,  E. Alguire,  J. H. Andersen,  D. Barton,  K. Begam,  A. Behn,  
 Y. A. Bernard,  E. J. Berquist,  H. Burton,  A. Carreras,  K. Carter-Fenk,  
 R. Chakraborty,  A. D. Chien,  K. D. Closser,  V. Cofer-Shabica,  
 S. Dasgupta,  Jia Deng,  M. de Wergifosse,  M. Diedenhofen,  Hainam Do,  
 S. Ehlert,  Po-Tung Fang,  S. Fatehi,  Qingguo Feng,  J. Gayvert,  
 Qinghui Ge,  G. Gidofalvi,  M. Goldey,  J. Gomes,  C. Gonzalez-Espinoza,  
 S. Gulania,  A. Gunina,  M. W. D. Hanson-Heine,  P. H. P. Harbach,  
 A. W. Hauser,  M. F. Herbst,  M. Hernandez Vera,  M. Hodecker,  
 Z. C. Holden,  S. Houck,  Xunkun Huang,  Kerwin Hui,  B. C. Huynh,  
 M. Ivanov,  Hyunjun Ji,  Hanjie Jiang,  B. Kaduk,  S. Kaehler,  
 K. Khistyaev,  Jaehoon Kim,  P. Klunzinger,  Z. Koczor-Benda,  
 Joong Hoon Koh,  D. Kosenkov,  L. Koulias,  T. Kowalczyk,  C. M. Krauter,  
 K. Kue,  A. Kunitsa,  T. Kus,  A. Landau,  K. V. Lawler,  D. Lefrancois,  
 S. Lehtola,  Rain Li,  Yi-Pei Li,  Jiashu Liang,  M. Liebenthal,  
 Hung-Hsuan Lin,  You-Sheng Lin,  Fenglai Liu,  Kuan-Yu Liu,  
 M. Loipersberger,  A. Luenser,  A. Manjanath,  P. Manohar,  E. Mansoor,  
 S. F. Manzer,  Shan-Ping Mao,  A. V. Marenich,  T. Markovich,  S. Mason,  
 S. A. Maurer,  P. F. McLaughlin,  M. F. S. J. Menger,  J.-M. Mewes,  
 S. A. Mewes,  P. Morgante,  J. W. Mullinax,  T. S. Nguyen-Beck,  
 K. J. Oosterbaan,  G. Paran,  Alexander C. Paul,  Suranjan K. Paul,  
 F. Pavosevic,  Zheng Pei,  S. Prager,  E. I. Proynov,  E. Ramos,  B. Rana,  
 A. E. Rask,  A. Rettig,  R. M. Richard,  F. Rob,  E. Rossomme,  T. Scheele,  
 M. Scheurer,  M. Schneider,  N. Sergueev,  S. M. Sharada,  W. Skomorowski,  
 D. W. Small,  C. J. Stein,  Yu-Chuan Su,  E. J. Sundstrom,  Zhen Tao,  
 J. Thirman,  T. Tsuchimochi,  N. M. Tubman,  S. P. Veccham,  O. Vydrov,  
 J. Wenzel,  J. Witte,  A. Yamada,  Kun Yao,  S. Yeganeh,  S. R. Yost,  
 A. Zech,  Igor Ying Zhang,  Xing Zhang,  Yu Zhang,  D. Zuev,  
 A. Aspuru-Guzik,  A. T. Bell,  N. A. Besley,  K. B. Bravaya,  B. R. Brooks,  
 D. Casanova,  Jeng-Da Chai,  S. Coriani,  C. J. Cramer,  
 A. E. DePrince, III,  R. A. DiStasio Jr.,  A. Dreuw,  B. D. Dunietz,  
 T. R. Furlani,  W. A. Goddard III,  S. Grimme,  S. Hammes-Schiffer,  
 T. Head-Gordon,  W. J. Hehre,  Chao-Ping Hsu,  T.-C. Jagau,  Yousung Jung,  
 A. Klamt,  Jing Kong,  D. S. Lambrecht,  WanZhen Liang,  N. J. Mayhall,  
 C. W. McCurdy,  J. B. Neaton,  C. Ochsenfeld,  J. A. Parkhill,  R. Peverati,  
 V. A. Rassolov,  Yihan Shao,  L. V. Slipchenko,  T. Stauch,  R. P. Steele,  
 J. E. Subotnik,  A. J. W. Thom,  A. Tkatchenko,  D. G. Truhlar,  
 T. Van Voorhis,  T. A. Wesolowski,  K. B. Whaley,  H. L. Woodcock III,  
 P. M. Zimmerman,  S. Faraji,  P. M. W. Gill,  M. Head-Gordon,  
 J. M. Herbert,  A. I. Krylov

 Contributors to earlier versions of Q-Chem not listed above: 
 R. D. Adamson,  B. Austin,  R. Baer,  J. Baker,  G. J. O. Beran,  
 K. Brandhorst,  S. T. Brown,  E. F. C. Byrd,  A. K. Chakraborty,  
 G. K. L. Chan,  Chun-Min Chang,  Yunqing Chen,  C.-L. Cheng,  
 Siu Hung Chien,  D. M. Chipman,  D. L. Crittenden,  H. Dachsel,  
 R. J. Doerksen,  A. D. Dutoi,  R. G. Edgar,  J. Fosso-Tande,  
 L. Fusti-Molnar,  D. Ghosh,  A. Ghysels,  A. Golubeva-Zadorozhnaya,  
 J. Gonthier,  M. S. Gordon,  S. R. Gwaltney,  G. Hawkins,  J. E. Herr,  
 A. Heyden,  S. Hirata,  E. G. Hohenstein,  G. Kedziora,  F. J. Keil,  
 C. Kelley,  Jihan Kim,  R. A. King,  R. Z. Khaliullin,  P. P. Korambath,  
 W. Kurlancheek,  A. Laurent,  A. M. Lee,  M. S. Lee,  S. V. Levchenko,  
 Ching Yeh Lin,  D. Liotard,  E. Livshits,  R. C. Lochan,  I. Lotan,  
 L. A. Martinez-Martinez,  P. E. Maslen,  N. Nair,  D. P. O'Neill,  
 D. Neuhauser,  E. Neuscamman,  C. M. Oana,  R. Olivares-Amaya,  R. Olson,  
 T. M. Perrine,  B. Peters,  P. A. Pieniazek,  A. Prociuk,  Y. M. Rhee,  
 J. Ritchie,  M. A. Rohrdanz,  E. Rosta,  N. J. Russ,  H. F. Schaefer III,  
 M. W. Schmidt,  N. E. Schultz,  S. Sharma,  N. Shenvi,  C. D. Sherrill,  
 A. C. Simmonett,  A. Sodt,  T. Stein,  D. Stuck,  K. S. Thanthiriwatte,  
 V. Vanovschi,  L. Vogt,  Tao Wang,  A. Warshel,  M. A. Watson,  
 C. F. Williams,  Q. Wu,  X. Xu,  Jun Yang,  W. Zhang,  Yan Zhao

 Please cite Q-Chem as follows:
 Y. Shao et al., Mol. Phys. 113, 184-215 (2015)
 DOI: 10.1080/00268976.2014.952696

 Q-Chem 5.4.0 for Intel X86 EM64T Linux

 Parts of Q-Chem use Armadillo 9.800.1 (Horizon Scraper).
 http://arma.sourceforge.net/

 Q-Chem begins on Tue Sep 26 18:13:50 2023  

 Host: 
0

     Scratch files written to ./qchem2470643//
 May1621 |scratch|qcdevops|jenkins|workspace|build_RNUM    
 Parallel job on  1  processors
 Processing $rem in /cm/shared/apps/spack/cpu/opt/spack/linux-centos8-zen2/gcc-10.2.0/qchem-5.4-akfmr7b3t57bfs6qan3padb2wnb2i7cl/config/preferences:
 Processing $rem in /home/rramji/.qchemrc:
 Symmetry turned off for PCM/SM12/SMD calculation
 Core orbitals will be frozen

 Checking the input file for inconsistencies... 	...done.

 Q-Chem warning in module forms1/BasisType.C, line 2236:

 You are not using the predefined 5D/6D in this basis set.


--------------------------------------------------------------
User input:
--------------------------------------------------------------
$molecule
0 1
C	-0.230916	-0.806326	1.025267
S	0.003984	0.061874	2.535967
C	0.410684	1.583774	1.752867
C	0.004084	0.070974	-0.039433
C	0.362084	1.412774	0.346967
C	-0.011416	0.006374	-1.460833
C	0.315784	1.228174	-2.081633
S	0.635384	2.434074	-0.940433
C	0.386184	1.472774	-3.534733
O	0.147384	0.570274	-4.325033
O	0.721384	2.711374	-3.979133
F	-0.296016	-1.070726	-2.221033
C	0.824084	3.055274	-5.309733
H	1.110584	4.122374	-5.345033
H	-0.137316	2.909774	-5.850333
H	1.591384	2.445874	-5.836633
C	-0.230916	-2.241526	1.025267
H	-0.239416	-2.250526	-0.054633
H	0.604984	-2.925426	1.024867
H	-1.175016	-2.765926	1.033267
H	0.648884	2.472474	2.346767
$end

$rem
JOBTYPE		SP
EXCHANGE	HF
CORRELATION	pRIMP2
BASIS		cc-pvtz
METHOD		rimp2
AUX_BASIS	rimp2-cc-pvtz
SOLVENT_METHOD	PCM
PURECART	11111
SYMMETRY	false
MEM_TOTAL	110000
SCF_CONVERGENCE = 6
THRESH=10
GUI = 2
$end



$solvent
dielectric 4.90
$end
--------------------------------------------------------------
 ----------------------------------------------------------------
             Standard Nuclear Orientation (Angstroms)
    I     Atom           X                Y                Z
 ----------------------------------------------------------------
    1      C      -0.2309160000    -0.8063260000     1.0252670000
    2      S       0.0039840000     0.0618740000     2.5359670000
    3      C       0.4106840000     1.5837740000     1.7528670000
    4      C       0.0040840000     0.0709740000    -0.0394330000
    5      C       0.3620840000     1.4127740000     0.3469670000
    6      C      -0.0114160000     0.0063740000    -1.4608330000
    7      C       0.3157840000     1.2281740000    -2.0816330000
    8      S       0.6353840000     2.4340740000    -0.9404330000
    9      C       0.3861840000     1.4727740000    -3.5347330000
   10      O       0.1473840000     0.5702740000    -4.3250330000
   11      O       0.7213840000     2.7113740000    -3.9791330000
   12      F      -0.2960160000    -1.0707260000    -2.2210330000
   13      C       0.8240840000     3.0552740000    -5.3097330000
   14      H       1.1105840000     4.1223740000    -5.3450330000
   15      H      -0.1373160000     2.9097740000    -5.8503330000
   16      H       1.5913840000     2.4458740000    -5.8366330000
   17      C      -0.2309160000    -2.2415260000     1.0252670000
   18      H      -0.2394160000    -2.2505260000    -0.0546330000
   19      H       0.6049840000    -2.9254260000     1.0248670000
   20      H      -1.1750160000    -2.7659260000     1.0332670000
   21      H       0.6488840000     2.4724740000     2.3467670000
 ----------------------------------------------------------------
 Nuclear Repulsion Energy =        1090.44406786 hartrees
 There are       59 alpha and       59 beta electrons
 Requested basis set is cc-pVTZ
 There are 186 shells and 526 basis functions

 Total QAlloc Memory Limit 110000 MB
 Mega-Array Size       188 MB
 MEM_STATIC part       192 MB
 Discretize the solute cavity surface with Lebedev spheres
	Using 110 Lebedev grid points for each H atom
	Using 194 Lebedev grid points for other atoms
	Atomic van der Waals radii will be scaled by 1.20
 Remove points where switching function is < 1.0e-08
 Keep 1541 surface tesserae and discard 1945 interior tesserae
 Molecular Surface Area = 240.766 Angst**2
 Requested basis set is rimp2-cc-pVTZ
 There are 410 shells and 1426 basis functions
 A cutoff of  1.0D-10 yielded  11622 shell pairs
 There are     91148 function pairs (    119301 Cartesian)
 Smallest overlap matrix eigenvalue = 5.68E-05

 Scale SEOQF with 1.000000e-01/1.000000e-01/1.000000e-02

 Standard Electronic Orientation quadrupole field applied
 Nucleus-field energy     =     0.0000000178 hartrees
 Guess from superposition of atomic densities
 Warning:  Energy on first SCF cycle will be non-variational
 SAD guess density has 118.000000 electrons

 -----------------------------------------------------------------------
  General SCF calculation program by
  Eric Jon Sundstrom, Paul Horn, Yuezhi Mao, Dmitri Zuev, Alec White,
  David Stuck, Shaama M.S., Shane Yost, Joonho Lee, David Small,
  Daniel Levine, Susi Lehtola, Hugh Burton, Evgeny Epifanovsky,
  Bang C. Huynh
 -----------------------------------------------------------------------
 Hartree-Fock
 using 64 threads for integral computing
 -------------------------------------------------------
 OpenMP Integral computing Module                
 Release: version 1.0, May 2013, Q-Chem Inc. Pittsburgh 
 -------------------------------------------------------
 A restricted SCF calculation will be
 performed using DIIS
 SCF converges when DIIS error is below 1.0e-06
 ---------------------------------------
  Cycle       Energy         DIIS error
 ---------------------------------------
    1   -1394.5731390682      2.53e-02  
    2   -1389.0091271623      2.50e-03  
    3   -1389.1807525515      1.58e-03  
    4   -1389.2431900231      3.47e-04  
    5   -1389.2488373103      1.09e-04  
    6   -1389.2494880653      3.62e-05  
    7   -1389.2496286400      1.83e-05  
    8   -1389.2496773604      7.47e-06  
    9   -1389.2496889152      3.46e-06  
   10   -1389.2496908195      1.36e-06  
   11   -1389.2496911285      5.19e-07  Convergence criterion met
 ---------------------------------------
 SCF time:   CPU 1661.73s  wall 48.00s 

************** Final PCM Free Energy Summary **************
 G_electrostatic  =      -0.01223217 hartree =      -7.67580077 kcal/mol
 G_cavitation     =       0.00000000 hartree =       0.00000000 kcal/mol
 G_dispersion     =       0.00000000 hartree =       0.00000000 kcal/mol
 G_repulsion      =       0.00000000 hartree =       0.00000000 kcal/mol
 --------------------------------------------------
 Non-electrostatic Free Energy =       0.00000000 hartree =       0.00000000 kcal/mol
 Total                         =      -0.01223217 hartree =      -7.67580077 kcal/mol
 --------------------------------------------------
 SCF Energy (H0 + V/2)                       =   -1389.24969113 
 Solute Internal Energy (H0)                 =   -1389.23745896 
 Total Free Energy (H0 + V/2 + non-elec)     =   -1389.24969113 hartree
                                             = -871767.33876694 kcal/mol
***********************************************************

 SCF   energy in the final basis set =    -1389.2496911285
 Total energy in the final basis set =    -1389.2496911285


 --------------------------------------------------------------
  Generalized many-body perturbation theory program
  by Joonho Lee, Fazle Rob, Xintian Feng, Evgeny Epifanovsky

 No regularization used 
 (reg. param. = 0.0000e+00)
  (P|Q)^-1/2 Time:  CPU 19.87 s  wall 0.32 s

 In RI-MP2 calculation: 
 # of frozen core orbitals: 22

 Components of the RIMP2 correlation energy:
        aaaa    correlation energy =        -0.3299624471 a.u.
        abab    correlation energy =        -1.8489052840 a.u.
        bbbb    correlation energy =        -0.3299624471 a.u.
        non-Brillouin singles      =        -0.0000000000 a.u.
        total same-spin energy     =        -0.6599248941 a.u.
        total opposite-spin energy =        -1.8489052840 a.u.

 Total  RIMP2   correlation energy =        -2.5088301781 a.u.
        RIMP2         total energy =     -1391.7585213065 a.u.

 RI-MP2 Energy Time:  CPU 169.23 s  wall 3.34 s
 
 --------------------------------------------------------------
 
                    Orbital Energies (a.u.)
 --------------------------------------------------------------
 
 Alpha MOs
 -- Occupied --
-92.0036 -91.9915 -26.3357 -20.6113 -20.5488 -11.4091 -11.3766 -11.3055
-11.2942 -11.2917 -11.2882 -11.2859 -11.2748 -11.2263  -9.0026  -8.9956
 -6.6833  -6.6827  -6.6823  -6.6769  -6.6763  -6.6749  -1.6491  -1.4710
 -1.3662  -1.2285  -1.1454  -1.0679  -1.0272  -1.0059  -0.9689  -0.9113
 -0.8641  -0.7961  -0.7869  -0.7676  -0.7270  -0.7169  -0.6974  -0.6783
 -0.6779  -0.6698  -0.6078  -0.6051  -0.5984  -0.5889  -0.5794  -0.5684
 -0.5438  -0.5251  -0.5051  -0.4817  -0.4708  -0.4628  -0.4607  -0.4515
 -0.3976  -0.3450  -0.2836
 -- Virtual --
  0.0348   0.1190   0.1377   0.1558   0.1597   0.1709   0.1884   0.1938
  0.2071   0.2193   0.2211   0.2326   0.2362   0.2407   0.2627   0.2722
  0.2948   0.3052   0.3295   0.3327   0.3539   0.3589   0.3731   0.3769
  0.3800   0.3887   0.3926   0.4094   0.4170   0.4275   0.4379   0.4466
  0.4595   0.4650   0.4717   0.4838   0.4917   0.5079   0.5168   0.5274
  0.5378   0.5414   0.5528   0.5571   0.5593   0.5617   0.5714   0.5879
  0.5913   0.5992   0.6038   0.6123   0.6174   0.6241   0.6303   0.6332
  0.6418   0.6479   0.6499   0.6659   0.6753   0.6832   0.6919   0.7008
  0.7101   0.7202   0.7434   0.7614   0.7717   0.7779   0.7857   0.7957
  0.7997   0.8113   0.8229   0.8481   0.8694   0.8764   0.8844   0.8889
  0.8958   0.9054   0.9174   0.9327   0.9396   0.9442   0.9633   0.9779
  0.9914   0.9943   1.0051   1.0084   1.0174   1.0323   1.0382   1.0562
  1.0633   1.0791   1.0864   1.0931   1.0994   1.1047   1.1213   1.1402
  1.1547   1.1573   1.1608   1.1685   1.1753   1.1871   1.2011   1.2061
  1.2198   1.2255   1.2358   1.2469   1.2550   1.2794   1.2870   1.3091
  1.3262   1.3342   1.3452   1.3552   1.3652   1.3803   1.3836   1.3900
  1.4096   1.4310   1.4484   1.4644   1.4858   1.4948   1.5011   1.5094
  1.5131   1.5147   1.5409   1.5494   1.5636   1.5752   1.5880   1.5978
  1.6176   1.6378   1.6568   1.6649   1.6736   1.7067   1.7276   1.7411
  1.7492   1.7671   1.7791   1.8197   1.8271   1.8340   1.8477   1.8611
  1.8714   1.8797   1.8827   1.9225   1.9345   1.9442   1.9511   1.9586
  1.9852   2.0170   2.0332   2.0370   2.0566   2.0907   2.1045   2.1269
  2.1423   2.1551   2.1614   2.1697   2.1962   2.1989   2.2171   2.2428
  2.2469   2.2713   2.2794   2.2815   2.2921   2.2978   2.3298   2.3433
  2.3681   2.3824   2.4113   2.4323   2.4623   2.4819   2.4831   2.4987
  2.5299   2.5616   2.5687   2.5823   2.5909   2.6130   2.6270   2.6336
  2.6503   2.6546   2.6635   2.6733   2.6888   2.7015   2.7207   2.7256
  2.7376   2.7417   2.7613   2.7719   2.7911   2.8118   2.8229   2.8256
  2.8401   2.8661   2.8733   2.8857   2.9033   2.9282   2.9376   2.9470
  2.9688   2.9872   2.9901   3.0290   3.0404   3.0442   3.0524   3.0650
  3.0905   3.0956   3.1027   3.1139   3.1174   3.1235   3.1428   3.1579
  3.1823   3.1885   3.2001   3.2035   3.2141   3.2298   3.2496   3.2626
  3.2660   3.2741   3.2827   3.2862   3.3037   3.3065   3.3098   3.3198
  3.3333   3.3444   3.3562   3.3613   3.3680   3.3796   3.3959   3.4120
  3.4235   3.4377   3.4483   3.4570   3.4586   3.4844   3.4923   3.5027
  3.5102   3.5199   3.5363   3.5439   3.5660   3.5767   3.5812   3.5910
  3.5991   3.6037   3.6198   3.6290   3.6452   3.6550   3.6620   3.6642
  3.6861   3.7000   3.7098   3.7258   3.7277   3.7315   3.7398   3.7478
  3.7600   3.7676   3.7846   3.8063   3.8222   3.8272   3.8410   3.8528
  3.8573   3.8672   3.8834   3.8912   3.9023   3.9161   3.9238   3.9346
  3.9422   3.9808   3.9827   3.9912   3.9960   4.0146   4.0372   4.0503
  4.0621   4.0741   4.0858   4.0918   4.1106   4.1359   4.1714   4.1775
  4.1886   4.2103   4.2206   4.2385   4.2773   4.2884   4.3080   4.3177
  4.3484   4.3770   4.3797   4.3830   4.3899   4.3979   4.4258   4.4384
  4.4700   4.4824   4.5008   4.5193   4.5414   4.5492   4.5887   4.6058
  4.6309   4.6465   4.6561   4.6658   4.6735   4.6905   4.7191   4.7372
  4.7701   4.7744   4.7828   4.8092   4.8199   4.8985   4.9018   4.9196
  4.9681   5.0116   5.0221   5.0320   5.0720   5.0856   5.1185   5.1467
  5.1812   5.2152   5.2307   5.2509   5.2594   5.2732   5.2894   5.3557
  5.3582   5.3614   5.4034   5.4211   5.4674   5.4735   5.4845   5.5320
  5.5485   5.5900   5.6186   5.6386   5.6495   5.6953   5.7427   5.8015
  5.8244   5.8321   5.8611   5.8713   5.9388   5.9700   5.9707   5.9827
  6.0574   6.1281   6.1341   6.1863   6.2167   6.3093   6.3542   6.4208
  6.4454   6.5073   6.5573   6.6722   6.6777   6.7362   6.7444   6.8614
  6.8838   6.9919   7.1792   7.2110   7.3275   7.3709   7.3760   7.4296
  7.4633   7.4847   7.5183   7.5493   7.6142   7.7684   7.8322   7.9086
  8.0014   8.1168   8.4131   8.9266   9.0096   9.3617   9.5039   9.7032
 10.1339  11.2290  11.6548  11.9431  12.3112  12.6909  13.1552  13.5341
 13.8616  14.1156  14.6128
 --------------------------------------------------------------
 
          Ground-State Mulliken Net Atomic Charges

     Atom                 Charge (a.u.)
  ----------------------------------------
      1 C                     0.030403
      2 S                     0.084263
      3 C                    -0.246549
      4 C                    -0.098305
      5 C                    -0.011289
      6 C                     0.367311
      7 C                    -0.142767
      8 S                     0.033181
      9 C                     0.457374
     10 O                    -0.453005
     11 O                    -0.297983
     12 F                    -0.213457
     13 C                    -0.054906
     14 H                     0.116551
     15 H                     0.084203
     16 H                     0.084036
     17 C                    -0.356610
     18 H                     0.113614
     19 H                     0.155222
     20 H                     0.138181
     21 H                     0.210534
  ----------------------------------------
  Sum of atomic charges =     0.000000

 -----------------------------------------------------------------
                    Cartesian Multipole Moments
 -----------------------------------------------------------------
    Charge (ESU x 10^10)
                -0.0000
    Dipole Moment (Debye)
         X       0.7735      Y       1.2423      Z       2.7165
       Tot       3.0856
    Quadrupole Moments (Debye-Ang)
        XX     -95.2109     XY       2.5267     YY     -82.8862
        XZ      -2.6316     YZ     -10.1147     ZZ     -97.4487
    Octopole Moments (Debye-Ang^2)
       XXX     -69.9915    XXY     -80.4159    XYY     -14.6013
       YYY    -223.0715    XXZ      78.6099    XYZ      -5.2146
       YYZ      62.3412    XZZ       1.7346    YZZ      12.9547
       ZZZ     251.8351
    Hexadecapole Moments (Debye-Ang^3)
      XXXX    -226.3777   XXXY    -206.9871   XXYY    -331.8627
      XYYY    -174.1516   YYYY   -1686.2778   XXXZ     183.6804
      XXYZ     232.6838   XYYZ      38.7091   YYYZ     632.9827
      XXZZ    -674.9139   XYZZ       4.5866   YYZZ    -693.2102
      XZZZ      77.4278   YZZZ     326.4934   ZZZZ   -3782.4712
 -----------------------------------------------------------------
 Total job time:  53.26s(wall), 1898.16s(cpu) 
 Tue Sep 26 18:14:43 2023

        *************************************************************
        *                                                           *
        *  Thank you very much for using Q-Chem.  Have a nice day.  *
        *                                                           *
        *************************************************************


0 sent ACK to 0 
now end server 0 ... 
cleanup process ... done
remove work dirs ./qchem2470643.0 -- ./qchem2470643.0
rm -rf ./qchem2470643.0
rm -rf ./qchem2470643
