You are running Q-Chem version: 5.4.0

#
# job setting
#
local host:  exp-3-30
current dir: /expanse/lustre/projects/csd626/rramji/aromodel/PTB7_fin/Hydrogenated_Impropers_Test
input file:  fin_bdt_Phi_50_Theta_180_fin_ftt_Hydrogenated_Improper.qcin
output file: 
nprocs     : 1
nthreads   : 64
#
# qchem installation setting
#
QC:          /cm/shared/apps/spack/cpu/opt/spack/linux-centos8-zen2/gcc-10.2.0/qchem-5.4-akfmr7b3t57bfs6qan3padb2wnb2i7cl
QCAUX:       /cm/shared/apps/spack/cpu/opt/spack/linux-centos8-zen2/gcc-10.2.0/qchem-5.4-akfmr7b3t57bfs6qan3padb2wnb2i7cl/qcaux
QCPROG:      /cm/shared/apps/spack/cpu/opt/spack/linux-centos8-zen2/gcc-10.2.0/qchem-5.4-akfmr7b3t57bfs6qan3padb2wnb2i7cl/exe/qcprog.exe
QCPROG_S:    /cm/shared/apps/spack/cpu/opt/spack/linux-centos8-zen2/gcc-10.2.0/qchem-5.4-akfmr7b3t57bfs6qan3padb2wnb2i7cl/exe/qcprog.exe_s
PARALLEL:    -DPARALLEL
QCMPI:       mpich
#
# qchem directory setting
#
qcrun:       qchem1281937
QCSCRATCH:   .
QCLOCALSCR:  
QCTMPDIR:    .
QCFILEPREF:  ./qchem1281937
QCSAVEDIR:   
workdirs:    ./qchem1281937
workdir0:    ./qchem1281937
partmpdirs =  
#
# parallel setting
#
QCRSH:           ssh
QCMPI:           mpich
QCMPIRUN:        /cm/shared/apps/spack/cpu/opt/spack/linux-centos8-zen2/gcc-10.2.0/qchem-5.4-akfmr7b3t57bfs6qan3padb2wnb2i7cl/bin/mpi/mpirun_qchem
QCMACHINEFILE:   ./qchem1281937/hostfile
exp-3-30

#
# env setting
#
exported envs:   QC QCAUX QCSCRATCH QCRUNNAME QCFILEPREF QCPROG QCPROG_S GUIFILE

Running Job 1 of 1 fin_bdt_Phi_50_Theta_180_fin_ftt_Hydrogenated_Improper.qcin
qchem fin_bdt_Phi_50_Theta_180_fin_ftt_Hydrogenated_Improper.qcin_1281937.0 ./qchem1281937/ 1
/cm/shared/apps/spack/cpu/opt/spack/linux-centos8-zen2/gcc-10.2.0/qchem-5.4-akfmr7b3t57bfs6qan3padb2wnb2i7cl/bin/mpi/mpirun_qchem -machinefile ./qchem1281937/hostfile -np 1 /cm/shared/apps/spack/cpu/opt/spack/linux-centos8-zen2/gcc-10.2.0/qchem-5.4-akfmr7b3t57bfs6qan3padb2wnb2i7cl/exe/qcprog.exe fin_bdt_Phi_50_Theta_180_fin_ftt_Hydrogenated_Improper.qcin_1281937.0 ./qchem1281937/

Process 0 of 1 is on exp-3-30 - thread support 0
initial socket setup ...start
initial socket setup ...done 
now start server 0 ... 
                  Welcome to Q-Chem
     A Quantum Leap Into The Future Of Chemistry


 Q-Chem 5.4, Q-Chem, Inc., Pleasanton, CA (2021)

 License issued to: University of California, San Diego (site)

 E. Epifanovsky,  A. T. B. Gilbert,  Xintian Feng,  Joonho Lee,  Yuezhi Mao,  
 N. Mardirossian,  P. Pokhilko,  A. White,  M. Wormit,  M. P. Coons,  
 A. L. Dempwolff,  Zhengting Gan,  D. Hait,  P. R. Horn,  L. D. Jacobson,  
 I. Kaliman,  J. Kussmann,  A. W. Lange,  Ka Un Lao,  D. S. Levine,  Jie Liu,  
 S. C. McKenzie,  A. F. Morrison,  K. Nanda,  F. Plasser,  D. R. Rehn,  
 M. L. Vidal,  Zhi-Qiang You,  Ying Zhu,  B. Alam,  B. Albrecht,  
 A. Aldossary,  E. Alguire,  J. H. Andersen,  D. Barton,  K. Begam,  A. Behn,  
 Y. A. Bernard,  E. J. Berquist,  H. Burton,  A. Carreras,  K. Carter-Fenk,  
 R. Chakraborty,  A. D. Chien,  K. D. Closser,  V. Cofer-Shabica,  
 S. Dasgupta,  Jia Deng,  M. de Wergifosse,  M. Diedenhofen,  Hainam Do,  
 S. Ehlert,  Po-Tung Fang,  S. Fatehi,  Qingguo Feng,  J. Gayvert,  
 Qinghui Ge,  G. Gidofalvi,  M. Goldey,  J. Gomes,  C. Gonzalez-Espinoza,  
 S. Gulania,  A. Gunina,  M. W. D. Hanson-Heine,  P. H. P. Harbach,  
 A. W. Hauser,  M. F. Herbst,  M. Hernandez Vera,  M. Hodecker,  
 Z. C. Holden,  S. Houck,  Xunkun Huang,  Kerwin Hui,  B. C. Huynh,  
 M. Ivanov,  Hyunjun Ji,  Hanjie Jiang,  B. Kaduk,  S. Kaehler,  
 K. Khistyaev,  Jaehoon Kim,  P. Klunzinger,  Z. Koczor-Benda,  
 Joong Hoon Koh,  D. Kosenkov,  L. Koulias,  T. Kowalczyk,  C. M. Krauter,  
 K. Kue,  A. Kunitsa,  T. Kus,  A. Landau,  K. V. Lawler,  D. Lefrancois,  
 S. Lehtola,  Rain Li,  Yi-Pei Li,  Jiashu Liang,  M. Liebenthal,  
 Hung-Hsuan Lin,  You-Sheng Lin,  Fenglai Liu,  Kuan-Yu Liu,  
 M. Loipersberger,  A. Luenser,  A. Manjanath,  P. Manohar,  E. Mansoor,  
 S. F. Manzer,  Shan-Ping Mao,  A. V. Marenich,  T. Markovich,  S. Mason,  
 S. A. Maurer,  P. F. McLaughlin,  M. F. S. J. Menger,  J.-M. Mewes,  
 S. A. Mewes,  P. Morgante,  J. W. Mullinax,  T. S. Nguyen-Beck,  
 K. J. Oosterbaan,  G. Paran,  Alexander C. Paul,  Suranjan K. Paul,  
 F. Pavosevic,  Zheng Pei,  S. Prager,  E. I. Proynov,  E. Ramos,  B. Rana,  
 A. E. Rask,  A. Rettig,  R. M. Richard,  F. Rob,  E. Rossomme,  T. Scheele,  
 M. Scheurer,  M. Schneider,  N. Sergueev,  S. M. Sharada,  W. Skomorowski,  
 D. W. Small,  C. J. Stein,  Yu-Chuan Su,  E. J. Sundstrom,  Zhen Tao,  
 J. Thirman,  T. Tsuchimochi,  N. M. Tubman,  S. P. Veccham,  O. Vydrov,  
 J. Wenzel,  J. Witte,  A. Yamada,  Kun Yao,  S. Yeganeh,  S. R. Yost,  
 A. Zech,  Igor Ying Zhang,  Xing Zhang,  Yu Zhang,  D. Zuev,  
 A. Aspuru-Guzik,  A. T. Bell,  N. A. Besley,  K. B. Bravaya,  B. R. Brooks,  
 D. Casanova,  Jeng-Da Chai,  S. Coriani,  C. J. Cramer,  
 A. E. DePrince, III,  R. A. DiStasio Jr.,  A. Dreuw,  B. D. Dunietz,  
 T. R. Furlani,  W. A. Goddard III,  S. Grimme,  S. Hammes-Schiffer,  
 T. Head-Gordon,  W. J. Hehre,  Chao-Ping Hsu,  T.-C. Jagau,  Yousung Jung,  
 A. Klamt,  Jing Kong,  D. S. Lambrecht,  WanZhen Liang,  N. J. Mayhall,  
 C. W. McCurdy,  J. B. Neaton,  C. Ochsenfeld,  J. A. Parkhill,  R. Peverati,  
 V. A. Rassolov,  Yihan Shao,  L. V. Slipchenko,  T. Stauch,  R. P. Steele,  
 J. E. Subotnik,  A. J. W. Thom,  A. Tkatchenko,  D. G. Truhlar,  
 T. Van Voorhis,  T. A. Wesolowski,  K. B. Whaley,  H. L. Woodcock III,  
 P. M. Zimmerman,  S. Faraji,  P. M. W. Gill,  M. Head-Gordon,  
 J. M. Herbert,  A. I. Krylov

 Contributors to earlier versions of Q-Chem not listed above: 
 R. D. Adamson,  B. Austin,  R. Baer,  J. Baker,  G. J. O. Beran,  
 K. Brandhorst,  S. T. Brown,  E. F. C. Byrd,  A. K. Chakraborty,  
 G. K. L. Chan,  Chun-Min Chang,  Yunqing Chen,  C.-L. Cheng,  
 Siu Hung Chien,  D. M. Chipman,  D. L. Crittenden,  H. Dachsel,  
 R. J. Doerksen,  A. D. Dutoi,  R. G. Edgar,  J. Fosso-Tande,  
 L. Fusti-Molnar,  D. Ghosh,  A. Ghysels,  A. Golubeva-Zadorozhnaya,  
 J. Gonthier,  M. S. Gordon,  S. R. Gwaltney,  G. Hawkins,  J. E. Herr,  
 A. Heyden,  S. Hirata,  E. G. Hohenstein,  G. Kedziora,  F. J. Keil,  
 C. Kelley,  Jihan Kim,  R. A. King,  R. Z. Khaliullin,  P. P. Korambath,  
 W. Kurlancheek,  A. Laurent,  A. M. Lee,  M. S. Lee,  S. V. Levchenko,  
 Ching Yeh Lin,  D. Liotard,  E. Livshits,  R. C. Lochan,  I. Lotan,  
 L. A. Martinez-Martinez,  P. E. Maslen,  N. Nair,  D. P. O'Neill,  
 D. Neuhauser,  E. Neuscamman,  C. M. Oana,  R. Olivares-Amaya,  R. Olson,  
 T. M. Perrine,  B. Peters,  P. A. Pieniazek,  A. Prociuk,  Y. M. Rhee,  
 J. Ritchie,  M. A. Rohrdanz,  E. Rosta,  N. J. Russ,  H. F. Schaefer III,  
 M. W. Schmidt,  N. E. Schultz,  S. Sharma,  N. Shenvi,  C. D. Sherrill,  
 A. C. Simmonett,  A. Sodt,  T. Stein,  D. Stuck,  K. S. Thanthiriwatte,  
 V. Vanovschi,  L. Vogt,  Tao Wang,  A. Warshel,  M. A. Watson,  
 C. F. Williams,  Q. Wu,  X. Xu,  Jun Yang,  W. Zhang,  Yan Zhao

 Please cite Q-Chem as follows:
 Y. Shao et al., Mol. Phys. 113, 184-215 (2015)
 DOI: 10.1080/00268976.2014.952696

 Q-Chem 5.4.0 for Intel X86 EM64T Linux

 Parts of Q-Chem use Armadillo 9.800.1 (Horizon Scraper).
 http://arma.sourceforge.net/

 Q-Chem begins on Sun Sep 24 17:08:29 2023  

 Host: 
0

     Scratch files written to ./qchem1281937//
 May1621 |scratch|qcdevops|jenkins|workspace|build_RNUM    
 Parallel job on  1  processors
 Processing $rem in /cm/shared/apps/spack/cpu/opt/spack/linux-centos8-zen2/gcc-10.2.0/qchem-5.4-akfmr7b3t57bfs6qan3padb2wnb2i7cl/config/preferences:
 Processing $rem in /home/rramji/.qchemrc:
 Symmetry turned off for PCM/SM12/SMD calculation
 Core orbitals will be frozen

 Checking the input file for inconsistencies... 	...done.

 Q-Chem warning in module forms1/BasisType.C, line 2236:

 You are not using the predefined 5D/6D in this basis set.


--------------------------------------------------------------
User input:
--------------------------------------------------------------
$molecule
0 1
C	-0.677915	-0.518946	1.022665
S	0.012485	0.057454	2.533365
C	1.218585	1.070954	1.750265
C	0.017785	0.064854	-0.042035
C	1.080685	0.958754	0.344365
C	-0.032015	0.020954	-1.463435
C	0.936885	0.834054	-2.084235
S	1.890385	1.638454	-0.943035
C	1.134785	0.994054	-3.537335
O	0.421585	0.391754	-4.327635
O	2.119885	1.816354	-3.981735
F	-0.882915	-0.698246	-2.223635
C	2.401185	2.039154	-5.312335
H	3.247985	2.748954	-5.347635
H	1.530185	2.471454	-5.852935
H	2.680185	1.099854	-5.839235
C	-0.677915	-1.954146	1.022665
H	-1.757815	-1.963146	1.031165
H	-0.678315	-2.638046	0.186765
H	-0.669915	-2.478546	1.966765
H	1.923385	1.662254	2.344165
$end

$rem
JOBTYPE		SP
EXCHANGE	HF
CORRELATION	pRIMP2
BASIS		cc-pvtz
METHOD		rimp2
AUX_BASIS	rimp2-cc-pvtz
SOLVENT_METHOD	PCM
PURECART	11111
SYMMETRY	false
MEM_TOTAL	110000
SCF_CONVERGENCE = 6
THRESH=10
GUI = 2
$end



$solvent
dielectric 4.90
$end
--------------------------------------------------------------
 ----------------------------------------------------------------
             Standard Nuclear Orientation (Angstroms)
    I     Atom           X                Y                Z
 ----------------------------------------------------------------
    1      C      -0.6779150000    -0.5189460000     1.0226650000
    2      S       0.0124850000     0.0574540000     2.5333650000
    3      C       1.2185850000     1.0709540000     1.7502650000
    4      C       0.0177850000     0.0648540000    -0.0420350000
    5      C       1.0806850000     0.9587540000     0.3443650000
    6      C      -0.0320150000     0.0209540000    -1.4634350000
    7      C       0.9368850000     0.8340540000    -2.0842350000
    8      S       1.8903850000     1.6384540000    -0.9430350000
    9      C       1.1347850000     0.9940540000    -3.5373350000
   10      O       0.4215850000     0.3917540000    -4.3276350000
   11      O       2.1198850000     1.8163540000    -3.9817350000
   12      F      -0.8829150000    -0.6982460000    -2.2236350000
   13      C       2.4011850000     2.0391540000    -5.3123350000
   14      H       3.2479850000     2.7489540000    -5.3476350000
   15      H       1.5301850000     2.4714540000    -5.8529350000
   16      H       2.6801850000     1.0998540000    -5.8392350000
   17      C      -0.6779150000    -1.9541460000     1.0226650000
   18      H      -1.7578150000    -1.9631460000     1.0311650000
   19      H      -0.6783150000    -2.6380460000     0.1867650000
   20      H      -0.6699150000    -2.4785460000     1.9667650000
   21      H       1.9233850000     1.6622540000     2.3441650000
 ----------------------------------------------------------------
 Nuclear Repulsion Energy =        1094.19367767 hartrees
 There are       59 alpha and       59 beta electrons
 Requested basis set is cc-pVTZ
 There are 186 shells and 526 basis functions

 Total QAlloc Memory Limit 110000 MB
 Mega-Array Size       188 MB
 MEM_STATIC part       192 MB
 Discretize the solute cavity surface with Lebedev spheres
	Using 110 Lebedev grid points for each H atom
	Using 194 Lebedev grid points for other atoms
	Atomic van der Waals radii will be scaled by 1.20
 Remove points where switching function is < 1.0e-08
 Keep 1536 surface tesserae and discard 1950 interior tesserae
 Molecular Surface Area = 240.428 Angst**2
 Requested basis set is rimp2-cc-pVTZ
 There are 410 shells and 1426 basis functions
 A cutoff of  1.0D-10 yielded  11648 shell pairs
 There are     91564 function pairs (    119875 Cartesian)
 Smallest overlap matrix eigenvalue = 6.05E-05

 Scale SEOQF with 1.000000e-01/1.000000e-01/1.000000e-02

 Standard Electronic Orientation quadrupole field applied
 Nucleus-field energy     =     0.0000000108 hartrees
 Guess from superposition of atomic densities
 Warning:  Energy on first SCF cycle will be non-variational
 SAD guess density has 118.000000 electrons

 -----------------------------------------------------------------------
  General SCF calculation program by
  Eric Jon Sundstrom, Paul Horn, Yuezhi Mao, Dmitri Zuev, Alec White,
  David Stuck, Shaama M.S., Shane Yost, Joonho Lee, David Small,
  Daniel Levine, Susi Lehtola, Hugh Burton, Evgeny Epifanovsky,
  Bang C. Huynh
 -----------------------------------------------------------------------
 Hartree-Fock
 using 64 threads for integral computing
 -------------------------------------------------------
 OpenMP Integral computing Module                
 Release: version 1.0, May 2013, Q-Chem Inc. Pittsburgh 
 -------------------------------------------------------
 A restricted SCF calculation will be
 performed using DIIS
 SCF converges when DIIS error is below 1.0e-06
 ---------------------------------------
  Cycle       Energy         DIIS error
 ---------------------------------------
    1   -1394.6158382929      2.53e-02  
    2   -1388.9513428155      2.51e-03  
    3   -1389.1233912919      1.60e-03  
    4   -1389.1873672615      3.50e-04  
    5   -1389.1931658031      1.12e-04  
    6   -1389.1938654883      3.74e-05  
    7   -1389.1940150368      1.86e-05  
    8   -1389.1940684731      8.09e-06  
    9   -1389.1940824267      4.06e-06  
   10   -1389.1940854708      1.77e-06  
   11   -1389.1940861106      7.36e-07  Convergence criterion met
 ---------------------------------------
 SCF time:   CPU 1855.94s  wall 81.00s 

************** Final PCM Free Energy Summary **************
 G_electrostatic  =      -0.01261604 hartree =      -7.91668474 kcal/mol
 G_cavitation     =       0.00000000 hartree =       0.00000000 kcal/mol
 G_dispersion     =       0.00000000 hartree =       0.00000000 kcal/mol
 G_repulsion      =       0.00000000 hartree =       0.00000000 kcal/mol
 --------------------------------------------------
 Non-electrostatic Free Energy =       0.00000000 hartree =       0.00000000 kcal/mol
 Total                         =      -0.01261604 hartree =      -7.91668474 kcal/mol
 --------------------------------------------------
 SCF Energy (H0 + V/2)                       =   -1389.19408611 
 Solute Internal Energy (H0)                 =   -1389.18147007 
 Total Free Energy (H0 + V/2 + non-elec)     =   -1389.19408611 hartree
                                             = -871732.44609159 kcal/mol
***********************************************************

 SCF   energy in the final basis set =    -1389.1940861106
 Total energy in the final basis set =    -1389.1940861106


 --------------------------------------------------------------
  Generalized many-body perturbation theory program
  by Joonho Lee, Fazle Rob, Xintian Feng, Evgeny Epifanovsky

 No regularization used 
 (reg. param. = 0.0000e+00)
  (P|Q)^-1/2 Time:  CPU 36.10 s  wall 0.58 s

 In RI-MP2 calculation: 
 # of frozen core orbitals: 22

 Components of the RIMP2 correlation energy:
        aaaa    correlation energy =        -0.3320949933 a.u.
        abab    correlation energy =        -1.8571891358 a.u.
        bbbb    correlation energy =        -0.3320949933 a.u.
        non-Brillouin singles      =        -0.0000000000 a.u.
        total same-spin energy     =        -0.6641899866 a.u.
        total opposite-spin energy =        -1.8571891358 a.u.

 Total  RIMP2   correlation energy =        -2.5213791224 a.u.
        RIMP2         total energy =     -1391.7154652330 a.u.

 RI-MP2 Energy Time:  CPU 209.67 s  wall 4.30 s
 
 --------------------------------------------------------------
 
                    Orbital Energies (a.u.)
 --------------------------------------------------------------
 
 Alpha MOs
 -- Occupied --
-92.0036 -91.9946 -26.3333 -20.6120 -20.5503 -11.4102 -11.3739 -11.2982
-11.2977 -11.2926 -11.2885 -11.2846 -11.2759 -11.2180  -9.0030  -8.9985
 -6.6838  -6.6829  -6.6827  -6.6797  -6.6791  -6.6778  -1.6464  -1.4718
 -1.3672  -1.2305  -1.1497  -1.0664  -1.0291  -1.0023  -0.9696  -0.9074
 -0.8656  -0.7965  -0.7860  -0.7699  -0.7274  -0.7149  -0.6952  -0.6785
 -0.6749  -0.6703  -0.6073  -0.6062  -0.5950  -0.5911  -0.5748  -0.5590
 -0.5328  -0.5197  -0.5174  -0.4952  -0.4816  -0.4616  -0.4606  -0.4435
 -0.3793  -0.3444  -0.2748
 -- Virtual --
  0.0177   0.1135   0.1375   0.1551   0.1581   0.1725   0.1856   0.1951
  0.2000   0.2103   0.2165   0.2197   0.2291   0.2392   0.2578   0.2684
  0.2853   0.3001   0.3090   0.3353   0.3479   0.3583   0.3695   0.3755
  0.3805   0.3889   0.4032   0.4048   0.4209   0.4255   0.4324   0.4376
  0.4527   0.4667   0.4798   0.4833   0.4942   0.5033   0.5097   0.5281
  0.5315   0.5461   0.5500   0.5531   0.5610   0.5678   0.5725   0.5844
  0.5951   0.5964   0.5996   0.6159   0.6181   0.6205   0.6217   0.6291
  0.6378   0.6450   0.6479   0.6591   0.6796   0.6846   0.6912   0.7040
  0.7138   0.7195   0.7304   0.7475   0.7605   0.7793   0.7851   0.7991
  0.8025   0.8069   0.8379   0.8447   0.8527   0.8751   0.8792   0.8856
  0.8965   0.9091   0.9183   0.9249   0.9360   0.9394   0.9672   0.9774
  0.9857   0.9957   1.0096   1.0240   1.0295   1.0340   1.0469   1.0538
  1.0671   1.0722   1.0814   1.0873   1.1027   1.1201   1.1236   1.1320
  1.1529   1.1561   1.1579   1.1627   1.1797   1.1895   1.2019   1.2081
  1.2213   1.2320   1.2414   1.2551   1.2827   1.2992   1.3054   1.3138
  1.3252   1.3370   1.3417   1.3575   1.3605   1.3808   1.3846   1.3892
  1.4264   1.4312   1.4599   1.4659   1.4761   1.4804   1.4979   1.5006
  1.5122   1.5142   1.5429   1.5464   1.5596   1.5687   1.5854   1.6096
  1.6190   1.6352   1.6484   1.6612   1.6685   1.7049   1.7125   1.7236
  1.7593   1.7624   1.7952   1.8133   1.8178   1.8340   1.8390   1.8533
  1.8689   1.8760   1.8905   1.9224   1.9273   1.9382   1.9423   1.9840
  1.9938   2.0148   2.0252   2.0315   2.0556   2.0982   2.1027   2.1215
  2.1412   2.1480   2.1571   2.1630   2.1946   2.2001   2.2079   2.2237
  2.2429   2.2543   2.2710   2.2790   2.2842   2.2926   2.3205   2.3408
  2.3625   2.3730   2.3907   2.4069   2.4379   2.4613   2.4863   2.4996
  2.5279   2.5331   2.5574   2.5834   2.5926   2.5976   2.6310   2.6358
  2.6469   2.6679   2.6691   2.6932   2.6960   2.6984   2.7021   2.7307
  2.7386   2.7457   2.7533   2.7778   2.7901   2.7926   2.8147   2.8319
  2.8422   2.8576   2.8852   2.8870   2.8988   2.9367   2.9434   2.9715
  2.9809   3.0147   3.0218   3.0252   3.0375   3.0448   3.0528   3.0806
  3.0854   3.0912   3.0975   3.1140   3.1225   3.1438   3.1518   3.1593
  3.1712   3.1894   3.1992   3.2066   3.2175   3.2241   3.2309   3.2442
  3.2492   3.2646   3.2709   3.2864   3.2910   3.2937   3.3216   3.3362
  3.3397   3.3500   3.3609   3.3646   3.3746   3.3834   3.4034   3.4208
  3.4335   3.4375   3.4414   3.4607   3.4722   3.4798   3.4827   3.4969
  3.5067   3.5187   3.5372   3.5541   3.5602   3.5665   3.5827   3.5935
  3.5984   3.6052   3.6085   3.6400   3.6498   3.6636   3.6660   3.6823
  3.6895   3.6955   3.7106   3.7126   3.7222   3.7303   3.7348   3.7453
  3.7736   3.7838   3.7964   3.8055   3.8280   3.8339   3.8354   3.8421
  3.8656   3.8806   3.8832   3.9071   3.9146   3.9348   3.9580   3.9692
  3.9733   3.9795   3.9892   3.9979   4.0269   4.0445   4.0558   4.0568
  4.0707   4.0834   4.0878   4.1119   4.1519   4.1668   4.1782   4.1830
  4.1957   4.2105   4.2480   4.2505   4.3012   4.3097   4.3153   4.3478
  4.3613   4.3694   4.3786   4.3841   4.3961   4.4120   4.4311   4.4543
  4.4647   4.4967   4.4986   4.5176   4.5426   4.5581   4.5715   4.5873
  4.6292   4.6358   4.6421   4.6580   4.6757   4.6916   4.7148   4.7453
  4.7559   4.7717   4.8032   4.8142   4.8431   4.8892   4.9158   4.9263
  4.9775   5.0045   5.0121   5.0157   5.0762   5.1057   5.1145   5.1295
  5.1792   5.1910   5.2144   5.2226   5.2538   5.2591   5.3084   5.3511
  5.3552   5.3603   5.3916   5.4335   5.4723   5.4732   5.4829   5.5306
  5.5454   5.5791   5.6173   5.6214   5.6379   5.6876   5.7510   5.8009
  5.8165   5.8353   5.8456   5.8677   5.9352   5.9665   5.9705   6.0027
  6.0328   6.1193   6.1337   6.1424   6.1852   6.3087   6.3478   6.4135
  6.4558   6.5050   6.5564   6.6531   6.6767   6.7327   6.7387   6.8602
  6.8811   6.9901   7.1786   7.2106   7.3264   7.3738   7.3760   7.4261
  7.4627   7.4874   7.5176   7.5484   7.6052   7.7713   7.8313   7.9027
  8.0031   8.1178   8.3993   8.9293   9.0071   9.3642   9.4936   9.6847
 10.2179  11.2122  11.8502  11.9276  12.2831  12.5840  13.0232  13.4095
 13.7703  14.0724  14.4087
 --------------------------------------------------------------
 
          Ground-State Mulliken Net Atomic Charges

     Atom                 Charge (a.u.)
  ----------------------------------------
      1 C                    -0.065269
      2 S                     0.099565
      3 C                    -0.211995
      4 C                    -0.045720
      5 C                    -0.018788
      6 C                     0.360109
      7 C                    -0.148798
      8 S                     0.044732
      9 C                     0.456382
     10 O                    -0.449619
     11 O                    -0.297778
     12 F                    -0.211517
     13 C                    -0.054630
     14 H                     0.116603
     15 H                     0.084433
     16 H                     0.084295
     17 C                    -0.391547
     18 H                     0.135485
     19 H                     0.160797
     20 H                     0.140592
     21 H                     0.212667
  ----------------------------------------
  Sum of atomic charges =     0.000000

 -----------------------------------------------------------------
                    Cartesian Multipole Moments
 -----------------------------------------------------------------
    Charge (ESU x 10^10)
                -0.0000
    Dipole Moment (Debye)
         X       2.3508      Y       0.8880      Z       3.2597
       Tot       4.1159
    Quadrupole Moments (Debye-Ang)
        XX     -90.4381     XY       6.7694     YY     -89.0080
        XZ      -8.1902     YZ      -7.7004     ZZ     -94.5113
    Octopole Moments (Debye-Ang^2)
       XXX    -187.1579    XXY     -38.1145    XYY     -60.7456
       YYY    -151.2159    XXZ      68.2600    XYZ      -7.2992
       YYZ      74.2038    XZZ       4.7983    YZZ       7.0062
       ZZZ     253.7687
    Hexadecapole Moments (Debye-Ang^3)
      XXXX   -1003.8600   XXXY    -380.5795   XXYY    -300.2820
      XYYY    -385.5850   YYYY    -935.3764   XXXZ     505.0155
      XXYZ     129.3685   XYYZ     148.7994   YYYZ     468.2279
      XXZZ    -659.8269   XYZZ       9.5479   YYZZ    -687.9083
      XZZZ     222.7162   YZZZ     220.8378   ZZZZ   -3770.1272
 -----------------------------------------------------------------
 Total job time:  87.50s(wall), 2147.50s(cpu) 
 Sun Sep 24 17:09:56 2023

        *************************************************************
        *                                                           *
        *  Thank you very much for using Q-Chem.  Have a nice day.  *
        *                                                           *
        *************************************************************


0 sent ACK to 0 
now end server 0 ... 
cleanup process ... done
remove work dirs ./qchem1281937.0 -- ./qchem1281937.0
rm -rf ./qchem1281937.0
rm -rf ./qchem1281937
