You are running Q-Chem version: 5.4.0

#
# job setting
#
local host:  exp-8-29
current dir: /expanse/lustre/projects/csd626/rramji/aromodel/PTB7_fin/Hydrogenated_Impropers_Test
input file:  fin_bdt_Phi_25_Theta_250_fin_ftt_Hydrogenated_Improper.qcin
output file: 
nprocs     : 1
nthreads   : 64
#
# qchem installation setting
#
QC:          /cm/shared/apps/spack/cpu/opt/spack/linux-centos8-zen2/gcc-10.2.0/qchem-5.4-akfmr7b3t57bfs6qan3padb2wnb2i7cl
QCAUX:       /cm/shared/apps/spack/cpu/opt/spack/linux-centos8-zen2/gcc-10.2.0/qchem-5.4-akfmr7b3t57bfs6qan3padb2wnb2i7cl/qcaux
QCPROG:      /cm/shared/apps/spack/cpu/opt/spack/linux-centos8-zen2/gcc-10.2.0/qchem-5.4-akfmr7b3t57bfs6qan3padb2wnb2i7cl/exe/qcprog.exe
QCPROG_S:    /cm/shared/apps/spack/cpu/opt/spack/linux-centos8-zen2/gcc-10.2.0/qchem-5.4-akfmr7b3t57bfs6qan3padb2wnb2i7cl/exe/qcprog.exe_s
PARALLEL:    -DPARALLEL
QCMPI:       mpich
#
# qchem directory setting
#
qcrun:       qchem1190332
QCSCRATCH:   .
QCLOCALSCR:  
QCTMPDIR:    .
QCFILEPREF:  ./qchem1190332
QCSAVEDIR:   
workdirs:    ./qchem1190332
workdir0:    ./qchem1190332
partmpdirs =  
#
# parallel setting
#
QCRSH:           ssh
QCMPI:           mpich
QCMPIRUN:        /cm/shared/apps/spack/cpu/opt/spack/linux-centos8-zen2/gcc-10.2.0/qchem-5.4-akfmr7b3t57bfs6qan3padb2wnb2i7cl/bin/mpi/mpirun_qchem
QCMACHINEFILE:   ./qchem1190332/hostfile
exp-8-29

#
# env setting
#
exported envs:   QC QCAUX QCSCRATCH QCRUNNAME QCFILEPREF QCPROG QCPROG_S GUIFILE

Running Job 1 of 1 fin_bdt_Phi_25_Theta_250_fin_ftt_Hydrogenated_Improper.qcin
qchem fin_bdt_Phi_25_Theta_250_fin_ftt_Hydrogenated_Improper.qcin_1190332.0 ./qchem1190332/ 1
/cm/shared/apps/spack/cpu/opt/spack/linux-centos8-zen2/gcc-10.2.0/qchem-5.4-akfmr7b3t57bfs6qan3padb2wnb2i7cl/bin/mpi/mpirun_qchem -machinefile ./qchem1190332/hostfile -np 1 /cm/shared/apps/spack/cpu/opt/spack/linux-centos8-zen2/gcc-10.2.0/qchem-5.4-akfmr7b3t57bfs6qan3padb2wnb2i7cl/exe/qcprog.exe fin_bdt_Phi_25_Theta_250_fin_ftt_Hydrogenated_Improper.qcin_1190332.0 ./qchem1190332/

Process 0 of 1 is on exp-8-29 - thread support 0
initial socket setup ...start
initial socket setup ...done 
now start server 0 ... 
                  Welcome to Q-Chem
     A Quantum Leap Into The Future Of Chemistry


 Q-Chem 5.4, Q-Chem, Inc., Pleasanton, CA (2021)

 License issued to: University of California, San Diego (site)

 E. Epifanovsky,  A. T. B. Gilbert,  Xintian Feng,  Joonho Lee,  Yuezhi Mao,  
 N. Mardirossian,  P. Pokhilko,  A. White,  M. Wormit,  M. P. Coons,  
 A. L. Dempwolff,  Zhengting Gan,  D. Hait,  P. R. Horn,  L. D. Jacobson,  
 I. Kaliman,  J. Kussmann,  A. W. Lange,  Ka Un Lao,  D. S. Levine,  Jie Liu,  
 S. C. McKenzie,  A. F. Morrison,  K. Nanda,  F. Plasser,  D. R. Rehn,  
 M. L. Vidal,  Zhi-Qiang You,  Ying Zhu,  B. Alam,  B. Albrecht,  
 A. Aldossary,  E. Alguire,  J. H. Andersen,  D. Barton,  K. Begam,  A. Behn,  
 Y. A. Bernard,  E. J. Berquist,  H. Burton,  A. Carreras,  K. Carter-Fenk,  
 R. Chakraborty,  A. D. Chien,  K. D. Closser,  V. Cofer-Shabica,  
 S. Dasgupta,  Jia Deng,  M. de Wergifosse,  M. Diedenhofen,  Hainam Do,  
 S. Ehlert,  Po-Tung Fang,  S. Fatehi,  Qingguo Feng,  J. Gayvert,  
 Qinghui Ge,  G. Gidofalvi,  M. Goldey,  J. Gomes,  C. Gonzalez-Espinoza,  
 S. Gulania,  A. Gunina,  M. W. D. Hanson-Heine,  P. H. P. Harbach,  
 A. W. Hauser,  M. F. Herbst,  M. Hernandez Vera,  M. Hodecker,  
 Z. C. Holden,  S. Houck,  Xunkun Huang,  Kerwin Hui,  B. C. Huynh,  
 M. Ivanov,  Hyunjun Ji,  Hanjie Jiang,  B. Kaduk,  S. Kaehler,  
 K. Khistyaev,  Jaehoon Kim,  P. Klunzinger,  Z. Koczor-Benda,  
 Joong Hoon Koh,  D. Kosenkov,  L. Koulias,  T. Kowalczyk,  C. M. Krauter,  
 K. Kue,  A. Kunitsa,  T. Kus,  A. Landau,  K. V. Lawler,  D. Lefrancois,  
 S. Lehtola,  Rain Li,  Yi-Pei Li,  Jiashu Liang,  M. Liebenthal,  
 Hung-Hsuan Lin,  You-Sheng Lin,  Fenglai Liu,  Kuan-Yu Liu,  
 M. Loipersberger,  A. Luenser,  A. Manjanath,  P. Manohar,  E. Mansoor,  
 S. F. Manzer,  Shan-Ping Mao,  A. V. Marenich,  T. Markovich,  S. Mason,  
 S. A. Maurer,  P. F. McLaughlin,  M. F. S. J. Menger,  J.-M. Mewes,  
 S. A. Mewes,  P. Morgante,  J. W. Mullinax,  T. S. Nguyen-Beck,  
 K. J. Oosterbaan,  G. Paran,  Alexander C. Paul,  Suranjan K. Paul,  
 F. Pavosevic,  Zheng Pei,  S. Prager,  E. I. Proynov,  E. Ramos,  B. Rana,  
 A. E. Rask,  A. Rettig,  R. M. Richard,  F. Rob,  E. Rossomme,  T. Scheele,  
 M. Scheurer,  M. Schneider,  N. Sergueev,  S. M. Sharada,  W. Skomorowski,  
 D. W. Small,  C. J. Stein,  Yu-Chuan Su,  E. J. Sundstrom,  Zhen Tao,  
 J. Thirman,  T. Tsuchimochi,  N. M. Tubman,  S. P. Veccham,  O. Vydrov,  
 J. Wenzel,  J. Witte,  A. Yamada,  Kun Yao,  S. Yeganeh,  S. R. Yost,  
 A. Zech,  Igor Ying Zhang,  Xing Zhang,  Yu Zhang,  D. Zuev,  
 A. Aspuru-Guzik,  A. T. Bell,  N. A. Besley,  K. B. Bravaya,  B. R. Brooks,  
 D. Casanova,  Jeng-Da Chai,  S. Coriani,  C. J. Cramer,  
 A. E. DePrince, III,  R. A. DiStasio Jr.,  A. Dreuw,  B. D. Dunietz,  
 T. R. Furlani,  W. A. Goddard III,  S. Grimme,  S. Hammes-Schiffer,  
 T. Head-Gordon,  W. J. Hehre,  Chao-Ping Hsu,  T.-C. Jagau,  Yousung Jung,  
 A. Klamt,  Jing Kong,  D. S. Lambrecht,  WanZhen Liang,  N. J. Mayhall,  
 C. W. McCurdy,  J. B. Neaton,  C. Ochsenfeld,  J. A. Parkhill,  R. Peverati,  
 V. A. Rassolov,  Yihan Shao,  L. V. Slipchenko,  T. Stauch,  R. P. Steele,  
 J. E. Subotnik,  A. J. W. Thom,  A. Tkatchenko,  D. G. Truhlar,  
 T. Van Voorhis,  T. A. Wesolowski,  K. B. Whaley,  H. L. Woodcock III,  
 P. M. Zimmerman,  S. Faraji,  P. M. W. Gill,  M. Head-Gordon,  
 J. M. Herbert,  A. I. Krylov

 Contributors to earlier versions of Q-Chem not listed above: 
 R. D. Adamson,  B. Austin,  R. Baer,  J. Baker,  G. J. O. Beran,  
 K. Brandhorst,  S. T. Brown,  E. F. C. Byrd,  A. K. Chakraborty,  
 G. K. L. Chan,  Chun-Min Chang,  Yunqing Chen,  C.-L. Cheng,  
 Siu Hung Chien,  D. M. Chipman,  D. L. Crittenden,  H. Dachsel,  
 R. J. Doerksen,  A. D. Dutoi,  R. G. Edgar,  J. Fosso-Tande,  
 L. Fusti-Molnar,  D. Ghosh,  A. Ghysels,  A. Golubeva-Zadorozhnaya,  
 J. Gonthier,  M. S. Gordon,  S. R. Gwaltney,  G. Hawkins,  J. E. Herr,  
 A. Heyden,  S. Hirata,  E. G. Hohenstein,  G. Kedziora,  F. J. Keil,  
 C. Kelley,  Jihan Kim,  R. A. King,  R. Z. Khaliullin,  P. P. Korambath,  
 W. Kurlancheek,  A. Laurent,  A. M. Lee,  M. S. Lee,  S. V. Levchenko,  
 Ching Yeh Lin,  D. Liotard,  E. Livshits,  R. C. Lochan,  I. Lotan,  
 L. A. Martinez-Martinez,  P. E. Maslen,  N. Nair,  D. P. O'Neill,  
 D. Neuhauser,  E. Neuscamman,  C. M. Oana,  R. Olivares-Amaya,  R. Olson,  
 T. M. Perrine,  B. Peters,  P. A. Pieniazek,  A. Prociuk,  Y. M. Rhee,  
 J. Ritchie,  M. A. Rohrdanz,  E. Rosta,  N. J. Russ,  H. F. Schaefer III,  
 M. W. Schmidt,  N. E. Schultz,  S. Sharma,  N. Shenvi,  C. D. Sherrill,  
 A. C. Simmonett,  A. Sodt,  T. Stein,  D. Stuck,  K. S. Thanthiriwatte,  
 V. Vanovschi,  L. Vogt,  Tao Wang,  A. Warshel,  M. A. Watson,  
 C. F. Williams,  Q. Wu,  X. Xu,  Jun Yang,  W. Zhang,  Yan Zhao

 Please cite Q-Chem as follows:
 Y. Shao et al., Mol. Phys. 113, 184-215 (2015)
 DOI: 10.1080/00268976.2014.952696

 Q-Chem 5.4.0 for Intel X86 EM64T Linux

 Parts of Q-Chem use Armadillo 9.800.1 (Horizon Scraper).
 http://arma.sourceforge.net/

 Q-Chem begins on Tue Sep 26 18:14:33 2023  

 Host: 
0

     Scratch files written to ./qchem1190332//
 May1621 |scratch|qcdevops|jenkins|workspace|build_RNUM    
 Parallel job on  1  processors
 Processing $rem in /cm/shared/apps/spack/cpu/opt/spack/linux-centos8-zen2/gcc-10.2.0/qchem-5.4-akfmr7b3t57bfs6qan3padb2wnb2i7cl/config/preferences:
 Processing $rem in /home/rramji/.qchemrc:
 Symmetry turned off for PCM/SM12/SMD calculation
 Core orbitals will be frozen

 Checking the input file for inconsistencies... 	...done.

 Q-Chem warning in module forms1/BasisType.C, line 2236:

 You are not using the predefined 5D/6D in this basis set.


--------------------------------------------------------------
User input:
--------------------------------------------------------------
$molecule
0 1
C	-0.375236	-0.753180	1.025038
S	0.006864	0.061020	2.535738
C	0.671664	1.489220	1.752638
C	0.008564	0.069920	-0.039662
C	0.594164	1.329320	0.346738
C	-0.018036	0.009120	-1.461062
C	0.516464	1.155520	-2.081862
S	1.040664	2.287520	-0.940662
C	0.628264	1.384120	-3.534962
O	0.236364	0.536820	-4.325262
O	1.173464	2.545720	-3.979362
F	-0.485336	-1.002280	-2.221262
C	1.334264	2.866520	-5.309962
H	1.801764	3.867720	-5.345262
H	0.362164	2.890220	-5.850562
H	1.984164	2.133220	-5.836862
C	-0.375236	-2.188380	1.025038
H	-0.752536	-2.197380	0.013138
H	0.410064	-2.872280	0.738838
H	-1.259636	-2.712780	1.355438
H	1.060564	2.323020	2.346538
$end

$rem
JOBTYPE		SP
EXCHANGE	HF
CORRELATION	pRIMP2
BASIS		cc-pvtz
METHOD		rimp2
AUX_BASIS	rimp2-cc-pvtz
SOLVENT_METHOD	PCM
PURECART	11111
SYMMETRY	false
MEM_TOTAL	110000
SCF_CONVERGENCE = 6
THRESH=10
GUI = 2
$end



$solvent
dielectric 4.90
$end
--------------------------------------------------------------
 ----------------------------------------------------------------
             Standard Nuclear Orientation (Angstroms)
    I     Atom           X                Y                Z
 ----------------------------------------------------------------
    1      C      -0.3752360000    -0.7531800000     1.0250380000
    2      S       0.0068640000     0.0610200000     2.5357380000
    3      C       0.6716640000     1.4892200000     1.7526380000
    4      C       0.0085640000     0.0699200000    -0.0396620000
    5      C       0.5941640000     1.3293200000     0.3467380000
    6      C      -0.0180360000     0.0091200000    -1.4610620000
    7      C       0.5164640000     1.1555200000    -2.0818620000
    8      S       1.0406640000     2.2875200000    -0.9406620000
    9      C       0.6282640000     1.3841200000    -3.5349620000
   10      O       0.2363640000     0.5368200000    -4.3252620000
   11      O       1.1734640000     2.5457200000    -3.9793620000
   12      F      -0.4853360000    -1.0022800000    -2.2212620000
   13      C       1.3342640000     2.8665200000    -5.3099620000
   14      H       1.8017640000     3.8677200000    -5.3452620000
   15      H       0.3621640000     2.8902200000    -5.8505620000
   16      H       1.9841640000     2.1332200000    -5.8368620000
   17      C      -0.3752360000    -2.1883800000     1.0250380000
   18      H      -0.7525360000    -2.1973800000     0.0131380000
   19      H       0.4100640000    -2.8722800000     0.7388380000
   20      H      -1.2596360000    -2.7127800000     1.3554380000
   21      H       1.0605640000     2.3230200000     2.3465380000
 ----------------------------------------------------------------
 Nuclear Repulsion Energy =        1091.09894641 hartrees
 There are       59 alpha and       59 beta electrons
 Requested basis set is cc-pVTZ
 There are 186 shells and 526 basis functions

 Total QAlloc Memory Limit 110000 MB
 Mega-Array Size       188 MB
 MEM_STATIC part       192 MB
 Discretize the solute cavity surface with Lebedev spheres
	Using 110 Lebedev grid points for each H atom
	Using 194 Lebedev grid points for other atoms
	Atomic van der Waals radii will be scaled by 1.20
 Remove points where switching function is < 1.0e-08
 Keep 1554 surface tesserae and discard 1932 interior tesserae
 Molecular Surface Area = 240.887 Angst**2
 Requested basis set is rimp2-cc-pVTZ
 There are 410 shells and 1426 basis functions
 A cutoff of  1.0D-10 yielded  11631 shell pairs
 There are     91369 function pairs (    119616 Cartesian)
 Smallest overlap matrix eigenvalue = 5.83E-05

 Scale SEOQF with 1.000000e-01/1.000000e-01/1.000000e-02

 Standard Electronic Orientation quadrupole field applied
 Nucleus-field energy     =     0.0000000163 hartrees
 Guess from superposition of atomic densities
 Warning:  Energy on first SCF cycle will be non-variational
 SAD guess density has 118.000000 electrons

 -----------------------------------------------------------------------
  General SCF calculation program by
  Eric Jon Sundstrom, Paul Horn, Yuezhi Mao, Dmitri Zuev, Alec White,
  David Stuck, Shaama M.S., Shane Yost, Joonho Lee, David Small,
  Daniel Levine, Susi Lehtola, Hugh Burton, Evgeny Epifanovsky,
  Bang C. Huynh
 -----------------------------------------------------------------------
 Hartree-Fock
 using 64 threads for integral computing
 -------------------------------------------------------
 OpenMP Integral computing Module                
 Release: version 1.0, May 2013, Q-Chem Inc. Pittsburgh 
 -------------------------------------------------------
 A restricted SCF calculation will be
 performed using DIIS
 SCF converges when DIIS error is below 1.0e-06
 ---------------------------------------
  Cycle       Energy         DIIS error
 ---------------------------------------
    1   -1394.5760348160      2.53e-02  
    2   -1389.0015933972      2.50e-03  
    3   -1389.1731844004      1.59e-03  
    4   -1389.2359775323      3.47e-04  
    5   -1389.2416348527      1.09e-04  
    6   -1389.2422883273      3.62e-05  
    7   -1389.2424286297      1.83e-05  
    8   -1389.2424776533      7.54e-06  
    9   -1389.2424896272      3.56e-06  
   10   -1389.2424917153      1.42e-06  
   11   -1389.2424920715      5.48e-07  Convergence criterion met
 ---------------------------------------
 SCF time:   CPU 1688.17s  wall 48.00s 

************** Final PCM Free Energy Summary **************
 G_electrostatic  =      -0.01219404 hartree =      -7.65187342 kcal/mol
 G_cavitation     =       0.00000000 hartree =       0.00000000 kcal/mol
 G_dispersion     =       0.00000000 hartree =       0.00000000 kcal/mol
 G_repulsion      =       0.00000000 hartree =       0.00000000 kcal/mol
 --------------------------------------------------
 Non-electrostatic Free Energy =       0.00000000 hartree =       0.00000000 kcal/mol
 Total                         =      -0.01219404 hartree =      -7.65187342 kcal/mol
 --------------------------------------------------
 SCF Energy (H0 + V/2)                       =   -1389.24249207 
 Solute Internal Energy (H0)                 =   -1389.23029803 
 Total Free Energy (H0 + V/2 + non-elec)     =   -1389.24249207 hartree
                                             = -871762.82129048 kcal/mol
***********************************************************

 SCF   energy in the final basis set =    -1389.2424920715
 Total energy in the final basis set =    -1389.2424920715


 --------------------------------------------------------------
  Generalized many-body perturbation theory program
  by Joonho Lee, Fazle Rob, Xintian Feng, Evgeny Epifanovsky

 No regularization used 
 (reg. param. = 0.0000e+00)
  (P|Q)^-1/2 Time:  CPU 20.95 s  wall 0.33 s

 In RI-MP2 calculation: 
 # of frozen core orbitals: 22

 Components of the RIMP2 correlation energy:
        aaaa    correlation energy =        -0.3303596494 a.u.
        abab    correlation energy =        -1.8503434913 a.u.
        bbbb    correlation energy =        -0.3303596494 a.u.
        non-Brillouin singles      =        -0.0000000000 a.u.
        total same-spin energy     =        -0.6607192988 a.u.
        total opposite-spin energy =        -1.8503434913 a.u.

 Total  RIMP2   correlation energy =        -2.5110627901 a.u.
        RIMP2         total energy =     -1391.7535548616 a.u.

 RI-MP2 Energy Time:  CPU 172.77 s  wall 3.32 s
 
 --------------------------------------------------------------
 
                    Orbital Energies (a.u.)
 --------------------------------------------------------------
 
 Alpha MOs
 -- Occupied --
-92.0031 -91.9924 -26.3351 -20.6115 -20.5492 -11.4095 -11.3762 -11.3010
-11.2951 -11.2922 -11.2888 -11.2883 -11.2756 -11.2250  -9.0022  -8.9965
 -6.6829  -6.6823  -6.6819  -6.6777  -6.6771  -6.6757  -1.6484  -1.4712
 -1.3665  -1.2290  -1.1459  -1.0677  -1.0274  -1.0053  -0.9691  -0.9109
 -0.8643  -0.7960  -0.7867  -0.7679  -0.7270  -0.7164  -0.6970  -0.6782
 -0.6779  -0.6699  -0.6071  -0.6054  -0.5984  -0.5896  -0.5764  -0.5674
 -0.5433  -0.5252  -0.5063  -0.4819  -0.4755  -0.4616  -0.4606  -0.4484
 -0.3958  -0.3449  -0.2833
 -- Virtual --
  0.0308   0.1175   0.1380   0.1557   0.1590   0.1705   0.1847   0.1973
  0.2068   0.2178   0.2206   0.2271   0.2379   0.2423   0.2615   0.2717
  0.2924   0.3033   0.3178   0.3350   0.3499   0.3597   0.3722   0.3769
  0.3806   0.3929   0.3946   0.4093   0.4179   0.4313   0.4369   0.4454
  0.4587   0.4660   0.4675   0.4775   0.4875   0.5055   0.5141   0.5308
  0.5365   0.5389   0.5456   0.5527   0.5611   0.5632   0.5692   0.5875
  0.5883   0.5967   0.6076   0.6106   0.6160   0.6171   0.6259   0.6323
  0.6402   0.6461   0.6483   0.6608   0.6758   0.6861   0.6903   0.6981
  0.7126   0.7163   0.7446   0.7556   0.7668   0.7838   0.7880   0.8011
  0.8044   0.8136   0.8248   0.8456   0.8644   0.8765   0.8821   0.8928
  0.9013   0.9063   0.9185   0.9370   0.9409   0.9438   0.9498   0.9731
  0.9845   0.9937   1.0044   1.0170   1.0181   1.0282   1.0411   1.0507
  1.0618   1.0681   1.0789   1.0925   1.0969   1.1065   1.1273   1.1361
  1.1516   1.1579   1.1606   1.1705   1.1802   1.1856   1.1917   1.2121
  1.2218   1.2275   1.2403   1.2555   1.2699   1.2780   1.2850   1.2970
  1.3337   1.3357   1.3456   1.3464   1.3576   1.3718   1.3822   1.3958
  1.4052   1.4289   1.4415   1.4651   1.4705   1.4953   1.4996   1.5125
  1.5136   1.5249   1.5489   1.5512   1.5627   1.5762   1.6008   1.6090
  1.6274   1.6344   1.6567   1.6711   1.6839   1.6973   1.7244   1.7300
  1.7541   1.7597   1.7716   1.8121   1.8243   1.8337   1.8432   1.8517
  1.8692   1.8777   1.8823   1.9241   1.9310   1.9429   1.9591   1.9669
  1.9797   2.0076   2.0285   2.0316   2.0518   2.0932   2.1050   2.1247
  2.1422   2.1536   2.1598   2.1627   2.1885   2.1959   2.2157   2.2356
  2.2429   2.2688   2.2714   2.2790   2.2880   2.2975   2.3322   2.3421
  2.3688   2.3824   2.4076   2.4322   2.4599   2.4702   2.4841   2.5031
  2.5298   2.5626   2.5693   2.5806   2.5899   2.6018   2.6182   2.6253
  2.6488   2.6557   2.6667   2.6755   2.6902   2.7001   2.7185   2.7338
  2.7388   2.7465   2.7607   2.7728   2.7835   2.8141   2.8216   2.8364
  2.8445   2.8626   2.8771   2.8836   2.9101   2.9145   2.9379   2.9427
  2.9579   2.9799   3.0006   3.0248   3.0390   3.0439   3.0613   3.0816
  3.0847   3.0899   3.0933   3.1075   3.1238   3.1338   3.1374   3.1561
  3.1752   3.1907   3.1958   3.2062   3.2119   3.2229   3.2434   3.2582
  3.2625   3.2662   3.2867   3.2901   3.2930   3.3069   3.3143   3.3369
  3.3388   3.3426   3.3548   3.3636   3.3765   3.3838   3.3985   3.4126
  3.4303   3.4393   3.4542   3.4546   3.4579   3.4726   3.4913   3.5068
  3.5159   3.5265   3.5306   3.5537   3.5724   3.5780   3.5855   3.5892
  3.5931   3.6051   3.6218   3.6351   3.6407   3.6500   3.6624   3.6752
  3.6915   3.6995   3.7089   3.7178   3.7289   3.7298   3.7438   3.7480
  3.7539   3.7707   3.7865   3.8017   3.8234   3.8261   3.8380   3.8518
  3.8581   3.8669   3.8688   3.8819   3.8961   3.9098   3.9232   3.9398
  3.9488   3.9755   3.9826   3.9890   4.0001   4.0190   4.0357   4.0557
  4.0719   4.0831   4.0884   4.0961   4.1029   4.1573   4.1638   4.1729
  4.1893   4.2231   4.2261   4.2636   4.2802   4.3043   4.3062   4.3306
  4.3485   4.3757   4.3800   4.3862   4.3968   4.4029   4.4312   4.4333
  4.4694   4.4811   4.4950   4.5138   4.5402   4.5494   4.5839   4.6081
  4.6388   4.6397   4.6526   4.6610   4.6762   4.7058   4.7072   4.7387
  4.7579   4.7766   4.7983   4.8090   4.8284   4.8753   4.8972   4.9158
  4.9683   5.0111   5.0209   5.0270   5.0697   5.0794   5.1139   5.1380
  5.1841   5.2056   5.2254   5.2446   5.2591   5.2606   5.2780   5.3549
  5.3555   5.3608   5.3998   5.4261   5.4500   5.4733   5.4877   5.5341
  5.5564   5.5925   5.6181   5.6217   5.6392   5.6779   5.7350   5.8013
  5.8148   5.8274   5.8544   5.9106   5.9504   5.9554   5.9704   5.9900
  6.0431   6.1252   6.1339   6.1858   6.2293   6.3090   6.3565   6.4215
  6.4811   6.5104   6.5570   6.6671   6.6774   6.7359   6.7416   6.8611
  6.8819   6.9912   7.1790   7.2106   7.3271   7.3715   7.3751   7.4287
  7.4631   7.4853   7.5174   7.5490   7.6068   7.7689   7.8319   7.9046
  8.0008   8.1197   8.3840   8.9266   9.0091   9.3615   9.5006   9.6999
 10.1718  11.2278  11.6860  11.9376  12.2951  12.6510  13.1650  13.4829
 13.8076  14.0883  14.5868
 --------------------------------------------------------------
 
          Ground-State Mulliken Net Atomic Charges

     Atom                 Charge (a.u.)
  ----------------------------------------
      1 C                     0.009656
      2 S                     0.087804
      3 C                    -0.238362
      4 C                    -0.094138
      5 C                    -0.012884
      6 C                     0.369028
      7 C                    -0.150215
      8 S                     0.036325
      9 C                     0.457432
     10 O                    -0.452018
     11 O                    -0.297918
     12 F                    -0.212690
     13 C                    -0.054749
     14 H                     0.116538
     15 H                     0.084240
     16 H                     0.084137
     17 C                    -0.355144
     18 H                     0.114211
     19 H                     0.157786
     20 H                     0.140161
     21 H                     0.210801
  ----------------------------------------
  Sum of atomic charges =     0.000000

 -----------------------------------------------------------------
                    Cartesian Multipole Moments
 -----------------------------------------------------------------
    Charge (ESU x 10^10)
                -0.0000
    Dipole Moment (Debye)
         X       1.1382      Y       1.2760      Z       2.7102
       Tot       3.2045
    Quadrupole Moments (Debye-Ang)
        XX     -94.0935     XY       4.5195     YY     -84.1588
        XZ      -4.6721     YZ      -9.4392     ZZ     -97.1107
    Octopole Moments (Debye-Ang^2)
       XXX    -111.5972    XXY     -71.2691    XYY     -27.1544
       YYY    -210.6338    XXZ      76.6085    XYZ      -6.2821
       YYZ      64.4120    XZZ       2.3146    YZZ      12.6444
       ZZZ     251.4130
    Hexadecapole Moments (Debye-Ang^3)
      XXXX    -401.2240   XXXY    -311.3315   XXYY    -316.8511
      XYYY    -270.0173   YYYY   -1534.1011   XXXZ     293.6863
      XXYZ     208.6147   XYYZ      63.3982   YYYZ     607.4887
      XXZZ    -670.6273   XYZZ       8.4732   YYZZ    -693.6773
      XZZZ     124.8895   YZZZ     307.2821   ZZZZ   -3779.8899
 -----------------------------------------------------------------
 Total job time:  53.43s(wall), 1922.84s(cpu) 
 Tue Sep 26 18:15:27 2023

        *************************************************************
        *                                                           *
        *  Thank you very much for using Q-Chem.  Have a nice day.  *
        *                                                           *
        *************************************************************


0 sent ACK to 0 
now end server 0 ... 
cleanup process ... done
remove work dirs ./qchem1190332.0 -- ./qchem1190332.0
rm -rf ./qchem1190332.0
rm -rf ./qchem1190332
