You are running Q-Chem version: 5.4.0

#
# job setting
#
local host:  exp-8-18
current dir: /expanse/lustre/projects/csd626/rramji/aromodel/PTB7_fin/Hydrogenated_Impropers_Test
input file:  fin_bdt_Phi_5_Theta_60_fin_ftt_Hydrogenated_Improper.qcin
output file: 
nprocs     : 1
nthreads   : 64
#
# qchem installation setting
#
QC:          /cm/shared/apps/spack/cpu/opt/spack/linux-centos8-zen2/gcc-10.2.0/qchem-5.4-akfmr7b3t57bfs6qan3padb2wnb2i7cl
QCAUX:       /cm/shared/apps/spack/cpu/opt/spack/linux-centos8-zen2/gcc-10.2.0/qchem-5.4-akfmr7b3t57bfs6qan3padb2wnb2i7cl/qcaux
QCPROG:      /cm/shared/apps/spack/cpu/opt/spack/linux-centos8-zen2/gcc-10.2.0/qchem-5.4-akfmr7b3t57bfs6qan3padb2wnb2i7cl/exe/qcprog.exe
QCPROG_S:    /cm/shared/apps/spack/cpu/opt/spack/linux-centos8-zen2/gcc-10.2.0/qchem-5.4-akfmr7b3t57bfs6qan3padb2wnb2i7cl/exe/qcprog.exe_s
PARALLEL:    -DPARALLEL
QCMPI:       mpich
#
# qchem directory setting
#
qcrun:       qchem1176822
QCSCRATCH:   .
QCLOCALSCR:  
QCTMPDIR:    .
QCFILEPREF:  ./qchem1176822
QCSAVEDIR:   
workdirs:    ./qchem1176822
workdir0:    ./qchem1176822
partmpdirs =  
#
# parallel setting
#
QCRSH:           ssh
QCMPI:           mpich
QCMPIRUN:        /cm/shared/apps/spack/cpu/opt/spack/linux-centos8-zen2/gcc-10.2.0/qchem-5.4-akfmr7b3t57bfs6qan3padb2wnb2i7cl/bin/mpi/mpirun_qchem
QCMACHINEFILE:   ./qchem1176822/hostfile
exp-8-18

#
# env setting
#
exported envs:   QC QCAUX QCSCRATCH QCRUNNAME QCFILEPREF QCPROG QCPROG_S GUIFILE

Running Job 1 of 1 fin_bdt_Phi_5_Theta_60_fin_ftt_Hydrogenated_Improper.qcin
qchem fin_bdt_Phi_5_Theta_60_fin_ftt_Hydrogenated_Improper.qcin_1176822.0 ./qchem1176822/ 1
/cm/shared/apps/spack/cpu/opt/spack/linux-centos8-zen2/gcc-10.2.0/qchem-5.4-akfmr7b3t57bfs6qan3padb2wnb2i7cl/bin/mpi/mpirun_qchem -machinefile ./qchem1176822/hostfile -np 1 /cm/shared/apps/spack/cpu/opt/spack/linux-centos8-zen2/gcc-10.2.0/qchem-5.4-akfmr7b3t57bfs6qan3padb2wnb2i7cl/exe/qcprog.exe fin_bdt_Phi_5_Theta_60_fin_ftt_Hydrogenated_Improper.qcin_1176822.0 ./qchem1176822/

Process 0 of 1 is on exp-8-18 - thread support 0
initial socket setup ...start
initial socket setup ...done 
now start server 0 ... 
                  Welcome to Q-Chem
     A Quantum Leap Into The Future Of Chemistry


 Q-Chem 5.4, Q-Chem, Inc., Pleasanton, CA (2021)

 License issued to: University of California, San Diego (site)

 E. Epifanovsky,  A. T. B. Gilbert,  Xintian Feng,  Joonho Lee,  Yuezhi Mao,  
 N. Mardirossian,  P. Pokhilko,  A. White,  M. Wormit,  M. P. Coons,  
 A. L. Dempwolff,  Zhengting Gan,  D. Hait,  P. R. Horn,  L. D. Jacobson,  
 I. Kaliman,  J. Kussmann,  A. W. Lange,  Ka Un Lao,  D. S. Levine,  Jie Liu,  
 S. C. McKenzie,  A. F. Morrison,  K. Nanda,  F. Plasser,  D. R. Rehn,  
 M. L. Vidal,  Zhi-Qiang You,  Ying Zhu,  B. Alam,  B. Albrecht,  
 A. Aldossary,  E. Alguire,  J. H. Andersen,  D. Barton,  K. Begam,  A. Behn,  
 Y. A. Bernard,  E. J. Berquist,  H. Burton,  A. Carreras,  K. Carter-Fenk,  
 R. Chakraborty,  A. D. Chien,  K. D. Closser,  V. Cofer-Shabica,  
 S. Dasgupta,  Jia Deng,  M. de Wergifosse,  M. Diedenhofen,  Hainam Do,  
 S. Ehlert,  Po-Tung Fang,  S. Fatehi,  Qingguo Feng,  J. Gayvert,  
 Qinghui Ge,  G. Gidofalvi,  M. Goldey,  J. Gomes,  C. Gonzalez-Espinoza,  
 S. Gulania,  A. Gunina,  M. W. D. Hanson-Heine,  P. H. P. Harbach,  
 A. W. Hauser,  M. F. Herbst,  M. Hernandez Vera,  M. Hodecker,  
 Z. C. Holden,  S. Houck,  Xunkun Huang,  Kerwin Hui,  B. C. Huynh,  
 M. Ivanov,  Hyunjun Ji,  Hanjie Jiang,  B. Kaduk,  S. Kaehler,  
 K. Khistyaev,  Jaehoon Kim,  P. Klunzinger,  Z. Koczor-Benda,  
 Joong Hoon Koh,  D. Kosenkov,  L. Koulias,  T. Kowalczyk,  C. M. Krauter,  
 K. Kue,  A. Kunitsa,  T. Kus,  A. Landau,  K. V. Lawler,  D. Lefrancois,  
 S. Lehtola,  Rain Li,  Yi-Pei Li,  Jiashu Liang,  M. Liebenthal,  
 Hung-Hsuan Lin,  You-Sheng Lin,  Fenglai Liu,  Kuan-Yu Liu,  
 M. Loipersberger,  A. Luenser,  A. Manjanath,  P. Manohar,  E. Mansoor,  
 S. F. Manzer,  Shan-Ping Mao,  A. V. Marenich,  T. Markovich,  S. Mason,  
 S. A. Maurer,  P. F. McLaughlin,  M. F. S. J. Menger,  J.-M. Mewes,  
 S. A. Mewes,  P. Morgante,  J. W. Mullinax,  T. S. Nguyen-Beck,  
 K. J. Oosterbaan,  G. Paran,  Alexander C. Paul,  Suranjan K. Paul,  
 F. Pavosevic,  Zheng Pei,  S. Prager,  E. I. Proynov,  E. Ramos,  B. Rana,  
 A. E. Rask,  A. Rettig,  R. M. Richard,  F. Rob,  E. Rossomme,  T. Scheele,  
 M. Scheurer,  M. Schneider,  N. Sergueev,  S. M. Sharada,  W. Skomorowski,  
 D. W. Small,  C. J. Stein,  Yu-Chuan Su,  E. J. Sundstrom,  Zhen Tao,  
 J. Thirman,  T. Tsuchimochi,  N. M. Tubman,  S. P. Veccham,  O. Vydrov,  
 J. Wenzel,  J. Witte,  A. Yamada,  Kun Yao,  S. Yeganeh,  S. R. Yost,  
 A. Zech,  Igor Ying Zhang,  Xing Zhang,  Yu Zhang,  D. Zuev,  
 A. Aspuru-Guzik,  A. T. Bell,  N. A. Besley,  K. B. Bravaya,  B. R. Brooks,  
 D. Casanova,  Jeng-Da Chai,  S. Coriani,  C. J. Cramer,  
 A. E. DePrince, III,  R. A. DiStasio Jr.,  A. Dreuw,  B. D. Dunietz,  
 T. R. Furlani,  W. A. Goddard III,  S. Grimme,  S. Hammes-Schiffer,  
 T. Head-Gordon,  W. J. Hehre,  Chao-Ping Hsu,  T.-C. Jagau,  Yousung Jung,  
 A. Klamt,  Jing Kong,  D. S. Lambrecht,  WanZhen Liang,  N. J. Mayhall,  
 C. W. McCurdy,  J. B. Neaton,  C. Ochsenfeld,  J. A. Parkhill,  R. Peverati,  
 V. A. Rassolov,  Yihan Shao,  L. V. Slipchenko,  T. Stauch,  R. P. Steele,  
 J. E. Subotnik,  A. J. W. Thom,  A. Tkatchenko,  D. G. Truhlar,  
 T. Van Voorhis,  T. A. Wesolowski,  K. B. Whaley,  H. L. Woodcock III,  
 P. M. Zimmerman,  S. Faraji,  P. M. W. Gill,  M. Head-Gordon,  
 J. M. Herbert,  A. I. Krylov

 Contributors to earlier versions of Q-Chem not listed above: 
 R. D. Adamson,  B. Austin,  R. Baer,  J. Baker,  G. J. O. Beran,  
 K. Brandhorst,  S. T. Brown,  E. F. C. Byrd,  A. K. Chakraborty,  
 G. K. L. Chan,  Chun-Min Chang,  Yunqing Chen,  C.-L. Cheng,  
 Siu Hung Chien,  D. M. Chipman,  D. L. Crittenden,  H. Dachsel,  
 R. J. Doerksen,  A. D. Dutoi,  R. G. Edgar,  J. Fosso-Tande,  
 L. Fusti-Molnar,  D. Ghosh,  A. Ghysels,  A. Golubeva-Zadorozhnaya,  
 J. Gonthier,  M. S. Gordon,  S. R. Gwaltney,  G. Hawkins,  J. E. Herr,  
 A. Heyden,  S. Hirata,  E. G. Hohenstein,  G. Kedziora,  F. J. Keil,  
 C. Kelley,  Jihan Kim,  R. A. King,  R. Z. Khaliullin,  P. P. Korambath,  
 W. Kurlancheek,  A. Laurent,  A. M. Lee,  M. S. Lee,  S. V. Levchenko,  
 Ching Yeh Lin,  D. Liotard,  E. Livshits,  R. C. Lochan,  I. Lotan,  
 L. A. Martinez-Martinez,  P. E. Maslen,  N. Nair,  D. P. O'Neill,  
 D. Neuhauser,  E. Neuscamman,  C. M. Oana,  R. Olivares-Amaya,  R. Olson,  
 T. M. Perrine,  B. Peters,  P. A. Pieniazek,  A. Prociuk,  Y. M. Rhee,  
 J. Ritchie,  M. A. Rohrdanz,  E. Rosta,  N. J. Russ,  H. F. Schaefer III,  
 M. W. Schmidt,  N. E. Schultz,  S. Sharma,  N. Shenvi,  C. D. Sherrill,  
 A. C. Simmonett,  A. Sodt,  T. Stein,  D. Stuck,  K. S. Thanthiriwatte,  
 V. Vanovschi,  L. Vogt,  Tao Wang,  A. Warshel,  M. A. Watson,  
 C. F. Williams,  Q. Wu,  X. Xu,  Jun Yang,  W. Zhang,  Yan Zhao

 Please cite Q-Chem as follows:
 Y. Shao et al., Mol. Phys. 113, 184-215 (2015)
 DOI: 10.1080/00268976.2014.952696

 Q-Chem 5.4.0 for Intel X86 EM64T Linux

 Parts of Q-Chem use Armadillo 9.800.1 (Horizon Scraper).
 http://arma.sourceforge.net/

 Q-Chem begins on Tue Sep 26 17:49:23 2023  

 Host: 
0

     Scratch files written to ./qchem1176822//
 May1621 |scratch|qcdevops|jenkins|workspace|build_RNUM    
 Parallel job on  1  processors
 Processing $rem in /cm/shared/apps/spack/cpu/opt/spack/linux-centos8-zen2/gcc-10.2.0/qchem-5.4-akfmr7b3t57bfs6qan3padb2wnb2i7cl/config/preferences:
 Processing $rem in /home/rramji/.qchemrc:
 Symmetry turned off for PCM/SM12/SMD calculation
 Core orbitals will be frozen

 Checking the input file for inconsistencies... 	...done.

 Q-Chem warning in module forms1/BasisType.C, line 2236:

 You are not using the predefined 5D/6D in this basis set.


--------------------------------------------------------------
User input:
--------------------------------------------------------------
$molecule
0 1
C	-0.080442	-0.833466	1.021016
S	0.000158	0.062334	2.531716
C	0.136358	1.631734	1.748616
C	-0.001342	0.071334	-0.043684
C	0.118258	1.454934	0.342716
C	-0.005442	0.005034	-1.465084
C	0.104658	1.265034	-2.085884
S	0.210058	2.508134	-0.944684
C	0.131458	1.518134	-3.538984
O	0.053058	0.587934	-4.329284
O	0.246558	2.796134	-3.983384
F	-0.098642	-1.105166	-2.225284
C	0.287958	3.152634	-5.313984
H	0.384858	4.253334	-5.349284
H	-0.633542	2.842434	-5.854584
H	1.149458	2.685834	-5.840884
C	-0.080442	-2.268666	1.021016
H	0.466858	-2.277666	1.952016
H	-0.804142	-2.952566	1.439216
H	0.733158	-2.793066	0.542016
H	0.216658	2.548234	2.342516
$end

$rem
JOBTYPE		SP
EXCHANGE	HF
CORRELATION	pRIMP2
BASIS		cc-pvtz
METHOD		rimp2
AUX_BASIS	rimp2-cc-pvtz
SOLVENT_METHOD	PCM
PURECART	11111
SYMMETRY	false
MEM_TOTAL	110000
SCF_CONVERGENCE = 6
THRESH=10
GUI = 2
$end



$solvent
dielectric 4.90
$end
--------------------------------------------------------------
 ----------------------------------------------------------------
             Standard Nuclear Orientation (Angstroms)
    I     Atom           X                Y                Z
 ----------------------------------------------------------------
    1      C      -0.0804420000    -0.8334660000     1.0210160000
    2      S       0.0001580000     0.0623340000     2.5317160000
    3      C       0.1363580000     1.6317340000     1.7486160000
    4      C      -0.0013420000     0.0713340000    -0.0436840000
    5      C       0.1182580000     1.4549340000     0.3427160000
    6      C      -0.0054420000     0.0050340000    -1.4650840000
    7      C       0.1046580000     1.2650340000    -2.0858840000
    8      S       0.2100580000     2.5081340000    -0.9446840000
    9      C       0.1314580000     1.5181340000    -3.5389840000
   10      O       0.0530580000     0.5879340000    -4.3292840000
   11      O       0.2465580000     2.7961340000    -3.9833840000
   12      F      -0.0986420000    -1.1051660000    -2.2252840000
   13      C       0.2879580000     3.1526340000    -5.3139840000
   14      H       0.3848580000     4.2533340000    -5.3492840000
   15      H      -0.6335420000     2.8424340000    -5.8545840000
   16      H       1.1494580000     2.6858340000    -5.8408840000
   17      C      -0.0804420000    -2.2686660000     1.0210160000
   18      H       0.4668580000    -2.2776660000     1.9520160000
   19      H      -0.8041420000    -2.9525660000     1.4392160000
   20      H       0.7331580000    -2.7930660000     0.5420160000
   21      H       0.2166580000     2.5482340000     2.3425160000
 ----------------------------------------------------------------
 Nuclear Repulsion Energy =        1088.62758751 hartrees
 There are       59 alpha and       59 beta electrons
 Requested basis set is cc-pVTZ
 There are 186 shells and 526 basis functions

 Total QAlloc Memory Limit 110000 MB
 Mega-Array Size       188 MB
 MEM_STATIC part       192 MB
 Discretize the solute cavity surface with Lebedev spheres
	Using 110 Lebedev grid points for each H atom
	Using 194 Lebedev grid points for other atoms
	Atomic van der Waals radii will be scaled by 1.20
 Remove points where switching function is < 1.0e-08
 Keep 1575 surface tesserae and discard 1911 interior tesserae
 Molecular Surface Area = 242.164 Angst**2
 Requested basis set is rimp2-cc-pVTZ
 There are 410 shells and 1426 basis functions
 A cutoff of  1.0D-10 yielded  11505 shell pairs
 There are     90405 function pairs (    118390 Cartesian)
 Smallest overlap matrix eigenvalue = 5.58E-05

 Scale SEOQF with 1.000000e+00/1.000000e-01/1.000000e-02

 Standard Electronic Orientation quadrupole field applied
 Nucleus-field energy     =     0.0000000203 hartrees
 Guess from superposition of atomic densities
 Warning:  Energy on first SCF cycle will be non-variational
 SAD guess density has 118.000000 electrons

 -----------------------------------------------------------------------
  General SCF calculation program by
  Eric Jon Sundstrom, Paul Horn, Yuezhi Mao, Dmitri Zuev, Alec White,
  David Stuck, Shaama M.S., Shane Yost, Joonho Lee, David Small,
  Daniel Levine, Susi Lehtola, Hugh Burton, Evgeny Epifanovsky,
  Bang C. Huynh
 -----------------------------------------------------------------------
 Hartree-Fock
 using 64 threads for integral computing
 -------------------------------------------------------
 OpenMP Integral computing Module                
 Release: version 1.0, May 2013, Q-Chem Inc. Pittsburgh 
 -------------------------------------------------------
 A restricted SCF calculation will be
 performed using DIIS
 SCF converges when DIIS error is below 1.0e-06
 ---------------------------------------
  Cycle       Energy         DIIS error
 ---------------------------------------
    1   -1394.5676472534      2.53e-02  
    2   -1389.0125080051      2.50e-03  
    3   -1389.1850827077      1.57e-03  
    4   -1389.2462689627      3.48e-04  
    5   -1389.2519323624      1.10e-04  
    6   -1389.2525963890      3.64e-05  
    7   -1389.2527382292      1.81e-05  
    8   -1389.2527854643      7.21e-06  
    9   -1389.2527957401      3.22e-06  
   10   -1389.2527973345      1.23e-06  
   11   -1389.2527975738      4.65e-07  Convergence criterion met
 ---------------------------------------
 SCF time:   CPU 1704.99s  wall 50.00s 

************** Final PCM Free Energy Summary **************
 G_electrostatic  =      -0.01356505 hartree =      -8.51219716 kcal/mol
 G_cavitation     =       0.00000000 hartree =       0.00000000 kcal/mol
 G_dispersion     =       0.00000000 hartree =       0.00000000 kcal/mol
 G_repulsion      =       0.00000000 hartree =       0.00000000 kcal/mol
 --------------------------------------------------
 Non-electrostatic Free Energy =       0.00000000 hartree =       0.00000000 kcal/mol
 Total                         =      -0.01356505 hartree =      -8.51219716 kcal/mol
 --------------------------------------------------
 SCF Energy (H0 + V/2)                       =   -1389.25279757 
 Solute Internal Energy (H0)                 =   -1389.23923252 
 Total Free Energy (H0 + V/2 + non-elec)     =   -1389.25279757 hartree
                                             = -871769.28809080 kcal/mol
***********************************************************

 SCF   energy in the final basis set =    -1389.2527975738
 Total energy in the final basis set =    -1389.2527975738


 --------------------------------------------------------------
  Generalized many-body perturbation theory program
  by Joonho Lee, Fazle Rob, Xintian Feng, Evgeny Epifanovsky

 No regularization used 
 (reg. param. = 0.0000e+00)
  (P|Q)^-1/2 Time:  CPU 24.38 s  wall 0.40 s

 In RI-MP2 calculation: 
 # of frozen core orbitals: 22

 Components of the RIMP2 correlation energy:
        aaaa    correlation energy =        -0.3291625986 a.u.
        abab    correlation energy =        -1.8467236304 a.u.
        bbbb    correlation energy =        -0.3291625986 a.u.
        non-Brillouin singles      =        -0.0000000000 a.u.
        total same-spin energy     =        -0.6583251972 a.u.
        total opposite-spin energy =        -1.8467236304 a.u.

 Total  RIMP2   correlation energy =        -2.5050488276 a.u.
        RIMP2         total energy =     -1391.7578464014 a.u.

 RI-MP2 Energy Time:  CPU 175.42 s  wall 2.99 s
 
 --------------------------------------------------------------
 
                    Orbital Energies (a.u.)
 --------------------------------------------------------------
 
 Alpha MOs
 -- Occupied --
-92.0077 -91.9891 -26.3331 -20.6101 -20.5468 -11.4073 -11.3755 -11.3108
-11.2912 -11.2905 -11.2875 -11.2819 -11.2691 -11.2297  -9.0066  -8.9934
 -6.6873  -6.6868  -6.6863  -6.6747  -6.6740  -6.6726  -1.6461  -1.4697
 -1.3646  -1.2266  -1.1468  -1.0654  -1.0293  -1.0055  -0.9682  -0.9102
 -0.8639  -0.7965  -0.7840  -0.7673  -0.7262  -0.7140  -0.6956  -0.6768
 -0.6763  -0.6676  -0.6092  -0.6038  -0.5977  -0.5869  -0.5779  -0.5650
 -0.5429  -0.5247  -0.5065  -0.4826  -0.4795  -0.4618  -0.4593  -0.4571
 -0.3949  -0.3462  -0.2794
 -- Virtual --
  0.0393   0.1189   0.1320   0.1556   0.1600   0.1687   0.1904   0.1951
  0.2090   0.2187   0.2215   0.2320   0.2354   0.2479   0.2654   0.2693
  0.2819   0.3094   0.3138   0.3330   0.3473   0.3608   0.3693   0.3773
  0.3815   0.3935   0.3948   0.4122   0.4180   0.4319   0.4376   0.4425
  0.4636   0.4680   0.4749   0.4861   0.4999   0.5095   0.5139   0.5239
  0.5355   0.5392   0.5465   0.5558   0.5589   0.5681   0.5781   0.5873
  0.5910   0.5945   0.6094   0.6107   0.6160   0.6214   0.6259   0.6261
  0.6406   0.6458   0.6519   0.6671   0.6749   0.6835   0.6955   0.7072
  0.7103   0.7151   0.7422   0.7606   0.7691   0.7875   0.7911   0.7948
  0.8061   0.8120   0.8245   0.8387   0.8599   0.8782   0.8804   0.8955
  0.9043   0.9136   0.9248   0.9253   0.9386   0.9474   0.9668   0.9737
  0.9786   0.9885   0.9963   1.0113   1.0254   1.0344   1.0444   1.0603
  1.0617   1.0811   1.0828   1.0908   1.0985   1.1016   1.1171   1.1378
  1.1471   1.1544   1.1593   1.1676   1.1839   1.1926   1.2029   1.2124
  1.2216   1.2358   1.2451   1.2606   1.2623   1.2785   1.2995   1.3137
  1.3214   1.3301   1.3436   1.3545   1.3792   1.3830   1.3909   1.4039
  1.4165   1.4329   1.4518   1.4689   1.4797   1.4971   1.5029   1.5118
  1.5146   1.5169   1.5444   1.5521   1.5632   1.5708   1.5837   1.6109
  1.6195   1.6396   1.6609   1.6733   1.6828   1.7138   1.7185   1.7347
  1.7447   1.7632   1.7946   1.8117   1.8239   1.8355   1.8436   1.8598
  1.8718   1.8744   1.8879   1.9146   1.9349   1.9388   1.9534   1.9568
  2.0003   2.0233   2.0319   2.0385   2.0537   2.0951   2.1070   2.1294
  2.1436   2.1570   2.1648   2.1731   2.1978   2.2080   2.2209   2.2409
  2.2537   2.2780   2.2836   2.2890   2.2927   2.3167   2.3302   2.3370
  2.3695   2.3843   2.4128   2.4251   2.4637   2.4717   2.4809   2.4916
  2.5304   2.5571   2.5766   2.5801   2.5919   2.6181   2.6343   2.6386
  2.6546   2.6618   2.6736   2.6920   2.6960   2.7079   2.7180   2.7324
  2.7354   2.7532   2.7691   2.7731   2.7833   2.8046   2.8139   2.8278
  2.8481   2.8617   2.8666   2.8894   2.9118   2.9182   2.9311   2.9488
  2.9572   2.9934   3.0221   3.0251   3.0438   3.0462   3.0638   3.0697
  3.0813   3.0922   3.0979   3.1056   3.1239   3.1368   3.1463   3.1611
  3.1635   3.1763   3.1979   3.2052   3.2166   3.2262   3.2431   3.2565
  3.2660   3.2711   3.2738   3.2822   3.2930   3.3077   3.3192   3.3256
  3.3363   3.3499   3.3624   3.3640   3.3731   3.3875   3.3940   3.4038
  3.4363   3.4399   3.4440   3.4580   3.4633   3.4729   3.4861   3.4944
  3.5023   3.5187   3.5294   3.5504   3.5665   3.5790   3.5894   3.5965
  3.6055   3.6141   3.6297   3.6390   3.6474   3.6554   3.6682   3.6782
  3.6851   3.6909   3.6983   3.7120   3.7125   3.7298   3.7306   3.7347
  3.7587   3.7733   3.7877   3.7974   3.8241   3.8338   3.8423   3.8535
  3.8590   3.8659   3.8747   3.8832   3.8922   3.9234   3.9323   3.9458
  3.9530   3.9723   3.9755   3.9868   3.9922   4.0066   4.0323   4.0526
  4.0687   4.0751   4.0897   4.0943   4.1277   4.1364   4.1646   4.1731
  4.1860   4.1886   4.2183   4.2761   4.2839   4.2940   4.3222   4.3269
  4.3486   4.3525   4.3674   4.3782   4.3971   4.4113   4.4276   4.4408
  4.4545   4.4753   4.4972   4.5109   4.5244   4.5511   4.5885   4.5999
  4.6231   4.6391   4.6576   4.6599   4.6700   4.6859   4.7141   4.7341
  4.7659   4.7693   4.7923   4.8010   4.8159   4.8654   4.9124   4.9194
  4.9734   5.0123   5.0262   5.0313   5.0666   5.1104   5.1293   5.1582
  5.1837   5.2149   5.2201   5.2545   5.2601   5.2707   5.2979   5.3526
  5.3564   5.3614   5.4001   5.4290   5.4621   5.4741   5.4928   5.5347
  5.5577   5.5975   5.6117   5.6203   5.6445   5.6912   5.7332   5.8027
  5.8107   5.8354   5.8506   5.8783   5.9084   5.9723   5.9809   6.0527
  6.0726   6.1292   6.1350   6.1869   6.2216   6.3103   6.3736   6.4540
  6.4641   6.5200   6.5587   6.6748   6.6793   6.7400   6.7419   6.8631
  6.8840   6.9938   7.1804   7.2122   7.3292   7.3737   7.3768   7.4299
  7.4645   7.4875   7.5210   7.5511   7.6174   7.7712   7.8336   7.9141
  8.0012   8.1238   8.4759   8.9284   9.0089   9.3635   9.4992   9.6888
 10.1202  11.2258  11.5168  11.9350  12.2916  12.6935  13.1356  13.5193
 13.8163  14.0845  14.7499
 --------------------------------------------------------------
 
          Ground-State Mulliken Net Atomic Charges

     Atom                 Charge (a.u.)
  ----------------------------------------
      1 C                     0.044572
      2 S                     0.082425
      3 C                    -0.259711
      4 C                    -0.090049
      5 C                    -0.012889
      6 C                     0.395048
      7 C                    -0.166461
      8 S                     0.026578
      9 C                     0.459763
     10 O                    -0.455507
     11 O                    -0.298476
     12 F                    -0.213541
     13 C                    -0.055057
     14 H                     0.116157
     15 H                     0.083980
     16 H                     0.083794
     17 C                    -0.373853
     18 H                     0.121728
     19 H                     0.154252
     20 H                     0.145729
     21 H                     0.211520
  ----------------------------------------
  Sum of atomic charges =     0.000000

 -----------------------------------------------------------------
                    Cartesian Multipole Moments
 -----------------------------------------------------------------
    Charge (ESU x 10^10)
                -0.0000
    Dipole Moment (Debye)
         X       0.6029      Y       0.9182      Z       4.1306
       Tot       4.2741
    Quadrupole Moments (Debye-Ang)
        XX     -96.0386     XY       0.0981     YY     -82.2740
        XZ      -0.9241     YZ     -13.5188     ZZ     -95.2162
    Octopole Moments (Debye-Ang^2)
       XXX     -24.4895    XXY     -85.0128    XYY      -3.7372
       YYY    -231.6779    XXZ      79.1968    XYZ      -1.2884
       YYZ      69.2871    XZZ      -0.0265    YZZ       5.0717
       ZZZ     258.1261
    Hexadecapole Moments (Debye-Ang^3)
      XXXX    -132.0002   XXXY     -71.9273   XXYY    -344.1655
      XYYY     -59.1678   YYYY   -1766.4042   XXXZ      63.5694
      XXYZ     248.5409   XYYZ       9.1058   YYYZ     633.1072
      XXZZ    -679.6333   XYZZ       4.9900   YYZZ    -678.5282
      XZZZ      26.7414   YZZZ     335.3121   ZZZZ   -3801.9083
 -----------------------------------------------------------------
 Total job time:  54.25s(wall), 1944.84s(cpu) 
 Tue Sep 26 17:50:17 2023

        *************************************************************
        *                                                           *
        *  Thank you very much for using Q-Chem.  Have a nice day.  *
        *                                                           *
        *************************************************************


0 sent ACK to 0 
now end server 0 ... 
cleanup process ... done
remove work dirs ./qchem1176822.0 -- ./qchem1176822.0
rm -rf ./qchem1176822.0
rm -rf ./qchem1176822
