You are running Q-Chem version: 5.4.0

#
# job setting
#
local host:  exp-2-46
current dir: /expanse/lustre/projects/csd626/rramji/aromodel/PTB7_fin/Hydrogenated_Impropers_Test
input file:  fin_bdt_Phi_40_Theta_310_fin_ftt_Hydrogenated_Improper.qcin
output file: 
nprocs     : 1
nthreads   : 64
#
# qchem installation setting
#
QC:          /cm/shared/apps/spack/cpu/opt/spack/linux-centos8-zen2/gcc-10.2.0/qchem-5.4-akfmr7b3t57bfs6qan3padb2wnb2i7cl
QCAUX:       /cm/shared/apps/spack/cpu/opt/spack/linux-centos8-zen2/gcc-10.2.0/qchem-5.4-akfmr7b3t57bfs6qan3padb2wnb2i7cl/qcaux
QCPROG:      /cm/shared/apps/spack/cpu/opt/spack/linux-centos8-zen2/gcc-10.2.0/qchem-5.4-akfmr7b3t57bfs6qan3padb2wnb2i7cl/exe/qcprog.exe
QCPROG_S:    /cm/shared/apps/spack/cpu/opt/spack/linux-centos8-zen2/gcc-10.2.0/qchem-5.4-akfmr7b3t57bfs6qan3padb2wnb2i7cl/exe/qcprog.exe_s
PARALLEL:    -DPARALLEL
QCMPI:       mpich
#
# qchem directory setting
#
qcrun:       qchem1935539
QCSCRATCH:   .
QCLOCALSCR:  
QCTMPDIR:    .
QCFILEPREF:  ./qchem1935539
QCSAVEDIR:   
workdirs:    ./qchem1935539
workdir0:    ./qchem1935539
partmpdirs =  
#
# parallel setting
#
QCRSH:           ssh
QCMPI:           mpich
QCMPIRUN:        /cm/shared/apps/spack/cpu/opt/spack/linux-centos8-zen2/gcc-10.2.0/qchem-5.4-akfmr7b3t57bfs6qan3padb2wnb2i7cl/bin/mpi/mpirun_qchem
QCMACHINEFILE:   ./qchem1935539/hostfile
exp-2-46

#
# env setting
#
exported envs:   QC QCAUX QCSCRATCH QCRUNNAME QCFILEPREF QCPROG QCPROG_S GUIFILE

Running Job 1 of 1 fin_bdt_Phi_40_Theta_310_fin_ftt_Hydrogenated_Improper.qcin
qchem fin_bdt_Phi_40_Theta_310_fin_ftt_Hydrogenated_Improper.qcin_1935539.0 ./qchem1935539/ 1
/cm/shared/apps/spack/cpu/opt/spack/linux-centos8-zen2/gcc-10.2.0/qchem-5.4-akfmr7b3t57bfs6qan3padb2wnb2i7cl/bin/mpi/mpirun_qchem -machinefile ./qchem1935539/hostfile -np 1 /cm/shared/apps/spack/cpu/opt/spack/linux-centos8-zen2/gcc-10.2.0/qchem-5.4-akfmr7b3t57bfs6qan3padb2wnb2i7cl/exe/qcprog.exe fin_bdt_Phi_40_Theta_310_fin_ftt_Hydrogenated_Improper.qcin_1935539.0 ./qchem1935539/

Process 0 of 1 is on exp-2-46 - thread support 0
initial socket setup ...start
initial socket setup ...done 
now start server 0 ... 
                  Welcome to Q-Chem
     A Quantum Leap Into The Future Of Chemistry


 Q-Chem 5.4, Q-Chem, Inc., Pleasanton, CA (2021)

 License issued to: University of California, San Diego (site)

 E. Epifanovsky,  A. T. B. Gilbert,  Xintian Feng,  Joonho Lee,  Yuezhi Mao,  
 N. Mardirossian,  P. Pokhilko,  A. White,  M. Wormit,  M. P. Coons,  
 A. L. Dempwolff,  Zhengting Gan,  D. Hait,  P. R. Horn,  L. D. Jacobson,  
 I. Kaliman,  J. Kussmann,  A. W. Lange,  Ka Un Lao,  D. S. Levine,  Jie Liu,  
 S. C. McKenzie,  A. F. Morrison,  K. Nanda,  F. Plasser,  D. R. Rehn,  
 M. L. Vidal,  Zhi-Qiang You,  Ying Zhu,  B. Alam,  B. Albrecht,  
 A. Aldossary,  E. Alguire,  J. H. Andersen,  D. Barton,  K. Begam,  A. Behn,  
 Y. A. Bernard,  E. J. Berquist,  H. Burton,  A. Carreras,  K. Carter-Fenk,  
 R. Chakraborty,  A. D. Chien,  K. D. Closser,  V. Cofer-Shabica,  
 S. Dasgupta,  Jia Deng,  M. de Wergifosse,  M. Diedenhofen,  Hainam Do,  
 S. Ehlert,  Po-Tung Fang,  S. Fatehi,  Qingguo Feng,  J. Gayvert,  
 Qinghui Ge,  G. Gidofalvi,  M. Goldey,  J. Gomes,  C. Gonzalez-Espinoza,  
 S. Gulania,  A. Gunina,  M. W. D. Hanson-Heine,  P. H. P. Harbach,  
 A. W. Hauser,  M. F. Herbst,  M. Hernandez Vera,  M. Hodecker,  
 Z. C. Holden,  S. Houck,  Xunkun Huang,  Kerwin Hui,  B. C. Huynh,  
 M. Ivanov,  Hyunjun Ji,  Hanjie Jiang,  B. Kaduk,  S. Kaehler,  
 K. Khistyaev,  Jaehoon Kim,  P. Klunzinger,  Z. Koczor-Benda,  
 Joong Hoon Koh,  D. Kosenkov,  L. Koulias,  T. Kowalczyk,  C. M. Krauter,  
 K. Kue,  A. Kunitsa,  T. Kus,  A. Landau,  K. V. Lawler,  D. Lefrancois,  
 S. Lehtola,  Rain Li,  Yi-Pei Li,  Jiashu Liang,  M. Liebenthal,  
 Hung-Hsuan Lin,  You-Sheng Lin,  Fenglai Liu,  Kuan-Yu Liu,  
 M. Loipersberger,  A. Luenser,  A. Manjanath,  P. Manohar,  E. Mansoor,  
 S. F. Manzer,  Shan-Ping Mao,  A. V. Marenich,  T. Markovich,  S. Mason,  
 S. A. Maurer,  P. F. McLaughlin,  M. F. S. J. Menger,  J.-M. Mewes,  
 S. A. Mewes,  P. Morgante,  J. W. Mullinax,  T. S. Nguyen-Beck,  
 K. J. Oosterbaan,  G. Paran,  Alexander C. Paul,  Suranjan K. Paul,  
 F. Pavosevic,  Zheng Pei,  S. Prager,  E. I. Proynov,  E. Ramos,  B. Rana,  
 A. E. Rask,  A. Rettig,  R. M. Richard,  F. Rob,  E. Rossomme,  T. Scheele,  
 M. Scheurer,  M. Schneider,  N. Sergueev,  S. M. Sharada,  W. Skomorowski,  
 D. W. Small,  C. J. Stein,  Yu-Chuan Su,  E. J. Sundstrom,  Zhen Tao,  
 J. Thirman,  T. Tsuchimochi,  N. M. Tubman,  S. P. Veccham,  O. Vydrov,  
 J. Wenzel,  J. Witte,  A. Yamada,  Kun Yao,  S. Yeganeh,  S. R. Yost,  
 A. Zech,  Igor Ying Zhang,  Xing Zhang,  Yu Zhang,  D. Zuev,  
 A. Aspuru-Guzik,  A. T. Bell,  N. A. Besley,  K. B. Bravaya,  B. R. Brooks,  
 D. Casanova,  Jeng-Da Chai,  S. Coriani,  C. J. Cramer,  
 A. E. DePrince, III,  R. A. DiStasio Jr.,  A. Dreuw,  B. D. Dunietz,  
 T. R. Furlani,  W. A. Goddard III,  S. Grimme,  S. Hammes-Schiffer,  
 T. Head-Gordon,  W. J. Hehre,  Chao-Ping Hsu,  T.-C. Jagau,  Yousung Jung,  
 A. Klamt,  Jing Kong,  D. S. Lambrecht,  WanZhen Liang,  N. J. Mayhall,  
 C. W. McCurdy,  J. B. Neaton,  C. Ochsenfeld,  J. A. Parkhill,  R. Peverati,  
 V. A. Rassolov,  Yihan Shao,  L. V. Slipchenko,  T. Stauch,  R. P. Steele,  
 J. E. Subotnik,  A. J. W. Thom,  A. Tkatchenko,  D. G. Truhlar,  
 T. Van Voorhis,  T. A. Wesolowski,  K. B. Whaley,  H. L. Woodcock III,  
 P. M. Zimmerman,  S. Faraji,  P. M. W. Gill,  M. Head-Gordon,  
 J. M. Herbert,  A. I. Krylov

 Contributors to earlier versions of Q-Chem not listed above: 
 R. D. Adamson,  B. Austin,  R. Baer,  J. Baker,  G. J. O. Beran,  
 K. Brandhorst,  S. T. Brown,  E. F. C. Byrd,  A. K. Chakraborty,  
 G. K. L. Chan,  Chun-Min Chang,  Yunqing Chen,  C.-L. Cheng,  
 Siu Hung Chien,  D. M. Chipman,  D. L. Crittenden,  H. Dachsel,  
 R. J. Doerksen,  A. D. Dutoi,  R. G. Edgar,  J. Fosso-Tande,  
 L. Fusti-Molnar,  D. Ghosh,  A. Ghysels,  A. Golubeva-Zadorozhnaya,  
 J. Gonthier,  M. S. Gordon,  S. R. Gwaltney,  G. Hawkins,  J. E. Herr,  
 A. Heyden,  S. Hirata,  E. G. Hohenstein,  G. Kedziora,  F. J. Keil,  
 C. Kelley,  Jihan Kim,  R. A. King,  R. Z. Khaliullin,  P. P. Korambath,  
 W. Kurlancheek,  A. Laurent,  A. M. Lee,  M. S. Lee,  S. V. Levchenko,  
 Ching Yeh Lin,  D. Liotard,  E. Livshits,  R. C. Lochan,  I. Lotan,  
 L. A. Martinez-Martinez,  P. E. Maslen,  N. Nair,  D. P. O'Neill,  
 D. Neuhauser,  E. Neuscamman,  C. M. Oana,  R. Olivares-Amaya,  R. Olson,  
 T. M. Perrine,  B. Peters,  P. A. Pieniazek,  A. Prociuk,  Y. M. Rhee,  
 J. Ritchie,  M. A. Rohrdanz,  E. Rosta,  N. J. Russ,  H. F. Schaefer III,  
 M. W. Schmidt,  N. E. Schultz,  S. Sharma,  N. Shenvi,  C. D. Sherrill,  
 A. C. Simmonett,  A. Sodt,  T. Stein,  D. Stuck,  K. S. Thanthiriwatte,  
 V. Vanovschi,  L. Vogt,  Tao Wang,  A. Warshel,  M. A. Watson,  
 C. F. Williams,  Q. Wu,  X. Xu,  Jun Yang,  W. Zhang,  Yan Zhao

 Please cite Q-Chem as follows:
 Y. Shao et al., Mol. Phys. 113, 184-215 (2015)
 DOI: 10.1080/00268976.2014.952696

 Q-Chem 5.4.0 for Intel X86 EM64T Linux

 Parts of Q-Chem use Armadillo 9.800.1 (Horizon Scraper).
 http://arma.sourceforge.net/

 Q-Chem begins on Sun Sep 24 17:21:06 2023  

 Host: 
0

     Scratch files written to ./qchem1935539//
 May1621 |scratch|qcdevops|jenkins|workspace|build_RNUM    
 Parallel job on  1  processors
 Processing $rem in /cm/shared/apps/spack/cpu/opt/spack/linux-centos8-zen2/gcc-10.2.0/qchem-5.4-akfmr7b3t57bfs6qan3padb2wnb2i7cl/config/preferences:
 Processing $rem in /home/rramji/.qchemrc:
 Symmetry turned off for PCM/SM12/SMD calculation
 Core orbitals will be frozen

 Checking the input file for inconsistencies... 	...done.

 Q-Chem warning in module forms1/BasisType.C, line 2236:

 You are not using the predefined 5D/6D in this basis set.


--------------------------------------------------------------
User input:
--------------------------------------------------------------
$molecule
0 1
C	-0.572527	-0.628442	1.024882
S	0.007373	0.059158	2.535582
C	1.019073	1.266558	1.752482
C	0.011273	0.067358	-0.039818
C	0.902773	1.132158	0.346582
C	-0.030127	0.015358	-1.461218
C	0.782773	0.984358	-2.082018
S	1.582073	1.942158	-0.940818
C	0.949873	1.176358	-3.535118
O	0.352173	0.459358	-4.325418
O	1.777173	2.157258	-3.979518
F	-0.743327	-0.840542	-2.221418
C	2.015573	2.425458	-5.310118
H	2.726273	3.271558	-5.345418
H	1.082773	2.699958	-5.850718
H	2.453473	1.548958	-5.837018
C	-0.572527	-2.063642	1.024882
H	0.115173	-2.072642	0.192182
H	0.067973	-2.747542	1.561882
H	-1.300927	-2.588042	0.424182
H	1.610573	1.971358	2.346382
$end

$rem
JOBTYPE		SP
EXCHANGE	HF
CORRELATION	pRIMP2
BASIS		cc-pvtz
METHOD		rimp2
AUX_BASIS	rimp2-cc-pvtz
SOLVENT_METHOD	PCM
PURECART	11111
SYMMETRY	false
MEM_TOTAL	110000
SCF_CONVERGENCE = 6
THRESH=10
GUI = 2
$end



$solvent
dielectric 4.90
$end
--------------------------------------------------------------
 ----------------------------------------------------------------
             Standard Nuclear Orientation (Angstroms)
    I     Atom           X                Y                Z
 ----------------------------------------------------------------
    1      C      -0.5725270000    -0.6284420000     1.0248820000
    2      S       0.0073730000     0.0591580000     2.5355820000
    3      C       1.0190730000     1.2665580000     1.7524820000
    4      C       0.0112730000     0.0673580000    -0.0398180000
    5      C       0.9027730000     1.1321580000     0.3465820000
    6      C      -0.0301270000     0.0153580000    -1.4612180000
    7      C       0.7827730000     0.9843580000    -2.0820180000
    8      S       1.5820730000     1.9421580000    -0.9408180000
    9      C       0.9498730000     1.1763580000    -3.5351180000
   10      O       0.3521730000     0.4593580000    -4.3254180000
   11      O       1.7771730000     2.1572580000    -3.9795180000
   12      F      -0.7433270000    -0.8405420000    -2.2214180000
   13      C       2.0155730000     2.4254580000    -5.3101180000
   14      H       2.7262730000     3.2715580000    -5.3454180000
   15      H       1.0827730000     2.6999580000    -5.8507180000
   16      H       2.4534730000     1.5489580000    -5.8370180000
   17      C      -0.5725270000    -2.0636420000     1.0248820000
   18      H       0.1151730000    -2.0726420000     0.1921820000
   19      H       0.0679730000    -2.7475420000     1.5618820000
   20      H      -1.3009270000    -2.5880420000     0.4241820000
   21      H       1.6105730000     1.9713580000     2.3463820000
 ----------------------------------------------------------------
 Nuclear Repulsion Energy =        1094.22454384 hartrees
 There are       59 alpha and       59 beta electrons
 Requested basis set is cc-pVTZ
 There are 186 shells and 526 basis functions

 Total QAlloc Memory Limit 110000 MB
 Mega-Array Size       188 MB
 MEM_STATIC part       192 MB
 Discretize the solute cavity surface with Lebedev spheres
	Using 110 Lebedev grid points for each H atom
	Using 194 Lebedev grid points for other atoms
	Atomic van der Waals radii will be scaled by 1.20
 Remove points where switching function is < 1.0e-08
 Keep 1538 surface tesserae and discard 1948 interior tesserae
 Molecular Surface Area = 240.647 Angst**2
 Requested basis set is rimp2-cc-pVTZ
 There are 410 shells and 1426 basis functions
 A cutoff of  1.0D-10 yielded  11717 shell pairs
 There are     92021 function pairs (    120485 Cartesian)
 Smallest overlap matrix eigenvalue = 6.23E-05

 Scale SEOQF with 1.000000e-01/1.000000e-01/1.000000e-02

 Standard Electronic Orientation quadrupole field applied
 Nucleus-field energy     =     0.0000000131 hartrees
 Guess from superposition of atomic densities
 Warning:  Energy on first SCF cycle will be non-variational
 SAD guess density has 118.000000 electrons

 -----------------------------------------------------------------------
  General SCF calculation program by
  Eric Jon Sundstrom, Paul Horn, Yuezhi Mao, Dmitri Zuev, Alec White,
  David Stuck, Shaama M.S., Shane Yost, Joonho Lee, David Small,
  Daniel Levine, Susi Lehtola, Hugh Burton, Evgeny Epifanovsky,
  Bang C. Huynh
 -----------------------------------------------------------------------
 Hartree-Fock
 using 64 threads for integral computing
 -------------------------------------------------------
 OpenMP Integral computing Module                
 Release: version 1.0, May 2013, Q-Chem Inc. Pittsburgh 
 -------------------------------------------------------
 A restricted SCF calculation will be
 performed using DIIS
 SCF converges when DIIS error is below 1.0e-06
 ---------------------------------------
  Cycle       Energy         DIIS error
 ---------------------------------------
    1   -1394.6182470504      2.53e-02  
    2   -1388.9754836758      2.51e-03  
    3   -1389.1479856158      1.59e-03  
    4   -1389.2111885977      3.49e-04  
    5   -1389.2169119380      1.11e-04  
    6   -1389.2175844677      3.66e-05  
    7   -1389.2177294470      1.86e-05  
    8   -1389.2177810245      7.82e-06  
    9   -1389.2177941764      3.84e-06  
   10   -1389.2177967193      1.53e-06  
   11   -1389.2177971885      6.13e-07  Convergence criterion met
 ---------------------------------------
 SCF time:   CPU 1705.99s  wall 51.00s 

************** Final PCM Free Energy Summary **************
 G_electrostatic  =      -0.01251489 hartree =      -7.85321304 kcal/mol
 G_cavitation     =       0.00000000 hartree =       0.00000000 kcal/mol
 G_dispersion     =       0.00000000 hartree =       0.00000000 kcal/mol
 G_repulsion      =       0.00000000 hartree =       0.00000000 kcal/mol
 --------------------------------------------------
 Non-electrostatic Free Energy =       0.00000000 hartree =       0.00000000 kcal/mol
 Total                         =      -0.01251489 hartree =      -7.85321304 kcal/mol
 --------------------------------------------------
 SCF Energy (H0 + V/2)                       =   -1389.21779719 
 Solute Internal Energy (H0)                 =   -1389.20528230 
 Total Free Energy (H0 + V/2 + non-elec)     =   -1389.21779719 hartree
                                             = -871747.32501752 kcal/mol
***********************************************************

 SCF   energy in the final basis set =    -1389.2177971885
 Total energy in the final basis set =    -1389.2177971885


 --------------------------------------------------------------
  Generalized many-body perturbation theory program
  by Joonho Lee, Fazle Rob, Xintian Feng, Evgeny Epifanovsky

 No regularization used 
 (reg. param. = 0.0000e+00)
  (P|Q)^-1/2 Time:  CPU 28.83 s  wall 0.46 s

 In RI-MP2 calculation: 
 # of frozen core orbitals: 22

 Components of the RIMP2 correlation energy:
        aaaa    correlation energy =        -0.3315536897 a.u.
        abab    correlation energy =        -1.8541596863 a.u.
        bbbb    correlation energy =        -0.3315536897 a.u.
        non-Brillouin singles      =        -0.0000000000 a.u.
        total same-spin energy     =        -0.6631073794 a.u.
        total opposite-spin energy =        -1.8541596863 a.u.

 Total  RIMP2   correlation energy =        -2.5172670658 a.u.
        RIMP2         total energy =     -1391.7350642542 a.u.

 RI-MP2 Energy Time:  CPU 191.08 s  wall 3.33 s
 
 --------------------------------------------------------------
 
                    Orbital Energies (a.u.)
 --------------------------------------------------------------
 
 Alpha MOs
 -- Occupied --
-92.0078 -91.9943 -26.3344 -20.6117 -20.5495 -11.4097 -11.3750 -11.2976
-11.2959 -11.2933 -11.2901 -11.2884 -11.2722 -11.2237  -9.0065  -8.9982
 -6.6872  -6.6865  -6.6863  -6.6794  -6.6788  -6.6775  -1.6475  -1.4714
 -1.3668  -1.2306  -1.1499  -1.0692  -1.0276  -1.0032  -0.9696  -0.9078
 -0.8647  -0.7956  -0.7864  -0.7686  -0.7271  -0.7159  -0.6968  -0.6783
 -0.6774  -0.6700  -0.6076  -0.6053  -0.5968  -0.5912  -0.5866  -0.5625
 -0.5334  -0.5261  -0.5068  -0.4851  -0.4727  -0.4634  -0.4604  -0.4589
 -0.3864  -0.3441  -0.2803
 -- Virtual --
  0.0235   0.1155   0.1401   0.1557   0.1588   0.1711   0.1843   0.1958
  0.1996   0.2139   0.2189   0.2282   0.2291   0.2342   0.2598   0.2717
  0.2863   0.2990   0.3142   0.3371   0.3478   0.3524   0.3704   0.3770
  0.3807   0.3898   0.3987   0.4072   0.4197   0.4229   0.4369   0.4420
  0.4503   0.4603   0.4669   0.4817   0.5017   0.5038   0.5064   0.5189
  0.5302   0.5322   0.5420   0.5536   0.5613   0.5625   0.5796   0.5904
  0.5973   0.6020   0.6030   0.6120   0.6187   0.6265   0.6300   0.6336
  0.6379   0.6403   0.6515   0.6573   0.6689   0.6833   0.6918   0.6974
  0.7106   0.7186   0.7362   0.7578   0.7681   0.7779   0.7821   0.7986
  0.8017   0.8123   0.8275   0.8367   0.8468   0.8598   0.8740   0.8838
  0.8961   0.9032   0.9176   0.9266   0.9411   0.9427   0.9602   0.9736
  0.9899   0.9993   1.0058   1.0117   1.0219   1.0415   1.0540   1.0591
  1.0685   1.0711   1.0777   1.0894   1.1001   1.1128   1.1184   1.1443
  1.1554   1.1588   1.1645   1.1729   1.1816   1.1962   1.2051   1.2153
  1.2235   1.2334   1.2454   1.2594   1.2625   1.2900   1.2954   1.3083
  1.3174   1.3430   1.3466   1.3548   1.3599   1.3725   1.3802   1.4002
  1.4172   1.4315   1.4516   1.4528   1.4738   1.4891   1.4905   1.5047
  1.5128   1.5179   1.5343   1.5497   1.5614   1.5710   1.5954   1.6090
  1.6139   1.6463   1.6568   1.6612   1.6787   1.6999   1.7205   1.7282
  1.7397   1.7601   1.7739   1.8099   1.8257   1.8332   1.8366   1.8604
  1.8691   1.8707   1.8776   1.9285   1.9330   1.9449   1.9483   1.9792
  1.9977   2.0242   2.0286   2.0402   2.0556   2.0997   2.1074   2.1211
  2.1421   2.1515   2.1577   2.1698   2.1937   2.1961   2.2131   2.2310
  2.2491   2.2573   2.2683   2.2807   2.2882   2.3020   2.3346   2.3386
  2.3634   2.3804   2.4054   2.4162   2.4486   2.4621   2.4860   2.5259
  2.5322   2.5342   2.5715   2.5839   2.5947   2.6046   2.6178   2.6256
  2.6300   2.6575   2.6669   2.6851   2.6912   2.6998   2.7252   2.7350
  2.7399   2.7420   2.7597   2.7674   2.7806   2.8036   2.8139   2.8388
  2.8580   2.8662   2.8785   2.8877   2.9087   2.9201   2.9430   2.9537
  2.9764   2.9947   3.0005   3.0265   3.0419   3.0438   3.0463   3.0569
  3.0748   3.0915   3.1012   3.1069   3.1183   3.1484   3.1578   3.1621
  3.1845   3.1903   3.1983   3.2015   3.2101   3.2204   3.2389   3.2476
  3.2566   3.2692   3.2817   3.2870   3.2998   3.3080   3.3115   3.3244
  3.3276   3.3470   3.3626   3.3639   3.3734   3.3900   3.4084   3.4197
  3.4301   3.4433   3.4465   3.4585   3.4677   3.4883   3.4969   3.5069
  3.5185   3.5328   3.5488   3.5531   3.5638   3.5806   3.5844   3.5976
  3.6058   3.6151   3.6326   3.6412   3.6459   3.6635   3.6658   3.6747
  3.6779   3.6882   3.7082   3.7120   3.7281   3.7296   3.7398   3.7476
  3.7528   3.7829   3.7971   3.8129   3.8200   3.8307   3.8393   3.8459
  3.8665   3.8701   3.8829   3.8993   3.9050   3.9238   3.9413   3.9452
  3.9665   3.9684   3.9836   4.0118   4.0288   4.0443   4.0545   4.0567
  4.0650   4.0836   4.0857   4.1056   4.1152   4.1528   4.1724   4.1840
  4.2109   4.2268   4.2548   4.2626   4.2928   4.3006   4.3113   4.3481
  4.3623   4.3703   4.3769   4.3890   4.4004   4.4078   4.4293   4.4486
  4.4768   4.4955   4.5022   4.5200   4.5414   4.5695   4.5805   4.5919
  4.6370   4.6430   4.6631   4.6677   4.6755   4.7041   4.7172   4.7314
  4.7744   4.7795   4.7973   4.8215   4.8448   4.8805   4.9046   4.9264
  4.9704   5.0102   5.0121   5.0286   5.0747   5.0970   5.1083   5.1623
  5.1775   5.1972   5.2049   5.2230   5.2546   5.2593   5.3019   5.3430
  5.3554   5.3696   5.4012   5.4142   5.4703   5.4732   5.4856   5.5170
  5.5383   5.5811   5.6080   5.6181   5.6372   5.6863   5.7243   5.8012
  5.8261   5.8382   5.8407   5.9006   5.9497   5.9695   5.9718   5.9834
  6.0297   6.1079   6.1282   6.1339   6.1855   6.3090   6.3599   6.3852
  6.4547   6.5048   6.5569   6.6617   6.6774   6.7317   6.7406   6.8609
  6.8821   6.9903   7.1789   7.2105   7.3270   7.3726   7.3755   7.4267
  7.4630   7.4864   7.5179   7.5490   7.6047   7.7707   7.8313   7.9020
  8.0030   8.1146   8.3676   8.9291   9.0084   9.3632   9.4973   9.6915
 10.2208  11.2209  11.8241  11.9279  12.3302  12.6240  13.1888  13.5375
 13.8375  14.0998  14.3173
 --------------------------------------------------------------
 
          Ground-State Mulliken Net Atomic Charges

     Atom                 Charge (a.u.)
  ----------------------------------------
      1 C                    -0.025520
      2 S                     0.103307
      3 C                    -0.239140
      4 C                    -0.060324
      5 C                    -0.010419
      6 C                     0.347494
      7 C                    -0.152728
      8 S                     0.044608
      9 C                     0.457479
     10 O                    -0.451518
     11 O                    -0.298156
     12 F                    -0.211770
     13 C                    -0.054614
     14 H                     0.116500
     15 H                     0.084381
     16 H                     0.084073
     17 C                    -0.374821
     18 H                     0.132872
     19 H                     0.164927
     20 H                     0.132461
     21 H                     0.210907
  ----------------------------------------
  Sum of atomic charges =     0.000000

 -----------------------------------------------------------------
                    Cartesian Multipole Moments
 -----------------------------------------------------------------
    Charge (ESU x 10^10)
                -0.0000
    Dipole Moment (Debye)
         X       2.6467      Y       1.0063      Z       2.9285
       Tot       4.0736
    Quadrupole Moments (Debye-Ang)
        XX     -92.9188     XY       4.1305     YY     -86.9827
        XZ      -5.6766     YZ      -8.3856     ZZ     -96.1086
    Octopole Moments (Debye-Ang^2)
       XXX    -163.5095    XXY     -50.5777    XYY     -42.6112
       YYY    -179.8002    XXZ      70.3539    XYZ     -11.8838
       YYZ      70.1079    XZZ       4.8541    YZZ      10.3610
       ZZZ     254.0138
    Hexadecapole Moments (Debye-Ang^3)
      XXXX    -748.5223   XXXY    -383.5528   XXYY    -303.1521
      XYYY    -374.5326   YYYY   -1200.1667   XXXZ     429.8535
      XXYZ     165.4044   XYYZ     121.7686   YYYZ     533.0045
      XXZZ    -665.2286   XYZZ       4.2997   YYZZ    -692.1550
      XZZZ     186.3602   YZZZ     262.8456   ZZZZ   -3771.1387
 -----------------------------------------------------------------
 Total job time:  56.22s(wall), 1962.52s(cpu) 
 Sun Sep 24 17:22:02 2023

        *************************************************************
        *                                                           *
        *  Thank you very much for using Q-Chem.  Have a nice day.  *
        *                                                           *
        *************************************************************


0 sent ACK to 0 
now end server 0 ... 
cleanup process ... done
remove work dirs ./qchem1935539.0 -- ./qchem1935539.0
rm -rf ./qchem1935539.0
rm -rf ./qchem1935539
