You are running Q-Chem version: 5.4.0

#
# job setting
#
local host:  exp-4-45
current dir: /expanse/lustre/projects/csd626/rramji/aromodel/PTB7_fin/Hydrogenated_Impropers_Test
input file:  fin_bdt_Phi_15_Theta_180_fin_ftt_Hydrogenated_Improper.qcin
output file: 
nprocs     : 1
nthreads   : 64
#
# qchem installation setting
#
QC:          /cm/shared/apps/spack/cpu/opt/spack/linux-centos8-zen2/gcc-10.2.0/qchem-5.4-akfmr7b3t57bfs6qan3padb2wnb2i7cl
QCAUX:       /cm/shared/apps/spack/cpu/opt/spack/linux-centos8-zen2/gcc-10.2.0/qchem-5.4-akfmr7b3t57bfs6qan3padb2wnb2i7cl/qcaux
QCPROG:      /cm/shared/apps/spack/cpu/opt/spack/linux-centos8-zen2/gcc-10.2.0/qchem-5.4-akfmr7b3t57bfs6qan3padb2wnb2i7cl/exe/qcprog.exe
QCPROG_S:    /cm/shared/apps/spack/cpu/opt/spack/linux-centos8-zen2/gcc-10.2.0/qchem-5.4-akfmr7b3t57bfs6qan3padb2wnb2i7cl/exe/qcprog.exe_s
PARALLEL:    -DPARALLEL
QCMPI:       mpich
#
# qchem directory setting
#
qcrun:       qchem2468386
QCSCRATCH:   .
QCLOCALSCR:  
QCTMPDIR:    .
QCFILEPREF:  ./qchem2468386
QCSAVEDIR:   
workdirs:    ./qchem2468386
workdir0:    ./qchem2468386
partmpdirs =  
#
# parallel setting
#
QCRSH:           ssh
QCMPI:           mpich
QCMPIRUN:        /cm/shared/apps/spack/cpu/opt/spack/linux-centos8-zen2/gcc-10.2.0/qchem-5.4-akfmr7b3t57bfs6qan3padb2wnb2i7cl/bin/mpi/mpirun_qchem
QCMACHINEFILE:   ./qchem2468386/hostfile
exp-4-45

#
# env setting
#
exported envs:   QC QCAUX QCSCRATCH QCRUNNAME QCFILEPREF QCPROG QCPROG_S GUIFILE

Running Job 1 of 1 fin_bdt_Phi_15_Theta_180_fin_ftt_Hydrogenated_Improper.qcin
qchem fin_bdt_Phi_15_Theta_180_fin_ftt_Hydrogenated_Improper.qcin_2468386.0 ./qchem2468386/ 1
/cm/shared/apps/spack/cpu/opt/spack/linux-centos8-zen2/gcc-10.2.0/qchem-5.4-akfmr7b3t57bfs6qan3padb2wnb2i7cl/bin/mpi/mpirun_qchem -machinefile ./qchem2468386/hostfile -np 1 /cm/shared/apps/spack/cpu/opt/spack/linux-centos8-zen2/gcc-10.2.0/qchem-5.4-akfmr7b3t57bfs6qan3padb2wnb2i7cl/exe/qcprog.exe fin_bdt_Phi_15_Theta_180_fin_ftt_Hydrogenated_Improper.qcin_2468386.0 ./qchem2468386/

Process 0 of 1 is on exp-4-45 - thread support 0
initial socket setup ...start
initial socket setup ...done 
now start server 0 ... 
                  Welcome to Q-Chem
     A Quantum Leap Into The Future Of Chemistry


 Q-Chem 5.4, Q-Chem, Inc., Pleasanton, CA (2021)

 License issued to: University of California, San Diego (site)

 E. Epifanovsky,  A. T. B. Gilbert,  Xintian Feng,  Joonho Lee,  Yuezhi Mao,  
 N. Mardirossian,  P. Pokhilko,  A. White,  M. Wormit,  M. P. Coons,  
 A. L. Dempwolff,  Zhengting Gan,  D. Hait,  P. R. Horn,  L. D. Jacobson,  
 I. Kaliman,  J. Kussmann,  A. W. Lange,  Ka Un Lao,  D. S. Levine,  Jie Liu,  
 S. C. McKenzie,  A. F. Morrison,  K. Nanda,  F. Plasser,  D. R. Rehn,  
 M. L. Vidal,  Zhi-Qiang You,  Ying Zhu,  B. Alam,  B. Albrecht,  
 A. Aldossary,  E. Alguire,  J. H. Andersen,  D. Barton,  K. Begam,  A. Behn,  
 Y. A. Bernard,  E. J. Berquist,  H. Burton,  A. Carreras,  K. Carter-Fenk,  
 R. Chakraborty,  A. D. Chien,  K. D. Closser,  V. Cofer-Shabica,  
 S. Dasgupta,  Jia Deng,  M. de Wergifosse,  M. Diedenhofen,  Hainam Do,  
 S. Ehlert,  Po-Tung Fang,  S. Fatehi,  Qingguo Feng,  J. Gayvert,  
 Qinghui Ge,  G. Gidofalvi,  M. Goldey,  J. Gomes,  C. Gonzalez-Espinoza,  
 S. Gulania,  A. Gunina,  M. W. D. Hanson-Heine,  P. H. P. Harbach,  
 A. W. Hauser,  M. F. Herbst,  M. Hernandez Vera,  M. Hodecker,  
 Z. C. Holden,  S. Houck,  Xunkun Huang,  Kerwin Hui,  B. C. Huynh,  
 M. Ivanov,  Hyunjun Ji,  Hanjie Jiang,  B. Kaduk,  S. Kaehler,  
 K. Khistyaev,  Jaehoon Kim,  P. Klunzinger,  Z. Koczor-Benda,  
 Joong Hoon Koh,  D. Kosenkov,  L. Koulias,  T. Kowalczyk,  C. M. Krauter,  
 K. Kue,  A. Kunitsa,  T. Kus,  A. Landau,  K. V. Lawler,  D. Lefrancois,  
 S. Lehtola,  Rain Li,  Yi-Pei Li,  Jiashu Liang,  M. Liebenthal,  
 Hung-Hsuan Lin,  You-Sheng Lin,  Fenglai Liu,  Kuan-Yu Liu,  
 M. Loipersberger,  A. Luenser,  A. Manjanath,  P. Manohar,  E. Mansoor,  
 S. F. Manzer,  Shan-Ping Mao,  A. V. Marenich,  T. Markovich,  S. Mason,  
 S. A. Maurer,  P. F. McLaughlin,  M. F. S. J. Menger,  J.-M. Mewes,  
 S. A. Mewes,  P. Morgante,  J. W. Mullinax,  T. S. Nguyen-Beck,  
 K. J. Oosterbaan,  G. Paran,  Alexander C. Paul,  Suranjan K. Paul,  
 F. Pavosevic,  Zheng Pei,  S. Prager,  E. I. Proynov,  E. Ramos,  B. Rana,  
 A. E. Rask,  A. Rettig,  R. M. Richard,  F. Rob,  E. Rossomme,  T. Scheele,  
 M. Scheurer,  M. Schneider,  N. Sergueev,  S. M. Sharada,  W. Skomorowski,  
 D. W. Small,  C. J. Stein,  Yu-Chuan Su,  E. J. Sundstrom,  Zhen Tao,  
 J. Thirman,  T. Tsuchimochi,  N. M. Tubman,  S. P. Veccham,  O. Vydrov,  
 J. Wenzel,  J. Witte,  A. Yamada,  Kun Yao,  S. Yeganeh,  S. R. Yost,  
 A. Zech,  Igor Ying Zhang,  Xing Zhang,  Yu Zhang,  D. Zuev,  
 A. Aspuru-Guzik,  A. T. Bell,  N. A. Besley,  K. B. Bravaya,  B. R. Brooks,  
 D. Casanova,  Jeng-Da Chai,  S. Coriani,  C. J. Cramer,  
 A. E. DePrince, III,  R. A. DiStasio Jr.,  A. Dreuw,  B. D. Dunietz,  
 T. R. Furlani,  W. A. Goddard III,  S. Grimme,  S. Hammes-Schiffer,  
 T. Head-Gordon,  W. J. Hehre,  Chao-Ping Hsu,  T.-C. Jagau,  Yousung Jung,  
 A. Klamt,  Jing Kong,  D. S. Lambrecht,  WanZhen Liang,  N. J. Mayhall,  
 C. W. McCurdy,  J. B. Neaton,  C. Ochsenfeld,  J. A. Parkhill,  R. Peverati,  
 V. A. Rassolov,  Yihan Shao,  L. V. Slipchenko,  T. Stauch,  R. P. Steele,  
 J. E. Subotnik,  A. J. W. Thom,  A. Tkatchenko,  D. G. Truhlar,  
 T. Van Voorhis,  T. A. Wesolowski,  K. B. Whaley,  H. L. Woodcock III,  
 P. M. Zimmerman,  S. Faraji,  P. M. W. Gill,  M. Head-Gordon,  
 J. M. Herbert,  A. I. Krylov

 Contributors to earlier versions of Q-Chem not listed above: 
 R. D. Adamson,  B. Austin,  R. Baer,  J. Baker,  G. J. O. Beran,  
 K. Brandhorst,  S. T. Brown,  E. F. C. Byrd,  A. K. Chakraborty,  
 G. K. L. Chan,  Chun-Min Chang,  Yunqing Chen,  C.-L. Cheng,  
 Siu Hung Chien,  D. M. Chipman,  D. L. Crittenden,  H. Dachsel,  
 R. J. Doerksen,  A. D. Dutoi,  R. G. Edgar,  J. Fosso-Tande,  
 L. Fusti-Molnar,  D. Ghosh,  A. Ghysels,  A. Golubeva-Zadorozhnaya,  
 J. Gonthier,  M. S. Gordon,  S. R. Gwaltney,  G. Hawkins,  J. E. Herr,  
 A. Heyden,  S. Hirata,  E. G. Hohenstein,  G. Kedziora,  F. J. Keil,  
 C. Kelley,  Jihan Kim,  R. A. King,  R. Z. Khaliullin,  P. P. Korambath,  
 W. Kurlancheek,  A. Laurent,  A. M. Lee,  M. S. Lee,  S. V. Levchenko,  
 Ching Yeh Lin,  D. Liotard,  E. Livshits,  R. C. Lochan,  I. Lotan,  
 L. A. Martinez-Martinez,  P. E. Maslen,  N. Nair,  D. P. O'Neill,  
 D. Neuhauser,  E. Neuscamman,  C. M. Oana,  R. Olivares-Amaya,  R. Olson,  
 T. M. Perrine,  B. Peters,  P. A. Pieniazek,  A. Prociuk,  Y. M. Rhee,  
 J. Ritchie,  M. A. Rohrdanz,  E. Rosta,  N. J. Russ,  H. F. Schaefer III,  
 M. W. Schmidt,  N. E. Schultz,  S. Sharma,  N. Shenvi,  C. D. Sherrill,  
 A. C. Simmonett,  A. Sodt,  T. Stein,  D. Stuck,  K. S. Thanthiriwatte,  
 V. Vanovschi,  L. Vogt,  Tao Wang,  A. Warshel,  M. A. Watson,  
 C. F. Williams,  Q. Wu,  X. Xu,  Jun Yang,  W. Zhang,  Yan Zhao

 Please cite Q-Chem as follows:
 Y. Shao et al., Mol. Phys. 113, 184-215 (2015)
 DOI: 10.1080/00268976.2014.952696

 Q-Chem 5.4.0 for Intel X86 EM64T Linux

 Parts of Q-Chem use Armadillo 9.800.1 (Horizon Scraper).
 http://arma.sourceforge.net/

 Q-Chem begins on Tue Sep 26 18:05:10 2023  

 Host: 
0

     Scratch files written to ./qchem2468386//
 May1621 |scratch|qcdevops|jenkins|workspace|build_RNUM    
 Parallel job on  1  processors
 Processing $rem in /cm/shared/apps/spack/cpu/opt/spack/linux-centos8-zen2/gcc-10.2.0/qchem-5.4-akfmr7b3t57bfs6qan3padb2wnb2i7cl/config/preferences:
 Processing $rem in /home/rramji/.qchemrc:
 Symmetry turned off for PCM/SM12/SMD calculation
 Core orbitals will be frozen

 Checking the input file for inconsistencies... 	...done.

 Q-Chem warning in module forms1/BasisType.C, line 2236:

 You are not using the predefined 5D/6D in this basis set.


--------------------------------------------------------------
User input:
--------------------------------------------------------------
$molecule
0 1
C	-0.228825	-0.806326	1.022665
S	0.006075	0.061874	2.533365
C	0.412775	1.583774	1.750265
C	0.006175	0.070974	-0.042035
C	0.364175	1.412774	0.344365
C	-0.009325	0.006374	-1.463435
C	0.317875	1.228174	-2.084235
S	0.637475	2.434074	-0.943035
C	0.388275	1.472774	-3.537335
O	0.149475	0.570274	-4.327635
O	0.723475	2.711374	-3.981735
F	-0.293925	-1.070726	-2.223635
C	0.826175	3.055274	-5.312335
H	1.112675	4.122374	-5.347635
H	-0.135225	2.909774	-5.852935
H	1.593475	2.445874	-5.839235
C	-0.228825	-2.241526	1.022665
H	-1.308725	-2.250526	1.031165
H	-0.229225	-2.925426	0.186765
H	-0.220825	-2.765926	1.966765
H	0.650975	2.472474	2.344165
$end

$rem
JOBTYPE		SP
EXCHANGE	HF
CORRELATION	pRIMP2
BASIS		cc-pvtz
METHOD		rimp2
AUX_BASIS	rimp2-cc-pvtz
SOLVENT_METHOD	PCM
PURECART	11111
SYMMETRY	false
MEM_TOTAL	110000
SCF_CONVERGENCE = 6
THRESH=10
GUI = 2
$end



$solvent
dielectric 4.90
$end
--------------------------------------------------------------
 ----------------------------------------------------------------
             Standard Nuclear Orientation (Angstroms)
    I     Atom           X                Y                Z
 ----------------------------------------------------------------
    1      C      -0.2288250000    -0.8063260000     1.0226650000
    2      S       0.0060750000     0.0618740000     2.5333650000
    3      C       0.4127750000     1.5837740000     1.7502650000
    4      C       0.0061750000     0.0709740000    -0.0420350000
    5      C       0.3641750000     1.4127740000     0.3443650000
    6      C      -0.0093250000     0.0063740000    -1.4634350000
    7      C       0.3178750000     1.2281740000    -2.0842350000
    8      S       0.6374750000     2.4340740000    -0.9430350000
    9      C       0.3882750000     1.4727740000    -3.5373350000
   10      O       0.1494750000     0.5702740000    -4.3276350000
   11      O       0.7234750000     2.7113740000    -3.9817350000
   12      F      -0.2939250000    -1.0707260000    -2.2236350000
   13      C       0.8261750000     3.0552740000    -5.3123350000
   14      H       1.1126750000     4.1223740000    -5.3476350000
   15      H      -0.1352250000     2.9097740000    -5.8529350000
   16      H       1.5934750000     2.4458740000    -5.8392350000
   17      C      -0.2288250000    -2.2415260000     1.0226650000
   18      H      -1.3087250000    -2.2505260000     1.0311650000
   19      H      -0.2292250000    -2.9254260000     0.1867650000
   20      H      -0.2208250000    -2.7659260000     1.9667650000
   21      H       0.6509750000     2.4724740000     2.3441650000
 ----------------------------------------------------------------
 Nuclear Repulsion Energy =        1089.20147834 hartrees
 There are       59 alpha and       59 beta electrons
 Requested basis set is cc-pVTZ
 There are 186 shells and 526 basis functions

 Total QAlloc Memory Limit 110000 MB
 Mega-Array Size       188 MB
 MEM_STATIC part       192 MB
 Discretize the solute cavity surface with Lebedev spheres
	Using 110 Lebedev grid points for each H atom
	Using 194 Lebedev grid points for other atoms
	Atomic van der Waals radii will be scaled by 1.20
 Remove points where switching function is < 1.0e-08
 Keep 1558 surface tesserae and discard 1928 interior tesserae
 Molecular Surface Area = 242.531 Angst**2
 Requested basis set is rimp2-cc-pVTZ
 There are 410 shells and 1426 basis functions
 A cutoff of  1.0D-10 yielded  11517 shell pairs
 There are     90583 function pairs (    118661 Cartesian)
 Smallest overlap matrix eigenvalue = 5.77E-05

 Scale SEOQF with 1.000000e-01/1.000000e-01/1.000000e-02

 Standard Electronic Orientation quadrupole field applied
 Nucleus-field energy     =     0.0000000177 hartrees
 Guess from superposition of atomic densities
 Warning:  Energy on first SCF cycle will be non-variational
 SAD guess density has 118.000000 electrons

 -----------------------------------------------------------------------
  General SCF calculation program by
  Eric Jon Sundstrom, Paul Horn, Yuezhi Mao, Dmitri Zuev, Alec White,
  David Stuck, Shaama M.S., Shane Yost, Joonho Lee, David Small,
  Daniel Levine, Susi Lehtola, Hugh Burton, Evgeny Epifanovsky,
  Bang C. Huynh
 -----------------------------------------------------------------------
 Hartree-Fock
 using 64 threads for integral computing
 -------------------------------------------------------
 OpenMP Integral computing Module                
 Release: version 1.0, May 2013, Q-Chem Inc. Pittsburgh 
 -------------------------------------------------------
 A restricted SCF calculation will be
 performed using DIIS
 SCF converges when DIIS error is below 1.0e-06
 ---------------------------------------
  Cycle       Energy         DIIS error
 ---------------------------------------
    1   -1394.5572470801      2.52e-02  
    2   -1389.0103077701      2.50e-03  
    3   -1389.1826497021      1.57e-03  
    4   -1389.2435999105      3.46e-04  
    5   -1389.2492498321      1.10e-04  
    6   -1389.2499039714      3.61e-05  
    7   -1389.2500425130      1.78e-05  
    8   -1389.2500864375      6.94e-06  
    9   -1389.2500954640      3.06e-06  
   10   -1389.2500968286      1.17e-06  
   11   -1389.2500970400      4.39e-07  Convergence criterion met
 ---------------------------------------
 SCF time:   CPU 1677.78s  wall 48.00s 

************** Final PCM Free Energy Summary **************
 G_electrostatic  =      -0.01397631 hartree =      -8.77026433 kcal/mol
 G_cavitation     =       0.00000000 hartree =       0.00000000 kcal/mol
 G_dispersion     =       0.00000000 hartree =       0.00000000 kcal/mol
 G_repulsion      =       0.00000000 hartree =       0.00000000 kcal/mol
 --------------------------------------------------
 Non-electrostatic Free Energy =       0.00000000 hartree =       0.00000000 kcal/mol
 Total                         =      -0.01397631 hartree =      -8.77026433 kcal/mol
 --------------------------------------------------
 SCF Energy (H0 + V/2)                       =   -1389.25009704 
 Solute Internal Energy (H0)                 =   -1389.23612073 
 Total Free Energy (H0 + V/2 + non-elec)     =   -1389.25009704 hartree
                                             = -871767.59348025 kcal/mol
***********************************************************

 SCF   energy in the final basis set =    -1389.2500970400
 Total energy in the final basis set =    -1389.2500970400


 --------------------------------------------------------------
  Generalized many-body perturbation theory program
  by Joonho Lee, Fazle Rob, Xintian Feng, Evgeny Epifanovsky

 No regularization used 
 (reg. param. = 0.0000e+00)
  (P|Q)^-1/2 Time:  CPU 34.24 s  wall 0.57 s

 In RI-MP2 calculation: 
 # of frozen core orbitals: 22

 Components of the RIMP2 correlation energy:
        aaaa    correlation energy =        -0.3289517905 a.u.
        abab    correlation energy =        -1.8458171428 a.u.
        bbbb    correlation energy =        -0.3289517905 a.u.
        non-Brillouin singles      =        -0.0000000000 a.u.
        total same-spin energy     =        -0.6579035810 a.u.
        total opposite-spin energy =        -1.8458171428 a.u.

 Total  RIMP2   correlation energy =        -2.5037207238 a.u.
        RIMP2         total energy =     -1391.7538177637 a.u.

 RI-MP2 Energy Time:  CPU 187.16 s  wall 3.75 s
 
 --------------------------------------------------------------
 
                    Orbital Energies (a.u.)
 --------------------------------------------------------------
 
 Alpha MOs
 -- Occupied --
-92.0067 -91.9876 -26.3342 -20.6089 -20.5447 -11.4056 -11.3763 -11.3185
-11.2912 -11.2869 -11.2865 -11.2752 -11.2664 -11.2343  -9.0054  -8.9919
 -6.6863  -6.6857  -6.6851  -6.6732  -6.6725  -6.6712  -1.6471  -1.4684
 -1.3631  -1.2258  -1.1466  -1.0669  -1.0272  -1.0062  -0.9673  -0.9114
 -0.8624  -0.7958  -0.7841  -0.7657  -0.7256  -0.7148  -0.6962  -0.6776
 -0.6760  -0.6668  -0.6093  -0.6026  -0.5917  -0.5873  -0.5854  -0.5583
 -0.5334  -0.5249  -0.5197  -0.4949  -0.4785  -0.4608  -0.4577  -0.4562
 -0.3889  -0.3466  -0.2716
 -- Virtual --
  0.0441   0.1219   0.1333   0.1559   0.1592   0.1702   0.1905   0.1971
  0.2046   0.2133   0.2147   0.2213   0.2335   0.2428   0.2657   0.2729
  0.2847   0.3102   0.3162   0.3375   0.3426   0.3636   0.3701   0.3777
  0.3824   0.3911   0.4038   0.4129   0.4184   0.4334   0.4378   0.4419
  0.4573   0.4670   0.4765   0.4941   0.5016   0.5032   0.5100   0.5401
  0.5413   0.5434   0.5487   0.5588   0.5629   0.5673   0.5760   0.5819
  0.5865   0.5983   0.6026   0.6097   0.6123   0.6190   0.6211   0.6372
  0.6437   0.6455   0.6522   0.6614   0.6702   0.6912   0.6983   0.7050
  0.7181   0.7314   0.7400   0.7573   0.7668   0.7806   0.7864   0.7993
  0.8072   0.8126   0.8292   0.8439   0.8556   0.8670   0.8787   0.8974
  0.9037   0.9180   0.9259   0.9278   0.9377   0.9548   0.9694   0.9783
  0.9905   0.9955   1.0037   1.0149   1.0351   1.0387   1.0407   1.0534
  1.0609   1.0738   1.0871   1.0935   1.0974   1.1067   1.1150   1.1221
  1.1292   1.1581   1.1596   1.1696   1.1725   1.1767   1.1941   1.2089
  1.2179   1.2305   1.2445   1.2536   1.2669   1.2946   1.3036   1.3109
  1.3360   1.3392   1.3463   1.3608   1.3672   1.3783   1.3948   1.4148
  1.4223   1.4357   1.4623   1.4723   1.4762   1.4871   1.5029   1.5121
  1.5144   1.5178   1.5338   1.5509   1.5631   1.5699   1.5893   1.6010
  1.6283   1.6395   1.6589   1.6652   1.6903   1.7023   1.7114   1.7237
  1.7561   1.7681   1.7971   1.8164   1.8361   1.8384   1.8446   1.8556
  1.8691   1.8814   1.8938   1.9241   1.9334   1.9365   1.9514   1.9729
  2.0030   2.0250   2.0297   2.0479   2.0737   2.0966   2.1062   2.1301
  2.1438   2.1530   2.1626   2.1824   2.1987   2.2171   2.2283   2.2375
  2.2454   2.2650   2.2828   2.2862   2.2965   2.3055   2.3263   2.3522
  2.3642   2.3829   2.3902   2.4203   2.4367   2.4635   2.4937   2.5073
  2.5313   2.5493   2.5653   2.5803   2.5903   2.5972   2.6265   2.6362
  2.6496   2.6548   2.6744   2.6901   2.6920   2.7036   2.7113   2.7237
  2.7481   2.7524   2.7745   2.7792   2.7850   2.8104   2.8189   2.8242
  2.8528   2.8639   2.8864   2.8908   2.9018   2.9257   2.9410   2.9569
  2.9760   3.0035   3.0083   3.0218   3.0404   3.0455   3.0473   3.0672
  3.0836   3.0900   3.0941   3.1025   3.1152   3.1352   3.1446   3.1611
  3.1693   3.1876   3.1966   3.2040   3.2138   3.2202   3.2420   3.2500
  3.2688   3.2723   3.2787   3.2864   3.2922   3.2953   3.3121   3.3191
  3.3333   3.3473   3.3624   3.3684   3.3722   3.3861   3.4064   3.4195
  3.4262   3.4383   3.4441   3.4508   3.4591   3.4716   3.4789   3.5001
  3.5066   3.5223   3.5306   3.5395   3.5562   3.5723   3.5829   3.5866
  3.5949   3.6039   3.6239   3.6335   3.6370   3.6539   3.6656   3.6756
  3.6832   3.6928   3.6981   3.7120   3.7294   3.7319   3.7331   3.7505
  3.7598   3.7695   3.7749   3.8004   3.8222   3.8266   3.8364   3.8524
  3.8562   3.8683   3.8796   3.8873   3.9008   3.9226   3.9403   3.9476
  3.9599   3.9707   3.9837   3.9868   4.0089   4.0214   4.0371   4.0566
  4.0686   4.0899   4.1036   4.1237   4.1346   4.1519   4.1706   4.1746
  4.1881   4.2259   4.2590   4.2632   4.2815   4.3026   4.3158   4.3312
  4.3495   4.3776   4.3803   4.3816   4.3891   4.4046   4.4210   4.4374
  4.4560   4.4836   4.5013   4.5208   4.5351   4.5374   4.5861   4.5979
  4.6212   4.6375   4.6517   4.6648   4.6710   4.6826   4.6929   4.7382
  4.7593   4.7695   4.7832   4.8084   4.8211   4.9064   4.9200   4.9380
  4.9841   5.0121   5.0188   5.0280   5.0794   5.0999   5.1147   5.1356
  5.1845   5.1995   5.2181   5.2404   5.2596   5.2612   5.2858   5.3551
  5.3571   5.3617   5.4121   5.4293   5.4473   5.4746   5.4820   5.5331
  5.5637   5.5809   5.6039   5.6219   5.6427   5.7002   5.7402   5.8038
  5.8124   5.8248   5.8484   5.8764   5.9284   5.9737   5.9803   6.0517
  6.0756   6.1320   6.1357   6.1874   6.2745   6.3113   6.3806   6.4064
  6.5052   6.5599   6.5608   6.6808   6.6842   6.7417   6.7444   6.8649
  6.8860   6.9956   7.1816   7.2136   7.3308   7.3725   7.3759   7.4315
  7.4656   7.4865   7.5193   7.5526   7.6149   7.7700   7.8351   7.9118
  8.0024   8.1245   8.4305   8.9269   9.0078   9.3626   9.4985   9.6904
 10.0983  11.2238  11.5469  11.9397  12.2983  12.6770  13.1994  13.5277
 13.7599  14.0614  14.7282
 --------------------------------------------------------------
 
          Ground-State Mulliken Net Atomic Charges

     Atom                 Charge (a.u.)
  ----------------------------------------
      1 C                     0.043323
      2 S                     0.087723
      3 C                    -0.277372
      4 C                    -0.099306
      5 C                    -0.008658
      6 C                     0.387097
      7 C                    -0.171161
      8 S                     0.024280
      9 C                     0.458779
     10 O                    -0.459339
     11 O                    -0.299106
     12 F                    -0.213133
     13 C                    -0.054913
     14 H                     0.115903
     15 H                     0.083457
     16 H                     0.083414
     17 C                    -0.379674
     18 H                     0.147552
     19 H                     0.172652
     20 H                     0.148684
     21 H                     0.209799
  ----------------------------------------
  Sum of atomic charges =     0.000000

 -----------------------------------------------------------------
                    Cartesian Multipole Moments
 -----------------------------------------------------------------
    Charge (ESU x 10^10)
                -0.0000
    Dipole Moment (Debye)
         X      -0.2026      Y       0.1546      Z       3.8021
       Tot       3.8106
    Quadrupole Moments (Debye-Ang)
        XX     -95.6753     XY       4.4233     YY     -82.5011
        XZ      -3.5955     YZ     -12.0339     ZZ     -96.8115
    Octopole Moments (Debye-Ang^2)
       XXX     -69.6521    XXY     -79.7323    XYY     -20.1765
       YYY    -231.0378    XXZ      78.1447    XYZ      -2.7584
       YYZ      67.1295    XZZ       0.0015    YZZ       3.4835
       ZZZ     262.0827
    Hexadecapole Moments (Debye-Ang^3)
      XXXX    -227.9587   XXXY    -212.4723   XXYY    -339.2700
      XYYY    -164.3451   YYYY   -1681.1994   XXXZ     186.2771
      XXYZ     235.5363   XYYZ      34.0674   YYYZ     627.9338
      XXZZ    -679.2094   XYZZ       5.6509   YYZZ    -684.0064
      XZZZ      80.4922   YZZZ     325.1648   ZZZZ   -3814.2212
 -----------------------------------------------------------------
 Total job time:  53.32s(wall), 1913.43s(cpu) 
 Tue Sep 26 18:06:04 2023

        *************************************************************
        *                                                           *
        *  Thank you very much for using Q-Chem.  Have a nice day.  *
        *                                                           *
        *************************************************************


0 sent ACK to 0 
now end server 0 ... 
cleanup process ... done
remove work dirs ./qchem2468386.0 -- ./qchem2468386.0
rm -rf ./qchem2468386.0
rm -rf ./qchem2468386
