You are running Q-Chem version: 5.4.0

#
# job setting
#
local host:  exp-8-47
current dir: /expanse/lustre/projects/csd626/rramji/aromodel/PTB7_fin/Hydrogenated_Impropers_Test
input file:  fin_bdt_Phi_10_Theta_0_fin_ftt_Hydrogenated_Improper.qcin
output file: 
nprocs     : 1
nthreads   : 64
#
# qchem installation setting
#
QC:          /cm/shared/apps/spack/cpu/opt/spack/linux-centos8-zen2/gcc-10.2.0/qchem-5.4-akfmr7b3t57bfs6qan3padb2wnb2i7cl
QCAUX:       /cm/shared/apps/spack/cpu/opt/spack/linux-centos8-zen2/gcc-10.2.0/qchem-5.4-akfmr7b3t57bfs6qan3padb2wnb2i7cl/qcaux
QCPROG:      /cm/shared/apps/spack/cpu/opt/spack/linux-centos8-zen2/gcc-10.2.0/qchem-5.4-akfmr7b3t57bfs6qan3padb2wnb2i7cl/exe/qcprog.exe
QCPROG_S:    /cm/shared/apps/spack/cpu/opt/spack/linux-centos8-zen2/gcc-10.2.0/qchem-5.4-akfmr7b3t57bfs6qan3padb2wnb2i7cl/exe/qcprog.exe_s
PARALLEL:    -DPARALLEL
QCMPI:       mpich
#
# qchem directory setting
#
qcrun:       qchem960274
QCSCRATCH:   .
QCLOCALSCR:  
QCTMPDIR:    .
QCFILEPREF:  ./qchem960274
QCSAVEDIR:   
workdirs:    ./qchem960274
workdir0:    ./qchem960274
partmpdirs =  
#
# parallel setting
#
QCRSH:           ssh
QCMPI:           mpich
QCMPIRUN:        /cm/shared/apps/spack/cpu/opt/spack/linux-centos8-zen2/gcc-10.2.0/qchem-5.4-akfmr7b3t57bfs6qan3padb2wnb2i7cl/bin/mpi/mpirun_qchem
QCMACHINEFILE:   ./qchem960274/hostfile
exp-8-47

#
# env setting
#
exported envs:   QC QCAUX QCSCRATCH QCRUNNAME QCFILEPREF QCPROG QCPROG_S GUIFILE

Running Job 1 of 1 fin_bdt_Phi_10_Theta_0_fin_ftt_Hydrogenated_Improper.qcin
qchem fin_bdt_Phi_10_Theta_0_fin_ftt_Hydrogenated_Improper.qcin_960274.0 ./qchem960274/ 1
/cm/shared/apps/spack/cpu/opt/spack/linux-centos8-zen2/gcc-10.2.0/qchem-5.4-akfmr7b3t57bfs6qan3padb2wnb2i7cl/bin/mpi/mpirun_qchem -machinefile ./qchem960274/hostfile -np 1 /cm/shared/apps/spack/cpu/opt/spack/linux-centos8-zen2/gcc-10.2.0/qchem-5.4-akfmr7b3t57bfs6qan3padb2wnb2i7cl/exe/qcprog.exe fin_bdt_Phi_10_Theta_0_fin_ftt_Hydrogenated_Improper.qcin_960274.0 ./qchem960274/

Process 0 of 1 is on exp-8-47 - thread support 0
initial socket setup ...start
initial socket setup ...done 
now start server 0 ... 
                  Welcome to Q-Chem
     A Quantum Leap Into The Future Of Chemistry


 Q-Chem 5.4, Q-Chem, Inc., Pleasanton, CA (2021)

 License issued to: University of California, San Diego (site)

 E. Epifanovsky,  A. T. B. Gilbert,  Xintian Feng,  Joonho Lee,  Yuezhi Mao,  
 N. Mardirossian,  P. Pokhilko,  A. White,  M. Wormit,  M. P. Coons,  
 A. L. Dempwolff,  Zhengting Gan,  D. Hait,  P. R. Horn,  L. D. Jacobson,  
 I. Kaliman,  J. Kussmann,  A. W. Lange,  Ka Un Lao,  D. S. Levine,  Jie Liu,  
 S. C. McKenzie,  A. F. Morrison,  K. Nanda,  F. Plasser,  D. R. Rehn,  
 M. L. Vidal,  Zhi-Qiang You,  Ying Zhu,  B. Alam,  B. Albrecht,  
 A. Aldossary,  E. Alguire,  J. H. Andersen,  D. Barton,  K. Begam,  A. Behn,  
 Y. A. Bernard,  E. J. Berquist,  H. Burton,  A. Carreras,  K. Carter-Fenk,  
 R. Chakraborty,  A. D. Chien,  K. D. Closser,  V. Cofer-Shabica,  
 S. Dasgupta,  Jia Deng,  M. de Wergifosse,  M. Diedenhofen,  Hainam Do,  
 S. Ehlert,  Po-Tung Fang,  S. Fatehi,  Qingguo Feng,  J. Gayvert,  
 Qinghui Ge,  G. Gidofalvi,  M. Goldey,  J. Gomes,  C. Gonzalez-Espinoza,  
 S. Gulania,  A. Gunina,  M. W. D. Hanson-Heine,  P. H. P. Harbach,  
 A. W. Hauser,  M. F. Herbst,  M. Hernandez Vera,  M. Hodecker,  
 Z. C. Holden,  S. Houck,  Xunkun Huang,  Kerwin Hui,  B. C. Huynh,  
 M. Ivanov,  Hyunjun Ji,  Hanjie Jiang,  B. Kaduk,  S. Kaehler,  
 K. Khistyaev,  Jaehoon Kim,  P. Klunzinger,  Z. Koczor-Benda,  
 Joong Hoon Koh,  D. Kosenkov,  L. Koulias,  T. Kowalczyk,  C. M. Krauter,  
 K. Kue,  A. Kunitsa,  T. Kus,  A. Landau,  K. V. Lawler,  D. Lefrancois,  
 S. Lehtola,  Rain Li,  Yi-Pei Li,  Jiashu Liang,  M. Liebenthal,  
 Hung-Hsuan Lin,  You-Sheng Lin,  Fenglai Liu,  Kuan-Yu Liu,  
 M. Loipersberger,  A. Luenser,  A. Manjanath,  P. Manohar,  E. Mansoor,  
 S. F. Manzer,  Shan-Ping Mao,  A. V. Marenich,  T. Markovich,  S. Mason,  
 S. A. Maurer,  P. F. McLaughlin,  M. F. S. J. Menger,  J.-M. Mewes,  
 S. A. Mewes,  P. Morgante,  J. W. Mullinax,  T. S. Nguyen-Beck,  
 K. J. Oosterbaan,  G. Paran,  Alexander C. Paul,  Suranjan K. Paul,  
 F. Pavosevic,  Zheng Pei,  S. Prager,  E. I. Proynov,  E. Ramos,  B. Rana,  
 A. E. Rask,  A. Rettig,  R. M. Richard,  F. Rob,  E. Rossomme,  T. Scheele,  
 M. Scheurer,  M. Schneider,  N. Sergueev,  S. M. Sharada,  W. Skomorowski,  
 D. W. Small,  C. J. Stein,  Yu-Chuan Su,  E. J. Sundstrom,  Zhen Tao,  
 J. Thirman,  T. Tsuchimochi,  N. M. Tubman,  S. P. Veccham,  O. Vydrov,  
 J. Wenzel,  J. Witte,  A. Yamada,  Kun Yao,  S. Yeganeh,  S. R. Yost,  
 A. Zech,  Igor Ying Zhang,  Xing Zhang,  Yu Zhang,  D. Zuev,  
 A. Aspuru-Guzik,  A. T. Bell,  N. A. Besley,  K. B. Bravaya,  B. R. Brooks,  
 D. Casanova,  Jeng-Da Chai,  S. Coriani,  C. J. Cramer,  
 A. E. DePrince, III,  R. A. DiStasio Jr.,  A. Dreuw,  B. D. Dunietz,  
 T. R. Furlani,  W. A. Goddard III,  S. Grimme,  S. Hammes-Schiffer,  
 T. Head-Gordon,  W. J. Hehre,  Chao-Ping Hsu,  T.-C. Jagau,  Yousung Jung,  
 A. Klamt,  Jing Kong,  D. S. Lambrecht,  WanZhen Liang,  N. J. Mayhall,  
 C. W. McCurdy,  J. B. Neaton,  C. Ochsenfeld,  J. A. Parkhill,  R. Peverati,  
 V. A. Rassolov,  Yihan Shao,  L. V. Slipchenko,  T. Stauch,  R. P. Steele,  
 J. E. Subotnik,  A. J. W. Thom,  A. Tkatchenko,  D. G. Truhlar,  
 T. Van Voorhis,  T. A. Wesolowski,  K. B. Whaley,  H. L. Woodcock III,  
 P. M. Zimmerman,  S. Faraji,  P. M. W. Gill,  M. Head-Gordon,  
 J. M. Herbert,  A. I. Krylov

 Contributors to earlier versions of Q-Chem not listed above: 
 R. D. Adamson,  B. Austin,  R. Baer,  J. Baker,  G. J. O. Beran,  
 K. Brandhorst,  S. T. Brown,  E. F. C. Byrd,  A. K. Chakraborty,  
 G. K. L. Chan,  Chun-Min Chang,  Yunqing Chen,  C.-L. Cheng,  
 Siu Hung Chien,  D. M. Chipman,  D. L. Crittenden,  H. Dachsel,  
 R. J. Doerksen,  A. D. Dutoi,  R. G. Edgar,  J. Fosso-Tande,  
 L. Fusti-Molnar,  D. Ghosh,  A. Ghysels,  A. Golubeva-Zadorozhnaya,  
 J. Gonthier,  M. S. Gordon,  S. R. Gwaltney,  G. Hawkins,  J. E. Herr,  
 A. Heyden,  S. Hirata,  E. G. Hohenstein,  G. Kedziora,  F. J. Keil,  
 C. Kelley,  Jihan Kim,  R. A. King,  R. Z. Khaliullin,  P. P. Korambath,  
 W. Kurlancheek,  A. Laurent,  A. M. Lee,  M. S. Lee,  S. V. Levchenko,  
 Ching Yeh Lin,  D. Liotard,  E. Livshits,  R. C. Lochan,  I. Lotan,  
 L. A. Martinez-Martinez,  P. E. Maslen,  N. Nair,  D. P. O'Neill,  
 D. Neuhauser,  E. Neuscamman,  C. M. Oana,  R. Olivares-Amaya,  R. Olson,  
 T. M. Perrine,  B. Peters,  P. A. Pieniazek,  A. Prociuk,  Y. M. Rhee,  
 J. Ritchie,  M. A. Rohrdanz,  E. Rosta,  N. J. Russ,  H. F. Schaefer III,  
 M. W. Schmidt,  N. E. Schultz,  S. Sharma,  N. Shenvi,  C. D. Sherrill,  
 A. C. Simmonett,  A. Sodt,  T. Stein,  D. Stuck,  K. S. Thanthiriwatte,  
 V. Vanovschi,  L. Vogt,  Tao Wang,  A. Warshel,  M. A. Watson,  
 C. F. Williams,  Q. Wu,  X. Xu,  Jun Yang,  W. Zhang,  Yan Zhao

 Please cite Q-Chem as follows:
 Y. Shao et al., Mol. Phys. 113, 184-215 (2015)
 DOI: 10.1080/00268976.2014.952696

 Q-Chem 5.4.0 for Intel X86 EM64T Linux

 Parts of Q-Chem use Armadillo 9.800.1 (Horizon Scraper).
 http://arma.sourceforge.net/

 Q-Chem begins on Sun Sep 24 16:37:02 2023  

 Host: 
0

     Scratch files written to ./qchem960274//
 May1621 |scratch|qcdevops|jenkins|workspace|build_RNUM    
 Parallel job on  1  processors
 Processing $rem in /cm/shared/apps/spack/cpu/opt/spack/linux-centos8-zen2/gcc-10.2.0/qchem-5.4-akfmr7b3t57bfs6qan3padb2wnb2i7cl/config/preferences:
 Processing $rem in /home/rramji/.qchemrc:
 Symmetry turned off for PCM/SM12/SMD calculation
 Core orbitals will be frozen

 Checking the input file for inconsistencies... 	...done.

 Q-Chem warning in module forms1/BasisType.C, line 2236:

 You are not using the predefined 5D/6D in this basis set.


--------------------------------------------------------------
User input:
--------------------------------------------------------------
$molecule
0 1
C	-0.012706	-0.838148	1.023176
S	-0.010506	0.061252	2.533876
C	-0.011506	1.636552	1.750776
C	-0.012706	0.070052	-0.041524
C	-0.014206	1.458852	0.344876
C	-0.011106	0.003652	-1.462924
C	-0.011206	1.268552	-2.083724
S	-0.014506	2.516052	-0.942524
C	-0.006506	1.522952	-3.536824
O	-0.003506	0.589452	-4.327124
O	-0.003306	2.806152	-3.981224
F	-0.007206	-1.110448	-2.223124
C	0.006894	3.164852	-5.311824
H	0.007494	4.269852	-5.347124
H	-0.884106	2.775552	-5.852424
H	0.905794	2.774952	-5.838724
C	0.236494	-2.251548	1.023176
H	1.301594	-2.072848	1.014676
H	0.355594	-2.924948	1.859076
H	0.319694	-2.769348	0.079076
H	-0.011506	2.556652	2.344676
$end

$rem
JOBTYPE		SP
EXCHANGE	HF
CORRELATION	pRIMP2
BASIS		cc-pvtz
METHOD		rimp2
AUX_BASIS	rimp2-cc-pvtz
SOLVENT_METHOD	PCM
PURECART	11111
SYMMETRY	false
MEM_TOTAL	110000
SCF_CONVERGENCE = 6
THRESH=10
GUI = 2
$end



$solvent
dielectric 4.90
$end
--------------------------------------------------------------
 ----------------------------------------------------------------
             Standard Nuclear Orientation (Angstroms)
    I     Atom           X                Y                Z
 ----------------------------------------------------------------
    1      C      -0.0127060000    -0.8381480000     1.0231760000
    2      S      -0.0105060000     0.0612520000     2.5338760000
    3      C      -0.0115060000     1.6365520000     1.7507760000
    4      C      -0.0127060000     0.0700520000    -0.0415240000
    5      C      -0.0142060000     1.4588520000     0.3448760000
    6      C      -0.0111060000     0.0036520000    -1.4629240000
    7      C      -0.0112060000     1.2685520000    -2.0837240000
    8      S      -0.0145060000     2.5160520000    -0.9425240000
    9      C      -0.0065060000     1.5229520000    -3.5368240000
   10      O      -0.0035060000     0.5894520000    -4.3271240000
   11      O      -0.0033060000     2.8061520000    -3.9812240000
   12      F      -0.0072060000    -1.1104480000    -2.2231240000
   13      C       0.0068940000     3.1648520000    -5.3118240000
   14      H       0.0074940000     4.2698520000    -5.3471240000
   15      H      -0.8841060000     2.7755520000    -5.8524240000
   16      H       0.9057940000     2.7749520000    -5.8387240000
   17      C       0.2364940000    -2.2515480000     1.0231760000
   18      H       1.3015940000    -2.0728480000     1.0146760000
   19      H       0.3555940000    -2.9249480000     1.8590760000
   20      H       0.3196940000    -2.7693480000     0.0790760000
   21      H      -0.0115060000     2.5566520000     2.3446760000
 ----------------------------------------------------------------
 Nuclear Repulsion Energy =        1089.60381922 hartrees
 There are       59 alpha and       59 beta electrons
 Requested basis set is cc-pVTZ
 There are 186 shells and 526 basis functions

 Total QAlloc Memory Limit 110000 MB
 Mega-Array Size       188 MB
 MEM_STATIC part       192 MB
 Discretize the solute cavity surface with Lebedev spheres
	Using 110 Lebedev grid points for each H atom
	Using 194 Lebedev grid points for other atoms
	Atomic van der Waals radii will be scaled by 1.20
 Remove points where switching function is < 1.0e-08
 Keep 1561 surface tesserae and discard 1925 interior tesserae
 Molecular Surface Area = 242.216 Angst**2
 Requested basis set is rimp2-cc-pVTZ
 There are 410 shells and 1426 basis functions
 A cutoff of  1.0D-10 yielded  11557 shell pairs
 There are     90931 function pairs (    119105 Cartesian)
 Smallest overlap matrix eigenvalue = 5.54E-05

 Scale SEOQF with 1.000000e+00/1.000000e-01/1.000000e-02

 Standard Electronic Orientation quadrupole field applied
 Nucleus-field energy     =     0.0000000197 hartrees
 Guess from superposition of atomic densities
 Warning:  Energy on first SCF cycle will be non-variational
 SAD guess density has 118.000000 electrons

 -----------------------------------------------------------------------
  General SCF calculation program by
  Eric Jon Sundstrom, Paul Horn, Yuezhi Mao, Dmitri Zuev, Alec White,
  David Stuck, Shaama M.S., Shane Yost, Joonho Lee, David Small,
  Daniel Levine, Susi Lehtola, Hugh Burton, Evgeny Epifanovsky,
  Bang C. Huynh
 -----------------------------------------------------------------------
 Hartree-Fock
 using 64 threads for integral computing
 -------------------------------------------------------
 OpenMP Integral computing Module                
 Release: version 1.0, May 2013, Q-Chem Inc. Pittsburgh 
 -------------------------------------------------------
 A restricted SCF calculation will be
 performed using DIIS
 SCF converges when DIIS error is below 1.0e-06
 ---------------------------------------
  Cycle       Energy         DIIS error
 ---------------------------------------
    1   -1394.5589221485      2.52e-02  
    2   -1389.0164752926      2.50e-03  
    3   -1389.1889973986      1.57e-03  
    4   -1389.2503433253      3.46e-04  
    5   -1389.2559970728      1.09e-04  
    6   -1389.2566471206      3.61e-05  
    7   -1389.2567857572      1.78e-05  
    8   -1389.2568294597      6.88e-06  
    9   -1389.2568382163      2.99e-06  
   10   -1389.2568394720      1.13e-06  
   11   -1389.2568396572      4.14e-07  Convergence criterion met
 ---------------------------------------
 SCF time:   CPU 1688.17s  wall 48.00s 

************** Final PCM Free Energy Summary **************
 G_electrostatic  =      -0.01410513 hartree =      -8.85110525 kcal/mol
 G_cavitation     =       0.00000000 hartree =       0.00000000 kcal/mol
 G_dispersion     =       0.00000000 hartree =       0.00000000 kcal/mol
 G_repulsion      =       0.00000000 hartree =       0.00000000 kcal/mol
 --------------------------------------------------
 Non-electrostatic Free Energy =       0.00000000 hartree =       0.00000000 kcal/mol
 Total                         =      -0.01410513 hartree =      -8.85110525 kcal/mol
 --------------------------------------------------
 SCF Energy (H0 + V/2)                       =   -1389.25683966 
 Solute Internal Energy (H0)                 =   -1389.24273452 
 Total Free Energy (H0 + V/2 + non-elec)     =   -1389.25683966 hartree
                                             = -871771.82453639 kcal/mol
***********************************************************

 SCF   energy in the final basis set =    -1389.2568396572
 Total energy in the final basis set =    -1389.2568396572


 --------------------------------------------------------------
  Generalized many-body perturbation theory program
  by Joonho Lee, Fazle Rob, Xintian Feng, Evgeny Epifanovsky

 No regularization used 
 (reg. param. = 0.0000e+00)
  (P|Q)^-1/2 Time:  CPU 20.05 s  wall 0.32 s

 In RI-MP2 calculation: 
 # of frozen core orbitals: 22

 Components of the RIMP2 correlation energy:
        aaaa    correlation energy =        -0.3285852302 a.u.
        abab    correlation energy =        -1.8444212159 a.u.
        bbbb    correlation energy =        -0.3285852302 a.u.
        non-Brillouin singles      =        -0.0000000000 a.u.
        total same-spin energy     =        -0.6571704604 a.u.
        total opposite-spin energy =        -1.8444212159 a.u.

 Total  RIMP2   correlation energy =        -2.5015916763 a.u.
        RIMP2         total energy =     -1391.7584313335 a.u.

 RI-MP2 Energy Time:  CPU 172.05 s  wall 3.31 s
 
 --------------------------------------------------------------
 
                    Orbital Energies (a.u.)
 --------------------------------------------------------------
 
 Alpha MOs
 -- Occupied --
-92.0057 -91.9874 -26.3346 -20.6088 -20.5443 -11.4053 -11.3770 -11.3228
-11.2915 -11.2869 -11.2858 -11.2731 -11.2663 -11.2377  -9.0045  -8.9917
 -6.6854  -6.6848  -6.6843  -6.6730  -6.6723  -6.6709  -1.6475  -1.4682
 -1.3629  -1.2261  -1.1473  -1.0679  -1.0268  -1.0064  -0.9672  -0.9112
 -0.8622  -0.7958  -0.7843  -0.7656  -0.7259  -0.7151  -0.6965  -0.6773
 -0.6759  -0.6668  -0.6106  -0.6024  -0.5971  -0.5880  -0.5848  -0.5592
 -0.5312  -0.5258  -0.5191  -0.4950  -0.4778  -0.4626  -0.4584  -0.4559
 -0.3903  -0.3470  -0.2714
 -- Virtual --
  0.0465   0.1225   0.1348   0.1558   0.1586   0.1718   0.1908   0.1991
  0.2034   0.2094   0.2178   0.2233   0.2363   0.2404   0.2682   0.2744
  0.2863   0.3094   0.3236   0.3346   0.3446   0.3624   0.3701   0.3781
  0.3822   0.3864   0.4049   0.4152   0.4175   0.4322   0.4386   0.4437
  0.4596   0.4658   0.4695   0.4942   0.5032   0.5089   0.5135   0.5228
  0.5374   0.5451   0.5495   0.5594   0.5604   0.5655   0.5737   0.5864
  0.5898   0.6009   0.6034   0.6061   0.6148   0.6188   0.6220   0.6377
  0.6408   0.6464   0.6480   0.6629   0.6726   0.6908   0.7006   0.7066
  0.7173   0.7338   0.7387   0.7589   0.7714   0.7754   0.7875   0.8004
  0.8038   0.8169   0.8417   0.8481   0.8565   0.8620   0.8800   0.8907
  0.9006   0.9099   0.9264   0.9297   0.9387   0.9510   0.9754   0.9785
  0.9930   1.0000   1.0086   1.0170   1.0261   1.0368   1.0460   1.0551
  1.0638   1.0725   1.0840   1.0906   1.0990   1.1022   1.1200   1.1251
  1.1356   1.1568   1.1649   1.1712   1.1766   1.1876   1.1992   1.2117
  1.2199   1.2377   1.2446   1.2521   1.2635   1.2740   1.2936   1.3186
  1.3347   1.3370   1.3462   1.3600   1.3668   1.3805   1.4001   1.4193
  1.4315   1.4397   1.4515   1.4638   1.4756   1.4883   1.5052   1.5066
  1.5129   1.5152   1.5308   1.5508   1.5613   1.5634   1.5692   1.5999
  1.6228   1.6306   1.6606   1.6716   1.6846   1.6991   1.7099   1.7310
  1.7623   1.7735   1.8006   1.8187   1.8352   1.8428   1.8490   1.8587
  1.8741   1.8831   1.8928   1.9275   1.9314   1.9413   1.9544   1.9772
  2.0021   2.0261   2.0310   2.0510   2.0755   2.0917   2.1038   2.1358
  2.1469   2.1554   2.1634   2.1820   2.1993   2.2173   2.2266   2.2456
  2.2528   2.2657   2.2841   2.2846   2.2973   2.3132   2.3334   2.3590
  2.3685   2.3849   2.3870   2.4247   2.4390   2.4654   2.4880   2.4999
  2.5311   2.5543   2.5614   2.5843   2.5981   2.6062   2.6116   2.6322
  2.6448   2.6615   2.6698   2.6769   2.6863   2.7035   2.7149   2.7279
  2.7353   2.7472   2.7663   2.7735   2.8035   2.8043   2.8216   2.8282
  2.8394   2.8693   2.8889   2.8981   2.9044   2.9167   2.9410   2.9462
  2.9826   2.9981   3.0183   3.0314   3.0418   3.0448   3.0535   3.0713
  3.0776   3.0919   3.0934   3.1066   3.1165   3.1443   3.1518   3.1590
  3.1666   3.1892   3.1946   3.2047   3.2187   3.2289   3.2471   3.2571
  3.2645   3.2721   3.2752   3.2875   3.2928   3.2975   3.3132   3.3187
  3.3298   3.3475   3.3514   3.3652   3.3747   3.3816   3.3976   3.4156
  3.4292   3.4407   3.4522   3.4549   3.4734   3.4835   3.4863   3.4933
  3.5181   3.5232   3.5351   3.5420   3.5638   3.5726   3.5785   3.5884
  3.6015   3.6034   3.6257   3.6298   3.6366   3.6452   3.6609   3.6632
  3.6695   3.6888   3.6984   3.7115   3.7163   3.7296   3.7331   3.7389
  3.7532   3.7623   3.7886   3.7963   3.8256   3.8334   3.8378   3.8510
  3.8530   3.8822   3.8885   3.8981   3.9039   3.9254   3.9307   3.9462
  3.9543   3.9687   3.9788   3.9919   4.0115   4.0287   4.0390   4.0545
  4.0636   4.0868   4.0996   4.1126   4.1335   4.1450   4.1493   4.1736
  4.1892   4.2308   4.2496   4.2759   4.2937   4.3126   4.3171   4.3478
  4.3545   4.3736   4.3798   4.3859   4.3959   4.4011   4.4134   4.4401
  4.4609   4.4778   4.4945   4.5046   4.5319   4.5473   4.5855   4.6048
  4.6174   4.6379   4.6446   4.6699   4.6757   4.6863   4.7125   4.7447
  4.7542   4.7660   4.7899   4.8091   4.8161   4.8957   4.9236   4.9294
  4.9788   5.0098   5.0179   5.0403   5.0765   5.1009   5.1187   5.1387
  5.1754   5.1991   5.2203   5.2253   5.2561   5.2608   5.2896   5.3567
  5.3574   5.3599   5.4027   5.4167   5.4590   5.4746   5.4880   5.5361
  5.5603   5.5795   5.6113   5.6219   5.6280   5.6547   5.7388   5.7953
  5.8038   5.8197   5.8570   5.8764   5.9198   5.9740   5.9857   6.0819
  6.1086   6.1358   6.1389   6.1879   6.2563   6.3114   6.3719   6.4528
  6.5137   6.5246   6.5602   6.6810   6.6815   6.7419   6.7436   6.8651
  6.8858   6.9962   7.1817   7.2139   7.3311   7.3721   7.3756   7.4322
  7.4657   7.4861   7.5198   7.5529   7.6164   7.7692   7.8351   7.9145
  8.0018   8.1241   8.4604   8.9264   9.0084   9.3621   9.4986   9.6935
 10.1114  11.2244  11.5747  11.9416  12.3182  12.6999  13.1767  13.5608
 13.7797  14.0652  14.8331
 --------------------------------------------------------------
 
          Ground-State Mulliken Net Atomic Charges

     Atom                 Charge (a.u.)
  ----------------------------------------
      1 C                     0.056036
      2 S                     0.081996
      3 C                    -0.281096
      4 C                    -0.105101
      5 C                    -0.011519
      6 C                     0.390541
      7 C                    -0.171427
      8 S                     0.022303
      9 C                     0.460150
     10 O                    -0.460187
     11 O                    -0.299315
     12 F                    -0.213669
     13 C                    -0.054945
     14 H                     0.115873
     15 H                     0.083505
     16 H                     0.083291
     17 C                    -0.382114
     18 H                     0.155597
     19 H                     0.170681
     20 H                     0.150189
     21 H                     0.209213
  ----------------------------------------
  Sum of atomic charges =     0.000000

 -----------------------------------------------------------------
                    Cartesian Multipole Moments
 -----------------------------------------------------------------
    Charge (ESU x 10^10)
                -0.0000
    Dipole Moment (Debye)
         X       1.1181      Y       0.1712      Z       3.7964
       Tot       3.9613
    Quadrupole Moments (Debye-Ang)
        XX     -96.1087     XY      -2.5890     YY     -82.3938
        XZ       1.1002     YZ     -12.6329     ZZ     -97.1329
    Octopole Moments (Debye-Ang^2)
       XXX      -3.9115    XXY     -85.9966    XYY       5.0206
       YYY    -236.1755    XXZ      79.8822    XYZ      -2.9796
       YYZ      66.6644    XZZ       0.2228    YZZ       2.6739
       ZZZ     262.1487
    Hexadecapole Moments (Debye-Ang^3)
      XXXX    -122.7119   XXXY      17.8312   XXYY    -348.2685
      XYYY       1.5427   YYYY   -1771.8681   XXXZ      -6.0352
      XXYZ     248.9013   XYYZ       4.1842   YYYZ     635.7201
      XXZZ    -681.1750   XYZZ       2.5102   YYZZ    -679.6397
      XZZZ      -5.7219   YZZZ     334.8477   ZZZZ   -3817.7062
 -----------------------------------------------------------------
 Total job time:  93.22s(wall), 2076.73s(cpu) 
 Sun Sep 24 16:38:35 2023

        *************************************************************
        *                                                           *
        *  Thank you very much for using Q-Chem.  Have a nice day.  *
        *                                                           *
        *************************************************************


0 sent ACK to 0 
now end server 0 ... 
cleanup process ... done
remove work dirs ./qchem960274.0 -- ./qchem960274.0
rm -rf ./qchem960274.0
rm -rf ./qchem960274
