You are running Q-Chem version: 5.4.0

#
# job setting
#
local host:  exp-8-47
current dir: /expanse/lustre/projects/csd626/rramji/aromodel/PTB7_fin/Hydrogenated_Impropers_Test
input file:  fin_bdt_Phi_10_Theta_60_fin_ftt_Hydrogenated_Improper.qcin
output file: 
nprocs     : 1
nthreads   : 64
#
# qchem installation setting
#
QC:          /cm/shared/apps/spack/cpu/opt/spack/linux-centos8-zen2/gcc-10.2.0/qchem-5.4-akfmr7b3t57bfs6qan3padb2wnb2i7cl
QCAUX:       /cm/shared/apps/spack/cpu/opt/spack/linux-centos8-zen2/gcc-10.2.0/qchem-5.4-akfmr7b3t57bfs6qan3padb2wnb2i7cl/qcaux
QCPROG:      /cm/shared/apps/spack/cpu/opt/spack/linux-centos8-zen2/gcc-10.2.0/qchem-5.4-akfmr7b3t57bfs6qan3padb2wnb2i7cl/exe/qcprog.exe
QCPROG_S:    /cm/shared/apps/spack/cpu/opt/spack/linux-centos8-zen2/gcc-10.2.0/qchem-5.4-akfmr7b3t57bfs6qan3padb2wnb2i7cl/exe/qcprog.exe_s
PARALLEL:    -DPARALLEL
QCMPI:       mpich
#
# qchem directory setting
#
qcrun:       qchem962346
QCSCRATCH:   .
QCLOCALSCR:  
QCTMPDIR:    .
QCFILEPREF:  ./qchem962346
QCSAVEDIR:   
workdirs:    ./qchem962346
workdir0:    ./qchem962346
partmpdirs =  
#
# parallel setting
#
QCRSH:           ssh
QCMPI:           mpich
QCMPIRUN:        /cm/shared/apps/spack/cpu/opt/spack/linux-centos8-zen2/gcc-10.2.0/qchem-5.4-akfmr7b3t57bfs6qan3padb2wnb2i7cl/bin/mpi/mpirun_qchem
QCMACHINEFILE:   ./qchem962346/hostfile
exp-8-47

#
# env setting
#
exported envs:   QC QCAUX QCSCRATCH QCRUNNAME QCFILEPREF QCPROG QCPROG_S GUIFILE

Running Job 1 of 1 fin_bdt_Phi_10_Theta_60_fin_ftt_Hydrogenated_Improper.qcin
qchem fin_bdt_Phi_10_Theta_60_fin_ftt_Hydrogenated_Improper.qcin_962346.0 ./qchem962346/ 1
/cm/shared/apps/spack/cpu/opt/spack/linux-centos8-zen2/gcc-10.2.0/qchem-5.4-akfmr7b3t57bfs6qan3padb2wnb2i7cl/bin/mpi/mpirun_qchem -machinefile ./qchem962346/hostfile -np 1 /cm/shared/apps/spack/cpu/opt/spack/linux-centos8-zen2/gcc-10.2.0/qchem-5.4-akfmr7b3t57bfs6qan3padb2wnb2i7cl/exe/qcprog.exe fin_bdt_Phi_10_Theta_60_fin_ftt_Hydrogenated_Improper.qcin_962346.0 ./qchem962346/

Process 0 of 1 is on exp-8-47 - thread support 0
initial socket setup ...start
initial socket setup ...done 
now start server 0 ... 
                  Welcome to Q-Chem
     A Quantum Leap Into The Future Of Chemistry


 Q-Chem 5.4, Q-Chem, Inc., Pleasanton, CA (2021)

 License issued to: University of California, San Diego (site)

 E. Epifanovsky,  A. T. B. Gilbert,  Xintian Feng,  Joonho Lee,  Yuezhi Mao,  
 N. Mardirossian,  P. Pokhilko,  A. White,  M. Wormit,  M. P. Coons,  
 A. L. Dempwolff,  Zhengting Gan,  D. Hait,  P. R. Horn,  L. D. Jacobson,  
 I. Kaliman,  J. Kussmann,  A. W. Lange,  Ka Un Lao,  D. S. Levine,  Jie Liu,  
 S. C. McKenzie,  A. F. Morrison,  K. Nanda,  F. Plasser,  D. R. Rehn,  
 M. L. Vidal,  Zhi-Qiang You,  Ying Zhu,  B. Alam,  B. Albrecht,  
 A. Aldossary,  E. Alguire,  J. H. Andersen,  D. Barton,  K. Begam,  A. Behn,  
 Y. A. Bernard,  E. J. Berquist,  H. Burton,  A. Carreras,  K. Carter-Fenk,  
 R. Chakraborty,  A. D. Chien,  K. D. Closser,  V. Cofer-Shabica,  
 S. Dasgupta,  Jia Deng,  M. de Wergifosse,  M. Diedenhofen,  Hainam Do,  
 S. Ehlert,  Po-Tung Fang,  S. Fatehi,  Qingguo Feng,  J. Gayvert,  
 Qinghui Ge,  G. Gidofalvi,  M. Goldey,  J. Gomes,  C. Gonzalez-Espinoza,  
 S. Gulania,  A. Gunina,  M. W. D. Hanson-Heine,  P. H. P. Harbach,  
 A. W. Hauser,  M. F. Herbst,  M. Hernandez Vera,  M. Hodecker,  
 Z. C. Holden,  S. Houck,  Xunkun Huang,  Kerwin Hui,  B. C. Huynh,  
 M. Ivanov,  Hyunjun Ji,  Hanjie Jiang,  B. Kaduk,  S. Kaehler,  
 K. Khistyaev,  Jaehoon Kim,  P. Klunzinger,  Z. Koczor-Benda,  
 Joong Hoon Koh,  D. Kosenkov,  L. Koulias,  T. Kowalczyk,  C. M. Krauter,  
 K. Kue,  A. Kunitsa,  T. Kus,  A. Landau,  K. V. Lawler,  D. Lefrancois,  
 S. Lehtola,  Rain Li,  Yi-Pei Li,  Jiashu Liang,  M. Liebenthal,  
 Hung-Hsuan Lin,  You-Sheng Lin,  Fenglai Liu,  Kuan-Yu Liu,  
 M. Loipersberger,  A. Luenser,  A. Manjanath,  P. Manohar,  E. Mansoor,  
 S. F. Manzer,  Shan-Ping Mao,  A. V. Marenich,  T. Markovich,  S. Mason,  
 S. A. Maurer,  P. F. McLaughlin,  M. F. S. J. Menger,  J.-M. Mewes,  
 S. A. Mewes,  P. Morgante,  J. W. Mullinax,  T. S. Nguyen-Beck,  
 K. J. Oosterbaan,  G. Paran,  Alexander C. Paul,  Suranjan K. Paul,  
 F. Pavosevic,  Zheng Pei,  S. Prager,  E. I. Proynov,  E. Ramos,  B. Rana,  
 A. E. Rask,  A. Rettig,  R. M. Richard,  F. Rob,  E. Rossomme,  T. Scheele,  
 M. Scheurer,  M. Schneider,  N. Sergueev,  S. M. Sharada,  W. Skomorowski,  
 D. W. Small,  C. J. Stein,  Yu-Chuan Su,  E. J. Sundstrom,  Zhen Tao,  
 J. Thirman,  T. Tsuchimochi,  N. M. Tubman,  S. P. Veccham,  O. Vydrov,  
 J. Wenzel,  J. Witte,  A. Yamada,  Kun Yao,  S. Yeganeh,  S. R. Yost,  
 A. Zech,  Igor Ying Zhang,  Xing Zhang,  Yu Zhang,  D. Zuev,  
 A. Aspuru-Guzik,  A. T. Bell,  N. A. Besley,  K. B. Bravaya,  B. R. Brooks,  
 D. Casanova,  Jeng-Da Chai,  S. Coriani,  C. J. Cramer,  
 A. E. DePrince, III,  R. A. DiStasio Jr.,  A. Dreuw,  B. D. Dunietz,  
 T. R. Furlani,  W. A. Goddard III,  S. Grimme,  S. Hammes-Schiffer,  
 T. Head-Gordon,  W. J. Hehre,  Chao-Ping Hsu,  T.-C. Jagau,  Yousung Jung,  
 A. Klamt,  Jing Kong,  D. S. Lambrecht,  WanZhen Liang,  N. J. Mayhall,  
 C. W. McCurdy,  J. B. Neaton,  C. Ochsenfeld,  J. A. Parkhill,  R. Peverati,  
 V. A. Rassolov,  Yihan Shao,  L. V. Slipchenko,  T. Stauch,  R. P. Steele,  
 J. E. Subotnik,  A. J. W. Thom,  A. Tkatchenko,  D. G. Truhlar,  
 T. Van Voorhis,  T. A. Wesolowski,  K. B. Whaley,  H. L. Woodcock III,  
 P. M. Zimmerman,  S. Faraji,  P. M. W. Gill,  M. Head-Gordon,  
 J. M. Herbert,  A. I. Krylov

 Contributors to earlier versions of Q-Chem not listed above: 
 R. D. Adamson,  B. Austin,  R. Baer,  J. Baker,  G. J. O. Beran,  
 K. Brandhorst,  S. T. Brown,  E. F. C. Byrd,  A. K. Chakraborty,  
 G. K. L. Chan,  Chun-Min Chang,  Yunqing Chen,  C.-L. Cheng,  
 Siu Hung Chien,  D. M. Chipman,  D. L. Crittenden,  H. Dachsel,  
 R. J. Doerksen,  A. D. Dutoi,  R. G. Edgar,  J. Fosso-Tande,  
 L. Fusti-Molnar,  D. Ghosh,  A. Ghysels,  A. Golubeva-Zadorozhnaya,  
 J. Gonthier,  M. S. Gordon,  S. R. Gwaltney,  G. Hawkins,  J. E. Herr,  
 A. Heyden,  S. Hirata,  E. G. Hohenstein,  G. Kedziora,  F. J. Keil,  
 C. Kelley,  Jihan Kim,  R. A. King,  R. Z. Khaliullin,  P. P. Korambath,  
 W. Kurlancheek,  A. Laurent,  A. M. Lee,  M. S. Lee,  S. V. Levchenko,  
 Ching Yeh Lin,  D. Liotard,  E. Livshits,  R. C. Lochan,  I. Lotan,  
 L. A. Martinez-Martinez,  P. E. Maslen,  N. Nair,  D. P. O'Neill,  
 D. Neuhauser,  E. Neuscamman,  C. M. Oana,  R. Olivares-Amaya,  R. Olson,  
 T. M. Perrine,  B. Peters,  P. A. Pieniazek,  A. Prociuk,  Y. M. Rhee,  
 J. Ritchie,  M. A. Rohrdanz,  E. Rosta,  N. J. Russ,  H. F. Schaefer III,  
 M. W. Schmidt,  N. E. Schultz,  S. Sharma,  N. Shenvi,  C. D. Sherrill,  
 A. C. Simmonett,  A. Sodt,  T. Stein,  D. Stuck,  K. S. Thanthiriwatte,  
 V. Vanovschi,  L. Vogt,  Tao Wang,  A. Warshel,  M. A. Watson,  
 C. F. Williams,  Q. Wu,  X. Xu,  Jun Yang,  W. Zhang,  Yan Zhao

 Please cite Q-Chem as follows:
 Y. Shao et al., Mol. Phys. 113, 184-215 (2015)
 DOI: 10.1080/00268976.2014.952696

 Q-Chem 5.4.0 for Intel X86 EM64T Linux

 Parts of Q-Chem use Armadillo 9.800.1 (Horizon Scraper).
 http://arma.sourceforge.net/

 Q-Chem begins on Sun Sep 24 16:43:45 2023  

 Host: 
0

     Scratch files written to ./qchem962346//
 May1621 |scratch|qcdevops|jenkins|workspace|build_RNUM    
 Parallel job on  1  processors
 Processing $rem in /cm/shared/apps/spack/cpu/opt/spack/linux-centos8-zen2/gcc-10.2.0/qchem-5.4-akfmr7b3t57bfs6qan3padb2wnb2i7cl/config/preferences:
 Processing $rem in /home/rramji/.qchemrc:
 Symmetry turned off for PCM/SM12/SMD calculation
 Core orbitals will be frozen

 Checking the input file for inconsistencies... 	...done.

 Q-Chem warning in module forms1/BasisType.C, line 2236:

 You are not using the predefined 5D/6D in this basis set.


--------------------------------------------------------------
User input:
--------------------------------------------------------------
$molecule
0 1
C	-0.157104	-0.823218	1.021016
S	0.001296	0.062182	2.531716
C	0.273796	1.613782	1.748616
C	0.000596	0.071182	-0.043684
C	0.240296	1.439182	0.342716
C	-0.009304	0.005582	-1.465084
C	0.210196	1.251182	-2.085884
S	0.423496	2.480282	-0.944684
C	0.258996	1.500982	-3.538984
O	0.099796	0.581182	-4.329284
O	0.484996	2.764082	-3.983384
F	-0.198904	-1.092318	-2.225284
C	0.557296	3.115582	-5.313984
H	0.749696	4.203682	-5.349284
H	-0.387804	2.886882	-5.854584
H	1.374796	2.575482	-5.840884
C	-0.157104	-2.258418	1.021016
H	0.390196	-2.267418	1.952016
H	-0.880804	-2.942318	1.439216
H	0.656496	-2.782818	0.542016
H	0.433596	2.519782	2.342516
$end

$rem
JOBTYPE		SP
EXCHANGE	HF
CORRELATION	pRIMP2
BASIS		cc-pvtz
METHOD		rimp2
AUX_BASIS	rimp2-cc-pvtz
SOLVENT_METHOD	PCM
PURECART	11111
SYMMETRY	false
MEM_TOTAL	110000
SCF_CONVERGENCE = 6
THRESH=10
GUI = 2
$end



$solvent
dielectric 4.90
$end
--------------------------------------------------------------
 ----------------------------------------------------------------
             Standard Nuclear Orientation (Angstroms)
    I     Atom           X                Y                Z
 ----------------------------------------------------------------
    1      C      -0.1571040000    -0.8232180000     1.0210160000
    2      S       0.0012960000     0.0621820000     2.5317160000
    3      C       0.2737960000     1.6137820000     1.7486160000
    4      C       0.0005960000     0.0711820000    -0.0436840000
    5      C       0.2402960000     1.4391820000     0.3427160000
    6      C      -0.0093040000     0.0055820000    -1.4650840000
    7      C       0.2101960000     1.2511820000    -2.0858840000
    8      S       0.4234960000     2.4802820000    -0.9446840000
    9      C       0.2589960000     1.5009820000    -3.5389840000
   10      O       0.0997960000     0.5811820000    -4.3292840000
   11      O       0.4849960000     2.7640820000    -3.9833840000
   12      F      -0.1989040000    -1.0923180000    -2.2252840000
   13      C       0.5572960000     3.1155820000    -5.3139840000
   14      H       0.7496960000     4.2036820000    -5.3492840000
   15      H      -0.3878040000     2.8868820000    -5.8545840000
   16      H       1.3747960000     2.5754820000    -5.8408840000
   17      C      -0.1571040000    -2.2584180000     1.0210160000
   18      H       0.3901960000    -2.2674180000     1.9520160000
   19      H      -0.8808040000    -2.9423180000     1.4392160000
   20      H       0.6564960000    -2.7828180000     0.5420160000
   21      H       0.4335960000     2.5197820000     2.3425160000
 ----------------------------------------------------------------
 Nuclear Repulsion Energy =        1088.88294777 hartrees
 There are       59 alpha and       59 beta electrons
 Requested basis set is cc-pVTZ
 There are 186 shells and 526 basis functions

 Total QAlloc Memory Limit 110000 MB
 Mega-Array Size       188 MB
 MEM_STATIC part       192 MB
 Discretize the solute cavity surface with Lebedev spheres
	Using 110 Lebedev grid points for each H atom
	Using 194 Lebedev grid points for other atoms
	Atomic van der Waals radii will be scaled by 1.20
 Remove points where switching function is < 1.0e-08
 Keep 1572 surface tesserae and discard 1914 interior tesserae
 Molecular Surface Area = 242.140 Angst**2
 Requested basis set is rimp2-cc-pVTZ
 There are 410 shells and 1426 basis functions
 A cutoff of  1.0D-10 yielded  11513 shell pairs
 There are     90433 function pairs (    118420 Cartesian)
 Smallest overlap matrix eigenvalue = 5.65E-05

 Scale SEOQF with 1.000000e+00/1.000000e-01/1.000000e-02

 Standard Electronic Orientation quadrupole field applied
 Nucleus-field energy     =     0.0000000224 hartrees
 Guess from superposition of atomic densities
 Warning:  Energy on first SCF cycle will be non-variational
 SAD guess density has 118.000000 electrons

 -----------------------------------------------------------------------
  General SCF calculation program by
  Eric Jon Sundstrom, Paul Horn, Yuezhi Mao, Dmitri Zuev, Alec White,
  David Stuck, Shaama M.S., Shane Yost, Joonho Lee, David Small,
  Daniel Levine, Susi Lehtola, Hugh Burton, Evgeny Epifanovsky,
  Bang C. Huynh
 -----------------------------------------------------------------------
 Hartree-Fock
 using 64 threads for integral computing
 -------------------------------------------------------
 OpenMP Integral computing Module                
 Release: version 1.0, May 2013, Q-Chem Inc. Pittsburgh 
 -------------------------------------------------------
 A restricted SCF calculation will be
 performed using DIIS
 SCF converges when DIIS error is below 1.0e-06
 ---------------------------------------
  Cycle       Energy         DIIS error
 ---------------------------------------
    1   -1394.5711321995      2.53e-02  
    2   -1389.0107469957      2.50e-03  
    3   -1389.1833763683      1.57e-03  
    4   -1389.2446640030      3.48e-04  
    5   -1389.2503321686      1.10e-04  
    6   -1389.2509972666      3.64e-05  
    7   -1389.2511395032      1.82e-05  
    8   -1389.2511870110      7.22e-06  
    9   -1389.2511973896      3.23e-06  
   10   -1389.2511990063      1.24e-06  
   11   -1389.2511992473      4.67e-07  Convergence criterion met
 ---------------------------------------
 SCF time:   CPU 1694.37s  wall 49.00s 

************** Final PCM Free Energy Summary **************
 G_electrostatic  =      -0.01353335 hartree =      -8.49230603 kcal/mol
 G_cavitation     =       0.00000000 hartree =       0.00000000 kcal/mol
 G_dispersion     =       0.00000000 hartree =       0.00000000 kcal/mol
 G_repulsion      =       0.00000000 hartree =       0.00000000 kcal/mol
 --------------------------------------------------
 Non-electrostatic Free Energy =       0.00000000 hartree =       0.00000000 kcal/mol
 Total                         =      -0.01353335 hartree =      -8.49230603 kcal/mol
 --------------------------------------------------
 SCF Energy (H0 + V/2)                       =   -1389.25119925 
 Solute Internal Energy (H0)                 =   -1389.23766590 
 Total Free Energy (H0 + V/2 + non-elec)     =   -1389.25119925 hartree
                                             = -871768.28512580 kcal/mol
***********************************************************

 SCF   energy in the final basis set =    -1389.2511992473
 Total energy in the final basis set =    -1389.2511992473


 --------------------------------------------------------------
  Generalized many-body perturbation theory program
  by Joonho Lee, Fazle Rob, Xintian Feng, Evgeny Epifanovsky

 No regularization used 
 (reg. param. = 0.0000e+00)
  (P|Q)^-1/2 Time:  CPU 22.37 s  wall 0.36 s

 In RI-MP2 calculation: 
 # of frozen core orbitals: 22

 Components of the RIMP2 correlation energy:
        aaaa    correlation energy =        -0.3292141304 a.u.
        abab    correlation energy =        -1.8469469919 a.u.
        bbbb    correlation energy =        -0.3292141304 a.u.
        non-Brillouin singles      =        -0.0000000000 a.u.
        total same-spin energy     =        -0.6584282608 a.u.
        total opposite-spin energy =        -1.8469469919 a.u.

 Total  RIMP2   correlation energy =        -2.5053752527 a.u.
        RIMP2         total energy =     -1391.7565745000 a.u.

 RI-MP2 Energy Time:  CPU 179.24 s  wall 3.02 s
 
 --------------------------------------------------------------
 
                    Orbital Energies (a.u.)
 --------------------------------------------------------------
 
 Alpha MOs
 -- Occupied --
-92.0073 -91.9892 -26.3331 -20.6102 -20.5469 -11.4074 -11.3755 -11.3103
-11.2912 -11.2908 -11.2875 -11.2823 -11.2694 -11.2294  -9.0062  -8.9934
 -6.6870  -6.6864  -6.6859  -6.6747  -6.6741  -6.6727  -1.6461  -1.4697
 -1.3647  -1.2268  -1.1470  -1.0655  -1.0293  -1.0054  -0.9683  -0.9099
 -0.8640  -0.7965  -0.7841  -0.7675  -0.7262  -0.7140  -0.6956  -0.6769
 -0.6763  -0.6677  -0.6093  -0.6039  -0.5980  -0.5870  -0.5764  -0.5656
 -0.5433  -0.5247  -0.5066  -0.4832  -0.4793  -0.4612  -0.4591  -0.4569
 -0.3950  -0.3461  -0.2793
 -- Virtual --
  0.0385   0.1185   0.1328   0.1556   0.1598   0.1683   0.1905   0.1951
  0.2089   0.2184   0.2213   0.2316   0.2362   0.2468   0.2649   0.2698
  0.2821   0.3092   0.3139   0.3342   0.3470   0.3620   0.3700   0.3771
  0.3815   0.3939   0.3949   0.4120   0.4179   0.4326   0.4377   0.4421
  0.4630   0.4686   0.4743   0.4860   0.4990   0.5061   0.5144   0.5245
  0.5342   0.5383   0.5452   0.5567   0.5584   0.5677   0.5770   0.5857
  0.5911   0.5952   0.6076   0.6106   0.6156   0.6210   0.6248   0.6264
  0.6411   0.6462   0.6514   0.6662   0.6746   0.6833   0.6964   0.7049
  0.7118   0.7154   0.7428   0.7589   0.7687   0.7874   0.7899   0.7953
  0.8058   0.8122   0.8229   0.8390   0.8575   0.8777   0.8815   0.8952
  0.9037   0.9112   0.9247   0.9282   0.9369   0.9482   0.9637   0.9703
  0.9803   0.9919   0.9975   1.0123   1.0243   1.0333   1.0454   1.0605
  1.0618   1.0778   1.0831   1.0906   1.0989   1.1030   1.1183   1.1381
  1.1474   1.1552   1.1587   1.1678   1.1816   1.1923   1.2039   1.2114
  1.2218   1.2364   1.2445   1.2566   1.2630   1.2785   1.2979   1.3147
  1.3206   1.3303   1.3436   1.3543   1.3757   1.3800   1.3921   1.4028
  1.4166   1.4330   1.4536   1.4679   1.4784   1.4946   1.5031   1.5118
  1.5143   1.5162   1.5423   1.5497   1.5626   1.5677   1.5833   1.6106
  1.6181   1.6410   1.6615   1.6732   1.6836   1.7091   1.7209   1.7341
  1.7421   1.7646   1.7901   1.8126   1.8234   1.8356   1.8437   1.8568
  1.8724   1.8758   1.8955   1.9157   1.9352   1.9376   1.9547   1.9614
  1.9983   2.0221   2.0297   2.0379   2.0540   2.0973   2.1082   2.1284
  2.1428   2.1567   2.1647   2.1724   2.1975   2.2056   2.2200   2.2401
  2.2498   2.2771   2.2807   2.2901   2.2912   2.3093   2.3308   2.3451
  2.3703   2.3842   2.4110   2.4253   2.4633   2.4695   2.4792   2.4916
  2.5304   2.5567   2.5758   2.5792   2.5914   2.6178   2.6339   2.6416
  2.6528   2.6574   2.6731   2.6837   2.6976   2.7027   2.7200   2.7321
  2.7352   2.7547   2.7666   2.7725   2.7811   2.8084   2.8125   2.8278
  2.8476   2.8559   2.8656   2.8891   2.9123   2.9182   2.9334   2.9495
  2.9566   2.9901   3.0241   3.0260   3.0445   3.0508   3.0608   3.0685
  3.0834   3.0928   3.0998   3.1147   3.1212   3.1371   3.1462   3.1587
  3.1615   3.1831   3.1993   3.2033   3.2147   3.2312   3.2445   3.2542
  3.2645   3.2708   3.2725   3.2822   3.2932   3.3088   3.3167   3.3262
  3.3382   3.3496   3.3637   3.3647   3.3733   3.3893   3.3995   3.4088
  3.4359   3.4415   3.4449   3.4551   3.4634   3.4721   3.4880   3.4934
  3.5042   3.5183   3.5291   3.5515   3.5675   3.5807   3.5906   3.5977
  3.6065   3.6134   3.6252   3.6419   3.6484   3.6564   3.6688   3.6779
  3.6848   3.6944   3.7019   3.7122   3.7165   3.7307   3.7326   3.7356
  3.7545   3.7751   3.7839   3.8005   3.8248   3.8336   3.8410   3.8515
  3.8593   3.8634   3.8690   3.8789   3.8887   3.9225   3.9302   3.9424
  3.9563   3.9725   3.9807   3.9875   3.9935   4.0063   4.0361   4.0519
  4.0681   4.0750   4.0892   4.0959   4.1199   4.1320   4.1652   4.1731
  4.1870   4.1912   4.2228   4.2811   4.2832   4.2945   4.3199   4.3278
  4.3485   4.3569   4.3664   4.3783   4.3975   4.4111   4.4274   4.4394
  4.4582   4.4729   4.4969   4.5086   4.5238   4.5511   4.5884   4.5967
  4.6308   4.6393   4.6584   4.6598   4.6719   4.6884   4.7150   4.7347
  4.7617   4.7697   4.7864   4.8005   4.8135   4.8635   4.9126   4.9203
  4.9728   5.0122   5.0258   5.0299   5.0738   5.1107   5.1218   5.1550
  5.1827   5.2143   5.2188   5.2538   5.2601   5.2669   5.2952   5.3530
  5.3564   5.3611   5.4001   5.4284   5.4639   5.4741   5.4922   5.5343
  5.5551   5.5975   5.6085   5.6202   5.6437   5.6879   5.7336   5.8025
  5.8036   5.8341   5.8581   5.8767   5.8987   5.9722   5.9783   6.0549
  6.0620   6.1276   6.1350   6.1868   6.2232   6.3103   6.3749   6.4454
  6.4640   6.5183   6.5587   6.6726   6.6793   6.7396   6.7414   6.8631
  6.8836   6.9937   7.1804   7.2121   7.3291   7.3737   7.3767   7.4298
  7.4645   7.4875   7.5209   7.5510   7.6147   7.7711   7.8335   7.9121
  8.0011   8.1238   8.4572   8.9285   9.0086   9.3635   9.4988   9.6887
 10.1336  11.2278  11.5218  11.9350  12.2829  12.6821  13.1343  13.4911
 13.7985  14.0801  14.7347
 --------------------------------------------------------------
 
          Ground-State Mulliken Net Atomic Charges

     Atom                 Charge (a.u.)
  ----------------------------------------
      1 C                     0.047721
      2 S                     0.082144
      3 C                    -0.258405
      4 C                    -0.095431
      5 C                    -0.012663
      6 C                     0.392893
      7 C                    -0.166930
      8 S                     0.027244
      9 C                     0.459551
     10 O                    -0.455107
     11 O                    -0.298432
     12 F                    -0.213078
     13 C                    -0.054916
     14 H                     0.116136
     15 H                     0.083938
     16 H                     0.083821
     17 C                    -0.374467
     18 H                     0.123642
     19 H                     0.155018
     20 H                     0.145828
     21 H                     0.211491
  ----------------------------------------
  Sum of atomic charges =     0.000000

 -----------------------------------------------------------------
                    Cartesian Multipole Moments
 -----------------------------------------------------------------
    Charge (ESU x 10^10)
                -0.0000
    Dipole Moment (Debye)
         X       0.8417      Y       0.9161      Z       4.1139
       Tot       4.2978
    Quadrupole Moments (Debye-Ang)
        XX     -95.8881     XY       0.9385     YY     -82.5528
        XZ      -1.8668     YZ     -13.3895     ZZ     -95.1649
    Octopole Moments (Debye-Ang^2)
       XXX     -47.8025    XXY     -83.0432    XYY      -8.9568
       YYY    -229.3451    XXZ      78.7310    XYZ      -2.6521
       YYZ      69.6581    XZZ       0.2431    YZZ       5.0877
       ZZZ     257.8813
    Hexadecapole Moments (Debye-Ang^3)
      XXXX    -167.8135   XXXY    -141.6654   XXYY    -340.4133
      XYYY    -116.2974   YYYY   -1736.7703   XXXZ     124.3250
      XXYZ     243.4556   XYYZ      21.3574   YYYZ     628.6413
      XXZZ    -678.7375   XYZZ       6.4817   YYZZ    -679.0239
      XZZZ      52.2171   YZZZ     331.3947   ZZZZ   -3800.7851
 -----------------------------------------------------------------
 Total job time:  53.94s(wall), 1969.09s(cpu) 
 Sun Sep 24 16:44:39 2023

        *************************************************************
        *                                                           *
        *  Thank you very much for using Q-Chem.  Have a nice day.  *
        *                                                           *
        *************************************************************


0 sent ACK to 0 
now end server 0 ... 
cleanup process ... done
remove work dirs ./qchem962346.0 -- ./qchem962346.0
rm -rf ./qchem962346.0
rm -rf ./qchem962346
