You are running Q-Chem version: 5.4.0

#
# job setting
#
local host:  exp-9-02
current dir: /expanse/lustre/projects/csd626/rramji/aromodel/PTB7_fin/Hydrogenated_Impropers_Test
input file:  fin_bdt_Phi_30_Theta_210_fin_ftt_Hydrogenated_Improper.qcin
output file: 
nprocs     : 1
nthreads   : 64
#
# qchem installation setting
#
QC:          /cm/shared/apps/spack/cpu/opt/spack/linux-centos8-zen2/gcc-10.2.0/qchem-5.4-akfmr7b3t57bfs6qan3padb2wnb2i7cl
QCAUX:       /cm/shared/apps/spack/cpu/opt/spack/linux-centos8-zen2/gcc-10.2.0/qchem-5.4-akfmr7b3t57bfs6qan3padb2wnb2i7cl/qcaux
QCPROG:      /cm/shared/apps/spack/cpu/opt/spack/linux-centos8-zen2/gcc-10.2.0/qchem-5.4-akfmr7b3t57bfs6qan3padb2wnb2i7cl/exe/qcprog.exe
QCPROG_S:    /cm/shared/apps/spack/cpu/opt/spack/linux-centos8-zen2/gcc-10.2.0/qchem-5.4-akfmr7b3t57bfs6qan3padb2wnb2i7cl/exe/qcprog.exe_s
PARALLEL:    -DPARALLEL
QCMPI:       mpich
#
# qchem directory setting
#
qcrun:       qchem639960
QCSCRATCH:   .
QCLOCALSCR:  
QCTMPDIR:    .
QCFILEPREF:  ./qchem639960
QCSAVEDIR:   
workdirs:    ./qchem639960
workdir0:    ./qchem639960
partmpdirs =  
#
# parallel setting
#
QCRSH:           ssh
QCMPI:           mpich
QCMPIRUN:        /cm/shared/apps/spack/cpu/opt/spack/linux-centos8-zen2/gcc-10.2.0/qchem-5.4-akfmr7b3t57bfs6qan3padb2wnb2i7cl/bin/mpi/mpirun_qchem
QCMACHINEFILE:   ./qchem639960/hostfile
exp-9-02

#
# env setting
#
exported envs:   QC QCAUX QCSCRATCH QCRUNNAME QCFILEPREF QCPROG QCPROG_S GUIFILE

Running Job 1 of 1 fin_bdt_Phi_30_Theta_210_fin_ftt_Hydrogenated_Improper.qcin
qchem fin_bdt_Phi_30_Theta_210_fin_ftt_Hydrogenated_Improper.qcin_639960.0 ./qchem639960/ 1
/cm/shared/apps/spack/cpu/opt/spack/linux-centos8-zen2/gcc-10.2.0/qchem-5.4-akfmr7b3t57bfs6qan3padb2wnb2i7cl/bin/mpi/mpirun_qchem -machinefile ./qchem639960/hostfile -np 1 /cm/shared/apps/spack/cpu/opt/spack/linux-centos8-zen2/gcc-10.2.0/qchem-5.4-akfmr7b3t57bfs6qan3padb2wnb2i7cl/exe/qcprog.exe fin_bdt_Phi_30_Theta_210_fin_ftt_Hydrogenated_Improper.qcin_639960.0 ./qchem639960/

Process 0 of 1 is on exp-9-02 - thread support 0
initial socket setup ...start
initial socket setup ...done 
now start server 0 ... 
                  Welcome to Q-Chem
     A Quantum Leap Into The Future Of Chemistry


 Q-Chem 5.4, Q-Chem, Inc., Pleasanton, CA (2021)

 License issued to: University of California, San Diego (site)

 E. Epifanovsky,  A. T. B. Gilbert,  Xintian Feng,  Joonho Lee,  Yuezhi Mao,  
 N. Mardirossian,  P. Pokhilko,  A. White,  M. Wormit,  M. P. Coons,  
 A. L. Dempwolff,  Zhengting Gan,  D. Hait,  P. R. Horn,  L. D. Jacobson,  
 I. Kaliman,  J. Kussmann,  A. W. Lange,  Ka Un Lao,  D. S. Levine,  Jie Liu,  
 S. C. McKenzie,  A. F. Morrison,  K. Nanda,  F. Plasser,  D. R. Rehn,  
 M. L. Vidal,  Zhi-Qiang You,  Ying Zhu,  B. Alam,  B. Albrecht,  
 A. Aldossary,  E. Alguire,  J. H. Andersen,  D. Barton,  K. Begam,  A. Behn,  
 Y. A. Bernard,  E. J. Berquist,  H. Burton,  A. Carreras,  K. Carter-Fenk,  
 R. Chakraborty,  A. D. Chien,  K. D. Closser,  V. Cofer-Shabica,  
 S. Dasgupta,  Jia Deng,  M. de Wergifosse,  M. Diedenhofen,  Hainam Do,  
 S. Ehlert,  Po-Tung Fang,  S. Fatehi,  Qingguo Feng,  J. Gayvert,  
 Qinghui Ge,  G. Gidofalvi,  M. Goldey,  J. Gomes,  C. Gonzalez-Espinoza,  
 S. Gulania,  A. Gunina,  M. W. D. Hanson-Heine,  P. H. P. Harbach,  
 A. W. Hauser,  M. F. Herbst,  M. Hernandez Vera,  M. Hodecker,  
 Z. C. Holden,  S. Houck,  Xunkun Huang,  Kerwin Hui,  B. C. Huynh,  
 M. Ivanov,  Hyunjun Ji,  Hanjie Jiang,  B. Kaduk,  S. Kaehler,  
 K. Khistyaev,  Jaehoon Kim,  P. Klunzinger,  Z. Koczor-Benda,  
 Joong Hoon Koh,  D. Kosenkov,  L. Koulias,  T. Kowalczyk,  C. M. Krauter,  
 K. Kue,  A. Kunitsa,  T. Kus,  A. Landau,  K. V. Lawler,  D. Lefrancois,  
 S. Lehtola,  Rain Li,  Yi-Pei Li,  Jiashu Liang,  M. Liebenthal,  
 Hung-Hsuan Lin,  You-Sheng Lin,  Fenglai Liu,  Kuan-Yu Liu,  
 M. Loipersberger,  A. Luenser,  A. Manjanath,  P. Manohar,  E. Mansoor,  
 S. F. Manzer,  Shan-Ping Mao,  A. V. Marenich,  T. Markovich,  S. Mason,  
 S. A. Maurer,  P. F. McLaughlin,  M. F. S. J. Menger,  J.-M. Mewes,  
 S. A. Mewes,  P. Morgante,  J. W. Mullinax,  T. S. Nguyen-Beck,  
 K. J. Oosterbaan,  G. Paran,  Alexander C. Paul,  Suranjan K. Paul,  
 F. Pavosevic,  Zheng Pei,  S. Prager,  E. I. Proynov,  E. Ramos,  B. Rana,  
 A. E. Rask,  A. Rettig,  R. M. Richard,  F. Rob,  E. Rossomme,  T. Scheele,  
 M. Scheurer,  M. Schneider,  N. Sergueev,  S. M. Sharada,  W. Skomorowski,  
 D. W. Small,  C. J. Stein,  Yu-Chuan Su,  E. J. Sundstrom,  Zhen Tao,  
 J. Thirman,  T. Tsuchimochi,  N. M. Tubman,  S. P. Veccham,  O. Vydrov,  
 J. Wenzel,  J. Witte,  A. Yamada,  Kun Yao,  S. Yeganeh,  S. R. Yost,  
 A. Zech,  Igor Ying Zhang,  Xing Zhang,  Yu Zhang,  D. Zuev,  
 A. Aspuru-Guzik,  A. T. Bell,  N. A. Besley,  K. B. Bravaya,  B. R. Brooks,  
 D. Casanova,  Jeng-Da Chai,  S. Coriani,  C. J. Cramer,  
 A. E. DePrince, III,  R. A. DiStasio Jr.,  A. Dreuw,  B. D. Dunietz,  
 T. R. Furlani,  W. A. Goddard III,  S. Grimme,  S. Hammes-Schiffer,  
 T. Head-Gordon,  W. J. Hehre,  Chao-Ping Hsu,  T.-C. Jagau,  Yousung Jung,  
 A. Klamt,  Jing Kong,  D. S. Lambrecht,  WanZhen Liang,  N. J. Mayhall,  
 C. W. McCurdy,  J. B. Neaton,  C. Ochsenfeld,  J. A. Parkhill,  R. Peverati,  
 V. A. Rassolov,  Yihan Shao,  L. V. Slipchenko,  T. Stauch,  R. P. Steele,  
 J. E. Subotnik,  A. J. W. Thom,  A. Tkatchenko,  D. G. Truhlar,  
 T. Van Voorhis,  T. A. Wesolowski,  K. B. Whaley,  H. L. Woodcock III,  
 P. M. Zimmerman,  S. Faraji,  P. M. W. Gill,  M. Head-Gordon,  
 J. M. Herbert,  A. I. Krylov

 Contributors to earlier versions of Q-Chem not listed above: 
 R. D. Adamson,  B. Austin,  R. Baer,  J. Baker,  G. J. O. Beran,  
 K. Brandhorst,  S. T. Brown,  E. F. C. Byrd,  A. K. Chakraborty,  
 G. K. L. Chan,  Chun-Min Chang,  Yunqing Chen,  C.-L. Cheng,  
 Siu Hung Chien,  D. M. Chipman,  D. L. Crittenden,  H. Dachsel,  
 R. J. Doerksen,  A. D. Dutoi,  R. G. Edgar,  J. Fosso-Tande,  
 L. Fusti-Molnar,  D. Ghosh,  A. Ghysels,  A. Golubeva-Zadorozhnaya,  
 J. Gonthier,  M. S. Gordon,  S. R. Gwaltney,  G. Hawkins,  J. E. Herr,  
 A. Heyden,  S. Hirata,  E. G. Hohenstein,  G. Kedziora,  F. J. Keil,  
 C. Kelley,  Jihan Kim,  R. A. King,  R. Z. Khaliullin,  P. P. Korambath,  
 W. Kurlancheek,  A. Laurent,  A. M. Lee,  M. S. Lee,  S. V. Levchenko,  
 Ching Yeh Lin,  D. Liotard,  E. Livshits,  R. C. Lochan,  I. Lotan,  
 L. A. Martinez-Martinez,  P. E. Maslen,  N. Nair,  D. P. O'Neill,  
 D. Neuhauser,  E. Neuscamman,  C. M. Oana,  R. Olivares-Amaya,  R. Olson,  
 T. M. Perrine,  B. Peters,  P. A. Pieniazek,  A. Prociuk,  Y. M. Rhee,  
 J. Ritchie,  M. A. Rohrdanz,  E. Rosta,  N. J. Russ,  H. F. Schaefer III,  
 M. W. Schmidt,  N. E. Schultz,  S. Sharma,  N. Shenvi,  C. D. Sherrill,  
 A. C. Simmonett,  A. Sodt,  T. Stein,  D. Stuck,  K. S. Thanthiriwatte,  
 V. Vanovschi,  L. Vogt,  Tao Wang,  A. Warshel,  M. A. Watson,  
 C. F. Williams,  Q. Wu,  X. Xu,  Jun Yang,  W. Zhang,  Yan Zhao

 Please cite Q-Chem as follows:
 Y. Shao et al., Mol. Phys. 113, 184-215 (2015)
 DOI: 10.1080/00268976.2014.952696

 Q-Chem 5.4.0 for Intel X86 EM64T Linux

 Parts of Q-Chem use Armadillo 9.800.1 (Horizon Scraper).
 http://arma.sourceforge.net/

 Q-Chem begins on Sun Sep 24 17:05:50 2023  

 Host: 
0

     Scratch files written to ./qchem639960//
 May1621 |scratch|qcdevops|jenkins|workspace|build_RNUM    
 Parallel job on  1  processors
 Processing $rem in /cm/shared/apps/spack/cpu/opt/spack/linux-centos8-zen2/gcc-10.2.0/qchem-5.4-akfmr7b3t57bfs6qan3padb2wnb2i7cl/config/preferences:
 Processing $rem in /home/rramji/.qchemrc:
 Symmetry turned off for PCM/SM12/SMD calculation
 Core orbitals will be frozen

 Checking the input file for inconsistencies... 	...done.

 Q-Chem warning in module forms1/BasisType.C, line 2236:

 You are not using the predefined 5D/6D in this basis set.


--------------------------------------------------------------
User input:
--------------------------------------------------------------
$molecule
0 1
C	-0.442647	-0.717327	1.023873
S	0.008953	0.060473	2.534573
C	0.795753	1.425273	1.751473
C	0.011453	0.069273	-0.040827
C	0.704553	1.272673	0.345573
C	-0.020347	0.010873	-1.462227
C	0.611953	1.106373	-2.083027
S	1.232853	2.188373	-0.941827
C	0.743253	1.324373	-3.536127
O	0.279053	0.514473	-4.326427
O	1.387653	2.434073	-3.980527
F	-0.573947	-0.955927	-2.222427
C	1.575853	2.739673	-5.311127
H	2.128853	3.696273	-5.346427
H	0.609553	2.847873	-5.851727
H	2.159253	1.952473	-5.838027
C	-0.442647	-2.152527	1.023873
H	-1.382147	-2.161527	0.491273
H	-0.025047	-2.836427	0.299773
H	-0.907747	-2.676927	1.845473
H	1.255753	2.221973	2.345373
$end

$rem
JOBTYPE		SP
EXCHANGE	HF
CORRELATION	pRIMP2
BASIS		cc-pvtz
METHOD		rimp2
AUX_BASIS	rimp2-cc-pvtz
SOLVENT_METHOD	PCM
PURECART	11111
SYMMETRY	false
MEM_TOTAL	110000
SCF_CONVERGENCE = 6
THRESH=10
GUI = 2
$end



$solvent
dielectric 4.90
$end
--------------------------------------------------------------
 ----------------------------------------------------------------
             Standard Nuclear Orientation (Angstroms)
    I     Atom           X                Y                Z
 ----------------------------------------------------------------
    1      C      -0.4426470000    -0.7173270000     1.0238730000
    2      S       0.0089530000     0.0604730000     2.5345730000
    3      C       0.7957530000     1.4252730000     1.7514730000
    4      C       0.0114530000     0.0692730000    -0.0408270000
    5      C       0.7045530000     1.2726730000     0.3455730000
    6      C      -0.0203470000     0.0108730000    -1.4622270000
    7      C       0.6119530000     1.1063730000    -2.0830270000
    8      S       1.2328530000     2.1883730000    -0.9418270000
    9      C       0.7432530000     1.3243730000    -3.5361270000
   10      O       0.2790530000     0.5144730000    -4.3264270000
   11      O       1.3876530000     2.4340730000    -3.9805270000
   12      F      -0.5739470000    -0.9559270000    -2.2224270000
   13      C       1.5758530000     2.7396730000    -5.3111270000
   14      H       2.1288530000     3.6962730000    -5.3464270000
   15      H       0.6095530000     2.8478730000    -5.8517270000
   16      H       2.1592530000     1.9524730000    -5.8380270000
   17      C      -0.4426470000    -2.1525270000     1.0238730000
   18      H      -1.3821470000    -2.1615270000     0.4912730000
   19      H      -0.0250470000    -2.8364270000     0.2997730000
   20      H      -0.9077470000    -2.6769270000     1.8454730000
   21      H       1.2557530000     2.2219730000     2.3453730000
 ----------------------------------------------------------------
 Nuclear Repulsion Energy =        1090.96387260 hartrees
 There are       59 alpha and       59 beta electrons
 Requested basis set is cc-pVTZ
 There are 186 shells and 526 basis functions

 Total QAlloc Memory Limit 110000 MB
 Mega-Array Size       188 MB
 MEM_STATIC part       192 MB
 Discretize the solute cavity surface with Lebedev spheres
	Using 110 Lebedev grid points for each H atom
	Using 194 Lebedev grid points for other atoms
	Atomic van der Waals radii will be scaled by 1.20
 Remove points where switching function is < 1.0e-08
 Keep 1565 surface tesserae and discard 1921 interior tesserae
 Molecular Surface Area = 241.492 Angst**2
 Requested basis set is rimp2-cc-pVTZ
 There are 410 shells and 1426 basis functions
 A cutoff of  1.0D-10 yielded  11605 shell pairs
 There are     91321 function pairs (    119581 Cartesian)
 Smallest overlap matrix eigenvalue = 6.18E-05

 Scale SEOQF with 1.000000e-01/1.000000e-01/1.000000e-02

 Standard Electronic Orientation quadrupole field applied
 Nucleus-field energy     =     0.0000000154 hartrees
 Guess from superposition of atomic densities
 Warning:  Energy on first SCF cycle will be non-variational
 SAD guess density has 118.000000 electrons

 -----------------------------------------------------------------------
  General SCF calculation program by
  Eric Jon Sundstrom, Paul Horn, Yuezhi Mao, Dmitri Zuev, Alec White,
  David Stuck, Shaama M.S., Shane Yost, Joonho Lee, David Small,
  Daniel Levine, Susi Lehtola, Hugh Burton, Evgeny Epifanovsky,
  Bang C. Huynh
 -----------------------------------------------------------------------
 Hartree-Fock
 using 64 threads for integral computing
 -------------------------------------------------------
 OpenMP Integral computing Module                
 Release: version 1.0, May 2013, Q-Chem Inc. Pittsburgh 
 -------------------------------------------------------
 A restricted SCF calculation will be
 performed using DIIS
 SCF converges when DIIS error is below 1.0e-06
 ---------------------------------------
  Cycle       Energy         DIIS error
 ---------------------------------------
    1   -1394.5709282412      2.53e-02  
    2   -1388.9950077214      2.50e-03  
    3   -1389.1666058394      1.58e-03  
    4   -1389.2284423438      3.47e-04  
    5   -1389.2340926527      1.10e-04  
    6   -1389.2347443232      3.60e-05  
    7   -1389.2348810563      1.79e-05  
    8   -1389.2349267005      7.27e-06  
    9   -1389.2349373099      3.41e-06  
   10   -1389.2349391914      1.36e-06  
   11   -1389.2349395235      5.30e-07  Convergence criterion met
 ---------------------------------------
 SCF time:   CPU 1688.31s  wall 49.00s 

************** Final PCM Free Energy Summary **************
 G_electrostatic  =      -0.01288207 hartree =      -8.08362319 kcal/mol
 G_cavitation     =       0.00000000 hartree =       0.00000000 kcal/mol
 G_dispersion     =       0.00000000 hartree =       0.00000000 kcal/mol
 G_repulsion      =       0.00000000 hartree =       0.00000000 kcal/mol
 --------------------------------------------------
 Non-electrostatic Free Energy =       0.00000000 hartree =       0.00000000 kcal/mol
 Total                         =      -0.01288207 hartree =      -8.08362319 kcal/mol
 --------------------------------------------------
 SCF Energy (H0 + V/2)                       =   -1389.23493952 
 Solute Internal Energy (H0)                 =   -1389.22205745 
 Total Free Energy (H0 + V/2 + non-elec)     =   -1389.23493952 hartree
                                             = -871758.08199512 kcal/mol
***********************************************************

 SCF   energy in the final basis set =    -1389.2349395235
 Total energy in the final basis set =    -1389.2349395235


 --------------------------------------------------------------
  Generalized many-body perturbation theory program
  by Joonho Lee, Fazle Rob, Xintian Feng, Evgeny Epifanovsky

 No regularization used 
 (reg. param. = 0.0000e+00)
  (P|Q)^-1/2 Time:  CPU 21.27 s  wall 0.34 s

 In RI-MP2 calculation: 
 # of frozen core orbitals: 22

 Components of the RIMP2 correlation energy:
        aaaa    correlation energy =        -0.3303285168 a.u.
        abab    correlation energy =        -1.8504146799 a.u.
        bbbb    correlation energy =        -0.3303285168 a.u.
        non-Brillouin singles      =        -0.0000000000 a.u.
        total same-spin energy     =        -0.6606570335 a.u.
        total opposite-spin energy =        -1.8504146799 a.u.

 Total  RIMP2   correlation energy =        -2.5110717135 a.u.
        RIMP2         total energy =     -1391.7460112370 a.u.

 RI-MP2 Energy Time:  CPU 174.31 s  wall 2.91 s
 
 --------------------------------------------------------------
 
                    Orbital Energies (a.u.)
 --------------------------------------------------------------
 
 Alpha MOs
 -- Occupied --
-92.0045 -91.9909 -26.3343 -20.6105 -20.5474 -11.4079 -11.3758 -11.3053
-11.2923 -11.2917 -11.2877 -11.2842 -11.2717 -11.2274  -9.0035  -8.9950
 -6.6843  -6.6836  -6.6832  -6.6763  -6.6757  -6.6743  -1.6473  -1.4701
 -1.3651  -1.2278  -1.1465  -1.0668  -1.0272  -1.0052  -0.9683  -0.9107
 -0.8636  -0.7957  -0.7853  -0.7671  -0.7262  -0.7154  -0.6961  -0.6776
 -0.6772  -0.6685  -0.6076  -0.6043  -0.5958  -0.5883  -0.5776  -0.5612
 -0.5407  -0.5236  -0.5109  -0.4914  -0.4802  -0.4606  -0.4586  -0.4513
 -0.3883  -0.3455  -0.2756
 -- Virtual --
  0.0325   0.1183   0.1360   0.1557   0.1588   0.1710   0.1812   0.1975
  0.2073   0.2153   0.2169   0.2210   0.2317   0.2437   0.2610   0.2735
  0.2878   0.2990   0.3117   0.3432   0.3457   0.3551   0.3708   0.3780
  0.3812   0.3890   0.4000   0.4086   0.4197   0.4294   0.4399   0.4413
  0.4530   0.4705   0.4763   0.4896   0.4994   0.5065   0.5090   0.5198
  0.5333   0.5417   0.5472   0.5511   0.5557   0.5695   0.5726   0.5844
  0.5868   0.5946   0.6017   0.6115   0.6175   0.6202   0.6244   0.6354
  0.6443   0.6454   0.6496   0.6564   0.6669   0.6914   0.6962   0.7018
  0.7128   0.7286   0.7366   0.7490   0.7667   0.7791   0.7880   0.7938
  0.8023   0.8141   0.8256   0.8403   0.8652   0.8742   0.8804   0.8869
  0.8975   0.9125   0.9264   0.9293   0.9409   0.9458   0.9722   0.9824
  0.9879   0.9919   1.0092   1.0202   1.0236   1.0356   1.0414   1.0559
  1.0612   1.0742   1.0778   1.0889   1.0923   1.1032   1.1158   1.1233
  1.1414   1.1569   1.1590   1.1698   1.1745   1.1879   1.1910   1.2170
  1.2202   1.2356   1.2402   1.2424   1.2770   1.2861   1.3021   1.3178
  1.3294   1.3378   1.3432   1.3457   1.3578   1.3705   1.3785   1.4088
  1.4347   1.4453   1.4607   1.4693   1.4791   1.4861   1.4935   1.5064
  1.5133   1.5158   1.5275   1.5564   1.5621   1.5722   1.5848   1.5951
  1.6180   1.6405   1.6522   1.6670   1.6907   1.7044   1.7279   1.7358
  1.7439   1.7621   1.7719   1.8085   1.8317   1.8342   1.8361   1.8480
  1.8691   1.8808   1.8851   1.9251   1.9355   1.9423   1.9534   1.9801
  2.0031   2.0141   2.0301   2.0447   2.0548   2.0988   2.1112   2.1287
  2.1438   2.1549   2.1622   2.1704   2.1929   2.1971   2.2157   2.2272
  2.2445   2.2664   2.2745   2.2801   2.2879   2.2939   2.3262   2.3590
  2.3725   2.3797   2.3968   2.4183   2.4401   2.4616   2.4888   2.5136
  2.5304   2.5469   2.5680   2.5752   2.5853   2.5974   2.6257   2.6395
  2.6529   2.6653   2.6787   2.6835   2.6914   2.6993   2.7051   2.7196
  2.7380   2.7504   2.7683   2.7825   2.7976   2.8095   2.8185   2.8288
  2.8408   2.8623   2.8841   2.8928   2.9021   2.9242   2.9294   2.9578
  2.9654   2.9856   3.0152   3.0350   3.0442   3.0459   3.0515   3.0606
  3.0834   3.0918   3.1008   3.1171   3.1260   3.1385   3.1557   3.1599
  3.1645   3.1731   3.1887   3.2038   3.2134   3.2242   3.2433   3.2561
  3.2598   3.2703   3.2721   3.2873   3.2960   3.2981   3.3118   3.3189
  3.3476   3.3527   3.3594   3.3694   3.3709   3.3926   3.4106   3.4160
  3.4406   3.4450   3.4468   3.4525   3.4650   3.4780   3.4896   3.5103
  3.5144   3.5300   3.5340   3.5466   3.5716   3.5772   3.5856   3.5892
  3.5963   3.6067   3.6140   3.6426   3.6439   3.6559   3.6634   3.6714
  3.6866   3.6923   3.7120   3.7127   3.7263   3.7283   3.7379   3.7408
  3.7592   3.7678   3.7959   3.8039   3.8154   3.8254   3.8344   3.8464
  3.8532   3.8630   3.8690   3.8769   3.9040   3.9196   3.9351   3.9459
  3.9549   3.9635   3.9799   3.9955   3.9995   4.0144   4.0549   4.0626
  4.0731   4.0895   4.0929   4.1029   4.1389   4.1648   4.1746   4.1798
  4.1925   4.2387   4.2401   4.2650   4.2822   4.3016   4.3113   4.3487
  4.3507   4.3738   4.3776   4.3784   4.3921   4.4185   4.4254   4.4405
  4.4533   4.4793   4.5028   4.5111   4.5313   4.5619   4.5780   4.5875
  4.6407   4.6419   4.6514   4.6633   4.6748   4.6893   4.7064   4.7232
  4.7470   4.7792   4.7904   4.8056   4.8119   4.8814   4.9106   4.9477
  4.9734   4.9992   5.0137   5.0174   5.0493   5.0805   5.1191   5.1387
  5.1732   5.1986   5.2111   5.2311   5.2558   5.2601   5.2792   5.3476
  5.3561   5.3710   5.3935   5.4171   5.4391   5.4738   5.4861   5.5352
  5.5593   5.5776   5.6197   5.6213   5.6403   5.7007   5.7483   5.7960
  5.8023   5.8283   5.8527   5.9035   5.9313   5.9692   5.9720   6.0243
  6.0665   6.1263   6.1347   6.1862   6.2407   6.3100   6.3683   6.4192
  6.4979   6.5223   6.5582   6.6652   6.6788   6.7380   6.7417   6.8626
  6.8830   6.9923   7.1801   7.2120   7.3287   7.3728   7.3756   7.4282
  7.4641   7.4866   7.5178   7.5504   7.6091   7.7703   7.8332   7.9066
  8.0026   8.1215   8.4148   8.9287   9.0053   9.3630   9.4945   9.6920
 10.1587  11.2201  11.6548  11.9310  12.2904  12.6503  13.1332  13.3946
 13.7518  14.0664  14.7242
 --------------------------------------------------------------
 
          Ground-State Mulliken Net Atomic Charges

     Atom                 Charge (a.u.)
  ----------------------------------------
      1 C                     0.020039
      2 S                     0.093507
      3 C                    -0.250880
      4 C                    -0.098591
      5 C                    -0.010767
      6 C                     0.367694
      7 C                    -0.159675
      8 S                     0.033946
      9 C                     0.457134
     10 O                    -0.454895
     11 O                    -0.298578
     12 F                    -0.211695
     13 C                    -0.054842
     14 H                     0.116307
     15 H                     0.083907
     16 H                     0.083878
     17 C                    -0.377736
     18 H                     0.138083
     19 H                     0.169132
     20 H                     0.144546
     21 H                     0.209485
  ----------------------------------------
  Sum of atomic charges =     0.000000

 -----------------------------------------------------------------
                    Cartesian Multipole Moments
 -----------------------------------------------------------------
    Charge (ESU x 10^10)
                -0.0000
    Dipole Moment (Debye)
         X       0.8315      Y       0.7292      Z       3.1823
       Tot       3.3690
    Quadrupole Moments (Debye-Ang)
        XX     -93.6050     XY       5.9360     YY     -84.8180
        XZ      -6.0741     YZ      -9.8022     ZZ     -96.7416
    Octopole Moments (Debye-Ang^2)
       XXX    -130.4020    XXY     -65.3752    XYY     -36.0392
       YYY    -205.6307    XXZ      75.2121    XYZ      -5.5434
       YYZ      67.5952    XZZ       1.1815    YZZ       7.8819
       ZZZ     256.6115
    Hexadecapole Moments (Debye-Ang^3)
      XXXX    -512.7884   XXXY    -351.4202   XXYY    -313.2854
      XYYY    -307.3589   YYYY   -1431.7270   XXXZ     345.9749
      XXYZ     194.7336   XYYZ      75.7210   YYYZ     586.2675
      XXZZ    -670.4516   XYZZ      10.3217   YYZZ    -689.5818
      XZZZ     148.1638   YZZZ     293.1242   ZZZZ   -3793.8483
 -----------------------------------------------------------------
 Total job time:  53.38s(wall), 1938.42s(cpu) 
 Sun Sep 24 17:06:44 2023

        *************************************************************
        *                                                           *
        *  Thank you very much for using Q-Chem.  Have a nice day.  *
        *                                                           *
        *************************************************************


0 sent ACK to 0 
now end server 0 ... 
cleanup process ... done
remove work dirs ./qchem639960.0 -- ./qchem639960.0
rm -rf ./qchem639960.0
rm -rf ./qchem639960
