You are running Q-Chem version: 5.4.0

#
# job setting
#
local host:  exp-8-47
current dir: /expanse/lustre/projects/csd626/rramji/aromodel/PTB7_fin/Hydrogenated_Impropers_Test
input file:  fin_bdt_Phi_10_Theta_20_fin_ftt_Hydrogenated_Improper.qcin
output file: 
nprocs     : 1
nthreads   : 64
#
# qchem installation setting
#
QC:          /cm/shared/apps/spack/cpu/opt/spack/linux-centos8-zen2/gcc-10.2.0/qchem-5.4-akfmr7b3t57bfs6qan3padb2wnb2i7cl
QCAUX:       /cm/shared/apps/spack/cpu/opt/spack/linux-centos8-zen2/gcc-10.2.0/qchem-5.4-akfmr7b3t57bfs6qan3padb2wnb2i7cl/qcaux
QCPROG:      /cm/shared/apps/spack/cpu/opt/spack/linux-centos8-zen2/gcc-10.2.0/qchem-5.4-akfmr7b3t57bfs6qan3padb2wnb2i7cl/exe/qcprog.exe
QCPROG_S:    /cm/shared/apps/spack/cpu/opt/spack/linux-centos8-zen2/gcc-10.2.0/qchem-5.4-akfmr7b3t57bfs6qan3padb2wnb2i7cl/exe/qcprog.exe_s
PARALLEL:    -DPARALLEL
QCMPI:       mpich
#
# qchem directory setting
#
qcrun:       qchem961149
QCSCRATCH:   .
QCLOCALSCR:  
QCTMPDIR:    .
QCFILEPREF:  ./qchem961149
QCSAVEDIR:   
workdirs:    ./qchem961149
workdir0:    ./qchem961149
partmpdirs =  
#
# parallel setting
#
QCRSH:           ssh
QCMPI:           mpich
QCMPIRUN:        /cm/shared/apps/spack/cpu/opt/spack/linux-centos8-zen2/gcc-10.2.0/qchem-5.4-akfmr7b3t57bfs6qan3padb2wnb2i7cl/bin/mpi/mpirun_qchem
QCMACHINEFILE:   ./qchem961149/hostfile
exp-8-47

#
# env setting
#
exported envs:   QC QCAUX QCSCRATCH QCRUNNAME QCFILEPREF QCPROG QCPROG_S GUIFILE

Running Job 1 of 1 fin_bdt_Phi_10_Theta_20_fin_ftt_Hydrogenated_Improper.qcin
qchem fin_bdt_Phi_10_Theta_20_fin_ftt_Hydrogenated_Improper.qcin_961149.0 ./qchem961149/ 1
/cm/shared/apps/spack/cpu/opt/spack/linux-centos8-zen2/gcc-10.2.0/qchem-5.4-akfmr7b3t57bfs6qan3padb2wnb2i7cl/bin/mpi/mpirun_qchem -machinefile ./qchem961149/hostfile -np 1 /cm/shared/apps/spack/cpu/opt/spack/linux-centos8-zen2/gcc-10.2.0/qchem-5.4-akfmr7b3t57bfs6qan3padb2wnb2i7cl/exe/qcprog.exe fin_bdt_Phi_10_Theta_20_fin_ftt_Hydrogenated_Improper.qcin_961149.0 ./qchem961149/

Process 0 of 1 is on exp-8-47 - thread support 0
initial socket setup ...start
initial socket setup ...done 
now start server 0 ... 
                  Welcome to Q-Chem
     A Quantum Leap Into The Future Of Chemistry


 Q-Chem 5.4, Q-Chem, Inc., Pleasanton, CA (2021)

 License issued to: University of California, San Diego (site)

 E. Epifanovsky,  A. T. B. Gilbert,  Xintian Feng,  Joonho Lee,  Yuezhi Mao,  
 N. Mardirossian,  P. Pokhilko,  A. White,  M. Wormit,  M. P. Coons,  
 A. L. Dempwolff,  Zhengting Gan,  D. Hait,  P. R. Horn,  L. D. Jacobson,  
 I. Kaliman,  J. Kussmann,  A. W. Lange,  Ka Un Lao,  D. S. Levine,  Jie Liu,  
 S. C. McKenzie,  A. F. Morrison,  K. Nanda,  F. Plasser,  D. R. Rehn,  
 M. L. Vidal,  Zhi-Qiang You,  Ying Zhu,  B. Alam,  B. Albrecht,  
 A. Aldossary,  E. Alguire,  J. H. Andersen,  D. Barton,  K. Begam,  A. Behn,  
 Y. A. Bernard,  E. J. Berquist,  H. Burton,  A. Carreras,  K. Carter-Fenk,  
 R. Chakraborty,  A. D. Chien,  K. D. Closser,  V. Cofer-Shabica,  
 S. Dasgupta,  Jia Deng,  M. de Wergifosse,  M. Diedenhofen,  Hainam Do,  
 S. Ehlert,  Po-Tung Fang,  S. Fatehi,  Qingguo Feng,  J. Gayvert,  
 Qinghui Ge,  G. Gidofalvi,  M. Goldey,  J. Gomes,  C. Gonzalez-Espinoza,  
 S. Gulania,  A. Gunina,  M. W. D. Hanson-Heine,  P. H. P. Harbach,  
 A. W. Hauser,  M. F. Herbst,  M. Hernandez Vera,  M. Hodecker,  
 Z. C. Holden,  S. Houck,  Xunkun Huang,  Kerwin Hui,  B. C. Huynh,  
 M. Ivanov,  Hyunjun Ji,  Hanjie Jiang,  B. Kaduk,  S. Kaehler,  
 K. Khistyaev,  Jaehoon Kim,  P. Klunzinger,  Z. Koczor-Benda,  
 Joong Hoon Koh,  D. Kosenkov,  L. Koulias,  T. Kowalczyk,  C. M. Krauter,  
 K. Kue,  A. Kunitsa,  T. Kus,  A. Landau,  K. V. Lawler,  D. Lefrancois,  
 S. Lehtola,  Rain Li,  Yi-Pei Li,  Jiashu Liang,  M. Liebenthal,  
 Hung-Hsuan Lin,  You-Sheng Lin,  Fenglai Liu,  Kuan-Yu Liu,  
 M. Loipersberger,  A. Luenser,  A. Manjanath,  P. Manohar,  E. Mansoor,  
 S. F. Manzer,  Shan-Ping Mao,  A. V. Marenich,  T. Markovich,  S. Mason,  
 S. A. Maurer,  P. F. McLaughlin,  M. F. S. J. Menger,  J.-M. Mewes,  
 S. A. Mewes,  P. Morgante,  J. W. Mullinax,  T. S. Nguyen-Beck,  
 K. J. Oosterbaan,  G. Paran,  Alexander C. Paul,  Suranjan K. Paul,  
 F. Pavosevic,  Zheng Pei,  S. Prager,  E. I. Proynov,  E. Ramos,  B. Rana,  
 A. E. Rask,  A. Rettig,  R. M. Richard,  F. Rob,  E. Rossomme,  T. Scheele,  
 M. Scheurer,  M. Schneider,  N. Sergueev,  S. M. Sharada,  W. Skomorowski,  
 D. W. Small,  C. J. Stein,  Yu-Chuan Su,  E. J. Sundstrom,  Zhen Tao,  
 J. Thirman,  T. Tsuchimochi,  N. M. Tubman,  S. P. Veccham,  O. Vydrov,  
 J. Wenzel,  J. Witte,  A. Yamada,  Kun Yao,  S. Yeganeh,  S. R. Yost,  
 A. Zech,  Igor Ying Zhang,  Xing Zhang,  Yu Zhang,  D. Zuev,  
 A. Aspuru-Guzik,  A. T. Bell,  N. A. Besley,  K. B. Bravaya,  B. R. Brooks,  
 D. Casanova,  Jeng-Da Chai,  S. Coriani,  C. J. Cramer,  
 A. E. DePrince, III,  R. A. DiStasio Jr.,  A. Dreuw,  B. D. Dunietz,  
 T. R. Furlani,  W. A. Goddard III,  S. Grimme,  S. Hammes-Schiffer,  
 T. Head-Gordon,  W. J. Hehre,  Chao-Ping Hsu,  T.-C. Jagau,  Yousung Jung,  
 A. Klamt,  Jing Kong,  D. S. Lambrecht,  WanZhen Liang,  N. J. Mayhall,  
 C. W. McCurdy,  J. B. Neaton,  C. Ochsenfeld,  J. A. Parkhill,  R. Peverati,  
 V. A. Rassolov,  Yihan Shao,  L. V. Slipchenko,  T. Stauch,  R. P. Steele,  
 J. E. Subotnik,  A. J. W. Thom,  A. Tkatchenko,  D. G. Truhlar,  
 T. Van Voorhis,  T. A. Wesolowski,  K. B. Whaley,  H. L. Woodcock III,  
 P. M. Zimmerman,  S. Faraji,  P. M. W. Gill,  M. Head-Gordon,  
 J. M. Herbert,  A. I. Krylov

 Contributors to earlier versions of Q-Chem not listed above: 
 R. D. Adamson,  B. Austin,  R. Baer,  J. Baker,  G. J. O. Beran,  
 K. Brandhorst,  S. T. Brown,  E. F. C. Byrd,  A. K. Chakraborty,  
 G. K. L. Chan,  Chun-Min Chang,  Yunqing Chen,  C.-L. Cheng,  
 Siu Hung Chien,  D. M. Chipman,  D. L. Crittenden,  H. Dachsel,  
 R. J. Doerksen,  A. D. Dutoi,  R. G. Edgar,  J. Fosso-Tande,  
 L. Fusti-Molnar,  D. Ghosh,  A. Ghysels,  A. Golubeva-Zadorozhnaya,  
 J. Gonthier,  M. S. Gordon,  S. R. Gwaltney,  G. Hawkins,  J. E. Herr,  
 A. Heyden,  S. Hirata,  E. G. Hohenstein,  G. Kedziora,  F. J. Keil,  
 C. Kelley,  Jihan Kim,  R. A. King,  R. Z. Khaliullin,  P. P. Korambath,  
 W. Kurlancheek,  A. Laurent,  A. M. Lee,  M. S. Lee,  S. V. Levchenko,  
 Ching Yeh Lin,  D. Liotard,  E. Livshits,  R. C. Lochan,  I. Lotan,  
 L. A. Martinez-Martinez,  P. E. Maslen,  N. Nair,  D. P. O'Neill,  
 D. Neuhauser,  E. Neuscamman,  C. M. Oana,  R. Olivares-Amaya,  R. Olson,  
 T. M. Perrine,  B. Peters,  P. A. Pieniazek,  A. Prociuk,  Y. M. Rhee,  
 J. Ritchie,  M. A. Rohrdanz,  E. Rosta,  N. J. Russ,  H. F. Schaefer III,  
 M. W. Schmidt,  N. E. Schultz,  S. Sharma,  N. Shenvi,  C. D. Sherrill,  
 A. C. Simmonett,  A. Sodt,  T. Stein,  D. Stuck,  K. S. Thanthiriwatte,  
 V. Vanovschi,  L. Vogt,  Tao Wang,  A. Warshel,  M. A. Watson,  
 C. F. Williams,  Q. Wu,  X. Xu,  Jun Yang,  W. Zhang,  Yan Zhao

 Please cite Q-Chem as follows:
 Y. Shao et al., Mol. Phys. 113, 184-215 (2015)
 DOI: 10.1080/00268976.2014.952696

 Q-Chem 5.4.0 for Intel X86 EM64T Linux

 Parts of Q-Chem use Armadillo 9.800.1 (Horizon Scraper).
 http://arma.sourceforge.net/

 Q-Chem begins on Sun Sep 24 16:39:51 2023  

 Host: 
0

     Scratch files written to ./qchem961149//
 May1621 |scratch|qcdevops|jenkins|workspace|build_RNUM    
 Parallel job on  1  processors
 Processing $rem in /cm/shared/apps/spack/cpu/opt/spack/linux-centos8-zen2/gcc-10.2.0/qchem-5.4-akfmr7b3t57bfs6qan3padb2wnb2i7cl/config/preferences:
 Processing $rem in /home/rramji/.qchemrc:
 Symmetry turned off for PCM/SM12/SMD calculation
 Core orbitals will be frozen

 Checking the input file for inconsistencies... 	...done.

 Q-Chem warning in module forms1/BasisType.C, line 2236:

 You are not using the predefined 5D/6D in this basis set.


--------------------------------------------------------------
User input:
--------------------------------------------------------------
$molecule
0 1
C	-0.158002	-0.823218	1.022358
S	0.000398	0.062182	2.533058
C	0.272898	1.613782	1.749958
C	-0.000302	0.071182	-0.042342
C	0.239398	1.439182	0.344058
C	-0.010202	0.005582	-1.463742
C	0.209298	1.251182	-2.084542
S	0.422598	2.480282	-0.943342
C	0.258098	1.500982	-3.537642
O	0.098898	0.581182	-4.327942
O	0.484098	2.764082	-3.982042
F	-0.199802	-1.092318	-2.223942
C	0.556398	3.115582	-5.312642
H	0.748798	4.203682	-5.347942
H	-0.388702	2.886882	-5.853242
H	1.373898	2.575482	-5.839542
C	-0.158002	-2.258418	1.022358
H	0.859698	-2.267418	1.383758
H	-0.443502	-2.942318	1.807958
H	0.157398	-2.782818	0.132458
H	0.432698	2.519782	2.343858
$end

$rem
JOBTYPE		SP
EXCHANGE	HF
CORRELATION	pRIMP2
BASIS		cc-pvtz
METHOD		rimp2
AUX_BASIS	rimp2-cc-pvtz
SOLVENT_METHOD	PCM
PURECART	11111
SYMMETRY	false
MEM_TOTAL	110000
SCF_CONVERGENCE = 6
THRESH=10
GUI = 2
$end



$solvent
dielectric 4.90
$end
--------------------------------------------------------------
 ----------------------------------------------------------------
             Standard Nuclear Orientation (Angstroms)
    I     Atom           X                Y                Z
 ----------------------------------------------------------------
    1      C      -0.1580020000    -0.8232180000     1.0223580000
    2      S       0.0003980000     0.0621820000     2.5330580000
    3      C       0.2728980000     1.6137820000     1.7499580000
    4      C      -0.0003020000     0.0711820000    -0.0423420000
    5      C       0.2393980000     1.4391820000     0.3440580000
    6      C      -0.0102020000     0.0055820000    -1.4637420000
    7      C       0.2092980000     1.2511820000    -2.0845420000
    8      S       0.4225980000     2.4802820000    -0.9433420000
    9      C       0.2580980000     1.5009820000    -3.5376420000
   10      O       0.0988980000     0.5811820000    -4.3279420000
   11      O       0.4840980000     2.7640820000    -3.9820420000
   12      F      -0.1998020000    -1.0923180000    -2.2239420000
   13      C       0.5563980000     3.1155820000    -5.3126420000
   14      H       0.7487980000     4.2036820000    -5.3479420000
   15      H      -0.3887020000     2.8868820000    -5.8532420000
   16      H       1.3738980000     2.5754820000    -5.8395420000
   17      C      -0.1580020000    -2.2584180000     1.0223580000
   18      H       0.8596980000    -2.2674180000     1.3837580000
   19      H      -0.4435020000    -2.9423180000     1.8079580000
   20      H       0.1573980000    -2.7828180000     0.1324580000
   21      H       0.4326980000     2.5197820000     2.3438580000
 ----------------------------------------------------------------
 Nuclear Repulsion Energy =        1089.36240545 hartrees
 There are       59 alpha and       59 beta electrons
 Requested basis set is cc-pVTZ
 There are 186 shells and 526 basis functions

 Total QAlloc Memory Limit 110000 MB
 Mega-Array Size       188 MB
 MEM_STATIC part       192 MB
 Discretize the solute cavity surface with Lebedev spheres
	Using 110 Lebedev grid points for each H atom
	Using 194 Lebedev grid points for other atoms
	Atomic van der Waals radii will be scaled by 1.20
 Remove points where switching function is < 1.0e-08
 Keep 1575 surface tesserae and discard 1911 interior tesserae
 Molecular Surface Area = 242.319 Angst**2
 Requested basis set is rimp2-cc-pVTZ
 There are 410 shells and 1426 basis functions
 A cutoff of  1.0D-10 yielded  11537 shell pairs
 There are     90717 function pairs (    118807 Cartesian)
 Smallest overlap matrix eigenvalue = 5.54E-05

 Scale SEOQF with 1.000000e+00/1.000000e-01/1.000000e-02

 Standard Electronic Orientation quadrupole field applied
 Nucleus-field energy     =     0.0000000222 hartrees
 Guess from superposition of atomic densities
 Warning:  Energy on first SCF cycle will be non-variational
 SAD guess density has 118.000000 electrons

 -----------------------------------------------------------------------
  General SCF calculation program by
  Eric Jon Sundstrom, Paul Horn, Yuezhi Mao, Dmitri Zuev, Alec White,
  David Stuck, Shaama M.S., Shane Yost, Joonho Lee, David Small,
  Daniel Levine, Susi Lehtola, Hugh Burton, Evgeny Epifanovsky,
  Bang C. Huynh
 -----------------------------------------------------------------------
 Hartree-Fock
 using 64 threads for integral computing
 -------------------------------------------------------
 OpenMP Integral computing Module                
 Release: version 1.0, May 2013, Q-Chem Inc. Pittsburgh 
 -------------------------------------------------------
 A restricted SCF calculation will be
 performed using DIIS
 SCF converges when DIIS error is below 1.0e-06
 ---------------------------------------
  Cycle       Energy         DIIS error
 ---------------------------------------
    1   -1394.5611400835      2.52e-02  
    2   -1389.0153807819      2.50e-03  
    3   -1389.1879655008      1.57e-03  
    4   -1389.2493182239      3.46e-04  
    5   -1389.2549794734      1.10e-04  
    6   -1389.2556359130      3.63e-05  
    7   -1389.2557767923      1.79e-05  
    8   -1389.2558217872      6.94e-06  
    9   -1389.2558308790      3.02e-06  
   10   -1389.2558321797      1.14e-06  
   11   -1389.2558323669      4.18e-07  Convergence criterion met
 ---------------------------------------
 SCF time:   CPU 1696.50s  wall 49.00s 

************** Final PCM Free Energy Summary **************
 G_electrostatic  =      -0.01412208 hartree =      -8.86174180 kcal/mol
 G_cavitation     =       0.00000000 hartree =       0.00000000 kcal/mol
 G_dispersion     =       0.00000000 hartree =       0.00000000 kcal/mol
 G_repulsion      =       0.00000000 hartree =       0.00000000 kcal/mol
 --------------------------------------------------
 Non-electrostatic Free Energy =       0.00000000 hartree =       0.00000000 kcal/mol
 Total                         =      -0.01412208 hartree =      -8.86174180 kcal/mol
 --------------------------------------------------
 SCF Energy (H0 + V/2)                       =   -1389.25583237 
 Solute Internal Energy (H0)                 =   -1389.24171028 
 Total Free Energy (H0 + V/2 + non-elec)     =   -1389.25583237 hartree
                                             = -871771.19245222 kcal/mol
***********************************************************

 SCF   energy in the final basis set =    -1389.2558323669
 Total energy in the final basis set =    -1389.2558323669


 --------------------------------------------------------------
  Generalized many-body perturbation theory program
  by Joonho Lee, Fazle Rob, Xintian Feng, Evgeny Epifanovsky

 No regularization used 
 (reg. param. = 0.0000e+00)
  (P|Q)^-1/2 Time:  CPU 19.19 s  wall 0.31 s

 In RI-MP2 calculation: 
 # of frozen core orbitals: 22

 Components of the RIMP2 correlation energy:
        aaaa    correlation energy =        -0.3285614831 a.u.
        abab    correlation energy =        -1.8447064989 a.u.
        bbbb    correlation energy =        -0.3285614831 a.u.
        non-Brillouin singles      =        -0.0000000000 a.u.
        total same-spin energy     =        -0.6571229661 a.u.
        total opposite-spin energy =        -1.8447064989 a.u.

 Total  RIMP2   correlation energy =        -2.5018294650 a.u.
        RIMP2         total energy =     -1391.7576618319 a.u.

 RI-MP2 Energy Time:  CPU 170.79 s  wall 3.53 s
 
 --------------------------------------------------------------
 
                    Orbital Energies (a.u.)
 --------------------------------------------------------------
 
 Alpha MOs
 -- Occupied --
-92.0048 -91.9874 -26.3341 -20.6091 -20.5449 -11.4057 -11.3767 -11.3206
-11.2910 -11.2870 -11.2868 -11.2753 -11.2673 -11.2361  -9.0038  -8.9917
 -6.6847  -6.6841  -6.6835  -6.6730  -6.6723  -6.6709  -1.6470  -1.4685
 -1.3633  -1.2263  -1.1473  -1.0672  -1.0276  -1.0061  -0.9674  -0.9108
 -0.8625  -0.7960  -0.7841  -0.7660  -0.7260  -0.7146  -0.6961  -0.6770
 -0.6761  -0.6669  -0.6104  -0.6027  -0.5983  -0.5853  -0.5841  -0.5594
 -0.5345  -0.5264  -0.5169  -0.4933  -0.4780  -0.4616  -0.4583  -0.4561
 -0.3916  -0.3468  -0.2724
 -- Virtual --
  0.0448   0.1206   0.1343   0.1558   0.1593   0.1725   0.1959   0.1995
  0.2012   0.2102   0.2168   0.2251   0.2337   0.2416   0.2677   0.2738
  0.2855   0.3100   0.3277   0.3309   0.3454   0.3582   0.3691   0.3779
  0.3821   0.3890   0.4051   0.4157   0.4175   0.4317   0.4402   0.4436
  0.4598   0.4658   0.4697   0.4967   0.5011   0.5053   0.5161   0.5233
  0.5285   0.5373   0.5485   0.5576   0.5638   0.5691   0.5739   0.5870
  0.5929   0.5979   0.6036   0.6060   0.6141   0.6191   0.6227   0.6349
  0.6434   0.6459   0.6473   0.6640   0.6745   0.6917   0.6999   0.7088
  0.7169   0.7322   0.7392   0.7675   0.7698   0.7773   0.7868   0.7961
  0.8075   0.8183   0.8367   0.8499   0.8549   0.8636   0.8842   0.8934
  0.8991   0.9051   0.9235   0.9259   0.9372   0.9483   0.9675   0.9797
  0.9839   0.9996   1.0099   1.0196   1.0227   1.0350   1.0510   1.0536
  1.0599   1.0674   1.0837   1.0928   1.0987   1.1040   1.1131   1.1334
  1.1458   1.1561   1.1647   1.1727   1.1818   1.1872   1.2008   1.2092
  1.2203   1.2371   1.2506   1.2545   1.2712   1.2797   1.2932   1.3189
  1.3251   1.3379   1.3452   1.3560   1.3679   1.3812   1.4021   1.4178
  1.4203   1.4313   1.4495   1.4680   1.4786   1.5013   1.5068   1.5098
  1.5130   1.5150   1.5316   1.5507   1.5601   1.5671   1.5787   1.6012
  1.6227   1.6355   1.6638   1.6733   1.6851   1.7019   1.7121   1.7287
  1.7545   1.7684   1.7826   1.8160   1.8357   1.8419   1.8478   1.8658
  1.8751   1.8831   1.8924   1.9204   1.9271   1.9386   1.9463   1.9827
  2.0006   2.0218   2.0298   2.0495   2.0651   2.0939   2.1045   2.1330
  2.1444   2.1577   2.1631   2.1795   2.1990   2.2132   2.2219   2.2399
  2.2540   2.2732   2.2833   2.2853   2.2963   2.3150   2.3378   2.3605
  2.3812   2.3839   2.3904   2.4317   2.4364   2.4648   2.4925   2.4991
  2.5310   2.5549   2.5633   2.5865   2.5971   2.6098   2.6232   2.6356
  2.6552   2.6634   2.6682   2.6820   2.6850   2.7032   2.7162   2.7262
  2.7346   2.7413   2.7684   2.7723   2.8025   2.8082   2.8115   2.8311
  2.8388   2.8583   2.8808   2.8911   2.9082   2.9123   2.9387   2.9477
  2.9745   2.9889   3.0183   3.0332   3.0415   3.0455   3.0471   3.0643
  3.0888   3.0892   3.0952   3.1037   3.1153   3.1409   3.1533   3.1608
  3.1663   3.1784   3.1980   3.2053   3.2168   3.2238   3.2399   3.2504
  3.2597   3.2649   3.2745   3.2851   3.2966   3.3071   3.3137   3.3292
  3.3373   3.3455   3.3519   3.3658   3.3739   3.3950   3.3973   3.4147
  3.4244   3.4421   3.4542   3.4654   3.4750   3.4805   3.4903   3.5010
  3.5145   3.5176   3.5328   3.5389   3.5705   3.5737   3.5858   3.5967
  3.6023   3.6080   3.6277   3.6306   3.6343   3.6554   3.6600   3.6682
  3.6721   3.6855   3.6964   3.7107   3.7203   3.7306   3.7329   3.7377
  3.7493   3.7560   3.7844   3.8076   3.8174   3.8265   3.8344   3.8486
  3.8558   3.8724   3.8827   3.8882   3.9031   3.9237   3.9369   3.9464
  3.9516   3.9747   3.9902   3.9937   3.9983   4.0206   4.0363   4.0577
  4.0708   4.0824   4.0958   4.1137   4.1292   4.1398   4.1504   4.1734
  4.1888   4.2306   4.2484   4.2800   4.2990   4.3048   4.3170   4.3464
  4.3497   4.3723   4.3790   4.3824   4.3936   4.4097   4.4186   4.4363
  4.4442   4.4774   4.4996   4.5120   4.5313   4.5565   4.5869   4.5946
  4.6171   4.6412   4.6482   4.6734   4.6829   4.6835   4.7006   4.7456
  4.7559   4.7757   4.7838   4.8076   4.8127   4.9015   4.9213   4.9263
  4.9763   5.0126   5.0227   5.0377   5.0697   5.0824   5.1154   5.1401
  5.1682   5.2017   5.2217   5.2359   5.2578   5.2608   5.2973   5.3568
  5.3586   5.3645   5.4059   5.4183   5.4483   5.4745   5.4887   5.5356
  5.5547   5.5879   5.6165   5.6218   5.6412   5.6596   5.7359   5.7952
  5.8036   5.8105   5.8524   5.8739   5.9112   5.9737   5.9850   6.0784
  6.1109   6.1356   6.1371   6.1876   6.2616   6.3112   6.3700   6.4569
  6.5096   6.5300   6.5600   6.6790   6.6807   6.7417   6.7434   6.8647
  6.8853   6.9958   7.1815   7.2135   7.3307   7.3727   7.3758   7.4316
  7.4655   7.4866   7.5199   7.5526   7.6157   7.7695   7.8348   7.9145
  8.0021   8.1249   8.4651   8.9275   9.0080   9.3631   9.4989   9.6894
 10.1247  11.2266  11.5267  11.9384  12.3131  12.6908  13.1715  13.5043
 13.7620  14.0656  14.8122
 --------------------------------------------------------------
 
          Ground-State Mulliken Net Atomic Charges

     Atom                 Charge (a.u.)
  ----------------------------------------
      1 C                     0.055001
      2 S                     0.076749
      3 C                    -0.274050
      4 C                    -0.107141
      5 C                    -0.013972
      6 C                     0.394180
      7 C                    -0.169390
      8 S                     0.022220
      9 C                     0.460157
     10 O                    -0.458967
     11 O                    -0.299038
     12 F                    -0.213306
     13 C                    -0.054940
     14 H                     0.115911
     15 H                     0.083589
     16 H                     0.083425
     17 C                    -0.377997
     18 H                     0.150675
     19 H                     0.167983
     20 H                     0.149031
     21 H                     0.209878
  ----------------------------------------
  Sum of atomic charges =     0.000000

 -----------------------------------------------------------------
                    Cartesian Multipole Moments
 -----------------------------------------------------------------
    Charge (ESU x 10^10)
                -0.0000
    Dipole Moment (Debye)
         X       1.1039      Y       0.1338      Z       3.9687
       Tot       4.1215
    Quadrupole Moments (Debye-Ang)
        XX     -96.4821     XY       0.0656     YY     -82.0273
        XZ      -1.3795     YZ     -13.1332     ZZ     -96.4815
    Octopole Moments (Debye-Ang^2)
       XXX     -48.0317    XXY     -81.9105    XYY      -7.2785
       YYY    -234.7276    XXZ      78.5444    XYZ      -3.9193
       YYZ      69.2965    XZZ       0.4151    YZZ       2.2831
       ZZZ     261.1424
    Hexadecapole Moments (Debye-Ang^3)
      XXXX    -166.6968   XXXY    -141.1427   XXYY    -346.6688
      XYYY    -120.8943   YYYY   -1730.8519   XXXZ     124.3658
      XXYZ     244.1196   XYYZ      24.5453   YYYZ     626.4403
      XXZZ    -679.8137   XYZZ       4.6782   YYZZ    -678.0963
      XZZZ      51.9617   YZZZ     329.7065   ZZZZ   -3815.9264
 -----------------------------------------------------------------
 Total job time:  55.14s(wall), 1951.82s(cpu) 
 Sun Sep 24 16:40:46 2023

        *************************************************************
        *                                                           *
        *  Thank you very much for using Q-Chem.  Have a nice day.  *
        *                                                           *
        *************************************************************


0 sent ACK to 0 
now end server 0 ... 
cleanup process ... done
remove work dirs ./qchem961149.0 -- ./qchem961149.0
rm -rf ./qchem961149.0
rm -rf ./qchem961149
