You are running Q-Chem version: 5.4.0

#
# job setting
#
local host:  exp-8-29
current dir: /expanse/lustre/projects/csd626/rramji/aromodel/PTB7_fin/Hydrogenated_Impropers_Test
input file:  fin_bdt_Phi_25_Theta_80_fin_ftt_Hydrogenated_Improper.qcin
output file: 
nprocs     : 1
nthreads   : 64
#
# qchem installation setting
#
QC:          /cm/shared/apps/spack/cpu/opt/spack/linux-centos8-zen2/gcc-10.2.0/qchem-5.4-akfmr7b3t57bfs6qan3padb2wnb2i7cl
QCAUX:       /cm/shared/apps/spack/cpu/opt/spack/linux-centos8-zen2/gcc-10.2.0/qchem-5.4-akfmr7b3t57bfs6qan3padb2wnb2i7cl/qcaux
QCPROG:      /cm/shared/apps/spack/cpu/opt/spack/linux-centos8-zen2/gcc-10.2.0/qchem-5.4-akfmr7b3t57bfs6qan3padb2wnb2i7cl/exe/qcprog.exe
QCPROG_S:    /cm/shared/apps/spack/cpu/opt/spack/linux-centos8-zen2/gcc-10.2.0/qchem-5.4-akfmr7b3t57bfs6qan3padb2wnb2i7cl/exe/qcprog.exe_s
PARALLEL:    -DPARALLEL
QCMPI:       mpich
#
# qchem directory setting
#
qcrun:       qchem1147556
QCSCRATCH:   .
QCLOCALSCR:  
QCTMPDIR:    .
QCFILEPREF:  ./qchem1147556
QCSAVEDIR:   
workdirs:    ./qchem1147556
workdir0:    ./qchem1147556
partmpdirs =  
#
# parallel setting
#
QCRSH:           ssh
QCMPI:           mpich
QCMPIRUN:        /cm/shared/apps/spack/cpu/opt/spack/linux-centos8-zen2/gcc-10.2.0/qchem-5.4-akfmr7b3t57bfs6qan3padb2wnb2i7cl/bin/mpi/mpirun_qchem
QCMACHINEFILE:   ./qchem1147556/hostfile
exp-8-29

#
# env setting
#
exported envs:   QC QCAUX QCSCRATCH QCRUNNAME QCFILEPREF QCPROG QCPROG_S GUIFILE

Running Job 1 of 1 fin_bdt_Phi_25_Theta_80_fin_ftt_Hydrogenated_Improper.qcin
qchem fin_bdt_Phi_25_Theta_80_fin_ftt_Hydrogenated_Improper.qcin_1147556.0 ./qchem1147556/ 1
/cm/shared/apps/spack/cpu/opt/spack/linux-centos8-zen2/gcc-10.2.0/qchem-5.4-akfmr7b3t57bfs6qan3padb2wnb2i7cl/bin/mpi/mpirun_qchem -machinefile ./qchem1147556/hostfile -np 1 /cm/shared/apps/spack/cpu/opt/spack/linux-centos8-zen2/gcc-10.2.0/qchem-5.4-akfmr7b3t57bfs6qan3padb2wnb2i7cl/exe/qcprog.exe fin_bdt_Phi_25_Theta_80_fin_ftt_Hydrogenated_Improper.qcin_1147556.0 ./qchem1147556/

Process 0 of 1 is on exp-8-29 - thread support 0
initial socket setup ...start
initial socket setup ...done 
now start server 0 ... 
                  Welcome to Q-Chem
     A Quantum Leap Into The Future Of Chemistry


 Q-Chem 5.4, Q-Chem, Inc., Pleasanton, CA (2021)

 License issued to: University of California, San Diego (site)

 E. Epifanovsky,  A. T. B. Gilbert,  Xintian Feng,  Joonho Lee,  Yuezhi Mao,  
 N. Mardirossian,  P. Pokhilko,  A. White,  M. Wormit,  M. P. Coons,  
 A. L. Dempwolff,  Zhengting Gan,  D. Hait,  P. R. Horn,  L. D. Jacobson,  
 I. Kaliman,  J. Kussmann,  A. W. Lange,  Ka Un Lao,  D. S. Levine,  Jie Liu,  
 S. C. McKenzie,  A. F. Morrison,  K. Nanda,  F. Plasser,  D. R. Rehn,  
 M. L. Vidal,  Zhi-Qiang You,  Ying Zhu,  B. Alam,  B. Albrecht,  
 A. Aldossary,  E. Alguire,  J. H. Andersen,  D. Barton,  K. Begam,  A. Behn,  
 Y. A. Bernard,  E. J. Berquist,  H. Burton,  A. Carreras,  K. Carter-Fenk,  
 R. Chakraborty,  A. D. Chien,  K. D. Closser,  V. Cofer-Shabica,  
 S. Dasgupta,  Jia Deng,  M. de Wergifosse,  M. Diedenhofen,  Hainam Do,  
 S. Ehlert,  Po-Tung Fang,  S. Fatehi,  Qingguo Feng,  J. Gayvert,  
 Qinghui Ge,  G. Gidofalvi,  M. Goldey,  J. Gomes,  C. Gonzalez-Espinoza,  
 S. Gulania,  A. Gunina,  M. W. D. Hanson-Heine,  P. H. P. Harbach,  
 A. W. Hauser,  M. F. Herbst,  M. Hernandez Vera,  M. Hodecker,  
 Z. C. Holden,  S. Houck,  Xunkun Huang,  Kerwin Hui,  B. C. Huynh,  
 M. Ivanov,  Hyunjun Ji,  Hanjie Jiang,  B. Kaduk,  S. Kaehler,  
 K. Khistyaev,  Jaehoon Kim,  P. Klunzinger,  Z. Koczor-Benda,  
 Joong Hoon Koh,  D. Kosenkov,  L. Koulias,  T. Kowalczyk,  C. M. Krauter,  
 K. Kue,  A. Kunitsa,  T. Kus,  A. Landau,  K. V. Lawler,  D. Lefrancois,  
 S. Lehtola,  Rain Li,  Yi-Pei Li,  Jiashu Liang,  M. Liebenthal,  
 Hung-Hsuan Lin,  You-Sheng Lin,  Fenglai Liu,  Kuan-Yu Liu,  
 M. Loipersberger,  A. Luenser,  A. Manjanath,  P. Manohar,  E. Mansoor,  
 S. F. Manzer,  Shan-Ping Mao,  A. V. Marenich,  T. Markovich,  S. Mason,  
 S. A. Maurer,  P. F. McLaughlin,  M. F. S. J. Menger,  J.-M. Mewes,  
 S. A. Mewes,  P. Morgante,  J. W. Mullinax,  T. S. Nguyen-Beck,  
 K. J. Oosterbaan,  G. Paran,  Alexander C. Paul,  Suranjan K. Paul,  
 F. Pavosevic,  Zheng Pei,  S. Prager,  E. I. Proynov,  E. Ramos,  B. Rana,  
 A. E. Rask,  A. Rettig,  R. M. Richard,  F. Rob,  E. Rossomme,  T. Scheele,  
 M. Scheurer,  M. Schneider,  N. Sergueev,  S. M. Sharada,  W. Skomorowski,  
 D. W. Small,  C. J. Stein,  Yu-Chuan Su,  E. J. Sundstrom,  Zhen Tao,  
 J. Thirman,  T. Tsuchimochi,  N. M. Tubman,  S. P. Veccham,  O. Vydrov,  
 J. Wenzel,  J. Witte,  A. Yamada,  Kun Yao,  S. Yeganeh,  S. R. Yost,  
 A. Zech,  Igor Ying Zhang,  Xing Zhang,  Yu Zhang,  D. Zuev,  
 A. Aspuru-Guzik,  A. T. Bell,  N. A. Besley,  K. B. Bravaya,  B. R. Brooks,  
 D. Casanova,  Jeng-Da Chai,  S. Coriani,  C. J. Cramer,  
 A. E. DePrince, III,  R. A. DiStasio Jr.,  A. Dreuw,  B. D. Dunietz,  
 T. R. Furlani,  W. A. Goddard III,  S. Grimme,  S. Hammes-Schiffer,  
 T. Head-Gordon,  W. J. Hehre,  Chao-Ping Hsu,  T.-C. Jagau,  Yousung Jung,  
 A. Klamt,  Jing Kong,  D. S. Lambrecht,  WanZhen Liang,  N. J. Mayhall,  
 C. W. McCurdy,  J. B. Neaton,  C. Ochsenfeld,  J. A. Parkhill,  R. Peverati,  
 V. A. Rassolov,  Yihan Shao,  L. V. Slipchenko,  T. Stauch,  R. P. Steele,  
 J. E. Subotnik,  A. J. W. Thom,  A. Tkatchenko,  D. G. Truhlar,  
 T. Van Voorhis,  T. A. Wesolowski,  K. B. Whaley,  H. L. Woodcock III,  
 P. M. Zimmerman,  S. Faraji,  P. M. W. Gill,  M. Head-Gordon,  
 J. M. Herbert,  A. I. Krylov

 Contributors to earlier versions of Q-Chem not listed above: 
 R. D. Adamson,  B. Austin,  R. Baer,  J. Baker,  G. J. O. Beran,  
 K. Brandhorst,  S. T. Brown,  E. F. C. Byrd,  A. K. Chakraborty,  
 G. K. L. Chan,  Chun-Min Chang,  Yunqing Chen,  C.-L. Cheng,  
 Siu Hung Chien,  D. M. Chipman,  D. L. Crittenden,  H. Dachsel,  
 R. J. Doerksen,  A. D. Dutoi,  R. G. Edgar,  J. Fosso-Tande,  
 L. Fusti-Molnar,  D. Ghosh,  A. Ghysels,  A. Golubeva-Zadorozhnaya,  
 J. Gonthier,  M. S. Gordon,  S. R. Gwaltney,  G. Hawkins,  J. E. Herr,  
 A. Heyden,  S. Hirata,  E. G. Hohenstein,  G. Kedziora,  F. J. Keil,  
 C. Kelley,  Jihan Kim,  R. A. King,  R. Z. Khaliullin,  P. P. Korambath,  
 W. Kurlancheek,  A. Laurent,  A. M. Lee,  M. S. Lee,  S. V. Levchenko,  
 Ching Yeh Lin,  D. Liotard,  E. Livshits,  R. C. Lochan,  I. Lotan,  
 L. A. Martinez-Martinez,  P. E. Maslen,  N. Nair,  D. P. O'Neill,  
 D. Neuhauser,  E. Neuscamman,  C. M. Oana,  R. Olivares-Amaya,  R. Olson,  
 T. M. Perrine,  B. Peters,  P. A. Pieniazek,  A. Prociuk,  Y. M. Rhee,  
 J. Ritchie,  M. A. Rohrdanz,  E. Rosta,  N. J. Russ,  H. F. Schaefer III,  
 M. W. Schmidt,  N. E. Schultz,  S. Sharma,  N. Shenvi,  C. D. Sherrill,  
 A. C. Simmonett,  A. Sodt,  T. Stein,  D. Stuck,  K. S. Thanthiriwatte,  
 V. Vanovschi,  L. Vogt,  Tao Wang,  A. Warshel,  M. A. Watson,  
 C. F. Williams,  Q. Wu,  X. Xu,  Jun Yang,  W. Zhang,  Yan Zhao

 Please cite Q-Chem as follows:
 Y. Shao et al., Mol. Phys. 113, 184-215 (2015)
 DOI: 10.1080/00268976.2014.952696

 Q-Chem 5.4.0 for Intel X86 EM64T Linux

 Parts of Q-Chem use Armadillo 9.800.1 (Horizon Scraper).
 http://arma.sourceforge.net/

 Q-Chem begins on Tue Sep 26 17:58:26 2023  

 Host: 
0

     Scratch files written to ./qchem1147556//
 May1621 |scratch|qcdevops|jenkins|workspace|build_RNUM    
 Parallel job on  1  processors
 Processing $rem in /cm/shared/apps/spack/cpu/opt/spack/linux-centos8-zen2/gcc-10.2.0/qchem-5.4-akfmr7b3t57bfs6qan3padb2wnb2i7cl/config/preferences:
 Processing $rem in /home/rramji/.qchemrc:
 Symmetry turned off for PCM/SM12/SMD calculation
 Core orbitals will be frozen

 Checking the input file for inconsistencies... 	...done.

 Q-Chem warning in module forms1/BasisType.C, line 2236:

 You are not using the predefined 5D/6D in this basis set.


--------------------------------------------------------------
User input:
--------------------------------------------------------------
$molecule
0 1
C	-0.376938	-0.753180	1.020653
S	0.005162	0.061020	2.531353
C	0.669962	1.489220	1.748253
C	0.006862	0.069920	-0.044047
C	0.592462	1.329320	0.342353
C	-0.019738	0.009120	-1.465447
C	0.514762	1.155520	-2.086247
S	1.038962	2.287520	-0.945047
C	0.626562	1.384120	-3.539347
O	0.234662	0.536820	-4.329647
O	1.171762	2.545720	-3.983747
F	-0.487038	-1.002280	-2.225647
C	1.332562	2.866520	-5.314347
H	1.800062	3.867720	-5.349647
H	0.360462	2.890220	-5.854947
H	1.982462	2.133220	-5.841247
C	-0.376938	-2.188380	1.020653
H	-0.181038	-2.197380	2.082753
H	-1.200038	-2.872280	1.166153
H	0.551462	-2.712780	0.848853
H	1.058862	2.323020	2.342153
$end

$rem
JOBTYPE		SP
EXCHANGE	HF
CORRELATION	pRIMP2
BASIS		cc-pvtz
METHOD		rimp2
AUX_BASIS	rimp2-cc-pvtz
SOLVENT_METHOD	PCM
PURECART	11111
SYMMETRY	false
MEM_TOTAL	110000
SCF_CONVERGENCE = 6
THRESH=10
GUI = 2
$end



$solvent
dielectric 4.90
$end
--------------------------------------------------------------
 ----------------------------------------------------------------
             Standard Nuclear Orientation (Angstroms)
    I     Atom           X                Y                Z
 ----------------------------------------------------------------
    1      C      -0.3769380000    -0.7531800000     1.0206530000
    2      S       0.0051620000     0.0610200000     2.5313530000
    3      C       0.6699620000     1.4892200000     1.7482530000
    4      C       0.0068620000     0.0699200000    -0.0440470000
    5      C       0.5924620000     1.3293200000     0.3423530000
    6      C      -0.0197380000     0.0091200000    -1.4654470000
    7      C       0.5147620000     1.1555200000    -2.0862470000
    8      S       1.0389620000     2.2875200000    -0.9450470000
    9      C       0.6265620000     1.3841200000    -3.5393470000
   10      O       0.2346620000     0.5368200000    -4.3296470000
   11      O       1.1717620000     2.5457200000    -3.9837470000
   12      F      -0.4870380000    -1.0022800000    -2.2256470000
   13      C       1.3325620000     2.8665200000    -5.3143470000
   14      H       1.8000620000     3.8677200000    -5.3496470000
   15      H       0.3604620000     2.8902200000    -5.8549470000
   16      H       1.9824620000     2.1332200000    -5.8412470000
   17      C      -0.3769380000    -2.1883800000     1.0206530000
   18      H      -0.1810380000    -2.1973800000     2.0827530000
   19      H      -1.2000380000    -2.8722800000     1.1661530000
   20      H       0.5514620000    -2.7127800000     0.8488530000
   21      H       1.0588620000     2.3230200000     2.3421530000
 ----------------------------------------------------------------
 Nuclear Repulsion Energy =        1090.09765365 hartrees
 There are       59 alpha and       59 beta electrons
 Requested basis set is cc-pVTZ
 There are 186 shells and 526 basis functions

 Total QAlloc Memory Limit 110000 MB
 Mega-Array Size       188 MB
 MEM_STATIC part       192 MB
 Discretize the solute cavity surface with Lebedev spheres
	Using 110 Lebedev grid points for each H atom
	Using 194 Lebedev grid points for other atoms
	Atomic van der Waals radii will be scaled by 1.20
 Remove points where switching function is < 1.0e-08
 Keep 1557 surface tesserae and discard 1929 interior tesserae
 Molecular Surface Area = 241.553 Angst**2
 Requested basis set is rimp2-cc-pVTZ
 There are 410 shells and 1426 basis functions
 A cutoff of  1.0D-10 yielded  11523 shell pairs
 There are     90601 function pairs (    118659 Cartesian)
 Smallest overlap matrix eigenvalue = 6.03E-05

 Scale SEOQF with 1.000000e-01/1.000000e-01/1.000000e-02

 Standard Electronic Orientation quadrupole field applied
 Nucleus-field energy     =     0.0000000162 hartrees
 Guess from superposition of atomic densities
 Warning:  Energy on first SCF cycle will be non-variational
 SAD guess density has 118.000000 electrons

 -----------------------------------------------------------------------
  General SCF calculation program by
  Eric Jon Sundstrom, Paul Horn, Yuezhi Mao, Dmitri Zuev, Alec White,
  David Stuck, Shaama M.S., Shane Yost, Joonho Lee, David Small,
  Daniel Levine, Susi Lehtola, Hugh Burton, Evgeny Epifanovsky,
  Bang C. Huynh
 -----------------------------------------------------------------------
 Hartree-Fock
 using 64 threads for integral computing
 -------------------------------------------------------
 OpenMP Integral computing Module                
 Release: version 1.0, May 2013, Q-Chem Inc. Pittsburgh 
 -------------------------------------------------------
 A restricted SCF calculation will be
 performed using DIIS
 SCF converges when DIIS error is below 1.0e-06
 ---------------------------------------
  Cycle       Energy         DIIS error
 ---------------------------------------
    1   -1394.5914687911      2.53e-02  
    2   -1388.9981243661      2.51e-03  
    3   -1389.1709947658      1.58e-03  
    4   -1389.2327918591      3.49e-04  
    5   -1389.2384949220      1.11e-04  
    6   -1389.2391707773      3.66e-05  
    7   -1389.2393152710      1.84e-05  
    8   -1389.2393650482      7.49e-06  
    9   -1389.2393766745      3.47e-06  
   10   -1389.2393786550      1.34e-06  
   11   -1389.2393789680      5.27e-07  Convergence criterion met
 ---------------------------------------
 SCF time:   CPU 1679.09s  wall 48.00s 

************** Final PCM Free Energy Summary **************
 G_electrostatic  =      -0.01310722 hartree =      -8.22490694 kcal/mol
 G_cavitation     =       0.00000000 hartree =       0.00000000 kcal/mol
 G_dispersion     =       0.00000000 hartree =       0.00000000 kcal/mol
 G_repulsion      =       0.00000000 hartree =       0.00000000 kcal/mol
 --------------------------------------------------
 Non-electrostatic Free Energy =       0.00000000 hartree =       0.00000000 kcal/mol
 Total                         =      -0.01310722 hartree =      -8.22490694 kcal/mol
 --------------------------------------------------
 SCF Energy (H0 + V/2)                       =   -1389.23937897 
 Solute Internal Energy (H0)                 =   -1389.22627174 
 Total Free Energy (H0 + V/2 + non-elec)     =   -1389.23937897 hartree
                                             = -871760.86778861 kcal/mol
***********************************************************

 SCF   energy in the final basis set =    -1389.2393789680
 Total energy in the final basis set =    -1389.2393789680


 --------------------------------------------------------------
  Generalized many-body perturbation theory program
  by Joonho Lee, Fazle Rob, Xintian Feng, Evgeny Epifanovsky

 No regularization used 
 (reg. param. = 0.0000e+00)
  (P|Q)^-1/2 Time:  CPU 21.43 s  wall 0.34 s

 In RI-MP2 calculation: 
 # of frozen core orbitals: 22

 Components of the RIMP2 correlation energy:
        aaaa    correlation energy =        -0.3300469512 a.u.
        abab    correlation energy =        -1.8497418334 a.u.
        bbbb    correlation energy =        -0.3300469512 a.u.
        non-Brillouin singles      =        -0.0000000000 a.u.
        total same-spin energy     =        -0.6600939024 a.u.
        total opposite-spin energy =        -1.8497418334 a.u.

 Total  RIMP2   correlation energy =        -2.5098357358 a.u.
        RIMP2         total energy =     -1391.7492147038 a.u.

 RI-MP2 Energy Time:  CPU 172.84 s  wall 3.04 s
 
 --------------------------------------------------------------
 
                    Orbital Energies (a.u.)
 --------------------------------------------------------------
 
 Alpha MOs
 -- Occupied --
-92.0082 -91.9911 -26.3329 -20.6109 -20.5484 -11.4086 -11.3747 -11.3014
-11.2938 -11.2916 -11.2881 -11.2879 -11.2711 -11.2258  -9.0071  -8.9952
 -6.6879  -6.6872  -6.6868  -6.6765  -6.6759  -6.6745  -1.6458  -1.4706
 -1.3658  -1.2279  -1.1482  -1.0651  -1.0302  -1.0042  -0.9690  -0.9083
 -0.8652  -0.7970  -0.7844  -0.7687  -0.7267  -0.7140  -0.6954  -0.6775
 -0.6756  -0.6686  -0.6088  -0.6048  -0.5979  -0.5881  -0.5721  -0.5683
 -0.5432  -0.5252  -0.5057  -0.4825  -0.4745  -0.4609  -0.4599  -0.4560
 -0.3954  -0.3451  -0.2831
 -- Virtual --
  0.0315   0.1170   0.1323   0.1554   0.1593   0.1662   0.1892   0.1933
  0.2092   0.2203   0.2212   0.2298   0.2338   0.2551   0.2640   0.2679
  0.2832   0.3019   0.3129   0.3348   0.3517   0.3647   0.3715   0.3773
  0.3808   0.3879   0.3937   0.4093   0.4177   0.4312   0.4359   0.4470
  0.4561   0.4662   0.4729   0.4820   0.4899   0.5044   0.5146   0.5291
  0.5341   0.5440   0.5465   0.5522   0.5576   0.5679   0.5703   0.5845
  0.5892   0.5982   0.6017   0.6091   0.6179   0.6187   0.6280   0.6325
  0.6425   0.6466   0.6483   0.6589   0.6771   0.6811   0.6960   0.7064
  0.7120   0.7135   0.7409   0.7504   0.7670   0.7850   0.7880   0.7950
  0.8049   0.8105   0.8232   0.8363   0.8583   0.8704   0.8766   0.8890
  0.8947   0.9067   0.9259   0.9353   0.9402   0.9447   0.9575   0.9675
  0.9819   0.9996   1.0051   1.0210   1.0255   1.0308   1.0455   1.0566
  1.0611   1.0765   1.0843   1.0862   1.0986   1.1103   1.1259   1.1321
  1.1485   1.1569   1.1629   1.1673   1.1714   1.1945   1.2024   1.2075
  1.2293   1.2343   1.2427   1.2575   1.2711   1.2803   1.2863   1.3154
  1.3206   1.3440   1.3450   1.3605   1.3672   1.3751   1.3868   1.4098
  1.4204   1.4219   1.4360   1.4565   1.4662   1.4857   1.5026   1.5094
  1.5136   1.5264   1.5452   1.5534   1.5598   1.5661   1.5800   1.6037
  1.6181   1.6363   1.6601   1.6666   1.6828   1.7029   1.7143   1.7410
  1.7421   1.7620   1.7729   1.8138   1.8262   1.8330   1.8349   1.8468
  1.8670   1.8723   1.9034   1.9243   1.9315   1.9375   1.9452   1.9620
  1.9912   2.0143   2.0278   2.0358   2.0514   2.0991   2.1116   2.1266
  2.1428   2.1537   2.1620   2.1654   2.1963   2.2022   2.2157   2.2364
  2.2459   2.2680   2.2794   2.2840   2.2904   2.2934   2.3312   2.3524
  2.3714   2.3833   2.4074   2.4265   2.4592   2.4679   2.4867   2.5177
  2.5308   2.5631   2.5755   2.5820   2.5916   2.6039   2.6283   2.6346
  2.6495   2.6554   2.6619   2.6757   2.6983   2.7072   2.7180   2.7290
  2.7397   2.7487   2.7639   2.7725   2.7933   2.7967   2.8201   2.8243
  2.8471   2.8568   2.8727   2.8969   2.9032   2.9076   2.9310   2.9476
  2.9601   2.9771   2.9947   3.0297   3.0443   3.0512   3.0566   3.0712
  3.0833   3.0928   3.0979   3.1151   3.1361   3.1382   3.1446   3.1617
  3.1809   3.1925   3.1985   3.2051   3.2151   3.2338   3.2485   3.2496
  3.2592   3.2652   3.2762   3.2880   3.2927   3.3013   3.3134   3.3286
  3.3344   3.3420   3.3641   3.3652   3.3774   3.3873   3.4097   3.4268
  3.4324   3.4368   3.4477   3.4565   3.4600   3.4691   3.4956   3.4976
  3.5126   3.5218   3.5369   3.5618   3.5680   3.5840   3.5897   3.5941
  3.6008   3.6049   3.6249   3.6408   3.6509   3.6624   3.6770   3.6786
  3.6901   3.6963   3.7074   3.7133   3.7182   3.7309   3.7327   3.7452
  3.7675   3.7814   3.7920   3.8126   3.8238   3.8344   3.8466   3.8505
  3.8584   3.8698   3.8727   3.8807   3.8855   3.9109   3.9268   3.9347
  3.9473   3.9691   3.9771   3.9991   4.0066   4.0199   4.0356   4.0493
  4.0555   4.0731   4.0866   4.0914   4.0974   4.1445   4.1717   4.1804
  4.1892   4.1926   4.2193   4.2687   4.2807   4.3012   4.3021   4.3327
  4.3484   4.3725   4.3751   4.3823   4.3993   4.4097   4.4241   4.4392
  4.4670   4.4699   4.5031   4.5139   4.5323   4.5555   4.5878   4.6007
  4.6340   4.6448   4.6521   4.6630   4.6753   4.6952   4.7121   4.7367
  4.7407   4.7694   4.7907   4.8004   4.8162   4.8484   4.9114   4.9209
  4.9699   5.0107   5.0154   5.0263   5.0675   5.1158   5.1298   5.1635
  5.1860   5.2037   5.2132   5.2423   5.2554   5.2597   5.2939   5.3555
  5.3560   5.3621   5.3972   5.4310   5.4585   5.4737   5.4830   5.5327
  5.5493   5.5870   5.6136   5.6192   5.6397   5.6948   5.7281   5.7842
  5.8019   5.8314   5.8602   5.8686   5.9403   5.9641   5.9712   6.0152
  6.0388   6.1223   6.1344   6.1858   6.1930   6.3096   6.3597   6.4056
  6.4355   6.5095   6.5577   6.6622   6.6781   6.7352   6.7396   6.8618
  6.8816   6.9917   7.1796   7.2112   7.3279   7.3741   7.3764   7.4284
  7.4637   7.4878   7.5194   7.5498   7.6048   7.7716   7.8324   7.9043
  8.0012   8.1220   8.3776   8.9290   9.0083   9.3640   9.4974   9.6852
 10.1792  11.2248  11.6276  11.9314  12.2523  12.6408  13.1473  13.4580
 13.7923  14.0822  14.5524
 --------------------------------------------------------------
 
          Ground-State Mulliken Net Atomic Charges

     Atom                 Charge (a.u.)
  ----------------------------------------
      1 C                     0.031815
      2 S                     0.085348
      3 C                    -0.243992
      4 C                    -0.095074
      5 C                    -0.008123
      6 C                     0.371473
      7 C                    -0.159520
      8 S                     0.033956
      9 C                     0.457116
     10 O                    -0.452270
     11 O                    -0.298133
     12 F                    -0.211359
     13 C                    -0.054772
     14 H                     0.116329
     15 H                     0.084175
     16 H                     0.084046
     17 C                    -0.363021
     18 H                     0.115896
     19 H                     0.149288
     20 H                     0.144327
     21 H                     0.212494
  ----------------------------------------
  Sum of atomic charges =     0.000000

 -----------------------------------------------------------------
                    Cartesian Multipole Moments
 -----------------------------------------------------------------
    Charge (ESU x 10^10)
                -0.0000
    Dipole Moment (Debye)
         X       1.4918      Y       1.2449      Z       4.0366
       Tot       4.4799
    Quadrupole Moments (Debye-Ang)
        XX     -94.3818     XY       3.6889     YY     -84.4110
        XZ      -4.5727     YZ     -12.2569     ZZ     -94.4980
    Octopole Moments (Debye-Ang^2)
       XXX    -112.1336    XXY     -71.2443    XYY     -26.7025
       YYY    -210.7846    XXZ      75.9464    XYZ      -6.2016
       YYZ      71.4763    XZZ       1.7382    YZZ       6.9136
       ZZZ     255.5739
    Hexadecapole Moments (Debye-Ang^3)
      XXXX    -399.3655   XXXY    -310.0024   XXYY    -316.7219
      XYYY    -267.3975   YYYY   -1537.1718   XXXZ     294.3811
      XXYZ     211.4708   XYYZ      63.4159   YYYZ     597.4805
      XXZZ    -673.8537   XYZZ       9.3786   YYZZ    -682.8272
      XZZZ     124.7650   YZZZ     308.1014   ZZZZ   -3788.6622
 -----------------------------------------------------------------
 Total job time:  57.27s(wall), 2190.65s(cpu) 
 Tue Sep 26 17:59:23 2023

        *************************************************************
        *                                                           *
        *  Thank you very much for using Q-Chem.  Have a nice day.  *
        *                                                           *
        *************************************************************


0 sent ACK to 0 
now end server 0 ... 
cleanup process ... done
remove work dirs ./qchem1147556.0 -- ./qchem1147556.0
rm -rf ./qchem1147556.0
rm -rf ./qchem1147556
