You are running Q-Chem version: 5.4.0

#
# job setting
#
local host:  exp-4-45
current dir: /expanse/lustre/projects/csd626/rramji/aromodel/PTB7_fin/Hydrogenated_Impropers_Test
input file:  fin_bdt_Phi_15_Theta_0_fin_ftt_Hydrogenated_Improper.qcin
output file: 
nprocs     : 1
nthreads   : 64
#
# qchem installation setting
#
QC:          /cm/shared/apps/spack/cpu/opt/spack/linux-centos8-zen2/gcc-10.2.0/qchem-5.4-akfmr7b3t57bfs6qan3padb2wnb2i7cl
QCAUX:       /cm/shared/apps/spack/cpu/opt/spack/linux-centos8-zen2/gcc-10.2.0/qchem-5.4-akfmr7b3t57bfs6qan3padb2wnb2i7cl/qcaux
QCPROG:      /cm/shared/apps/spack/cpu/opt/spack/linux-centos8-zen2/gcc-10.2.0/qchem-5.4-akfmr7b3t57bfs6qan3padb2wnb2i7cl/exe/qcprog.exe
QCPROG_S:    /cm/shared/apps/spack/cpu/opt/spack/linux-centos8-zen2/gcc-10.2.0/qchem-5.4-akfmr7b3t57bfs6qan3padb2wnb2i7cl/exe/qcprog.exe_s
PARALLEL:    -DPARALLEL
QCMPI:       mpich
#
# qchem directory setting
#
qcrun:       qchem2463515
QCSCRATCH:   .
QCLOCALSCR:  
QCTMPDIR:    .
QCFILEPREF:  ./qchem2463515
QCSAVEDIR:   
workdirs:    ./qchem2463515
workdir0:    ./qchem2463515
partmpdirs =  
#
# parallel setting
#
QCRSH:           ssh
QCMPI:           mpich
QCMPIRUN:        /cm/shared/apps/spack/cpu/opt/spack/linux-centos8-zen2/gcc-10.2.0/qchem-5.4-akfmr7b3t57bfs6qan3padb2wnb2i7cl/bin/mpi/mpirun_qchem
QCMACHINEFILE:   ./qchem2463515/hostfile
exp-4-45

#
# env setting
#
exported envs:   QC QCAUX QCSCRATCH QCRUNNAME QCFILEPREF QCPROG QCPROG_S GUIFILE

Running Job 1 of 1 fin_bdt_Phi_15_Theta_0_fin_ftt_Hydrogenated_Improper.qcin
qchem fin_bdt_Phi_15_Theta_0_fin_ftt_Hydrogenated_Improper.qcin_2463515.0 ./qchem2463515/ 1
/cm/shared/apps/spack/cpu/opt/spack/linux-centos8-zen2/gcc-10.2.0/qchem-5.4-akfmr7b3t57bfs6qan3padb2wnb2i7cl/bin/mpi/mpirun_qchem -machinefile ./qchem2463515/hostfile -np 1 /cm/shared/apps/spack/cpu/opt/spack/linux-centos8-zen2/gcc-10.2.0/qchem-5.4-akfmr7b3t57bfs6qan3padb2wnb2i7cl/exe/qcprog.exe fin_bdt_Phi_15_Theta_0_fin_ftt_Hydrogenated_Improper.qcin_2463515.0 ./qchem2463515/

Process 0 of 1 is on exp-4-45 - thread support 0
initial socket setup ...start
initial socket setup ...done 
now start server 0 ... 
                  Welcome to Q-Chem
     A Quantum Leap Into The Future Of Chemistry


 Q-Chem 5.4, Q-Chem, Inc., Pleasanton, CA (2021)

 License issued to: University of California, San Diego (site)

 E. Epifanovsky,  A. T. B. Gilbert,  Xintian Feng,  Joonho Lee,  Yuezhi Mao,  
 N. Mardirossian,  P. Pokhilko,  A. White,  M. Wormit,  M. P. Coons,  
 A. L. Dempwolff,  Zhengting Gan,  D. Hait,  P. R. Horn,  L. D. Jacobson,  
 I. Kaliman,  J. Kussmann,  A. W. Lange,  Ka Un Lao,  D. S. Levine,  Jie Liu,  
 S. C. McKenzie,  A. F. Morrison,  K. Nanda,  F. Plasser,  D. R. Rehn,  
 M. L. Vidal,  Zhi-Qiang You,  Ying Zhu,  B. Alam,  B. Albrecht,  
 A. Aldossary,  E. Alguire,  J. H. Andersen,  D. Barton,  K. Begam,  A. Behn,  
 Y. A. Bernard,  E. J. Berquist,  H. Burton,  A. Carreras,  K. Carter-Fenk,  
 R. Chakraborty,  A. D. Chien,  K. D. Closser,  V. Cofer-Shabica,  
 S. Dasgupta,  Jia Deng,  M. de Wergifosse,  M. Diedenhofen,  Hainam Do,  
 S. Ehlert,  Po-Tung Fang,  S. Fatehi,  Qingguo Feng,  J. Gayvert,  
 Qinghui Ge,  G. Gidofalvi,  M. Goldey,  J. Gomes,  C. Gonzalez-Espinoza,  
 S. Gulania,  A. Gunina,  M. W. D. Hanson-Heine,  P. H. P. Harbach,  
 A. W. Hauser,  M. F. Herbst,  M. Hernandez Vera,  M. Hodecker,  
 Z. C. Holden,  S. Houck,  Xunkun Huang,  Kerwin Hui,  B. C. Huynh,  
 M. Ivanov,  Hyunjun Ji,  Hanjie Jiang,  B. Kaduk,  S. Kaehler,  
 K. Khistyaev,  Jaehoon Kim,  P. Klunzinger,  Z. Koczor-Benda,  
 Joong Hoon Koh,  D. Kosenkov,  L. Koulias,  T. Kowalczyk,  C. M. Krauter,  
 K. Kue,  A. Kunitsa,  T. Kus,  A. Landau,  K. V. Lawler,  D. Lefrancois,  
 S. Lehtola,  Rain Li,  Yi-Pei Li,  Jiashu Liang,  M. Liebenthal,  
 Hung-Hsuan Lin,  You-Sheng Lin,  Fenglai Liu,  Kuan-Yu Liu,  
 M. Loipersberger,  A. Luenser,  A. Manjanath,  P. Manohar,  E. Mansoor,  
 S. F. Manzer,  Shan-Ping Mao,  A. V. Marenich,  T. Markovich,  S. Mason,  
 S. A. Maurer,  P. F. McLaughlin,  M. F. S. J. Menger,  J.-M. Mewes,  
 S. A. Mewes,  P. Morgante,  J. W. Mullinax,  T. S. Nguyen-Beck,  
 K. J. Oosterbaan,  G. Paran,  Alexander C. Paul,  Suranjan K. Paul,  
 F. Pavosevic,  Zheng Pei,  S. Prager,  E. I. Proynov,  E. Ramos,  B. Rana,  
 A. E. Rask,  A. Rettig,  R. M. Richard,  F. Rob,  E. Rossomme,  T. Scheele,  
 M. Scheurer,  M. Schneider,  N. Sergueev,  S. M. Sharada,  W. Skomorowski,  
 D. W. Small,  C. J. Stein,  Yu-Chuan Su,  E. J. Sundstrom,  Zhen Tao,  
 J. Thirman,  T. Tsuchimochi,  N. M. Tubman,  S. P. Veccham,  O. Vydrov,  
 J. Wenzel,  J. Witte,  A. Yamada,  Kun Yao,  S. Yeganeh,  S. R. Yost,  
 A. Zech,  Igor Ying Zhang,  Xing Zhang,  Yu Zhang,  D. Zuev,  
 A. Aspuru-Guzik,  A. T. Bell,  N. A. Besley,  K. B. Bravaya,  B. R. Brooks,  
 D. Casanova,  Jeng-Da Chai,  S. Coriani,  C. J. Cramer,  
 A. E. DePrince, III,  R. A. DiStasio Jr.,  A. Dreuw,  B. D. Dunietz,  
 T. R. Furlani,  W. A. Goddard III,  S. Grimme,  S. Hammes-Schiffer,  
 T. Head-Gordon,  W. J. Hehre,  Chao-Ping Hsu,  T.-C. Jagau,  Yousung Jung,  
 A. Klamt,  Jing Kong,  D. S. Lambrecht,  WanZhen Liang,  N. J. Mayhall,  
 C. W. McCurdy,  J. B. Neaton,  C. Ochsenfeld,  J. A. Parkhill,  R. Peverati,  
 V. A. Rassolov,  Yihan Shao,  L. V. Slipchenko,  T. Stauch,  R. P. Steele,  
 J. E. Subotnik,  A. J. W. Thom,  A. Tkatchenko,  D. G. Truhlar,  
 T. Van Voorhis,  T. A. Wesolowski,  K. B. Whaley,  H. L. Woodcock III,  
 P. M. Zimmerman,  S. Faraji,  P. M. W. Gill,  M. Head-Gordon,  
 J. M. Herbert,  A. I. Krylov

 Contributors to earlier versions of Q-Chem not listed above: 
 R. D. Adamson,  B. Austin,  R. Baer,  J. Baker,  G. J. O. Beran,  
 K. Brandhorst,  S. T. Brown,  E. F. C. Byrd,  A. K. Chakraborty,  
 G. K. L. Chan,  Chun-Min Chang,  Yunqing Chen,  C.-L. Cheng,  
 Siu Hung Chien,  D. M. Chipman,  D. L. Crittenden,  H. Dachsel,  
 R. J. Doerksen,  A. D. Dutoi,  R. G. Edgar,  J. Fosso-Tande,  
 L. Fusti-Molnar,  D. Ghosh,  A. Ghysels,  A. Golubeva-Zadorozhnaya,  
 J. Gonthier,  M. S. Gordon,  S. R. Gwaltney,  G. Hawkins,  J. E. Herr,  
 A. Heyden,  S. Hirata,  E. G. Hohenstein,  G. Kedziora,  F. J. Keil,  
 C. Kelley,  Jihan Kim,  R. A. King,  R. Z. Khaliullin,  P. P. Korambath,  
 W. Kurlancheek,  A. Laurent,  A. M. Lee,  M. S. Lee,  S. V. Levchenko,  
 Ching Yeh Lin,  D. Liotard,  E. Livshits,  R. C. Lochan,  I. Lotan,  
 L. A. Martinez-Martinez,  P. E. Maslen,  N. Nair,  D. P. O'Neill,  
 D. Neuhauser,  E. Neuscamman,  C. M. Oana,  R. Olivares-Amaya,  R. Olson,  
 T. M. Perrine,  B. Peters,  P. A. Pieniazek,  A. Prociuk,  Y. M. Rhee,  
 J. Ritchie,  M. A. Rohrdanz,  E. Rosta,  N. J. Russ,  H. F. Schaefer III,  
 M. W. Schmidt,  N. E. Schultz,  S. Sharma,  N. Shenvi,  C. D. Sherrill,  
 A. C. Simmonett,  A. Sodt,  T. Stein,  D. Stuck,  K. S. Thanthiriwatte,  
 V. Vanovschi,  L. Vogt,  Tao Wang,  A. Warshel,  M. A. Watson,  
 C. F. Williams,  Q. Wu,  X. Xu,  Jun Yang,  W. Zhang,  Yan Zhao

 Please cite Q-Chem as follows:
 Y. Shao et al., Mol. Phys. 113, 184-215 (2015)
 DOI: 10.1080/00268976.2014.952696

 Q-Chem 5.4.0 for Intel X86 EM64T Linux

 Parts of Q-Chem use Armadillo 9.800.1 (Horizon Scraper).
 http://arma.sourceforge.net/

 Q-Chem begins on Tue Sep 26 17:46:27 2023  

 Host: 
0

     Scratch files written to ./qchem2463515//
 May1621 |scratch|qcdevops|jenkins|workspace|build_RNUM    
 Parallel job on  1  processors
 Processing $rem in /cm/shared/apps/spack/cpu/opt/spack/linux-centos8-zen2/gcc-10.2.0/qchem-5.4-akfmr7b3t57bfs6qan3padb2wnb2i7cl/config/preferences:
 Processing $rem in /home/rramji/.qchemrc:
 Symmetry turned off for PCM/SM12/SMD calculation
 Core orbitals will be frozen

 Checking the input file for inconsistencies... 	...done.

 Q-Chem warning in module forms1/BasisType.C, line 2236:

 You are not using the predefined 5D/6D in this basis set.


--------------------------------------------------------------
User input:
--------------------------------------------------------------
$molecule
0 1
C	-0.162363	-0.823612	1.023176
S	-0.003963	0.061788	2.533876
C	0.268537	1.613388	1.750776
C	-0.004663	0.070788	-0.041524
C	0.235037	1.438788	0.344876
C	-0.014563	0.005188	-1.462924
C	0.204937	1.250788	-2.083724
S	0.418237	2.479888	-0.942524
C	0.253737	1.500588	-3.536824
O	0.094537	0.580788	-4.327124
O	0.479737	2.763688	-3.981224
F	-0.204163	-1.092712	-2.223124
C	0.552037	3.115188	-5.311824
H	0.744437	4.203288	-5.347124
H	-0.393063	2.886488	-5.852424
H	1.369537	2.575088	-5.838724
C	-0.037263	-2.253312	1.023176
H	1.039337	-2.168112	1.014676
H	0.022637	-2.934612	1.859076
H	0.000437	-2.776412	0.079076
H	0.428337	2.519388	2.344676
$end

$rem
JOBTYPE		SP
EXCHANGE	HF
CORRELATION	pRIMP2
BASIS		cc-pvtz
METHOD		rimp2
AUX_BASIS	rimp2-cc-pvtz
SOLVENT_METHOD	PCM
PURECART	11111
SYMMETRY	false
MEM_TOTAL	110000
SCF_CONVERGENCE = 6
THRESH=10
GUI = 2
$end



$solvent
dielectric 4.90
$end
--------------------------------------------------------------
 ----------------------------------------------------------------
             Standard Nuclear Orientation (Angstroms)
    I     Atom           X                Y                Z
 ----------------------------------------------------------------
    1      C      -0.1623630000    -0.8236120000     1.0231760000
    2      S      -0.0039630000     0.0617880000     2.5338760000
    3      C       0.2685370000     1.6133880000     1.7507760000
    4      C      -0.0046630000     0.0707880000    -0.0415240000
    5      C       0.2350370000     1.4387880000     0.3448760000
    6      C      -0.0145630000     0.0051880000    -1.4629240000
    7      C       0.2049370000     1.2507880000    -2.0837240000
    8      S       0.4182370000     2.4798880000    -0.9425240000
    9      C       0.2537370000     1.5005880000    -3.5368240000
   10      O       0.0945370000     0.5807880000    -4.3271240000
   11      O       0.4797370000     2.7636880000    -3.9812240000
   12      F      -0.2041630000    -1.0927120000    -2.2231240000
   13      C       0.5520370000     3.1151880000    -5.3118240000
   14      H       0.7444370000     4.2032880000    -5.3471240000
   15      H      -0.3930630000     2.8864880000    -5.8524240000
   16      H       1.3695370000     2.5750880000    -5.8387240000
   17      C      -0.0372630000    -2.2533120000     1.0231760000
   18      H       1.0393370000    -2.1681120000     1.0146760000
   19      H       0.0226370000    -2.9346120000     1.8590760000
   20      H       0.0004370000    -2.7764120000     0.0790760000
   21      H       0.4283370000     2.5193880000     2.3446760000
 ----------------------------------------------------------------
 Nuclear Repulsion Energy =        1090.01997661 hartrees
 There are       59 alpha and       59 beta electrons
 Requested basis set is cc-pVTZ
 There are 186 shells and 526 basis functions

 Total QAlloc Memory Limit 110000 MB
 Mega-Array Size       188 MB
 MEM_STATIC part       192 MB
 Discretize the solute cavity surface with Lebedev spheres
	Using 110 Lebedev grid points for each H atom
	Using 194 Lebedev grid points for other atoms
	Atomic van der Waals radii will be scaled by 1.20
 Remove points where switching function is < 1.0e-08
 Keep 1569 surface tesserae and discard 1917 interior tesserae
 Molecular Surface Area = 242.177 Angst**2
 Requested basis set is rimp2-cc-pVTZ
 There are 410 shells and 1426 basis functions
 A cutoff of  1.0D-10 yielded  11572 shell pairs
 There are     91046 function pairs (    119250 Cartesian)
 Smallest overlap matrix eigenvalue = 5.72E-05

 Scale SEOQF with 1.000000e+00/1.000000e-01/1.000000e-02

 Standard Electronic Orientation quadrupole field applied
 Nucleus-field energy     =     0.0000000221 hartrees
 Guess from superposition of atomic densities
 Warning:  Energy on first SCF cycle will be non-variational
 SAD guess density has 118.000000 electrons

 -----------------------------------------------------------------------
  General SCF calculation program by
  Eric Jon Sundstrom, Paul Horn, Yuezhi Mao, Dmitri Zuev, Alec White,
  David Stuck, Shaama M.S., Shane Yost, Joonho Lee, David Small,
  Daniel Levine, Susi Lehtola, Hugh Burton, Evgeny Epifanovsky,
  Bang C. Huynh
 -----------------------------------------------------------------------
 Hartree-Fock
 using 64 threads for integral computing
 -------------------------------------------------------
 OpenMP Integral computing Module                
 Release: version 1.0, May 2013, Q-Chem Inc. Pittsburgh 
 -------------------------------------------------------
 A restricted SCF calculation will be
 performed using DIIS
 SCF converges when DIIS error is below 1.0e-06
 ---------------------------------------
  Cycle       Energy         DIIS error
 ---------------------------------------
    1   -1394.5634834417      2.53e-02  
    2   -1389.0144125403      2.50e-03  
    3   -1389.1869578202      1.57e-03  
    4   -1389.2483222953      3.46e-04  
    5   -1389.2539783085      1.10e-04  
    6   -1389.2546291324      3.61e-05  
    7   -1389.2547681211      1.79e-05  
    8   -1389.2548121777      6.91e-06  
    9   -1389.2548210984      3.02e-06  
   10   -1389.2548223956      1.14e-06  
   11   -1389.2548225896      4.20e-07  Convergence criterion met
 ---------------------------------------
 SCF time:   CPU 1699.50s  wall 49.00s 

************** Final PCM Free Energy Summary **************
 G_electrostatic  =      -0.01402226 hartree =      -8.79909954 kcal/mol
 G_cavitation     =       0.00000000 hartree =       0.00000000 kcal/mol
 G_dispersion     =       0.00000000 hartree =       0.00000000 kcal/mol
 G_repulsion      =       0.00000000 hartree =       0.00000000 kcal/mol
 --------------------------------------------------
 Non-electrostatic Free Energy =       0.00000000 hartree =       0.00000000 kcal/mol
 Total                         =      -0.01402226 hartree =      -8.79909954 kcal/mol
 --------------------------------------------------
 SCF Energy (H0 + V/2)                       =   -1389.25482259 
 Solute Internal Energy (H0)                 =   -1389.24080033 
 Total Free Energy (H0 + V/2 + non-elec)     =   -1389.25482259 hartree
                                             = -871770.55880741 kcal/mol
***********************************************************

 SCF   energy in the final basis set =    -1389.2548225896
 Total energy in the final basis set =    -1389.2548225896


 --------------------------------------------------------------
  Generalized many-body perturbation theory program
  by Joonho Lee, Fazle Rob, Xintian Feng, Evgeny Epifanovsky

 No regularization used 
 (reg. param. = 0.0000e+00)
  (P|Q)^-1/2 Time:  CPU 25.84 s  wall 0.43 s

 In RI-MP2 calculation: 
 # of frozen core orbitals: 22

 Components of the RIMP2 correlation energy:
        aaaa    correlation energy =        -0.3287081835 a.u.
        abab    correlation energy =        -1.8448617527 a.u.
        bbbb    correlation energy =        -0.3287081835 a.u.
        non-Brillouin singles      =        -0.0000000000 a.u.
        total same-spin energy     =        -0.6574163669 a.u.
        total opposite-spin energy =        -1.8448617527 a.u.

 Total  RIMP2   correlation energy =        -2.5022781196 a.u.
        RIMP2         total energy =     -1391.7571007093 a.u.

 RI-MP2 Energy Time:  CPU 175.24 s  wall 3.65 s
 
 --------------------------------------------------------------
 
                    Orbital Energies (a.u.)
 --------------------------------------------------------------
 
 Alpha MOs
 -- Occupied --
-92.0056 -91.9876 -26.3345 -20.6089 -20.5445 -11.4055 -11.3769 -11.3221
-11.2916 -11.2870 -11.2861 -11.2739 -11.2664 -11.2376  -9.0045  -8.9919
 -6.6853  -6.6847  -6.6842  -6.6732  -6.6725  -6.6712  -1.6475  -1.4683
 -1.3630  -1.2265  -1.1478  -1.0679  -1.0269  -1.0062  -0.9673  -0.9108
 -0.8623  -0.7959  -0.7844  -0.7658  -0.7260  -0.7151  -0.6965  -0.6773
 -0.6760  -0.6669  -0.6105  -0.6025  -0.5981  -0.5870  -0.5849  -0.5593
 -0.5308  -0.5261  -0.5191  -0.4950  -0.4780  -0.4624  -0.4584  -0.4560
 -0.3902  -0.3471  -0.2715
 -- Virtual --
  0.0450   0.1216   0.1356   0.1557   0.1584   0.1719   0.1905   0.1992
  0.2037   0.2088   0.2178   0.2237   0.2359   0.2409   0.2673   0.2748
  0.2869   0.3095   0.3248   0.3339   0.3447   0.3615   0.3701   0.3780
  0.3821   0.3870   0.4053   0.4138   0.4170   0.4316   0.4378   0.4414
  0.4586   0.4666   0.4677   0.4922   0.5036   0.5042   0.5119   0.5246
  0.5374   0.5431   0.5486   0.5572   0.5611   0.5655   0.5726   0.5866
  0.5896   0.6005   0.6034   0.6080   0.6137   0.6186   0.6221   0.6356
  0.6383   0.6464   0.6482   0.6625   0.6731   0.6901   0.7005   0.7063
  0.7173   0.7333   0.7383   0.7582   0.7679   0.7766   0.7881   0.7985
  0.8038   0.8142   0.8279   0.8496   0.8555   0.8619   0.8809   0.8900
  0.9009   0.9076   0.9258   0.9295   0.9383   0.9487   0.9747   0.9808
  0.9898   1.0005   1.0063   1.0186   1.0296   1.0360   1.0465   1.0538
  1.0610   1.0726   1.0834   1.0888   1.1001   1.1025   1.1193   1.1253
  1.1381   1.1568   1.1660   1.1701   1.1750   1.1856   1.1985   1.2117
  1.2195   1.2370   1.2443   1.2549   1.2604   1.2761   1.2928   1.3169
  1.3334   1.3395   1.3457   1.3549   1.3694   1.3789   1.3962   1.4178
  1.4316   1.4378   1.4565   1.4604   1.4749   1.4837   1.5019   1.5052
  1.5125   1.5151   1.5254   1.5501   1.5603   1.5611   1.5673   1.5991
  1.6224   1.6288   1.6602   1.6700   1.6817   1.7000   1.7107   1.7308
  1.7623   1.7734   1.7961   1.8180   1.8354   1.8402   1.8449   1.8595
  1.8724   1.8822   1.8914   1.9290   1.9316   1.9431   1.9570   1.9759
  2.0030   2.0269   2.0316   2.0517   2.0713   2.0941   2.1037   2.1342
  2.1467   2.1554   2.1637   2.1816   2.1993   2.2159   2.2250   2.2469
  2.2483   2.2660   2.2777   2.2844   2.2992   2.3097   2.3327   2.3546
  2.3665   2.3846   2.3914   2.4219   2.4411   2.4653   2.4875   2.4998
  2.5310   2.5479   2.5616   2.5818   2.5929   2.6048   2.6102   2.6311
  2.6411   2.6612   2.6691   2.6753   2.6871   2.7040   2.7189   2.7263
  2.7392   2.7509   2.7652   2.7746   2.7963   2.8045   2.8241   2.8320
  2.8442   2.8694   2.8897   2.8966   2.9073   2.9137   2.9401   2.9516
  2.9832   2.9942   3.0175   3.0335   3.0417   3.0445   3.0545   3.0682
  3.0795   3.0921   3.0932   3.1048   3.1152   3.1447   3.1515   3.1568
  3.1668   3.1897   3.1939   3.2064   3.2181   3.2297   3.2474   3.2555
  3.2632   3.2738   3.2769   3.2869   3.2935   3.2966   3.3096   3.3184
  3.3332   3.3473   3.3534   3.3664   3.3738   3.3805   3.4036   3.4207
  3.4285   3.4458   3.4545   3.4622   3.4729   3.4839   3.4896   3.4964
  3.5181   3.5243   3.5331   3.5429   3.5597   3.5710   3.5794   3.5922
  3.5998   3.6021   3.6203   3.6252   3.6329   3.6426   3.6596   3.6650
  3.6693   3.6865   3.7025   3.7102   3.7125   3.7293   3.7327   3.7376
  3.7532   3.7647   3.7944   3.8005   3.8250   3.8317   3.8373   3.8505
  3.8549   3.8827   3.8856   3.8898   3.9040   3.9230   3.9318   3.9461
  3.9543   3.9684   3.9761   3.9932   4.0183   4.0288   4.0434   4.0538
  4.0637   4.0823   4.0958   4.1131   4.1379   4.1438   4.1506   4.1739
  4.1891   4.2322   4.2493   4.2777   4.2877   4.3127   4.3156   4.3478
  4.3536   4.3765   4.3822   4.3902   4.3919   4.4013   4.4106   4.4419
  4.4577   4.4759   4.4959   4.5042   4.5305   4.5506   4.5811   4.6028
  4.6263   4.6365   4.6441   4.6660   4.6797   4.6861   4.7171   4.7457
  4.7502   4.7626   4.7912   4.8064   4.8187   4.8867   4.9224   4.9269
  4.9779   5.0082   5.0163   5.0394   5.0798   5.0984   5.1195   5.1368
  5.1747   5.1964   5.2161   5.2228   5.2559   5.2608   5.2897   5.3568
  5.3572   5.3613   5.4018   5.4159   5.4590   5.4746   5.4874   5.5364
  5.5608   5.5787   5.6131   5.6217   5.6250   5.6539   5.7379   5.7972
  5.8038   5.8196   5.8543   5.8753   5.9233   5.9739   5.9844   6.0734
  6.0975   6.1330   6.1357   6.1876   6.2485   6.3114   6.3696   6.4470
  6.5034   6.5161   6.5602   6.6759   6.6810   6.7412   6.7426   6.8650
  6.8854   6.9958   7.1816   7.2138   7.3310   7.3723   7.3756   7.4319
  7.4657   7.4862   7.5193   7.5528   7.6141   7.7694   7.8350   7.9122
  8.0016   8.1228   8.4385   8.9266   9.0076   9.3624   9.4976   9.6926
 10.1168  11.2230  11.5858  11.9400  12.3082  12.6854  13.1717  13.5290
 13.7739  14.0658  14.7761
 --------------------------------------------------------------
 
          Ground-State Mulliken Net Atomic Charges

     Atom                 Charge (a.u.)
  ----------------------------------------
      1 C                     0.061265
      2 S                     0.083152
      3 C                    -0.280067
      4 C                    -0.110830
      5 C                    -0.010839
      6 C                     0.384221
      7 C                    -0.170757
      8 S                     0.024074
      9 C                     0.459416
     10 O                    -0.459708
     11 O                    -0.299251
     12 F                    -0.212961
     13 C                    -0.054870
     14 H                     0.115866
     15 H                     0.083510
     16 H                     0.083318
     17 C                    -0.379311
     18 H                     0.156038
     19 H                     0.169866
     20 H                     0.148642
     21 H                     0.209225
  ----------------------------------------
  Sum of atomic charges =     0.000000

 -----------------------------------------------------------------
                    Cartesian Multipole Moments
 -----------------------------------------------------------------
    Charge (ESU x 10^10)
                -0.0000
    Dipole Moment (Debye)
         X       1.3044      Y       0.1098      Z       3.7767
       Tot       3.9972
    Quadrupole Moments (Debye-Ang)
        XX     -96.3868     XY      -0.4785     YY     -82.3237
        XZ      -0.9503     YZ     -12.5198     ZZ     -97.0712
    Octopole Moments (Debye-Ang^2)
       XXX     -49.6142    XXY     -82.1545    XYY      -6.2637
       YYY    -234.0760    XXZ      78.6654    XYZ      -5.4662
       YYZ      67.6197    XZZ       0.5382    YZZ       2.8410
       ZZZ     261.8293
    Hexadecapole Moments (Debye-Ang^3)
      XXXX    -164.9727   XXXY    -132.8992   XXYY    -346.0799
      XYYY    -118.1548   YYYY   -1731.8040   XXXZ     119.7140
      XXYZ     243.6990   XYYZ      28.2835   YYYZ     628.7653
      XXZZ    -679.9200   XYZZ       3.8543   YYZZ    -680.5378
      XZZZ      49.2121   YZZZ     330.3368   ZZZZ   -3816.3478
 -----------------------------------------------------------------
 Total job time:  56.46s(wall), 1960.00s(cpu) 
 Tue Sep 26 17:47:24 2023

        *************************************************************
        *                                                           *
        *  Thank you very much for using Q-Chem.  Have a nice day.  *
        *                                                           *
        *************************************************************


0 sent ACK to 0 
now end server 0 ... 
cleanup process ... done
remove work dirs ./qchem2463515.0 -- ./qchem2463515.0
rm -rf ./qchem2463515.0
rm -rf ./qchem2463515
