You are running Q-Chem version: 5.4.0

#
# job setting
#
local host:  exp-8-18
current dir: /expanse/lustre/projects/csd626/rramji/aromodel/PTB7_fin/Hydrogenated_Impropers_Test
input file:  fin_bdt_Phi_5_Theta_170_fin_ftt_Hydrogenated_Improper.qcin
output file: 
nprocs     : 1
nthreads   : 64
#
# qchem installation setting
#
QC:          /cm/shared/apps/spack/cpu/opt/spack/linux-centos8-zen2/gcc-10.2.0/qchem-5.4-akfmr7b3t57bfs6qan3padb2wnb2i7cl
QCAUX:       /cm/shared/apps/spack/cpu/opt/spack/linux-centos8-zen2/gcc-10.2.0/qchem-5.4-akfmr7b3t57bfs6qan3padb2wnb2i7cl/qcaux
QCPROG:      /cm/shared/apps/spack/cpu/opt/spack/linux-centos8-zen2/gcc-10.2.0/qchem-5.4-akfmr7b3t57bfs6qan3padb2wnb2i7cl/exe/qcprog.exe
QCPROG_S:    /cm/shared/apps/spack/cpu/opt/spack/linux-centos8-zen2/gcc-10.2.0/qchem-5.4-akfmr7b3t57bfs6qan3padb2wnb2i7cl/exe/qcprog.exe_s
PARALLEL:    -DPARALLEL
QCMPI:       mpich
#
# qchem directory setting
#
qcrun:       qchem1179958
QCSCRATCH:   .
QCLOCALSCR:  
QCTMPDIR:    .
QCFILEPREF:  ./qchem1179958
QCSAVEDIR:   
workdirs:    ./qchem1179958
workdir0:    ./qchem1179958
partmpdirs =  
#
# parallel setting
#
QCRSH:           ssh
QCMPI:           mpich
QCMPIRUN:        /cm/shared/apps/spack/cpu/opt/spack/linux-centos8-zen2/gcc-10.2.0/qchem-5.4-akfmr7b3t57bfs6qan3padb2wnb2i7cl/bin/mpi/mpirun_qchem
QCMACHINEFILE:   ./qchem1179958/hostfile
exp-8-18

#
# env setting
#
exported envs:   QC QCAUX QCSCRATCH QCRUNNAME QCFILEPREF QCPROG QCPROG_S GUIFILE

Running Job 1 of 1 fin_bdt_Phi_5_Theta_170_fin_ftt_Hydrogenated_Improper.qcin
qchem fin_bdt_Phi_5_Theta_170_fin_ftt_Hydrogenated_Improper.qcin_1179958.0 ./qchem1179958/ 1
/cm/shared/apps/spack/cpu/opt/spack/linux-centos8-zen2/gcc-10.2.0/qchem-5.4-akfmr7b3t57bfs6qan3padb2wnb2i7cl/bin/mpi/mpirun_qchem -machinefile ./qchem1179958/hostfile -np 1 /cm/shared/apps/spack/cpu/opt/spack/linux-centos8-zen2/gcc-10.2.0/qchem-5.4-akfmr7b3t57bfs6qan3padb2wnb2i7cl/exe/qcprog.exe fin_bdt_Phi_5_Theta_170_fin_ftt_Hydrogenated_Improper.qcin_1179958.0 ./qchem1179958/

Process 0 of 1 is on exp-8-18 - thread support 0
initial socket setup ...start
initial socket setup ...done 
now start server 0 ... 
                  Welcome to Q-Chem
     A Quantum Leap Into The Future Of Chemistry


 Q-Chem 5.4, Q-Chem, Inc., Pleasanton, CA (2021)

 License issued to: University of California, San Diego (site)

 E. Epifanovsky,  A. T. B. Gilbert,  Xintian Feng,  Joonho Lee,  Yuezhi Mao,  
 N. Mardirossian,  P. Pokhilko,  A. White,  M. Wormit,  M. P. Coons,  
 A. L. Dempwolff,  Zhengting Gan,  D. Hait,  P. R. Horn,  L. D. Jacobson,  
 I. Kaliman,  J. Kussmann,  A. W. Lange,  Ka Un Lao,  D. S. Levine,  Jie Liu,  
 S. C. McKenzie,  A. F. Morrison,  K. Nanda,  F. Plasser,  D. R. Rehn,  
 M. L. Vidal,  Zhi-Qiang You,  Ying Zhu,  B. Alam,  B. Albrecht,  
 A. Aldossary,  E. Alguire,  J. H. Andersen,  D. Barton,  K. Begam,  A. Behn,  
 Y. A. Bernard,  E. J. Berquist,  H. Burton,  A. Carreras,  K. Carter-Fenk,  
 R. Chakraborty,  A. D. Chien,  K. D. Closser,  V. Cofer-Shabica,  
 S. Dasgupta,  Jia Deng,  M. de Wergifosse,  M. Diedenhofen,  Hainam Do,  
 S. Ehlert,  Po-Tung Fang,  S. Fatehi,  Qingguo Feng,  J. Gayvert,  
 Qinghui Ge,  G. Gidofalvi,  M. Goldey,  J. Gomes,  C. Gonzalez-Espinoza,  
 S. Gulania,  A. Gunina,  M. W. D. Hanson-Heine,  P. H. P. Harbach,  
 A. W. Hauser,  M. F. Herbst,  M. Hernandez Vera,  M. Hodecker,  
 Z. C. Holden,  S. Houck,  Xunkun Huang,  Kerwin Hui,  B. C. Huynh,  
 M. Ivanov,  Hyunjun Ji,  Hanjie Jiang,  B. Kaduk,  S. Kaehler,  
 K. Khistyaev,  Jaehoon Kim,  P. Klunzinger,  Z. Koczor-Benda,  
 Joong Hoon Koh,  D. Kosenkov,  L. Koulias,  T. Kowalczyk,  C. M. Krauter,  
 K. Kue,  A. Kunitsa,  T. Kus,  A. Landau,  K. V. Lawler,  D. Lefrancois,  
 S. Lehtola,  Rain Li,  Yi-Pei Li,  Jiashu Liang,  M. Liebenthal,  
 Hung-Hsuan Lin,  You-Sheng Lin,  Fenglai Liu,  Kuan-Yu Liu,  
 M. Loipersberger,  A. Luenser,  A. Manjanath,  P. Manohar,  E. Mansoor,  
 S. F. Manzer,  Shan-Ping Mao,  A. V. Marenich,  T. Markovich,  S. Mason,  
 S. A. Maurer,  P. F. McLaughlin,  M. F. S. J. Menger,  J.-M. Mewes,  
 S. A. Mewes,  P. Morgante,  J. W. Mullinax,  T. S. Nguyen-Beck,  
 K. J. Oosterbaan,  G. Paran,  Alexander C. Paul,  Suranjan K. Paul,  
 F. Pavosevic,  Zheng Pei,  S. Prager,  E. I. Proynov,  E. Ramos,  B. Rana,  
 A. E. Rask,  A. Rettig,  R. M. Richard,  F. Rob,  E. Rossomme,  T. Scheele,  
 M. Scheurer,  M. Schneider,  N. Sergueev,  S. M. Sharada,  W. Skomorowski,  
 D. W. Small,  C. J. Stein,  Yu-Chuan Su,  E. J. Sundstrom,  Zhen Tao,  
 J. Thirman,  T. Tsuchimochi,  N. M. Tubman,  S. P. Veccham,  O. Vydrov,  
 J. Wenzel,  J. Witte,  A. Yamada,  Kun Yao,  S. Yeganeh,  S. R. Yost,  
 A. Zech,  Igor Ying Zhang,  Xing Zhang,  Yu Zhang,  D. Zuev,  
 A. Aspuru-Guzik,  A. T. Bell,  N. A. Besley,  K. B. Bravaya,  B. R. Brooks,  
 D. Casanova,  Jeng-Da Chai,  S. Coriani,  C. J. Cramer,  
 A. E. DePrince, III,  R. A. DiStasio Jr.,  A. Dreuw,  B. D. Dunietz,  
 T. R. Furlani,  W. A. Goddard III,  S. Grimme,  S. Hammes-Schiffer,  
 T. Head-Gordon,  W. J. Hehre,  Chao-Ping Hsu,  T.-C. Jagau,  Yousung Jung,  
 A. Klamt,  Jing Kong,  D. S. Lambrecht,  WanZhen Liang,  N. J. Mayhall,  
 C. W. McCurdy,  J. B. Neaton,  C. Ochsenfeld,  J. A. Parkhill,  R. Peverati,  
 V. A. Rassolov,  Yihan Shao,  L. V. Slipchenko,  T. Stauch,  R. P. Steele,  
 J. E. Subotnik,  A. J. W. Thom,  A. Tkatchenko,  D. G. Truhlar,  
 T. Van Voorhis,  T. A. Wesolowski,  K. B. Whaley,  H. L. Woodcock III,  
 P. M. Zimmerman,  S. Faraji,  P. M. W. Gill,  M. Head-Gordon,  
 J. M. Herbert,  A. I. Krylov

 Contributors to earlier versions of Q-Chem not listed above: 
 R. D. Adamson,  B. Austin,  R. Baer,  J. Baker,  G. J. O. Beran,  
 K. Brandhorst,  S. T. Brown,  E. F. C. Byrd,  A. K. Chakraborty,  
 G. K. L. Chan,  Chun-Min Chang,  Yunqing Chen,  C.-L. Cheng,  
 Siu Hung Chien,  D. M. Chipman,  D. L. Crittenden,  H. Dachsel,  
 R. J. Doerksen,  A. D. Dutoi,  R. G. Edgar,  J. Fosso-Tande,  
 L. Fusti-Molnar,  D. Ghosh,  A. Ghysels,  A. Golubeva-Zadorozhnaya,  
 J. Gonthier,  M. S. Gordon,  S. R. Gwaltney,  G. Hawkins,  J. E. Herr,  
 A. Heyden,  S. Hirata,  E. G. Hohenstein,  G. Kedziora,  F. J. Keil,  
 C. Kelley,  Jihan Kim,  R. A. King,  R. Z. Khaliullin,  P. P. Korambath,  
 W. Kurlancheek,  A. Laurent,  A. M. Lee,  M. S. Lee,  S. V. Levchenko,  
 Ching Yeh Lin,  D. Liotard,  E. Livshits,  R. C. Lochan,  I. Lotan,  
 L. A. Martinez-Martinez,  P. E. Maslen,  N. Nair,  D. P. O'Neill,  
 D. Neuhauser,  E. Neuscamman,  C. M. Oana,  R. Olivares-Amaya,  R. Olson,  
 T. M. Perrine,  B. Peters,  P. A. Pieniazek,  A. Prociuk,  Y. M. Rhee,  
 J. Ritchie,  M. A. Rohrdanz,  E. Rosta,  N. J. Russ,  H. F. Schaefer III,  
 M. W. Schmidt,  N. E. Schultz,  S. Sharma,  N. Shenvi,  C. D. Sherrill,  
 A. C. Simmonett,  A. Sodt,  T. Stein,  D. Stuck,  K. S. Thanthiriwatte,  
 V. Vanovschi,  L. Vogt,  Tao Wang,  A. Warshel,  M. A. Watson,  
 C. F. Williams,  Q. Wu,  X. Xu,  Jun Yang,  W. Zhang,  Yan Zhao

 Please cite Q-Chem as follows:
 Y. Shao et al., Mol. Phys. 113, 184-215 (2015)
 DOI: 10.1080/00268976.2014.952696

 Q-Chem 5.4.0 for Intel X86 EM64T Linux

 Parts of Q-Chem use Armadillo 9.800.1 (Horizon Scraper).
 http://arma.sourceforge.net/

 Q-Chem begins on Tue Sep 26 18:00:05 2023  

 Host: 
0

     Scratch files written to ./qchem1179958//
 May1621 |scratch|qcdevops|jenkins|workspace|build_RNUM    
 Parallel job on  1  processors
 Processing $rem in /cm/shared/apps/spack/cpu/opt/spack/linux-centos8-zen2/gcc-10.2.0/qchem-5.4-akfmr7b3t57bfs6qan3padb2wnb2i7cl/config/preferences:
 Processing $rem in /home/rramji/.qchemrc:
 Symmetry turned off for PCM/SM12/SMD calculation
 Core orbitals will be frozen

 Checking the input file for inconsistencies... 	...done.

 Q-Chem warning in module forms1/BasisType.C, line 2236:

 You are not using the predefined 5D/6D in this basis set.


--------------------------------------------------------------
User input:
--------------------------------------------------------------
$molecule
0 1
C	-0.076780	-0.833466	1.022261
S	0.003820	0.062334	2.532961
C	0.140020	1.631734	1.749861
C	0.002320	0.071334	-0.042439
C	0.121920	1.454934	0.343961
C	-0.001780	0.005034	-1.463839
C	0.108320	1.265034	-2.084639
S	0.213720	2.508134	-0.943439
C	0.135120	1.518134	-3.537739
O	0.056720	0.587934	-4.328039
O	0.250220	2.796134	-3.982139
F	-0.094980	-1.105166	-2.224039
C	0.291620	3.152634	-5.312739
H	0.388520	4.253334	-5.348039
H	-0.629880	2.842434	-5.853339
H	1.153120	2.685834	-5.839639
C	-0.076780	-2.268666	1.022261
H	-1.138880	-2.277666	1.218161
H	-0.222280	-2.952566	0.199161
H	0.095020	-2.793066	1.950661
H	0.220320	2.548234	2.343761
$end

$rem
JOBTYPE		SP
EXCHANGE	HF
CORRELATION	pRIMP2
BASIS		cc-pvtz
METHOD		rimp2
AUX_BASIS	rimp2-cc-pvtz
SOLVENT_METHOD	PCM
PURECART	11111
SYMMETRY	false
MEM_TOTAL	110000
SCF_CONVERGENCE = 6
THRESH=10
GUI = 2
$end



$solvent
dielectric 4.90
$end
--------------------------------------------------------------
 ----------------------------------------------------------------
             Standard Nuclear Orientation (Angstroms)
    I     Atom           X                Y                Z
 ----------------------------------------------------------------
    1      C      -0.0767800000    -0.8334660000     1.0222610000
    2      S       0.0038200000     0.0623340000     2.5329610000
    3      C       0.1400200000     1.6317340000     1.7498610000
    4      C       0.0023200000     0.0713340000    -0.0424390000
    5      C       0.1219200000     1.4549340000     0.3439610000
    6      C      -0.0017800000     0.0050340000    -1.4638390000
    7      C       0.1083200000     1.2650340000    -2.0846390000
    8      S       0.2137200000     2.5081340000    -0.9434390000
    9      C       0.1351200000     1.5181340000    -3.5377390000
   10      O       0.0567200000     0.5879340000    -4.3280390000
   11      O       0.2502200000     2.7961340000    -3.9821390000
   12      F      -0.0949800000    -1.1051660000    -2.2240390000
   13      C       0.2916200000     3.1526340000    -5.3127390000
   14      H       0.3885200000     4.2533340000    -5.3480390000
   15      H      -0.6298800000     2.8424340000    -5.8533390000
   16      H       1.1531200000     2.6858340000    -5.8396390000
   17      C      -0.0767800000    -2.2686660000     1.0222610000
   18      H      -1.1388800000    -2.2776660000     1.2181610000
   19      H      -0.2222800000    -2.9525660000     0.1991610000
   20      H       0.0950200000    -2.7930660000     1.9506610000
   21      H       0.2203200000     2.5482340000     2.3437610000
 ----------------------------------------------------------------
 Nuclear Repulsion Energy =        1088.79924150 hartrees
 There are       59 alpha and       59 beta electrons
 Requested basis set is cc-pVTZ
 There are 186 shells and 526 basis functions

 Total QAlloc Memory Limit 110000 MB
 Mega-Array Size       188 MB
 MEM_STATIC part       192 MB
 Discretize the solute cavity surface with Lebedev spheres
	Using 110 Lebedev grid points for each H atom
	Using 194 Lebedev grid points for other atoms
	Atomic van der Waals radii will be scaled by 1.20
 Remove points where switching function is < 1.0e-08
 Keep 1577 surface tesserae and discard 1909 interior tesserae
 Molecular Surface Area = 242.633 Angst**2
 Requested basis set is rimp2-cc-pVTZ
 There are 410 shells and 1426 basis functions
 A cutoff of  1.0D-10 yielded  11504 shell pairs
 There are     90454 function pairs (    118484 Cartesian)
 Smallest overlap matrix eigenvalue = 5.31E-05

 Scale SEOQF with 1.000000e+00/1.000000e-01/1.000000e-02

 Standard Electronic Orientation quadrupole field applied
 Nucleus-field energy     =     0.0000000203 hartrees
 Guess from superposition of atomic densities
 Warning:  Energy on first SCF cycle will be non-variational
 SAD guess density has 118.000000 electrons

 -----------------------------------------------------------------------
  General SCF calculation program by
  Eric Jon Sundstrom, Paul Horn, Yuezhi Mao, Dmitri Zuev, Alec White,
  David Stuck, Shaama M.S., Shane Yost, Joonho Lee, David Small,
  Daniel Levine, Susi Lehtola, Hugh Burton, Evgeny Epifanovsky,
  Bang C. Huynh
 -----------------------------------------------------------------------
 Hartree-Fock
 using 64 threads for integral computing
 -------------------------------------------------------
 OpenMP Integral computing Module                
 Release: version 1.0, May 2013, Q-Chem Inc. Pittsburgh 
 -------------------------------------------------------
 A restricted SCF calculation will be
 performed using DIIS
 SCF converges when DIIS error is below 1.0e-06
 ---------------------------------------
  Cycle       Energy         DIIS error
 ---------------------------------------
    1   -1394.5550595047      2.52e-02  
    2   -1389.0158086567      2.50e-03  
    3   -1389.1884011672      1.57e-03  
    4   -1389.2493527454      3.46e-04  
    5   -1389.2550036704      1.10e-04  
    6   -1389.2556592321      3.62e-05  
    7   -1389.2557987294      1.78e-05  
    8   -1389.2558426574      6.88e-06  
    9   -1389.2558514202      2.98e-06  
   10   -1389.2558526800      1.13e-06  
   11   -1389.2558528655      4.16e-07  Convergence criterion met
 ---------------------------------------
 SCF time:   CPU 1692.43s  wall 50.00s 

************** Final PCM Free Energy Summary **************
 G_electrostatic  =      -0.01424712 hartree =      -8.94019997 kcal/mol
 G_cavitation     =       0.00000000 hartree =       0.00000000 kcal/mol
 G_dispersion     =       0.00000000 hartree =       0.00000000 kcal/mol
 G_repulsion      =       0.00000000 hartree =       0.00000000 kcal/mol
 --------------------------------------------------
 Non-electrostatic Free Energy =       0.00000000 hartree =       0.00000000 kcal/mol
 Total                         =      -0.01424712 hartree =      -8.94019997 kcal/mol
 --------------------------------------------------
 SCF Energy (H0 + V/2)                       =   -1389.25585287 
 Solute Internal Energy (H0)                 =   -1389.24160575 
 Total Free Energy (H0 + V/2 + non-elec)     =   -1389.25585287 hartree
                                             = -871771.20531529 kcal/mol
***********************************************************

 SCF   energy in the final basis set =    -1389.2558528655
 Total energy in the final basis set =    -1389.2558528655


 --------------------------------------------------------------
  Generalized many-body perturbation theory program
  by Joonho Lee, Fazle Rob, Xintian Feng, Evgeny Epifanovsky

 No regularization used 
 (reg. param. = 0.0000e+00)
  (P|Q)^-1/2 Time:  CPU 20.47 s  wall 0.33 s

 In RI-MP2 calculation: 
 # of frozen core orbitals: 22

 Components of the RIMP2 correlation energy:
        aaaa    correlation energy =        -0.3285275928 a.u.
        abab    correlation energy =        -1.8444605079 a.u.
        bbbb    correlation energy =        -0.3285275928 a.u.
        non-Brillouin singles      =        -0.0000000000 a.u.
        total same-spin energy     =        -0.6570551856 a.u.
        total opposite-spin energy =        -1.8444605079 a.u.

 Total  RIMP2   correlation energy =        -2.5015156935 a.u.
        RIMP2         total energy =     -1391.7573685590 a.u.

 RI-MP2 Energy Time:  CPU 173.92 s  wall 3.00 s
 
 --------------------------------------------------------------
 
                    Orbital Energies (a.u.)
 --------------------------------------------------------------
 
 Alpha MOs
 -- Occupied --
-92.0068 -91.9870 -26.3340 -20.6088 -20.5443 -11.4053 -11.3765 -11.3211
-11.2910 -11.2868 -11.2858 -11.2740 -11.2656 -11.2362  -9.0056  -8.9913
 -6.6864  -6.6858  -6.6853  -6.6727  -6.6720  -6.6706  -1.6469  -1.4682
 -1.3629  -1.2256  -1.1468  -1.0671  -1.0274  -1.0064  -0.9672  -0.9114
 -0.8622  -0.7958  -0.7839  -0.7655  -0.7256  -0.7146  -0.6964  -0.6777
 -0.6758  -0.6666  -0.6099  -0.6024  -0.5937  -0.5858  -0.5849  -0.5586
 -0.5317  -0.5292  -0.5190  -0.4943  -0.4781  -0.4619  -0.4582  -0.4560
 -0.3901  -0.3469  -0.2716
 -- Virtual --
  0.0466   0.1224   0.1321   0.1559   0.1597   0.1704   0.1947   0.1972
  0.2035   0.2128   0.2150   0.2221   0.2344   0.2428   0.2682   0.2720
  0.2830   0.3122   0.3213   0.3328   0.3415   0.3629   0.3694   0.3778
  0.3825   0.3922   0.4042   0.4167   0.4186   0.4333   0.4376   0.4473
  0.4601   0.4630   0.4722   0.4949   0.5021   0.5037   0.5196   0.5357
  0.5405   0.5421   0.5510   0.5571   0.5632   0.5708   0.5768   0.5867
  0.5873   0.5961   0.6041   0.6078   0.6125   0.6194   0.6210   0.6368
  0.6435   0.6465   0.6509   0.6653   0.6696   0.6915   0.7015   0.7049
  0.7167   0.7279   0.7391   0.7639   0.7657   0.7800   0.7871   0.8000
  0.8058   0.8180   0.8379   0.8516   0.8553   0.8696   0.8792   0.8990
  0.9106   0.9164   0.9242   0.9328   0.9425   0.9555   0.9670   0.9785
  0.9798   0.9978   1.0060   1.0178   1.0314   1.0391   1.0486   1.0500
  1.0638   1.0813   1.0881   1.0966   1.0985   1.1095   1.1131   1.1182
  1.1339   1.1555   1.1620   1.1694   1.1748   1.1792   1.1986   1.2115
  1.2164   1.2351   1.2460   1.2555   1.2661   1.2908   1.3003   1.3125
  1.3319   1.3455   1.3474   1.3580   1.3745   1.3841   1.4034   1.4151
  1.4269   1.4338   1.4606   1.4730   1.4764   1.4954   1.5054   1.5123
  1.5147   1.5164   1.5453   1.5514   1.5601   1.5663   1.5927   1.6070
  1.6324   1.6430   1.6645   1.6748   1.6874   1.7001   1.7165   1.7256
  1.7571   1.7677   1.8112   1.8178   1.8350   1.8425   1.8474   1.8577
  1.8640   1.8716   1.8981   1.9087   1.9331   1.9365   1.9487   1.9809
  1.9979   2.0278   2.0294   2.0479   2.0837   2.0924   2.1046   2.1355
  2.1491   2.1512   2.1619   2.1841   2.1991   2.2171   2.2293   2.2441
  2.2519   2.2655   2.2840   2.2989   2.3011   2.3195   2.3397   2.3510
  2.3676   2.3844   2.3876   2.4276   2.4373   2.4647   2.4887   2.5005
  2.5313   2.5571   2.5725   2.5807   2.5968   2.6022   2.6219   2.6329
  2.6516   2.6614   2.6744   2.6905   2.6955   2.7051   2.7062   2.7270
  2.7462   2.7480   2.7725   2.7762   2.7907   2.8026   2.8147   2.8248
  2.8415   2.8665   2.8876   2.8964   2.9102   2.9298   2.9385   2.9478
  2.9791   3.0050   3.0137   3.0325   3.0372   3.0407   3.0466   3.0569
  3.0826   3.0912   3.0964   3.1075   3.1185   3.1446   3.1452   3.1615
  3.1702   3.1845   3.1972   3.2050   3.2152   3.2211   3.2416   3.2537
  3.2664   3.2738   3.2829   3.2843   3.2947   3.2972   3.3093   3.3157
  3.3394   3.3481   3.3562   3.3648   3.3794   3.3862   3.3915   3.4096
  3.4253   3.4345   3.4420   3.4536   3.4581   3.4686   3.4826   3.4922
  3.5049   3.5199   3.5344   3.5358   3.5627   3.5781   3.5831   3.5862
  3.6043   3.6073   3.6293   3.6384   3.6396   3.6524   3.6610   3.6706
  3.6756   3.6885   3.6998   3.7116   3.7215   3.7309   3.7326   3.7504
  3.7557   3.7666   3.7743   3.8078   3.8259   3.8329   3.8386   3.8530
  3.8567   3.8803   3.8888   3.8945   3.9001   3.9187   3.9408   3.9580
  3.9609   3.9676   3.9826   3.9922   4.0034   4.0123   4.0397   4.0537
  4.0711   4.0921   4.1018   4.1265   4.1365   4.1440   4.1542   4.1735
  4.1880   4.2245   4.2526   4.2709   4.2835   4.3073   4.3219   4.3310
  4.3497   4.3779   4.3804   4.3863   4.3921   4.4041   4.4193   4.4358
  4.4490   4.4866   4.5011   4.5240   4.5365   4.5381   4.5945   4.6016
  4.6132   4.6339   4.6526   4.6605   4.6705   4.6850   4.6963   4.7394
  4.7667   4.7728   4.7933   4.8086   4.8212   4.9009   4.9184   4.9261
  4.9798   5.0131   5.0249   5.0348   5.0774   5.0974   5.1033   5.1390
  5.1857   5.2014   5.2218   5.2472   5.2608   5.2645   5.2965   5.3543
  5.3572   5.3644   5.4163   5.4261   5.4484   5.4747   5.4865   5.5336
  5.5646   5.5805   5.6074   5.6222   5.6433   5.6888   5.7369   5.8039
  5.8073   5.8217   5.8589   5.8746   5.9127   5.9741   5.9864   6.0530
  6.1142   6.1358   6.1514   6.1880   6.2817   6.3115   6.3880   6.4162
  6.5083   6.5603   6.5796   6.6811   6.6970   6.7420   6.7486   6.8651
  6.8869   6.9963   7.1818   7.2139   7.3311   7.3726   7.3762   7.4321
  7.4658   7.4865   7.5200   7.5529   7.6198   7.7697   7.8353   7.9158
  8.0025   8.1267   8.4824   8.9268   9.0093   9.3624   9.4990   9.6906
 10.0892  11.2237  11.5365  11.9407  12.3150  12.7037  13.1908  13.5855
 13.7935  14.0653  14.8178
 --------------------------------------------------------------
 
          Ground-State Mulliken Net Atomic Charges

     Atom                 Charge (a.u.)
  ----------------------------------------
      1 C                     0.041311
      2 S                     0.081428
      3 C                    -0.278406
      4 C                    -0.094241
      5 C                    -0.012260
      6 C                     0.402033
      7 C                    -0.173519
      8 S                     0.021033
      9 C                     0.460391
     10 O                    -0.460126
     11 O                    -0.299175
     12 F                    -0.214228
     13 C                    -0.055112
     14 H                     0.115857
     15 H                     0.083437
     16 H                     0.083430
     17 C                    -0.383871
     18 H                     0.149288
     19 H                     0.173174
     20 H                     0.149299
     21 H                     0.210256
  ----------------------------------------
  Sum of atomic charges =     0.000000

 -----------------------------------------------------------------
                    Cartesian Multipole Moments
 -----------------------------------------------------------------
    Charge (ESU x 10^10)
                -0.0000
    Dipole Moment (Debye)
         X      -0.5793      Y       0.0717      Z       3.9613
       Tot       4.0041
    Quadrupole Moments (Debye-Ang)
        XX     -96.4147     XY       2.8063     YY     -81.7639
        XZ      -1.6550     YZ     -12.7633     ZZ     -96.7165
    Octopole Moments (Debye-Ang^2)
       XXX     -23.6348    XXY     -84.2673    XYY      -9.4075
       YYY    -237.7458    XXZ      79.1289    XYZ      -0.4282
       YYZ      66.9916    XZZ      -0.0032    YZZ       2.6794
       ZZZ     262.6325
    Hexadecapole Moments (Debye-Ang^3)
      XXXX    -131.9232   XXXY     -77.5366   XXYY    -349.8729
      XYYY     -51.3718   YYYY   -1760.1696   XXXZ      66.1613
      XXYZ     249.0297   XYYZ       9.9919   YYYZ     639.1228
      XXZZ    -681.2036   XYZZ       2.4629   YYZZ    -681.8888
      XZZZ      29.7829   YZZZ     335.0614   ZZZZ   -3818.1506
 -----------------------------------------------------------------
 Total job time:  67.95s(wall), 2821.69s(cpu) 
 Tue Sep 26 18:01:13 2023

        *************************************************************
        *                                                           *
        *  Thank you very much for using Q-Chem.  Have a nice day.  *
        *                                                           *
        *************************************************************


0 sent ACK to 0 
now end server 0 ... 
cleanup process ... done
remove work dirs ./qchem1179958.0 -- ./qchem1179958.0
rm -rf ./qchem1179958.0
rm -rf ./qchem1179958
