You are running Q-Chem version: 5.4.0

#
# job setting
#
local host:  exp-8-18
current dir: /expanse/lustre/projects/csd626/rramji/aromodel/PTB7_fin/Hydrogenated_Impropers_Test
input file:  fin_bdt_Phi_5_Theta_120_fin_ftt_Hydrogenated_Improper.qcin
output file: 
nprocs     : 1
nthreads   : 64
#
# qchem installation setting
#
QC:          /cm/shared/apps/spack/cpu/opt/spack/linux-centos8-zen2/gcc-10.2.0/qchem-5.4-akfmr7b3t57bfs6qan3padb2wnb2i7cl
QCAUX:       /cm/shared/apps/spack/cpu/opt/spack/linux-centos8-zen2/gcc-10.2.0/qchem-5.4-akfmr7b3t57bfs6qan3padb2wnb2i7cl/qcaux
QCPROG:      /cm/shared/apps/spack/cpu/opt/spack/linux-centos8-zen2/gcc-10.2.0/qchem-5.4-akfmr7b3t57bfs6qan3padb2wnb2i7cl/exe/qcprog.exe
QCPROG_S:    /cm/shared/apps/spack/cpu/opt/spack/linux-centos8-zen2/gcc-10.2.0/qchem-5.4-akfmr7b3t57bfs6qan3padb2wnb2i7cl/exe/qcprog.exe_s
PARALLEL:    -DPARALLEL
QCMPI:       mpich
#
# qchem directory setting
#
qcrun:       qchem1178490
QCSCRATCH:   .
QCLOCALSCR:  
QCTMPDIR:    .
QCFILEPREF:  ./qchem1178490
QCSAVEDIR:   
workdirs:    ./qchem1178490
workdir0:    ./qchem1178490
partmpdirs =  
#
# parallel setting
#
QCRSH:           ssh
QCMPI:           mpich
QCMPIRUN:        /cm/shared/apps/spack/cpu/opt/spack/linux-centos8-zen2/gcc-10.2.0/qchem-5.4-akfmr7b3t57bfs6qan3padb2wnb2i7cl/bin/mpi/mpirun_qchem
QCMACHINEFILE:   ./qchem1178490/hostfile
exp-8-18

#
# env setting
#
exported envs:   QC QCAUX QCSCRATCH QCRUNNAME QCFILEPREF QCPROG QCPROG_S GUIFILE

Running Job 1 of 1 fin_bdt_Phi_5_Theta_120_fin_ftt_Hydrogenated_Improper.qcin
qchem fin_bdt_Phi_5_Theta_120_fin_ftt_Hydrogenated_Improper.qcin_1178490.0 ./qchem1178490/ 1
/cm/shared/apps/spack/cpu/opt/spack/linux-centos8-zen2/gcc-10.2.0/qchem-5.4-akfmr7b3t57bfs6qan3padb2wnb2i7cl/bin/mpi/mpirun_qchem -machinefile ./qchem1178490/hostfile -np 1 /cm/shared/apps/spack/cpu/opt/spack/linux-centos8-zen2/gcc-10.2.0/qchem-5.4-akfmr7b3t57bfs6qan3padb2wnb2i7cl/exe/qcprog.exe fin_bdt_Phi_5_Theta_120_fin_ftt_Hydrogenated_Improper.qcin_1178490.0 ./qchem1178490/

Process 0 of 1 is on exp-8-18 - thread support 0
initial socket setup ...start
initial socket setup ...done 
now start server 0 ... 
                  Welcome to Q-Chem
     A Quantum Leap Into The Future Of Chemistry


 Q-Chem 5.4, Q-Chem, Inc., Pleasanton, CA (2021)

 License issued to: University of California, San Diego (site)

 E. Epifanovsky,  A. T. B. Gilbert,  Xintian Feng,  Joonho Lee,  Yuezhi Mao,  
 N. Mardirossian,  P. Pokhilko,  A. White,  M. Wormit,  M. P. Coons,  
 A. L. Dempwolff,  Zhengting Gan,  D. Hait,  P. R. Horn,  L. D. Jacobson,  
 I. Kaliman,  J. Kussmann,  A. W. Lange,  Ka Un Lao,  D. S. Levine,  Jie Liu,  
 S. C. McKenzie,  A. F. Morrison,  K. Nanda,  F. Plasser,  D. R. Rehn,  
 M. L. Vidal,  Zhi-Qiang You,  Ying Zhu,  B. Alam,  B. Albrecht,  
 A. Aldossary,  E. Alguire,  J. H. Andersen,  D. Barton,  K. Begam,  A. Behn,  
 Y. A. Bernard,  E. J. Berquist,  H. Burton,  A. Carreras,  K. Carter-Fenk,  
 R. Chakraborty,  A. D. Chien,  K. D. Closser,  V. Cofer-Shabica,  
 S. Dasgupta,  Jia Deng,  M. de Wergifosse,  M. Diedenhofen,  Hainam Do,  
 S. Ehlert,  Po-Tung Fang,  S. Fatehi,  Qingguo Feng,  J. Gayvert,  
 Qinghui Ge,  G. Gidofalvi,  M. Goldey,  J. Gomes,  C. Gonzalez-Espinoza,  
 S. Gulania,  A. Gunina,  M. W. D. Hanson-Heine,  P. H. P. Harbach,  
 A. W. Hauser,  M. F. Herbst,  M. Hernandez Vera,  M. Hodecker,  
 Z. C. Holden,  S. Houck,  Xunkun Huang,  Kerwin Hui,  B. C. Huynh,  
 M. Ivanov,  Hyunjun Ji,  Hanjie Jiang,  B. Kaduk,  S. Kaehler,  
 K. Khistyaev,  Jaehoon Kim,  P. Klunzinger,  Z. Koczor-Benda,  
 Joong Hoon Koh,  D. Kosenkov,  L. Koulias,  T. Kowalczyk,  C. M. Krauter,  
 K. Kue,  A. Kunitsa,  T. Kus,  A. Landau,  K. V. Lawler,  D. Lefrancois,  
 S. Lehtola,  Rain Li,  Yi-Pei Li,  Jiashu Liang,  M. Liebenthal,  
 Hung-Hsuan Lin,  You-Sheng Lin,  Fenglai Liu,  Kuan-Yu Liu,  
 M. Loipersberger,  A. Luenser,  A. Manjanath,  P. Manohar,  E. Mansoor,  
 S. F. Manzer,  Shan-Ping Mao,  A. V. Marenich,  T. Markovich,  S. Mason,  
 S. A. Maurer,  P. F. McLaughlin,  M. F. S. J. Menger,  J.-M. Mewes,  
 S. A. Mewes,  P. Morgante,  J. W. Mullinax,  T. S. Nguyen-Beck,  
 K. J. Oosterbaan,  G. Paran,  Alexander C. Paul,  Suranjan K. Paul,  
 F. Pavosevic,  Zheng Pei,  S. Prager,  E. I. Proynov,  E. Ramos,  B. Rana,  
 A. E. Rask,  A. Rettig,  R. M. Richard,  F. Rob,  E. Rossomme,  T. Scheele,  
 M. Scheurer,  M. Schneider,  N. Sergueev,  S. M. Sharada,  W. Skomorowski,  
 D. W. Small,  C. J. Stein,  Yu-Chuan Su,  E. J. Sundstrom,  Zhen Tao,  
 J. Thirman,  T. Tsuchimochi,  N. M. Tubman,  S. P. Veccham,  O. Vydrov,  
 J. Wenzel,  J. Witte,  A. Yamada,  Kun Yao,  S. Yeganeh,  S. R. Yost,  
 A. Zech,  Igor Ying Zhang,  Xing Zhang,  Yu Zhang,  D. Zuev,  
 A. Aspuru-Guzik,  A. T. Bell,  N. A. Besley,  K. B. Bravaya,  B. R. Brooks,  
 D. Casanova,  Jeng-Da Chai,  S. Coriani,  C. J. Cramer,  
 A. E. DePrince, III,  R. A. DiStasio Jr.,  A. Dreuw,  B. D. Dunietz,  
 T. R. Furlani,  W. A. Goddard III,  S. Grimme,  S. Hammes-Schiffer,  
 T. Head-Gordon,  W. J. Hehre,  Chao-Ping Hsu,  T.-C. Jagau,  Yousung Jung,  
 A. Klamt,  Jing Kong,  D. S. Lambrecht,  WanZhen Liang,  N. J. Mayhall,  
 C. W. McCurdy,  J. B. Neaton,  C. Ochsenfeld,  J. A. Parkhill,  R. Peverati,  
 V. A. Rassolov,  Yihan Shao,  L. V. Slipchenko,  T. Stauch,  R. P. Steele,  
 J. E. Subotnik,  A. J. W. Thom,  A. Tkatchenko,  D. G. Truhlar,  
 T. Van Voorhis,  T. A. Wesolowski,  K. B. Whaley,  H. L. Woodcock III,  
 P. M. Zimmerman,  S. Faraji,  P. M. W. Gill,  M. Head-Gordon,  
 J. M. Herbert,  A. I. Krylov

 Contributors to earlier versions of Q-Chem not listed above: 
 R. D. Adamson,  B. Austin,  R. Baer,  J. Baker,  G. J. O. Beran,  
 K. Brandhorst,  S. T. Brown,  E. F. C. Byrd,  A. K. Chakraborty,  
 G. K. L. Chan,  Chun-Min Chang,  Yunqing Chen,  C.-L. Cheng,  
 Siu Hung Chien,  D. M. Chipman,  D. L. Crittenden,  H. Dachsel,  
 R. J. Doerksen,  A. D. Dutoi,  R. G. Edgar,  J. Fosso-Tande,  
 L. Fusti-Molnar,  D. Ghosh,  A. Ghysels,  A. Golubeva-Zadorozhnaya,  
 J. Gonthier,  M. S. Gordon,  S. R. Gwaltney,  G. Hawkins,  J. E. Herr,  
 A. Heyden,  S. Hirata,  E. G. Hohenstein,  G. Kedziora,  F. J. Keil,  
 C. Kelley,  Jihan Kim,  R. A. King,  R. Z. Khaliullin,  P. P. Korambath,  
 W. Kurlancheek,  A. Laurent,  A. M. Lee,  M. S. Lee,  S. V. Levchenko,  
 Ching Yeh Lin,  D. Liotard,  E. Livshits,  R. C. Lochan,  I. Lotan,  
 L. A. Martinez-Martinez,  P. E. Maslen,  N. Nair,  D. P. O'Neill,  
 D. Neuhauser,  E. Neuscamman,  C. M. Oana,  R. Olivares-Amaya,  R. Olson,  
 T. M. Perrine,  B. Peters,  P. A. Pieniazek,  A. Prociuk,  Y. M. Rhee,  
 J. Ritchie,  M. A. Rohrdanz,  E. Rosta,  N. J. Russ,  H. F. Schaefer III,  
 M. W. Schmidt,  N. E. Schultz,  S. Sharma,  N. Shenvi,  C. D. Sherrill,  
 A. C. Simmonett,  A. Sodt,  T. Stein,  D. Stuck,  K. S. Thanthiriwatte,  
 V. Vanovschi,  L. Vogt,  Tao Wang,  A. Warshel,  M. A. Watson,  
 C. F. Williams,  Q. Wu,  X. Xu,  Jun Yang,  W. Zhang,  Yan Zhao

 Please cite Q-Chem as follows:
 Y. Shao et al., Mol. Phys. 113, 184-215 (2015)
 DOI: 10.1080/00268976.2014.952696

 Q-Chem 5.4.0 for Intel X86 EM64T Linux

 Parts of Q-Chem use Armadillo 9.800.1 (Horizon Scraper).
 http://arma.sourceforge.net/

 Q-Chem begins on Tue Sep 26 17:55:15 2023  

 Host: 
0

     Scratch files written to ./qchem1178490//
 May1621 |scratch|qcdevops|jenkins|workspace|build_RNUM    
 Parallel job on  1  processors
 Processing $rem in /cm/shared/apps/spack/cpu/opt/spack/linux-centos8-zen2/gcc-10.2.0/qchem-5.4-akfmr7b3t57bfs6qan3padb2wnb2i7cl/config/preferences:
 Processing $rem in /home/rramji/.qchemrc:
 Symmetry turned off for PCM/SM12/SMD calculation
 Core orbitals will be frozen

 Checking the input file for inconsistencies... 	...done.

 Q-Chem warning in module forms1/BasisType.C, line 2236:

 You are not using the predefined 5D/6D in this basis set.


--------------------------------------------------------------
User input:
--------------------------------------------------------------
$molecule
0 1
C	-0.078095	-0.833466	1.020760
S	0.002505	0.062334	2.531460
C	0.138705	1.631734	1.748360
C	0.001005	0.071334	-0.043940
C	0.120605	1.454934	0.342460
C	-0.003095	0.005034	-1.465340
C	0.107005	1.265034	-2.086140
S	0.212405	2.508134	-0.944940
C	0.133805	1.518134	-3.539240
O	0.055405	0.587934	-4.329540
O	0.248905	2.796134	-3.983640
F	-0.096295	-1.105166	-2.225540
C	0.290305	3.152634	-5.314240
H	0.387205	4.253334	-5.349540
H	-0.631195	2.842434	-5.854840
H	1.151805	2.685834	-5.841140
C	-0.078095	-2.268666	1.020760
H	-0.610695	-2.277666	1.960260
H	-0.802195	-2.952566	0.603160
H	0.743505	-2.793066	1.485860
H	0.219005	2.548234	2.342260
$end

$rem
JOBTYPE		SP
EXCHANGE	HF
CORRELATION	pRIMP2
BASIS		cc-pvtz
METHOD		rimp2
AUX_BASIS	rimp2-cc-pvtz
SOLVENT_METHOD	PCM
PURECART	11111
SYMMETRY	false
MEM_TOTAL	110000
SCF_CONVERGENCE = 6
THRESH=10
GUI = 2
$end



$solvent
dielectric 4.90
$end
--------------------------------------------------------------
 ----------------------------------------------------------------
             Standard Nuclear Orientation (Angstroms)
    I     Atom           X                Y                Z
 ----------------------------------------------------------------
    1      C      -0.0780950000    -0.8334660000     1.0207600000
    2      S       0.0025050000     0.0623340000     2.5314600000
    3      C       0.1387050000     1.6317340000     1.7483600000
    4      C       0.0010050000     0.0713340000    -0.0439400000
    5      C       0.1206050000     1.4549340000     0.3424600000
    6      C      -0.0030950000     0.0050340000    -1.4653400000
    7      C       0.1070050000     1.2650340000    -2.0861400000
    8      S       0.2124050000     2.5081340000    -0.9449400000
    9      C       0.1338050000     1.5181340000    -3.5392400000
   10      O       0.0554050000     0.5879340000    -4.3295400000
   11      O       0.2489050000     2.7961340000    -3.9836400000
   12      F      -0.0962950000    -1.1051660000    -2.2255400000
   13      C       0.2903050000     3.1526340000    -5.3142400000
   14      H       0.3872050000     4.2533340000    -5.3495400000
   15      H      -0.6311950000     2.8424340000    -5.8548400000
   16      H       1.1518050000     2.6858340000    -5.8411400000
   17      C      -0.0780950000    -2.2686660000     1.0207600000
   18      H      -0.6106950000    -2.2776660000     1.9602600000
   19      H      -0.8021950000    -2.9525660000     0.6031600000
   20      H       0.7435050000    -2.7930660000     1.4858600000
   21      H       0.2190050000     2.5482340000     2.3422600000
 ----------------------------------------------------------------
 Nuclear Repulsion Energy =        1088.42636994 hartrees
 There are       59 alpha and       59 beta electrons
 Requested basis set is cc-pVTZ
 There are 186 shells and 526 basis functions

 Total QAlloc Memory Limit 110000 MB
 Mega-Array Size       188 MB
 MEM_STATIC part       192 MB
 Discretize the solute cavity surface with Lebedev spheres
	Using 110 Lebedev grid points for each H atom
	Using 194 Lebedev grid points for other atoms
	Atomic van der Waals radii will be scaled by 1.20
 Remove points where switching function is < 1.0e-08
 Keep 1574 surface tesserae and discard 1912 interior tesserae
 Molecular Surface Area = 241.994 Angst**2
 Requested basis set is rimp2-cc-pVTZ
 There are 410 shells and 1426 basis functions
 A cutoff of  1.0D-10 yielded  11492 shell pairs
 There are     90296 function pairs (    118232 Cartesian)
 Smallest overlap matrix eigenvalue = 5.75E-05

 Scale SEOQF with 1.000000e+00/1.000000e-01/1.000000e-02

 Standard Electronic Orientation quadrupole field applied
 Nucleus-field energy     =     0.0000000204 hartrees
 Guess from superposition of atomic densities
 Warning:  Energy on first SCF cycle will be non-variational
 SAD guess density has 118.000000 electrons

 -----------------------------------------------------------------------
  General SCF calculation program by
  Eric Jon Sundstrom, Paul Horn, Yuezhi Mao, Dmitri Zuev, Alec White,
  David Stuck, Shaama M.S., Shane Yost, Joonho Lee, David Small,
  Daniel Levine, Susi Lehtola, Hugh Burton, Evgeny Epifanovsky,
  Bang C. Huynh
 -----------------------------------------------------------------------
 Hartree-Fock
 using 64 threads for integral computing
 -------------------------------------------------------
 OpenMP Integral computing Module                
 Release: version 1.0, May 2013, Q-Chem Inc. Pittsburgh 
 -------------------------------------------------------
 A restricted SCF calculation will be
 performed using DIIS
 SCF converges when DIIS error is below 1.0e-06
 ---------------------------------------
  Cycle       Energy         DIIS error
 ---------------------------------------
    1   -1394.5656368797      2.53e-02  
    2   -1389.0126609894      2.50e-03  
    3   -1389.1852568644      1.57e-03  
    4   -1389.2462242703      3.48e-04  
    5   -1389.2518822108      1.11e-04  
    6   -1389.2525479828      3.64e-05  
    7   -1389.2526900657      1.81e-05  
    8   -1389.2527373199      7.21e-06  
    9   -1389.2527475713      3.22e-06  
   10   -1389.2527491631      1.23e-06  
   11   -1389.2527493991      4.65e-07  Convergence criterion met
 ---------------------------------------
 SCF time:   CPU 1692.79s  wall 48.00s 

************** Final PCM Free Energy Summary **************
 G_electrostatic  =      -0.01356816 hartree =      -8.51415016 kcal/mol
 G_cavitation     =       0.00000000 hartree =       0.00000000 kcal/mol
 G_dispersion     =       0.00000000 hartree =       0.00000000 kcal/mol
 G_repulsion      =       0.00000000 hartree =       0.00000000 kcal/mol
 --------------------------------------------------
 Non-electrostatic Free Energy =       0.00000000 hartree =       0.00000000 kcal/mol
 Total                         =      -0.01356816 hartree =      -8.51415016 kcal/mol
 --------------------------------------------------
 SCF Energy (H0 + V/2)                       =   -1389.25274940 
 Solute Internal Energy (H0)                 =   -1389.23918124 
 Total Free Energy (H0 + V/2 + non-elec)     =   -1389.25274940 hartree
                                             = -871769.25786073 kcal/mol
***********************************************************

 SCF   energy in the final basis set =    -1389.2527493991
 Total energy in the final basis set =    -1389.2527493991


 --------------------------------------------------------------
  Generalized many-body perturbation theory program
  by Joonho Lee, Fazle Rob, Xintian Feng, Evgeny Epifanovsky

 No regularization used 
 (reg. param. = 0.0000e+00)
  (P|Q)^-1/2 Time:  CPU 33.08 s  wall 0.55 s

 In RI-MP2 calculation: 
 # of frozen core orbitals: 22

 Components of the RIMP2 correlation energy:
        aaaa    correlation energy =        -0.3291546931 a.u.
        abab    correlation energy =        -1.8467350631 a.u.
        bbbb    correlation energy =        -0.3291546931 a.u.
        non-Brillouin singles      =        -0.0000000000 a.u.
        total same-spin energy     =        -0.6583093861 a.u.
        total opposite-spin energy =        -1.8467350631 a.u.

 Total  RIMP2   correlation energy =        -2.5050444492 a.u.
        RIMP2         total energy =     -1391.7577938483 a.u.

 RI-MP2 Energy Time:  CPU 186.97 s  wall 3.68 s
 
 --------------------------------------------------------------
 
                    Orbital Energies (a.u.)
 --------------------------------------------------------------
 
 Alpha MOs
 -- Occupied --
-92.0088 -91.9890 -26.3330 -20.6100 -20.5467 -11.4072 -11.3754 -11.3105
-11.2912 -11.2903 -11.2874 -11.2820 -11.2683 -11.2298  -9.0075  -8.9933
 -6.6883  -6.6877  -6.6872  -6.6746  -6.6739  -6.6725  -1.6460  -1.4696
 -1.3645  -1.2264  -1.1467  -1.0653  -1.0293  -1.0056  -0.9681  -0.9103
 -0.8638  -0.7965  -0.7839  -0.7672  -0.7260  -0.7139  -0.6956  -0.6768
 -0.6765  -0.6676  -0.6096  -0.6038  -0.5963  -0.5869  -0.5766  -0.5662
 -0.5430  -0.5247  -0.5064  -0.4819  -0.4793  -0.4627  -0.4594  -0.4574
 -0.3944  -0.3465  -0.2794
 -- Virtual --
  0.0395   0.1192   0.1299   0.1555   0.1602   0.1688   0.1910   0.1956
  0.2091   0.2198   0.2214   0.2319   0.2343   0.2488   0.2655   0.2673
  0.2820   0.3102   0.3144   0.3307   0.3468   0.3587   0.3683   0.3774
  0.3814   0.3924   0.3964   0.4111   0.4182   0.4296   0.4365   0.4434
  0.4633   0.4655   0.4750   0.4867   0.5010   0.5073   0.5133   0.5222
  0.5399   0.5429   0.5468   0.5525   0.5612   0.5666   0.5785   0.5896
  0.5916   0.5932   0.6099   0.6130   0.6168   0.6244   0.6277   0.6307
  0.6402   0.6428   0.6517   0.6673   0.6736   0.6874   0.6931   0.7046
  0.7143   0.7171   0.7415   0.7598   0.7721   0.7880   0.7890   0.7931
  0.8067   0.8127   0.8265   0.8386   0.8651   0.8682   0.8782   0.8952
  0.9061   0.9110   0.9220   0.9270   0.9375   0.9489   0.9630   0.9763
  0.9812   0.9875   1.0010   1.0068   1.0246   1.0366   1.0403   1.0550
  1.0616   1.0843   1.0895   1.0943   1.0992   1.1090   1.1119   1.1380
  1.1490   1.1590   1.1601   1.1677   1.1864   1.1937   1.2038   1.2075
  1.2189   1.2404   1.2506   1.2625   1.2711   1.2887   1.2974   1.3073
  1.3155   1.3379   1.3467   1.3524   1.3747   1.3803   1.3906   1.4005
  1.4154   1.4264   1.4471   1.4720   1.4792   1.4988   1.5037   1.5111
  1.5148   1.5166   1.5467   1.5583   1.5619   1.5788   1.5824   1.6051
  1.6202   1.6399   1.6594   1.6693   1.6799   1.7065   1.7278   1.7362
  1.7504   1.7616   1.7897   1.8106   1.8248   1.8353   1.8403   1.8638
  1.8704   1.8729   1.8870   1.9168   1.9328   1.9431   1.9480   1.9539
  1.9989   2.0235   2.0325   2.0423   2.0530   2.0896   2.1046   2.1312
  2.1447   2.1569   2.1615   2.1751   2.1980   2.2048   2.2221   2.2433
  2.2554   2.2691   2.2803   2.2907   2.2983   2.3153   2.3275   2.3356
  2.3701   2.3840   2.4125   2.4252   2.4640   2.4774   2.4893   2.4938
  2.5306   2.5589   2.5675   2.5824   2.5947   2.6199   2.6345   2.6388
  2.6544   2.6601   2.6757   2.6933   2.7030   2.7081   2.7260   2.7313
  2.7392   2.7508   2.7601   2.7786   2.7910   2.8065   2.8175   2.8197
  2.8486   2.8567   2.8689   2.8885   2.9111   2.9127   2.9423   2.9468
  2.9555   2.9904   3.0089   3.0187   3.0413   3.0448   3.0549   3.0663
  3.0861   3.0918   3.0981   3.1021   3.1275   3.1326   3.1377   3.1586
  3.1674   3.1758   3.1954   3.2062   3.2134   3.2251   3.2446   3.2605
  3.2677   3.2728   3.2804   3.2845   3.2904   3.3079   3.3132   3.3178
  3.3355   3.3502   3.3610   3.3651   3.3718   3.3774   3.3966   3.4075
  3.4368   3.4409   3.4424   3.4568   3.4623   3.4768   3.4921   3.5000
  3.5093   3.5213   3.5311   3.5430   3.5663   3.5757   3.5878   3.5933
  3.6028   3.6109   3.6312   3.6407   3.6467   3.6556   3.6613   3.6712
  3.6753   3.6894   3.7053   3.7111   3.7136   3.7203   3.7309   3.7325
  3.7651   3.7675   3.7923   3.8044   3.8238   3.8347   3.8465   3.8513
  3.8558   3.8700   3.8832   3.8918   3.9010   3.9262   3.9292   3.9427
  3.9555   3.9588   3.9657   3.9828   3.9979   4.0145   4.0439   4.0504
  4.0672   4.0808   4.0907   4.0949   4.1283   4.1368   4.1493   4.1728
  4.1823   4.1949   4.2293   4.2571   4.2760   4.2941   4.3109   4.3324
  4.3490   4.3564   4.3780   4.3866   4.4018   4.4130   4.4286   4.4437
  4.4523   4.4679   4.4978   4.5189   4.5331   4.5530   4.5914   4.6013
  4.6254   4.6378   4.6555   4.6603   4.6678   4.6784   4.7107   4.7285
  4.7668   4.7781   4.7892   4.8078   4.8385   4.8467   4.9046   4.9140
  4.9668   5.0105   5.0179   5.0364   5.0592   5.1036   5.1194   5.1686
  5.1845   5.2128   5.2333   5.2518   5.2602   5.2680   5.2999   5.3519
  5.3565   5.3597   5.4033   5.4241   5.4742   5.4872   5.4941   5.5368
  5.5648   5.6030   5.6170   5.6204   5.6452   5.7002   5.7311   5.8027
  5.8191   5.8380   5.8596   5.8806   5.9423   5.9644   5.9724   5.9857
  6.0829   6.1308   6.1350   6.1870   6.2348   6.3104   6.3486   6.4530
  6.4748   6.5220   6.5588   6.6781   6.6794   6.7403   6.7415   6.8632
  6.8843   6.9936   7.1805   7.2123   7.3293   7.3737   7.3769   7.4298
  7.4646   7.4876   7.5209   7.5513   7.6181   7.7714   7.8336   7.9143
  8.0016   8.1234   8.4522   8.9283   9.0091   9.3635   9.4986   9.6866
 10.0970  11.2220  11.5337  11.9336  12.2928  12.7038  13.1491  13.5614
 13.8733  14.1078  14.6987
 --------------------------------------------------------------
 
          Ground-State Mulliken Net Atomic Charges

     Atom                 Charge (a.u.)
  ----------------------------------------
      1 C                     0.033028
      2 S                     0.082833
      3 C                    -0.258795
      4 C                    -0.081520
      5 C                    -0.011889
      6 C                     0.388180
      7 C                    -0.163876
      8 S                     0.026159
      9 C                     0.459210
     10 O                    -0.455645
     11 O                    -0.298496
     12 F                    -0.213470
     13 C                    -0.055076
     14 H                     0.116142
     15 H                     0.083897
     16 H                     0.083835
     17 C                    -0.369298
     18 H                     0.119594
     19 H                     0.164338
     20 H                     0.139082
     21 H                     0.211766
  ----------------------------------------
  Sum of atomic charges =     0.000000

 -----------------------------------------------------------------
                    Cartesian Multipole Moments
 -----------------------------------------------------------------
    Charge (ESU x 10^10)
                -0.0000
    Dipole Moment (Debye)
         X      -0.0858      Y       0.9249      Z       4.1637
       Tot       4.2660
    Quadrupole Moments (Debye-Ang)
        XX     -95.9234     XY       1.8756     YY     -82.2512
        XZ      -1.0212     YZ     -13.3675     ZZ     -95.2083
    Octopole Moments (Debye-Ang^2)
       XXX     -23.7027    XXY     -85.3162    XYY      -7.7177
       YYY    -231.8403    XXZ      79.3147    XYZ      -2.0002
       YYZ      68.6436    XZZ       0.7718    YZZ       5.3989
       ZZZ     258.2409
    Hexadecapole Moments (Debye-Ang^3)
      XXXX    -132.6777   XXXY     -75.4190   XXYY    -343.3695
      XYYY     -52.2808   YYYY   -1765.7754   XXXZ      65.9823
      XXYZ     248.3518   XYYZ      13.4096   YYYZ     637.1053
      XXZZ    -679.6710   XYZZ       0.8667   YYZZ    -680.5538
      XZZZ      28.2403   YZZZ     336.9761   ZZZZ   -3803.6190
 -----------------------------------------------------------------
 Total job time:  58.32s(wall), 2191.52s(cpu) 
 Tue Sep 26 17:56:14 2023

        *************************************************************
        *                                                           *
        *  Thank you very much for using Q-Chem.  Have a nice day.  *
        *                                                           *
        *************************************************************


0 sent ACK to 0 
now end server 0 ... 
cleanup process ... done
remove work dirs ./qchem1178490.0 -- ./qchem1178490.0
rm -rf ./qchem1178490.0
rm -rf ./qchem1178490
