You are running Q-Chem version: 5.4.0

#
# job setting
#
local host:  exp-6-53
current dir: /expanse/lustre/projects/csd626/rramji/aromodel/PTB7_fin/Hydrogenated_Impropers_Test
input file:  fin_bdt_Phi_0_Theta_120_fin_ftt_Hydrogenated_Improper.qcin
output file: 
nprocs     : 1
nthreads   : 64
#
# qchem installation setting
#
QC:          /cm/shared/apps/spack/cpu/opt/spack/linux-centos8-zen2/gcc-10.2.0/qchem-5.4-akfmr7b3t57bfs6qan3padb2wnb2i7cl
QCAUX:       /cm/shared/apps/spack/cpu/opt/spack/linux-centos8-zen2/gcc-10.2.0/qchem-5.4-akfmr7b3t57bfs6qan3padb2wnb2i7cl/qcaux
QCPROG:      /cm/shared/apps/spack/cpu/opt/spack/linux-centos8-zen2/gcc-10.2.0/qchem-5.4-akfmr7b3t57bfs6qan3padb2wnb2i7cl/exe/qcprog.exe
QCPROG_S:    /cm/shared/apps/spack/cpu/opt/spack/linux-centos8-zen2/gcc-10.2.0/qchem-5.4-akfmr7b3t57bfs6qan3padb2wnb2i7cl/exe/qcprog.exe_s
PARALLEL:    -DPARALLEL
QCMPI:       mpich
#
# qchem directory setting
#
qcrun:       qchem2010571
QCSCRATCH:   .
QCLOCALSCR:  
QCTMPDIR:    .
QCFILEPREF:  ./qchem2010571
QCSAVEDIR:   
workdirs:    ./qchem2010571
workdir0:    ./qchem2010571
partmpdirs =  
#
# parallel setting
#
QCRSH:           ssh
QCMPI:           mpich
QCMPIRUN:        /cm/shared/apps/spack/cpu/opt/spack/linux-centos8-zen2/gcc-10.2.0/qchem-5.4-akfmr7b3t57bfs6qan3padb2wnb2i7cl/bin/mpi/mpirun_qchem
QCMACHINEFILE:   ./qchem2010571/hostfile
exp-6-53

#
# env setting
#
exported envs:   QC QCAUX QCSCRATCH QCRUNNAME QCFILEPREF QCPROG QCPROG_S GUIFILE

Running Job 1 of 1 fin_bdt_Phi_0_Theta_120_fin_ftt_Hydrogenated_Improper.qcin
qchem fin_bdt_Phi_0_Theta_120_fin_ftt_Hydrogenated_Improper.qcin_2010571.0 ./qchem2010571/ 1
/cm/shared/apps/spack/cpu/opt/spack/linux-centos8-zen2/gcc-10.2.0/qchem-5.4-akfmr7b3t57bfs6qan3padb2wnb2i7cl/bin/mpi/mpirun_qchem -machinefile ./qchem2010571/hostfile -np 1 /cm/shared/apps/spack/cpu/opt/spack/linux-centos8-zen2/gcc-10.2.0/qchem-5.4-akfmr7b3t57bfs6qan3padb2wnb2i7cl/exe/qcprog.exe fin_bdt_Phi_0_Theta_120_fin_ftt_Hydrogenated_Improper.qcin_2010571.0 ./qchem2010571/

Process 0 of 1 is on exp-6-53 - thread support 0
initial socket setup ...start
initial socket setup ...done 
now start server 0 ... 
                  Welcome to Q-Chem
     A Quantum Leap Into The Future Of Chemistry


 Q-Chem 5.4, Q-Chem, Inc., Pleasanton, CA (2021)

 License issued to: University of California, San Diego (site)

 E. Epifanovsky,  A. T. B. Gilbert,  Xintian Feng,  Joonho Lee,  Yuezhi Mao,  
 N. Mardirossian,  P. Pokhilko,  A. White,  M. Wormit,  M. P. Coons,  
 A. L. Dempwolff,  Zhengting Gan,  D. Hait,  P. R. Horn,  L. D. Jacobson,  
 I. Kaliman,  J. Kussmann,  A. W. Lange,  Ka Un Lao,  D. S. Levine,  Jie Liu,  
 S. C. McKenzie,  A. F. Morrison,  K. Nanda,  F. Plasser,  D. R. Rehn,  
 M. L. Vidal,  Zhi-Qiang You,  Ying Zhu,  B. Alam,  B. Albrecht,  
 A. Aldossary,  E. Alguire,  J. H. Andersen,  D. Barton,  K. Begam,  A. Behn,  
 Y. A. Bernard,  E. J. Berquist,  H. Burton,  A. Carreras,  K. Carter-Fenk,  
 R. Chakraborty,  A. D. Chien,  K. D. Closser,  V. Cofer-Shabica,  
 S. Dasgupta,  Jia Deng,  M. de Wergifosse,  M. Diedenhofen,  Hainam Do,  
 S. Ehlert,  Po-Tung Fang,  S. Fatehi,  Qingguo Feng,  J. Gayvert,  
 Qinghui Ge,  G. Gidofalvi,  M. Goldey,  J. Gomes,  C. Gonzalez-Espinoza,  
 S. Gulania,  A. Gunina,  M. W. D. Hanson-Heine,  P. H. P. Harbach,  
 A. W. Hauser,  M. F. Herbst,  M. Hernandez Vera,  M. Hodecker,  
 Z. C. Holden,  S. Houck,  Xunkun Huang,  Kerwin Hui,  B. C. Huynh,  
 M. Ivanov,  Hyunjun Ji,  Hanjie Jiang,  B. Kaduk,  S. Kaehler,  
 K. Khistyaev,  Jaehoon Kim,  P. Klunzinger,  Z. Koczor-Benda,  
 Joong Hoon Koh,  D. Kosenkov,  L. Koulias,  T. Kowalczyk,  C. M. Krauter,  
 K. Kue,  A. Kunitsa,  T. Kus,  A. Landau,  K. V. Lawler,  D. Lefrancois,  
 S. Lehtola,  Rain Li,  Yi-Pei Li,  Jiashu Liang,  M. Liebenthal,  
 Hung-Hsuan Lin,  You-Sheng Lin,  Fenglai Liu,  Kuan-Yu Liu,  
 M. Loipersberger,  A. Luenser,  A. Manjanath,  P. Manohar,  E. Mansoor,  
 S. F. Manzer,  Shan-Ping Mao,  A. V. Marenich,  T. Markovich,  S. Mason,  
 S. A. Maurer,  P. F. McLaughlin,  M. F. S. J. Menger,  J.-M. Mewes,  
 S. A. Mewes,  P. Morgante,  J. W. Mullinax,  T. S. Nguyen-Beck,  
 K. J. Oosterbaan,  G. Paran,  Alexander C. Paul,  Suranjan K. Paul,  
 F. Pavosevic,  Zheng Pei,  S. Prager,  E. I. Proynov,  E. Ramos,  B. Rana,  
 A. E. Rask,  A. Rettig,  R. M. Richard,  F. Rob,  E. Rossomme,  T. Scheele,  
 M. Scheurer,  M. Schneider,  N. Sergueev,  S. M. Sharada,  W. Skomorowski,  
 D. W. Small,  C. J. Stein,  Yu-Chuan Su,  E. J. Sundstrom,  Zhen Tao,  
 J. Thirman,  T. Tsuchimochi,  N. M. Tubman,  S. P. Veccham,  O. Vydrov,  
 J. Wenzel,  J. Witte,  A. Yamada,  Kun Yao,  S. Yeganeh,  S. R. Yost,  
 A. Zech,  Igor Ying Zhang,  Xing Zhang,  Yu Zhang,  D. Zuev,  
 A. Aspuru-Guzik,  A. T. Bell,  N. A. Besley,  K. B. Bravaya,  B. R. Brooks,  
 D. Casanova,  Jeng-Da Chai,  S. Coriani,  C. J. Cramer,  
 A. E. DePrince, III,  R. A. DiStasio Jr.,  A. Dreuw,  B. D. Dunietz,  
 T. R. Furlani,  W. A. Goddard III,  S. Grimme,  S. Hammes-Schiffer,  
 T. Head-Gordon,  W. J. Hehre,  Chao-Ping Hsu,  T.-C. Jagau,  Yousung Jung,  
 A. Klamt,  Jing Kong,  D. S. Lambrecht,  WanZhen Liang,  N. J. Mayhall,  
 C. W. McCurdy,  J. B. Neaton,  C. Ochsenfeld,  J. A. Parkhill,  R. Peverati,  
 V. A. Rassolov,  Yihan Shao,  L. V. Slipchenko,  T. Stauch,  R. P. Steele,  
 J. E. Subotnik,  A. J. W. Thom,  A. Tkatchenko,  D. G. Truhlar,  
 T. Van Voorhis,  T. A. Wesolowski,  K. B. Whaley,  H. L. Woodcock III,  
 P. M. Zimmerman,  S. Faraji,  P. M. W. Gill,  M. Head-Gordon,  
 J. M. Herbert,  A. I. Krylov

 Contributors to earlier versions of Q-Chem not listed above: 
 R. D. Adamson,  B. Austin,  R. Baer,  J. Baker,  G. J. O. Beran,  
 K. Brandhorst,  S. T. Brown,  E. F. C. Byrd,  A. K. Chakraborty,  
 G. K. L. Chan,  Chun-Min Chang,  Yunqing Chen,  C.-L. Cheng,  
 Siu Hung Chien,  D. M. Chipman,  D. L. Crittenden,  H. Dachsel,  
 R. J. Doerksen,  A. D. Dutoi,  R. G. Edgar,  J. Fosso-Tande,  
 L. Fusti-Molnar,  D. Ghosh,  A. Ghysels,  A. Golubeva-Zadorozhnaya,  
 J. Gonthier,  M. S. Gordon,  S. R. Gwaltney,  G. Hawkins,  J. E. Herr,  
 A. Heyden,  S. Hirata,  E. G. Hohenstein,  G. Kedziora,  F. J. Keil,  
 C. Kelley,  Jihan Kim,  R. A. King,  R. Z. Khaliullin,  P. P. Korambath,  
 W. Kurlancheek,  A. Laurent,  A. M. Lee,  M. S. Lee,  S. V. Levchenko,  
 Ching Yeh Lin,  D. Liotard,  E. Livshits,  R. C. Lochan,  I. Lotan,  
 L. A. Martinez-Martinez,  P. E. Maslen,  N. Nair,  D. P. O'Neill,  
 D. Neuhauser,  E. Neuscamman,  C. M. Oana,  R. Olivares-Amaya,  R. Olson,  
 T. M. Perrine,  B. Peters,  P. A. Pieniazek,  A. Prociuk,  Y. M. Rhee,  
 J. Ritchie,  M. A. Rohrdanz,  E. Rosta,  N. J. Russ,  H. F. Schaefer III,  
 M. W. Schmidt,  N. E. Schultz,  S. Sharma,  N. Shenvi,  C. D. Sherrill,  
 A. C. Simmonett,  A. Sodt,  T. Stein,  D. Stuck,  K. S. Thanthiriwatte,  
 V. Vanovschi,  L. Vogt,  Tao Wang,  A. Warshel,  M. A. Watson,  
 C. F. Williams,  Q. Wu,  X. Xu,  Jun Yang,  W. Zhang,  Yan Zhao

 Please cite Q-Chem as follows:
 Y. Shao et al., Mol. Phys. 113, 184-215 (2015)
 DOI: 10.1080/00268976.2014.952696

 Q-Chem 5.4.0 for Intel X86 EM64T Linux

 Parts of Q-Chem use Armadillo 9.800.1 (Horizon Scraper).
 http://arma.sourceforge.net/

 Q-Chem begins on Sun Sep 24 16:46:13 2023  

 Host: 
0

     Scratch files written to ./qchem2010571//
 May1621 |scratch|qcdevops|jenkins|workspace|build_RNUM    
 Parallel job on  1  processors
 Processing $rem in /cm/shared/apps/spack/cpu/opt/spack/linux-centos8-zen2/gcc-10.2.0/qchem-5.4-akfmr7b3t57bfs6qan3padb2wnb2i7cl/config/preferences:
 Processing $rem in /home/rramji/.qchemrc:
 Symmetry turned off for PCM/SM12/SMD calculation
 Core orbitals will be frozen

 Checking the input file for inconsistencies... 	...done.

 Q-Chem warning in module forms1/BasisType.C, line 2236:

 You are not using the predefined 5D/6D in this basis set.


--------------------------------------------------------------
User input:
--------------------------------------------------------------
$molecule
0 1
C	-0.000844	-0.836989	1.020760
S	0.001356	0.062411	2.531460
C	0.000356	1.637711	1.748360
C	-0.000844	0.071211	-0.043940
C	-0.002344	1.460011	0.342460
C	0.000756	0.004811	-1.465340
C	0.000656	1.269711	-2.086140
S	-0.002644	2.517211	-0.944940
C	0.005356	1.524111	-3.539240
O	0.008356	0.590611	-4.329540
O	0.008556	2.807311	-3.983640
F	0.004656	-1.109289	-2.225540
C	0.018756	3.166011	-5.314240
H	0.019356	4.271011	-5.349540
H	-0.872244	2.776711	-5.854840
H	0.917656	2.776111	-5.841140
C	-0.000844	-2.272189	1.020760
H	-0.533444	-2.281189	1.960260
H	-0.724944	-2.956089	0.603160
H	0.820756	-2.796589	1.485860
H	0.000356	2.557811	2.342260
$end

$rem
JOBTYPE		SP
EXCHANGE	HF
CORRELATION	pRIMP2
BASIS		cc-pvtz
METHOD		rimp2
AUX_BASIS	rimp2-cc-pvtz
SOLVENT_METHOD	PCM
PURECART	11111
SYMMETRY	false
MEM_TOTAL	110000
SCF_CONVERGENCE = 6
THRESH=10
GUI = 2
$end



$solvent
dielectric 4.90
$end
--------------------------------------------------------------
 ----------------------------------------------------------------
             Standard Nuclear Orientation (Angstroms)
    I     Atom           X                Y                Z
 ----------------------------------------------------------------
    1      C      -0.0008440000    -0.8369890000     1.0207600000
    2      S       0.0013560000     0.0624110000     2.5314600000
    3      C       0.0003560000     1.6377110000     1.7483600000
    4      C      -0.0008440000     0.0712110000    -0.0439400000
    5      C      -0.0023440000     1.4600110000     0.3424600000
    6      C       0.0007560000     0.0048110000    -1.4653400000
    7      C       0.0006560000     1.2697110000    -2.0861400000
    8      S      -0.0026440000     2.5172110000    -0.9449400000
    9      C       0.0053560000     1.5241110000    -3.5392400000
   10      O       0.0083560000     0.5906110000    -4.3295400000
   11      O       0.0085560000     2.8073110000    -3.9836400000
   12      F       0.0046560000    -1.1092890000    -2.2255400000
   13      C       0.0187560000     3.1660110000    -5.3142400000
   14      H       0.0193560000     4.2710110000    -5.3495400000
   15      H      -0.8722440000     2.7767110000    -5.8548400000
   16      H       0.9176560000     2.7761110000    -5.8411400000
   17      C      -0.0008440000    -2.2721890000     1.0207600000
   18      H      -0.5334440000    -2.2811890000     1.9602600000
   19      H      -0.7249440000    -2.9560890000     0.6031600000
   20      H       0.8207560000    -2.7965890000     1.4858600000
   21      H       0.0003560000     2.5578110000     2.3422600000
 ----------------------------------------------------------------
 Nuclear Repulsion Energy =        1088.40550600 hartrees
 There are       59 alpha and       59 beta electrons
 Requested basis set is cc-pVTZ
 There are 186 shells and 526 basis functions

 Total QAlloc Memory Limit 110000 MB
 Mega-Array Size       188 MB
 MEM_STATIC part       192 MB
 Discretize the solute cavity surface with Lebedev spheres
	Using 110 Lebedev grid points for each H atom
	Using 194 Lebedev grid points for other atoms
	Atomic van der Waals radii will be scaled by 1.20
 Remove points where switching function is < 1.0e-08
 Keep 1567 surface tesserae and discard 1919 interior tesserae
 Molecular Surface Area = 242.240 Angst**2
 Requested basis set is rimp2-cc-pVTZ
 There are 410 shells and 1426 basis functions
 A cutoff of  1.0D-10 yielded  11491 shell pairs
 There are     90285 function pairs (    118218 Cartesian)
 Smallest overlap matrix eigenvalue = 5.63E-05

 Scale SEOQF with 1.000000e+00/1.000000e-01/1.000000e-02

 Standard Electronic Orientation quadrupole field applied
 Nucleus-field energy     =     0.0000000196 hartrees
 Guess from superposition of atomic densities
 Warning:  Energy on first SCF cycle will be non-variational
 SAD guess density has 118.000000 electrons

 -----------------------------------------------------------------------
  General SCF calculation program by
  Eric Jon Sundstrom, Paul Horn, Yuezhi Mao, Dmitri Zuev, Alec White,
  David Stuck, Shaama M.S., Shane Yost, Joonho Lee, David Small,
  Daniel Levine, Susi Lehtola, Hugh Burton, Evgeny Epifanovsky,
  Bang C. Huynh
 -----------------------------------------------------------------------
 Hartree-Fock
 using 64 threads for integral computing
 -------------------------------------------------------
 OpenMP Integral computing Module                
 Release: version 1.0, May 2013, Q-Chem Inc. Pittsburgh 
 -------------------------------------------------------
 A restricted SCF calculation will be
 performed using DIIS
 SCF converges when DIIS error is below 1.0e-06
 ---------------------------------------
  Cycle       Energy         DIIS error
 ---------------------------------------
    1   -1394.5658397399      2.53e-02  
    2   -1389.0128970396      2.50e-03  
    3   -1389.1855307219      1.57e-03  
    4   -1389.2465303157      3.48e-04  
    5   -1389.2521900314      1.11e-04  
    6   -1389.2528558488      3.64e-05  
    7   -1389.2529980287      1.81e-05  
    8   -1389.2530452643      7.19e-06  
    9   -1389.2530554728      3.20e-06  
   10   -1389.2530570470      1.22e-06  
   11   -1389.2530572799      4.61e-07  Convergence criterion met
 ---------------------------------------
 SCF time:   CPU 1695.56s  wall 49.00s 

************** Final PCM Free Energy Summary **************
 G_electrostatic  =      -0.01360098 hartree =      -8.53474632 kcal/mol
 G_cavitation     =       0.00000000 hartree =       0.00000000 kcal/mol
 G_dispersion     =       0.00000000 hartree =       0.00000000 kcal/mol
 G_repulsion      =       0.00000000 hartree =       0.00000000 kcal/mol
 --------------------------------------------------
 Non-electrostatic Free Energy =       0.00000000 hartree =       0.00000000 kcal/mol
 Total                         =      -0.01360098 hartree =      -8.53474632 kcal/mol
 --------------------------------------------------
 SCF Energy (H0 + V/2)                       =   -1389.25305728 
 Solute Internal Energy (H0)                 =   -1389.23945630 
 Total Free Energy (H0 + V/2 + non-elec)     =   -1389.25305728 hartree
                                             = -871769.45105885 kcal/mol
***********************************************************

 SCF   energy in the final basis set =    -1389.2530572799
 Total energy in the final basis set =    -1389.2530572799


 --------------------------------------------------------------
  Generalized many-body perturbation theory program
  by Joonho Lee, Fazle Rob, Xintian Feng, Evgeny Epifanovsky

 No regularization used 
 (reg. param. = 0.0000e+00)
  (P|Q)^-1/2 Time:  CPU 19.67 s  wall 0.31 s

 In RI-MP2 calculation: 
 # of frozen core orbitals: 22

 Components of the RIMP2 correlation energy:
        aaaa    correlation energy =        -0.3291057504 a.u.
        abab    correlation energy =        -1.8465846082 a.u.
        bbbb    correlation energy =        -0.3291057504 a.u.
        non-Brillouin singles      =        -0.0000000000 a.u.
        total same-spin energy     =        -0.6582115009 a.u.
        total opposite-spin energy =        -1.8465846082 a.u.

 Total  RIMP2   correlation energy =        -2.5047961091 a.u.
        RIMP2         total energy =     -1391.7578533890 a.u.

 RI-MP2 Energy Time:  CPU 185.92 s  wall 3.72 s
 
 --------------------------------------------------------------
 
                    Orbital Energies (a.u.)
 --------------------------------------------------------------
 
 Alpha MOs
 -- Occupied --
-92.0085 -91.9889 -26.3331 -20.6100 -20.5467 -11.4072 -11.3755 -11.3109
-11.2911 -11.2903 -11.2874 -11.2818 -11.2683 -11.2299  -9.0073  -8.9932
 -6.6880  -6.6875  -6.6870  -6.6745  -6.6738  -6.6725  -1.6460  -1.4696
 -1.3645  -1.2264  -1.1467  -1.0653  -1.0294  -1.0056  -0.9681  -0.9103
 -0.8638  -0.7965  -0.7839  -0.7672  -0.7260  -0.7139  -0.6957  -0.6768
 -0.6766  -0.6675  -0.6094  -0.6038  -0.5967  -0.5869  -0.5755  -0.5669
 -0.5434  -0.5247  -0.5066  -0.4826  -0.4790  -0.4623  -0.4593  -0.4573
 -0.3946  -0.3464  -0.2793
 -- Virtual --
  0.0398   0.1192   0.1304   0.1556   0.1602   0.1683   0.1912   0.1958
  0.2091   0.2196   0.2214   0.2321   0.2348   0.2478   0.2652   0.2680
  0.2815   0.3104   0.3143   0.3315   0.3462   0.3610   0.3684   0.3773
  0.3815   0.3932   0.3969   0.4119   0.4182   0.4306   0.4364   0.4427
  0.4643   0.4666   0.4745   0.4870   0.5004   0.5075   0.5129   0.5238
  0.5393   0.5413   0.5471   0.5538   0.5601   0.5665   0.5782   0.5885
  0.5903   0.5936   0.6093   0.6127   0.6166   0.6242   0.6280   0.6300
  0.6411   0.6428   0.6515   0.6667   0.6752   0.6855   0.6948   0.7058
  0.7139   0.7158   0.7407   0.7586   0.7720   0.7883   0.7915   0.7922
  0.8071   0.8115   0.8255   0.8389   0.8649   0.8691   0.8800   0.8952
  0.9046   0.9139   0.9227   0.9263   0.9353   0.9489   0.9653   0.9757
  0.9823   0.9856   0.9996   1.0074   1.0240   1.0377   1.0417   1.0557
  1.0616   1.0837   1.0894   1.0958   1.0975   1.1044   1.1124   1.1382
  1.1490   1.1566   1.1600   1.1679   1.1858   1.1954   1.2033   1.2087
  1.2187   1.2400   1.2478   1.2638   1.2732   1.2896   1.2935   1.3100
  1.3162   1.3356   1.3444   1.3526   1.3765   1.3821   1.3917   1.4040
  1.4145   1.4275   1.4473   1.4719   1.4801   1.5017   1.5039   1.5117
  1.5150   1.5167   1.5454   1.5563   1.5627   1.5747   1.5822   1.6031
  1.6172   1.6393   1.6603   1.6714   1.6813   1.7112   1.7269   1.7365
  1.7483   1.7623   1.7904   1.8110   1.8250   1.8356   1.8423   1.8642
  1.8716   1.8727   1.8864   1.9157   1.9330   1.9426   1.9511   1.9553
  1.9986   2.0239   2.0322   2.0415   2.0536   2.0919   2.1053   2.1307
  2.1441   2.1574   2.1631   2.1747   2.1980   2.2072   2.2218   2.2428
  2.2567   2.2728   2.2807   2.2900   2.2963   2.3189   2.3278   2.3357
  2.3697   2.3843   2.4128   2.4256   2.4638   2.4747   2.4874   2.4903
  2.5305   2.5599   2.5715   2.5819   2.5938   2.6196   2.6349   2.6403
  2.6542   2.6625   2.6761   2.6922   2.7019   2.7094   2.7186   2.7286
  2.7380   2.7556   2.7605   2.7766   2.7887   2.8058   2.8138   2.8189
  2.8474   2.8560   2.8627   2.8879   2.9114   2.9161   2.9400   2.9467
  2.9557   2.9937   3.0179   3.0222   3.0391   3.0449   3.0583   3.0672
  3.0802   3.0917   3.0990   3.1030   3.1280   3.1339   3.1380   3.1624
  3.1642   3.1735   3.1975   3.2057   3.2144   3.2258   3.2436   3.2602
  3.2659   3.2728   3.2787   3.2836   3.2903   3.3112   3.3155   3.3243
  3.3375   3.3490   3.3616   3.3678   3.3713   3.3782   3.3889   3.4063
  3.4380   3.4383   3.4408   3.4579   3.4648   3.4726   3.4940   3.4989
  3.5068   3.5210   3.5311   3.5410   3.5641   3.5768   3.5886   3.5920
  3.6033   3.6167   3.6320   3.6403   3.6508   3.6540   3.6629   3.6749
  3.6760   3.6856   3.7079   3.7106   3.7135   3.7213   3.7310   3.7327
  3.7634   3.7702   3.7885   3.8052   3.8239   3.8346   3.8494   3.8510
  3.8563   3.8693   3.8837   3.8874   3.8983   3.9281   3.9301   3.9455
  3.9512   3.9610   3.9673   3.9832   3.9966   4.0084   4.0375   4.0516
  4.0678   4.0809   4.0904   4.0946   4.1285   4.1307   4.1519   4.1729
  4.1834   4.1966   4.2359   4.2521   4.2770   4.2928   4.3110   4.3312
  4.3490   4.3557   4.3780   4.3852   4.4009   4.4132   4.4295   4.4471
  4.4527   4.4665   4.4977   4.5174   4.5297   4.5520   4.5906   4.6066
  4.6211   4.6378   4.6554   4.6606   4.6690   4.6804   4.7095   4.7287
  4.7662   4.7735   4.7912   4.8072   4.8411   4.8443   4.9051   4.9146
  4.9667   5.0116   5.0203   5.0375   5.0647   5.0997   5.1149   5.1650
  5.1848   5.2130   5.2319   5.2527   5.2602   5.2683   5.3005   5.3508
  5.3564   5.3618   5.4035   5.4254   5.4741   5.4895   5.4954   5.5372
  5.5653   5.6049   5.6192   5.6205   5.6455   5.6991   5.7321   5.8027
  5.8141   5.8376   5.8646   5.8804   5.9327   5.9611   5.9724   5.9878
  6.0788   6.1301   6.1350   6.1870   6.2402   6.3104   6.3544   6.4479
  6.4811   6.5259   6.5588   6.6793   6.6809   6.7406   6.7415   6.8632
  6.8843   6.9938   7.1805   7.2123   7.3293   7.3737   7.3768   7.4298
  7.4646   7.4876   7.5210   7.5513   7.6184   7.7714   7.8336   7.9146
  8.0013   8.1242   8.4636   8.9283   9.0089   9.3634   9.4983   9.6865
 10.1000  11.2231  11.5329  11.9342  12.2945  12.7049  13.1424  13.5518
 13.8589  14.1014  14.7195
 --------------------------------------------------------------
 
          Ground-State Mulliken Net Atomic Charges

     Atom                 Charge (a.u.)
  ----------------------------------------
      1 C                     0.039056
      2 S                     0.082208
      3 C                    -0.259946
      4 C                    -0.086449
      5 C                    -0.012151
      6 C                     0.392632
      7 C                    -0.164920
      8 S                     0.025904
      9 C                     0.459485
     10 O                    -0.455746
     11 O                    -0.298541
     12 F                    -0.213644
     13 C                    -0.055002
     14 H                     0.116122
     15 H                     0.083857
     16 H                     0.083829
     17 C                    -0.371503
     18 H                     0.120708
     19 H                     0.163182
     20 H                     0.139170
     21 H                     0.211750
  ----------------------------------------
  Sum of atomic charges =     0.000000

 -----------------------------------------------------------------
                    Cartesian Multipole Moments
 -----------------------------------------------------------------
    Charge (ESU x 10^10)
                -0.0000
    Dipole Moment (Debye)
         X      -0.3245      Y       0.9078      Z       4.1692
       Tot       4.2792
    Quadrupole Moments (Debye-Ang)
        XX     -96.0522     XY       1.0133     YY     -82.1651
        XZ      -0.0711     YZ     -13.4447     ZZ     -95.2224
    Octopole Moments (Debye-Ang^2)
       XXX      -0.0327    XXY     -85.8499    XYY      -2.6101
       YYY    -232.6696    XXZ      79.5143    XYZ      -0.5742
       YYZ      68.5140    XZZ       0.5048    YZZ       5.3011
       ZZZ     258.3049
    Hexadecapole Moments (Debye-Ang^3)
      XXXX    -119.8737   XXXY      -2.9672   XXYY    -345.1828
      XYYY       5.8877   YYYY   -1776.2329   XXXZ       4.3605
      XXYZ     250.1960   XYYZ       1.4250   YYYZ     638.5206
      XXZZ    -680.0373   XYZZ      -0.6754   YYZZ    -680.1911
      XZZZ       2.4657   YZZZ     338.1173   ZZZZ   -3803.8522
 -----------------------------------------------------------------
 Total job time:  54.67s(wall), 1939.10s(cpu) 
 Sun Sep 24 16:47:08 2023

        *************************************************************
        *                                                           *
        *  Thank you very much for using Q-Chem.  Have a nice day.  *
        *                                                           *
        *************************************************************


0 sent ACK to 0 
now end server 0 ... 
cleanup process ... done
remove work dirs ./qchem2010571.0 -- ./qchem2010571.0
rm -rf ./qchem2010571.0
rm -rf ./qchem2010571
