You are running Q-Chem version: 5.4.0

#
# job setting
#
local host:  exp-3-30
current dir: /expanse/lustre/projects/csd626/rramji/aromodel/PTB7_fin/Hydrogenated_Impropers_Test
input file:  fin_bdt_Phi_50_Theta_210_fin_ftt_Hydrogenated_Improper.qcin
output file: 
nprocs     : 1
nthreads   : 64
#
# qchem installation setting
#
QC:          /cm/shared/apps/spack/cpu/opt/spack/linux-centos8-zen2/gcc-10.2.0/qchem-5.4-akfmr7b3t57bfs6qan3padb2wnb2i7cl
QCAUX:       /cm/shared/apps/spack/cpu/opt/spack/linux-centos8-zen2/gcc-10.2.0/qchem-5.4-akfmr7b3t57bfs6qan3padb2wnb2i7cl/qcaux
QCPROG:      /cm/shared/apps/spack/cpu/opt/spack/linux-centos8-zen2/gcc-10.2.0/qchem-5.4-akfmr7b3t57bfs6qan3padb2wnb2i7cl/exe/qcprog.exe
QCPROG_S:    /cm/shared/apps/spack/cpu/opt/spack/linux-centos8-zen2/gcc-10.2.0/qchem-5.4-akfmr7b3t57bfs6qan3padb2wnb2i7cl/exe/qcprog.exe_s
PARALLEL:    -DPARALLEL
QCMPI:       mpich
#
# qchem directory setting
#
qcrun:       qchem1283611
QCSCRATCH:   .
QCLOCALSCR:  
QCTMPDIR:    .
QCFILEPREF:  ./qchem1283611
QCSAVEDIR:   
workdirs:    ./qchem1283611
workdir0:    ./qchem1283611
partmpdirs =  
#
# parallel setting
#
QCRSH:           ssh
QCMPI:           mpich
QCMPIRUN:        /cm/shared/apps/spack/cpu/opt/spack/linux-centos8-zen2/gcc-10.2.0/qchem-5.4-akfmr7b3t57bfs6qan3padb2wnb2i7cl/bin/mpi/mpirun_qchem
QCMACHINEFILE:   ./qchem1283611/hostfile
exp-3-30

#
# env setting
#
exported envs:   QC QCAUX QCSCRATCH QCRUNNAME QCFILEPREF QCPROG QCPROG_S GUIFILE

Running Job 1 of 1 fin_bdt_Phi_50_Theta_210_fin_ftt_Hydrogenated_Improper.qcin
qchem fin_bdt_Phi_50_Theta_210_fin_ftt_Hydrogenated_Improper.qcin_1283611.0 ./qchem1283611/ 1
/cm/shared/apps/spack/cpu/opt/spack/linux-centos8-zen2/gcc-10.2.0/qchem-5.4-akfmr7b3t57bfs6qan3padb2wnb2i7cl/bin/mpi/mpirun_qchem -machinefile ./qchem1283611/hostfile -np 1 /cm/shared/apps/spack/cpu/opt/spack/linux-centos8-zen2/gcc-10.2.0/qchem-5.4-akfmr7b3t57bfs6qan3padb2wnb2i7cl/exe/qcprog.exe fin_bdt_Phi_50_Theta_210_fin_ftt_Hydrogenated_Improper.qcin_1283611.0 ./qchem1283611/

Process 0 of 1 is on exp-3-30 - thread support 0
initial socket setup ...start
initial socket setup ...done 
now start server 0 ... 
                  Welcome to Q-Chem
     A Quantum Leap Into The Future Of Chemistry


 Q-Chem 5.4, Q-Chem, Inc., Pleasanton, CA (2021)

 License issued to: University of California, San Diego (site)

 E. Epifanovsky,  A. T. B. Gilbert,  Xintian Feng,  Joonho Lee,  Yuezhi Mao,  
 N. Mardirossian,  P. Pokhilko,  A. White,  M. Wormit,  M. P. Coons,  
 A. L. Dempwolff,  Zhengting Gan,  D. Hait,  P. R. Horn,  L. D. Jacobson,  
 I. Kaliman,  J. Kussmann,  A. W. Lange,  Ka Un Lao,  D. S. Levine,  Jie Liu,  
 S. C. McKenzie,  A. F. Morrison,  K. Nanda,  F. Plasser,  D. R. Rehn,  
 M. L. Vidal,  Zhi-Qiang You,  Ying Zhu,  B. Alam,  B. Albrecht,  
 A. Aldossary,  E. Alguire,  J. H. Andersen,  D. Barton,  K. Begam,  A. Behn,  
 Y. A. Bernard,  E. J. Berquist,  H. Burton,  A. Carreras,  K. Carter-Fenk,  
 R. Chakraborty,  A. D. Chien,  K. D. Closser,  V. Cofer-Shabica,  
 S. Dasgupta,  Jia Deng,  M. de Wergifosse,  M. Diedenhofen,  Hainam Do,  
 S. Ehlert,  Po-Tung Fang,  S. Fatehi,  Qingguo Feng,  J. Gayvert,  
 Qinghui Ge,  G. Gidofalvi,  M. Goldey,  J. Gomes,  C. Gonzalez-Espinoza,  
 S. Gulania,  A. Gunina,  M. W. D. Hanson-Heine,  P. H. P. Harbach,  
 A. W. Hauser,  M. F. Herbst,  M. Hernandez Vera,  M. Hodecker,  
 Z. C. Holden,  S. Houck,  Xunkun Huang,  Kerwin Hui,  B. C. Huynh,  
 M. Ivanov,  Hyunjun Ji,  Hanjie Jiang,  B. Kaduk,  S. Kaehler,  
 K. Khistyaev,  Jaehoon Kim,  P. Klunzinger,  Z. Koczor-Benda,  
 Joong Hoon Koh,  D. Kosenkov,  L. Koulias,  T. Kowalczyk,  C. M. Krauter,  
 K. Kue,  A. Kunitsa,  T. Kus,  A. Landau,  K. V. Lawler,  D. Lefrancois,  
 S. Lehtola,  Rain Li,  Yi-Pei Li,  Jiashu Liang,  M. Liebenthal,  
 Hung-Hsuan Lin,  You-Sheng Lin,  Fenglai Liu,  Kuan-Yu Liu,  
 M. Loipersberger,  A. Luenser,  A. Manjanath,  P. Manohar,  E. Mansoor,  
 S. F. Manzer,  Shan-Ping Mao,  A. V. Marenich,  T. Markovich,  S. Mason,  
 S. A. Maurer,  P. F. McLaughlin,  M. F. S. J. Menger,  J.-M. Mewes,  
 S. A. Mewes,  P. Morgante,  J. W. Mullinax,  T. S. Nguyen-Beck,  
 K. J. Oosterbaan,  G. Paran,  Alexander C. Paul,  Suranjan K. Paul,  
 F. Pavosevic,  Zheng Pei,  S. Prager,  E. I. Proynov,  E. Ramos,  B. Rana,  
 A. E. Rask,  A. Rettig,  R. M. Richard,  F. Rob,  E. Rossomme,  T. Scheele,  
 M. Scheurer,  M. Schneider,  N. Sergueev,  S. M. Sharada,  W. Skomorowski,  
 D. W. Small,  C. J. Stein,  Yu-Chuan Su,  E. J. Sundstrom,  Zhen Tao,  
 J. Thirman,  T. Tsuchimochi,  N. M. Tubman,  S. P. Veccham,  O. Vydrov,  
 J. Wenzel,  J. Witte,  A. Yamada,  Kun Yao,  S. Yeganeh,  S. R. Yost,  
 A. Zech,  Igor Ying Zhang,  Xing Zhang,  Yu Zhang,  D. Zuev,  
 A. Aspuru-Guzik,  A. T. Bell,  N. A. Besley,  K. B. Bravaya,  B. R. Brooks,  
 D. Casanova,  Jeng-Da Chai,  S. Coriani,  C. J. Cramer,  
 A. E. DePrince, III,  R. A. DiStasio Jr.,  A. Dreuw,  B. D. Dunietz,  
 T. R. Furlani,  W. A. Goddard III,  S. Grimme,  S. Hammes-Schiffer,  
 T. Head-Gordon,  W. J. Hehre,  Chao-Ping Hsu,  T.-C. Jagau,  Yousung Jung,  
 A. Klamt,  Jing Kong,  D. S. Lambrecht,  WanZhen Liang,  N. J. Mayhall,  
 C. W. McCurdy,  J. B. Neaton,  C. Ochsenfeld,  J. A. Parkhill,  R. Peverati,  
 V. A. Rassolov,  Yihan Shao,  L. V. Slipchenko,  T. Stauch,  R. P. Steele,  
 J. E. Subotnik,  A. J. W. Thom,  A. Tkatchenko,  D. G. Truhlar,  
 T. Van Voorhis,  T. A. Wesolowski,  K. B. Whaley,  H. L. Woodcock III,  
 P. M. Zimmerman,  S. Faraji,  P. M. W. Gill,  M. Head-Gordon,  
 J. M. Herbert,  A. I. Krylov

 Contributors to earlier versions of Q-Chem not listed above: 
 R. D. Adamson,  B. Austin,  R. Baer,  J. Baker,  G. J. O. Beran,  
 K. Brandhorst,  S. T. Brown,  E. F. C. Byrd,  A. K. Chakraborty,  
 G. K. L. Chan,  Chun-Min Chang,  Yunqing Chen,  C.-L. Cheng,  
 Siu Hung Chien,  D. M. Chipman,  D. L. Crittenden,  H. Dachsel,  
 R. J. Doerksen,  A. D. Dutoi,  R. G. Edgar,  J. Fosso-Tande,  
 L. Fusti-Molnar,  D. Ghosh,  A. Ghysels,  A. Golubeva-Zadorozhnaya,  
 J. Gonthier,  M. S. Gordon,  S. R. Gwaltney,  G. Hawkins,  J. E. Herr,  
 A. Heyden,  S. Hirata,  E. G. Hohenstein,  G. Kedziora,  F. J. Keil,  
 C. Kelley,  Jihan Kim,  R. A. King,  R. Z. Khaliullin,  P. P. Korambath,  
 W. Kurlancheek,  A. Laurent,  A. M. Lee,  M. S. Lee,  S. V. Levchenko,  
 Ching Yeh Lin,  D. Liotard,  E. Livshits,  R. C. Lochan,  I. Lotan,  
 L. A. Martinez-Martinez,  P. E. Maslen,  N. Nair,  D. P. O'Neill,  
 D. Neuhauser,  E. Neuscamman,  C. M. Oana,  R. Olivares-Amaya,  R. Olson,  
 T. M. Perrine,  B. Peters,  P. A. Pieniazek,  A. Prociuk,  Y. M. Rhee,  
 J. Ritchie,  M. A. Rohrdanz,  E. Rosta,  N. J. Russ,  H. F. Schaefer III,  
 M. W. Schmidt,  N. E. Schultz,  S. Sharma,  N. Shenvi,  C. D. Sherrill,  
 A. C. Simmonett,  A. Sodt,  T. Stein,  D. Stuck,  K. S. Thanthiriwatte,  
 V. Vanovschi,  L. Vogt,  Tao Wang,  A. Warshel,  M. A. Watson,  
 C. F. Williams,  Q. Wu,  X. Xu,  Jun Yang,  W. Zhang,  Yan Zhao

 Please cite Q-Chem as follows:
 Y. Shao et al., Mol. Phys. 113, 184-215 (2015)
 DOI: 10.1080/00268976.2014.952696

 Q-Chem 5.4.0 for Intel X86 EM64T Linux

 Parts of Q-Chem use Armadillo 9.800.1 (Horizon Scraper).
 http://arma.sourceforge.net/

 Q-Chem begins on Sun Sep 24 17:12:19 2023  

 Host: 
0

     Scratch files written to ./qchem1283611//
 May1621 |scratch|qcdevops|jenkins|workspace|build_RNUM    
 Parallel job on  1  processors
 Processing $rem in /cm/shared/apps/spack/cpu/opt/spack/linux-centos8-zen2/gcc-10.2.0/qchem-5.4-akfmr7b3t57bfs6qan3padb2wnb2i7cl/config/preferences:
 Processing $rem in /home/rramji/.qchemrc:
 Symmetry turned off for PCM/SM12/SMD calculation
 Core orbitals will be frozen

 Checking the input file for inconsistencies... 	...done.

 Q-Chem warning in module forms1/BasisType.C, line 2236:

 You are not using the predefined 5D/6D in this basis set.


--------------------------------------------------------------
User input:
--------------------------------------------------------------
$molecule
0 1
C	-0.678101	-0.518946	1.023873
S	0.012299	0.057454	2.534573
C	1.218399	1.070954	1.751473
C	0.017599	0.064854	-0.040827
C	1.080499	0.958754	0.345573
C	-0.032201	0.020954	-1.462227
C	0.936699	0.834054	-2.083027
S	1.890199	1.638454	-0.941827
C	1.134599	0.994054	-3.536127
O	0.421399	0.391754	-4.326427
O	2.119699	1.816354	-3.980527
F	-0.883101	-0.698246	-2.222427
C	2.400999	2.039154	-5.311127
H	3.247799	2.748954	-5.346427
H	1.529999	2.471454	-5.851727
H	2.679999	1.099854	-5.838027
C	-0.678101	-1.954146	1.023873
H	-1.617601	-1.963146	0.491273
H	-0.260501	-2.638046	0.299773
H	-1.143201	-2.478546	1.845473
H	1.923199	1.662254	2.345373
$end

$rem
JOBTYPE		SP
EXCHANGE	HF
CORRELATION	pRIMP2
BASIS		cc-pvtz
METHOD		rimp2
AUX_BASIS	rimp2-cc-pvtz
SOLVENT_METHOD	PCM
PURECART	11111
SYMMETRY	false
MEM_TOTAL	110000
SCF_CONVERGENCE = 6
THRESH=10
GUI = 2
$end



$solvent
dielectric 4.90
$end
--------------------------------------------------------------
 ----------------------------------------------------------------
             Standard Nuclear Orientation (Angstroms)
    I     Atom           X                Y                Z
 ----------------------------------------------------------------
    1      C      -0.6781010000    -0.5189460000     1.0238730000
    2      S       0.0122990000     0.0574540000     2.5345730000
    3      C       1.2183990000     1.0709540000     1.7514730000
    4      C       0.0175990000     0.0648540000    -0.0408270000
    5      C       1.0804990000     0.9587540000     0.3455730000
    6      C      -0.0322010000     0.0209540000    -1.4622270000
    7      C       0.9366990000     0.8340540000    -2.0830270000
    8      S       1.8901990000     1.6384540000    -0.9418270000
    9      C       1.1345990000     0.9940540000    -3.5361270000
   10      O       0.4213990000     0.3917540000    -4.3264270000
   11      O       2.1196990000     1.8163540000    -3.9805270000
   12      F      -0.8831010000    -0.6982460000    -2.2224270000
   13      C       2.4009990000     2.0391540000    -5.3111270000
   14      H       3.2477990000     2.7489540000    -5.3464270000
   15      H       1.5299990000     2.4714540000    -5.8517270000
   16      H       2.6799990000     1.0998540000    -5.8380270000
   17      C      -0.6781010000    -1.9541460000     1.0238730000
   18      H      -1.6176010000    -1.9631460000     0.4912730000
   19      H      -0.2605010000    -2.6380460000     0.2997730000
   20      H      -1.1432010000    -2.4785460000     1.8454730000
   21      H       1.9231990000     1.6622540000     2.3453730000
 ----------------------------------------------------------------
 Nuclear Repulsion Energy =        1094.63114705 hartrees
 There are       59 alpha and       59 beta electrons
 Requested basis set is cc-pVTZ
 There are 186 shells and 526 basis functions

 Total QAlloc Memory Limit 110000 MB
 Mega-Array Size       188 MB
 MEM_STATIC part       192 MB
 Discretize the solute cavity surface with Lebedev spheres
	Using 110 Lebedev grid points for each H atom
	Using 194 Lebedev grid points for other atoms
	Atomic van der Waals radii will be scaled by 1.20
 Remove points where switching function is < 1.0e-08
 Keep 1543 surface tesserae and discard 1943 interior tesserae
 Molecular Surface Area = 240.546 Angst**2
 Requested basis set is rimp2-cc-pVTZ
 There are 410 shells and 1426 basis functions
 A cutoff of  1.0D-10 yielded  11699 shell pairs
 There are     91963 function pairs (    120376 Cartesian)
 Smallest overlap matrix eigenvalue = 6.21E-05

 Scale SEOQF with 1.000000e-01/1.000000e-01/1.000000e-02

 Standard Electronic Orientation quadrupole field applied
 Nucleus-field energy     =     0.0000000109 hartrees
 Guess from superposition of atomic densities
 Warning:  Energy on first SCF cycle will be non-variational
 SAD guess density has 118.000000 electrons

 -----------------------------------------------------------------------
  General SCF calculation program by
  Eric Jon Sundstrom, Paul Horn, Yuezhi Mao, Dmitri Zuev, Alec White,
  David Stuck, Shaama M.S., Shane Yost, Joonho Lee, David Small,
  Daniel Levine, Susi Lehtola, Hugh Burton, Evgeny Epifanovsky,
  Bang C. Huynh
 -----------------------------------------------------------------------
 Hartree-Fock
 using 64 threads for integral computing
 -------------------------------------------------------
 OpenMP Integral computing Module                
 Release: version 1.0, May 2013, Q-Chem Inc. Pittsburgh 
 -------------------------------------------------------
 A restricted SCF calculation will be
 performed using DIIS
 SCF converges when DIIS error is below 1.0e-06
 ---------------------------------------
  Cycle       Energy         DIIS error
 ---------------------------------------
    1   -1394.6141214533      2.53e-02  
    2   -1388.9555636056      2.52e-03  
    3   -1389.1274802296      1.62e-03  
    4   -1389.1930297491      3.50e-04  
    5   -1389.1988208713      1.11e-04  
    6   -1389.1995071176      3.71e-05  
    7   -1389.1996520606      1.86e-05  
    8   -1389.1997042559      8.06e-06  
    9   -1389.1997182610      4.10e-06  
   10   -1389.1997213445      1.76e-06  
   11   -1389.1997219969      7.33e-07  Convergence criterion met
 ---------------------------------------
 SCF time:   CPU 1727.35s  wall 51.00s 

************** Final PCM Free Energy Summary **************
 G_electrostatic  =      -0.01242669 hartree =      -7.79786741 kcal/mol
 G_cavitation     =       0.00000000 hartree =       0.00000000 kcal/mol
 G_dispersion     =       0.00000000 hartree =       0.00000000 kcal/mol
 G_repulsion      =       0.00000000 hartree =       0.00000000 kcal/mol
 --------------------------------------------------
 Non-electrostatic Free Energy =       0.00000000 hartree =       0.00000000 kcal/mol
 Total                         =      -0.01242669 hartree =      -7.79786741 kcal/mol
 --------------------------------------------------
 SCF Energy (H0 + V/2)                       =   -1389.19972200 
 Solute Internal Energy (H0)                 =   -1389.18729530 
 Total Free Energy (H0 + V/2 + non-elec)     =   -1389.19972200 hartree
                                             = -871735.98266362 kcal/mol
***********************************************************

 SCF   energy in the final basis set =    -1389.1997219969
 Total energy in the final basis set =    -1389.1997219969


 --------------------------------------------------------------
  Generalized many-body perturbation theory program
  by Joonho Lee, Fazle Rob, Xintian Feng, Evgeny Epifanovsky

 No regularization used 
 (reg. param. = 0.0000e+00)
  (P|Q)^-1/2 Time:  CPU 30.15 s  wall 0.49 s

 In RI-MP2 calculation: 
 # of frozen core orbitals: 22

 Components of the RIMP2 correlation energy:
        aaaa    correlation energy =        -0.3321873289 a.u.
        abab    correlation energy =        -1.8569341681 a.u.
        bbbb    correlation energy =        -0.3321873289 a.u.
        non-Brillouin singles      =        -0.0000000000 a.u.
        total same-spin energy     =        -0.6643746578 a.u.
        total opposite-spin energy =        -1.8569341681 a.u.

 Total  RIMP2   correlation energy =        -2.5213088259 a.u.
        RIMP2         total energy =     -1391.7210308228 a.u.

 RI-MP2 Energy Time:  CPU 189.44 s  wall 3.42 s
 
 --------------------------------------------------------------
 
                    Orbital Energies (a.u.)
 --------------------------------------------------------------
 
 Alpha MOs
 -- Occupied --
-92.0020 -91.9964 -26.3337 -20.6126 -20.5514 -11.4112 -11.3745 -11.3009
-11.2997 -11.2936 -11.2889 -11.2813 -11.2785 -11.2180  -9.0015  -9.0002
 -6.6822  -6.6815  -6.6813  -6.6811  -6.6808  -6.6795  -1.6468  -1.4725
 -1.3681  -1.2316  -1.1494  -1.0676  -1.0288  -1.0025  -0.9700  -0.9080
 -0.8658  -0.7964  -0.7867  -0.7701  -0.7278  -0.7155  -0.6962  -0.6790
 -0.6761  -0.6711  -0.6070  -0.6064  -0.5982  -0.5917  -0.5693  -0.5606
 -0.5385  -0.5241  -0.5126  -0.4908  -0.4825  -0.4621  -0.4615  -0.4390
 -0.3823  -0.3442  -0.2791
 -- Virtual --
  0.0162   0.1132   0.1375   0.1551   0.1583   0.1725   0.1794   0.1956
  0.2052   0.2132   0.2158   0.2212   0.2285   0.2443   0.2571   0.2691
  0.2844   0.2932   0.3069   0.3396   0.3484   0.3575   0.3711   0.3755
  0.3795   0.3905   0.3942   0.4060   0.4196   0.4290   0.4379   0.4395
  0.4478   0.4676   0.4723   0.4808   0.4983   0.5030   0.5158   0.5200
  0.5311   0.5346   0.5410   0.5504   0.5571   0.5710   0.5766   0.5847
  0.5881   0.5965   0.6065   0.6083   0.6174   0.6211   0.6258   0.6344
  0.6367   0.6415   0.6450   0.6602   0.6772   0.6890   0.6960   0.7044
  0.7109   0.7146   0.7369   0.7437   0.7626   0.7764   0.7885   0.7946
  0.7992   0.8092   0.8320   0.8379   0.8623   0.8737   0.8798   0.8951
  0.9008   0.9100   0.9260   0.9297   0.9417   0.9474   0.9617   0.9766
  0.9865   0.9939   1.0098   1.0208   1.0259   1.0302   1.0452   1.0531
  1.0638   1.0729   1.0828   1.0892   1.1007   1.1055   1.1316   1.1353
  1.1417   1.1555   1.1590   1.1675   1.1761   1.1854   1.1922   1.2161
  1.2205   1.2346   1.2423   1.2560   1.2844   1.2902   1.3070   1.3189
  1.3274   1.3397   1.3422   1.3439   1.3542   1.3670   1.3780   1.4099
  1.4287   1.4330   1.4496   1.4723   1.4805   1.4919   1.4994   1.5044
  1.5123   1.5185   1.5371   1.5535   1.5646   1.5694   1.5955   1.6022
  1.6169   1.6459   1.6476   1.6678   1.6895   1.7032   1.7162   1.7302
  1.7452   1.7593   1.7783   1.8126   1.8185   1.8320   1.8334   1.8505
  1.8655   1.8738   1.8900   1.9200   1.9290   1.9399   1.9453   1.9781
  1.9967   2.0161   2.0273   2.0346   2.0519   2.0978   2.1024   2.1293
  2.1413   2.1487   2.1537   2.1598   2.1917   2.1960   2.2107   2.2250
  2.2437   2.2553   2.2665   2.2788   2.2871   2.2913   2.3243   2.3511
  2.3626   2.3774   2.3952   2.4085   2.4410   2.4595   2.4779   2.4926
  2.5276   2.5340   2.5604   2.5758   2.5853   2.6010   2.6259   2.6297
  2.6406   2.6585   2.6706   2.6812   2.6952   2.6984   2.7085   2.7236
  2.7331   2.7479   2.7693   2.7866   2.7944   2.8065   2.8147   2.8322
  2.8398   2.8555   2.8819   2.8999   2.9218   2.9260   2.9393   2.9592
  2.9837   3.0129   3.0189   3.0315   3.0434   3.0481   3.0548   3.0687
  3.0905   3.1005   3.1097   3.1190   3.1200   3.1276   3.1541   3.1571
  3.1640   3.1792   3.1915   3.2044   3.2120   3.2276   3.2309   3.2458
  3.2537   3.2638   3.2722   3.2847   3.2907   3.3101   3.3144   3.3221
  3.3462   3.3542   3.3593   3.3672   3.3803   3.3942   3.4086   3.4196
  3.4284   3.4409   3.4428   3.4541   3.4689   3.4840   3.4968   3.5050
  3.5117   3.5298   3.5343   3.5560   3.5668   3.5723   3.5806   3.5942
  3.5958   3.6049   3.6218   3.6352   3.6502   3.6639   3.6773   3.6829
  3.6855   3.7017   3.7109   3.7156   3.7240   3.7306   3.7327   3.7446
  3.7662   3.7855   3.7965   3.8166   3.8243   3.8318   3.8360   3.8488
  3.8621   3.8654   3.8860   3.8935   3.9095   3.9307   3.9400   3.9572
  3.9620   3.9787   3.9921   4.0013   4.0214   4.0319   4.0564   4.0624
  4.0744   4.0837   4.0861   4.1149   4.1433   4.1684   4.1800   4.1868
  4.2168   4.2289   4.2474   4.2570   4.2897   4.3060   4.3276   4.3477
  4.3642   4.3749   4.3808   4.3849   4.3931   4.4253   4.4346   4.4596
  4.4725   4.4966   4.5040   4.5160   4.5470   4.5611   4.5799   4.5944
  4.6278   4.6380   4.6444   4.6474   4.6739   4.7003   4.7189   4.7279
  4.7607   4.7823   4.7969   4.8157   4.8225   4.8706   4.9085   4.9242
  4.9735   4.9976   5.0112   5.0196   5.0532   5.0703   5.1231   5.1425
  5.1795   5.1851   5.2026   5.2058   5.2537   5.2588   5.2996   5.3505
  5.3549   5.3668   5.3896   5.4310   5.4463   5.4728   5.4841   5.5337
  5.5656   5.5823   5.6167   5.6218   5.6367   5.7042   5.7512   5.7938
  5.8002   5.8302   5.8465   5.9136   5.9319   5.9689   5.9750   6.0149
  6.0716   6.1218   6.1332   6.1417   6.1849   6.3081   6.3496   6.4293
  6.4512   6.5051   6.5557   6.6552   6.6759   6.7326   6.7391   6.8593
  6.8800   6.9887   7.1779   7.2098   7.3255   7.3735   7.3759   7.4249
  7.4620   7.4871   7.5169   7.5474   7.6049   7.7712   7.8306   7.9030
  8.0033   8.1190   8.4155   8.9292   9.0067   9.3633   9.4919   9.6913
 10.2003  11.2061  11.8702  11.9255  12.2866  12.5926  13.0399  13.3742
 13.7557  14.0699  14.6322
 --------------------------------------------------------------
 
          Ground-State Mulliken Net Atomic Charges

     Atom                 Charge (a.u.)
  ----------------------------------------
      1 C                    -0.058758
      2 S                     0.101569
      3 C                    -0.203022
      4 C                    -0.058216
      5 C                    -0.022029
      6 C                     0.359440
      7 C                    -0.144577
      8 S                     0.048820
      9 C                     0.456446
     10 O                    -0.448089
     11 O                    -0.297629
     12 F                    -0.211098
     13 C                    -0.054611
     14 H                     0.116783
     15 H                     0.084629
     16 H                     0.084469
     17 C                    -0.394939
     18 H                     0.131020
     19 H                     0.158052
     20 H                     0.139996
     21 H                     0.211743
  ----------------------------------------
  Sum of atomic charges =     0.000000

 -----------------------------------------------------------------
                    Cartesian Multipole Moments
 -----------------------------------------------------------------
    Charge (ESU x 10^10)
                -0.0000
    Dipole Moment (Debye)
         X       2.6236      Y       1.1122      Z       2.8194
       Tot       4.0086
    Quadrupole Moments (Debye-Ang)
        XX     -90.2302     XY       6.6569     YY     -89.0168
        XZ      -8.2530     YZ      -7.0566     ZZ     -95.0861
    Octopole Moments (Debye-Ang^2)
       XXX    -186.6652    XXY     -38.0693    XYY     -59.8339
       YYY    -149.9060    XXZ      68.6645    XYZ      -6.8913
       YYZ      72.8272    XZZ       5.1914    YZZ       9.5988
       ZZZ     250.5644
    Hexadecapole Moments (Debye-Ang^3)
      XXXX   -1002.0665   XXXY    -378.0684   XXYY    -298.3252
      XYYY    -386.3057   YYYY    -936.2131   XXXZ     503.3425
      XXYZ     126.3730   XYYZ     145.7916   YYYZ     468.9817
      XXZZ    -656.3079   XYZZ      11.2051   YYZZ    -691.0722
      XZZZ     219.4971   YZZZ     221.8236   ZZZZ   -3762.8739
 -----------------------------------------------------------------
 Total job time:  56.12s(wall), 1989.28s(cpu) 
 Sun Sep 24 17:13:15 2023

        *************************************************************
        *                                                           *
        *  Thank you very much for using Q-Chem.  Have a nice day.  *
        *                                                           *
        *************************************************************


0 sent ACK to 0 
now end server 0 ... 
cleanup process ... done
remove work dirs ./qchem1283611.0 -- ./qchem1283611.0
rm -rf ./qchem1283611.0
rm -rf ./qchem1283611
