You are running Q-Chem version: 5.4.0

#
# job setting
#
local host:  exp-9-02
current dir: /expanse/lustre/projects/csd626/rramji/aromodel/PTB7_fin/Hydrogenated_Impropers_Test
input file:  fin_bdt_Phi_30_Theta_170_fin_ftt_Hydrogenated_Improper.qcin
output file: 
nprocs     : 1
nthreads   : 64
#
# qchem installation setting
#
QC:          /cm/shared/apps/spack/cpu/opt/spack/linux-centos8-zen2/gcc-10.2.0/qchem-5.4-akfmr7b3t57bfs6qan3padb2wnb2i7cl
QCAUX:       /cm/shared/apps/spack/cpu/opt/spack/linux-centos8-zen2/gcc-10.2.0/qchem-5.4-akfmr7b3t57bfs6qan3padb2wnb2i7cl/qcaux
QCPROG:      /cm/shared/apps/spack/cpu/opt/spack/linux-centos8-zen2/gcc-10.2.0/qchem-5.4-akfmr7b3t57bfs6qan3padb2wnb2i7cl/exe/qcprog.exe
QCPROG_S:    /cm/shared/apps/spack/cpu/opt/spack/linux-centos8-zen2/gcc-10.2.0/qchem-5.4-akfmr7b3t57bfs6qan3padb2wnb2i7cl/exe/qcprog.exe_s
PARALLEL:    -DPARALLEL
QCMPI:       mpich
#
# qchem directory setting
#
qcrun:       qchem638342
QCSCRATCH:   .
QCLOCALSCR:  
QCTMPDIR:    .
QCFILEPREF:  ./qchem638342
QCSAVEDIR:   
workdirs:    ./qchem638342
workdir0:    ./qchem638342
partmpdirs =  
#
# parallel setting
#
QCRSH:           ssh
QCMPI:           mpich
QCMPIRUN:        /cm/shared/apps/spack/cpu/opt/spack/linux-centos8-zen2/gcc-10.2.0/qchem-5.4-akfmr7b3t57bfs6qan3padb2wnb2i7cl/bin/mpi/mpirun_qchem
QCMACHINEFILE:   ./qchem638342/hostfile
exp-9-02

#
# env setting
#
exported envs:   QC QCAUX QCSCRATCH QCRUNNAME QCFILEPREF QCPROG QCPROG_S GUIFILE

Running Job 1 of 1 fin_bdt_Phi_30_Theta_170_fin_ftt_Hydrogenated_Improper.qcin
qchem fin_bdt_Phi_30_Theta_170_fin_ftt_Hydrogenated_Improper.qcin_638342.0 ./qchem638342/ 1
/cm/shared/apps/spack/cpu/opt/spack/linux-centos8-zen2/gcc-10.2.0/qchem-5.4-akfmr7b3t57bfs6qan3padb2wnb2i7cl/bin/mpi/mpirun_qchem -machinefile ./qchem638342/hostfile -np 1 /cm/shared/apps/spack/cpu/opt/spack/linux-centos8-zen2/gcc-10.2.0/qchem-5.4-akfmr7b3t57bfs6qan3padb2wnb2i7cl/exe/qcprog.exe fin_bdt_Phi_30_Theta_170_fin_ftt_Hydrogenated_Improper.qcin_638342.0 ./qchem638342/

Process 0 of 1 is on exp-9-02 - thread support 0
initial socket setup ...start
initial socket setup ...done 
now start server 0 ... 
                  Welcome to Q-Chem
     A Quantum Leap Into The Future Of Chemistry


 Q-Chem 5.4, Q-Chem, Inc., Pleasanton, CA (2021)

 License issued to: University of California, San Diego (site)

 E. Epifanovsky,  A. T. B. Gilbert,  Xintian Feng,  Joonho Lee,  Yuezhi Mao,  
 N. Mardirossian,  P. Pokhilko,  A. White,  M. Wormit,  M. P. Coons,  
 A. L. Dempwolff,  Zhengting Gan,  D. Hait,  P. R. Horn,  L. D. Jacobson,  
 I. Kaliman,  J. Kussmann,  A. W. Lange,  Ka Un Lao,  D. S. Levine,  Jie Liu,  
 S. C. McKenzie,  A. F. Morrison,  K. Nanda,  F. Plasser,  D. R. Rehn,  
 M. L. Vidal,  Zhi-Qiang You,  Ying Zhu,  B. Alam,  B. Albrecht,  
 A. Aldossary,  E. Alguire,  J. H. Andersen,  D. Barton,  K. Begam,  A. Behn,  
 Y. A. Bernard,  E. J. Berquist,  H. Burton,  A. Carreras,  K. Carter-Fenk,  
 R. Chakraborty,  A. D. Chien,  K. D. Closser,  V. Cofer-Shabica,  
 S. Dasgupta,  Jia Deng,  M. de Wergifosse,  M. Diedenhofen,  Hainam Do,  
 S. Ehlert,  Po-Tung Fang,  S. Fatehi,  Qingguo Feng,  J. Gayvert,  
 Qinghui Ge,  G. Gidofalvi,  M. Goldey,  J. Gomes,  C. Gonzalez-Espinoza,  
 S. Gulania,  A. Gunina,  M. W. D. Hanson-Heine,  P. H. P. Harbach,  
 A. W. Hauser,  M. F. Herbst,  M. Hernandez Vera,  M. Hodecker,  
 Z. C. Holden,  S. Houck,  Xunkun Huang,  Kerwin Hui,  B. C. Huynh,  
 M. Ivanov,  Hyunjun Ji,  Hanjie Jiang,  B. Kaduk,  S. Kaehler,  
 K. Khistyaev,  Jaehoon Kim,  P. Klunzinger,  Z. Koczor-Benda,  
 Joong Hoon Koh,  D. Kosenkov,  L. Koulias,  T. Kowalczyk,  C. M. Krauter,  
 K. Kue,  A. Kunitsa,  T. Kus,  A. Landau,  K. V. Lawler,  D. Lefrancois,  
 S. Lehtola,  Rain Li,  Yi-Pei Li,  Jiashu Liang,  M. Liebenthal,  
 Hung-Hsuan Lin,  You-Sheng Lin,  Fenglai Liu,  Kuan-Yu Liu,  
 M. Loipersberger,  A. Luenser,  A. Manjanath,  P. Manohar,  E. Mansoor,  
 S. F. Manzer,  Shan-Ping Mao,  A. V. Marenich,  T. Markovich,  S. Mason,  
 S. A. Maurer,  P. F. McLaughlin,  M. F. S. J. Menger,  J.-M. Mewes,  
 S. A. Mewes,  P. Morgante,  J. W. Mullinax,  T. S. Nguyen-Beck,  
 K. J. Oosterbaan,  G. Paran,  Alexander C. Paul,  Suranjan K. Paul,  
 F. Pavosevic,  Zheng Pei,  S. Prager,  E. I. Proynov,  E. Ramos,  B. Rana,  
 A. E. Rask,  A. Rettig,  R. M. Richard,  F. Rob,  E. Rossomme,  T. Scheele,  
 M. Scheurer,  M. Schneider,  N. Sergueev,  S. M. Sharada,  W. Skomorowski,  
 D. W. Small,  C. J. Stein,  Yu-Chuan Su,  E. J. Sundstrom,  Zhen Tao,  
 J. Thirman,  T. Tsuchimochi,  N. M. Tubman,  S. P. Veccham,  O. Vydrov,  
 J. Wenzel,  J. Witte,  A. Yamada,  Kun Yao,  S. Yeganeh,  S. R. Yost,  
 A. Zech,  Igor Ying Zhang,  Xing Zhang,  Yu Zhang,  D. Zuev,  
 A. Aspuru-Guzik,  A. T. Bell,  N. A. Besley,  K. B. Bravaya,  B. R. Brooks,  
 D. Casanova,  Jeng-Da Chai,  S. Coriani,  C. J. Cramer,  
 A. E. DePrince, III,  R. A. DiStasio Jr.,  A. Dreuw,  B. D. Dunietz,  
 T. R. Furlani,  W. A. Goddard III,  S. Grimme,  S. Hammes-Schiffer,  
 T. Head-Gordon,  W. J. Hehre,  Chao-Ping Hsu,  T.-C. Jagau,  Yousung Jung,  
 A. Klamt,  Jing Kong,  D. S. Lambrecht,  WanZhen Liang,  N. J. Mayhall,  
 C. W. McCurdy,  J. B. Neaton,  C. Ochsenfeld,  J. A. Parkhill,  R. Peverati,  
 V. A. Rassolov,  Yihan Shao,  L. V. Slipchenko,  T. Stauch,  R. P. Steele,  
 J. E. Subotnik,  A. J. W. Thom,  A. Tkatchenko,  D. G. Truhlar,  
 T. Van Voorhis,  T. A. Wesolowski,  K. B. Whaley,  H. L. Woodcock III,  
 P. M. Zimmerman,  S. Faraji,  P. M. W. Gill,  M. Head-Gordon,  
 J. M. Herbert,  A. I. Krylov

 Contributors to earlier versions of Q-Chem not listed above: 
 R. D. Adamson,  B. Austin,  R. Baer,  J. Baker,  G. J. O. Beran,  
 K. Brandhorst,  S. T. Brown,  E. F. C. Byrd,  A. K. Chakraborty,  
 G. K. L. Chan,  Chun-Min Chang,  Yunqing Chen,  C.-L. Cheng,  
 Siu Hung Chien,  D. M. Chipman,  D. L. Crittenden,  H. Dachsel,  
 R. J. Doerksen,  A. D. Dutoi,  R. G. Edgar,  J. Fosso-Tande,  
 L. Fusti-Molnar,  D. Ghosh,  A. Ghysels,  A. Golubeva-Zadorozhnaya,  
 J. Gonthier,  M. S. Gordon,  S. R. Gwaltney,  G. Hawkins,  J. E. Herr,  
 A. Heyden,  S. Hirata,  E. G. Hohenstein,  G. Kedziora,  F. J. Keil,  
 C. Kelley,  Jihan Kim,  R. A. King,  R. Z. Khaliullin,  P. P. Korambath,  
 W. Kurlancheek,  A. Laurent,  A. M. Lee,  M. S. Lee,  S. V. Levchenko,  
 Ching Yeh Lin,  D. Liotard,  E. Livshits,  R. C. Lochan,  I. Lotan,  
 L. A. Martinez-Martinez,  P. E. Maslen,  N. Nair,  D. P. O'Neill,  
 D. Neuhauser,  E. Neuscamman,  C. M. Oana,  R. Olivares-Amaya,  R. Olson,  
 T. M. Perrine,  B. Peters,  P. A. Pieniazek,  A. Prociuk,  Y. M. Rhee,  
 J. Ritchie,  M. A. Rohrdanz,  E. Rosta,  N. J. Russ,  H. F. Schaefer III,  
 M. W. Schmidt,  N. E. Schultz,  S. Sharma,  N. Shenvi,  C. D. Sherrill,  
 A. C. Simmonett,  A. Sodt,  T. Stein,  D. Stuck,  K. S. Thanthiriwatte,  
 V. Vanovschi,  L. Vogt,  Tao Wang,  A. Warshel,  M. A. Watson,  
 C. F. Williams,  Q. Wu,  X. Xu,  Jun Yang,  W. Zhang,  Yan Zhao

 Please cite Q-Chem as follows:
 Y. Shao et al., Mol. Phys. 113, 184-215 (2015)
 DOI: 10.1080/00268976.2014.952696

 Q-Chem 5.4.0 for Intel X86 EM64T Linux

 Parts of Q-Chem use Armadillo 9.800.1 (Horizon Scraper).
 http://arma.sourceforge.net/

 Q-Chem begins on Sun Sep 24 17:02:06 2023  

 Host: 
0

     Scratch files written to ./qchem638342//
 May1621 |scratch|qcdevops|jenkins|workspace|build_RNUM    
 Parallel job on  1  processors
 Processing $rem in /cm/shared/apps/spack/cpu/opt/spack/linux-centos8-zen2/gcc-10.2.0/qchem-5.4-akfmr7b3t57bfs6qan3padb2wnb2i7cl/config/preferences:
 Processing $rem in /home/rramji/.qchemrc:
 Symmetry turned off for PCM/SM12/SMD calculation
 Core orbitals will be frozen

 Checking the input file for inconsistencies... 	...done.

 Q-Chem warning in module forms1/BasisType.C, line 2236:

 You are not using the predefined 5D/6D in this basis set.


--------------------------------------------------------------
User input:
--------------------------------------------------------------
$molecule
0 1
C	-0.442540	-0.717327	1.022261
S	0.009060	0.060473	2.532961
C	0.795860	1.425273	1.749861
C	0.011560	0.069273	-0.042439
C	0.704660	1.272673	0.343961
C	-0.020240	0.010873	-1.463839
C	0.612060	1.106373	-2.084639
S	1.232960	2.188373	-0.943439
C	0.743360	1.324373	-3.537739
O	0.279160	0.514473	-4.328039
O	1.387760	2.434073	-3.982139
F	-0.573840	-0.955927	-2.224039
C	1.575960	2.739673	-5.312739
H	2.128960	3.696273	-5.348039
H	0.609660	2.847873	-5.853339
H	2.159360	1.952473	-5.839639
C	-0.442540	-2.152527	1.022261
H	-1.504640	-2.161527	1.218161
H	-0.588040	-2.836427	0.199161
H	-0.270740	-2.676927	1.950661
H	1.255860	2.221973	2.343761
$end

$rem
JOBTYPE		SP
EXCHANGE	HF
CORRELATION	pRIMP2
BASIS		cc-pvtz
METHOD		rimp2
AUX_BASIS	rimp2-cc-pvtz
SOLVENT_METHOD	PCM
PURECART	11111
SYMMETRY	false
MEM_TOTAL	110000
SCF_CONVERGENCE = 6
THRESH=10
GUI = 2
$end



$solvent
dielectric 4.90
$end
--------------------------------------------------------------
 ----------------------------------------------------------------
             Standard Nuclear Orientation (Angstroms)
    I     Atom           X                Y                Z
 ----------------------------------------------------------------
    1      C      -0.4425400000    -0.7173270000     1.0222610000
    2      S       0.0090600000     0.0604730000     2.5329610000
    3      C       0.7958600000     1.4252730000     1.7498610000
    4      C       0.0115600000     0.0692730000    -0.0424390000
    5      C       0.7046600000     1.2726730000     0.3439610000
    6      C      -0.0202400000     0.0108730000    -1.4638390000
    7      C       0.6120600000     1.1063730000    -2.0846390000
    8      S       1.2329600000     2.1883730000    -0.9434390000
    9      C       0.7433600000     1.3243730000    -3.5377390000
   10      O       0.2791600000     0.5144730000    -4.3280390000
   11      O       1.3877600000     2.4340730000    -3.9821390000
   12      F      -0.5738400000    -0.9559270000    -2.2240390000
   13      C       1.5759600000     2.7396730000    -5.3127390000
   14      H       2.1289600000     3.6962730000    -5.3480390000
   15      H       0.6096600000     2.8478730000    -5.8533390000
   16      H       2.1593600000     1.9524730000    -5.8396390000
   17      C      -0.4425400000    -2.1525270000     1.0222610000
   18      H      -1.5046400000    -2.1615270000     1.2181610000
   19      H      -0.5880400000    -2.8364270000     0.1991610000
   20      H      -0.2707400000    -2.6769270000     1.9506610000
   21      H       1.2558600000     2.2219730000     2.3437610000
 ----------------------------------------------------------------
 Nuclear Repulsion Energy =        1090.46012134 hartrees
 There are       59 alpha and       59 beta electrons
 Requested basis set is cc-pVTZ
 There are 186 shells and 526 basis functions

 Total QAlloc Memory Limit 110000 MB
 Mega-Array Size       188 MB
 MEM_STATIC part       192 MB
 Discretize the solute cavity surface with Lebedev spheres
	Using 110 Lebedev grid points for each H atom
	Using 194 Lebedev grid points for other atoms
	Atomic van der Waals radii will be scaled by 1.20
 Remove points where switching function is < 1.0e-08
 Keep 1560 surface tesserae and discard 1926 interior tesserae
 Molecular Surface Area = 241.563 Angst**2
 Requested basis set is rimp2-cc-pVTZ
 There are 410 shells and 1426 basis functions
 A cutoff of  1.0D-10 yielded  11545 shell pairs
 There are     90797 function pairs (    118914 Cartesian)
 Smallest overlap matrix eigenvalue = 5.92E-05

 Scale SEOQF with 1.000000e-01/1.000000e-01/1.000000e-02

 Standard Electronic Orientation quadrupole field applied
 Nucleus-field energy     =     0.0000000153 hartrees
 Guess from superposition of atomic densities
 Warning:  Energy on first SCF cycle will be non-variational
 SAD guess density has 118.000000 electrons

 -----------------------------------------------------------------------
  General SCF calculation program by
  Eric Jon Sundstrom, Paul Horn, Yuezhi Mao, Dmitri Zuev, Alec White,
  David Stuck, Shaama M.S., Shane Yost, Joonho Lee, David Small,
  Daniel Levine, Susi Lehtola, Hugh Burton, Evgeny Epifanovsky,
  Bang C. Huynh
 -----------------------------------------------------------------------
 Hartree-Fock
 using 64 threads for integral computing
 -------------------------------------------------------
 OpenMP Integral computing Module                
 Release: version 1.0, May 2013, Q-Chem Inc. Pittsburgh 
 -------------------------------------------------------
 A restricted SCF calculation will be
 performed using DIIS
 SCF converges when DIIS error is below 1.0e-06
 ---------------------------------------
  Cycle       Energy         DIIS error
 ---------------------------------------
    1   -1394.5722223048      2.53e-02  
    2   -1388.9928245269      2.50e-03  
    3   -1389.1649660401      1.57e-03  
    4   -1389.2260095780      3.47e-04  
    5   -1389.2316824145      1.11e-04  
    6   -1389.2323493272      3.64e-05  
    7   -1389.2324912580      1.80e-05  
    8   -1389.2325380266      7.23e-06  
    9   -1389.2325484317      3.31e-06  
   10   -1389.2325501850      1.31e-06  
   11   -1389.2325504820      5.08e-07  Convergence criterion met
 ---------------------------------------
 SCF time:   CPU 1675.60s  wall 49.00s 

************** Final PCM Free Energy Summary **************
 G_electrostatic  =      -0.01341017 hartree =      -8.41500886 kcal/mol
 G_cavitation     =       0.00000000 hartree =       0.00000000 kcal/mol
 G_dispersion     =       0.00000000 hartree =       0.00000000 kcal/mol
 G_repulsion      =       0.00000000 hartree =       0.00000000 kcal/mol
 --------------------------------------------------
 Non-electrostatic Free Energy =       0.00000000 hartree =       0.00000000 kcal/mol
 Total                         =      -0.01341017 hartree =      -8.41500886 kcal/mol
 --------------------------------------------------
 SCF Energy (H0 + V/2)                       =   -1389.23255048 
 Solute Internal Energy (H0)                 =   -1389.21914031 
 Total Free Energy (H0 + V/2 + non-elec)     =   -1389.23255048 hartree
                                             = -871756.58284891 kcal/mol
***********************************************************

 SCF   energy in the final basis set =    -1389.2325504820
 Total energy in the final basis set =    -1389.2325504820


 --------------------------------------------------------------
  Generalized many-body perturbation theory program
  by Joonho Lee, Fazle Rob, Xintian Feng, Evgeny Epifanovsky

 No regularization used 
 (reg. param. = 0.0000e+00)
  (P|Q)^-1/2 Time:  CPU 19.46 s  wall 0.31 s

 In RI-MP2 calculation: 
 # of frozen core orbitals: 22

 Components of the RIMP2 correlation energy:
        aaaa    correlation energy =        -0.3299624030 a.u.
        abab    correlation energy =        -1.8496749493 a.u.
        bbbb    correlation energy =        -0.3299624030 a.u.
        non-Brillouin singles      =        -0.0000000000 a.u.
        total same-spin energy     =        -0.6599248060 a.u.
        total opposite-spin energy =        -1.8496749493 a.u.

 Total  RIMP2   correlation energy =        -2.5095997552 a.u.
        RIMP2         total energy =     -1391.7421502372 a.u.

 RI-MP2 Energy Time:  CPU 171.51 s  wall 2.80 s
 
 --------------------------------------------------------------
 
                    Orbital Energies (a.u.)
 --------------------------------------------------------------
 
 Alpha MOs
 -- Occupied --
-92.0060 -91.9893 -26.3337 -20.6098 -20.5463 -11.4069 -11.3754 -11.3088
-11.2915 -11.2896 -11.2874 -11.2820 -11.2688 -11.2286  -9.0050  -8.9935
 -6.6858  -6.6851  -6.6847  -6.6747  -6.6741  -6.6727  -1.6466  -1.4693
 -1.3643  -1.2269  -1.1473  -1.0660  -1.0278  -1.0050  -0.9679  -0.9103
 -0.8633  -0.7960  -0.7845  -0.7669  -0.7259  -0.7146  -0.6950  -0.6767
 -0.6764  -0.6677  -0.6085  -0.6035  -0.5923  -0.5871  -0.5848  -0.5584
 -0.5307  -0.5244  -0.5183  -0.4945  -0.4795  -0.4602  -0.4575  -0.4545
 -0.3867  -0.3460  -0.2726
 -- Virtual --
  0.0349   0.1179   0.1350   0.1556   0.1592   0.1714   0.1913   0.1967
  0.2022   0.2120   0.2162   0.2207   0.2311   0.2402   0.2623   0.2703
  0.2869   0.3081   0.3154   0.3329   0.3436   0.3607   0.3708   0.3772
  0.3819   0.3931   0.4052   0.4092   0.4189   0.4329   0.4336   0.4383
  0.4555   0.4682   0.4795   0.4832   0.4933   0.5029   0.5071   0.5350
  0.5382   0.5471   0.5527   0.5557   0.5622   0.5670   0.5793   0.5832
  0.5935   0.5981   0.6023   0.6038   0.6152   0.6183   0.6215   0.6332
  0.6424   0.6461   0.6486   0.6563   0.6777   0.6859   0.6970   0.7020
  0.7109   0.7168   0.7364   0.7537   0.7723   0.7843   0.7888   0.7952
  0.8054   0.8118   0.8228   0.8481   0.8552   0.8636   0.8784   0.8939
  0.8972   0.9147   0.9193   0.9276   0.9360   0.9468   0.9622   0.9760
  0.9942   0.9996   1.0038   1.0165   1.0249   1.0376   1.0483   1.0531
  1.0627   1.0718   1.0807   1.0902   1.1032   1.1062   1.1187   1.1221
  1.1469   1.1534   1.1607   1.1683   1.1714   1.1780   1.1892   1.2085
  1.2197   1.2262   1.2432   1.2593   1.2715   1.2971   1.3018   1.3175
  1.3400   1.3407   1.3452   1.3518   1.3687   1.3828   1.3888   1.4032
  1.4228   1.4320   1.4578   1.4689   1.4755   1.4853   1.4970   1.5038
  1.5131   1.5154   1.5280   1.5421   1.5597   1.5687   1.5877   1.6020
  1.6278   1.6368   1.6518   1.6628   1.6707   1.7031   1.7122   1.7212
  1.7555   1.7651   1.7921   1.8171   1.8189   1.8361   1.8450   1.8505
  1.8708   1.8817   1.8884   1.9273   1.9330   1.9433   1.9602   1.9650
  2.0023   2.0221   2.0279   2.0476   2.0531   2.1006   2.1075   2.1269
  2.1422   2.1532   2.1604   2.1743   2.1978   2.2082   2.2205   2.2312
  2.2459   2.2628   2.2705   2.2815   2.2908   2.2991   2.3216   2.3406
  2.3648   2.3799   2.3943   2.4138   2.4382   2.4623   2.4900   2.5117
  2.5308   2.5512   2.5627   2.5843   2.5864   2.6000   2.6283   2.6403
  2.6463   2.6591   2.6754   2.6900   2.6955   2.7019   2.7092   2.7196
  2.7396   2.7464   2.7605   2.7668   2.7827   2.8032   2.8204   2.8302
  2.8518   2.8696   2.8868   2.8896   2.9035   2.9396   2.9506   2.9712
  2.9837   2.9928   3.0110   3.0276   3.0433   3.0458   3.0472   3.0678
  3.0765   3.0908   3.0979   3.1021   3.1249   3.1426   3.1515   3.1605
  3.1678   3.1875   3.2025   3.2093   3.2120   3.2177   3.2355   3.2492
  3.2610   3.2716   3.2808   3.2843   3.2927   3.2972   3.3123   3.3191
  3.3405   3.3422   3.3648   3.3680   3.3763   3.3816   3.4008   3.4117
  3.4286   3.4399   3.4473   3.4496   3.4649   3.4704   3.4892   3.4953
  3.5074   3.5175   3.5346   3.5358   3.5623   3.5752   3.5834   3.5921
  3.5955   3.6047   3.6240   3.6279   3.6443   3.6560   3.6647   3.6775
  3.6896   3.6987   3.7101   3.7175   3.7244   3.7290   3.7356   3.7440
  3.7657   3.7766   3.7861   3.7998   3.8165   3.8280   3.8350   3.8417
  3.8563   3.8672   3.8721   3.9023   3.9130   3.9167   3.9351   3.9570
  3.9628   3.9773   3.9846   4.0011   4.0207   4.0232   4.0431   4.0589
  4.0626   4.0899   4.0959   4.1116   4.1435   4.1571   4.1723   4.1793
  4.1883   4.2084   4.2580   4.2662   4.2839   4.3068   4.3114   4.3234
  4.3491   4.3736   4.3787   4.3834   4.3943   4.4131   4.4159   4.4361
  4.4563   4.4783   4.5036   4.5220   4.5330   4.5483   4.5678   4.5930
  4.6376   4.6383   4.6463   4.6613   4.6723   4.6815   4.6945   4.7307
  4.7611   4.7711   4.7799   4.8074   4.8363   4.9024   4.9156   4.9321
  4.9792   4.9932   5.0134   5.0247   5.0712   5.1063   5.1163   5.1203
  5.1900   5.2031   5.2208   5.2304   5.2569   5.2604   5.2888   5.3493
  5.3565   5.3608   5.4101   5.4294   5.4742   5.4782   5.4823   5.5324
  5.5594   5.5899   5.6001   5.6208   5.6420   5.7100   5.7297   5.8030
  5.8153   5.8412   5.8435   5.8739   5.9500   5.9706   5.9729   6.0130
  6.0465   6.1258   6.1352   6.1866   6.2322   6.3106   6.3640   6.3986
  6.4762   6.5136   6.5590   6.6613   6.6797   6.7377   6.7404   6.8636
  6.8836   6.9937   7.1808   7.2126   7.3296   7.3732   7.3759   7.4298
  7.4648   7.4872   7.5190   7.5514   7.6078   7.7712   7.8338   7.9047
  8.0022   8.1194   8.3861   8.9279   9.0073   9.3636   9.4965   9.6864
 10.1476  11.2218  11.5934  11.9324  12.2737  12.6389  13.1312  13.4629
 13.7916  14.0717  14.4601
 --------------------------------------------------------------
 
          Ground-State Mulliken Net Atomic Charges

     Atom                 Charge (a.u.)
  ----------------------------------------
      1 C                     0.005652
      2 S                     0.088956
      3 C                    -0.256863
      4 C                    -0.077499
      5 C                    -0.011516
      6 C                     0.374406
      7 C                    -0.164882
      8 S                     0.029840
      9 C                     0.457067
     10 O                    -0.456348
     11 O                    -0.298771
     12 F                    -0.211743
     13 C                    -0.054869
     14 H                     0.116104
     15 H                     0.083721
     16 H                     0.083719
     17 C                    -0.378014
     18 H                     0.141413
     19 H                     0.168146
     20 H                     0.150471
     21 H                     0.211009
  ----------------------------------------
  Sum of atomic charges =     0.000000

 -----------------------------------------------------------------
                    Cartesian Multipole Moments
 -----------------------------------------------------------------
    Charge (ESU x 10^10)
                -0.0000
    Dipole Moment (Debye)
         X       0.6254      Y       0.4739      Z       3.7697
       Tot       3.8505
    Quadrupole Moments (Debye-Ang)
        XX     -93.7555     XY       6.1418     YY     -84.7761
        XZ      -5.9002     YZ     -10.8718     ZZ     -95.9211
    Octopole Moments (Debye-Ang^2)
       XXX    -130.7327    XXY     -65.4392    XYY     -37.2719
       YYY    -207.4263    XXZ      74.7261    XYZ      -6.3848
       YYZ      70.3409    XZZ       1.3322    YZZ       4.4204
       ZZZ     259.8380
    Hexadecapole Moments (Debye-Ang^3)
      XXXX    -512.8907   XXXY    -352.7394   XXYY    -314.7881
      XYYY    -305.1216   YYYY   -1430.9371   XXXZ     346.2764
      XXYZ     197.5377   XYYZ      80.1522   YYYZ     583.6841
      XXZZ    -673.5914   XYZZ       7.4833   YYZZ    -684.6176
      XZZZ     151.3061   YZZZ     292.5397   ZZZZ   -3802.8199
 -----------------------------------------------------------------
 Total job time:  53.67s(wall), 1906.68s(cpu) 
 Sun Sep 24 17:03:00 2023

        *************************************************************
        *                                                           *
        *  Thank you very much for using Q-Chem.  Have a nice day.  *
        *                                                           *
        *************************************************************


0 sent ACK to 0 
now end server 0 ... 
cleanup process ... done
remove work dirs ./qchem638342.0 -- ./qchem638342.0
rm -rf ./qchem638342.0
rm -rf ./qchem638342
