You are running Q-Chem version: 5.4.0

#
# job setting
#
local host:  exp-8-18
current dir: /expanse/lustre/projects/csd626/rramji/aromodel/PTB7_fin/Hydrogenated_Impropers_Test
input file:  fin_bdt_Phi_5_Theta_70_fin_ftt_Hydrogenated_Improper.qcin
output file: 
nprocs     : 1
nthreads   : 64
#
# qchem installation setting
#
QC:          /cm/shared/apps/spack/cpu/opt/spack/linux-centos8-zen2/gcc-10.2.0/qchem-5.4-akfmr7b3t57bfs6qan3padb2wnb2i7cl
QCAUX:       /cm/shared/apps/spack/cpu/opt/spack/linux-centos8-zen2/gcc-10.2.0/qchem-5.4-akfmr7b3t57bfs6qan3padb2wnb2i7cl/qcaux
QCPROG:      /cm/shared/apps/spack/cpu/opt/spack/linux-centos8-zen2/gcc-10.2.0/qchem-5.4-akfmr7b3t57bfs6qan3padb2wnb2i7cl/exe/qcprog.exe
QCPROG_S:    /cm/shared/apps/spack/cpu/opt/spack/linux-centos8-zen2/gcc-10.2.0/qchem-5.4-akfmr7b3t57bfs6qan3padb2wnb2i7cl/exe/qcprog.exe_s
PARALLEL:    -DPARALLEL
QCMPI:       mpich
#
# qchem directory setting
#
qcrun:       qchem1177172
QCSCRATCH:   .
QCLOCALSCR:  
QCTMPDIR:    .
QCFILEPREF:  ./qchem1177172
QCSAVEDIR:   
workdirs:    ./qchem1177172
workdir0:    ./qchem1177172
partmpdirs =  
#
# parallel setting
#
QCRSH:           ssh
QCMPI:           mpich
QCMPIRUN:        /cm/shared/apps/spack/cpu/opt/spack/linux-centos8-zen2/gcc-10.2.0/qchem-5.4-akfmr7b3t57bfs6qan3padb2wnb2i7cl/bin/mpi/mpirun_qchem
QCMACHINEFILE:   ./qchem1177172/hostfile
exp-8-18

#
# env setting
#
exported envs:   QC QCAUX QCSCRATCH QCRUNNAME QCFILEPREF QCPROG QCPROG_S GUIFILE

Running Job 1 of 1 fin_bdt_Phi_5_Theta_70_fin_ftt_Hydrogenated_Improper.qcin
qchem fin_bdt_Phi_5_Theta_70_fin_ftt_Hydrogenated_Improper.qcin_1177172.0 ./qchem1177172/ 1
/cm/shared/apps/spack/cpu/opt/spack/linux-centos8-zen2/gcc-10.2.0/qchem-5.4-akfmr7b3t57bfs6qan3padb2wnb2i7cl/bin/mpi/mpirun_qchem -machinefile ./qchem1177172/hostfile -np 1 /cm/shared/apps/spack/cpu/opt/spack/linux-centos8-zen2/gcc-10.2.0/qchem-5.4-akfmr7b3t57bfs6qan3padb2wnb2i7cl/exe/qcprog.exe fin_bdt_Phi_5_Theta_70_fin_ftt_Hydrogenated_Improper.qcin_1177172.0 ./qchem1177172/

Process 0 of 1 is on exp-8-18 - thread support 0
initial socket setup ...start
initial socket setup ...done 
now start server 0 ... 
                  Welcome to Q-Chem
     A Quantum Leap Into The Future Of Chemistry


 Q-Chem 5.4, Q-Chem, Inc., Pleasanton, CA (2021)

 License issued to: University of California, San Diego (site)

 E. Epifanovsky,  A. T. B. Gilbert,  Xintian Feng,  Joonho Lee,  Yuezhi Mao,  
 N. Mardirossian,  P. Pokhilko,  A. White,  M. Wormit,  M. P. Coons,  
 A. L. Dempwolff,  Zhengting Gan,  D. Hait,  P. R. Horn,  L. D. Jacobson,  
 I. Kaliman,  J. Kussmann,  A. W. Lange,  Ka Un Lao,  D. S. Levine,  Jie Liu,  
 S. C. McKenzie,  A. F. Morrison,  K. Nanda,  F. Plasser,  D. R. Rehn,  
 M. L. Vidal,  Zhi-Qiang You,  Ying Zhu,  B. Alam,  B. Albrecht,  
 A. Aldossary,  E. Alguire,  J. H. Andersen,  D. Barton,  K. Begam,  A. Behn,  
 Y. A. Bernard,  E. J. Berquist,  H. Burton,  A. Carreras,  K. Carter-Fenk,  
 R. Chakraborty,  A. D. Chien,  K. D. Closser,  V. Cofer-Shabica,  
 S. Dasgupta,  Jia Deng,  M. de Wergifosse,  M. Diedenhofen,  Hainam Do,  
 S. Ehlert,  Po-Tung Fang,  S. Fatehi,  Qingguo Feng,  J. Gayvert,  
 Qinghui Ge,  G. Gidofalvi,  M. Goldey,  J. Gomes,  C. Gonzalez-Espinoza,  
 S. Gulania,  A. Gunina,  M. W. D. Hanson-Heine,  P. H. P. Harbach,  
 A. W. Hauser,  M. F. Herbst,  M. Hernandez Vera,  M. Hodecker,  
 Z. C. Holden,  S. Houck,  Xunkun Huang,  Kerwin Hui,  B. C. Huynh,  
 M. Ivanov,  Hyunjun Ji,  Hanjie Jiang,  B. Kaduk,  S. Kaehler,  
 K. Khistyaev,  Jaehoon Kim,  P. Klunzinger,  Z. Koczor-Benda,  
 Joong Hoon Koh,  D. Kosenkov,  L. Koulias,  T. Kowalczyk,  C. M. Krauter,  
 K. Kue,  A. Kunitsa,  T. Kus,  A. Landau,  K. V. Lawler,  D. Lefrancois,  
 S. Lehtola,  Rain Li,  Yi-Pei Li,  Jiashu Liang,  M. Liebenthal,  
 Hung-Hsuan Lin,  You-Sheng Lin,  Fenglai Liu,  Kuan-Yu Liu,  
 M. Loipersberger,  A. Luenser,  A. Manjanath,  P. Manohar,  E. Mansoor,  
 S. F. Manzer,  Shan-Ping Mao,  A. V. Marenich,  T. Markovich,  S. Mason,  
 S. A. Maurer,  P. F. McLaughlin,  M. F. S. J. Menger,  J.-M. Mewes,  
 S. A. Mewes,  P. Morgante,  J. W. Mullinax,  T. S. Nguyen-Beck,  
 K. J. Oosterbaan,  G. Paran,  Alexander C. Paul,  Suranjan K. Paul,  
 F. Pavosevic,  Zheng Pei,  S. Prager,  E. I. Proynov,  E. Ramos,  B. Rana,  
 A. E. Rask,  A. Rettig,  R. M. Richard,  F. Rob,  E. Rossomme,  T. Scheele,  
 M. Scheurer,  M. Schneider,  N. Sergueev,  S. M. Sharada,  W. Skomorowski,  
 D. W. Small,  C. J. Stein,  Yu-Chuan Su,  E. J. Sundstrom,  Zhen Tao,  
 J. Thirman,  T. Tsuchimochi,  N. M. Tubman,  S. P. Veccham,  O. Vydrov,  
 J. Wenzel,  J. Witte,  A. Yamada,  Kun Yao,  S. Yeganeh,  S. R. Yost,  
 A. Zech,  Igor Ying Zhang,  Xing Zhang,  Yu Zhang,  D. Zuev,  
 A. Aspuru-Guzik,  A. T. Bell,  N. A. Besley,  K. B. Bravaya,  B. R. Brooks,  
 D. Casanova,  Jeng-Da Chai,  S. Coriani,  C. J. Cramer,  
 A. E. DePrince, III,  R. A. DiStasio Jr.,  A. Dreuw,  B. D. Dunietz,  
 T. R. Furlani,  W. A. Goddard III,  S. Grimme,  S. Hammes-Schiffer,  
 T. Head-Gordon,  W. J. Hehre,  Chao-Ping Hsu,  T.-C. Jagau,  Yousung Jung,  
 A. Klamt,  Jing Kong,  D. S. Lambrecht,  WanZhen Liang,  N. J. Mayhall,  
 C. W. McCurdy,  J. B. Neaton,  C. Ochsenfeld,  J. A. Parkhill,  R. Peverati,  
 V. A. Rassolov,  Yihan Shao,  L. V. Slipchenko,  T. Stauch,  R. P. Steele,  
 J. E. Subotnik,  A. J. W. Thom,  A. Tkatchenko,  D. G. Truhlar,  
 T. Van Voorhis,  T. A. Wesolowski,  K. B. Whaley,  H. L. Woodcock III,  
 P. M. Zimmerman,  S. Faraji,  P. M. W. Gill,  M. Head-Gordon,  
 J. M. Herbert,  A. I. Krylov

 Contributors to earlier versions of Q-Chem not listed above: 
 R. D. Adamson,  B. Austin,  R. Baer,  J. Baker,  G. J. O. Beran,  
 K. Brandhorst,  S. T. Brown,  E. F. C. Byrd,  A. K. Chakraborty,  
 G. K. L. Chan,  Chun-Min Chang,  Yunqing Chen,  C.-L. Cheng,  
 Siu Hung Chien,  D. M. Chipman,  D. L. Crittenden,  H. Dachsel,  
 R. J. Doerksen,  A. D. Dutoi,  R. G. Edgar,  J. Fosso-Tande,  
 L. Fusti-Molnar,  D. Ghosh,  A. Ghysels,  A. Golubeva-Zadorozhnaya,  
 J. Gonthier,  M. S. Gordon,  S. R. Gwaltney,  G. Hawkins,  J. E. Herr,  
 A. Heyden,  S. Hirata,  E. G. Hohenstein,  G. Kedziora,  F. J. Keil,  
 C. Kelley,  Jihan Kim,  R. A. King,  R. Z. Khaliullin,  P. P. Korambath,  
 W. Kurlancheek,  A. Laurent,  A. M. Lee,  M. S. Lee,  S. V. Levchenko,  
 Ching Yeh Lin,  D. Liotard,  E. Livshits,  R. C. Lochan,  I. Lotan,  
 L. A. Martinez-Martinez,  P. E. Maslen,  N. Nair,  D. P. O'Neill,  
 D. Neuhauser,  E. Neuscamman,  C. M. Oana,  R. Olivares-Amaya,  R. Olson,  
 T. M. Perrine,  B. Peters,  P. A. Pieniazek,  A. Prociuk,  Y. M. Rhee,  
 J. Ritchie,  M. A. Rohrdanz,  E. Rosta,  N. J. Russ,  H. F. Schaefer III,  
 M. W. Schmidt,  N. E. Schultz,  S. Sharma,  N. Shenvi,  C. D. Sherrill,  
 A. C. Simmonett,  A. Sodt,  T. Stein,  D. Stuck,  K. S. Thanthiriwatte,  
 V. Vanovschi,  L. Vogt,  Tao Wang,  A. Warshel,  M. A. Watson,  
 C. F. Williams,  Q. Wu,  X. Xu,  Jun Yang,  W. Zhang,  Yan Zhao

 Please cite Q-Chem as follows:
 Y. Shao et al., Mol. Phys. 113, 184-215 (2015)
 DOI: 10.1080/00268976.2014.952696

 Q-Chem 5.4.0 for Intel X86 EM64T Linux

 Parts of Q-Chem use Armadillo 9.800.1 (Horizon Scraper).
 http://arma.sourceforge.net/

 Q-Chem begins on Tue Sep 26 17:50:20 2023  

 Host: 
0

     Scratch files written to ./qchem1177172//
 May1621 |scratch|qcdevops|jenkins|workspace|build_RNUM    
 Parallel job on  1  processors
 Processing $rem in /cm/shared/apps/spack/cpu/opt/spack/linux-centos8-zen2/gcc-10.2.0/qchem-5.4-akfmr7b3t57bfs6qan3padb2wnb2i7cl/config/preferences:
 Processing $rem in /home/rramji/.qchemrc:
 Symmetry turned off for PCM/SM12/SMD calculation
 Core orbitals will be frozen

 Checking the input file for inconsistencies... 	...done.

 Q-Chem warning in module forms1/BasisType.C, line 2236:

 You are not using the predefined 5D/6D in this basis set.


--------------------------------------------------------------
User input:
--------------------------------------------------------------
$molecule
0 1
C	-0.080090	-0.833466	1.020802
S	0.000510	0.062334	2.531502
C	0.136710	1.631734	1.748402
C	-0.000990	0.071334	-0.043898
C	0.118610	1.454934	0.342502
C	-0.005090	0.005034	-1.465298
C	0.105010	1.265034	-2.086098
S	0.210410	2.508134	-0.944898
C	0.131810	1.518134	-3.539198
O	0.053410	0.587934	-4.329498
O	0.246910	2.796134	-3.983598
F	-0.098290	-1.105166	-2.225498
C	0.288310	3.152634	-5.314198
H	0.385210	4.253334	-5.349498
H	-0.633190	2.842434	-5.854798
H	1.149810	2.685834	-5.841098
C	-0.080090	-2.268666	1.020802
H	0.297210	-2.277666	2.032702
H	-0.865390	-2.952566	1.307002
H	0.804310	-2.793066	0.690402
H	0.217010	2.548234	2.342302
$end

$rem
JOBTYPE		SP
EXCHANGE	HF
CORRELATION	pRIMP2
BASIS		cc-pvtz
METHOD		rimp2
AUX_BASIS	rimp2-cc-pvtz
SOLVENT_METHOD	PCM
PURECART	11111
SYMMETRY	false
MEM_TOTAL	110000
SCF_CONVERGENCE = 6
THRESH=10
GUI = 2
$end



$solvent
dielectric 4.90
$end
--------------------------------------------------------------
 ----------------------------------------------------------------
             Standard Nuclear Orientation (Angstroms)
    I     Atom           X                Y                Z
 ----------------------------------------------------------------
    1      C      -0.0800900000    -0.8334660000     1.0208020000
    2      S       0.0005100000     0.0623340000     2.5315020000
    3      C       0.1367100000     1.6317340000     1.7484020000
    4      C      -0.0009900000     0.0713340000    -0.0438980000
    5      C       0.1186100000     1.4549340000     0.3425020000
    6      C      -0.0050900000     0.0050340000    -1.4652980000
    7      C       0.1050100000     1.2650340000    -2.0860980000
    8      S       0.2104100000     2.5081340000    -0.9448980000
    9      C       0.1318100000     1.5181340000    -3.5391980000
   10      O       0.0534100000     0.5879340000    -4.3294980000
   11      O       0.2469100000     2.7961340000    -3.9835980000
   12      F      -0.0982900000    -1.1051660000    -2.2254980000
   13      C       0.2883100000     3.1526340000    -5.3141980000
   14      H       0.3852100000     4.2533340000    -5.3494980000
   15      H      -0.6331900000     2.8424340000    -5.8547980000
   16      H       1.1498100000     2.6858340000    -5.8410980000
   17      C      -0.0800900000    -2.2686660000     1.0208020000
   18      H       0.2972100000    -2.2776660000     2.0327020000
   19      H      -0.8653900000    -2.9525660000     1.3070020000
   20      H       0.8043100000    -2.7930660000     0.6904020000
   21      H       0.2170100000     2.5482340000     2.3423020000
 ----------------------------------------------------------------
 Nuclear Repulsion Energy =        1088.55056679 hartrees
 There are       59 alpha and       59 beta electrons
 Requested basis set is cc-pVTZ
 There are 186 shells and 526 basis functions

 Total QAlloc Memory Limit 110000 MB
 Mega-Array Size       188 MB
 MEM_STATIC part       192 MB
 Discretize the solute cavity surface with Lebedev spheres
	Using 110 Lebedev grid points for each H atom
	Using 194 Lebedev grid points for other atoms
	Atomic van der Waals radii will be scaled by 1.20
 Remove points where switching function is < 1.0e-08
 Keep 1572 surface tesserae and discard 1914 interior tesserae
 Molecular Surface Area = 242.054 Angst**2
 Requested basis set is rimp2-cc-pVTZ
 There are 410 shells and 1426 basis functions
 A cutoff of  1.0D-10 yielded  11504 shell pairs
 There are     90374 function pairs (    118338 Cartesian)
 Smallest overlap matrix eigenvalue = 5.61E-05

 Scale SEOQF with 1.000000e+00/1.000000e-01/1.000000e-02

 Standard Electronic Orientation quadrupole field applied
 Nucleus-field energy     =     0.0000000203 hartrees
 Guess from superposition of atomic densities
 Warning:  Energy on first SCF cycle will be non-variational
 SAD guess density has 118.000000 electrons

 -----------------------------------------------------------------------
  General SCF calculation program by
  Eric Jon Sundstrom, Paul Horn, Yuezhi Mao, Dmitri Zuev, Alec White,
  David Stuck, Shaama M.S., Shane Yost, Joonho Lee, David Small,
  Daniel Levine, Susi Lehtola, Hugh Burton, Evgeny Epifanovsky,
  Bang C. Huynh
 -----------------------------------------------------------------------
 Hartree-Fock
 using 64 threads for integral computing
 -------------------------------------------------------
 OpenMP Integral computing Module                
 Release: version 1.0, May 2013, Q-Chem Inc. Pittsburgh 
 -------------------------------------------------------
 A restricted SCF calculation will be
 performed using DIIS
 SCF converges when DIIS error is below 1.0e-06
 ---------------------------------------
  Cycle       Energy         DIIS error
 ---------------------------------------
    1   -1394.5702264692      2.53e-02  
    2   -1389.0119160421      2.50e-03  
    3   -1389.1845322664      1.57e-03  
    4   -1389.2456962506      3.48e-04  
    5   -1389.2513617215      1.10e-04  
    6   -1389.2520265541      3.64e-05  
    7   -1389.2521680914      1.81e-05  
    8   -1389.2522154768      7.25e-06  
    9   -1389.2522259322      3.26e-06  
   10   -1389.2522275872      1.25e-06  
   11   -1389.2522278377      4.76e-07  Convergence criterion met
 ---------------------------------------
 SCF time:   CPU 1692.73s  wall 49.00s 

************** Final PCM Free Energy Summary **************
 G_electrostatic  =      -0.01343435 hartree =      -8.43018357 kcal/mol
 G_cavitation     =       0.00000000 hartree =       0.00000000 kcal/mol
 G_dispersion     =       0.00000000 hartree =       0.00000000 kcal/mol
 G_repulsion      =       0.00000000 hartree =       0.00000000 kcal/mol
 --------------------------------------------------
 Non-electrostatic Free Energy =       0.00000000 hartree =       0.00000000 kcal/mol
 Total                         =      -0.01343435 hartree =      -8.43018357 kcal/mol
 --------------------------------------------------
 SCF Energy (H0 + V/2)                       =   -1389.25222784 
 Solute Internal Energy (H0)                 =   -1389.23879348 
 Total Free Energy (H0 + V/2 + non-elec)     =   -1389.25222784 hartree
                                             = -871768.93057601 kcal/mol
***********************************************************

 SCF   energy in the final basis set =    -1389.2522278377
 Total energy in the final basis set =    -1389.2522278377


 --------------------------------------------------------------
  Generalized many-body perturbation theory program
  by Joonho Lee, Fazle Rob, Xintian Feng, Evgeny Epifanovsky

 No regularization used 
 (reg. param. = 0.0000e+00)
  (P|Q)^-1/2 Time:  CPU 21.53 s  wall 0.34 s

 In RI-MP2 calculation: 
 # of frozen core orbitals: 22

 Components of the RIMP2 correlation energy:
        aaaa    correlation energy =        -0.3293148569 a.u.
        abab    correlation energy =        -1.8471471443 a.u.
        bbbb    correlation energy =        -0.3293148569 a.u.
        non-Brillouin singles      =        -0.0000000000 a.u.
        total same-spin energy     =        -0.6586297138 a.u.
        total opposite-spin energy =        -1.8471471443 a.u.

 Total  RIMP2   correlation energy =        -2.5057768581 a.u.
        RIMP2         total energy =     -1391.7580046958 a.u.

 RI-MP2 Energy Time:  CPU 172.52 s  wall 2.97 s
 
 --------------------------------------------------------------
 
                    Orbital Energies (a.u.)
 --------------------------------------------------------------
 
 Alpha MOs
 -- Occupied --
-92.0088 -91.9896 -26.3330 -20.6103 -20.5471 -11.4076 -11.3752 -11.3087
-11.2914 -11.2912 -11.2875 -11.2831 -11.2691 -11.2289  -9.0075  -8.9938
 -6.6883  -6.6877  -6.6872  -6.6751  -6.6744  -6.6731  -1.6459  -1.4698
 -1.3649  -1.2267  -1.1468  -1.0652  -1.0296  -1.0054  -0.9684  -0.9100
 -0.8642  -0.7966  -0.7840  -0.7676  -0.7262  -0.7139  -0.6956  -0.6770
 -0.6762  -0.6678  -0.6090  -0.6041  -0.5976  -0.5871  -0.5762  -0.5669
 -0.5437  -0.5247  -0.5054  -0.4808  -0.4777  -0.4623  -0.4596  -0.4575
 -0.3956  -0.3462  -0.2811
 -- Virtual --
  0.0384   0.1192   0.1308   0.1555   0.1598   0.1674   0.1901   0.1940
  0.2093   0.2202   0.2220   0.2319   0.2355   0.2550   0.2651   0.2678
  0.2820   0.3068   0.3139   0.3325   0.3491   0.3635   0.3703   0.3773
  0.3810   0.3890   0.3954   0.4107   0.4180   0.4331   0.4359   0.4441
  0.4619   0.4691   0.4760   0.4844   0.5004   0.5065   0.5135   0.5337
  0.5375   0.5406   0.5470   0.5557   0.5584   0.5673   0.5763   0.5860
  0.5914   0.5963   0.6102   0.6121   0.6168   0.6225   0.6258   0.6271
  0.6405   0.6460   0.6516   0.6638   0.6744   0.6849   0.6961   0.7074
  0.7096   0.7147   0.7426   0.7571   0.7694   0.7860   0.7902   0.7930
  0.8059   0.8107   0.8238   0.8370   0.8554   0.8788   0.8818   0.8956
  0.9052   0.9096   0.9187   0.9267   0.9409   0.9510   0.9665   0.9737
  0.9795   0.9914   0.9981   1.0124   1.0251   1.0338   1.0431   1.0621
  1.0632   1.0797   1.0864   1.0920   1.1015   1.1034   1.1156   1.1328
  1.1495   1.1567   1.1579   1.1679   1.1776   1.1933   1.2052   1.2102
  1.2245   1.2305   1.2496   1.2571   1.2631   1.2800   1.2974   1.3108
  1.3224   1.3333   1.3441   1.3585   1.3735   1.3842   1.3890   1.4058
  1.4222   1.4308   1.4510   1.4653   1.4767   1.4955   1.5032   1.5118
  1.5144   1.5151   1.5486   1.5524   1.5618   1.5693   1.5859   1.6126
  1.6156   1.6374   1.6617   1.6731   1.6791   1.7116   1.7189   1.7342
  1.7483   1.7624   1.7871   1.8128   1.8259   1.8349   1.8439   1.8521
  1.8704   1.8723   1.8865   1.9136   1.9340   1.9366   1.9457   1.9549
  2.0080   2.0225   2.0325   2.0380   2.0538   2.0949   2.1082   2.1295
  2.1434   2.1562   2.1654   2.1718   2.1976   2.2102   2.2211   2.2417
  2.2540   2.2782   2.2816   2.2902   2.2927   2.3183   2.3306   2.3344
  2.3694   2.3848   2.4133   2.4252   2.4631   2.4789   2.4816   2.4899
  2.5304   2.5583   2.5717   2.5803   2.5913   2.6177   2.6347   2.6373
  2.6538   2.6618   2.6730   2.6870   2.6951   2.7079   2.7219   2.7341
  2.7348   2.7479   2.7705   2.7723   2.7882   2.8023   2.8156   2.8249
  2.8471   2.8561   2.8742   2.8925   2.9093   2.9153   2.9241   2.9514
  2.9609   2.9898   3.0086   3.0208   3.0439   3.0453   3.0664   3.0747
  3.0857   3.0934   3.1026   3.1166   3.1263   3.1391   3.1403   3.1600
  3.1713   3.1813   3.1993   3.2059   3.2146   3.2291   3.2450   3.2578
  3.2637   3.2704   3.2756   3.2847   3.2915   3.3041   3.3123   3.3248
  3.3354   3.3525   3.3591   3.3635   3.3713   3.3848   3.3947   3.4006
  3.4292   3.4372   3.4458   3.4544   3.4583   3.4664   3.4893   3.4944
  3.5052   3.5196   3.5301   3.5510   3.5645   3.5783   3.5884   3.5921
  3.6035   3.6143   3.6339   3.6415   3.6511   3.6521   3.6636   3.6773
  3.6858   3.6957   3.7006   3.7115   3.7157   3.7300   3.7312   3.7346
  3.7562   3.7712   3.7943   3.8026   3.8239   3.8332   3.8454   3.8544
  3.8608   3.8712   3.8795   3.8902   3.8987   3.9190   3.9339   3.9391
  3.9520   3.9739   3.9776   3.9859   3.9909   4.0047   4.0362   4.0517
  4.0608   4.0700   4.0843   4.0936   4.1293   4.1303   4.1689   4.1747
  4.1847   4.1865   4.2111   4.2755   4.2822   4.2946   4.3179   4.3327
  4.3445   4.3492   4.3742   4.3784   4.3969   4.4124   4.4296   4.4353
  4.4542   4.4656   4.5013   4.5176   4.5270   4.5502   4.5890   4.6047
  4.6228   4.6382   4.6527   4.6615   4.6689   4.6871   4.7126   4.7305
  4.7642   4.7751   4.7879   4.8053   4.8174   4.8596   4.9126   4.9193
  4.9715   5.0121   5.0238   5.0304   5.0573   5.1116   5.1313   5.1637
  5.1852   5.2135   5.2222   5.2548   5.2601   5.2714   5.3041   5.3520
  5.3564   5.3651   5.4004   5.4299   5.4578   5.4740   5.4899   5.5352
  5.5605   5.5967   5.6198   5.6223   5.6440   5.7020   5.7326   5.8025
  5.8069   5.8373   5.8561   5.8830   5.9041   5.9721   5.9793   6.0344
  6.0626   6.1277   6.1349   6.1868   6.2144   6.3102   6.3601   6.4459
  6.4613   6.5183   6.5585   6.6758   6.6791   6.7397   6.7410   6.8629
  6.8836   6.9935   7.1803   7.2120   7.3289   7.3738   7.3767   7.4297
  7.4644   7.4877   7.5210   7.5509   7.6165   7.7713   7.8333   7.9134
  8.0013   8.1234   8.4619   8.9285   9.0089   9.3635   9.4987   9.6870
 10.1232  11.2257  11.5239  11.9352  12.2880  12.6931  13.1334  13.5289
 13.8306  14.0930  14.7586
 --------------------------------------------------------------
 
          Ground-State Mulliken Net Atomic Charges

     Atom                 Charge (a.u.)
  ----------------------------------------
      1 C                     0.045062
      2 S                     0.083864
      3 C                    -0.258068
      4 C                    -0.089802
      5 C                    -0.011244
      6 C                     0.392967
      7 C                    -0.165111
      8 S                     0.028125
      9 C                     0.459403
     10 O                    -0.454898
     11 O                    -0.298409
     12 F                    -0.213672
     13 C                    -0.055056
     14 H                     0.116192
     15 H                     0.084026
     16 H                     0.083858
     17 C                    -0.371250
     18 H                     0.116297
     19 H                     0.151978
     20 H                     0.143788
     21 H                     0.211948
  ----------------------------------------
  Sum of atomic charges =     0.000000

 -----------------------------------------------------------------
                    Cartesian Multipole Moments
 -----------------------------------------------------------------
    Charge (ESU x 10^10)
                -0.0000
    Dipole Moment (Debye)
         X       0.4994      Y       1.0688      Z       4.1454
       Tot       4.3100
    Quadrupole Moments (Debye-Ang)
        XX     -95.9146     XY       0.3888     YY     -82.3499
        XZ      -0.9676     YZ     -13.4837     ZZ     -95.0450
    Octopole Moments (Debye-Ang^2)
       XXX     -24.3438    XXY     -85.2674    XYY      -4.3771
       YYY    -230.6833    XXZ      79.2560    XYZ      -1.3110
       YYZ      69.1585    XZZ       0.0382    YZZ       5.7999
       ZZZ     257.5825
    Hexadecapole Moments (Debye-Ang^3)
      XXXX    -131.8922   XXXY     -72.4409   XXYY    -342.8363
      XYYY     -57.8339   YYYY   -1767.1209   XXXZ      63.7885
      XXYZ     248.3374   XYYZ       9.4619   YYYZ     633.9419
      XXZZ    -679.7674   XYZZ       4.6236   YYZZ    -679.4405
      XZZZ      26.9139   YZZZ     336.4543   ZZZZ   -3799.1996
 -----------------------------------------------------------------
 Total job time:  54.06s(wall), 1935.45s(cpu) 
 Tue Sep 26 17:51:14 2023

        *************************************************************
        *                                                           *
        *  Thank you very much for using Q-Chem.  Have a nice day.  *
        *                                                           *
        *************************************************************


0 sent ACK to 0 
now end server 0 ... 
cleanup process ... done
remove work dirs ./qchem1177172.0 -- ./qchem1177172.0
rm -rf ./qchem1177172.0
rm -rf ./qchem1177172
