You are running Q-Chem version: 5.4.0

#
# job setting
#
local host:  exp-8-18
current dir: /expanse/lustre/projects/csd626/rramji/aromodel/PTB7_fin/Hydrogenated_Impropers_Test
input file:  fin_bdt_Phi_5_Theta_80_fin_ftt_Hydrogenated_Improper.qcin
output file: 
nprocs     : 1
nthreads   : 64
#
# qchem installation setting
#
QC:          /cm/shared/apps/spack/cpu/opt/spack/linux-centos8-zen2/gcc-10.2.0/qchem-5.4-akfmr7b3t57bfs6qan3padb2wnb2i7cl
QCAUX:       /cm/shared/apps/spack/cpu/opt/spack/linux-centos8-zen2/gcc-10.2.0/qchem-5.4-akfmr7b3t57bfs6qan3padb2wnb2i7cl/qcaux
QCPROG:      /cm/shared/apps/spack/cpu/opt/spack/linux-centos8-zen2/gcc-10.2.0/qchem-5.4-akfmr7b3t57bfs6qan3padb2wnb2i7cl/exe/qcprog.exe
QCPROG_S:    /cm/shared/apps/spack/cpu/opt/spack/linux-centos8-zen2/gcc-10.2.0/qchem-5.4-akfmr7b3t57bfs6qan3padb2wnb2i7cl/exe/qcprog.exe_s
PARALLEL:    -DPARALLEL
QCMPI:       mpich
#
# qchem directory setting
#
qcrun:       qchem1177378
QCSCRATCH:   .
QCLOCALSCR:  
QCTMPDIR:    .
QCFILEPREF:  ./qchem1177378
QCSAVEDIR:   
workdirs:    ./qchem1177378
workdir0:    ./qchem1177378
partmpdirs =  
#
# parallel setting
#
QCRSH:           ssh
QCMPI:           mpich
QCMPIRUN:        /cm/shared/apps/spack/cpu/opt/spack/linux-centos8-zen2/gcc-10.2.0/qchem-5.4-akfmr7b3t57bfs6qan3padb2wnb2i7cl/bin/mpi/mpirun_qchem
QCMACHINEFILE:   ./qchem1177378/hostfile
exp-8-18

#
# env setting
#
exported envs:   QC QCAUX QCSCRATCH QCRUNNAME QCFILEPREF QCPROG QCPROG_S GUIFILE

Running Job 1 of 1 fin_bdt_Phi_5_Theta_80_fin_ftt_Hydrogenated_Improper.qcin
qchem fin_bdt_Phi_5_Theta_80_fin_ftt_Hydrogenated_Improper.qcin_1177378.0 ./qchem1177378/ 1
/cm/shared/apps/spack/cpu/opt/spack/linux-centos8-zen2/gcc-10.2.0/qchem-5.4-akfmr7b3t57bfs6qan3padb2wnb2i7cl/bin/mpi/mpirun_qchem -machinefile ./qchem1177378/hostfile -np 1 /cm/shared/apps/spack/cpu/opt/spack/linux-centos8-zen2/gcc-10.2.0/qchem-5.4-akfmr7b3t57bfs6qan3padb2wnb2i7cl/exe/qcprog.exe fin_bdt_Phi_5_Theta_80_fin_ftt_Hydrogenated_Improper.qcin_1177378.0 ./qchem1177378/

Process 0 of 1 is on exp-8-18 - thread support 0
initial socket setup ...start
initial socket setup ...done 
now start server 0 ... 
                  Welcome to Q-Chem
     A Quantum Leap Into The Future Of Chemistry


 Q-Chem 5.4, Q-Chem, Inc., Pleasanton, CA (2021)

 License issued to: University of California, San Diego (site)

 E. Epifanovsky,  A. T. B. Gilbert,  Xintian Feng,  Joonho Lee,  Yuezhi Mao,  
 N. Mardirossian,  P. Pokhilko,  A. White,  M. Wormit,  M. P. Coons,  
 A. L. Dempwolff,  Zhengting Gan,  D. Hait,  P. R. Horn,  L. D. Jacobson,  
 I. Kaliman,  J. Kussmann,  A. W. Lange,  Ka Un Lao,  D. S. Levine,  Jie Liu,  
 S. C. McKenzie,  A. F. Morrison,  K. Nanda,  F. Plasser,  D. R. Rehn,  
 M. L. Vidal,  Zhi-Qiang You,  Ying Zhu,  B. Alam,  B. Albrecht,  
 A. Aldossary,  E. Alguire,  J. H. Andersen,  D. Barton,  K. Begam,  A. Behn,  
 Y. A. Bernard,  E. J. Berquist,  H. Burton,  A. Carreras,  K. Carter-Fenk,  
 R. Chakraborty,  A. D. Chien,  K. D. Closser,  V. Cofer-Shabica,  
 S. Dasgupta,  Jia Deng,  M. de Wergifosse,  M. Diedenhofen,  Hainam Do,  
 S. Ehlert,  Po-Tung Fang,  S. Fatehi,  Qingguo Feng,  J. Gayvert,  
 Qinghui Ge,  G. Gidofalvi,  M. Goldey,  J. Gomes,  C. Gonzalez-Espinoza,  
 S. Gulania,  A. Gunina,  M. W. D. Hanson-Heine,  P. H. P. Harbach,  
 A. W. Hauser,  M. F. Herbst,  M. Hernandez Vera,  M. Hodecker,  
 Z. C. Holden,  S. Houck,  Xunkun Huang,  Kerwin Hui,  B. C. Huynh,  
 M. Ivanov,  Hyunjun Ji,  Hanjie Jiang,  B. Kaduk,  S. Kaehler,  
 K. Khistyaev,  Jaehoon Kim,  P. Klunzinger,  Z. Koczor-Benda,  
 Joong Hoon Koh,  D. Kosenkov,  L. Koulias,  T. Kowalczyk,  C. M. Krauter,  
 K. Kue,  A. Kunitsa,  T. Kus,  A. Landau,  K. V. Lawler,  D. Lefrancois,  
 S. Lehtola,  Rain Li,  Yi-Pei Li,  Jiashu Liang,  M. Liebenthal,  
 Hung-Hsuan Lin,  You-Sheng Lin,  Fenglai Liu,  Kuan-Yu Liu,  
 M. Loipersberger,  A. Luenser,  A. Manjanath,  P. Manohar,  E. Mansoor,  
 S. F. Manzer,  Shan-Ping Mao,  A. V. Marenich,  T. Markovich,  S. Mason,  
 S. A. Maurer,  P. F. McLaughlin,  M. F. S. J. Menger,  J.-M. Mewes,  
 S. A. Mewes,  P. Morgante,  J. W. Mullinax,  T. S. Nguyen-Beck,  
 K. J. Oosterbaan,  G. Paran,  Alexander C. Paul,  Suranjan K. Paul,  
 F. Pavosevic,  Zheng Pei,  S. Prager,  E. I. Proynov,  E. Ramos,  B. Rana,  
 A. E. Rask,  A. Rettig,  R. M. Richard,  F. Rob,  E. Rossomme,  T. Scheele,  
 M. Scheurer,  M. Schneider,  N. Sergueev,  S. M. Sharada,  W. Skomorowski,  
 D. W. Small,  C. J. Stein,  Yu-Chuan Su,  E. J. Sundstrom,  Zhen Tao,  
 J. Thirman,  T. Tsuchimochi,  N. M. Tubman,  S. P. Veccham,  O. Vydrov,  
 J. Wenzel,  J. Witte,  A. Yamada,  Kun Yao,  S. Yeganeh,  S. R. Yost,  
 A. Zech,  Igor Ying Zhang,  Xing Zhang,  Yu Zhang,  D. Zuev,  
 A. Aspuru-Guzik,  A. T. Bell,  N. A. Besley,  K. B. Bravaya,  B. R. Brooks,  
 D. Casanova,  Jeng-Da Chai,  S. Coriani,  C. J. Cramer,  
 A. E. DePrince, III,  R. A. DiStasio Jr.,  A. Dreuw,  B. D. Dunietz,  
 T. R. Furlani,  W. A. Goddard III,  S. Grimme,  S. Hammes-Schiffer,  
 T. Head-Gordon,  W. J. Hehre,  Chao-Ping Hsu,  T.-C. Jagau,  Yousung Jung,  
 A. Klamt,  Jing Kong,  D. S. Lambrecht,  WanZhen Liang,  N. J. Mayhall,  
 C. W. McCurdy,  J. B. Neaton,  C. Ochsenfeld,  J. A. Parkhill,  R. Peverati,  
 V. A. Rassolov,  Yihan Shao,  L. V. Slipchenko,  T. Stauch,  R. P. Steele,  
 J. E. Subotnik,  A. J. W. Thom,  A. Tkatchenko,  D. G. Truhlar,  
 T. Van Voorhis,  T. A. Wesolowski,  K. B. Whaley,  H. L. Woodcock III,  
 P. M. Zimmerman,  S. Faraji,  P. M. W. Gill,  M. Head-Gordon,  
 J. M. Herbert,  A. I. Krylov

 Contributors to earlier versions of Q-Chem not listed above: 
 R. D. Adamson,  B. Austin,  R. Baer,  J. Baker,  G. J. O. Beran,  
 K. Brandhorst,  S. T. Brown,  E. F. C. Byrd,  A. K. Chakraborty,  
 G. K. L. Chan,  Chun-Min Chang,  Yunqing Chen,  C.-L. Cheng,  
 Siu Hung Chien,  D. M. Chipman,  D. L. Crittenden,  H. Dachsel,  
 R. J. Doerksen,  A. D. Dutoi,  R. G. Edgar,  J. Fosso-Tande,  
 L. Fusti-Molnar,  D. Ghosh,  A. Ghysels,  A. Golubeva-Zadorozhnaya,  
 J. Gonthier,  M. S. Gordon,  S. R. Gwaltney,  G. Hawkins,  J. E. Herr,  
 A. Heyden,  S. Hirata,  E. G. Hohenstein,  G. Kedziora,  F. J. Keil,  
 C. Kelley,  Jihan Kim,  R. A. King,  R. Z. Khaliullin,  P. P. Korambath,  
 W. Kurlancheek,  A. Laurent,  A. M. Lee,  M. S. Lee,  S. V. Levchenko,  
 Ching Yeh Lin,  D. Liotard,  E. Livshits,  R. C. Lochan,  I. Lotan,  
 L. A. Martinez-Martinez,  P. E. Maslen,  N. Nair,  D. P. O'Neill,  
 D. Neuhauser,  E. Neuscamman,  C. M. Oana,  R. Olivares-Amaya,  R. Olson,  
 T. M. Perrine,  B. Peters,  P. A. Pieniazek,  A. Prociuk,  Y. M. Rhee,  
 J. Ritchie,  M. A. Rohrdanz,  E. Rosta,  N. J. Russ,  H. F. Schaefer III,  
 M. W. Schmidt,  N. E. Schultz,  S. Sharma,  N. Shenvi,  C. D. Sherrill,  
 A. C. Simmonett,  A. Sodt,  T. Stein,  D. Stuck,  K. S. Thanthiriwatte,  
 V. Vanovschi,  L. Vogt,  Tao Wang,  A. Warshel,  M. A. Watson,  
 C. F. Williams,  Q. Wu,  X. Xu,  Jun Yang,  W. Zhang,  Yan Zhao

 Please cite Q-Chem as follows:
 Y. Shao et al., Mol. Phys. 113, 184-215 (2015)
 DOI: 10.1080/00268976.2014.952696

 Q-Chem 5.4.0 for Intel X86 EM64T Linux

 Parts of Q-Chem use Armadillo 9.800.1 (Horizon Scraper).
 http://arma.sourceforge.net/

 Q-Chem begins on Tue Sep 26 17:51:17 2023  

 Host: 
0

     Scratch files written to ./qchem1177378//
 May1621 |scratch|qcdevops|jenkins|workspace|build_RNUM    
 Parallel job on  1  processors
 Processing $rem in /cm/shared/apps/spack/cpu/opt/spack/linux-centos8-zen2/gcc-10.2.0/qchem-5.4-akfmr7b3t57bfs6qan3padb2wnb2i7cl/config/preferences:
 Processing $rem in /home/rramji/.qchemrc:
 Symmetry turned off for PCM/SM12/SMD calculation
 Core orbitals will be frozen

 Checking the input file for inconsistencies... 	...done.

 Q-Chem warning in module forms1/BasisType.C, line 2236:

 You are not using the predefined 5D/6D in this basis set.


--------------------------------------------------------------
User input:
--------------------------------------------------------------
$molecule
0 1
C	-0.079707	-0.833466	1.020653
S	0.000893	0.062334	2.531353
C	0.137093	1.631734	1.748253
C	-0.000607	0.071334	-0.044047
C	0.118993	1.454934	0.342353
C	-0.004707	0.005034	-1.465447
C	0.105393	1.265034	-2.086247
S	0.210793	2.508134	-0.945047
C	0.132193	1.518134	-3.539347
O	0.053793	0.587934	-4.329647
O	0.247293	2.796134	-3.983747
F	-0.097907	-1.105166	-2.225647
C	0.288693	3.152634	-5.314347
H	0.385593	4.253334	-5.349647
H	-0.632807	2.842434	-5.854947
H	1.150193	2.685834	-5.841247
C	-0.079707	-2.268666	1.020653
H	0.116193	-2.277666	2.082753
H	-0.902807	-2.952566	1.166153
H	0.848693	-2.793066	0.848853
H	0.217393	2.548234	2.342153
$end

$rem
JOBTYPE		SP
EXCHANGE	HF
CORRELATION	pRIMP2
BASIS		cc-pvtz
METHOD		rimp2
AUX_BASIS	rimp2-cc-pvtz
SOLVENT_METHOD	PCM
PURECART	11111
SYMMETRY	false
MEM_TOTAL	110000
SCF_CONVERGENCE = 6
THRESH=10
GUI = 2
$end



$solvent
dielectric 4.90
$end
--------------------------------------------------------------
 ----------------------------------------------------------------
             Standard Nuclear Orientation (Angstroms)
    I     Atom           X                Y                Z
 ----------------------------------------------------------------
    1      C      -0.0797070000    -0.8334660000     1.0206530000
    2      S       0.0008930000     0.0623340000     2.5313530000
    3      C       0.1370930000     1.6317340000     1.7482530000
    4      C      -0.0006070000     0.0713340000    -0.0440470000
    5      C       0.1189930000     1.4549340000     0.3423530000
    6      C      -0.0047070000     0.0050340000    -1.4654470000
    7      C       0.1053930000     1.2650340000    -2.0862470000
    8      S       0.2107930000     2.5081340000    -0.9450470000
    9      C       0.1321930000     1.5181340000    -3.5393470000
   10      O       0.0537930000     0.5879340000    -4.3296470000
   11      O       0.2472930000     2.7961340000    -3.9837470000
   12      F      -0.0979070000    -1.1051660000    -2.2256470000
   13      C       0.2886930000     3.1526340000    -5.3143470000
   14      H       0.3855930000     4.2533340000    -5.3496470000
   15      H      -0.6328070000     2.8424340000    -5.8549470000
   16      H       1.1501930000     2.6858340000    -5.8412470000
   17      C      -0.0797070000    -2.2686660000     1.0206530000
   18      H       0.1161930000    -2.2776660000     2.0827530000
   19      H      -0.9028070000    -2.9525660000     1.1661530000
   20      H       0.8486930000    -2.7930660000     0.8488530000
   21      H       0.2173930000     2.5482340000     2.3421530000
 ----------------------------------------------------------------
 Nuclear Repulsion Energy =        1088.48943258 hartrees
 There are       59 alpha and       59 beta electrons
 Requested basis set is cc-pVTZ
 There are 186 shells and 526 basis functions

 Total QAlloc Memory Limit 110000 MB
 Mega-Array Size       188 MB
 MEM_STATIC part       192 MB
 Discretize the solute cavity surface with Lebedev spheres
	Using 110 Lebedev grid points for each H atom
	Using 194 Lebedev grid points for other atoms
	Atomic van der Waals radii will be scaled by 1.20
 Remove points where switching function is < 1.0e-08
 Keep 1568 surface tesserae and discard 1918 interior tesserae
 Molecular Surface Area = 242.015 Angst**2
 Requested basis set is rimp2-cc-pVTZ
 There are 410 shells and 1426 basis functions
 A cutoff of  1.0D-10 yielded  11498 shell pairs
 There are     90300 function pairs (    118236 Cartesian)
 Smallest overlap matrix eigenvalue = 5.65E-05

 Scale SEOQF with 1.000000e+00/1.000000e-01/1.000000e-02

 Standard Electronic Orientation quadrupole field applied
 Nucleus-field energy     =     0.0000000203 hartrees
 Guess from superposition of atomic densities
 Warning:  Energy on first SCF cycle will be non-variational
 SAD guess density has 118.000000 electrons

 -----------------------------------------------------------------------
  General SCF calculation program by
  Eric Jon Sundstrom, Paul Horn, Yuezhi Mao, Dmitri Zuev, Alec White,
  David Stuck, Shaama M.S., Shane Yost, Joonho Lee, David Small,
  Daniel Levine, Susi Lehtola, Hugh Burton, Evgeny Epifanovsky,
  Bang C. Huynh
 -----------------------------------------------------------------------
 Hartree-Fock
 using 64 threads for integral computing
 -------------------------------------------------------
 OpenMP Integral computing Module                
 Release: version 1.0, May 2013, Q-Chem Inc. Pittsburgh 
 -------------------------------------------------------
 A restricted SCF calculation will be
 performed using DIIS
 SCF converges when DIIS error is below 1.0e-06
 ---------------------------------------
  Cycle       Energy         DIIS error
 ---------------------------------------
    1   -1394.5717249347      2.53e-02  
    2   -1389.0116508475      2.50e-03  
    3   -1389.1842965224      1.57e-03  
    4   -1389.2454293429      3.49e-04  
    5   -1389.2510962590      1.11e-04  
    6   -1389.2517616353      3.64e-05  
    7   -1389.2519029455      1.81e-05  
    8   -1389.2519503833      7.28e-06  
    9   -1389.2519609390      3.29e-06  
   10   -1389.2519626300      1.26e-06  
   11   -1389.2519628873      4.83e-07  Convergence criterion met
 ---------------------------------------
 SCF time:   CPU 1678.11s  wall 48.00s 

************** Final PCM Free Energy Summary **************
 G_electrostatic  =      -0.01336263 hartree =      -8.38517792 kcal/mol
 G_cavitation     =       0.00000000 hartree =       0.00000000 kcal/mol
 G_dispersion     =       0.00000000 hartree =       0.00000000 kcal/mol
 G_repulsion      =       0.00000000 hartree =       0.00000000 kcal/mol
 --------------------------------------------------
 Non-electrostatic Free Energy =       0.00000000 hartree =       0.00000000 kcal/mol
 Total                         =      -0.01336263 hartree =      -8.38517792 kcal/mol
 --------------------------------------------------
 SCF Energy (H0 + V/2)                       =   -1389.25196289 
 Solute Internal Energy (H0)                 =   -1389.23860026 
 Total Free Energy (H0 + V/2 + non-elec)     =   -1389.25196289 hartree
                                             = -871768.76431713 kcal/mol
***********************************************************

 SCF   energy in the final basis set =    -1389.2519628873
 Total energy in the final basis set =    -1389.2519628873


 --------------------------------------------------------------
  Generalized many-body perturbation theory program
  by Joonho Lee, Fazle Rob, Xintian Feng, Evgeny Epifanovsky

 No regularization used 
 (reg. param. = 0.0000e+00)
  (P|Q)^-1/2 Time:  CPU 20.14 s  wall 0.32 s

 In RI-MP2 calculation: 
 # of frozen core orbitals: 22

 Components of the RIMP2 correlation energy:
        aaaa    correlation energy =        -0.3294113417 a.u.
        abab    correlation energy =        -1.8474067727 a.u.
        bbbb    correlation energy =        -0.3294113417 a.u.
        non-Brillouin singles      =        -0.0000000000 a.u.
        total same-spin energy     =        -0.6588226834 a.u.
        total opposite-spin energy =        -1.8474067727 a.u.

 Total  RIMP2   correlation energy =        -2.5062294561 a.u.
        RIMP2         total energy =     -1391.7581923434 a.u.

 RI-MP2 Energy Time:  CPU 173.54 s  wall 3.57 s
 
 --------------------------------------------------------------
 
                    Orbital Energies (a.u.)
 --------------------------------------------------------------
 
 Alpha MOs
 -- Occupied --
-92.0097 -91.9899 -26.3329 -20.6104 -20.5473 -11.4077 -11.3750 -11.3074
-11.2915 -11.2915 -11.2876 -11.2839 -11.2691 -11.2285  -9.0083  -8.9941
 -6.6890  -6.6885  -6.6880  -6.6753  -6.6747  -6.6733  -1.6459  -1.4699
 -1.3650  -1.2268  -1.1468  -1.0650  -1.0298  -1.0054  -0.9685  -0.9099
 -0.8644  -0.7967  -0.7840  -0.7678  -0.7262  -0.7139  -0.6956  -0.6770
 -0.6762  -0.6679  -0.6089  -0.6042  -0.5974  -0.5873  -0.5746  -0.5687
 -0.5442  -0.5247  -0.5049  -0.4809  -0.4744  -0.4634  -0.4599  -0.4578
 -0.3960  -0.3462  -0.2822
 -- Virtual --
  0.0379   0.1198   0.1295   0.1555   0.1598   0.1665   0.1901   0.1933
  0.2094   0.2213   0.2222   0.2316   0.2357   0.2601   0.2649   0.2661
  0.2831   0.3049   0.3144   0.3325   0.3508   0.3650   0.3712   0.3773
  0.3798   0.3854   0.3963   0.4098   0.4179   0.4340   0.4344   0.4465
  0.4608   0.4694   0.4764   0.4835   0.5006   0.5050   0.5129   0.5387
  0.5403   0.5463   0.5475   0.5556   0.5575   0.5657   0.5740   0.5844
  0.5916   0.5990   0.6102   0.6120   0.6170   0.6238   0.6271   0.6304
  0.6406   0.6465   0.6508   0.6618   0.6705   0.6879   0.6962   0.7057
  0.7127   0.7180   0.7409   0.7546   0.7704   0.7830   0.7894   0.7910
  0.8061   0.8096   0.8236   0.8359   0.8519   0.8778   0.8838   0.8954
  0.9052   0.9075   0.9142   0.9278   0.9398   0.9554   0.9675   0.9729
  0.9812   0.9912   1.0004   1.0154   1.0251   1.0341   1.0408   1.0625
  1.0657   1.0801   1.0881   1.0916   1.0965   1.1029   1.1204   1.1280
  1.1490   1.1565   1.1585   1.1684   1.1716   1.1950   1.2074   1.2096
  1.2252   1.2326   1.2506   1.2609   1.2644   1.2825   1.2963   1.3101
  1.3235   1.3382   1.3457   1.3591   1.3678   1.3856   1.3904   1.4033
  1.4290   1.4354   1.4410   1.4617   1.4751   1.4944   1.5033   1.5117
  1.5139   1.5151   1.5516   1.5531   1.5627   1.5657   1.5857   1.6127
  1.6156   1.6362   1.6619   1.6712   1.6754   1.7126   1.7178   1.7339
  1.7481   1.7649   1.7797   1.8171   1.8277   1.8341   1.8425   1.8506
  1.8675   1.8722   1.8850   1.9135   1.9293   1.9354   1.9424   1.9514
  2.0137   2.0226   2.0327   2.0374   2.0562   2.0938   2.1080   2.1300
  2.1435   2.1555   2.1659   2.1706   2.1974   2.2122   2.2212   2.2425
  2.2531   2.2778   2.2803   2.2911   2.2932   2.3150   2.3326   2.3352
  2.3699   2.3851   2.4133   2.4267   2.4629   2.4823   2.4870   2.4899
  2.5304   2.5592   2.5654   2.5813   2.5913   2.6171   2.6337   2.6377
  2.6530   2.6623   2.6724   2.6834   2.6951   2.7081   2.7252   2.7328
  2.7371   2.7433   2.7674   2.7731   2.7862   2.8038   2.8172   2.8225
  2.8451   2.8617   2.8773   2.8977   2.9063   2.9090   2.9157   2.9546
  2.9657   2.9813   2.9963   3.0173   3.0441   3.0448   3.0660   3.0709
  3.0904   3.0978   3.1027   3.1183   3.1268   3.1406   3.1425   3.1586
  3.1802   3.1896   3.2007   3.2100   3.2140   3.2310   3.2437   3.2598
  3.2634   3.2700   3.2778   3.2880   3.2919   3.2961   3.3086   3.3252
  3.3352   3.3540   3.3568   3.3630   3.3723   3.3825   3.3843   3.3963
  3.4155   3.4381   3.4462   3.4524   3.4584   3.4655   3.4909   3.4954
  3.5110   3.5204   3.5310   3.5504   3.5640   3.5769   3.5838   3.5905
  3.6028   3.6164   3.6361   3.6412   3.6496   3.6536   3.6616   3.6755
  3.6847   3.6965   3.7037   3.7109   3.7210   3.7287   3.7320   3.7366
  3.7530   3.7690   3.7918   3.8147   3.8236   3.8320   3.8491   3.8534
  3.8633   3.8745   3.8863   3.8934   3.9062   3.9186   3.9324   3.9353
  3.9534   3.9715   3.9844   3.9873   3.9900   4.0064   4.0417   4.0489
  4.0514   4.0683   4.0803   4.0928   4.1250   4.1312   4.1700   4.1759
  4.1842   4.1898   4.2042   4.2734   4.2818   4.2955   4.3143   4.3270
  4.3456   4.3490   4.3776   4.3837   4.3983   4.4166   4.4178   4.4339
  4.4549   4.4648   4.5023   4.5207   4.5355   4.5488   4.5907   4.6099
  4.6222   4.6376   4.6496   4.6633   4.6682   4.6893   4.7067   4.7262
  4.7644   4.7763   4.7891   4.8098   4.8232   4.8526   4.9132   4.9182
  4.9698   5.0117   5.0208   5.0293   5.0444   5.1129   5.1367   5.1594
  5.1863   5.2130   5.2246   5.2548   5.2600   5.2774   5.3076   5.3513
  5.3563   5.3671   5.4025   5.4279   5.4524   5.4740   5.4888   5.5354
  5.5626   5.5991   5.6198   5.6337   5.6440   5.7096   5.7327   5.8024
  5.8043   5.8398   5.8614   5.8860   5.8997   5.9719   5.9772   6.0106
  6.0585   6.1271   6.1348   6.1868   6.2118   6.3101   6.3444   6.4406
  6.4643   6.5177   6.5584   6.6774   6.6790   6.7392   6.7407   6.8627
  6.8834   6.9933   7.1802   7.2120   7.3288   7.3739   7.3765   7.4296
  7.4643   7.4877   7.5209   7.5507   7.6159   7.7712   7.8332   7.9130
  8.0015   8.1232   8.4497   8.9285   9.0089   9.3635   9.4985   9.6855
 10.1249  11.2256  11.5334  11.9355  12.2867  12.6932  13.1339  13.5381
 13.8449  14.1017  14.7694
 --------------------------------------------------------------
 
          Ground-State Mulliken Net Atomic Charges

     Atom                 Charge (a.u.)
  ----------------------------------------
      1 C                     0.045674
      2 S                     0.084405
      3 C                    -0.257348
      4 C                    -0.090651
      5 C                    -0.009753
      6 C                     0.391231
      7 C                    -0.163771
      8 S                     0.029183
      9 C                     0.459035
     10 O                    -0.454557
     11 O                    -0.298378
     12 F                    -0.213776
     13 C                    -0.055060
     14 H                     0.116212
     15 H                     0.084046
     16 H                     0.083898
     17 C                    -0.368268
     18 H                     0.112675
     19 H                     0.151998
     20 H                     0.140910
     21 H                     0.212294
  ----------------------------------------
  Sum of atomic charges =     0.000000

 -----------------------------------------------------------------
                    Cartesian Multipole Moments
 -----------------------------------------------------------------
    Charge (ESU x 10^10)
                -0.0000
    Dipole Moment (Debye)
         X       0.3917      Y       1.1610      Z       4.1578
       Tot       4.3346
    Quadrupole Moments (Debye-Ang)
        XX     -95.8265     XY       0.6895     YY     -82.3898
        XZ      -0.9787     YZ     -13.4471     ZZ     -94.9499
    Octopole Moments (Debye-Ang^2)
       XXX     -24.1871    XXY     -85.4605    XYY      -5.0567
       YYY    -230.0972    XXZ      79.3128    XYZ      -1.4383
       YYZ      69.0293    XZZ       0.1747    YZZ       6.2881
       ZZZ     257.2594
    Hexadecapole Moments (Debye-Ang^3)
      XXXX    -131.8010   XXXY     -73.0020   XXYY    -341.9095
      XYYY     -56.5055   YYYY   -1767.4479   XXXZ      64.2259
      XXYZ     248.1613   XYYZ      10.1579   YYYZ     634.7354
      XXZZ    -679.9148   XYZZ       3.9713   YYZZ    -680.2496
      XZZZ      27.0536   YZZZ     337.4330   ZZZZ   -3797.7588
 -----------------------------------------------------------------
 Total job time:  54.26s(wall), 1921.27s(cpu) 
 Tue Sep 26 17:52:11 2023

        *************************************************************
        *                                                           *
        *  Thank you very much for using Q-Chem.  Have a nice day.  *
        *                                                           *
        *************************************************************


0 sent ACK to 0 
now end server 0 ... 
cleanup process ... done
remove work dirs ./qchem1177378.0 -- ./qchem1177378.0
rm -rf ./qchem1177378.0
rm -rf ./qchem1177378
