You are running Q-Chem version: 5.4.0

#
# job setting
#
local host:  exp-8-29
current dir: /expanse/lustre/projects/csd626/rramji/aromodel/PTB7_fin/Hydrogenated_Impropers_Test
input file:  fin_bdt_Phi_25_Theta_100_fin_ftt_Hydrogenated_Improper.qcin
output file: 
nprocs     : 1
nthreads   : 64
#
# qchem installation setting
#
QC:          /cm/shared/apps/spack/cpu/opt/spack/linux-centos8-zen2/gcc-10.2.0/qchem-5.4-akfmr7b3t57bfs6qan3padb2wnb2i7cl
QCAUX:       /cm/shared/apps/spack/cpu/opt/spack/linux-centos8-zen2/gcc-10.2.0/qchem-5.4-akfmr7b3t57bfs6qan3padb2wnb2i7cl/qcaux
QCPROG:      /cm/shared/apps/spack/cpu/opt/spack/linux-centos8-zen2/gcc-10.2.0/qchem-5.4-akfmr7b3t57bfs6qan3padb2wnb2i7cl/exe/qcprog.exe
QCPROG_S:    /cm/shared/apps/spack/cpu/opt/spack/linux-centos8-zen2/gcc-10.2.0/qchem-5.4-akfmr7b3t57bfs6qan3padb2wnb2i7cl/exe/qcprog.exe_s
PARALLEL:    -DPARALLEL
QCMPI:       mpich
#
# qchem directory setting
#
qcrun:       qchem1152671
QCSCRATCH:   .
QCLOCALSCR:  
QCTMPDIR:    .
QCFILEPREF:  ./qchem1152671
QCSAVEDIR:   
workdirs:    ./qchem1152671
workdir0:    ./qchem1152671
partmpdirs =  
#
# parallel setting
#
QCRSH:           ssh
QCMPI:           mpich
QCMPIRUN:        /cm/shared/apps/spack/cpu/opt/spack/linux-centos8-zen2/gcc-10.2.0/qchem-5.4-akfmr7b3t57bfs6qan3padb2wnb2i7cl/bin/mpi/mpirun_qchem
QCMACHINEFILE:   ./qchem1152671/hostfile
exp-8-29

#
# env setting
#
exported envs:   QC QCAUX QCSCRATCH QCRUNNAME QCFILEPREF QCPROG QCPROG_S GUIFILE

Running Job 1 of 1 fin_bdt_Phi_25_Theta_100_fin_ftt_Hydrogenated_Improper.qcin
qchem fin_bdt_Phi_25_Theta_100_fin_ftt_Hydrogenated_Improper.qcin_1152671.0 ./qchem1152671/ 1
/cm/shared/apps/spack/cpu/opt/spack/linux-centos8-zen2/gcc-10.2.0/qchem-5.4-akfmr7b3t57bfs6qan3padb2wnb2i7cl/bin/mpi/mpirun_qchem -machinefile ./qchem1152671/hostfile -np 1 /cm/shared/apps/spack/cpu/opt/spack/linux-centos8-zen2/gcc-10.2.0/qchem-5.4-akfmr7b3t57bfs6qan3padb2wnb2i7cl/exe/qcprog.exe fin_bdt_Phi_25_Theta_100_fin_ftt_Hydrogenated_Improper.qcin_1152671.0 ./qchem1152671/

Process 0 of 1 is on exp-8-29 - thread support 0
initial socket setup ...start
initial socket setup ...done 
now start server 0 ... 
                  Welcome to Q-Chem
     A Quantum Leap Into The Future Of Chemistry


 Q-Chem 5.4, Q-Chem, Inc., Pleasanton, CA (2021)

 License issued to: University of California, San Diego (site)

 E. Epifanovsky,  A. T. B. Gilbert,  Xintian Feng,  Joonho Lee,  Yuezhi Mao,  
 N. Mardirossian,  P. Pokhilko,  A. White,  M. Wormit,  M. P. Coons,  
 A. L. Dempwolff,  Zhengting Gan,  D. Hait,  P. R. Horn,  L. D. Jacobson,  
 I. Kaliman,  J. Kussmann,  A. W. Lange,  Ka Un Lao,  D. S. Levine,  Jie Liu,  
 S. C. McKenzie,  A. F. Morrison,  K. Nanda,  F. Plasser,  D. R. Rehn,  
 M. L. Vidal,  Zhi-Qiang You,  Ying Zhu,  B. Alam,  B. Albrecht,  
 A. Aldossary,  E. Alguire,  J. H. Andersen,  D. Barton,  K. Begam,  A. Behn,  
 Y. A. Bernard,  E. J. Berquist,  H. Burton,  A. Carreras,  K. Carter-Fenk,  
 R. Chakraborty,  A. D. Chien,  K. D. Closser,  V. Cofer-Shabica,  
 S. Dasgupta,  Jia Deng,  M. de Wergifosse,  M. Diedenhofen,  Hainam Do,  
 S. Ehlert,  Po-Tung Fang,  S. Fatehi,  Qingguo Feng,  J. Gayvert,  
 Qinghui Ge,  G. Gidofalvi,  M. Goldey,  J. Gomes,  C. Gonzalez-Espinoza,  
 S. Gulania,  A. Gunina,  M. W. D. Hanson-Heine,  P. H. P. Harbach,  
 A. W. Hauser,  M. F. Herbst,  M. Hernandez Vera,  M. Hodecker,  
 Z. C. Holden,  S. Houck,  Xunkun Huang,  Kerwin Hui,  B. C. Huynh,  
 M. Ivanov,  Hyunjun Ji,  Hanjie Jiang,  B. Kaduk,  S. Kaehler,  
 K. Khistyaev,  Jaehoon Kim,  P. Klunzinger,  Z. Koczor-Benda,  
 Joong Hoon Koh,  D. Kosenkov,  L. Koulias,  T. Kowalczyk,  C. M. Krauter,  
 K. Kue,  A. Kunitsa,  T. Kus,  A. Landau,  K. V. Lawler,  D. Lefrancois,  
 S. Lehtola,  Rain Li,  Yi-Pei Li,  Jiashu Liang,  M. Liebenthal,  
 Hung-Hsuan Lin,  You-Sheng Lin,  Fenglai Liu,  Kuan-Yu Liu,  
 M. Loipersberger,  A. Luenser,  A. Manjanath,  P. Manohar,  E. Mansoor,  
 S. F. Manzer,  Shan-Ping Mao,  A. V. Marenich,  T. Markovich,  S. Mason,  
 S. A. Maurer,  P. F. McLaughlin,  M. F. S. J. Menger,  J.-M. Mewes,  
 S. A. Mewes,  P. Morgante,  J. W. Mullinax,  T. S. Nguyen-Beck,  
 K. J. Oosterbaan,  G. Paran,  Alexander C. Paul,  Suranjan K. Paul,  
 F. Pavosevic,  Zheng Pei,  S. Prager,  E. I. Proynov,  E. Ramos,  B. Rana,  
 A. E. Rask,  A. Rettig,  R. M. Richard,  F. Rob,  E. Rossomme,  T. Scheele,  
 M. Scheurer,  M. Schneider,  N. Sergueev,  S. M. Sharada,  W. Skomorowski,  
 D. W. Small,  C. J. Stein,  Yu-Chuan Su,  E. J. Sundstrom,  Zhen Tao,  
 J. Thirman,  T. Tsuchimochi,  N. M. Tubman,  S. P. Veccham,  O. Vydrov,  
 J. Wenzel,  J. Witte,  A. Yamada,  Kun Yao,  S. Yeganeh,  S. R. Yost,  
 A. Zech,  Igor Ying Zhang,  Xing Zhang,  Yu Zhang,  D. Zuev,  
 A. Aspuru-Guzik,  A. T. Bell,  N. A. Besley,  K. B. Bravaya,  B. R. Brooks,  
 D. Casanova,  Jeng-Da Chai,  S. Coriani,  C. J. Cramer,  
 A. E. DePrince, III,  R. A. DiStasio Jr.,  A. Dreuw,  B. D. Dunietz,  
 T. R. Furlani,  W. A. Goddard III,  S. Grimme,  S. Hammes-Schiffer,  
 T. Head-Gordon,  W. J. Hehre,  Chao-Ping Hsu,  T.-C. Jagau,  Yousung Jung,  
 A. Klamt,  Jing Kong,  D. S. Lambrecht,  WanZhen Liang,  N. J. Mayhall,  
 C. W. McCurdy,  J. B. Neaton,  C. Ochsenfeld,  J. A. Parkhill,  R. Peverati,  
 V. A. Rassolov,  Yihan Shao,  L. V. Slipchenko,  T. Stauch,  R. P. Steele,  
 J. E. Subotnik,  A. J. W. Thom,  A. Tkatchenko,  D. G. Truhlar,  
 T. Van Voorhis,  T. A. Wesolowski,  K. B. Whaley,  H. L. Woodcock III,  
 P. M. Zimmerman,  S. Faraji,  P. M. W. Gill,  M. Head-Gordon,  
 J. M. Herbert,  A. I. Krylov

 Contributors to earlier versions of Q-Chem not listed above: 
 R. D. Adamson,  B. Austin,  R. Baer,  J. Baker,  G. J. O. Beran,  
 K. Brandhorst,  S. T. Brown,  E. F. C. Byrd,  A. K. Chakraborty,  
 G. K. L. Chan,  Chun-Min Chang,  Yunqing Chen,  C.-L. Cheng,  
 Siu Hung Chien,  D. M. Chipman,  D. L. Crittenden,  H. Dachsel,  
 R. J. Doerksen,  A. D. Dutoi,  R. G. Edgar,  J. Fosso-Tande,  
 L. Fusti-Molnar,  D. Ghosh,  A. Ghysels,  A. Golubeva-Zadorozhnaya,  
 J. Gonthier,  M. S. Gordon,  S. R. Gwaltney,  G. Hawkins,  J. E. Herr,  
 A. Heyden,  S. Hirata,  E. G. Hohenstein,  G. Kedziora,  F. J. Keil,  
 C. Kelley,  Jihan Kim,  R. A. King,  R. Z. Khaliullin,  P. P. Korambath,  
 W. Kurlancheek,  A. Laurent,  A. M. Lee,  M. S. Lee,  S. V. Levchenko,  
 Ching Yeh Lin,  D. Liotard,  E. Livshits,  R. C. Lochan,  I. Lotan,  
 L. A. Martinez-Martinez,  P. E. Maslen,  N. Nair,  D. P. O'Neill,  
 D. Neuhauser,  E. Neuscamman,  C. M. Oana,  R. Olivares-Amaya,  R. Olson,  
 T. M. Perrine,  B. Peters,  P. A. Pieniazek,  A. Prociuk,  Y. M. Rhee,  
 J. Ritchie,  M. A. Rohrdanz,  E. Rosta,  N. J. Russ,  H. F. Schaefer III,  
 M. W. Schmidt,  N. E. Schultz,  S. Sharma,  N. Shenvi,  C. D. Sherrill,  
 A. C. Simmonett,  A. Sodt,  T. Stein,  D. Stuck,  K. S. Thanthiriwatte,  
 V. Vanovschi,  L. Vogt,  Tao Wang,  A. Warshel,  M. A. Watson,  
 C. F. Williams,  Q. Wu,  X. Xu,  Jun Yang,  W. Zhang,  Yan Zhao

 Please cite Q-Chem as follows:
 Y. Shao et al., Mol. Phys. 113, 184-215 (2015)
 DOI: 10.1080/00268976.2014.952696

 Q-Chem 5.4.0 for Intel X86 EM64T Linux

 Parts of Q-Chem use Armadillo 9.800.1 (Horizon Scraper).
 http://arma.sourceforge.net/

 Q-Chem begins on Tue Sep 26 18:00:30 2023  

 Host: 
0

     Scratch files written to ./qchem1152671//
 May1621 |scratch|qcdevops|jenkins|workspace|build_RNUM    
 Parallel job on  1  processors
 Processing $rem in /cm/shared/apps/spack/cpu/opt/spack/linux-centos8-zen2/gcc-10.2.0/qchem-5.4-akfmr7b3t57bfs6qan3padb2wnb2i7cl/config/preferences:
 Processing $rem in /home/rramji/.qchemrc:
 Symmetry turned off for PCM/SM12/SMD calculation
 Core orbitals will be frozen

 Checking the input file for inconsistencies... 	...done.

 Q-Chem warning in module forms1/BasisType.C, line 2236:

 You are not using the predefined 5D/6D in this basis set.


--------------------------------------------------------------
User input:
--------------------------------------------------------------
$molecule
0 1
C	-0.376123	-0.753180	1.020565
S	0.005977	0.061020	2.531265
C	0.670777	1.489220	1.748165
C	0.007677	0.069920	-0.044135
C	0.593277	1.329320	0.342265
C	-0.018923	0.009120	-1.465535
C	0.515577	1.155520	-2.086335
S	1.039777	2.287520	-0.945135
C	0.627377	1.384120	-3.539435
O	0.235477	0.536820	-4.329735
O	1.172577	2.545720	-3.983835
F	-0.486223	-1.002280	-2.225735
C	1.333377	2.866520	-5.314435
H	1.800877	3.867720	-5.349735
H	0.361277	2.890220	-5.855035
H	1.983277	2.133220	-5.841335
C	-0.376123	-2.188380	1.020565
H	-0.555323	-2.197380	2.085565
H	-1.199323	-2.872280	0.875765
H	0.555077	-2.712780	1.176665
H	1.059677	2.323020	2.342065
$end

$rem
JOBTYPE		SP
EXCHANGE	HF
CORRELATION	pRIMP2
BASIS		cc-pvtz
METHOD		rimp2
AUX_BASIS	rimp2-cc-pvtz
SOLVENT_METHOD	PCM
PURECART	11111
SYMMETRY	false
MEM_TOTAL	110000
SCF_CONVERGENCE = 6
THRESH=10
GUI = 2
$end



$solvent
dielectric 4.90
$end
--------------------------------------------------------------
 ----------------------------------------------------------------
             Standard Nuclear Orientation (Angstroms)
    I     Atom           X                Y                Z
 ----------------------------------------------------------------
    1      C      -0.3761230000    -0.7531800000     1.0205650000
    2      S       0.0059770000     0.0610200000     2.5312650000
    3      C       0.6707770000     1.4892200000     1.7481650000
    4      C       0.0076770000     0.0699200000    -0.0441350000
    5      C       0.5932770000     1.3293200000     0.3422650000
    6      C      -0.0189230000     0.0091200000    -1.4655350000
    7      C       0.5155770000     1.1555200000    -2.0863350000
    8      S       1.0397770000     2.2875200000    -0.9451350000
    9      C       0.6273770000     1.3841200000    -3.5394350000
   10      O       0.2354770000     0.5368200000    -4.3297350000
   11      O       1.1725770000     2.5457200000    -3.9838350000
   12      F      -0.4862230000    -1.0022800000    -2.2257350000
   13      C       1.3333770000     2.8665200000    -5.3144350000
   14      H       1.8008770000     3.8677200000    -5.3497350000
   15      H       0.3612770000     2.8902200000    -5.8550350000
   16      H       1.9832770000     2.1332200000    -5.8413350000
   17      C      -0.3761230000    -2.1883800000     1.0205650000
   18      H      -0.5553230000    -2.1973800000     2.0855650000
   19      H      -1.1993230000    -2.8722800000     0.8757650000
   20      H       0.5550770000    -2.7127800000     1.1766650000
   21      H       1.0596770000     2.3230200000     2.3420650000
 ----------------------------------------------------------------
 Nuclear Repulsion Energy =        1089.85909790 hartrees
 There are       59 alpha and       59 beta electrons
 Requested basis set is cc-pVTZ
 There are 186 shells and 526 basis functions

 Total QAlloc Memory Limit 110000 MB
 Mega-Array Size       188 MB
 MEM_STATIC part       192 MB
 Discretize the solute cavity surface with Lebedev spheres
	Using 110 Lebedev grid points for each H atom
	Using 194 Lebedev grid points for other atoms
	Atomic van der Waals radii will be scaled by 1.20
 Remove points where switching function is < 1.0e-08
 Keep 1554 surface tesserae and discard 1932 interior tesserae
 Molecular Surface Area = 241.645 Angst**2
 Requested basis set is rimp2-cc-pVTZ
 There are 410 shells and 1426 basis functions
 A cutoff of  1.0D-10 yielded  11512 shell pairs
 There are     90446 function pairs (    118429 Cartesian)
 Smallest overlap matrix eigenvalue = 6.14E-05

 Scale SEOQF with 1.000000e-01/1.000000e-01/1.000000e-02

 Standard Electronic Orientation quadrupole field applied
 Nucleus-field energy     =     0.0000000162 hartrees
 Guess from superposition of atomic densities
 Warning:  Energy on first SCF cycle will be non-variational
 SAD guess density has 118.000000 electrons

 -----------------------------------------------------------------------
  General SCF calculation program by
  Eric Jon Sundstrom, Paul Horn, Yuezhi Mao, Dmitri Zuev, Alec White,
  David Stuck, Shaama M.S., Shane Yost, Joonho Lee, David Small,
  Daniel Levine, Susi Lehtola, Hugh Burton, Evgeny Epifanovsky,
  Bang C. Huynh
 -----------------------------------------------------------------------
 Hartree-Fock
 using 64 threads for integral computing
 -------------------------------------------------------
 OpenMP Integral computing Module                
 Release: version 1.0, May 2013, Q-Chem Inc. Pittsburgh 
 -------------------------------------------------------
 A restricted SCF calculation will be
 performed using DIIS
 SCF converges when DIIS error is below 1.0e-06
 ---------------------------------------
  Cycle       Energy         DIIS error
 ---------------------------------------
    1   -1394.5857162866      2.53e-02  
    2   -1388.9996692899      2.50e-03  
    3   -1389.1723865916      1.58e-03  
    4   -1389.2339973333      3.49e-04  
    5   -1389.2396905756      1.11e-04  
    6   -1389.2403659433      3.66e-05  
    7   -1389.2405100370      1.83e-05  
    8   -1389.2405596749      7.50e-06  
    9   -1389.2405713101      3.49e-06  
   10   -1389.2405733149      1.36e-06  
   11   -1389.2405736376      5.36e-07  Convergence criterion met
 ---------------------------------------
 SCF time:   CPU 1682.98s  wall 48.00s 

************** Final PCM Free Energy Summary **************
 G_electrostatic  =      -0.01306117 hartree =      -8.19600609 kcal/mol
 G_cavitation     =       0.00000000 hartree =       0.00000000 kcal/mol
 G_dispersion     =       0.00000000 hartree =       0.00000000 kcal/mol
 G_repulsion      =       0.00000000 hartree =       0.00000000 kcal/mol
 --------------------------------------------------
 Non-electrostatic Free Energy =       0.00000000 hartree =       0.00000000 kcal/mol
 Total                         =      -0.01306117 hartree =      -8.19600609 kcal/mol
 --------------------------------------------------
 SCF Energy (H0 + V/2)                       =   -1389.24057364 
 Solute Internal Energy (H0)                 =   -1389.22751247 
 Total Free Energy (H0 + V/2 + non-elec)     =   -1389.24057364 hartree
                                             = -871761.61745504 kcal/mol
***********************************************************

 SCF   energy in the final basis set =    -1389.2405736376
 Total energy in the final basis set =    -1389.2405736376


 --------------------------------------------------------------
  Generalized many-body perturbation theory program
  by Joonho Lee, Fazle Rob, Xintian Feng, Evgeny Epifanovsky

 No regularization used 
 (reg. param. = 0.0000e+00)
  (P|Q)^-1/2 Time:  CPU 21.96 s  wall 0.35 s

 In RI-MP2 calculation: 
 # of frozen core orbitals: 22

 Components of the RIMP2 correlation energy:
        aaaa    correlation energy =        -0.3300879713 a.u.
        abab    correlation energy =        -1.8498496890 a.u.
        bbbb    correlation energy =        -0.3300879713 a.u.
        non-Brillouin singles      =        -0.0000000000 a.u.
        total same-spin energy     =        -0.6601759425 a.u.
        total opposite-spin energy =        -1.8498496890 a.u.

 Total  RIMP2   correlation energy =        -2.5100256315 a.u.
        RIMP2         total energy =     -1391.7505992691 a.u.

 RI-MP2 Energy Time:  CPU 175.06 s  wall 3.34 s
 
 --------------------------------------------------------------
 
                    Orbital Energies (a.u.)
 --------------------------------------------------------------
 
 Alpha MOs
 -- Occupied --
-92.0095 -91.9912 -26.3327 -20.6109 -20.5483 -11.4086 -11.3745 -11.3005
-11.2937 -11.2919 -11.2886 -11.2879 -11.2704 -11.2261  -9.0083  -8.9954
 -6.6890  -6.6884  -6.6879  -6.6766  -6.6760  -6.6746  -1.6457  -1.4705
 -1.3657  -1.2277  -1.1479  -1.0649  -1.0301  -1.0044  -0.9689  -0.9087
 -0.8651  -0.7969  -0.7844  -0.7686  -0.7266  -0.7138  -0.6953  -0.6775
 -0.6754  -0.6686  -0.6091  -0.6048  -0.5968  -0.5880  -0.5763  -0.5659
 -0.5418  -0.5253  -0.5054  -0.4819  -0.4695  -0.4640  -0.4603  -0.4585
 -0.3945  -0.3457  -0.2836
 -- Virtual --
  0.0315   0.1173   0.1299   0.1553   0.1596   0.1677   0.1888   0.1931
  0.2091   0.2207   0.2217   0.2289   0.2331   0.2583   0.2643   0.2651
  0.2862   0.3023   0.3141   0.3350   0.3527   0.3599   0.3674   0.3764
  0.3799   0.3829   0.3941   0.4085   0.4175   0.4257   0.4363   0.4461
  0.4531   0.4658   0.4747   0.4838   0.4936   0.5101   0.5118   0.5239
  0.5368   0.5399   0.5510   0.5522   0.5594   0.5654   0.5745   0.5873
  0.5894   0.5949   0.6049   0.6100   0.6175   0.6222   0.6292   0.6381
  0.6412   0.6441   0.6504   0.6621   0.6693   0.6851   0.6933   0.7066
  0.7135   0.7267   0.7382   0.7564   0.7695   0.7776   0.7868   0.7938
  0.8063   0.8141   0.8244   0.8361   0.8590   0.8652   0.8789   0.8860
  0.8939   0.9065   0.9233   0.9285   0.9378   0.9499   0.9559   0.9696
  0.9788   0.9937   1.0018   1.0119   1.0215   1.0325   1.0395   1.0532
  1.0641   1.0785   1.0867   1.0888   1.0967   1.1135   1.1254   1.1310
  1.1533   1.1614   1.1638   1.1692   1.1755   1.1922   1.2082   1.2137
  1.2244   1.2402   1.2474   1.2531   1.2730   1.2763   1.2909   1.3118
  1.3233   1.3437   1.3472   1.3560   1.3678   1.3706   1.3868   1.3951
  1.4156   1.4321   1.4368   1.4562   1.4691   1.4849   1.5031   1.5062
  1.5137   1.5221   1.5478   1.5594   1.5634   1.5696   1.5880   1.6081
  1.6163   1.6311   1.6557   1.6624   1.6693   1.6969   1.7107   1.7349
  1.7497   1.7540   1.7773   1.8164   1.8282   1.8320   1.8346   1.8575
  1.8640   1.8725   1.8947   1.9270   1.9289   1.9365   1.9440   1.9569
  1.9938   2.0220   2.0285   2.0323   2.0577   2.0937   2.1036   2.1254
  2.1434   2.1537   2.1584   2.1679   2.1965   2.2002   2.2169   2.2379
  2.2425   2.2630   2.2747   2.2795   2.2911   2.2933   2.3302   2.3440
  2.3685   2.3829   2.4086   2.4296   2.4608   2.4692   2.4851   2.5260
  2.5328   2.5610   2.5781   2.5836   2.5947   2.6085   2.6263   2.6357
  2.6490   2.6586   2.6704   2.6760   2.6988   2.7097   2.7236   2.7322
  2.7389   2.7463   2.7561   2.7762   2.7984   2.8166   2.8193   2.8315
  2.8490   2.8570   2.8751   2.8807   2.8991   2.9086   2.9246   2.9447
  2.9627   2.9708   2.9850   3.0227   3.0434   3.0448   3.0544   3.0784
  3.0911   3.0927   3.1056   3.1090   3.1321   3.1349   3.1396   3.1584
  3.1827   3.1903   3.1997   3.2036   3.2219   3.2258   3.2392   3.2518
  3.2592   3.2679   3.2701   3.2859   3.2888   3.2985   3.3107   3.3148
  3.3326   3.3509   3.3622   3.3658   3.3661   3.3817   3.4045   3.4282
  3.4342   3.4406   3.4479   3.4568   3.4604   3.4694   3.4967   3.4999
  3.5182   3.5238   3.5341   3.5635   3.5678   3.5776   3.5870   3.5954
  3.6038   3.6117   3.6322   3.6382   3.6480   3.6635   3.6666   3.6715
  3.6787   3.6880   3.7054   3.7129   3.7177   3.7299   3.7332   3.7454
  3.7698   3.7843   3.7921   3.8079   3.8219   3.8301   3.8341   3.8485
  3.8579   3.8729   3.8773   3.8878   3.9044   3.9137   3.9172   3.9409
  3.9490   3.9641   3.9828   4.0035   4.0060   4.0256   4.0360   4.0526
  4.0564   4.0651   4.0898   4.0919   4.0992   4.1467   4.1704   4.1784
  4.1877   4.1918   4.2101   4.2632   4.2774   4.3001   4.3060   4.3402
  4.3484   4.3689   4.3783   4.3875   4.3981   4.4087   4.4265   4.4426
  4.4674   4.4834   4.5022   4.5161   4.5345   4.5543   4.5889   4.6152
  4.6345   4.6445   4.6477   4.6636   4.6713   4.6903   4.7060   4.7328
  4.7464   4.7695   4.7933   4.8031   4.8353   4.8503   4.9117   4.9152
  4.9689   5.0057   5.0135   5.0291   5.0494   5.1162   5.1365   5.1594
  5.1887   5.2050   5.2173   5.2518   5.2596   5.2612   5.2978   5.3555
  5.3561   5.3566   5.4029   5.4302   5.4485   5.4737   5.4814   5.5333
  5.5513   5.5880   5.6144   5.6193   5.6401   5.7026   5.7241   5.7991
  5.8019   5.8293   5.8561   5.8651   5.9589   5.9712   5.9781   6.0066
  6.0463   6.1220   6.1344   6.1794   6.1863   6.3096   6.3389   6.4000
  6.4484   6.5083   6.5577   6.6631   6.6782   6.7349   6.7398   6.8619
  6.8818   6.9915   7.1796   7.2113   7.3280   7.3741   7.3766   7.4283
  7.4638   7.4878   7.5197   7.5500   7.6052   7.7715   7.8325   7.9048
  8.0021   8.1203   8.3613   8.9289   9.0086   9.3641   9.4979   9.6836
 10.1573  11.2207  11.6272  11.9307  12.2614  12.6444  13.1662  13.5194
 13.8296  14.0935  14.5044
 --------------------------------------------------------------
 
          Ground-State Mulliken Net Atomic Charges

     Atom                 Charge (a.u.)
  ----------------------------------------
      1 C                     0.019778
      2 S                     0.089021
      3 C                    -0.244149
      4 C                    -0.088077
      5 C                    -0.006485
      6 C                     0.364250
      7 C                    -0.156100
      8 S                     0.034752
      9 C                     0.456554
     10 O                    -0.452346
     11 O                    -0.298161
     12 F                    -0.211285
     13 C                    -0.054791
     14 H                     0.116323
     15 H                     0.084141
     16 H                     0.084053
     17 C                    -0.354300
     18 H                     0.109040
     19 H                     0.154232
     20 H                     0.140861
     21 H                     0.212689
  ----------------------------------------
  Sum of atomic charges =     0.000000

 -----------------------------------------------------------------
                    Cartesian Multipole Moments
 -----------------------------------------------------------------
    Charge (ESU x 10^10)
                -0.0000
    Dipole Moment (Debye)
         X       1.2800      Y       1.2846      Z       4.0427
       Tot       4.4308
    Quadrupole Moments (Debye-Ang)
        XX     -94.2005     XY       4.2914     YY     -84.3494
        XZ      -4.5450     YZ     -12.1078     ZZ     -94.5423
    Octopole Moments (Debye-Ang^2)
       XXX    -111.8829    XXY     -71.6238    XYY     -28.0010
       YYY    -210.8089    XXZ      75.9603    XYZ      -6.5675
       YYZ      71.2145    XZZ       2.1352    YZZ       7.2902
       ZZZ     255.5206
    Hexadecapole Moments (Debye-Ang^3)
      XXXX    -400.4055   XXXY    -310.7856   XXYY    -315.6848
      XYYY    -264.9974   YYYY   -1536.0444   XXXZ     295.4560
      XXYZ     211.6339   XYYZ      65.3561   YYYZ     599.1576
      XXZZ    -674.1302   XYZZ       7.5558   YYZZ    -683.8889
      XZZZ     125.3618   YZZZ     309.7227   ZZZZ   -3790.1732
 -----------------------------------------------------------------
 Total job time:  54.35s(wall), 2029.75s(cpu) 
 Tue Sep 26 18:01:25 2023

        *************************************************************
        *                                                           *
        *  Thank you very much for using Q-Chem.  Have a nice day.  *
        *                                                           *
        *************************************************************


0 sent ACK to 0 
now end server 0 ... 
cleanup process ... done
remove work dirs ./qchem1152671.0 -- ./qchem1152671.0
rm -rf ./qchem1152671.0
rm -rf ./qchem1152671
