You are running Q-Chem version: 5.4.0

#
# job setting
#
local host:  exp-3-30
current dir: /expanse/lustre/projects/csd626/rramji/aromodel/PTB7_fin/Hydrogenated_Impropers_Test
input file:  fin_bdt_Phi_50_Theta_320_fin_ftt_Hydrogenated_Improper.qcin
output file: 
nprocs     : 1
nthreads   : 64
#
# qchem installation setting
#
QC:          /cm/shared/apps/spack/cpu/opt/spack/linux-centos8-zen2/gcc-10.2.0/qchem-5.4-akfmr7b3t57bfs6qan3padb2wnb2i7cl
QCAUX:       /cm/shared/apps/spack/cpu/opt/spack/linux-centos8-zen2/gcc-10.2.0/qchem-5.4-akfmr7b3t57bfs6qan3padb2wnb2i7cl/qcaux
QCPROG:      /cm/shared/apps/spack/cpu/opt/spack/linux-centos8-zen2/gcc-10.2.0/qchem-5.4-akfmr7b3t57bfs6qan3padb2wnb2i7cl/exe/qcprog.exe
QCPROG_S:    /cm/shared/apps/spack/cpu/opt/spack/linux-centos8-zen2/gcc-10.2.0/qchem-5.4-akfmr7b3t57bfs6qan3padb2wnb2i7cl/exe/qcprog.exe_s
PARALLEL:    -DPARALLEL
QCMPI:       mpich
#
# qchem directory setting
#
qcrun:       qchem1288427
QCSCRATCH:   .
QCLOCALSCR:  
QCTMPDIR:    .
QCFILEPREF:  ./qchem1288427
QCSAVEDIR:   
workdirs:    ./qchem1288427
workdir0:    ./qchem1288427
partmpdirs =  
#
# parallel setting
#
QCRSH:           ssh
QCMPI:           mpich
QCMPIRUN:        /cm/shared/apps/spack/cpu/opt/spack/linux-centos8-zen2/gcc-10.2.0/qchem-5.4-akfmr7b3t57bfs6qan3padb2wnb2i7cl/bin/mpi/mpirun_qchem
QCMACHINEFILE:   ./qchem1288427/hostfile
exp-3-30

#
# env setting
#
exported envs:   QC QCAUX QCSCRATCH QCRUNNAME QCFILEPREF QCPROG QCPROG_S GUIFILE

Running Job 1 of 1 fin_bdt_Phi_50_Theta_320_fin_ftt_Hydrogenated_Improper.qcin
qchem fin_bdt_Phi_50_Theta_320_fin_ftt_Hydrogenated_Improper.qcin_1288427.0 ./qchem1288427/ 1
/cm/shared/apps/spack/cpu/opt/spack/linux-centos8-zen2/gcc-10.2.0/qchem-5.4-akfmr7b3t57bfs6qan3padb2wnb2i7cl/bin/mpi/mpirun_qchem -machinefile ./qchem1288427/hostfile -np 1 /cm/shared/apps/spack/cpu/opt/spack/linux-centos8-zen2/gcc-10.2.0/qchem-5.4-akfmr7b3t57bfs6qan3padb2wnb2i7cl/exe/qcprog.exe fin_bdt_Phi_50_Theta_320_fin_ftt_Hydrogenated_Improper.qcin_1288427.0 ./qchem1288427/

Process 0 of 1 is on exp-3-30 - thread support 0
initial socket setup ...start
initial socket setup ...done 
now start server 0 ... 
                  Welcome to Q-Chem
     A Quantum Leap Into The Future Of Chemistry


 Q-Chem 5.4, Q-Chem, Inc., Pleasanton, CA (2021)

 License issued to: University of California, San Diego (site)

 E. Epifanovsky,  A. T. B. Gilbert,  Xintian Feng,  Joonho Lee,  Yuezhi Mao,  
 N. Mardirossian,  P. Pokhilko,  A. White,  M. Wormit,  M. P. Coons,  
 A. L. Dempwolff,  Zhengting Gan,  D. Hait,  P. R. Horn,  L. D. Jacobson,  
 I. Kaliman,  J. Kussmann,  A. W. Lange,  Ka Un Lao,  D. S. Levine,  Jie Liu,  
 S. C. McKenzie,  A. F. Morrison,  K. Nanda,  F. Plasser,  D. R. Rehn,  
 M. L. Vidal,  Zhi-Qiang You,  Ying Zhu,  B. Alam,  B. Albrecht,  
 A. Aldossary,  E. Alguire,  J. H. Andersen,  D. Barton,  K. Begam,  A. Behn,  
 Y. A. Bernard,  E. J. Berquist,  H. Burton,  A. Carreras,  K. Carter-Fenk,  
 R. Chakraborty,  A. D. Chien,  K. D. Closser,  V. Cofer-Shabica,  
 S. Dasgupta,  Jia Deng,  M. de Wergifosse,  M. Diedenhofen,  Hainam Do,  
 S. Ehlert,  Po-Tung Fang,  S. Fatehi,  Qingguo Feng,  J. Gayvert,  
 Qinghui Ge,  G. Gidofalvi,  M. Goldey,  J. Gomes,  C. Gonzalez-Espinoza,  
 S. Gulania,  A. Gunina,  M. W. D. Hanson-Heine,  P. H. P. Harbach,  
 A. W. Hauser,  M. F. Herbst,  M. Hernandez Vera,  M. Hodecker,  
 Z. C. Holden,  S. Houck,  Xunkun Huang,  Kerwin Hui,  B. C. Huynh,  
 M. Ivanov,  Hyunjun Ji,  Hanjie Jiang,  B. Kaduk,  S. Kaehler,  
 K. Khistyaev,  Jaehoon Kim,  P. Klunzinger,  Z. Koczor-Benda,  
 Joong Hoon Koh,  D. Kosenkov,  L. Koulias,  T. Kowalczyk,  C. M. Krauter,  
 K. Kue,  A. Kunitsa,  T. Kus,  A. Landau,  K. V. Lawler,  D. Lefrancois,  
 S. Lehtola,  Rain Li,  Yi-Pei Li,  Jiashu Liang,  M. Liebenthal,  
 Hung-Hsuan Lin,  You-Sheng Lin,  Fenglai Liu,  Kuan-Yu Liu,  
 M. Loipersberger,  A. Luenser,  A. Manjanath,  P. Manohar,  E. Mansoor,  
 S. F. Manzer,  Shan-Ping Mao,  A. V. Marenich,  T. Markovich,  S. Mason,  
 S. A. Maurer,  P. F. McLaughlin,  M. F. S. J. Menger,  J.-M. Mewes,  
 S. A. Mewes,  P. Morgante,  J. W. Mullinax,  T. S. Nguyen-Beck,  
 K. J. Oosterbaan,  G. Paran,  Alexander C. Paul,  Suranjan K. Paul,  
 F. Pavosevic,  Zheng Pei,  S. Prager,  E. I. Proynov,  E. Ramos,  B. Rana,  
 A. E. Rask,  A. Rettig,  R. M. Richard,  F. Rob,  E. Rossomme,  T. Scheele,  
 M. Scheurer,  M. Schneider,  N. Sergueev,  S. M. Sharada,  W. Skomorowski,  
 D. W. Small,  C. J. Stein,  Yu-Chuan Su,  E. J. Sundstrom,  Zhen Tao,  
 J. Thirman,  T. Tsuchimochi,  N. M. Tubman,  S. P. Veccham,  O. Vydrov,  
 J. Wenzel,  J. Witte,  A. Yamada,  Kun Yao,  S. Yeganeh,  S. R. Yost,  
 A. Zech,  Igor Ying Zhang,  Xing Zhang,  Yu Zhang,  D. Zuev,  
 A. Aspuru-Guzik,  A. T. Bell,  N. A. Besley,  K. B. Bravaya,  B. R. Brooks,  
 D. Casanova,  Jeng-Da Chai,  S. Coriani,  C. J. Cramer,  
 A. E. DePrince, III,  R. A. DiStasio Jr.,  A. Dreuw,  B. D. Dunietz,  
 T. R. Furlani,  W. A. Goddard III,  S. Grimme,  S. Hammes-Schiffer,  
 T. Head-Gordon,  W. J. Hehre,  Chao-Ping Hsu,  T.-C. Jagau,  Yousung Jung,  
 A. Klamt,  Jing Kong,  D. S. Lambrecht,  WanZhen Liang,  N. J. Mayhall,  
 C. W. McCurdy,  J. B. Neaton,  C. Ochsenfeld,  J. A. Parkhill,  R. Peverati,  
 V. A. Rassolov,  Yihan Shao,  L. V. Slipchenko,  T. Stauch,  R. P. Steele,  
 J. E. Subotnik,  A. J. W. Thom,  A. Tkatchenko,  D. G. Truhlar,  
 T. Van Voorhis,  T. A. Wesolowski,  K. B. Whaley,  H. L. Woodcock III,  
 P. M. Zimmerman,  S. Faraji,  P. M. W. Gill,  M. Head-Gordon,  
 J. M. Herbert,  A. I. Krylov

 Contributors to earlier versions of Q-Chem not listed above: 
 R. D. Adamson,  B. Austin,  R. Baer,  J. Baker,  G. J. O. Beran,  
 K. Brandhorst,  S. T. Brown,  E. F. C. Byrd,  A. K. Chakraborty,  
 G. K. L. Chan,  Chun-Min Chang,  Yunqing Chen,  C.-L. Cheng,  
 Siu Hung Chien,  D. M. Chipman,  D. L. Crittenden,  H. Dachsel,  
 R. J. Doerksen,  A. D. Dutoi,  R. G. Edgar,  J. Fosso-Tande,  
 L. Fusti-Molnar,  D. Ghosh,  A. Ghysels,  A. Golubeva-Zadorozhnaya,  
 J. Gonthier,  M. S. Gordon,  S. R. Gwaltney,  G. Hawkins,  J. E. Herr,  
 A. Heyden,  S. Hirata,  E. G. Hohenstein,  G. Kedziora,  F. J. Keil,  
 C. Kelley,  Jihan Kim,  R. A. King,  R. Z. Khaliullin,  P. P. Korambath,  
 W. Kurlancheek,  A. Laurent,  A. M. Lee,  M. S. Lee,  S. V. Levchenko,  
 Ching Yeh Lin,  D. Liotard,  E. Livshits,  R. C. Lochan,  I. Lotan,  
 L. A. Martinez-Martinez,  P. E. Maslen,  N. Nair,  D. P. O'Neill,  
 D. Neuhauser,  E. Neuscamman,  C. M. Oana,  R. Olivares-Amaya,  R. Olson,  
 T. M. Perrine,  B. Peters,  P. A. Pieniazek,  A. Prociuk,  Y. M. Rhee,  
 J. Ritchie,  M. A. Rohrdanz,  E. Rosta,  N. J. Russ,  H. F. Schaefer III,  
 M. W. Schmidt,  N. E. Schultz,  S. Sharma,  N. Shenvi,  C. D. Sherrill,  
 A. C. Simmonett,  A. Sodt,  T. Stein,  D. Stuck,  K. S. Thanthiriwatte,  
 V. Vanovschi,  L. Vogt,  Tao Wang,  A. Warshel,  M. A. Watson,  
 C. F. Williams,  Q. Wu,  X. Xu,  Jun Yang,  W. Zhang,  Yan Zhao

 Please cite Q-Chem as follows:
 Y. Shao et al., Mol. Phys. 113, 184-215 (2015)
 DOI: 10.1080/00268976.2014.952696

 Q-Chem 5.4.0 for Intel X86 EM64T Linux

 Parts of Q-Chem use Armadillo 9.800.1 (Horizon Scraper).
 http://arma.sourceforge.net/

 Q-Chem begins on Sun Sep 24 17:23:34 2023  

 Host: 
0

     Scratch files written to ./qchem1288427//
 May1621 |scratch|qcdevops|jenkins|workspace|build_RNUM    
 Parallel job on  1  processors
 Processing $rem in /cm/shared/apps/spack/cpu/opt/spack/linux-centos8-zen2/gcc-10.2.0/qchem-5.4-akfmr7b3t57bfs6qan3padb2wnb2i7cl/config/preferences:
 Processing $rem in /home/rramji/.qchemrc:
 Symmetry turned off for PCM/SM12/SMD calculation
 Core orbitals will be frozen

 Checking the input file for inconsistencies... 	...done.

 Q-Chem warning in module forms1/BasisType.C, line 2236:

 You are not using the predefined 5D/6D in this basis set.


--------------------------------------------------------------
User input:
--------------------------------------------------------------
$molecule
0 1
C	-0.681895	-0.518946	1.024624
S	0.008505	0.057454	2.535324
C	1.214605	1.070954	1.752224
C	0.013805	0.064854	-0.040076
C	1.076705	0.958754	0.346324
C	-0.035995	0.020954	-1.461476
C	0.932905	0.834054	-2.082276
S	1.886405	1.638454	-0.941076
C	1.130805	0.994054	-3.535376
O	0.417605	0.391754	-4.325676
O	2.115905	1.816354	-3.979776
F	-0.886895	-0.698246	-2.221676
C	2.397205	2.039154	-5.310376
H	3.244005	2.748954	-5.345676
H	1.526205	2.471454	-5.850976
H	2.676205	1.099854	-5.837276
C	-0.681895	-1.954146	1.024624
H	0.139905	-1.963146	0.324024
H	-0.144295	-2.638046	1.664724
H	-1.294895	-2.478546	0.306524
H	1.919405	1.662254	2.346124
$end

$rem
JOBTYPE		SP
EXCHANGE	HF
CORRELATION	pRIMP2
BASIS		cc-pvtz
METHOD		rimp2
AUX_BASIS	rimp2-cc-pvtz
SOLVENT_METHOD	PCM
PURECART	11111
SYMMETRY	false
MEM_TOTAL	110000
SCF_CONVERGENCE = 6
THRESH=10
GUI = 2
$end



$solvent
dielectric 4.90
$end
--------------------------------------------------------------
 ----------------------------------------------------------------
             Standard Nuclear Orientation (Angstroms)
    I     Atom           X                Y                Z
 ----------------------------------------------------------------
    1      C      -0.6818950000    -0.5189460000     1.0246240000
    2      S       0.0085050000     0.0574540000     2.5353240000
    3      C       1.2146050000     1.0709540000     1.7522240000
    4      C       0.0138050000     0.0648540000    -0.0400760000
    5      C       1.0767050000     0.9587540000     0.3463240000
    6      C      -0.0359950000     0.0209540000    -1.4614760000
    7      C       0.9329050000     0.8340540000    -2.0822760000
    8      S       1.8864050000     1.6384540000    -0.9410760000
    9      C       1.1308050000     0.9940540000    -3.5353760000
   10      O       0.4176050000     0.3917540000    -4.3256760000
   11      O       2.1159050000     1.8163540000    -3.9797760000
   12      F      -0.8868950000    -0.6982460000    -2.2216760000
   13      C       2.3972050000     2.0391540000    -5.3103760000
   14      H       3.2440050000     2.7489540000    -5.3456760000
   15      H       1.5262050000     2.4714540000    -5.8509760000
   16      H       2.6762050000     1.0998540000    -5.8372760000
   17      C      -0.6818950000    -1.9541460000     1.0246240000
   18      H       0.1399050000    -1.9631460000     0.3240240000
   19      H      -0.1442950000    -2.6380460000     1.6647240000
   20      H      -1.2948950000    -2.4785460000     0.3065240000
   21      H       1.9194050000     1.6622540000     2.3461240000
 ----------------------------------------------------------------
 Nuclear Repulsion Energy =        1096.74544149 hartrees
 There are       59 alpha and       59 beta electrons
 Requested basis set is cc-pVTZ
 There are 186 shells and 526 basis functions

 Total QAlloc Memory Limit 110000 MB
 Mega-Array Size       188 MB
 MEM_STATIC part       192 MB
 Discretize the solute cavity surface with Lebedev spheres
	Using 110 Lebedev grid points for each H atom
	Using 194 Lebedev grid points for other atoms
	Atomic van der Waals radii will be scaled by 1.20
 Remove points where switching function is < 1.0e-08
 Keep 1535 surface tesserae and discard 1951 interior tesserae
 Molecular Surface Area = 239.934 Angst**2
 Requested basis set is rimp2-cc-pVTZ
 There are 410 shells and 1426 basis functions
 A cutoff of  1.0D-10 yielded  11785 shell pairs
 There are     92541 function pairs (    121127 Cartesian)
 Smallest overlap matrix eigenvalue = 6.15E-05

 Scale SEOQF with 1.000000e-01/1.000000e-01/1.000000e-02

 Standard Electronic Orientation quadrupole field applied
 Nucleus-field energy     =     0.0000000108 hartrees
 Guess from superposition of atomic densities
 Warning:  Energy on first SCF cycle will be non-variational
 SAD guess density has 118.000000 electrons

 -----------------------------------------------------------------------
  General SCF calculation program by
  Eric Jon Sundstrom, Paul Horn, Yuezhi Mao, Dmitri Zuev, Alec White,
  David Stuck, Shaama M.S., Shane Yost, Joonho Lee, David Small,
  Daniel Levine, Susi Lehtola, Hugh Burton, Evgeny Epifanovsky,
  Bang C. Huynh
 -----------------------------------------------------------------------
 Hartree-Fock
 using 64 threads for integral computing
 -------------------------------------------------------
 OpenMP Integral computing Module                
 Release: version 1.0, May 2013, Q-Chem Inc. Pittsburgh 
 -------------------------------------------------------
 A restricted SCF calculation will be
 performed using DIIS
 SCF converges when DIIS error is below 1.0e-06
 ---------------------------------------
  Cycle       Energy         DIIS error
 ---------------------------------------
    1   -1394.6560536032      2.54e-02  
    2   -1388.9523457307      2.52e-03  
    3   -1389.1255776913      1.61e-03  
    4   -1389.1903344050      3.51e-04  
    5   -1389.1961489455      1.12e-04  
    6   -1389.1968447010      3.73e-05  
    7   -1389.1969946347      1.91e-05  
    8   -1389.1970494897      8.23e-06  
    9   -1389.1970642290      4.22e-06  
   10   -1389.1970674670      1.75e-06  
   11   -1389.1970681287      7.20e-07  Convergence criterion met
 ---------------------------------------
 SCF time:   CPU 1771.70s  wall 54.00s 

************** Final PCM Free Energy Summary **************
 G_electrostatic  =      -0.01276988 hartree =      -8.01322044 kcal/mol
 G_cavitation     =       0.00000000 hartree =       0.00000000 kcal/mol
 G_dispersion     =       0.00000000 hartree =       0.00000000 kcal/mol
 G_repulsion      =       0.00000000 hartree =       0.00000000 kcal/mol
 --------------------------------------------------
 Non-electrostatic Free Energy =       0.00000000 hartree =       0.00000000 kcal/mol
 Total                         =      -0.01276988 hartree =      -8.01322044 kcal/mol
 --------------------------------------------------
 SCF Energy (H0 + V/2)                       =   -1389.19706813 
 Solute Internal Energy (H0)                 =   -1389.18429825 
 Total Free Energy (H0 + V/2 + non-elec)     =   -1389.19706813 hartree
                                             = -871734.31733622 kcal/mol
***********************************************************

 SCF   energy in the final basis set =    -1389.1970681287
 Total energy in the final basis set =    -1389.1970681287


 --------------------------------------------------------------
  Generalized many-body perturbation theory program
  by Joonho Lee, Fazle Rob, Xintian Feng, Evgeny Epifanovsky

 No regularization used 
 (reg. param. = 0.0000e+00)
  (P|Q)^-1/2 Time:  CPU 32.02 s  wall 0.51 s

 In RI-MP2 calculation: 
 # of frozen core orbitals: 22

 Components of the RIMP2 correlation energy:
        aaaa    correlation energy =        -0.3326443481 a.u.
        abab    correlation energy =        -1.8577064112 a.u.
        bbbb    correlation energy =        -0.3326443481 a.u.
        non-Brillouin singles      =        -0.0000000000 a.u.
        total same-spin energy     =        -0.6652886962 a.u.
        total opposite-spin energy =        -1.8577064112 a.u.

 Total  RIMP2   correlation energy =        -2.5229951074 a.u.
        RIMP2         total energy =     -1391.7200632361 a.u.

 RI-MP2 Energy Time:  CPU 186.42 s  wall 3.09 s
 
 --------------------------------------------------------------
 
                    Orbital Energies (a.u.)
 --------------------------------------------------------------
 
 Alpha MOs
 -- Occupied --
-92.0094 -91.9968 -26.3338 -20.6123 -20.5506 -11.4106 -11.3743 -11.2984
-11.2972 -11.2944 -11.2892 -11.2887 -11.2733 -11.2212  -9.0081  -9.0006
 -6.6888  -6.6880  -6.6878  -6.6818  -6.6812  -6.6799  -1.6469  -1.4721
 -1.3676  -1.2329  -1.1531  -1.0704  -1.0285  -1.0019  -0.9705  -0.9058
 -0.8655  -0.7959  -0.7867  -0.7701  -0.7278  -0.7156  -0.6969  -0.6788
 -0.6771  -0.6710  -0.6081  -0.6060  -0.5992  -0.5915  -0.5849  -0.5620
 -0.5289  -0.5269  -0.5081  -0.4881  -0.4771  -0.4623  -0.4609  -0.4564
 -0.3816  -0.3436  -0.2798
 -- Virtual --
  0.0161   0.1131   0.1402   0.1554   0.1583   0.1710   0.1827   0.1965
  0.1986   0.2131   0.2182   0.2262   0.2271   0.2336   0.2576   0.2714
  0.2823   0.2958   0.3100   0.3347   0.3459   0.3527   0.3696   0.3757
  0.3808   0.3854   0.4014   0.4091   0.4181   0.4221   0.4357   0.4367
  0.4480   0.4592   0.4671   0.4793   0.4972   0.5023   0.5093   0.5208
  0.5265   0.5282   0.5470   0.5533   0.5594   0.5634   0.5782   0.5878
  0.5978   0.5989   0.6014   0.6128   0.6181   0.6238   0.6268   0.6301
  0.6376   0.6386   0.6490   0.6642   0.6695   0.6861   0.6931   0.6995
  0.7103   0.7214   0.7355   0.7541   0.7680   0.7866   0.7875   0.7975
  0.8022   0.8102   0.8252   0.8423   0.8471   0.8603   0.8716   0.8840
  0.8954   0.9063   0.9158   0.9227   0.9384   0.9416   0.9644   0.9711
  0.9882   0.9985   1.0058   1.0113   1.0240   1.0398   1.0560   1.0629
  1.0700   1.0744   1.0862   1.0903   1.1008   1.1133   1.1258   1.1454
  1.1567   1.1585   1.1644   1.1771   1.1807   1.1978   1.2028   1.2172
  1.2250   1.2349   1.2444   1.2623   1.2722   1.2878   1.3049   1.3104
  1.3178   1.3399   1.3434   1.3535   1.3671   1.3709   1.3808   1.4065
  1.4203   1.4348   1.4444   1.4512   1.4716   1.4840   1.5042   1.5107
  1.5134   1.5162   1.5342   1.5485   1.5616   1.5785   1.5916   1.6024
  1.6172   1.6459   1.6505   1.6611   1.6836   1.7028   1.7194   1.7315
  1.7540   1.7595   1.7755   1.8071   1.8263   1.8324   1.8443   1.8558
  1.8673   1.8696   1.8721   1.9236   1.9287   1.9429   1.9437   1.9813
  1.9969   2.0182   2.0237   2.0332   2.0553   2.0987   2.1035   2.1221
  2.1394   2.1433   2.1582   2.1587   2.1912   2.1963   2.2108   2.2327
  2.2434   2.2604   2.2630   2.2804   2.2901   2.3001   2.3374   2.3452
  2.3608   2.3793   2.4017   2.4063   2.4400   2.4603   2.4843   2.5134
  2.5257   2.5302   2.5576   2.5833   2.5962   2.6130   2.6172   2.6275
  2.6402   2.6538   2.6672   2.6837   2.6896   2.6991   2.7204   2.7263
  2.7384   2.7449   2.7663   2.7799   2.7811   2.8145   2.8179   2.8393
  2.8668   2.8786   2.8828   2.8924   2.9158   2.9325   2.9440   2.9608
  2.9814   2.9883   3.0108   3.0280   3.0429   3.0439   3.0577   3.0615
  3.0818   3.0911   3.0916   3.1096   3.1241   3.1424   3.1512   3.1670
  3.1769   3.1913   3.1995   3.2034   3.2075   3.2149   3.2388   3.2527
  3.2551   3.2667   3.2869   3.2915   3.2956   3.3036   3.3065   3.3335
  3.3406   3.3508   3.3634   3.3658   3.3765   3.3984   3.4117   3.4161
  3.4325   3.4449   3.4473   3.4607   3.4706   3.4795   3.4901   3.5060
  3.5148   3.5339   3.5520   3.5568   3.5655   3.5730   3.5831   3.5956
  3.6030   3.6105   3.6252   3.6337   3.6450   3.6564   3.6690   3.6709
  3.6902   3.6932   3.7092   3.7138   3.7274   3.7296   3.7408   3.7521
  3.7594   3.7968   3.8070   3.8141   3.8269   3.8325   3.8365   3.8430
  3.8618   3.8750   3.8852   3.9045   3.9159   3.9390   3.9474   3.9506
  3.9676   3.9823   3.9917   4.0182   4.0300   4.0530   4.0576   4.0695
  4.0803   4.0856   4.0976   4.1180   4.1348   4.1699   4.1733   4.1859
  4.2047   4.2281   4.2505   4.2641   4.2907   4.2975   4.3301   4.3477
  4.3609   4.3764   4.3803   4.3970   4.4045   4.4234   4.4379   4.4820
  4.4892   4.4995   4.5029   4.5235   4.5480   4.5733   4.5871   4.6026
  4.6293   4.6373   4.6536   4.6597   4.6784   4.7082   4.7204   4.7252
  4.7772   4.7876   4.8002   4.8425   4.8766   4.8894   4.9136   4.9295
  4.9760   5.0096   5.0113   5.0195   5.0570   5.1033   5.1170   5.1614
  5.1742   5.1865   5.2004   5.2219   5.2541   5.2589   5.3176   5.3426
  5.3551   5.3711   5.3993   5.4130   5.4729   5.4758   5.4869   5.5019
  5.5353   5.5768   5.6167   5.6234   5.6379   5.6973   5.7254   5.8006
  5.8220   5.8369   5.8466   5.9028   5.9341   5.9643   5.9698   5.9824
  6.0198   6.0844   6.1205   6.1334   6.1850   6.3084   6.3527   6.4037
  6.4738   6.5039   6.5562   6.6576   6.6765   6.7306   6.7393   6.8600
  6.8817   6.9895   7.1782   7.2101   7.3261   7.3734   7.3759   7.4257
  7.4625   7.4872   7.5176   7.5482   7.6043   7.7714   7.8307   7.9028
  8.0040   8.1158   8.3850   8.9293   9.0085   9.3641   9.4964   9.6886
 10.2183  11.2141  11.9261  12.0246  12.3231  12.6179  13.1642  13.5196
 13.8192  14.0891  14.3976
 --------------------------------------------------------------
 
          Ground-State Mulliken Net Atomic Charges

     Atom                 Charge (a.u.)
  ----------------------------------------
      1 C                    -0.068636
      2 S                     0.114741
      3 C                    -0.224741
      4 C                    -0.037513
      5 C                    -0.017710
      6 C                     0.348760
      7 C                    -0.151035
      8 S                     0.052185
      9 C                     0.457955
     10 O                    -0.449550
     11 O                    -0.297997
     12 F                    -0.211364
     13 C                    -0.054600
     14 H                     0.116622
     15 H                     0.084551
     16 H                     0.084306
     17 C                    -0.373523
     18 H                     0.129049
     19 H                     0.159354
     20 H                     0.126480
     21 H                     0.212665
  ----------------------------------------
  Sum of atomic charges =     0.000000

 -----------------------------------------------------------------
                    Cartesian Multipole Moments
 -----------------------------------------------------------------
    Charge (ESU x 10^10)
                -0.0000
    Dipole Moment (Debye)
         X       3.4998      Y       0.9691      Z       2.9775
       Tot       4.6961
    Quadrupole Moments (Debye-Ang)
        XX     -91.6191     XY       4.3595     YY     -89.1018
        XZ      -6.6854     YZ      -7.1349     ZZ     -95.0911
    Octopole Moments (Debye-Ang^2)
       XXX    -187.8970    XXY     -35.8760    XYY     -55.3622
       YYY    -149.6745    XXZ      66.4803    XYZ     -11.6352
       YYZ      73.6293    XZZ       6.3098    YZZ       9.7318
       ZZZ     253.8290
    Hexadecapole Moments (Debye-Ang^3)
      XXXX    -994.1886   XXXY    -374.5199   XXYY    -301.4285
      XYYY    -391.9800   YYYY    -938.0061   XXXZ     499.9545
      XXYZ     131.8524   XYYZ     156.0830   YYYZ     464.3171
      XXZZ    -659.2189   XYZZ       4.4055   YYZZ    -691.1595
      XZZZ     219.9043   YZZZ     224.4067   ZZZZ   -3759.4425
 -----------------------------------------------------------------
 Total job time:  59.30s(wall), 2019.42s(cpu) 
 Sun Sep 24 17:24:33 2023

        *************************************************************
        *                                                           *
        *  Thank you very much for using Q-Chem.  Have a nice day.  *
        *                                                           *
        *************************************************************


0 sent ACK to 0 
now end server 0 ... 
cleanup process ... done
remove work dirs ./qchem1288427.0 -- ./qchem1288427.0
rm -rf ./qchem1288427.0
rm -rf ./qchem1288427
