You are running Q-Chem version: 5.4.0

#
# job setting
#
local host:  exp-10-41
current dir: /expanse/lustre/projects/csd626/rramji/aromodel/PTB7_fin/Hydrogenated_Impropers_Test
input file:  fin_bdt_Phi_60_Theta_110_fin_ftt_Hydrogenated_Improper.qcin
output file: 
nprocs     : 1
nthreads   : 64
#
# qchem installation setting
#
QC:          /cm/shared/apps/spack/cpu/opt/spack/linux-centos8-zen2/gcc-10.2.0/qchem-5.4-akfmr7b3t57bfs6qan3padb2wnb2i7cl
QCAUX:       /cm/shared/apps/spack/cpu/opt/spack/linux-centos8-zen2/gcc-10.2.0/qchem-5.4-akfmr7b3t57bfs6qan3padb2wnb2i7cl/qcaux
QCPROG:      /cm/shared/apps/spack/cpu/opt/spack/linux-centos8-zen2/gcc-10.2.0/qchem-5.4-akfmr7b3t57bfs6qan3padb2wnb2i7cl/exe/qcprog.exe
QCPROG_S:    /cm/shared/apps/spack/cpu/opt/spack/linux-centos8-zen2/gcc-10.2.0/qchem-5.4-akfmr7b3t57bfs6qan3padb2wnb2i7cl/exe/qcprog.exe_s
PARALLEL:    -DPARALLEL
QCMPI:       mpich
#
# qchem directory setting
#
qcrun:       qchem3721282
QCSCRATCH:   .
QCLOCALSCR:  
QCTMPDIR:    .
QCFILEPREF:  ./qchem3721282
QCSAVEDIR:   
workdirs:    ./qchem3721282
workdir0:    ./qchem3721282
partmpdirs =  
#
# parallel setting
#
QCRSH:           ssh
QCMPI:           mpich
QCMPIRUN:        /cm/shared/apps/spack/cpu/opt/spack/linux-centos8-zen2/gcc-10.2.0/qchem-5.4-akfmr7b3t57bfs6qan3padb2wnb2i7cl/bin/mpi/mpirun_qchem
QCMACHINEFILE:   ./qchem3721282/hostfile
exp-10-41

#
# env setting
#
exported envs:   QC QCAUX QCSCRATCH QCRUNNAME QCFILEPREF QCPROG QCPROG_S GUIFILE

Running Job 1 of 1 fin_bdt_Phi_60_Theta_110_fin_ftt_Hydrogenated_Improper.qcin
qchem fin_bdt_Phi_60_Theta_110_fin_ftt_Hydrogenated_Improper.qcin_3721282.0 ./qchem3721282/ 1
/cm/shared/apps/spack/cpu/opt/spack/linux-centos8-zen2/gcc-10.2.0/qchem-5.4-akfmr7b3t57bfs6qan3padb2wnb2i7cl/bin/mpi/mpirun_qchem -machinefile ./qchem3721282/hostfile -np 1 /cm/shared/apps/spack/cpu/opt/spack/linux-centos8-zen2/gcc-10.2.0/qchem-5.4-akfmr7b3t57bfs6qan3padb2wnb2i7cl/exe/qcprog.exe fin_bdt_Phi_60_Theta_110_fin_ftt_Hydrogenated_Improper.qcin_3721282.0 ./qchem3721282/

Process 0 of 1 is on exp-10-41 - thread support 0
initial socket setup ...start
initial socket setup ...done 
now start server 0 ... 
                  Welcome to Q-Chem
     A Quantum Leap Into The Future Of Chemistry


 Q-Chem 5.4, Q-Chem, Inc., Pleasanton, CA (2021)

 License issued to: University of California, San Diego (site)

 E. Epifanovsky,  A. T. B. Gilbert,  Xintian Feng,  Joonho Lee,  Yuezhi Mao,  
 N. Mardirossian,  P. Pokhilko,  A. White,  M. Wormit,  M. P. Coons,  
 A. L. Dempwolff,  Zhengting Gan,  D. Hait,  P. R. Horn,  L. D. Jacobson,  
 I. Kaliman,  J. Kussmann,  A. W. Lange,  Ka Un Lao,  D. S. Levine,  Jie Liu,  
 S. C. McKenzie,  A. F. Morrison,  K. Nanda,  F. Plasser,  D. R. Rehn,  
 M. L. Vidal,  Zhi-Qiang You,  Ying Zhu,  B. Alam,  B. Albrecht,  
 A. Aldossary,  E. Alguire,  J. H. Andersen,  D. Barton,  K. Begam,  A. Behn,  
 Y. A. Bernard,  E. J. Berquist,  H. Burton,  A. Carreras,  K. Carter-Fenk,  
 R. Chakraborty,  A. D. Chien,  K. D. Closser,  V. Cofer-Shabica,  
 S. Dasgupta,  Jia Deng,  M. de Wergifosse,  M. Diedenhofen,  Hainam Do,  
 S. Ehlert,  Po-Tung Fang,  S. Fatehi,  Qingguo Feng,  J. Gayvert,  
 Qinghui Ge,  G. Gidofalvi,  M. Goldey,  J. Gomes,  C. Gonzalez-Espinoza,  
 S. Gulania,  A. Gunina,  M. W. D. Hanson-Heine,  P. H. P. Harbach,  
 A. W. Hauser,  M. F. Herbst,  M. Hernandez Vera,  M. Hodecker,  
 Z. C. Holden,  S. Houck,  Xunkun Huang,  Kerwin Hui,  B. C. Huynh,  
 M. Ivanov,  Hyunjun Ji,  Hanjie Jiang,  B. Kaduk,  S. Kaehler,  
 K. Khistyaev,  Jaehoon Kim,  P. Klunzinger,  Z. Koczor-Benda,  
 Joong Hoon Koh,  D. Kosenkov,  L. Koulias,  T. Kowalczyk,  C. M. Krauter,  
 K. Kue,  A. Kunitsa,  T. Kus,  A. Landau,  K. V. Lawler,  D. Lefrancois,  
 S. Lehtola,  Rain Li,  Yi-Pei Li,  Jiashu Liang,  M. Liebenthal,  
 Hung-Hsuan Lin,  You-Sheng Lin,  Fenglai Liu,  Kuan-Yu Liu,  
 M. Loipersberger,  A. Luenser,  A. Manjanath,  P. Manohar,  E. Mansoor,  
 S. F. Manzer,  Shan-Ping Mao,  A. V. Marenich,  T. Markovich,  S. Mason,  
 S. A. Maurer,  P. F. McLaughlin,  M. F. S. J. Menger,  J.-M. Mewes,  
 S. A. Mewes,  P. Morgante,  J. W. Mullinax,  T. S. Nguyen-Beck,  
 K. J. Oosterbaan,  G. Paran,  Alexander C. Paul,  Suranjan K. Paul,  
 F. Pavosevic,  Zheng Pei,  S. Prager,  E. I. Proynov,  E. Ramos,  B. Rana,  
 A. E. Rask,  A. Rettig,  R. M. Richard,  F. Rob,  E. Rossomme,  T. Scheele,  
 M. Scheurer,  M. Schneider,  N. Sergueev,  S. M. Sharada,  W. Skomorowski,  
 D. W. Small,  C. J. Stein,  Yu-Chuan Su,  E. J. Sundstrom,  Zhen Tao,  
 J. Thirman,  T. Tsuchimochi,  N. M. Tubman,  S. P. Veccham,  O. Vydrov,  
 J. Wenzel,  J. Witte,  A. Yamada,  Kun Yao,  S. Yeganeh,  S. R. Yost,  
 A. Zech,  Igor Ying Zhang,  Xing Zhang,  Yu Zhang,  D. Zuev,  
 A. Aspuru-Guzik,  A. T. Bell,  N. A. Besley,  K. B. Bravaya,  B. R. Brooks,  
 D. Casanova,  Jeng-Da Chai,  S. Coriani,  C. J. Cramer,  
 A. E. DePrince, III,  R. A. DiStasio Jr.,  A. Dreuw,  B. D. Dunietz,  
 T. R. Furlani,  W. A. Goddard III,  S. Grimme,  S. Hammes-Schiffer,  
 T. Head-Gordon,  W. J. Hehre,  Chao-Ping Hsu,  T.-C. Jagau,  Yousung Jung,  
 A. Klamt,  Jing Kong,  D. S. Lambrecht,  WanZhen Liang,  N. J. Mayhall,  
 C. W. McCurdy,  J. B. Neaton,  C. Ochsenfeld,  J. A. Parkhill,  R. Peverati,  
 V. A. Rassolov,  Yihan Shao,  L. V. Slipchenko,  T. Stauch,  R. P. Steele,  
 J. E. Subotnik,  A. J. W. Thom,  A. Tkatchenko,  D. G. Truhlar,  
 T. Van Voorhis,  T. A. Wesolowski,  K. B. Whaley,  H. L. Woodcock III,  
 P. M. Zimmerman,  S. Faraji,  P. M. W. Gill,  M. Head-Gordon,  
 J. M. Herbert,  A. I. Krylov

 Contributors to earlier versions of Q-Chem not listed above: 
 R. D. Adamson,  B. Austin,  R. Baer,  J. Baker,  G. J. O. Beran,  
 K. Brandhorst,  S. T. Brown,  E. F. C. Byrd,  A. K. Chakraborty,  
 G. K. L. Chan,  Chun-Min Chang,  Yunqing Chen,  C.-L. Cheng,  
 Siu Hung Chien,  D. M. Chipman,  D. L. Crittenden,  H. Dachsel,  
 R. J. Doerksen,  A. D. Dutoi,  R. G. Edgar,  J. Fosso-Tande,  
 L. Fusti-Molnar,  D. Ghosh,  A. Ghysels,  A. Golubeva-Zadorozhnaya,  
 J. Gonthier,  M. S. Gordon,  S. R. Gwaltney,  G. Hawkins,  J. E. Herr,  
 A. Heyden,  S. Hirata,  E. G. Hohenstein,  G. Kedziora,  F. J. Keil,  
 C. Kelley,  Jihan Kim,  R. A. King,  R. Z. Khaliullin,  P. P. Korambath,  
 W. Kurlancheek,  A. Laurent,  A. M. Lee,  M. S. Lee,  S. V. Levchenko,  
 Ching Yeh Lin,  D. Liotard,  E. Livshits,  R. C. Lochan,  I. Lotan,  
 L. A. Martinez-Martinez,  P. E. Maslen,  N. Nair,  D. P. O'Neill,  
 D. Neuhauser,  E. Neuscamman,  C. M. Oana,  R. Olivares-Amaya,  R. Olson,  
 T. M. Perrine,  B. Peters,  P. A. Pieniazek,  A. Prociuk,  Y. M. Rhee,  
 J. Ritchie,  M. A. Rohrdanz,  E. Rosta,  N. J. Russ,  H. F. Schaefer III,  
 M. W. Schmidt,  N. E. Schultz,  S. Sharma,  N. Shenvi,  C. D. Sherrill,  
 A. C. Simmonett,  A. Sodt,  T. Stein,  D. Stuck,  K. S. Thanthiriwatte,  
 V. Vanovschi,  L. Vogt,  Tao Wang,  A. Warshel,  M. A. Watson,  
 C. F. Williams,  Q. Wu,  X. Xu,  Jun Yang,  W. Zhang,  Yan Zhao

 Please cite Q-Chem as follows:
 Y. Shao et al., Mol. Phys. 113, 184-215 (2015)
 DOI: 10.1080/00268976.2014.952696

 Q-Chem 5.4.0 for Intel X86 EM64T Linux

 Parts of Q-Chem use Armadillo 9.800.1 (Horizon Scraper).
 http://arma.sourceforge.net/

 Q-Chem begins on Sun Sep 24 17:01:23 2023  

 Host: 
0

     Scratch files written to ./qchem3721282//
 May1621 |scratch|qcdevops|jenkins|workspace|build_RNUM    
 Parallel job on  1  processors
 Processing $rem in /cm/shared/apps/spack/cpu/opt/spack/linux-centos8-zen2/gcc-10.2.0/qchem-5.4-akfmr7b3t57bfs6qan3padb2wnb2i7cl/config/preferences:
 Processing $rem in /home/rramji/.qchemrc:
 Symmetry turned off for PCM/SM12/SMD calculation
 Core orbitals will be frozen

 Checking the input file for inconsistencies... 	...done.

 Q-Chem warning in module forms1/BasisType.C, line 2236:

 You are not using the predefined 5D/6D in this basis set.


--------------------------------------------------------------
User input:
--------------------------------------------------------------
$molecule
0 1
C	-0.768080	-0.392188	1.020627
S	0.011920	0.055612	2.531327
C	1.375720	0.844212	1.748227
C	0.018420	0.061912	-0.044073
C	1.220420	0.757612	0.342327
C	-0.038180	0.027312	-1.465473
C	1.057120	0.659812	-2.086273
S	2.135820	1.286512	-0.945073
C	1.279820	0.783012	-3.539373
O	0.472920	0.313712	-4.329673
O	2.392720	1.421812	-3.983773
F	-1.001080	-0.533088	-2.225673
C	2.708420	1.592412	-5.314373
H	3.665620	2.144312	-5.349673
H	1.925720	2.169312	-5.854973
H	2.820120	0.618912	-5.841273
C	-0.768080	-1.827388	1.020627
H	-1.129480	-1.836388	2.038327
H	-1.553680	-2.511288	0.735127
H	0.121820	-2.351788	1.336027
H	2.172520	1.304112	2.342127
$end

$rem
JOBTYPE		SP
EXCHANGE	HF
CORRELATION	pRIMP2
BASIS		cc-pvtz
METHOD		rimp2
AUX_BASIS	rimp2-cc-pvtz
SOLVENT_METHOD	PCM
PURECART	11111
SYMMETRY	false
MEM_TOTAL	110000
SCF_CONVERGENCE = 6
THRESH=10
GUI = 2
$end



$solvent
dielectric 4.90
$end
--------------------------------------------------------------
 ----------------------------------------------------------------
             Standard Nuclear Orientation (Angstroms)
    I     Atom           X                Y                Z
 ----------------------------------------------------------------
    1      C      -0.7680800000    -0.3921880000     1.0206270000
    2      S       0.0119200000     0.0556120000     2.5313270000
    3      C       1.3757200000     0.8442120000     1.7482270000
    4      C       0.0184200000     0.0619120000    -0.0440730000
    5      C       1.2204200000     0.7576120000     0.3423270000
    6      C      -0.0381800000     0.0273120000    -1.4654730000
    7      C       1.0571200000     0.6598120000    -2.0862730000
    8      S       2.1358200000     1.2865120000    -0.9450730000
    9      C       1.2798200000     0.7830120000    -3.5393730000
   10      O       0.4729200000     0.3137120000    -4.3296730000
   11      O       2.3927200000     1.4218120000    -3.9837730000
   12      F      -1.0010800000    -0.5330880000    -2.2256730000
   13      C       2.7084200000     1.5924120000    -5.3143730000
   14      H       3.6656200000     2.1443120000    -5.3496730000
   15      H       1.9257200000     2.1693120000    -5.8549730000
   16      H       2.8201200000     0.6189120000    -5.8412730000
   17      C      -0.7680800000    -1.8273880000     1.0206270000
   18      H      -1.1294800000    -1.8363880000     2.0383270000
   19      H      -1.5536800000    -2.5112880000     0.7351270000
   20      H       0.1218200000    -2.3517880000     1.3360270000
   21      H       2.1725200000     1.3041120000     2.3421270000
 ----------------------------------------------------------------
 Nuclear Repulsion Energy =        1097.25656589 hartrees
 There are       59 alpha and       59 beta electrons
 Requested basis set is cc-pVTZ
 There are 186 shells and 526 basis functions

 Total QAlloc Memory Limit 110000 MB
 Mega-Array Size       188 MB
 MEM_STATIC part       192 MB
 Discretize the solute cavity surface with Lebedev spheres
	Using 110 Lebedev grid points for each H atom
	Using 194 Lebedev grid points for other atoms
	Atomic van der Waals radii will be scaled by 1.20
 Remove points where switching function is < 1.0e-08
 Keep 1537 surface tesserae and discard 1949 interior tesserae
 Molecular Surface Area = 239.349 Angst**2
 Requested basis set is rimp2-cc-pVTZ
 There are 410 shells and 1426 basis functions
 A cutoff of  1.0D-10 yielded  11684 shell pairs
 There are     91890 function pairs (    120300 Cartesian)
 Smallest overlap matrix eigenvalue = 6.26E-05

 Scale SEOQF with 1.000000e-01/1.000000e-01/1.000000e-02

 Standard Electronic Orientation quadrupole field applied
 Nucleus-field energy     =     0.0000000085 hartrees
 Guess from superposition of atomic densities
 Warning:  Energy on first SCF cycle will be non-variational
 SAD guess density has 118.000000 electrons

 -----------------------------------------------------------------------
  General SCF calculation program by
  Eric Jon Sundstrom, Paul Horn, Yuezhi Mao, Dmitri Zuev, Alec White,
  David Stuck, Shaama M.S., Shane Yost, Joonho Lee, David Small,
  Daniel Levine, Susi Lehtola, Hugh Burton, Evgeny Epifanovsky,
  Bang C. Huynh
 -----------------------------------------------------------------------
 Hartree-Fock
 using 64 threads for integral computing
 -------------------------------------------------------
 OpenMP Integral computing Module                
 Release: version 1.0, May 2013, Q-Chem Inc. Pittsburgh 
 -------------------------------------------------------
 A restricted SCF calculation will be
 performed using DIIS
 SCF converges when DIIS error is below 1.0e-06
 ---------------------------------------
  Cycle       Energy         DIIS error
 ---------------------------------------
    1   -1394.6873204701      2.55e-02  
    2   -1388.9292935556      2.55e-03  
    3   -1389.1039403436      1.66e-03  
    4   -1389.1740076215      3.55e-04  
    5   -1389.1800451859      1.14e-04  
    6   -1389.1808014708      3.93e-05  
    7   -1389.1809723279      2.01e-05  
    8   -1389.1810398045      9.06e-06  
    9   -1389.1810595658      4.81e-06  
   10   -1389.1810640549      2.04e-06  
   11   -1389.1810650078      9.03e-07  Convergence criterion met
 ---------------------------------------
 SCF time:   CPU 1744.36s  wall 54.00s 

************** Final PCM Free Energy Summary **************
 G_electrostatic  =      -0.01361661 hartree =      -8.54455273 kcal/mol
 G_cavitation     =       0.00000000 hartree =       0.00000000 kcal/mol
 G_dispersion     =       0.00000000 hartree =       0.00000000 kcal/mol
 G_repulsion      =       0.00000000 hartree =       0.00000000 kcal/mol
 --------------------------------------------------
 Non-electrostatic Free Energy =       0.00000000 hartree =       0.00000000 kcal/mol
 Total                         =      -0.01361661 hartree =      -8.54455273 kcal/mol
 --------------------------------------------------
 SCF Energy (H0 + V/2)                       =   -1389.18106501 
 Solute Internal Energy (H0)                 =   -1389.16744840 
 Total Free Energy (H0 + V/2 + non-elec)     =   -1389.18106501 hartree
                                             = -871724.27522625 kcal/mol
***********************************************************

 SCF   energy in the final basis set =    -1389.1810650078
 Total energy in the final basis set =    -1389.1810650078


 --------------------------------------------------------------
  Generalized many-body perturbation theory program
  by Joonho Lee, Fazle Rob, Xintian Feng, Evgeny Epifanovsky

 No regularization used 
 (reg. param. = 0.0000e+00)
  (P|Q)^-1/2 Time:  CPU 47.67 s  wall 0.79 s

 In RI-MP2 calculation: 
 # of frozen core orbitals: 22

 Components of the RIMP2 correlation energy:
        aaaa    correlation energy =        -0.3326802818 a.u.
        abab    correlation energy =        -1.8581819390 a.u.
        bbbb    correlation energy =        -0.3326802818 a.u.
        non-Brillouin singles      =        -0.0000000000 a.u.
        total same-spin energy     =        -0.6653605636 a.u.
        total opposite-spin energy =        -1.8581819390 a.u.

 Total  RIMP2   correlation energy =        -2.5235425026 a.u.
        RIMP2         total energy =     -1391.7046075104 a.u.

 RI-MP2 Energy Time:  CPU 200.42 s  wall 3.35 s
 
 --------------------------------------------------------------
 
                    Orbital Energies (a.u.)
 --------------------------------------------------------------
 
 Alpha MOs
 -- Occupied --
-92.0065 -92.0001 -26.3318 -20.6142 -20.5545 -11.4137 -11.3721 -11.3167
-11.3064 -11.2936 -11.2896 -11.2816 -11.2626 -11.2158  -9.0060  -9.0037
 -6.6866  -6.6857  -6.6856  -6.6849  -6.6843  -6.6830  -1.6450  -1.4743
 -1.3703  -1.2349  -1.1556  -1.0683  -1.0335  -1.0008  -0.9722  -0.9018
 -0.8696  -0.7990  -0.7869  -0.7741  -0.7297  -0.7141  -0.6971  -0.6802
 -0.6732  -0.6730  -0.6114  -0.6089  -0.6012  -0.5895  -0.5776  -0.5614
 -0.5296  -0.5287  -0.5089  -0.4857  -0.4649  -0.4633  -0.4597  -0.4511
 -0.3846  -0.3410  -0.2928
 -- Virtual --
  0.0076   0.1101   0.1321   0.1536   0.1571   0.1723   0.1854   0.1915
  0.2066   0.2166   0.2193   0.2249   0.2282   0.2483   0.2580   0.2623
  0.2810   0.2903   0.3088   0.3376   0.3412   0.3566   0.3655   0.3693
  0.3766   0.3801   0.3892   0.4037   0.4131   0.4206   0.4322   0.4362
  0.4522   0.4661   0.4719   0.4807   0.4964   0.5043   0.5129   0.5210
  0.5264   0.5334   0.5388   0.5524   0.5559   0.5654   0.5685   0.5758
  0.5890   0.5978   0.6036   0.6097   0.6168   0.6236   0.6247   0.6351
  0.6438   0.6442   0.6535   0.6681   0.6748   0.6879   0.6966   0.7084
  0.7111   0.7358   0.7430   0.7542   0.7589   0.7755   0.7812   0.7909
  0.7967   0.8114   0.8154   0.8304   0.8509   0.8738   0.8753   0.8849
  0.8930   0.9048   0.9157   0.9255   0.9394   0.9591   0.9647   0.9714
  0.9881   0.9943   1.0008   1.0168   1.0221   1.0400   1.0477   1.0571
  1.0662   1.0776   1.0819   1.0954   1.1091   1.1182   1.1353   1.1387
  1.1537   1.1619   1.1637   1.1774   1.1818   1.1975   1.2118   1.2181
  1.2349   1.2390   1.2514   1.2679   1.2839   1.2938   1.3038   1.3093
  1.3237   1.3377   1.3411   1.3527   1.3658   1.3741   1.3793   1.4060
  1.4106   1.4185   1.4417   1.4587   1.4689   1.4870   1.4945   1.5077
  1.5108   1.5127   1.5438   1.5598   1.5651   1.5799   1.5898   1.5976
  1.6078   1.6416   1.6463   1.6580   1.6721   1.6943   1.7093   1.7269
  1.7458   1.7584   1.7698   1.8064   1.8277   1.8309   1.8354   1.8487
  1.8654   1.8662   1.9049   1.9224   1.9263   1.9372   1.9405   1.9724
  1.9841   2.0143   2.0247   2.0379   2.0675   2.0849   2.0963   2.1255
  2.1317   2.1389   2.1457   2.1546   2.1906   2.1941   2.2076   2.2312
  2.2372   2.2560   2.2681   2.2766   2.2852   2.2890   2.3351   2.3444
  2.3634   2.3824   2.3974   2.4167   2.4372   2.4610   2.4836   2.5124
  2.5209   2.5292   2.5605   2.5813   2.5991   2.6096   2.6227   2.6265
  2.6495   2.6589   2.6726   2.6758   2.6969   2.7079   2.7205   2.7283
  2.7340   2.7484   2.7664   2.7853   2.8082   2.8206   2.8308   2.8491
  2.8640   2.8747   2.8860   2.8990   2.9103   2.9376   2.9387   2.9581
  2.9796   3.0119   3.0208   3.0274   3.0353   3.0434   3.0555   3.0661
  3.0889   3.0968   3.1109   3.1254   3.1307   3.1328   3.1535   3.1616
  3.1658   3.1909   3.1986   3.2033   3.2076   3.2213   3.2315   3.2459
  3.2587   3.2678   3.2790   3.2870   3.2939   3.3055   3.3131   3.3281
  3.3305   3.3453   3.3595   3.3663   3.3832   3.3888   3.3988   3.4191
  3.4363   3.4382   3.4450   3.4616   3.4791   3.4792   3.4908   3.5070
  3.5173   3.5225   3.5432   3.5535   3.5596   3.5691   3.5812   3.5929
  3.6035   3.6162   3.6239   3.6475   3.6615   3.6667   3.6735   3.6788
  3.6947   3.7029   3.7142   3.7223   3.7278   3.7305   3.7494   3.7607
  3.7800   3.7867   3.7992   3.8183   3.8211   3.8271   3.8375   3.8555
  3.8605   3.8827   3.8902   3.8944   3.9205   3.9304   3.9446   3.9629
  3.9753   3.9859   3.9997   4.0088   4.0225   4.0413   4.0564   4.0715
  4.0724   4.0865   4.0892   4.1146   4.1275   4.1513   4.1717   4.1797
  4.2017   4.2121   4.2439   4.2608   4.2795   4.2960   4.3226   4.3470
  4.3744   4.3772   4.3817   4.3927   4.4183   4.4358   4.4607   4.4711
  4.4852   4.4986   4.5151   4.5369   4.5520   4.5687   4.5859   4.6137
  4.6256   4.6364   4.6487   4.6678   4.6765   4.6980   4.7171   4.7275
  4.7611   4.7835   4.7988   4.8280   4.8484   4.8694   4.9049   4.9261
  4.9744   5.0081   5.0108   5.0138   5.0465   5.0979   5.1184   5.1354
  5.1885   5.1937   5.1989   5.2249   5.2537   5.2579   5.3143   5.3467
  5.3542   5.3742   5.3937   5.4376   5.4700   5.4721   5.4940   5.5132
  5.5331   5.5759   5.6139   5.6159   5.6361   5.6730   5.7357   5.7988
  5.8254   5.8339   5.8529   5.9030   5.9535   5.9667   5.9760   5.9929
  6.0083   6.1058   6.1151   6.1322   6.1839   6.3067   6.3485   6.3968
  6.4886   6.5034   6.5538   6.6623   6.6737   6.7267   6.7373   6.8567
  6.8782   6.9862   7.1763   7.2082   7.3231   7.3751   7.3770   7.4230
  7.4606   7.4887   7.5176   7.5455   7.6010   7.7725   7.8288   7.9031
  8.0030   8.1203   8.4000   8.9298   9.0104   9.3658   9.4942   9.6798
 10.2049  11.1969  11.9209  12.0617  12.2836  12.6055  13.1222  13.4521
 13.7763  14.0711  14.4256
 --------------------------------------------------------------
 
          Ground-State Mulliken Net Atomic Charges

     Atom                 Charge (a.u.)
  ----------------------------------------
      1 C                    -0.133236
      2 S                     0.107667
      3 C                    -0.166858
      4 C                    -0.001637
      5 C                    -0.032284
      6 C                     0.349758
      7 C                    -0.132722
      8 S                     0.058217
      9 C                     0.456376
     10 O                    -0.441752
     11 O                    -0.296725
     12 F                    -0.210898
     13 C                    -0.054757
     14 H                     0.117114
     15 H                     0.085325
     16 H                     0.085030
     17 C                    -0.364142
     18 H                     0.102878
     19 H                     0.138106
     20 H                     0.116831
     21 H                     0.217710
  ----------------------------------------
  Sum of atomic charges =     0.000000

 -----------------------------------------------------------------
                    Cartesian Multipole Moments
 -----------------------------------------------------------------
    Charge (ESU x 10^10)
                -0.0000
    Dipole Moment (Debye)
         X       4.3473      Y       1.2965      Z       3.3478
       Tot       5.6381
    Quadrupole Moments (Debye-Ang)
        XX     -88.6763     XY       5.8241     YY     -91.2614
        XZ      -8.2544     YZ      -6.6442     ZZ     -92.0914
    Octopole Moments (Debye-Ang^2)
       XXX    -202.9648    XXY     -24.9312    XYY     -70.4385
       YYY    -111.5291    XXZ      64.3910    XYZ      -6.7745
       YYZ      77.9810    XZZ       9.7046    YZZ       9.4509
       ZZZ     246.3377
    Hexadecapole Moments (Debye-Ang^3)
      XXXX   -1217.9251   XXXY    -322.3219   XXYY    -298.1531
      XYYY    -355.7405   YYYY    -679.4801   XXXZ     557.9478
      XXYZ      96.5061   XYYZ     183.8810   YYYZ     382.3228
      XXZZ    -648.9414   XYZZ       7.8541   YYZZ    -691.2181
      XZZZ     245.2665   YZZZ     184.9811   ZZZZ   -3741.9493
 -----------------------------------------------------------------
 Total job time:  60.30s(wall), 2093.92s(cpu) 
 Sun Sep 24 17:02:23 2023

        *************************************************************
        *                                                           *
        *  Thank you very much for using Q-Chem.  Have a nice day.  *
        *                                                           *
        *************************************************************


0 sent ACK to 0 
now end server 0 ... 
cleanup process ... done
remove work dirs ./qchem3721282.0 -- ./qchem3721282.0
rm -rf ./qchem3721282.0
rm -rf ./qchem3721282
