You are running Q-Chem version: 5.4.0

#
# job setting
#
local host:  exp-8-29
current dir: /expanse/lustre/projects/csd626/rramji/aromodel/PTB7_fin/Hydrogenated_Impropers_Test
input file:  fin_bdt_Phi_25_Theta_330_fin_ftt_Hydrogenated_Improper.qcin
output file: 
nprocs     : 1
nthreads   : 64
#
# qchem installation setting
#
QC:          /cm/shared/apps/spack/cpu/opt/spack/linux-centos8-zen2/gcc-10.2.0/qchem-5.4-akfmr7b3t57bfs6qan3padb2wnb2i7cl
QCAUX:       /cm/shared/apps/spack/cpu/opt/spack/linux-centos8-zen2/gcc-10.2.0/qchem-5.4-akfmr7b3t57bfs6qan3padb2wnb2i7cl/qcaux
QCPROG:      /cm/shared/apps/spack/cpu/opt/spack/linux-centos8-zen2/gcc-10.2.0/qchem-5.4-akfmr7b3t57bfs6qan3padb2wnb2i7cl/exe/qcprog.exe
QCPROG_S:    /cm/shared/apps/spack/cpu/opt/spack/linux-centos8-zen2/gcc-10.2.0/qchem-5.4-akfmr7b3t57bfs6qan3padb2wnb2i7cl/exe/qcprog.exe_s
PARALLEL:    -DPARALLEL
QCMPI:       mpich
#
# qchem directory setting
#
qcrun:       qchem1210128
QCSCRATCH:   .
QCLOCALSCR:  
QCTMPDIR:    .
QCFILEPREF:  ./qchem1210128
QCSAVEDIR:   
workdirs:    ./qchem1210128
workdir0:    ./qchem1210128
partmpdirs =  
#
# parallel setting
#
QCRSH:           ssh
QCMPI:           mpich
QCMPIRUN:        /cm/shared/apps/spack/cpu/opt/spack/linux-centos8-zen2/gcc-10.2.0/qchem-5.4-akfmr7b3t57bfs6qan3padb2wnb2i7cl/bin/mpi/mpirun_qchem
QCMACHINEFILE:   ./qchem1210128/hostfile
exp-8-29

#
# env setting
#
exported envs:   QC QCAUX QCSCRATCH QCRUNNAME QCFILEPREF QCPROG QCPROG_S GUIFILE

Running Job 1 of 1 fin_bdt_Phi_25_Theta_330_fin_ftt_Hydrogenated_Improper.qcin
qchem fin_bdt_Phi_25_Theta_330_fin_ftt_Hydrogenated_Improper.qcin_1210128.0 ./qchem1210128/ 1
/cm/shared/apps/spack/cpu/opt/spack/linux-centos8-zen2/gcc-10.2.0/qchem-5.4-akfmr7b3t57bfs6qan3padb2wnb2i7cl/bin/mpi/mpirun_qchem -machinefile ./qchem1210128/hostfile -np 1 /cm/shared/apps/spack/cpu/opt/spack/linux-centos8-zen2/gcc-10.2.0/qchem-5.4-akfmr7b3t57bfs6qan3padb2wnb2i7cl/exe/qcprog.exe fin_bdt_Phi_25_Theta_330_fin_ftt_Hydrogenated_Improper.qcin_1210128.0 ./qchem1210128/

Process 0 of 1 is on exp-8-29 - thread support 0
initial socket setup ...start
initial socket setup ...done 
now start server 0 ... 
                  Welcome to Q-Chem
     A Quantum Leap Into The Future Of Chemistry


 Q-Chem 5.4, Q-Chem, Inc., Pleasanton, CA (2021)

 License issued to: University of California, San Diego (site)

 E. Epifanovsky,  A. T. B. Gilbert,  Xintian Feng,  Joonho Lee,  Yuezhi Mao,  
 N. Mardirossian,  P. Pokhilko,  A. White,  M. Wormit,  M. P. Coons,  
 A. L. Dempwolff,  Zhengting Gan,  D. Hait,  P. R. Horn,  L. D. Jacobson,  
 I. Kaliman,  J. Kussmann,  A. W. Lange,  Ka Un Lao,  D. S. Levine,  Jie Liu,  
 S. C. McKenzie,  A. F. Morrison,  K. Nanda,  F. Plasser,  D. R. Rehn,  
 M. L. Vidal,  Zhi-Qiang You,  Ying Zhu,  B. Alam,  B. Albrecht,  
 A. Aldossary,  E. Alguire,  J. H. Andersen,  D. Barton,  K. Begam,  A. Behn,  
 Y. A. Bernard,  E. J. Berquist,  H. Burton,  A. Carreras,  K. Carter-Fenk,  
 R. Chakraborty,  A. D. Chien,  K. D. Closser,  V. Cofer-Shabica,  
 S. Dasgupta,  Jia Deng,  M. de Wergifosse,  M. Diedenhofen,  Hainam Do,  
 S. Ehlert,  Po-Tung Fang,  S. Fatehi,  Qingguo Feng,  J. Gayvert,  
 Qinghui Ge,  G. Gidofalvi,  M. Goldey,  J. Gomes,  C. Gonzalez-Espinoza,  
 S. Gulania,  A. Gunina,  M. W. D. Hanson-Heine,  P. H. P. Harbach,  
 A. W. Hauser,  M. F. Herbst,  M. Hernandez Vera,  M. Hodecker,  
 Z. C. Holden,  S. Houck,  Xunkun Huang,  Kerwin Hui,  B. C. Huynh,  
 M. Ivanov,  Hyunjun Ji,  Hanjie Jiang,  B. Kaduk,  S. Kaehler,  
 K. Khistyaev,  Jaehoon Kim,  P. Klunzinger,  Z. Koczor-Benda,  
 Joong Hoon Koh,  D. Kosenkov,  L. Koulias,  T. Kowalczyk,  C. M. Krauter,  
 K. Kue,  A. Kunitsa,  T. Kus,  A. Landau,  K. V. Lawler,  D. Lefrancois,  
 S. Lehtola,  Rain Li,  Yi-Pei Li,  Jiashu Liang,  M. Liebenthal,  
 Hung-Hsuan Lin,  You-Sheng Lin,  Fenglai Liu,  Kuan-Yu Liu,  
 M. Loipersberger,  A. Luenser,  A. Manjanath,  P. Manohar,  E. Mansoor,  
 S. F. Manzer,  Shan-Ping Mao,  A. V. Marenich,  T. Markovich,  S. Mason,  
 S. A. Maurer,  P. F. McLaughlin,  M. F. S. J. Menger,  J.-M. Mewes,  
 S. A. Mewes,  P. Morgante,  J. W. Mullinax,  T. S. Nguyen-Beck,  
 K. J. Oosterbaan,  G. Paran,  Alexander C. Paul,  Suranjan K. Paul,  
 F. Pavosevic,  Zheng Pei,  S. Prager,  E. I. Proynov,  E. Ramos,  B. Rana,  
 A. E. Rask,  A. Rettig,  R. M. Richard,  F. Rob,  E. Rossomme,  T. Scheele,  
 M. Scheurer,  M. Schneider,  N. Sergueev,  S. M. Sharada,  W. Skomorowski,  
 D. W. Small,  C. J. Stein,  Yu-Chuan Su,  E. J. Sundstrom,  Zhen Tao,  
 J. Thirman,  T. Tsuchimochi,  N. M. Tubman,  S. P. Veccham,  O. Vydrov,  
 J. Wenzel,  J. Witte,  A. Yamada,  Kun Yao,  S. Yeganeh,  S. R. Yost,  
 A. Zech,  Igor Ying Zhang,  Xing Zhang,  Yu Zhang,  D. Zuev,  
 A. Aspuru-Guzik,  A. T. Bell,  N. A. Besley,  K. B. Bravaya,  B. R. Brooks,  
 D. Casanova,  Jeng-Da Chai,  S. Coriani,  C. J. Cramer,  
 A. E. DePrince, III,  R. A. DiStasio Jr.,  A. Dreuw,  B. D. Dunietz,  
 T. R. Furlani,  W. A. Goddard III,  S. Grimme,  S. Hammes-Schiffer,  
 T. Head-Gordon,  W. J. Hehre,  Chao-Ping Hsu,  T.-C. Jagau,  Yousung Jung,  
 A. Klamt,  Jing Kong,  D. S. Lambrecht,  WanZhen Liang,  N. J. Mayhall,  
 C. W. McCurdy,  J. B. Neaton,  C. Ochsenfeld,  J. A. Parkhill,  R. Peverati,  
 V. A. Rassolov,  Yihan Shao,  L. V. Slipchenko,  T. Stauch,  R. P. Steele,  
 J. E. Subotnik,  A. J. W. Thom,  A. Tkatchenko,  D. G. Truhlar,  
 T. Van Voorhis,  T. A. Wesolowski,  K. B. Whaley,  H. L. Woodcock III,  
 P. M. Zimmerman,  S. Faraji,  P. M. W. Gill,  M. Head-Gordon,  
 J. M. Herbert,  A. I. Krylov

 Contributors to earlier versions of Q-Chem not listed above: 
 R. D. Adamson,  B. Austin,  R. Baer,  J. Baker,  G. J. O. Beran,  
 K. Brandhorst,  S. T. Brown,  E. F. C. Byrd,  A. K. Chakraborty,  
 G. K. L. Chan,  Chun-Min Chang,  Yunqing Chen,  C.-L. Cheng,  
 Siu Hung Chien,  D. M. Chipman,  D. L. Crittenden,  H. Dachsel,  
 R. J. Doerksen,  A. D. Dutoi,  R. G. Edgar,  J. Fosso-Tande,  
 L. Fusti-Molnar,  D. Ghosh,  A. Ghysels,  A. Golubeva-Zadorozhnaya,  
 J. Gonthier,  M. S. Gordon,  S. R. Gwaltney,  G. Hawkins,  J. E. Herr,  
 A. Heyden,  S. Hirata,  E. G. Hohenstein,  G. Kedziora,  F. J. Keil,  
 C. Kelley,  Jihan Kim,  R. A. King,  R. Z. Khaliullin,  P. P. Korambath,  
 W. Kurlancheek,  A. Laurent,  A. M. Lee,  M. S. Lee,  S. V. Levchenko,  
 Ching Yeh Lin,  D. Liotard,  E. Livshits,  R. C. Lochan,  I. Lotan,  
 L. A. Martinez-Martinez,  P. E. Maslen,  N. Nair,  D. P. O'Neill,  
 D. Neuhauser,  E. Neuscamman,  C. M. Oana,  R. Olivares-Amaya,  R. Olson,  
 T. M. Perrine,  B. Peters,  P. A. Pieniazek,  A. Prociuk,  Y. M. Rhee,  
 J. Ritchie,  M. A. Rohrdanz,  E. Rosta,  N. J. Russ,  H. F. Schaefer III,  
 M. W. Schmidt,  N. E. Schultz,  S. Sharma,  N. Shenvi,  C. D. Sherrill,  
 A. C. Simmonett,  A. Sodt,  T. Stein,  D. Stuck,  K. S. Thanthiriwatte,  
 V. Vanovschi,  L. Vogt,  Tao Wang,  A. Warshel,  M. A. Watson,  
 C. F. Williams,  Q. Wu,  X. Xu,  Jun Yang,  W. Zhang,  Yan Zhao

 Please cite Q-Chem as follows:
 Y. Shao et al., Mol. Phys. 113, 184-215 (2015)
 DOI: 10.1080/00268976.2014.952696

 Q-Chem 5.4.0 for Intel X86 EM64T Linux

 Parts of Q-Chem use Armadillo 9.800.1 (Horizon Scraper).
 http://arma.sourceforge.net/

 Q-Chem begins on Tue Sep 26 18:22:07 2023  

 Host: 
0

     Scratch files written to ./qchem1210128//
 May1621 |scratch|qcdevops|jenkins|workspace|build_RNUM    
 Parallel job on  1  processors
 Processing $rem in /cm/shared/apps/spack/cpu/opt/spack/linux-centos8-zen2/gcc-10.2.0/qchem-5.4-akfmr7b3t57bfs6qan3padb2wnb2i7cl/config/preferences:
 Processing $rem in /home/rramji/.qchemrc:
 Symmetry turned off for PCM/SM12/SMD calculation
 Core orbitals will be frozen

 Checking the input file for inconsistencies... 	...done.

 Q-Chem warning in module forms1/BasisType.C, line 2236:

 You are not using the predefined 5D/6D in this basis set.


--------------------------------------------------------------
User input:
--------------------------------------------------------------
$molecule
0 1
C	-0.378184	-0.753180	1.024315
S	0.003916	0.061020	2.535015
C	0.668716	1.489220	1.751915
C	0.005616	0.069920	-0.040385
C	0.591216	1.329320	0.346015
C	-0.020984	0.009120	-1.461785
C	0.513516	1.155520	-2.082585
S	1.037716	2.287520	-0.941385
C	0.625316	1.384120	-3.535685
O	0.233416	0.536820	-4.325985
O	1.170516	2.545720	-3.980085
F	-0.488284	-1.002280	-2.221985
C	1.331316	2.866520	-5.310685
H	1.798816	3.867720	-5.345985
H	0.359216	2.890220	-5.851285
H	1.981216	2.133220	-5.837585
C	-0.378184	-2.188380	1.024315
H	0.552816	-2.197380	0.477015
H	0.040016	-2.872280	1.748015
H	-0.857184	-2.712780	0.210715
H	1.057616	2.323020	2.345815
$end

$rem
JOBTYPE		SP
EXCHANGE	HF
CORRELATION	pRIMP2
BASIS		cc-pvtz
METHOD		rimp2
AUX_BASIS	rimp2-cc-pvtz
SOLVENT_METHOD	PCM
PURECART	11111
SYMMETRY	false
MEM_TOTAL	110000
SCF_CONVERGENCE = 6
THRESH=10
GUI = 2
$end



$solvent
dielectric 4.90
$end
--------------------------------------------------------------
 ----------------------------------------------------------------
             Standard Nuclear Orientation (Angstroms)
    I     Atom           X                Y                Z
 ----------------------------------------------------------------
    1      C      -0.3781840000    -0.7531800000     1.0243150000
    2      S       0.0039160000     0.0610200000     2.5350150000
    3      C       0.6687160000     1.4892200000     1.7519150000
    4      C       0.0056160000     0.0699200000    -0.0403850000
    5      C       0.5912160000     1.3293200000     0.3460150000
    6      C      -0.0209840000     0.0091200000    -1.4617850000
    7      C       0.5135160000     1.1555200000    -2.0825850000
    8      S       1.0377160000     2.2875200000    -0.9413850000
    9      C       0.6253160000     1.3841200000    -3.5356850000
   10      O       0.2334160000     0.5368200000    -4.3259850000
   11      O       1.1705160000     2.5457200000    -3.9800850000
   12      F      -0.4882840000    -1.0022800000    -2.2219850000
   13      C       1.3313160000     2.8665200000    -5.3106850000
   14      H       1.7988160000     3.8677200000    -5.3459850000
   15      H       0.3592160000     2.8902200000    -5.8512850000
   16      H       1.9812160000     2.1332200000    -5.8375850000
   17      C      -0.3781840000    -2.1883800000     1.0243150000
   18      H       0.5528160000    -2.1973800000     0.4770150000
   19      H       0.0400160000    -2.8722800000     1.7480150000
   20      H      -0.8571840000    -2.7127800000     0.2107150000
   21      H       1.0576160000     2.3230200000     2.3458150000
 ----------------------------------------------------------------
 Nuclear Repulsion Energy =        1091.46322470 hartrees
 There are       59 alpha and       59 beta electrons
 Requested basis set is cc-pVTZ
 There are 186 shells and 526 basis functions

 Total QAlloc Memory Limit 110000 MB
 Mega-Array Size       188 MB
 MEM_STATIC part       192 MB
 Discretize the solute cavity surface with Lebedev spheres
	Using 110 Lebedev grid points for each H atom
	Using 194 Lebedev grid points for other atoms
	Atomic van der Waals radii will be scaled by 1.20
 Remove points where switching function is < 1.0e-08
 Keep 1567 surface tesserae and discard 1919 interior tesserae
 Molecular Surface Area = 241.717 Angst**2
 Requested basis set is rimp2-cc-pVTZ
 There are 410 shells and 1426 basis functions
 A cutoff of  1.0D-10 yielded  11645 shell pairs
 There are     91569 function pairs (    119896 Cartesian)
 Smallest overlap matrix eigenvalue = 6.01E-05

 Scale SEOQF with 1.000000e-01/1.000000e-01/1.000000e-02

 Standard Electronic Orientation quadrupole field applied
 Nucleus-field energy     =     0.0000000162 hartrees
 Guess from superposition of atomic densities
 Warning:  Energy on first SCF cycle will be non-variational
 SAD guess density has 118.000000 electrons

 -----------------------------------------------------------------------
  General SCF calculation program by
  Eric Jon Sundstrom, Paul Horn, Yuezhi Mao, Dmitri Zuev, Alec White,
  David Stuck, Shaama M.S., Shane Yost, Joonho Lee, David Small,
  Daniel Levine, Susi Lehtola, Hugh Burton, Evgeny Epifanovsky,
  Bang C. Huynh
 -----------------------------------------------------------------------
 Hartree-Fock
 using 64 threads for integral computing
 -------------------------------------------------------
 OpenMP Integral computing Module                
 Release: version 1.0, May 2013, Q-Chem Inc. Pittsburgh 
 -------------------------------------------------------
 A restricted SCF calculation will be
 performed using DIIS
 SCF converges when DIIS error is below 1.0e-06
 ---------------------------------------
  Cycle       Energy         DIIS error
 ---------------------------------------
    1   -1394.5775211000      2.53e-02  
    2   -1389.0034864433      2.50e-03  
    3   -1389.1757140311      1.57e-03  
    4   -1389.2371688377      3.47e-04  
    5   -1389.2428213565      1.09e-04  
    6   -1389.2434716601      3.60e-05  
    7   -1389.2436104480      1.80e-05  
    8   -1389.2436562265      7.17e-06  
    9   -1389.2436663586      3.27e-06  
   10   -1389.2436679940      1.25e-06  
   11   -1389.2436682585      4.78e-07  Convergence criterion met
 ---------------------------------------
 SCF time:   CPU 1698.14s  wall 49.00s 

************** Final PCM Free Energy Summary **************
 G_electrostatic  =      -0.01326790 hartree =      -8.32573119 kcal/mol
 G_cavitation     =       0.00000000 hartree =       0.00000000 kcal/mol
 G_dispersion     =       0.00000000 hartree =       0.00000000 kcal/mol
 G_repulsion      =       0.00000000 hartree =       0.00000000 kcal/mol
 --------------------------------------------------
 Non-electrostatic Free Energy =       0.00000000 hartree =       0.00000000 kcal/mol
 Total                         =      -0.01326790 hartree =      -8.32573119 kcal/mol
 --------------------------------------------------
 SCF Energy (H0 + V/2)                       =   -1389.24366826 
 Solute Internal Energy (H0)                 =   -1389.23040036 
 Total Free Energy (H0 + V/2 + non-elec)     =   -1389.24366826 hartree
                                             = -871763.55935902 kcal/mol
***********************************************************

 SCF   energy in the final basis set =    -1389.2436682585
 Total energy in the final basis set =    -1389.2436682585


 --------------------------------------------------------------
  Generalized many-body perturbation theory program
  by Joonho Lee, Fazle Rob, Xintian Feng, Evgeny Epifanovsky

 No regularization used 
 (reg. param. = 0.0000e+00)
  (P|Q)^-1/2 Time:  CPU 19.24 s  wall 0.31 s

 In RI-MP2 calculation: 
 # of frozen core orbitals: 22

 Components of the RIMP2 correlation energy:
        aaaa    correlation energy =        -0.3297902996 a.u.
        abab    correlation energy =        -1.8481181004 a.u.
        bbbb    correlation energy =        -0.3297902996 a.u.
        non-Brillouin singles      =        -0.0000000000 a.u.
        total same-spin energy     =        -0.6595805992 a.u.
        total opposite-spin energy =        -1.8481181004 a.u.

 Total  RIMP2   correlation energy =        -2.5076986997 a.u.
        RIMP2         total energy =     -1391.7513669582 a.u.

 RI-MP2 Energy Time:  CPU 172.39 s  wall 3.41 s
 
 --------------------------------------------------------------
 
                    Orbital Energies (a.u.)
 --------------------------------------------------------------
 
 Alpha MOs
 -- Occupied --
-92.0076 -91.9899 -26.3346 -20.6097 -20.5459 -11.4067 -11.3762 -11.3153
-11.2925 -11.2890 -11.2874 -11.2779 -11.2676 -11.2328  -9.0062  -8.9941
 -6.6870  -6.6863  -6.6859  -6.6754  -6.6747  -6.6733  -1.6476  -1.4692
 -1.3641  -1.2276  -1.1482  -1.0683  -1.0265  -1.0054  -0.9680  -0.9099
 -0.8630  -0.7954  -0.7850  -0.7663  -0.7261  -0.7154  -0.6968  -0.6776
 -0.6767  -0.6679  -0.6095  -0.6033  -0.5958  -0.5910  -0.5855  -0.5615
 -0.5348  -0.5239  -0.5078  -0.4921  -0.4783  -0.4640  -0.4593  -0.4572
 -0.3886  -0.3463  -0.2744
 -- Virtual --
  0.0376   0.1198   0.1384   0.1558   0.1582   0.1713   0.1850   0.1983
  0.2012   0.2124   0.2197   0.2246   0.2373   0.2377   0.2630   0.2739
  0.2916   0.3046   0.3185   0.3345   0.3469   0.3556   0.3719   0.3773
  0.3815   0.3870   0.4042   0.4113   0.4195   0.4279   0.4384   0.4401
  0.4558   0.4663   0.4686   0.4779   0.4987   0.5041   0.5113   0.5294
  0.5345   0.5391   0.5427   0.5568   0.5590   0.5634   0.5781   0.5903
  0.5906   0.5994   0.6045   0.6107   0.6182   0.6209   0.6217   0.6329
  0.6368   0.6402   0.6502   0.6571   0.6711   0.6823   0.6906   0.7041
  0.7134   0.7187   0.7388   0.7543   0.7669   0.7814   0.7860   0.7998
  0.8021   0.8143   0.8242   0.8474   0.8568   0.8636   0.8765   0.8802
  0.8970   0.9091   0.9261   0.9316   0.9418   0.9492   0.9611   0.9750
  0.9833   0.9979   1.0068   1.0159   1.0267   1.0435   1.0494   1.0526
  1.0665   1.0742   1.0851   1.0909   1.0968   1.1039   1.1167   1.1424
  1.1489   1.1536   1.1705   1.1732   1.1784   1.1834   1.1976   1.2115
  1.2212   1.2277   1.2478   1.2517   1.2776   1.2845   1.2878   1.3078
  1.3283   1.3411   1.3429   1.3475   1.3596   1.3672   1.3785   1.3878
  1.4272   1.4348   1.4427   1.4693   1.4742   1.4870   1.5005   1.5062
  1.5135   1.5201   1.5333   1.5395   1.5505   1.5651   1.5837   1.6044
  1.6216   1.6491   1.6574   1.6682   1.6759   1.7078   1.7238   1.7372
  1.7641   1.7680   1.7853   1.8140   1.8281   1.8357   1.8413   1.8496
  1.8668   1.8750   1.8882   1.9278   1.9313   1.9457   1.9551   1.9808
  1.9974   2.0302   2.0326   2.0507   2.0582   2.0975   2.1039   2.1305
  2.1452   2.1526   2.1637   2.1756   2.1976   2.2182   2.2212   2.2413
  2.2547   2.2558   2.2713   2.2818   2.2885   2.3042   2.3250   2.3360
  2.3666   2.3824   2.4070   2.4166   2.4535   2.4643   2.4881   2.5111
  2.5306   2.5491   2.5732   2.5830   2.5928   2.5990   2.6045   2.6309
  2.6346   2.6594   2.6686   2.6874   2.6915   2.7014   2.7188   2.7309
  2.7336   2.7550   2.7586   2.7736   2.7804   2.7896   2.8200   2.8265
  2.8572   2.8685   2.8748   2.8893   2.9169   2.9242   2.9365   2.9701
  2.9839   2.9915   3.0081   3.0244   3.0285   3.0447   3.0473   3.0636
  3.0839   3.0922   3.0994   3.1070   3.1125   3.1314   3.1464   3.1595
  3.1792   3.1857   3.1994   3.2107   3.2137   3.2198   3.2324   3.2528
  3.2626   3.2740   3.2849   3.2890   3.2975   3.3011   3.3130   3.3216
  3.3322   3.3473   3.3638   3.3661   3.3784   3.3942   3.4007   3.4203
  3.4331   3.4379   3.4505   3.4571   3.4677   3.4829   3.4919   3.5046
  3.5179   3.5244   3.5327   3.5500   3.5638   3.5746   3.5876   3.5921
  3.6021   3.6056   3.6109   3.6252   3.6383   3.6472   3.6571   3.6669
  3.6748   3.6889   3.7033   3.7119   3.7279   3.7300   3.7313   3.7474
  3.7518   3.7688   3.7906   3.7983   3.8258   3.8264   3.8330   3.8398
  3.8624   3.8737   3.8811   3.8920   3.9050   3.9211   3.9333   3.9404
  3.9610   3.9673   3.9741   3.9916   4.0169   4.0337   4.0491   4.0655
  4.0773   4.0848   4.0965   4.1139   4.1317   4.1368   4.1734   4.1869
  4.1955   4.2136   4.2417   4.2723   4.2881   4.3037   4.3124   4.3484
  4.3499   4.3751   4.3789   4.3910   4.3949   4.4153   4.4340   4.4375
  4.4517   4.4695   4.5021   4.5191   4.5352   4.5474   4.5817   4.5883
  4.6317   4.6397   4.6524   4.6650   4.6714   4.6881   4.7196   4.7308
  4.7620   4.7870   4.7996   4.8179   4.8337   4.8590   4.9101   4.9242
  4.9708   5.0078   5.0134   5.0467   5.0844   5.0917   5.1017   5.1559
  5.1836   5.1937   5.2188   5.2205   5.2565   5.2603   5.2750   5.3481
  5.3564   5.3616   5.4060   5.4175   5.4741   5.4762   5.4888   5.5333
  5.5494   5.5821   5.6059   5.6207   5.6355   5.6565   5.7258   5.8030
  5.8119   5.8353   5.8548   5.8890   5.9559   5.9728   5.9785   6.0468
  6.0561   6.1263   6.1351   6.1582   6.1868   6.3106   6.3660   6.3971
  6.4534   6.5077   6.5591   6.6625   6.6798   6.7363   6.7416   6.8638
  6.8851   6.9937   7.1808   7.2125   7.3298   7.3724   7.3760   7.4297
  7.4649   7.4863   7.5187   7.5516   7.6117   7.7700   7.8337   7.9068
  8.0012   8.1149   8.3936   8.9274   9.0075   9.3626   9.4973   9.6922
 10.1574  11.2252  11.6338  11.9328  12.3008  12.6458  13.1773  13.5360
 13.8260  14.0785  14.5101
 --------------------------------------------------------------
 
          Ground-State Mulliken Net Atomic Charges

     Atom                 Charge (a.u.)
  ----------------------------------------
      1 C                     0.035330
      2 S                     0.093157
      3 C                    -0.271562
      4 C                    -0.092124
      5 C                    -0.006528
      6 C                     0.369783
      7 C                    -0.167769
      8 S                     0.032091
      9 C                     0.458009
     10 O                    -0.457488
     11 O                    -0.298959
     12 F                    -0.212088
     13 C                    -0.054772
     14 H                     0.116053
     15 H                     0.083748
     16 H                     0.083516
     17 C                    -0.381929
     18 H                     0.146644
     19 H                     0.170664
     20 H                     0.144991
     21 H                     0.209231
  ----------------------------------------
  Sum of atomic charges =     0.000000

 -----------------------------------------------------------------
                    Cartesian Multipole Moments
 -----------------------------------------------------------------
    Charge (ESU x 10^10)
                -0.0000
    Dipole Moment (Debye)
         X       1.6630      Y       0.3701      Z       3.3497
       Tot       3.7580
    Quadrupole Moments (Debye-Ang)
        XX     -95.2991     XY       2.4070     YY     -83.8993
        XZ      -3.5683     YZ     -10.6747     ZZ     -97.1837
    Octopole Moments (Debye-Ang^2)
       XXX    -112.7404    XXY     -69.5665    XYY     -24.1777
       YYY    -215.9479    XXZ      75.1994    XYZ      -9.8772
       YYZ      67.8297    XZZ       2.0053    YZZ       6.4615
       ZZZ     259.6064
    Hexadecapole Moments (Debye-Ang^3)
      XXXX    -398.6406   XXXY    -310.7558   XXYY    -325.1056
      XYYY    -275.9133   YYYY   -1530.9365   XXXZ     291.9253
      XXYZ     213.2047   XYYZ      72.8452   YYYZ     597.9141
      XXZZ    -674.7284   XYZZ       2.7836   YYZZ    -687.9365
      XZZZ     126.0498   YZZZ     307.4362   ZZZZ   -3801.1566
 -----------------------------------------------------------------
 Total job time:  53.43s(wall), 1922.31s(cpu) 
 Tue Sep 26 18:23:01 2023

        *************************************************************
        *                                                           *
        *  Thank you very much for using Q-Chem.  Have a nice day.  *
        *                                                           *
        *************************************************************


0 sent ACK to 0 
now end server 0 ... 
cleanup process ... done
remove work dirs ./qchem1210128.0 -- ./qchem1210128.0
rm -rf ./qchem1210128.0
rm -rf ./qchem1210128
