You are running Q-Chem version: 5.4.0

#
# job setting
#
local host:  exp-9-02
current dir: /expanse/lustre/projects/csd626/rramji/aromodel/PTB7_fin/Hydrogenated_Impropers_Test
input file:  fin_bdt_Phi_20_Theta_0_fin_ftt_Hydrogenated_Improper.qcin
output file: 
nprocs     : 1
nthreads   : 64
#
# qchem installation setting
#
QC:          /cm/shared/apps/spack/cpu/opt/spack/linux-centos8-zen2/gcc-10.2.0/qchem-5.4-akfmr7b3t57bfs6qan3padb2wnb2i7cl
QCAUX:       /cm/shared/apps/spack/cpu/opt/spack/linux-centos8-zen2/gcc-10.2.0/qchem-5.4-akfmr7b3t57bfs6qan3padb2wnb2i7cl/qcaux
QCPROG:      /cm/shared/apps/spack/cpu/opt/spack/linux-centos8-zen2/gcc-10.2.0/qchem-5.4-akfmr7b3t57bfs6qan3padb2wnb2i7cl/exe/qcprog.exe
QCPROG_S:    /cm/shared/apps/spack/cpu/opt/spack/linux-centos8-zen2/gcc-10.2.0/qchem-5.4-akfmr7b3t57bfs6qan3padb2wnb2i7cl/exe/qcprog.exe_s
PARALLEL:    -DPARALLEL
QCMPI:       mpich
#
# qchem directory setting
#
qcrun:       qchem629241
QCSCRATCH:   .
QCLOCALSCR:  
QCTMPDIR:    .
QCFILEPREF:  ./qchem629241
QCSAVEDIR:   
workdirs:    ./qchem629241
workdir0:    ./qchem629241
partmpdirs =  
#
# parallel setting
#
QCRSH:           ssh
QCMPI:           mpich
QCMPIRUN:        /cm/shared/apps/spack/cpu/opt/spack/linux-centos8-zen2/gcc-10.2.0/qchem-5.4-akfmr7b3t57bfs6qan3padb2wnb2i7cl/bin/mpi/mpirun_qchem
QCMACHINEFILE:   ./qchem629241/hostfile
exp-9-02

#
# env setting
#
exported envs:   QC QCAUX QCSCRATCH QCRUNNAME QCFILEPREF QCPROG QCPROG_S GUIFILE

Running Job 1 of 1 fin_bdt_Phi_20_Theta_0_fin_ftt_Hydrogenated_Improper.qcin
qchem fin_bdt_Phi_20_Theta_0_fin_ftt_Hydrogenated_Improper.qcin_629241.0 ./qchem629241/ 1
/cm/shared/apps/spack/cpu/opt/spack/linux-centos8-zen2/gcc-10.2.0/qchem-5.4-akfmr7b3t57bfs6qan3padb2wnb2i7cl/bin/mpi/mpirun_qchem -machinefile ./qchem629241/hostfile -np 1 /cm/shared/apps/spack/cpu/opt/spack/linux-centos8-zen2/gcc-10.2.0/qchem-5.4-akfmr7b3t57bfs6qan3padb2wnb2i7cl/exe/qcprog.exe fin_bdt_Phi_20_Theta_0_fin_ftt_Hydrogenated_Improper.qcin_629241.0 ./qchem629241/

Process 0 of 1 is on exp-9-02 - thread support 0
initial socket setup ...start
initial socket setup ...done 
now start server 0 ... 
                  Welcome to Q-Chem
     A Quantum Leap Into The Future Of Chemistry


 Q-Chem 5.4, Q-Chem, Inc., Pleasanton, CA (2021)

 License issued to: University of California, San Diego (site)

 E. Epifanovsky,  A. T. B. Gilbert,  Xintian Feng,  Joonho Lee,  Yuezhi Mao,  
 N. Mardirossian,  P. Pokhilko,  A. White,  M. Wormit,  M. P. Coons,  
 A. L. Dempwolff,  Zhengting Gan,  D. Hait,  P. R. Horn,  L. D. Jacobson,  
 I. Kaliman,  J. Kussmann,  A. W. Lange,  Ka Un Lao,  D. S. Levine,  Jie Liu,  
 S. C. McKenzie,  A. F. Morrison,  K. Nanda,  F. Plasser,  D. R. Rehn,  
 M. L. Vidal,  Zhi-Qiang You,  Ying Zhu,  B. Alam,  B. Albrecht,  
 A. Aldossary,  E. Alguire,  J. H. Andersen,  D. Barton,  K. Begam,  A. Behn,  
 Y. A. Bernard,  E. J. Berquist,  H. Burton,  A. Carreras,  K. Carter-Fenk,  
 R. Chakraborty,  A. D. Chien,  K. D. Closser,  V. Cofer-Shabica,  
 S. Dasgupta,  Jia Deng,  M. de Wergifosse,  M. Diedenhofen,  Hainam Do,  
 S. Ehlert,  Po-Tung Fang,  S. Fatehi,  Qingguo Feng,  J. Gayvert,  
 Qinghui Ge,  G. Gidofalvi,  M. Goldey,  J. Gomes,  C. Gonzalez-Espinoza,  
 S. Gulania,  A. Gunina,  M. W. D. Hanson-Heine,  P. H. P. Harbach,  
 A. W. Hauser,  M. F. Herbst,  M. Hernandez Vera,  M. Hodecker,  
 Z. C. Holden,  S. Houck,  Xunkun Huang,  Kerwin Hui,  B. C. Huynh,  
 M. Ivanov,  Hyunjun Ji,  Hanjie Jiang,  B. Kaduk,  S. Kaehler,  
 K. Khistyaev,  Jaehoon Kim,  P. Klunzinger,  Z. Koczor-Benda,  
 Joong Hoon Koh,  D. Kosenkov,  L. Koulias,  T. Kowalczyk,  C. M. Krauter,  
 K. Kue,  A. Kunitsa,  T. Kus,  A. Landau,  K. V. Lawler,  D. Lefrancois,  
 S. Lehtola,  Rain Li,  Yi-Pei Li,  Jiashu Liang,  M. Liebenthal,  
 Hung-Hsuan Lin,  You-Sheng Lin,  Fenglai Liu,  Kuan-Yu Liu,  
 M. Loipersberger,  A. Luenser,  A. Manjanath,  P. Manohar,  E. Mansoor,  
 S. F. Manzer,  Shan-Ping Mao,  A. V. Marenich,  T. Markovich,  S. Mason,  
 S. A. Maurer,  P. F. McLaughlin,  M. F. S. J. Menger,  J.-M. Mewes,  
 S. A. Mewes,  P. Morgante,  J. W. Mullinax,  T. S. Nguyen-Beck,  
 K. J. Oosterbaan,  G. Paran,  Alexander C. Paul,  Suranjan K. Paul,  
 F. Pavosevic,  Zheng Pei,  S. Prager,  E. I. Proynov,  E. Ramos,  B. Rana,  
 A. E. Rask,  A. Rettig,  R. M. Richard,  F. Rob,  E. Rossomme,  T. Scheele,  
 M. Scheurer,  M. Schneider,  N. Sergueev,  S. M. Sharada,  W. Skomorowski,  
 D. W. Small,  C. J. Stein,  Yu-Chuan Su,  E. J. Sundstrom,  Zhen Tao,  
 J. Thirman,  T. Tsuchimochi,  N. M. Tubman,  S. P. Veccham,  O. Vydrov,  
 J. Wenzel,  J. Witte,  A. Yamada,  Kun Yao,  S. Yeganeh,  S. R. Yost,  
 A. Zech,  Igor Ying Zhang,  Xing Zhang,  Yu Zhang,  D. Zuev,  
 A. Aspuru-Guzik,  A. T. Bell,  N. A. Besley,  K. B. Bravaya,  B. R. Brooks,  
 D. Casanova,  Jeng-Da Chai,  S. Coriani,  C. J. Cramer,  
 A. E. DePrince, III,  R. A. DiStasio Jr.,  A. Dreuw,  B. D. Dunietz,  
 T. R. Furlani,  W. A. Goddard III,  S. Grimme,  S. Hammes-Schiffer,  
 T. Head-Gordon,  W. J. Hehre,  Chao-Ping Hsu,  T.-C. Jagau,  Yousung Jung,  
 A. Klamt,  Jing Kong,  D. S. Lambrecht,  WanZhen Liang,  N. J. Mayhall,  
 C. W. McCurdy,  J. B. Neaton,  C. Ochsenfeld,  J. A. Parkhill,  R. Peverati,  
 V. A. Rassolov,  Yihan Shao,  L. V. Slipchenko,  T. Stauch,  R. P. Steele,  
 J. E. Subotnik,  A. J. W. Thom,  A. Tkatchenko,  D. G. Truhlar,  
 T. Van Voorhis,  T. A. Wesolowski,  K. B. Whaley,  H. L. Woodcock III,  
 P. M. Zimmerman,  S. Faraji,  P. M. W. Gill,  M. Head-Gordon,  
 J. M. Herbert,  A. I. Krylov

 Contributors to earlier versions of Q-Chem not listed above: 
 R. D. Adamson,  B. Austin,  R. Baer,  J. Baker,  G. J. O. Beran,  
 K. Brandhorst,  S. T. Brown,  E. F. C. Byrd,  A. K. Chakraborty,  
 G. K. L. Chan,  Chun-Min Chang,  Yunqing Chen,  C.-L. Cheng,  
 Siu Hung Chien,  D. M. Chipman,  D. L. Crittenden,  H. Dachsel,  
 R. J. Doerksen,  A. D. Dutoi,  R. G. Edgar,  J. Fosso-Tande,  
 L. Fusti-Molnar,  D. Ghosh,  A. Ghysels,  A. Golubeva-Zadorozhnaya,  
 J. Gonthier,  M. S. Gordon,  S. R. Gwaltney,  G. Hawkins,  J. E. Herr,  
 A. Heyden,  S. Hirata,  E. G. Hohenstein,  G. Kedziora,  F. J. Keil,  
 C. Kelley,  Jihan Kim,  R. A. King,  R. Z. Khaliullin,  P. P. Korambath,  
 W. Kurlancheek,  A. Laurent,  A. M. Lee,  M. S. Lee,  S. V. Levchenko,  
 Ching Yeh Lin,  D. Liotard,  E. Livshits,  R. C. Lochan,  I. Lotan,  
 L. A. Martinez-Martinez,  P. E. Maslen,  N. Nair,  D. P. O'Neill,  
 D. Neuhauser,  E. Neuscamman,  C. M. Oana,  R. Olivares-Amaya,  R. Olson,  
 T. M. Perrine,  B. Peters,  P. A. Pieniazek,  A. Prociuk,  Y. M. Rhee,  
 J. Ritchie,  M. A. Rohrdanz,  E. Rosta,  N. J. Russ,  H. F. Schaefer III,  
 M. W. Schmidt,  N. E. Schultz,  S. Sharma,  N. Shenvi,  C. D. Sherrill,  
 A. C. Simmonett,  A. Sodt,  T. Stein,  D. Stuck,  K. S. Thanthiriwatte,  
 V. Vanovschi,  L. Vogt,  Tao Wang,  A. Warshel,  M. A. Watson,  
 C. F. Williams,  Q. Wu,  X. Xu,  Jun Yang,  W. Zhang,  Yan Zhao

 Please cite Q-Chem as follows:
 Y. Shao et al., Mol. Phys. 113, 184-215 (2015)
 DOI: 10.1080/00268976.2014.952696

 Q-Chem 5.4.0 for Intel X86 EM64T Linux

 Parts of Q-Chem use Armadillo 9.800.1 (Horizon Scraper).
 http://arma.sourceforge.net/

 Q-Chem begins on Sun Sep 24 16:35:14 2023  

 Host: 
0

     Scratch files written to ./qchem629241//
 May1621 |scratch|qcdevops|jenkins|workspace|build_RNUM    
 Parallel job on  1  processors
 Processing $rem in /cm/shared/apps/spack/cpu/opt/spack/linux-centos8-zen2/gcc-10.2.0/qchem-5.4-akfmr7b3t57bfs6qan3padb2wnb2i7cl/config/preferences:
 Processing $rem in /home/rramji/.qchemrc:
 Symmetry turned off for PCM/SM12/SMD calculation
 Core orbitals will be frozen

 Checking the input file for inconsistencies... 	...done.

 Q-Chem warning in module forms1/BasisType.C, line 2236:

 You are not using the predefined 5D/6D in this basis set.


--------------------------------------------------------------
User input:
--------------------------------------------------------------
$molecule
0 1
C	-0.166619	-0.824378	1.023176
S	-0.008219	0.061022	2.533876
C	0.264281	1.612622	1.750776
C	-0.008919	0.070022	-0.041524
C	0.230781	1.438022	0.344876
C	-0.018819	0.004422	-1.462924
C	0.200681	1.250022	-2.083724
S	0.413981	2.479122	-0.942524
C	0.249481	1.499822	-3.536824
O	0.090281	0.580022	-4.327124
O	0.475481	2.762922	-3.981224
F	-0.208419	-1.093478	-2.223124
C	0.547781	3.114422	-5.311824
H	0.740181	4.202522	-5.347124
H	-0.397319	2.885722	-5.852424
H	1.365281	2.574322	-5.838724
C	0.082581	-2.237778	1.023176
H	1.147681	-2.059078	1.014676
H	0.201681	-2.911178	1.859076
H	0.165781	-2.755578	0.079076
H	0.424081	2.518622	2.344676
$end

$rem
JOBTYPE		SP
EXCHANGE	HF
CORRELATION	pRIMP2
BASIS		cc-pvtz
METHOD		rimp2
AUX_BASIS	rimp2-cc-pvtz
SOLVENT_METHOD	PCM
PURECART	11111
SYMMETRY	false
MEM_TOTAL	110000
SCF_CONVERGENCE = 6
THRESH=10
GUI = 2
$end



$solvent
dielectric 4.90
$end
--------------------------------------------------------------
 ----------------------------------------------------------------
             Standard Nuclear Orientation (Angstroms)
    I     Atom           X                Y                Z
 ----------------------------------------------------------------
    1      C      -0.1666190000    -0.8243780000     1.0231760000
    2      S      -0.0082190000     0.0610220000     2.5338760000
    3      C       0.2642810000     1.6126220000     1.7507760000
    4      C      -0.0089190000     0.0700220000    -0.0415240000
    5      C       0.2307810000     1.4380220000     0.3448760000
    6      C      -0.0188190000     0.0044220000    -1.4629240000
    7      C       0.2006810000     1.2500220000    -2.0837240000
    8      S       0.4139810000     2.4791220000    -0.9425240000
    9      C       0.2494810000     1.4998220000    -3.5368240000
   10      O       0.0902810000     0.5800220000    -4.3271240000
   11      O       0.4754810000     2.7629220000    -3.9812240000
   12      F      -0.2084190000    -1.0934780000    -2.2231240000
   13      C       0.5477810000     3.1144220000    -5.3118240000
   14      H       0.7401810000     4.2025220000    -5.3471240000
   15      H      -0.3973190000     2.8857220000    -5.8524240000
   16      H       1.3652810000     2.5743220000    -5.8387240000
   17      C       0.0825810000    -2.2377780000     1.0231760000
   18      H       1.1476810000    -2.0590780000     1.0146760000
   19      H       0.2016810000    -2.9111780000     1.8590760000
   20      H       0.1657810000    -2.7555780000     0.0790760000
   21      H       0.4240810000     2.5186220000     2.3446760000
 ----------------------------------------------------------------
 Nuclear Repulsion Energy =        1090.55425099 hartrees
 There are       59 alpha and       59 beta electrons
 Requested basis set is cc-pVTZ
 There are 186 shells and 526 basis functions

 Total QAlloc Memory Limit 110000 MB
 Mega-Array Size       188 MB
 MEM_STATIC part       192 MB
 Discretize the solute cavity surface with Lebedev spheres
	Using 110 Lebedev grid points for each H atom
	Using 194 Lebedev grid points for other atoms
	Atomic van der Waals radii will be scaled by 1.20
 Remove points where switching function is < 1.0e-08
 Keep 1565 surface tesserae and discard 1921 interior tesserae
 Molecular Surface Area = 242.156 Angst**2
 Requested basis set is rimp2-cc-pVTZ
 There are 410 shells and 1426 basis functions
 A cutoff of  1.0D-10 yielded  11596 shell pairs
 There are     91222 function pairs (    119481 Cartesian)
 Smallest overlap matrix eigenvalue = 5.82E-05

 Scale SEOQF with 1.000000e+00/1.000000e-01/1.000000e-02

 Standard Electronic Orientation quadrupole field applied
 Nucleus-field energy     =     0.0000000221 hartrees
 Guess from superposition of atomic densities
 Warning:  Energy on first SCF cycle will be non-variational
 SAD guess density has 118.000000 electrons

 -----------------------------------------------------------------------
  General SCF calculation program by
  Eric Jon Sundstrom, Paul Horn, Yuezhi Mao, Dmitri Zuev, Alec White,
  David Stuck, Shaama M.S., Shane Yost, Joonho Lee, David Small,
  Daniel Levine, Susi Lehtola, Hugh Burton, Evgeny Epifanovsky,
  Bang C. Huynh
 -----------------------------------------------------------------------
 Hartree-Fock
 using 64 threads for integral computing
 -------------------------------------------------------
 OpenMP Integral computing Module                
 Release: version 1.0, May 2013, Q-Chem Inc. Pittsburgh 
 -------------------------------------------------------
 A restricted SCF calculation will be
 performed using DIIS
 SCF converges when DIIS error is below 1.0e-06
 ---------------------------------------
  Cycle       Energy         DIIS error
 ---------------------------------------
    1   -1394.5691730050      2.53e-02  
    2   -1389.0112051646      2.50e-03  
    3   -1389.1837726511      1.57e-03  
    4   -1389.2451448867      3.46e-04  
    5   -1389.2508041752      1.10e-04  
    6   -1389.2514564290      3.62e-05  
    7   -1389.2515959028      1.79e-05  
    8   -1389.2516404726      6.96e-06  
    9   -1389.2516496439      3.07e-06  
   10   -1389.2516510061      1.15e-06  
   11   -1389.2516512139      4.32e-07  Convergence criterion met
 ---------------------------------------
 SCF time:   CPU 1737.33s  wall 50.00s 

************** Final PCM Free Energy Summary **************
 G_electrostatic  =      -0.01391746 hartree =      -8.73333708 kcal/mol
 G_cavitation     =       0.00000000 hartree =       0.00000000 kcal/mol
 G_dispersion     =       0.00000000 hartree =       0.00000000 kcal/mol
 G_repulsion      =       0.00000000 hartree =       0.00000000 kcal/mol
 --------------------------------------------------
 Non-electrostatic Free Energy =       0.00000000 hartree =       0.00000000 kcal/mol
 Total                         =      -0.01391746 hartree =      -8.73333708 kcal/mol
 --------------------------------------------------
 SCF Energy (H0 + V/2)                       =   -1389.25165121 
 Solute Internal Energy (H0)                 =   -1389.23773376 
 Total Free Energy (H0 + V/2 + non-elec)     =   -1389.25165121 hartree
                                             = -871768.56873911 kcal/mol
***********************************************************

 SCF   energy in the final basis set =    -1389.2516512139
 Total energy in the final basis set =    -1389.2516512139


 --------------------------------------------------------------
  Generalized many-body perturbation theory program
  by Joonho Lee, Fazle Rob, Xintian Feng, Evgeny Epifanovsky

 No regularization used 
 (reg. param. = 0.0000e+00)
  (P|Q)^-1/2 Time:  CPU 20.94 s  wall 0.34 s

 In RI-MP2 calculation: 
 # of frozen core orbitals: 22

 Components of the RIMP2 correlation energy:
        aaaa    correlation energy =        -0.3289044801 a.u.
        abab    correlation energy =        -1.8455635370 a.u.
        bbbb    correlation energy =        -0.3289044801 a.u.
        non-Brillouin singles      =        -0.0000000000 a.u.
        total same-spin energy     =        -0.6578089602 a.u.
        total opposite-spin energy =        -1.8455635370 a.u.

 Total  RIMP2   correlation energy =        -2.5033724973 a.u.
        RIMP2         total energy =     -1391.7550237112 a.u.

 RI-MP2 Energy Time:  CPU 171.80 s  wall 3.24 s
 
 --------------------------------------------------------------
 
                    Orbital Energies (a.u.)
 --------------------------------------------------------------
 
 Alpha MOs
 -- Occupied --
-92.0054 -91.9880 -26.3345 -20.6091 -20.5448 -11.4057 -11.3769 -11.3209
-11.2918 -11.2870 -11.2867 -11.2751 -11.2667 -11.2372  -9.0044  -8.9923
 -6.6852  -6.6846  -6.6841  -6.6736  -6.6729  -6.6715  -1.6475  -1.4685
 -1.3632  -1.2269  -1.1483  -1.0680  -1.0270  -1.0058  -0.9675  -0.9104
 -0.8625  -0.7959  -0.7845  -0.7660  -0.7261  -0.7151  -0.6964  -0.6773
 -0.6761  -0.6671  -0.6103  -0.6026  -0.5991  -0.5862  -0.5848  -0.5594
 -0.5304  -0.5263  -0.5191  -0.4951  -0.4782  -0.4620  -0.4584  -0.4562
 -0.3900  -0.3471  -0.2717
 -- Virtual --
  0.0430   0.1205   0.1363   0.1556   0.1582   0.1719   0.1901   0.1992
  0.2041   0.2081   0.2177   0.2240   0.2353   0.2414   0.2660   0.2751
  0.2875   0.3094   0.3258   0.3330   0.3446   0.3604   0.3701   0.3778
  0.3819   0.3876   0.4061   0.4125   0.4167   0.4306   0.4361   0.4401
  0.4574   0.4647   0.4677   0.4908   0.4983   0.5040   0.5122   0.5266
  0.5376   0.5416   0.5472   0.5553   0.5616   0.5660   0.5720   0.5864
  0.5893   0.6003   0.6031   0.6090   0.6120   0.6183   0.6223   0.6334
  0.6368   0.6462   0.6485   0.6627   0.6735   0.6894   0.6995   0.7064
  0.7170   0.7270   0.7408   0.7571   0.7655   0.7780   0.7885   0.7948
  0.8038   0.8121   0.8196   0.8512   0.8558   0.8622   0.8812   0.8886
  0.9004   0.9045   0.9240   0.9287   0.9387   0.9470   0.9725   0.9798
  0.9890   1.0011   1.0054   1.0183   1.0326   1.0342   1.0476   1.0551
  1.0613   1.0723   1.0844   1.0882   1.1000   1.1050   1.1169   1.1274
  1.1406   1.1567   1.1662   1.1695   1.1735   1.1846   1.1997   1.2112
  1.2191   1.2361   1.2439   1.2546   1.2614   1.2782   1.2921   1.3157
  1.3322   1.3409   1.3439   1.3513   1.3718   1.3763   1.3940   1.4132
  1.4298   1.4368   1.4568   1.4647   1.4733   1.4815   1.5008   1.5037
  1.5127   1.5154   1.5242   1.5499   1.5575   1.5612   1.5670   1.5980
  1.6221   1.6273   1.6598   1.6688   1.6786   1.7016   1.7120   1.7308
  1.7625   1.7733   1.7935   1.8169   1.8342   1.8364   1.8427   1.8597
  1.8711   1.8808   1.8900   1.9299   1.9313   1.9436   1.9579   1.9747
  2.0044   2.0277   2.0317   2.0520   2.0668   2.0964   2.1034   2.1326
  2.1466   2.1551   2.1635   2.1813   2.1990   2.2140   2.2230   2.2424
  2.2490   2.2653   2.2753   2.2840   2.3015   2.3057   2.3313   2.3495
  2.3661   2.3840   2.3951   2.4191   2.4432   2.4655   2.4849   2.4995
  2.5307   2.5434   2.5626   2.5779   2.5894   2.6050   2.6084   2.6307
  2.6404   2.6612   2.6682   2.6757   2.6876   2.7041   2.7218   2.7262
  2.7415   2.7527   2.7638   2.7751   2.7895   2.8043   2.8246   2.8316
  2.8491   2.8698   2.8886   2.9014   2.9076   2.9170   2.9392   2.9586
  2.9830   2.9917   3.0164   3.0375   3.0412   3.0440   3.0511   3.0690
  3.0812   3.0916   3.0950   3.1025   3.1137   3.1444   3.1492   3.1566
  3.1675   3.1858   3.1955   3.2078   3.2171   3.2274   3.2508   3.2529
  3.2615   3.2726   3.2803   3.2860   3.2952   3.2965   3.3056   3.3166
  3.3377   3.3471   3.3545   3.3669   3.3726   3.3825   3.4084   3.4231
  3.4292   3.4503   3.4535   3.4673   3.4728   3.4855   3.4935   3.4997
  3.5170   3.5243   3.5306   3.5457   3.5594   3.5707   3.5801   3.5953
  3.5978   3.6009   3.6124   3.6215   3.6312   3.6411   3.6582   3.6671
  3.6705   3.6865   3.7042   3.7079   3.7126   3.7290   3.7323   3.7385
  3.7525   3.7670   3.7968   3.8025   3.8229   3.8292   3.8377   3.8517
  3.8586   3.8770   3.8823   3.8875   3.9072   3.9189   3.9336   3.9443
  3.9528   3.9707   3.9746   3.9956   4.0240   4.0312   4.0448   4.0548
  4.0639   4.0814   4.0942   4.1131   4.1381   4.1448   4.1577   4.1745
  4.1892   4.2339   4.2490   4.2785   4.2814   4.3095   4.3139   4.3484
  4.3540   4.3768   4.3814   4.3892   4.3932   4.4044   4.4122   4.4416
  4.4583   4.4755   4.4981   4.5048   4.5296   4.5534   4.5767   4.6008
  4.6312   4.6375   4.6440   4.6626   4.6816   4.6876   4.7195   4.7445
  4.7493   4.7582   4.7933   4.8055   4.8232   4.8769   4.9201   4.9254
  4.9774   5.0070   5.0154   5.0380   5.0849   5.0963   5.1199   5.1345
  5.1733   5.1940   5.2111   5.2219   5.2557   5.2607   5.2932   5.3567
  5.3571   5.3626   5.4014   5.4145   5.4588   5.4745   5.4870   5.5366
  5.5617   5.5776   5.6112   5.6213   5.6235   5.6537   5.7374   5.7997
  5.8037   5.8194   5.8507   5.8743   5.9269   5.9737   5.9821   6.0598
  6.0873   6.1294   6.1356   6.1873   6.2372   6.3112   6.3674   6.4401
  6.4865   6.5126   6.5600   6.6703   6.6808   6.7398   6.7420   6.8648
  6.8848   6.9954   7.1815   7.2136   7.3308   7.3724   7.3756   7.4314
  7.4655   7.4863   7.5187   7.5526   7.6121   7.7697   7.8347   7.9100
  8.0015   8.1214   8.4221   8.9269   9.0068   9.3628   9.4964   9.6914
 10.1251  11.2213  11.6090  11.9378  12.2995  12.6695  13.1592  13.4933
 13.7713  14.0670  14.7112
 --------------------------------------------------------------
 
          Ground-State Mulliken Net Atomic Charges

     Atom                 Charge (a.u.)
  ----------------------------------------
      1 C                     0.064268
      2 S                     0.084133
      3 C                    -0.277794
      4 C                    -0.115765
      5 C                    -0.009534
      6 C                     0.378715
      7 C                    -0.169838
      8 S                     0.026067
      9 C                     0.458768
     10 O                    -0.459184
     11 O                    -0.299221
     12 F                    -0.212301
     13 C                    -0.054810
     14 H                     0.115896
     15 H                     0.083563
     16 H                     0.083347
     17 C                    -0.377293
     18 H                     0.155942
     19 H                     0.168875
     20 H                     0.146876
     21 H                     0.209291
  ----------------------------------------
  Sum of atomic charges =     0.000000

 -----------------------------------------------------------------
                    Cartesian Multipole Moments
 -----------------------------------------------------------------
    Charge (ESU x 10^10)
                -0.0000
    Dipole Moment (Debye)
         X       1.4704      Y       0.2942      Z       3.7515
       Tot       4.0401
    Quadrupole Moments (Debye-Ang)
        XX     -96.1559     XY      -0.8005     YY     -82.7968
        XZ      -0.7972     YZ     -12.3725     ZZ     -96.9731
    Octopole Moments (Debye-Ang^2)
       XXX     -51.1524    XXY     -82.7210    XYY      -5.8856
       YYY    -232.0284    XXZ      78.9059    XYZ      -5.8057
       YYZ      67.0586    XZZ       0.3963    YZZ       3.1809
       ZZZ     261.3982
    Hexadecapole Moments (Debye-Ang^3)
      XXXX    -165.2862   XXXY    -124.8164   XXYY    -343.6835
      XYYY    -113.0754   YYYY   -1732.9017   XXXZ     115.8855
      XXYZ     242.9168   XYYZ      28.1902   YYYZ     630.3476
      XXZZ    -679.6389   XYZZ       5.1782   YYZZ    -680.0948
      XZZZ      45.9132   YZZZ     329.3801   ZZZZ   -3814.2685
 -----------------------------------------------------------------
 Total job time:  164.39s(wall), 1994.55s(cpu) 
 Sun Sep 24 16:37:59 2023

        *************************************************************
        *                                                           *
        *  Thank you very much for using Q-Chem.  Have a nice day.  *
        *                                                           *
        *************************************************************


0 sent ACK to 0 
now end server 0 ... 
cleanup process ... done
remove work dirs ./qchem629241.0 -- ./qchem629241.0
rm -rf ./qchem629241.0
rm -rf ./qchem629241
