You are running Q-Chem version: 5.4.0

#
# job setting
#
local host:  exp-8-18
current dir: /expanse/lustre/projects/csd626/rramji/aromodel/PTB7_fin/Hydrogenated_Impropers_Test
input file:  fin_bdt_Phi_5_Theta_40_fin_ftt_Hydrogenated_Improper.qcin
output file: 
nprocs     : 1
nthreads   : 64
#
# qchem installation setting
#
QC:          /cm/shared/apps/spack/cpu/opt/spack/linux-centos8-zen2/gcc-10.2.0/qchem-5.4-akfmr7b3t57bfs6qan3padb2wnb2i7cl
QCAUX:       /cm/shared/apps/spack/cpu/opt/spack/linux-centos8-zen2/gcc-10.2.0/qchem-5.4-akfmr7b3t57bfs6qan3padb2wnb2i7cl/qcaux
QCPROG:      /cm/shared/apps/spack/cpu/opt/spack/linux-centos8-zen2/gcc-10.2.0/qchem-5.4-akfmr7b3t57bfs6qan3padb2wnb2i7cl/exe/qcprog.exe
QCPROG_S:    /cm/shared/apps/spack/cpu/opt/spack/linux-centos8-zen2/gcc-10.2.0/qchem-5.4-akfmr7b3t57bfs6qan3padb2wnb2i7cl/exe/qcprog.exe_s
PARALLEL:    -DPARALLEL
QCMPI:       mpich
#
# qchem directory setting
#
qcrun:       qchem1175881
QCSCRATCH:   .
QCLOCALSCR:  
QCTMPDIR:    .
QCFILEPREF:  ./qchem1175881
QCSAVEDIR:   
workdirs:    ./qchem1175881
workdir0:    ./qchem1175881
partmpdirs =  
#
# parallel setting
#
QCRSH:           ssh
QCMPI:           mpich
QCMPIRUN:        /cm/shared/apps/spack/cpu/opt/spack/linux-centos8-zen2/gcc-10.2.0/qchem-5.4-akfmr7b3t57bfs6qan3padb2wnb2i7cl/bin/mpi/mpirun_qchem
QCMACHINEFILE:   ./qchem1175881/hostfile
exp-8-18

#
# env setting
#
exported envs:   QC QCAUX QCSCRATCH QCRUNNAME QCFILEPREF QCPROG QCPROG_S GUIFILE

Running Job 1 of 1 fin_bdt_Phi_5_Theta_40_fin_ftt_Hydrogenated_Improper.qcin
qchem fin_bdt_Phi_5_Theta_40_fin_ftt_Hydrogenated_Improper.qcin_1175881.0 ./qchem1175881/ 1
/cm/shared/apps/spack/cpu/opt/spack/linux-centos8-zen2/gcc-10.2.0/qchem-5.4-akfmr7b3t57bfs6qan3padb2wnb2i7cl/bin/mpi/mpirun_qchem -machinefile ./qchem1175881/hostfile -np 1 /cm/shared/apps/spack/cpu/opt/spack/linux-centos8-zen2/gcc-10.2.0/qchem-5.4-akfmr7b3t57bfs6qan3padb2wnb2i7cl/exe/qcprog.exe fin_bdt_Phi_5_Theta_40_fin_ftt_Hydrogenated_Improper.qcin_1175881.0 ./qchem1175881/

Process 0 of 1 is on exp-8-18 - thread support 0
initial socket setup ...start
initial socket setup ...done 
now start server 0 ... 
                  Welcome to Q-Chem
     A Quantum Leap Into The Future Of Chemistry


 Q-Chem 5.4, Q-Chem, Inc., Pleasanton, CA (2021)

 License issued to: University of California, San Diego (site)

 E. Epifanovsky,  A. T. B. Gilbert,  Xintian Feng,  Joonho Lee,  Yuezhi Mao,  
 N. Mardirossian,  P. Pokhilko,  A. White,  M. Wormit,  M. P. Coons,  
 A. L. Dempwolff,  Zhengting Gan,  D. Hait,  P. R. Horn,  L. D. Jacobson,  
 I. Kaliman,  J. Kussmann,  A. W. Lange,  Ka Un Lao,  D. S. Levine,  Jie Liu,  
 S. C. McKenzie,  A. F. Morrison,  K. Nanda,  F. Plasser,  D. R. Rehn,  
 M. L. Vidal,  Zhi-Qiang You,  Ying Zhu,  B. Alam,  B. Albrecht,  
 A. Aldossary,  E. Alguire,  J. H. Andersen,  D. Barton,  K. Begam,  A. Behn,  
 Y. A. Bernard,  E. J. Berquist,  H. Burton,  A. Carreras,  K. Carter-Fenk,  
 R. Chakraborty,  A. D. Chien,  K. D. Closser,  V. Cofer-Shabica,  
 S. Dasgupta,  Jia Deng,  M. de Wergifosse,  M. Diedenhofen,  Hainam Do,  
 S. Ehlert,  Po-Tung Fang,  S. Fatehi,  Qingguo Feng,  J. Gayvert,  
 Qinghui Ge,  G. Gidofalvi,  M. Goldey,  J. Gomes,  C. Gonzalez-Espinoza,  
 S. Gulania,  A. Gunina,  M. W. D. Hanson-Heine,  P. H. P. Harbach,  
 A. W. Hauser,  M. F. Herbst,  M. Hernandez Vera,  M. Hodecker,  
 Z. C. Holden,  S. Houck,  Xunkun Huang,  Kerwin Hui,  B. C. Huynh,  
 M. Ivanov,  Hyunjun Ji,  Hanjie Jiang,  B. Kaduk,  S. Kaehler,  
 K. Khistyaev,  Jaehoon Kim,  P. Klunzinger,  Z. Koczor-Benda,  
 Joong Hoon Koh,  D. Kosenkov,  L. Koulias,  T. Kowalczyk,  C. M. Krauter,  
 K. Kue,  A. Kunitsa,  T. Kus,  A. Landau,  K. V. Lawler,  D. Lefrancois,  
 S. Lehtola,  Rain Li,  Yi-Pei Li,  Jiashu Liang,  M. Liebenthal,  
 Hung-Hsuan Lin,  You-Sheng Lin,  Fenglai Liu,  Kuan-Yu Liu,  
 M. Loipersberger,  A. Luenser,  A. Manjanath,  P. Manohar,  E. Mansoor,  
 S. F. Manzer,  Shan-Ping Mao,  A. V. Marenich,  T. Markovich,  S. Mason,  
 S. A. Maurer,  P. F. McLaughlin,  M. F. S. J. Menger,  J.-M. Mewes,  
 S. A. Mewes,  P. Morgante,  J. W. Mullinax,  T. S. Nguyen-Beck,  
 K. J. Oosterbaan,  G. Paran,  Alexander C. Paul,  Suranjan K. Paul,  
 F. Pavosevic,  Zheng Pei,  S. Prager,  E. I. Proynov,  E. Ramos,  B. Rana,  
 A. E. Rask,  A. Rettig,  R. M. Richard,  F. Rob,  E. Rossomme,  T. Scheele,  
 M. Scheurer,  M. Schneider,  N. Sergueev,  S. M. Sharada,  W. Skomorowski,  
 D. W. Small,  C. J. Stein,  Yu-Chuan Su,  E. J. Sundstrom,  Zhen Tao,  
 J. Thirman,  T. Tsuchimochi,  N. M. Tubman,  S. P. Veccham,  O. Vydrov,  
 J. Wenzel,  J. Witte,  A. Yamada,  Kun Yao,  S. Yeganeh,  S. R. Yost,  
 A. Zech,  Igor Ying Zhang,  Xing Zhang,  Yu Zhang,  D. Zuev,  
 A. Aspuru-Guzik,  A. T. Bell,  N. A. Besley,  K. B. Bravaya,  B. R. Brooks,  
 D. Casanova,  Jeng-Da Chai,  S. Coriani,  C. J. Cramer,  
 A. E. DePrince, III,  R. A. DiStasio Jr.,  A. Dreuw,  B. D. Dunietz,  
 T. R. Furlani,  W. A. Goddard III,  S. Grimme,  S. Hammes-Schiffer,  
 T. Head-Gordon,  W. J. Hehre,  Chao-Ping Hsu,  T.-C. Jagau,  Yousung Jung,  
 A. Klamt,  Jing Kong,  D. S. Lambrecht,  WanZhen Liang,  N. J. Mayhall,  
 C. W. McCurdy,  J. B. Neaton,  C. Ochsenfeld,  J. A. Parkhill,  R. Peverati,  
 V. A. Rassolov,  Yihan Shao,  L. V. Slipchenko,  T. Stauch,  R. P. Steele,  
 J. E. Subotnik,  A. J. W. Thom,  A. Tkatchenko,  D. G. Truhlar,  
 T. Van Voorhis,  T. A. Wesolowski,  K. B. Whaley,  H. L. Woodcock III,  
 P. M. Zimmerman,  S. Faraji,  P. M. W. Gill,  M. Head-Gordon,  
 J. M. Herbert,  A. I. Krylov

 Contributors to earlier versions of Q-Chem not listed above: 
 R. D. Adamson,  B. Austin,  R. Baer,  J. Baker,  G. J. O. Beran,  
 K. Brandhorst,  S. T. Brown,  E. F. C. Byrd,  A. K. Chakraborty,  
 G. K. L. Chan,  Chun-Min Chang,  Yunqing Chen,  C.-L. Cheng,  
 Siu Hung Chien,  D. M. Chipman,  D. L. Crittenden,  H. Dachsel,  
 R. J. Doerksen,  A. D. Dutoi,  R. G. Edgar,  J. Fosso-Tande,  
 L. Fusti-Molnar,  D. Ghosh,  A. Ghysels,  A. Golubeva-Zadorozhnaya,  
 J. Gonthier,  M. S. Gordon,  S. R. Gwaltney,  G. Hawkins,  J. E. Herr,  
 A. Heyden,  S. Hirata,  E. G. Hohenstein,  G. Kedziora,  F. J. Keil,  
 C. Kelley,  Jihan Kim,  R. A. King,  R. Z. Khaliullin,  P. P. Korambath,  
 W. Kurlancheek,  A. Laurent,  A. M. Lee,  M. S. Lee,  S. V. Levchenko,  
 Ching Yeh Lin,  D. Liotard,  E. Livshits,  R. C. Lochan,  I. Lotan,  
 L. A. Martinez-Martinez,  P. E. Maslen,  N. Nair,  D. P. O'Neill,  
 D. Neuhauser,  E. Neuscamman,  C. M. Oana,  R. Olivares-Amaya,  R. Olson,  
 T. M. Perrine,  B. Peters,  P. A. Pieniazek,  A. Prociuk,  Y. M. Rhee,  
 J. Ritchie,  M. A. Rohrdanz,  E. Rosta,  N. J. Russ,  H. F. Schaefer III,  
 M. W. Schmidt,  N. E. Schultz,  S. Sharma,  N. Shenvi,  C. D. Sherrill,  
 A. C. Simmonett,  A. Sodt,  T. Stein,  D. Stuck,  K. S. Thanthiriwatte,  
 V. Vanovschi,  L. Vogt,  Tao Wang,  A. Warshel,  M. A. Watson,  
 C. F. Williams,  Q. Wu,  X. Xu,  Jun Yang,  W. Zhang,  Yan Zhao

 Please cite Q-Chem as follows:
 Y. Shao et al., Mol. Phys. 113, 184-215 (2015)
 DOI: 10.1080/00268976.2014.952696

 Q-Chem 5.4.0 for Intel X86 EM64T Linux

 Parts of Q-Chem use Armadillo 9.800.1 (Horizon Scraper).
 http://arma.sourceforge.net/

 Q-Chem begins on Tue Sep 26 17:47:30 2023  

 Host: 
0

     Scratch files written to ./qchem1175881//
 May1621 |scratch|qcdevops|jenkins|workspace|build_RNUM    
 Parallel job on  1  processors
 Processing $rem in /cm/shared/apps/spack/cpu/opt/spack/linux-centos8-zen2/gcc-10.2.0/qchem-5.4-akfmr7b3t57bfs6qan3padb2wnb2i7cl/config/preferences:
 Processing $rem in /home/rramji/.qchemrc:
 Symmetry turned off for PCM/SM12/SMD calculation
 Core orbitals will be frozen

 Checking the input file for inconsistencies... 	...done.

 Q-Chem warning in module forms1/BasisType.C, line 2236:

 You are not using the predefined 5D/6D in this basis set.


--------------------------------------------------------------
User input:
--------------------------------------------------------------
$molecule
0 1
C	-0.081009	-0.833466	1.021608
S	-0.000409	0.062334	2.532308
C	0.135791	1.631734	1.749208
C	-0.001909	0.071334	-0.043092
C	0.117691	1.454934	0.343308
C	-0.006009	0.005034	-1.464492
C	0.104091	1.265034	-2.085292
S	0.209491	2.508134	-0.944092
C	0.130891	1.518134	-3.538392
O	0.052491	0.587934	-4.328692
O	0.245991	2.796134	-3.982792
F	-0.099209	-1.105166	-2.224692
C	0.287391	3.152634	-5.313392
H	0.384291	4.253334	-5.348692
H	-0.634109	2.842434	-5.853992
H	1.148891	2.685834	-5.840292
C	-0.081009	-2.268666	1.021608
H	0.751691	-2.277666	1.709308
H	-0.618009	-2.952566	1.662108
H	0.519691	-2.793066	0.293208
H	0.216091	2.548234	2.343108
$end

$rem
JOBTYPE		SP
EXCHANGE	HF
CORRELATION	pRIMP2
BASIS		cc-pvtz
METHOD		rimp2
AUX_BASIS	rimp2-cc-pvtz
SOLVENT_METHOD	PCM
PURECART	11111
SYMMETRY	false
MEM_TOTAL	110000
SCF_CONVERGENCE = 6
THRESH=10
GUI = 2
$end



$solvent
dielectric 4.90
$end
--------------------------------------------------------------
 ----------------------------------------------------------------
             Standard Nuclear Orientation (Angstroms)
    I     Atom           X                Y                Z
 ----------------------------------------------------------------
    1      C      -0.0810090000    -0.8334660000     1.0216080000
    2      S      -0.0004090000     0.0623340000     2.5323080000
    3      C       0.1357910000     1.6317340000     1.7492080000
    4      C      -0.0019090000     0.0713340000    -0.0430920000
    5      C       0.1176910000     1.4549340000     0.3433080000
    6      C      -0.0060090000     0.0050340000    -1.4644920000
    7      C       0.1040910000     1.2650340000    -2.0852920000
    8      S       0.2094910000     2.5081340000    -0.9440920000
    9      C       0.1308910000     1.5181340000    -3.5383920000
   10      O       0.0524910000     0.5879340000    -4.3286920000
   11      O       0.2459910000     2.7961340000    -3.9827920000
   12      F      -0.0992090000    -1.1051660000    -2.2246920000
   13      C       0.2873910000     3.1526340000    -5.3133920000
   14      H       0.3842910000     4.2533340000    -5.3486920000
   15      H      -0.6341090000     2.8424340000    -5.8539920000
   16      H       1.1488910000     2.6858340000    -5.8402920000
   17      C      -0.0810090000    -2.2686660000     1.0216080000
   18      H       0.7516910000    -2.2776660000     1.7093080000
   19      H      -0.6180090000    -2.9525660000     1.6621080000
   20      H       0.5196910000    -2.7930660000     0.2932080000
   21      H       0.2160910000     2.5482340000     2.3431080000
 ----------------------------------------------------------------
 Nuclear Repulsion Energy =        1088.82907456 hartrees
 There are       59 alpha and       59 beta electrons
 Requested basis set is cc-pVTZ
 There are 186 shells and 526 basis functions

 Total QAlloc Memory Limit 110000 MB
 Mega-Array Size       188 MB
 MEM_STATIC part       192 MB
 Discretize the solute cavity surface with Lebedev spheres
	Using 110 Lebedev grid points for each H atom
	Using 194 Lebedev grid points for other atoms
	Atomic van der Waals radii will be scaled by 1.20
 Remove points where switching function is < 1.0e-08
 Keep 1577 surface tesserae and discard 1909 interior tesserae
 Molecular Surface Area = 242.493 Angst**2
 Requested basis set is rimp2-cc-pVTZ
 There are 410 shells and 1426 basis functions
 A cutoff of  1.0D-10 yielded  11510 shell pairs
 There are     90476 function pairs (    118493 Cartesian)
 Smallest overlap matrix eigenvalue = 5.47E-05

 Scale SEOQF with 1.000000e+00/1.000000e-01/1.000000e-02

 Standard Electronic Orientation quadrupole field applied
 Nucleus-field energy     =     0.0000000202 hartrees
 Guess from superposition of atomic densities
 Warning:  Energy on first SCF cycle will be non-variational
 SAD guess density has 118.000000 electrons

 -----------------------------------------------------------------------
  General SCF calculation program by
  Eric Jon Sundstrom, Paul Horn, Yuezhi Mao, Dmitri Zuev, Alec White,
  David Stuck, Shaama M.S., Shane Yost, Joonho Lee, David Small,
  Daniel Levine, Susi Lehtola, Hugh Burton, Evgeny Epifanovsky,
  Bang C. Huynh
 -----------------------------------------------------------------------
 Hartree-Fock
 using 64 threads for integral computing
 -------------------------------------------------------
 OpenMP Integral computing Module                
 Release: version 1.0, May 2013, Q-Chem Inc. Pittsburgh 
 -------------------------------------------------------
 A restricted SCF calculation will be
 performed using DIIS
 SCF converges when DIIS error is below 1.0e-06
 ---------------------------------------
  Cycle       Energy         DIIS error
 ---------------------------------------
    1   -1394.5619358761      2.52e-02  
    2   -1389.0144530437      2.50e-03  
    3   -1389.1869754069      1.57e-03  
    4   -1389.2482010669      3.47e-04  
    5   -1389.2538617212      1.10e-04  
    6   -1389.2545228635      3.64e-05  
    7   -1389.2546648198      1.81e-05  
    8   -1389.2547111639      7.07e-06  
    9   -1389.2547208423      3.11e-06  
   10   -1389.2547222705      1.18e-06  
   11   -1389.2547224798      4.37e-07  Convergence criterion met
 ---------------------------------------
 SCF time:   CPU 1685.55s  wall 49.00s 

************** Final PCM Free Energy Summary **************
 G_electrostatic  =      -0.01390483 hartree =      -8.72541384 kcal/mol
 G_cavitation     =       0.00000000 hartree =       0.00000000 kcal/mol
 G_dispersion     =       0.00000000 hartree =       0.00000000 kcal/mol
 G_repulsion      =       0.00000000 hartree =       0.00000000 kcal/mol
 --------------------------------------------------
 Non-electrostatic Free Energy =       0.00000000 hartree =       0.00000000 kcal/mol
 Total                         =      -0.01390483 hartree =      -8.72541384 kcal/mol
 --------------------------------------------------
 SCF Energy (H0 + V/2)                       =   -1389.25472248 
 Solute Internal Energy (H0)                 =   -1389.24081765 
 Total Free Energy (H0 + V/2 + non-elec)     =   -1389.25472248 hartree
                                             = -871770.49598753 kcal/mol
***********************************************************

 SCF   energy in the final basis set =    -1389.2547224798
 Total energy in the final basis set =    -1389.2547224798


 --------------------------------------------------------------
  Generalized many-body perturbation theory program
  by Joonho Lee, Fazle Rob, Xintian Feng, Evgeny Epifanovsky

 No regularization used 
 (reg. param. = 0.0000e+00)
  (P|Q)^-1/2 Time:  CPU 20.84 s  wall 0.33 s

 In RI-MP2 calculation: 
 # of frozen core orbitals: 22

 Components of the RIMP2 correlation energy:
        aaaa    correlation energy =        -0.3287896204 a.u.
        abab    correlation energy =        -1.8455742345 a.u.
        bbbb    correlation energy =        -0.3287896204 a.u.
        non-Brillouin singles      =        -0.0000000000 a.u.
        total same-spin energy     =        -0.6575792409 a.u.
        total opposite-spin energy =        -1.8455742345 a.u.

 Total  RIMP2   correlation energy =        -2.5031534754 a.u.
        RIMP2         total energy =     -1391.7578759552 a.u.

 RI-MP2 Energy Time:  CPU 166.80 s  wall 2.72 s
 
 --------------------------------------------------------------
 
                    Orbital Energies (a.u.)
 --------------------------------------------------------------
 
 Alpha MOs
 -- Occupied --
-92.0057 -91.9880 -26.3335 -20.6096 -20.5458 -11.4065 -11.3762 -11.3160
-11.2909 -11.2886 -11.2872 -11.2785 -11.2683 -11.2327  -9.0047  -8.9923
 -6.6856  -6.6850  -6.6845  -6.6736  -6.6729  -6.6716  -1.6464  -1.4691
 -1.3639  -1.2263  -1.1468  -1.0662  -1.0284  -1.0059  -0.9677  -0.9106
 -0.8631  -0.7962  -0.7840  -0.7666  -0.7260  -0.7142  -0.6957  -0.6766
 -0.6764  -0.6672  -0.6099  -0.6032  -0.5978  -0.5861  -0.5816  -0.5614
 -0.5396  -0.5249  -0.5108  -0.4894  -0.4787  -0.4615  -0.4586  -0.4566
 -0.3932  -0.3465  -0.2755
 -- Virtual --
  0.0423   0.1193   0.1332   0.1558   0.1600   0.1715   0.1927   0.1979
  0.2070   0.2151   0.2188   0.2291   0.2325   0.2411   0.2667   0.2717
  0.2837   0.3110   0.3196   0.3344   0.3443   0.3555   0.3688   0.3776
  0.3819   0.3920   0.4016   0.4161   0.4180   0.4311   0.4403   0.4428
  0.4645   0.4665   0.4708   0.4926   0.4982   0.5082   0.5148   0.5202
  0.5310   0.5380   0.5467   0.5567   0.5602   0.5690   0.5778   0.5878
  0.5927   0.5947   0.6064   0.6089   0.6142   0.6199   0.6241   0.6304
  0.6409   0.6457   0.6508   0.6687   0.6737   0.6891   0.6943   0.7083
  0.7147   0.7205   0.7395   0.7665   0.7703   0.7874   0.7880   0.7980
  0.8090   0.8146   0.8284   0.8442   0.8626   0.8689   0.8824   0.8957
  0.9029   0.9166   0.9228   0.9298   0.9353   0.9550   0.9619   0.9731
  0.9813   0.9931   0.9986   1.0131   1.0278   1.0352   1.0456   1.0567
  1.0604   1.0619   1.0842   1.0893   1.0968   1.1021   1.1223   1.1367
  1.1471   1.1518   1.1609   1.1689   1.1832   1.1950   1.2037   1.2150
  1.2204   1.2356   1.2500   1.2594   1.2695   1.2811   1.2983   1.3114
  1.3205   1.3389   1.3470   1.3491   1.3773   1.3865   1.3987   1.4057
  1.4144   1.4328   1.4432   1.4785   1.4860   1.4983   1.5037   1.5137
  1.5159   1.5199   1.5411   1.5530   1.5585   1.5696   1.5832   1.6068
  1.6199   1.6379   1.6600   1.6721   1.6846   1.7173   1.7201   1.7345
  1.7405   1.7653   1.7958   1.8173   1.8240   1.8361   1.8445   1.8702
  1.8718   1.8811   1.8872   1.9170   1.9330   1.9407   1.9476   1.9721
  1.9930   2.0235   2.0295   2.0452   2.0563   2.0939   2.1061   2.1315
  2.1443   2.1584   2.1640   2.1762   2.1984   2.2085   2.2210   2.2414
  2.2540   2.2764   2.2865   2.2902   2.2930   2.3112   2.3342   2.3508
  2.3733   2.3842   2.4084   2.4290   2.4542   2.4644   2.4880   2.4955
  2.5307   2.5568   2.5771   2.5825   2.5938   2.6181   2.6308   2.6375
  2.6553   2.6643   2.6719   2.6888   2.6982   2.7117   2.7175   2.7308
  2.7342   2.7485   2.7658   2.7689   2.7819   2.8058   2.8097   2.8245
  2.8460   2.8512   2.8833   2.8963   2.9145   2.9214   2.9320   2.9497
  2.9599   2.9920   3.0220   3.0333   3.0373   3.0443   3.0472   3.0681
  3.0702   3.0922   3.0936   3.1030   3.1237   3.1352   3.1534   3.1610
  3.1633   3.1744   3.1981   3.2099   3.2189   3.2200   3.2381   3.2562
  3.2588   3.2688   3.2760   3.2828   3.2953   3.3113   3.3137   3.3303
  3.3366   3.3457   3.3631   3.3659   3.3811   3.3886   3.3968   3.4111
  3.4254   3.4402   3.4502   3.4579   3.4612   3.4809   3.4906   3.4934
  3.5104   3.5180   3.5297   3.5495   3.5684   3.5773   3.5871   3.6015
  3.6026   3.6211   3.6274   3.6293   3.6479   3.6549   3.6646   3.6781
  3.6829   3.6909   3.7019   3.7093   3.7146   3.7263   3.7313   3.7354
  3.7546   3.7593   3.7814   3.7959   3.8243   3.8355   3.8383   3.8448
  3.8611   3.8648   3.8669   3.8763   3.8904   3.9312   3.9343   3.9540
  3.9608   3.9649   3.9811   3.9920   3.9951   4.0127   4.0309   4.0556
  4.0714   4.0833   4.0943   4.1146   4.1248   4.1359   4.1565   4.1736
  4.1872   4.2109   4.2333   4.2749   4.2928   4.2954   4.3162   4.3345
  4.3490   4.3585   4.3768   4.3819   4.4001   4.4073   4.4202   4.4387
  4.4507   4.4751   4.5021   4.5041   4.5273   4.5546   4.5893   4.5927
  4.6209   4.6401   4.6535   4.6673   4.6762   4.6883   4.7049   4.7411
  4.7611   4.7783   4.7814   4.8105   4.8136   4.8865   4.9142   4.9199
  4.9755   5.0127   5.0243   5.0341   5.0710   5.1006   5.1111   5.1445
  5.1783   5.2115   5.2196   5.2480   5.2604   5.2633   5.2955   5.3538
  5.3568   5.3576   5.4042   5.4257   5.4605   5.4743   5.4957   5.5351
  5.5522   5.5986   5.6146   5.6211   5.6460   5.6701   5.7347   5.8032
  5.8114   5.8220   5.8498   5.8738   5.9094   5.9730   5.9842   6.0708
  6.0978   6.1353   6.1354   6.1873   6.2440   6.3108   6.3803   6.4606
  6.4891   6.5272   6.5593   6.6759   6.6800   6.7408   6.7430   6.8639
  6.8849   6.9948   7.1810   7.2128   7.3299   7.3733   7.3767   7.4306
  7.4650   7.4871   7.5208   7.5518   7.6183   7.7704   7.8342   7.9154
  8.0015   8.1246   8.4927   8.9280   9.0089   9.3636   9.4997   9.6898
 10.1183  11.2262  11.5104  11.9355  12.3054  12.6939  13.1503  13.5107
 13.7921  14.0722  14.7675
 --------------------------------------------------------------
 
          Ground-State Mulliken Net Atomic Charges

     Atom                 Charge (a.u.)
  ----------------------------------------
      1 C                     0.044726
      2 S                     0.077269
      3 C                    -0.265591
      4 C                    -0.093686
      5 C                    -0.015482
      6 C                     0.399462
      7 C                    -0.168401
      8 S                     0.023264
      9 C                     0.460196
     10 O                    -0.457373
     11 O                    -0.298730
     12 F                    -0.213577
     13 C                    -0.055072
     14 H                     0.116046
     15 H                     0.083819
     16 H                     0.083605
     17 C                    -0.376344
     18 H                     0.135741
     19 H                     0.161953
     20 H                     0.147481
     21 H                     0.210693
  ----------------------------------------
  Sum of atomic charges =     0.000000

 -----------------------------------------------------------------
                    Cartesian Multipole Moments
 -----------------------------------------------------------------
    Charge (ESU x 10^10)
                -0.0000
    Dipole Moment (Debye)
         X       0.7881      Y       0.5111      Z       4.0849
       Tot       4.1915
    Quadrupole Moments (Debye-Ang)
        XX     -96.3349     XY      -0.4201     YY     -82.0280
        XZ      -0.7263     YZ     -13.5068     ZZ     -95.7775
    Octopole Moments (Debye-Ang^2)
       XXX     -24.6809    XXY     -84.4296    XYY      -2.6346
       YYY    -234.4696    XXZ      79.1141    XYZ      -1.6609
       YYZ      69.3851    XZZ       0.0570    YZZ       3.3465
       ZZZ     259.7271
    Hexadecapole Moments (Debye-Ang^3)
      XXXX    -131.8058   XXXY     -71.1654   XXYY    -347.4081
      XYYY     -61.7149   YYYY   -1763.7833   XXXZ      63.6653
      XXYZ     248.8797   XYYZ       9.7751   YYYZ     631.5509
      XXZZ    -679.7987   XYZZ       4.7276   YYZZ    -677.1706
      XZZZ      26.3277   YZZZ     333.5837   ZZZZ   -3809.7101
 -----------------------------------------------------------------
 Total job time:  53.04s(wall), 1914.70s(cpu) 
 Tue Sep 26 17:48:23 2023

        *************************************************************
        *                                                           *
        *  Thank you very much for using Q-Chem.  Have a nice day.  *
        *                                                           *
        *************************************************************


0 sent ACK to 0 
now end server 0 ... 
cleanup process ... done
remove work dirs ./qchem1175881.0 -- ./qchem1175881.0
rm -rf ./qchem1175881.0
rm -rf ./qchem1175881
