You are running Q-Chem version: 5.4.0

#
# job setting
#
local host:  exp-6-53
current dir: /expanse/lustre/projects/csd626/rramji/aromodel/PTB7_fin/Hydrogenated_Impropers_Test
input file:  fin_bdt_Phi_0_Theta_60_fin_ftt_Hydrogenated_Improper.qcin
output file: 
nprocs     : 1
nthreads   : 64
#
# qchem installation setting
#
QC:          /cm/shared/apps/spack/cpu/opt/spack/linux-centos8-zen2/gcc-10.2.0/qchem-5.4-akfmr7b3t57bfs6qan3padb2wnb2i7cl
QCAUX:       /cm/shared/apps/spack/cpu/opt/spack/linux-centos8-zen2/gcc-10.2.0/qchem-5.4-akfmr7b3t57bfs6qan3padb2wnb2i7cl/qcaux
QCPROG:      /cm/shared/apps/spack/cpu/opt/spack/linux-centos8-zen2/gcc-10.2.0/qchem-5.4-akfmr7b3t57bfs6qan3padb2wnb2i7cl/exe/qcprog.exe
QCPROG_S:    /cm/shared/apps/spack/cpu/opt/spack/linux-centos8-zen2/gcc-10.2.0/qchem-5.4-akfmr7b3t57bfs6qan3padb2wnb2i7cl/exe/qcprog.exe_s
PARALLEL:    -DPARALLEL
QCMPI:       mpich
#
# qchem directory setting
#
qcrun:       qchem2008982
QCSCRATCH:   .
QCLOCALSCR:  
QCTMPDIR:    .
QCFILEPREF:  ./qchem2008982
QCSAVEDIR:   
workdirs:    ./qchem2008982
workdir0:    ./qchem2008982
partmpdirs =  
#
# parallel setting
#
QCRSH:           ssh
QCMPI:           mpich
QCMPIRUN:        /cm/shared/apps/spack/cpu/opt/spack/linux-centos8-zen2/gcc-10.2.0/qchem-5.4-akfmr7b3t57bfs6qan3padb2wnb2i7cl/bin/mpi/mpirun_qchem
QCMACHINEFILE:   ./qchem2008982/hostfile
exp-6-53

#
# env setting
#
exported envs:   QC QCAUX QCSCRATCH QCRUNNAME QCFILEPREF QCPROG QCPROG_S GUIFILE

Running Job 1 of 1 fin_bdt_Phi_0_Theta_60_fin_ftt_Hydrogenated_Improper.qcin
qchem fin_bdt_Phi_0_Theta_60_fin_ftt_Hydrogenated_Improper.qcin_2008982.0 ./qchem2008982/ 1
/cm/shared/apps/spack/cpu/opt/spack/linux-centos8-zen2/gcc-10.2.0/qchem-5.4-akfmr7b3t57bfs6qan3padb2wnb2i7cl/bin/mpi/mpirun_qchem -machinefile ./qchem2008982/hostfile -np 1 /cm/shared/apps/spack/cpu/opt/spack/linux-centos8-zen2/gcc-10.2.0/qchem-5.4-akfmr7b3t57bfs6qan3padb2wnb2i7cl/exe/qcprog.exe fin_bdt_Phi_0_Theta_60_fin_ftt_Hydrogenated_Improper.qcin_2008982.0 ./qchem2008982/

Process 0 of 1 is on exp-6-53 - thread support 0
initial socket setup ...start
initial socket setup ...done 
now start server 0 ... 
                  Welcome to Q-Chem
     A Quantum Leap Into The Future Of Chemistry


 Q-Chem 5.4, Q-Chem, Inc., Pleasanton, CA (2021)

 License issued to: University of California, San Diego (site)

 E. Epifanovsky,  A. T. B. Gilbert,  Xintian Feng,  Joonho Lee,  Yuezhi Mao,  
 N. Mardirossian,  P. Pokhilko,  A. White,  M. Wormit,  M. P. Coons,  
 A. L. Dempwolff,  Zhengting Gan,  D. Hait,  P. R. Horn,  L. D. Jacobson,  
 I. Kaliman,  J. Kussmann,  A. W. Lange,  Ka Un Lao,  D. S. Levine,  Jie Liu,  
 S. C. McKenzie,  A. F. Morrison,  K. Nanda,  F. Plasser,  D. R. Rehn,  
 M. L. Vidal,  Zhi-Qiang You,  Ying Zhu,  B. Alam,  B. Albrecht,  
 A. Aldossary,  E. Alguire,  J. H. Andersen,  D. Barton,  K. Begam,  A. Behn,  
 Y. A. Bernard,  E. J. Berquist,  H. Burton,  A. Carreras,  K. Carter-Fenk,  
 R. Chakraborty,  A. D. Chien,  K. D. Closser,  V. Cofer-Shabica,  
 S. Dasgupta,  Jia Deng,  M. de Wergifosse,  M. Diedenhofen,  Hainam Do,  
 S. Ehlert,  Po-Tung Fang,  S. Fatehi,  Qingguo Feng,  J. Gayvert,  
 Qinghui Ge,  G. Gidofalvi,  M. Goldey,  J. Gomes,  C. Gonzalez-Espinoza,  
 S. Gulania,  A. Gunina,  M. W. D. Hanson-Heine,  P. H. P. Harbach,  
 A. W. Hauser,  M. F. Herbst,  M. Hernandez Vera,  M. Hodecker,  
 Z. C. Holden,  S. Houck,  Xunkun Huang,  Kerwin Hui,  B. C. Huynh,  
 M. Ivanov,  Hyunjun Ji,  Hanjie Jiang,  B. Kaduk,  S. Kaehler,  
 K. Khistyaev,  Jaehoon Kim,  P. Klunzinger,  Z. Koczor-Benda,  
 Joong Hoon Koh,  D. Kosenkov,  L. Koulias,  T. Kowalczyk,  C. M. Krauter,  
 K. Kue,  A. Kunitsa,  T. Kus,  A. Landau,  K. V. Lawler,  D. Lefrancois,  
 S. Lehtola,  Rain Li,  Yi-Pei Li,  Jiashu Liang,  M. Liebenthal,  
 Hung-Hsuan Lin,  You-Sheng Lin,  Fenglai Liu,  Kuan-Yu Liu,  
 M. Loipersberger,  A. Luenser,  A. Manjanath,  P. Manohar,  E. Mansoor,  
 S. F. Manzer,  Shan-Ping Mao,  A. V. Marenich,  T. Markovich,  S. Mason,  
 S. A. Maurer,  P. F. McLaughlin,  M. F. S. J. Menger,  J.-M. Mewes,  
 S. A. Mewes,  P. Morgante,  J. W. Mullinax,  T. S. Nguyen-Beck,  
 K. J. Oosterbaan,  G. Paran,  Alexander C. Paul,  Suranjan K. Paul,  
 F. Pavosevic,  Zheng Pei,  S. Prager,  E. I. Proynov,  E. Ramos,  B. Rana,  
 A. E. Rask,  A. Rettig,  R. M. Richard,  F. Rob,  E. Rossomme,  T. Scheele,  
 M. Scheurer,  M. Schneider,  N. Sergueev,  S. M. Sharada,  W. Skomorowski,  
 D. W. Small,  C. J. Stein,  Yu-Chuan Su,  E. J. Sundstrom,  Zhen Tao,  
 J. Thirman,  T. Tsuchimochi,  N. M. Tubman,  S. P. Veccham,  O. Vydrov,  
 J. Wenzel,  J. Witte,  A. Yamada,  Kun Yao,  S. Yeganeh,  S. R. Yost,  
 A. Zech,  Igor Ying Zhang,  Xing Zhang,  Yu Zhang,  D. Zuev,  
 A. Aspuru-Guzik,  A. T. Bell,  N. A. Besley,  K. B. Bravaya,  B. R. Brooks,  
 D. Casanova,  Jeng-Da Chai,  S. Coriani,  C. J. Cramer,  
 A. E. DePrince, III,  R. A. DiStasio Jr.,  A. Dreuw,  B. D. Dunietz,  
 T. R. Furlani,  W. A. Goddard III,  S. Grimme,  S. Hammes-Schiffer,  
 T. Head-Gordon,  W. J. Hehre,  Chao-Ping Hsu,  T.-C. Jagau,  Yousung Jung,  
 A. Klamt,  Jing Kong,  D. S. Lambrecht,  WanZhen Liang,  N. J. Mayhall,  
 C. W. McCurdy,  J. B. Neaton,  C. Ochsenfeld,  J. A. Parkhill,  R. Peverati,  
 V. A. Rassolov,  Yihan Shao,  L. V. Slipchenko,  T. Stauch,  R. P. Steele,  
 J. E. Subotnik,  A. J. W. Thom,  A. Tkatchenko,  D. G. Truhlar,  
 T. Van Voorhis,  T. A. Wesolowski,  K. B. Whaley,  H. L. Woodcock III,  
 P. M. Zimmerman,  S. Faraji,  P. M. W. Gill,  M. Head-Gordon,  
 J. M. Herbert,  A. I. Krylov

 Contributors to earlier versions of Q-Chem not listed above: 
 R. D. Adamson,  B. Austin,  R. Baer,  J. Baker,  G. J. O. Beran,  
 K. Brandhorst,  S. T. Brown,  E. F. C. Byrd,  A. K. Chakraborty,  
 G. K. L. Chan,  Chun-Min Chang,  Yunqing Chen,  C.-L. Cheng,  
 Siu Hung Chien,  D. M. Chipman,  D. L. Crittenden,  H. Dachsel,  
 R. J. Doerksen,  A. D. Dutoi,  R. G. Edgar,  J. Fosso-Tande,  
 L. Fusti-Molnar,  D. Ghosh,  A. Ghysels,  A. Golubeva-Zadorozhnaya,  
 J. Gonthier,  M. S. Gordon,  S. R. Gwaltney,  G. Hawkins,  J. E. Herr,  
 A. Heyden,  S. Hirata,  E. G. Hohenstein,  G. Kedziora,  F. J. Keil,  
 C. Kelley,  Jihan Kim,  R. A. King,  R. Z. Khaliullin,  P. P. Korambath,  
 W. Kurlancheek,  A. Laurent,  A. M. Lee,  M. S. Lee,  S. V. Levchenko,  
 Ching Yeh Lin,  D. Liotard,  E. Livshits,  R. C. Lochan,  I. Lotan,  
 L. A. Martinez-Martinez,  P. E. Maslen,  N. Nair,  D. P. O'Neill,  
 D. Neuhauser,  E. Neuscamman,  C. M. Oana,  R. Olivares-Amaya,  R. Olson,  
 T. M. Perrine,  B. Peters,  P. A. Pieniazek,  A. Prociuk,  Y. M. Rhee,  
 J. Ritchie,  M. A. Rohrdanz,  E. Rosta,  N. J. Russ,  H. F. Schaefer III,  
 M. W. Schmidt,  N. E. Schultz,  S. Sharma,  N. Shenvi,  C. D. Sherrill,  
 A. C. Simmonett,  A. Sodt,  T. Stein,  D. Stuck,  K. S. Thanthiriwatte,  
 V. Vanovschi,  L. Vogt,  Tao Wang,  A. Warshel,  M. A. Watson,  
 C. F. Williams,  Q. Wu,  X. Xu,  Jun Yang,  W. Zhang,  Yan Zhao

 Please cite Q-Chem as follows:
 Y. Shao et al., Mol. Phys. 113, 184-215 (2015)
 DOI: 10.1080/00268976.2014.952696

 Q-Chem 5.4.0 for Intel X86 EM64T Linux

 Parts of Q-Chem use Armadillo 9.800.1 (Horizon Scraper).
 http://arma.sourceforge.net/

 Q-Chem begins on Sun Sep 24 16:40:27 2023  

 Host: 
0

     Scratch files written to ./qchem2008982//
 May1621 |scratch|qcdevops|jenkins|workspace|build_RNUM    
 Parallel job on  1  processors
 Processing $rem in /cm/shared/apps/spack/cpu/opt/spack/linux-centos8-zen2/gcc-10.2.0/qchem-5.4-akfmr7b3t57bfs6qan3padb2wnb2i7cl/config/preferences:
 Processing $rem in /home/rramji/.qchemrc:
 Symmetry turned off for PCM/SM12/SMD calculation
 Core orbitals will be frozen

 Checking the input file for inconsistencies... 	...done.

 Q-Chem warning in module forms1/BasisType.C, line 2236:

 You are not using the predefined 5D/6D in this basis set.


--------------------------------------------------------------
User input:
--------------------------------------------------------------
$molecule
0 1
C	-0.003191	-0.836989	1.021016
S	-0.000991	0.062411	2.531716
C	-0.001991	1.637711	1.748616
C	-0.003191	0.071211	-0.043684
C	-0.004691	1.460011	0.342716
C	-0.001591	0.004811	-1.465084
C	-0.001691	1.269711	-2.085884
S	-0.004991	2.517211	-0.944684
C	0.003009	1.524111	-3.538984
O	0.006009	0.590611	-4.329284
O	0.006209	2.807311	-3.983384
F	0.002309	-1.109289	-2.225284
C	0.016409	3.166011	-5.313984
H	0.017009	4.271011	-5.349284
H	-0.874591	2.776711	-5.854584
H	0.915309	2.776111	-5.840884
C	-0.003191	-2.272189	1.021016
H	0.544109	-2.281189	1.952016
H	-0.726891	-2.956089	1.439216
H	0.810409	-2.796589	0.542016
H	-0.001991	2.557811	2.342516
$end

$rem
JOBTYPE		SP
EXCHANGE	HF
CORRELATION	pRIMP2
BASIS		cc-pvtz
METHOD		rimp2
AUX_BASIS	rimp2-cc-pvtz
SOLVENT_METHOD	PCM
PURECART	11111
SYMMETRY	false
MEM_TOTAL	110000
SCF_CONVERGENCE = 6
THRESH=10
GUI = 2
$end



$solvent
dielectric 4.90
$end
--------------------------------------------------------------
 ----------------------------------------------------------------
             Standard Nuclear Orientation (Angstroms)
    I     Atom           X                Y                Z
 ----------------------------------------------------------------
    1      C      -0.0031910000    -0.8369890000     1.0210160000
    2      S      -0.0009910000     0.0624110000     2.5317160000
    3      C      -0.0019910000     1.6377110000     1.7486160000
    4      C      -0.0031910000     0.0712110000    -0.0436840000
    5      C      -0.0046910000     1.4600110000     0.3427160000
    6      C      -0.0015910000     0.0048110000    -1.4650840000
    7      C      -0.0016910000     1.2697110000    -2.0858840000
    8      S      -0.0049910000     2.5172110000    -0.9446840000
    9      C       0.0030090000     1.5241110000    -3.5389840000
   10      O       0.0060090000     0.5906110000    -4.3292840000
   11      O       0.0062090000     2.8073110000    -3.9833840000
   12      F       0.0023090000    -1.1092890000    -2.2252840000
   13      C       0.0164090000     3.1660110000    -5.3139840000
   14      H       0.0170090000     4.2710110000    -5.3492840000
   15      H      -0.8745910000     2.7767110000    -5.8545840000
   16      H       0.9153090000     2.7761110000    -5.8408840000
   17      C      -0.0031910000    -2.2721890000     1.0210160000
   18      H       0.5441090000    -2.2811890000     1.9520160000
   19      H      -0.7268910000    -2.9560890000     1.4392160000
   20      H       0.8104090000    -2.7965890000     0.5420160000
   21      H      -0.0019910000     2.5578110000     2.3425160000
 ----------------------------------------------------------------
 Nuclear Repulsion Energy =        1088.49342584 hartrees
 There are       59 alpha and       59 beta electrons
 Requested basis set is cc-pVTZ
 There are 186 shells and 526 basis functions

 Total QAlloc Memory Limit 110000 MB
 Mega-Array Size       188 MB
 MEM_STATIC part       192 MB
 Discretize the solute cavity surface with Lebedev spheres
	Using 110 Lebedev grid points for each H atom
	Using 194 Lebedev grid points for other atoms
	Atomic van der Waals radii will be scaled by 1.20
 Remove points where switching function is < 1.0e-08
 Keep 1569 surface tesserae and discard 1917 interior tesserae
 Molecular Surface Area = 242.259 Angst**2
 Requested basis set is rimp2-cc-pVTZ
 There are 410 shells and 1426 basis functions
 A cutoff of  1.0D-10 yielded  11500 shell pairs
 There are     90380 function pairs (    118352 Cartesian)
 Smallest overlap matrix eigenvalue = 5.61E-05

 Scale SEOQF with 1.000000e+00/1.000000e-01/1.000000e-02

 Standard Electronic Orientation quadrupole field applied
 Nucleus-field energy     =     0.0000000196 hartrees
 Guess from superposition of atomic densities
 Warning:  Energy on first SCF cycle will be non-variational
 SAD guess density has 118.000000 electrons

 -----------------------------------------------------------------------
  General SCF calculation program by
  Eric Jon Sundstrom, Paul Horn, Yuezhi Mao, Dmitri Zuev, Alec White,
  David Stuck, Shaama M.S., Shane Yost, Joonho Lee, David Small,
  Daniel Levine, Susi Lehtola, Hugh Burton, Evgeny Epifanovsky,
  Bang C. Huynh
 -----------------------------------------------------------------------
 Hartree-Fock
 using 64 threads for integral computing
 -------------------------------------------------------
 OpenMP Integral computing Module                
 Release: version 1.0, May 2013, Q-Chem Inc. Pittsburgh 
 -------------------------------------------------------
 A restricted SCF calculation will be
 performed using DIIS
 SCF converges when DIIS error is below 1.0e-06
 ---------------------------------------
  Cycle       Energy         DIIS error
 ---------------------------------------
    1   -1394.5653822938      2.53e-02  
    2   -1389.0130873195      2.50e-03  
    3   -1389.1856144613      1.57e-03  
    4   -1389.2467420561      3.48e-04  
    5   -1389.2524035240      1.10e-04  
    6   -1389.2530673568      3.64e-05  
    7   -1389.2532090783      1.81e-05  
    8   -1389.2532562486      7.21e-06  
    9   -1389.2532665177      3.22e-06  
   10   -1389.2532681158      1.24e-06  
   11   -1389.2532683553      4.66e-07  Convergence criterion met
 ---------------------------------------
 SCF time:   CPU 1700.13s  wall 49.00s 

************** Final PCM Free Energy Summary **************
 G_electrostatic  =      -0.01355646 hartree =      -8.50680655 kcal/mol
 G_cavitation     =       0.00000000 hartree =       0.00000000 kcal/mol
 G_dispersion     =       0.00000000 hartree =       0.00000000 kcal/mol
 G_repulsion      =       0.00000000 hartree =       0.00000000 kcal/mol
 --------------------------------------------------
 Non-electrostatic Free Energy =       0.00000000 hartree =       0.00000000 kcal/mol
 Total                         =      -0.01355646 hartree =      -8.50680655 kcal/mol
 --------------------------------------------------
 SCF Energy (H0 + V/2)                       =   -1389.25326836 
 Solute Internal Energy (H0)                 =   -1389.23971190 
 Total Free Energy (H0 + V/2 + non-elec)     =   -1389.25326836 hartree
                                             = -871769.58351066 kcal/mol
***********************************************************

 SCF   energy in the final basis set =    -1389.2532683553
 Total energy in the final basis set =    -1389.2532683553


 --------------------------------------------------------------
  Generalized many-body perturbation theory program
  by Joonho Lee, Fazle Rob, Xintian Feng, Evgeny Epifanovsky

 No regularization used 
 (reg. param. = 0.0000e+00)
  (P|Q)^-1/2 Time:  CPU 21.23 s  wall 0.34 s

 In RI-MP2 calculation: 
 # of frozen core orbitals: 22

 Components of the RIMP2 correlation energy:
        aaaa    correlation energy =        -0.3291734229 a.u.
        abab    correlation energy =        -1.8467310574 a.u.
        bbbb    correlation energy =        -0.3291734229 a.u.
        non-Brillouin singles      =        -0.0000000000 a.u.
        total same-spin energy     =        -0.6583468459 a.u.
        total opposite-spin energy =        -1.8467310574 a.u.

 Total  RIMP2   correlation energy =        -2.5050779033 a.u.
        RIMP2         total energy =     -1391.7583462586 a.u.

 RI-MP2 Energy Time:  CPU 174.14 s  wall 2.85 s
 
 --------------------------------------------------------------
 
                    Orbital Energies (a.u.)
 --------------------------------------------------------------
 
 Alpha MOs
 -- Occupied --
-92.0081 -91.9892 -26.3331 -20.6101 -20.5468 -11.4073 -11.3755 -11.3106
-11.2912 -11.2905 -11.2875 -11.2819 -11.2689 -11.2297  -9.0069  -8.9934
 -6.6876  -6.6871  -6.6866  -6.6747  -6.6740  -6.6727  -1.6460  -1.4696
 -1.3646  -1.2265  -1.1466  -1.0654  -1.0292  -1.0056  -0.9682  -0.9104
 -0.8639  -0.7965  -0.7840  -0.7673  -0.7261  -0.7140  -0.6956  -0.6768
 -0.6762  -0.6676  -0.6091  -0.6038  -0.5974  -0.5869  -0.5793  -0.5643
 -0.5423  -0.5247  -0.5063  -0.4819  -0.4797  -0.4623  -0.4594  -0.4573
 -0.3947  -0.3463  -0.2795
 -- Virtual --
  0.0394   0.1191   0.1312   0.1556   0.1601   0.1691   0.1902   0.1950
  0.2091   0.2189   0.2216   0.2321   0.2347   0.2489   0.2656   0.2687
  0.2819   0.3092   0.3138   0.3318   0.3478   0.3594   0.3689   0.3775
  0.3814   0.3929   0.3950   0.4121   0.4180   0.4312   0.4374   0.4430
  0.4639   0.4667   0.4754   0.4859   0.5007   0.5120   0.5137   0.5231
  0.5370   0.5401   0.5475   0.5541   0.5600   0.5682   0.5785   0.5896
  0.5909   0.5937   0.6101   0.6111   0.6163   0.6218   0.6254   0.6279
  0.6402   0.6454   0.6520   0.6679   0.6741   0.6839   0.6943   0.7075
  0.7104   0.7152   0.7422   0.7617   0.7689   0.7870   0.7913   0.7953
  0.8060   0.8122   0.8259   0.8383   0.8621   0.8776   0.8785   0.8957
  0.9052   0.9124   0.9225   0.9271   0.9405   0.9472   0.9662   0.9773
  0.9798   0.9852   0.9962   1.0106   1.0267   1.0348   1.0427   1.0582
  1.0619   1.0799   1.0881   1.0927   1.0947   1.1037   1.1157   1.1375
  1.1478   1.1550   1.1598   1.1676   1.1859   1.1928   1.2015   1.2134
  1.2223   1.2354   1.2461   1.2599   1.2646   1.2780   1.3012   1.3130
  1.3173   1.3352   1.3437   1.3546   1.3778   1.3866   1.3918   1.4052
  1.4162   1.4321   1.4492   1.4685   1.4794   1.4986   1.5027   1.5118
  1.5144   1.5178   1.5465   1.5542   1.5634   1.5744   1.5842   1.6113
  1.6216   1.6387   1.6600   1.6726   1.6822   1.7119   1.7208   1.7348
  1.7474   1.7620   1.7960   1.8110   1.8242   1.8353   1.8426   1.8628
  1.8689   1.8722   1.8831   1.9151   1.9345   1.9402   1.9515   1.9528
  2.0012   2.0229   2.0335   2.0390   2.0532   2.0926   2.1062   2.1302
  2.1445   2.1570   2.1642   2.1738   2.1978   2.2085   2.2213   2.2408
  2.2560   2.2769   2.2834   2.2895   2.2957   2.3213   2.3275   2.3327
  2.3696   2.3842   2.4140   2.4247   2.4641   2.4765   2.4840   2.4913
  2.5304   2.5580   2.5744   2.5807   2.5928   2.6178   2.6336   2.6361
  2.6546   2.6647   2.6753   2.6942   2.6958   2.7148   2.7208   2.7326
  2.7368   2.7502   2.7667   2.7747   2.7871   2.8032   2.8150   2.8292
  2.8492   2.8624   2.8714   2.8900   2.9101   2.9184   2.9316   2.9478
  2.9574   2.9944   3.0180   3.0221   3.0421   3.0453   3.0638   3.0711
  3.0746   3.0908   3.0958   3.1023   3.1275   3.1363   3.1466   3.1617
  3.1643   3.1724   3.1961   3.2074   3.2166   3.2229   3.2440   3.2592
  3.2669   3.2717   3.2779   3.2826   3.2924   3.3073   3.3197   3.3243
  3.3336   3.3494   3.3621   3.3638   3.3719   3.3849   3.3922   3.4023
  3.4372   3.4376   3.4431   3.4572   3.4626   3.4763   3.4859   3.4958
  3.5028   3.5192   3.5298   3.5500   3.5658   3.5775   3.5878   3.5958
  3.6046   3.6115   3.6288   3.6403   3.6461   3.6548   3.6658   3.6787
  3.6844   3.6908   3.6955   3.7117   3.7120   3.7256   3.7305   3.7342
  3.7613   3.7694   3.7926   3.7987   3.8235   3.8342   3.8428   3.8547
  3.8599   3.8654   3.8804   3.8889   3.8960   3.9224   3.9312   3.9457
  3.9528   3.9671   3.9749   3.9877   3.9922   4.0084   4.0300   4.0534
  4.0681   4.0759   4.0898   4.0945   4.1275   4.1466   4.1656   4.1735
  4.1847   4.1869   4.2149   4.2714   4.2841   4.2936   4.3227   4.3260
  4.3488   4.3508   4.3684   4.3782   4.3966   4.4117   4.4279   4.4426
  4.4516   4.4768   4.4977   4.5138   4.5251   4.5515   4.5881   4.6041
  4.6152   4.6393   4.6574   4.6600   4.6683   4.6829   4.7141   4.7339
  4.7685   4.7694   4.7968   4.8029   4.8193   4.8654   4.9120   4.9185
  4.9739   5.0123   5.0261   5.0325   5.0585   5.1100   5.1368   5.1600
  5.1840   5.2141   5.2216   5.2543   5.2601   5.2710   5.2988   5.3527
  5.3564   5.3606   5.4007   5.4290   5.4585   5.4741   5.4924   5.5349
  5.5599   5.5962   5.6149   5.6203   5.6452   5.6940   5.7324   5.8027
  5.8172   5.8346   5.8442   5.8805   5.9202   5.9723   5.9826   6.0459
  6.0835   6.1311   6.1350   6.1869   6.2194   6.3103   6.3729   6.4577
  6.4634   6.5200   6.5587   6.6753   6.6793   6.7400   6.7423   6.8631
  6.8842   6.9937   7.1805   7.2122   7.3292   7.3736   7.3770   7.4298
  7.4645   7.4876   7.5211   7.5512   7.6189   7.7712   7.8336   7.9151
  8.0013   8.1232   8.4814   8.9283   9.0092   9.3635   9.4995   9.6890
 10.1113  11.2241  11.5126  11.9344  12.2952  12.6990  13.1368  13.5404
 13.8360  14.0897  14.7469
 --------------------------------------------------------------
 
          Ground-State Mulliken Net Atomic Charges

     Atom                 Charge (a.u.)
  ----------------------------------------
      1 C                     0.039542
      2 S                     0.082628
      3 C                    -0.259548
      4 C                    -0.084484
      5 C                    -0.012737
      6 C                     0.393670
      7 C                    -0.165537
      8 S                     0.026345
      9 C                     0.459618
     10 O                    -0.455589
     11 O                    -0.298509
     12 F                    -0.213711
     13 C                    -0.055004
     14 H                     0.116136
     15 H                     0.083939
     16 H                     0.083786
     17 C                    -0.371655
     18 H                     0.120169
     19 H                     0.153138
     20 H                     0.146287
     21 H                     0.211517
  ----------------------------------------
  Sum of atomic charges =     0.000000

 -----------------------------------------------------------------
                    Cartesian Multipole Moments
 -----------------------------------------------------------------
    Charge (ESU x 10^10)
                -0.0000
    Dipole Moment (Debye)
         X       0.3652      Y       0.9348      Z       4.1352
       Tot       4.2553
    Quadrupole Moments (Debye-Ang)
        XX     -96.0587     XY      -0.7675     YY     -82.1737
        XZ       0.0297     YZ     -13.5376     ZZ     -95.2306
    Octopole Moments (Debye-Ang^2)
       XXX      -0.8318    XXY     -85.7584    XYY       1.3783
       YYY    -232.3981    XXZ      79.3884    XYZ       0.1322
       YYZ      69.1269    XZZ      -0.2906    YZZ       5.1235
       ZZZ     258.1877
    Hexadecapole Moments (Debye-Ang^3)
      XXXX    -119.8760   XXXY       0.5783   XXYY    -345.4219
      XYYY      -1.0267   YYYY   -1776.4479   XXXZ       1.9305
      XXYZ     250.4937   XYYZ      -2.7902   YYYZ     634.7631
      XXZZ    -680.1264   XYZZ       3.4065   YYZZ    -678.3403
      XZZZ       1.0372   YZZZ     336.9488   ZZZZ   -3802.2212
 -----------------------------------------------------------------
 Total job time:  53.31s(wall), 1934.74s(cpu) 
 Sun Sep 24 16:41:20 2023

        *************************************************************
        *                                                           *
        *  Thank you very much for using Q-Chem.  Have a nice day.  *
        *                                                           *
        *************************************************************


0 sent ACK to 0 
now end server 0 ... 
cleanup process ... done
remove work dirs ./qchem2008982.0 -- ./qchem2008982.0
rm -rf ./qchem2008982.0
rm -rf ./qchem2008982
