You are running Q-Chem version: 5.4.0

#
# job setting
#
local host:  exp-10-41
current dir: /expanse/lustre/projects/csd626/rramji/aromodel/PTB7_fin/Hydrogenated_Impropers_Test
input file:  fin_bdt_Phi_60_Theta_230_fin_ftt_Hydrogenated_Improper.qcin
output file: 
nprocs     : 1
nthreads   : 64
#
# qchem installation setting
#
QC:          /cm/shared/apps/spack/cpu/opt/spack/linux-centos8-zen2/gcc-10.2.0/qchem-5.4-akfmr7b3t57bfs6qan3padb2wnb2i7cl
QCAUX:       /cm/shared/apps/spack/cpu/opt/spack/linux-centos8-zen2/gcc-10.2.0/qchem-5.4-akfmr7b3t57bfs6qan3padb2wnb2i7cl/qcaux
QCPROG:      /cm/shared/apps/spack/cpu/opt/spack/linux-centos8-zen2/gcc-10.2.0/qchem-5.4-akfmr7b3t57bfs6qan3padb2wnb2i7cl/exe/qcprog.exe
QCPROG_S:    /cm/shared/apps/spack/cpu/opt/spack/linux-centos8-zen2/gcc-10.2.0/qchem-5.4-akfmr7b3t57bfs6qan3padb2wnb2i7cl/exe/qcprog.exe_s
PARALLEL:    -DPARALLEL
QCMPI:       mpich
#
# qchem directory setting
#
qcrun:       qchem3724533
QCSCRATCH:   .
QCLOCALSCR:  
QCTMPDIR:    .
QCFILEPREF:  ./qchem3724533
QCSAVEDIR:   
workdirs:    ./qchem3724533
workdir0:    ./qchem3724533
partmpdirs =  
#
# parallel setting
#
QCRSH:           ssh
QCMPI:           mpich
QCMPIRUN:        /cm/shared/apps/spack/cpu/opt/spack/linux-centos8-zen2/gcc-10.2.0/qchem-5.4-akfmr7b3t57bfs6qan3padb2wnb2i7cl/bin/mpi/mpirun_qchem
QCMACHINEFILE:   ./qchem3724533/hostfile
exp-10-41

#
# env setting
#
exported envs:   QC QCAUX QCSCRATCH QCRUNNAME QCFILEPREF QCPROG QCPROG_S GUIFILE

Running Job 1 of 1 fin_bdt_Phi_60_Theta_230_fin_ftt_Hydrogenated_Improper.qcin
qchem fin_bdt_Phi_60_Theta_230_fin_ftt_Hydrogenated_Improper.qcin_3724533.0 ./qchem3724533/ 1
/cm/shared/apps/spack/cpu/opt/spack/linux-centos8-zen2/gcc-10.2.0/qchem-5.4-akfmr7b3t57bfs6qan3padb2wnb2i7cl/bin/mpi/mpirun_qchem -machinefile ./qchem3724533/hostfile -np 1 /cm/shared/apps/spack/cpu/opt/spack/linux-centos8-zen2/gcc-10.2.0/qchem-5.4-akfmr7b3t57bfs6qan3padb2wnb2i7cl/exe/qcprog.exe fin_bdt_Phi_60_Theta_230_fin_ftt_Hydrogenated_Improper.qcin_3724533.0 ./qchem3724533/

Process 0 of 1 is on exp-10-41 - thread support 0
initial socket setup ...start
initial socket setup ...done 
now start server 0 ... 
                  Welcome to Q-Chem
     A Quantum Leap Into The Future Of Chemistry


 Q-Chem 5.4, Q-Chem, Inc., Pleasanton, CA (2021)

 License issued to: University of California, San Diego (site)

 E. Epifanovsky,  A. T. B. Gilbert,  Xintian Feng,  Joonho Lee,  Yuezhi Mao,  
 N. Mardirossian,  P. Pokhilko,  A. White,  M. Wormit,  M. P. Coons,  
 A. L. Dempwolff,  Zhengting Gan,  D. Hait,  P. R. Horn,  L. D. Jacobson,  
 I. Kaliman,  J. Kussmann,  A. W. Lange,  Ka Un Lao,  D. S. Levine,  Jie Liu,  
 S. C. McKenzie,  A. F. Morrison,  K. Nanda,  F. Plasser,  D. R. Rehn,  
 M. L. Vidal,  Zhi-Qiang You,  Ying Zhu,  B. Alam,  B. Albrecht,  
 A. Aldossary,  E. Alguire,  J. H. Andersen,  D. Barton,  K. Begam,  A. Behn,  
 Y. A. Bernard,  E. J. Berquist,  H. Burton,  A. Carreras,  K. Carter-Fenk,  
 R. Chakraborty,  A. D. Chien,  K. D. Closser,  V. Cofer-Shabica,  
 S. Dasgupta,  Jia Deng,  M. de Wergifosse,  M. Diedenhofen,  Hainam Do,  
 S. Ehlert,  Po-Tung Fang,  S. Fatehi,  Qingguo Feng,  J. Gayvert,  
 Qinghui Ge,  G. Gidofalvi,  M. Goldey,  J. Gomes,  C. Gonzalez-Espinoza,  
 S. Gulania,  A. Gunina,  M. W. D. Hanson-Heine,  P. H. P. Harbach,  
 A. W. Hauser,  M. F. Herbst,  M. Hernandez Vera,  M. Hodecker,  
 Z. C. Holden,  S. Houck,  Xunkun Huang,  Kerwin Hui,  B. C. Huynh,  
 M. Ivanov,  Hyunjun Ji,  Hanjie Jiang,  B. Kaduk,  S. Kaehler,  
 K. Khistyaev,  Jaehoon Kim,  P. Klunzinger,  Z. Koczor-Benda,  
 Joong Hoon Koh,  D. Kosenkov,  L. Koulias,  T. Kowalczyk,  C. M. Krauter,  
 K. Kue,  A. Kunitsa,  T. Kus,  A. Landau,  K. V. Lawler,  D. Lefrancois,  
 S. Lehtola,  Rain Li,  Yi-Pei Li,  Jiashu Liang,  M. Liebenthal,  
 Hung-Hsuan Lin,  You-Sheng Lin,  Fenglai Liu,  Kuan-Yu Liu,  
 M. Loipersberger,  A. Luenser,  A. Manjanath,  P. Manohar,  E. Mansoor,  
 S. F. Manzer,  Shan-Ping Mao,  A. V. Marenich,  T. Markovich,  S. Mason,  
 S. A. Maurer,  P. F. McLaughlin,  M. F. S. J. Menger,  J.-M. Mewes,  
 S. A. Mewes,  P. Morgante,  J. W. Mullinax,  T. S. Nguyen-Beck,  
 K. J. Oosterbaan,  G. Paran,  Alexander C. Paul,  Suranjan K. Paul,  
 F. Pavosevic,  Zheng Pei,  S. Prager,  E. I. Proynov,  E. Ramos,  B. Rana,  
 A. E. Rask,  A. Rettig,  R. M. Richard,  F. Rob,  E. Rossomme,  T. Scheele,  
 M. Scheurer,  M. Schneider,  N. Sergueev,  S. M. Sharada,  W. Skomorowski,  
 D. W. Small,  C. J. Stein,  Yu-Chuan Su,  E. J. Sundstrom,  Zhen Tao,  
 J. Thirman,  T. Tsuchimochi,  N. M. Tubman,  S. P. Veccham,  O. Vydrov,  
 J. Wenzel,  J. Witte,  A. Yamada,  Kun Yao,  S. Yeganeh,  S. R. Yost,  
 A. Zech,  Igor Ying Zhang,  Xing Zhang,  Yu Zhang,  D. Zuev,  
 A. Aspuru-Guzik,  A. T. Bell,  N. A. Besley,  K. B. Bravaya,  B. R. Brooks,  
 D. Casanova,  Jeng-Da Chai,  S. Coriani,  C. J. Cramer,  
 A. E. DePrince, III,  R. A. DiStasio Jr.,  A. Dreuw,  B. D. Dunietz,  
 T. R. Furlani,  W. A. Goddard III,  S. Grimme,  S. Hammes-Schiffer,  
 T. Head-Gordon,  W. J. Hehre,  Chao-Ping Hsu,  T.-C. Jagau,  Yousung Jung,  
 A. Klamt,  Jing Kong,  D. S. Lambrecht,  WanZhen Liang,  N. J. Mayhall,  
 C. W. McCurdy,  J. B. Neaton,  C. Ochsenfeld,  J. A. Parkhill,  R. Peverati,  
 V. A. Rassolov,  Yihan Shao,  L. V. Slipchenko,  T. Stauch,  R. P. Steele,  
 J. E. Subotnik,  A. J. W. Thom,  A. Tkatchenko,  D. G. Truhlar,  
 T. Van Voorhis,  T. A. Wesolowski,  K. B. Whaley,  H. L. Woodcock III,  
 P. M. Zimmerman,  S. Faraji,  P. M. W. Gill,  M. Head-Gordon,  
 J. M. Herbert,  A. I. Krylov

 Contributors to earlier versions of Q-Chem not listed above: 
 R. D. Adamson,  B. Austin,  R. Baer,  J. Baker,  G. J. O. Beran,  
 K. Brandhorst,  S. T. Brown,  E. F. C. Byrd,  A. K. Chakraborty,  
 G. K. L. Chan,  Chun-Min Chang,  Yunqing Chen,  C.-L. Cheng,  
 Siu Hung Chien,  D. M. Chipman,  D. L. Crittenden,  H. Dachsel,  
 R. J. Doerksen,  A. D. Dutoi,  R. G. Edgar,  J. Fosso-Tande,  
 L. Fusti-Molnar,  D. Ghosh,  A. Ghysels,  A. Golubeva-Zadorozhnaya,  
 J. Gonthier,  M. S. Gordon,  S. R. Gwaltney,  G. Hawkins,  J. E. Herr,  
 A. Heyden,  S. Hirata,  E. G. Hohenstein,  G. Kedziora,  F. J. Keil,  
 C. Kelley,  Jihan Kim,  R. A. King,  R. Z. Khaliullin,  P. P. Korambath,  
 W. Kurlancheek,  A. Laurent,  A. M. Lee,  M. S. Lee,  S. V. Levchenko,  
 Ching Yeh Lin,  D. Liotard,  E. Livshits,  R. C. Lochan,  I. Lotan,  
 L. A. Martinez-Martinez,  P. E. Maslen,  N. Nair,  D. P. O'Neill,  
 D. Neuhauser,  E. Neuscamman,  C. M. Oana,  R. Olivares-Amaya,  R. Olson,  
 T. M. Perrine,  B. Peters,  P. A. Pieniazek,  A. Prociuk,  Y. M. Rhee,  
 J. Ritchie,  M. A. Rohrdanz,  E. Rosta,  N. J. Russ,  H. F. Schaefer III,  
 M. W. Schmidt,  N. E. Schultz,  S. Sharma,  N. Shenvi,  C. D. Sherrill,  
 A. C. Simmonett,  A. Sodt,  T. Stein,  D. Stuck,  K. S. Thanthiriwatte,  
 V. Vanovschi,  L. Vogt,  Tao Wang,  A. Warshel,  M. A. Watson,  
 C. F. Williams,  Q. Wu,  X. Xu,  Jun Yang,  W. Zhang,  Yan Zhao

 Please cite Q-Chem as follows:
 Y. Shao et al., Mol. Phys. 113, 184-215 (2015)
 DOI: 10.1080/00268976.2014.952696

 Q-Chem 5.4.0 for Intel X86 EM64T Linux

 Parts of Q-Chem use Armadillo 9.800.1 (Horizon Scraper).
 http://arma.sourceforge.net/

 Q-Chem begins on Sun Sep 24 17:14:00 2023  

 Host: 
0

     Scratch files written to ./qchem3724533//
 May1621 |scratch|qcdevops|jenkins|workspace|build_RNUM    
 Parallel job on  1  processors
 Processing $rem in /cm/shared/apps/spack/cpu/opt/spack/linux-centos8-zen2/gcc-10.2.0/qchem-5.4-akfmr7b3t57bfs6qan3padb2wnb2i7cl/config/preferences:
 Processing $rem in /home/rramji/.qchemrc:
 Symmetry turned off for PCM/SM12/SMD calculation
 Core orbitals will be frozen

 Checking the input file for inconsistencies... 	...done.

 Q-Chem warning in module forms1/BasisType.C, line 2236:

 You are not using the predefined 5D/6D in this basis set.


--------------------------------------------------------------
User input:
--------------------------------------------------------------
$molecule
0 1
C	-0.766939	-0.392188	1.024554
S	0.013061	0.055612	2.535254
C	1.376861	0.844212	1.752154
C	0.019561	0.061912	-0.040146
C	1.221561	0.757612	0.346254
C	-0.037039	0.027312	-1.461546
C	1.058261	0.659812	-2.082346
S	2.136961	1.286512	-0.941146
C	1.280961	0.783012	-3.535446
O	0.474061	0.313712	-4.325746
O	2.393861	1.421812	-3.979846
F	-0.999939	-0.533088	-2.221746
C	2.709561	1.592412	-5.310446
H	3.666761	2.144312	-5.345746
H	1.926861	2.169312	-5.851046
H	2.821261	0.618912	-5.837346
C	-0.766939	-1.827388	1.024554
H	-1.467539	-1.836388	0.202754
H	-0.126839	-2.511288	0.486954
H	-1.485039	-2.351788	1.637554
H	2.173661	1.304112	2.346054
$end

$rem
JOBTYPE		SP
EXCHANGE	HF
CORRELATION	pRIMP2
BASIS		cc-pvtz
METHOD		rimp2
AUX_BASIS	rimp2-cc-pvtz
SOLVENT_METHOD	PCM
PURECART	11111
SYMMETRY	false
MEM_TOTAL	110000
SCF_CONVERGENCE = 6
THRESH=10
GUI = 2
$end



$solvent
dielectric 4.90
$end
--------------------------------------------------------------
 ----------------------------------------------------------------
             Standard Nuclear Orientation (Angstroms)
    I     Atom           X                Y                Z
 ----------------------------------------------------------------
    1      C      -0.7669390000    -0.3921880000     1.0245540000
    2      S       0.0130610000     0.0556120000     2.5352540000
    3      C       1.3768610000     0.8442120000     1.7521540000
    4      C       0.0195610000     0.0619120000    -0.0401460000
    5      C       1.2215610000     0.7576120000     0.3462540000
    6      C      -0.0370390000     0.0273120000    -1.4615460000
    7      C       1.0582610000     0.6598120000    -2.0823460000
    8      S       2.1369610000     1.2865120000    -0.9411460000
    9      C       1.2809610000     0.7830120000    -3.5354460000
   10      O       0.4740610000     0.3137120000    -4.3257460000
   11      O       2.3938610000     1.4218120000    -3.9798460000
   12      F      -0.9999390000    -0.5330880000    -2.2217460000
   13      C       2.7095610000     1.5924120000    -5.3104460000
   14      H       3.6667610000     2.1443120000    -5.3457460000
   15      H       1.9268610000     2.1693120000    -5.8510460000
   16      H       2.8212610000     0.6189120000    -5.8373460000
   17      C      -0.7669390000    -1.8273880000     1.0245540000
   18      H      -1.4675390000    -1.8363880000     0.2027540000
   19      H      -0.1268390000    -2.5112880000     0.4869540000
   20      H      -1.4850390000    -2.3517880000     1.6375540000
   21      H       2.1736610000     1.3041120000     2.3460540000
 ----------------------------------------------------------------
 Nuclear Repulsion Energy =        1097.82374333 hartrees
 There are       59 alpha and       59 beta electrons
 Requested basis set is cc-pVTZ
 There are 186 shells and 526 basis functions

 Total QAlloc Memory Limit 110000 MB
 Mega-Array Size       188 MB
 MEM_STATIC part       192 MB
 Discretize the solute cavity surface with Lebedev spheres
	Using 110 Lebedev grid points for each H atom
	Using 194 Lebedev grid points for other atoms
	Atomic van der Waals radii will be scaled by 1.20
 Remove points where switching function is < 1.0e-08
 Keep 1539 surface tesserae and discard 1947 interior tesserae
 Molecular Surface Area = 239.351 Angst**2
 Requested basis set is rimp2-cc-pVTZ
 There are 410 shells and 1426 basis functions
 A cutoff of  1.0D-10 yielded  11790 shell pairs
 There are     92556 function pairs (    121103 Cartesian)
 Smallest overlap matrix eigenvalue = 6.07E-05

 Scale SEOQF with 1.000000e-01/1.000000e-01/1.000000e-02

 Standard Electronic Orientation quadrupole field applied
 Nucleus-field energy     =     0.0000000086 hartrees
 Guess from superposition of atomic densities
 Warning:  Energy on first SCF cycle will be non-variational
 SAD guess density has 118.000000 electrons

 -----------------------------------------------------------------------
  General SCF calculation program by
  Eric Jon Sundstrom, Paul Horn, Yuezhi Mao, Dmitri Zuev, Alec White,
  David Stuck, Shaama M.S., Shane Yost, Joonho Lee, David Small,
  Daniel Levine, Susi Lehtola, Hugh Burton, Evgeny Epifanovsky,
  Bang C. Huynh
 -----------------------------------------------------------------------
 Hartree-Fock
 using 64 threads for integral computing
 -------------------------------------------------------
 OpenMP Integral computing Module                
 Release: version 1.0, May 2013, Q-Chem Inc. Pittsburgh 
 -------------------------------------------------------
 A restricted SCF calculation will be
 performed using DIIS
 SCF converges when DIIS error is below 1.0e-06
 ---------------------------------------
  Cycle       Energy         DIIS error
 ---------------------------------------
    1   -1394.6580554503      2.54e-02  
    2   -1388.9313293108      2.55e-03  
    3   -1389.1046534798      1.67e-03  
    4   -1389.1760484363      3.51e-04  
    5   -1389.1819991679      1.12e-04  
    6   -1389.1827128522      3.82e-05  
    7   -1389.1828684450      1.96e-05  
    8   -1389.1829280927      8.69e-06  
    9   -1389.1829456854      4.65e-06  
   10   -1389.1829497332      1.99e-06  
   11   -1389.1829506614      8.69e-07  Convergence criterion met
 ---------------------------------------
 SCF time:   CPU 1723.82s  wall 50.00s 

************** Final PCM Free Energy Summary **************
 G_electrostatic  =      -0.01288324 hartree =      -8.08435546 kcal/mol
 G_cavitation     =       0.00000000 hartree =       0.00000000 kcal/mol
 G_dispersion     =       0.00000000 hartree =       0.00000000 kcal/mol
 G_repulsion      =       0.00000000 hartree =       0.00000000 kcal/mol
 --------------------------------------------------
 Non-electrostatic Free Energy =       0.00000000 hartree =       0.00000000 kcal/mol
 Total                         =      -0.01288324 hartree =      -8.08435546 kcal/mol
 --------------------------------------------------
 SCF Energy (H0 + V/2)                       =   -1389.18295066 
 Solute Internal Energy (H0)                 =   -1389.17006742 
 Total Free Energy (H0 + V/2 + non-elec)     =   -1389.18295066 hartree
                                             = -871725.45849178 kcal/mol
***********************************************************

 SCF   energy in the final basis set =    -1389.1829506614
 Total energy in the final basis set =    -1389.1829506614


 --------------------------------------------------------------
  Generalized many-body perturbation theory program
  by Joonho Lee, Fazle Rob, Xintian Feng, Evgeny Epifanovsky

 No regularization used 
 (reg. param. = 0.0000e+00)
  (P|Q)^-1/2 Time:  CPU 20.60 s  wall 0.33 s

 In RI-MP2 calculation: 
 # of frozen core orbitals: 22

 Components of the RIMP2 correlation energy:
        aaaa    correlation energy =        -0.3329269284 a.u.
        abab    correlation energy =        -1.8586065732 a.u.
        bbbb    correlation energy =        -0.3329269284 a.u.
        non-Brillouin singles      =        -0.0000000000 a.u.
        total same-spin energy     =        -0.6658538568 a.u.
        total opposite-spin energy =        -1.8586065732 a.u.

 Total  RIMP2   correlation energy =        -2.5244604300 a.u.
        RIMP2         total energy =     -1391.7074110914 a.u.

 RI-MP2 Energy Time:  CPU 163.32 s  wall 2.66 s
 
 --------------------------------------------------------------
 
                    Orbital Energies (a.u.)
 --------------------------------------------------------------
 
 Alpha MOs
 -- Occupied --
-92.0017 -92.0008 -26.3336 -20.6146 -20.5549 -11.4143 -11.3742 -11.3153
-11.3069 -11.2954 -11.2899 -11.2851 -11.2620 -11.2141  -9.0053  -9.0007
 -6.6865  -6.6859  -6.6846  -6.6813  -6.6803  -6.6802  -1.6468  -1.4747
 -1.3707  -1.2356  -1.1527  -1.0706  -1.0305  -1.0011  -0.9719  -0.9061
 -0.8677  -0.7971  -0.7885  -0.7727  -0.7296  -0.7159  -0.6980  -0.6807
 -0.6761  -0.6738  -0.6097  -0.6068  -0.6027  -0.5922  -0.5671  -0.5629
 -0.5373  -0.5254  -0.5131  -0.4860  -0.4819  -0.4643  -0.4634  -0.4279
 -0.3822  -0.3430  -0.2887
 -- Virtual --
  0.0072   0.1104   0.1382   0.1545   0.1576   0.1726   0.1775   0.1942
  0.2063   0.2155   0.2175   0.2230   0.2290   0.2449   0.2559   0.2642
  0.2803   0.2910   0.3052   0.3374   0.3438   0.3586   0.3728   0.3746
  0.3785   0.3894   0.3936   0.4081   0.4184   0.4283   0.4365   0.4380
  0.4489   0.4630   0.4669   0.4757   0.4867   0.4994   0.5098   0.5228
  0.5265   0.5334   0.5404   0.5494   0.5601   0.5688   0.5787   0.5792
  0.5869   0.5980   0.6015   0.6076   0.6153   0.6213   0.6279   0.6308
  0.6329   0.6423   0.6443   0.6613   0.6786   0.6858   0.6932   0.7025
  0.7102   0.7208   0.7300   0.7536   0.7627   0.7749   0.7898   0.7931
  0.8008   0.8111   0.8297   0.8419   0.8572   0.8726   0.8856   0.8938
  0.9039   0.9057   0.9224   0.9272   0.9438   0.9545   0.9627   0.9714
  0.9750   0.9978   1.0043   1.0163   1.0272   1.0359   1.0432   1.0589
  1.0614   1.0688   1.0821   1.0873   1.1009   1.1173   1.1301   1.1475
  1.1525   1.1581   1.1638   1.1804   1.1837   1.1947   1.1955   1.2210
  1.2233   1.2312   1.2472   1.2673   1.2867   1.2969   1.3014   1.3081
  1.3275   1.3389   1.3463   1.3506   1.3602   1.3692   1.3919   1.4131
  1.4174   1.4225   1.4358   1.4680   1.4796   1.4966   1.5026   1.5075
  1.5112   1.5304   1.5394   1.5421   1.5611   1.5733   1.5827   1.6120
  1.6175   1.6443   1.6533   1.6668   1.6776   1.7074   1.7183   1.7265
  1.7407   1.7743   1.7819   1.8153   1.8218   1.8288   1.8306   1.8495
  1.8632   1.8709   1.8876   1.9182   1.9242   1.9385   1.9446   1.9640
  1.9921   2.0115   2.0224   2.0314   2.0556   2.0954   2.0961   2.1267
  2.1369   2.1410   2.1501   2.1553   2.1854   2.1911   2.2076   2.2287
  2.2469   2.2525   2.2602   2.2765   2.2844   2.2926   2.3298   2.3458
  2.3571   2.3777   2.3890   2.4114   2.4351   2.4579   2.4667   2.4891
  2.5261   2.5338   2.5605   2.5725   2.5817   2.5996   2.6135   2.6249
  2.6449   2.6592   2.6645   2.6787   2.6967   2.6995   2.7026   2.7195
  2.7387   2.7452   2.7722   2.7806   2.8046   2.8155   2.8216   2.8349
  2.8491   2.8743   2.8946   2.9008   2.9137   2.9394   2.9431   2.9555
  2.9843   3.0056   3.0165   3.0279   3.0341   3.0434   3.0512   3.0687
  3.0891   3.0990   3.1033   3.1193   3.1248   3.1439   3.1577   3.1607
  3.1673   3.1802   3.1951   3.2045   3.2157   3.2235   3.2301   3.2412
  3.2502   3.2689   3.2780   3.2813   3.2903   3.2985   3.3178   3.3222
  3.3364   3.3552   3.3613   3.3703   3.3881   3.4015   3.4053   3.4284
  3.4321   3.4368   3.4468   3.4578   3.4686   3.4834   3.4949   3.5069
  3.5176   3.5297   3.5361   3.5409   3.5633   3.5647   3.5796   3.5937
  3.6022   3.6077   3.6257   3.6441   3.6487   3.6586   3.6640   3.6875
  3.6905   3.7044   3.7114   3.7160   3.7269   3.7304   3.7479   3.7636
  3.7737   3.7908   3.8089   3.8179   3.8271   3.8325   3.8410   3.8456
  3.8566   3.8604   3.8883   3.9014   3.9231   3.9288   3.9360   3.9596
  3.9703   3.9846   3.9880   4.0108   4.0355   4.0464   4.0537   4.0654
  4.0735   4.0822   4.0900   4.1017   4.1500   4.1674   4.1759   4.1922
  4.2105   4.2281   4.2554   4.2768   4.2988   4.3117   4.3336   4.3470
  4.3749   4.3828   4.3979   4.4047   4.4201   4.4253   4.4452   4.4565
  4.4947   4.5021   4.5109   4.5229   4.5560   4.5622   4.5788   4.6096
  4.6210   4.6320   4.6378   4.6517   4.6626   4.7087   4.7158   4.7332
  4.7669   4.7989   4.8096   4.8097   4.8360   4.8698   4.8835   4.9222
  4.9722   4.9992   5.0102   5.0255   5.0425   5.0725   5.1241   5.1407
  5.1682   5.1837   5.1922   5.1972   5.2520   5.2577   5.3080   5.3538
  5.3586   5.3704   5.3868   5.4385   5.4607   5.4719   5.4848   5.5332
  5.5675   5.5909   5.6140   5.6183   5.6355   5.7070   5.7375   5.7984
  5.8097   5.8254   5.8503   5.9196   5.9567   5.9649   5.9703   6.0009
  6.0764   6.0916   6.1164   6.1319   6.1837   6.3064   6.3394   6.4302
  6.4645   6.5039   6.5534   6.6538   6.6734   6.7278   6.7367   6.8563
  6.8777   6.9862   7.1759   7.2078   7.3227   7.3732   7.3755   7.4230
  7.4601   7.4872   7.5163   7.5449   7.6002   7.7712   7.8283   7.9005
  8.0028   8.1185   8.4123   8.9280   9.0098   9.3636   9.4948   9.6895
 10.1948  11.1976  11.9218  12.0333  12.2878  12.5928  13.0405  13.4082
 13.7715  14.0762  14.6440
 --------------------------------------------------------------
 
          Ground-State Mulliken Net Atomic Charges

     Atom                 Charge (a.u.)
  ----------------------------------------
      1 C                    -0.131264
      2 S                     0.107198
      3 C                    -0.163319
      4 C                    -0.024606
      5 C                    -0.036471
      6 C                     0.367390
      7 C                    -0.131880
      8 S                     0.062202
      9 C                     0.456853
     10 O                    -0.442127
     11 O                    -0.296821
     12 F                    -0.211572
     13 C                    -0.054741
     14 H                     0.117247
     15 H                     0.085401
     16 H                     0.085041
     17 C                    -0.392431
     18 H                     0.112630
     19 H                     0.143037
     20 H                     0.133352
     21 H                     0.214881
  ----------------------------------------
  Sum of atomic charges =     0.000000

 -----------------------------------------------------------------
                    Cartesian Multipole Moments
 -----------------------------------------------------------------
    Charge (ESU x 10^10)
                -0.0000
    Dipole Moment (Debye)
         X       4.1647      Y       1.2827      Z       2.3299
       Tot       4.9415
    Quadrupole Moments (Debye-Ang)
        XX     -88.3738     XY       6.0210     YY     -91.2209
        XZ      -8.5125     YZ      -5.0625     ZZ     -94.1516
    Octopole Moments (Debye-Ang^2)
       XXX    -201.8647    XXY     -24.3769    XYY     -69.9153
       YYY    -111.5559    XXZ      65.0954    XYZ      -6.4240
       YYZ      74.6199    XZZ       9.3697    YZZ      11.8988
       ZZZ     244.1943
    Hexadecapole Moments (Debye-Ang^3)
      XXXX   -1219.8117   XXXY    -324.7644   XXYY    -301.1570
      XYYY    -359.6076   YYYY    -678.8466   XXXZ     553.9045
      XXYZ      92.1986   XYYZ     180.3623   YYYZ     383.8588
      XXZZ    -645.0307   XYZZ       9.0440   YYZZ    -694.5335
      XZZZ     242.2479   YZZZ     180.1014   ZZZZ   -3735.2461
 -----------------------------------------------------------------
 Total job time:  53.98s(wall), 1958.31s(cpu) 
 Sun Sep 24 17:14:54 2023

        *************************************************************
        *                                                           *
        *  Thank you very much for using Q-Chem.  Have a nice day.  *
        *                                                           *
        *************************************************************


0 sent ACK to 0 
now end server 0 ... 
cleanup process ... done
remove work dirs ./qchem3724533.0 -- ./qchem3724533.0
rm -rf ./qchem3724533.0
rm -rf ./qchem3724533
