You are running Q-Chem version: 5.4.0

#
# job setting
#
local host:  exp-9-02
current dir: /expanse/lustre/projects/csd626/rramji/aromodel/PTB7_fin/Hydrogenated_Impropers_Test
input file:  fin_bdt_Phi_30_Theta_200_fin_ftt_Hydrogenated_Improper.qcin
output file: 
nprocs     : 1
nthreads   : 64
#
# qchem installation setting
#
QC:          /cm/shared/apps/spack/cpu/opt/spack/linux-centos8-zen2/gcc-10.2.0/qchem-5.4-akfmr7b3t57bfs6qan3padb2wnb2i7cl
QCAUX:       /cm/shared/apps/spack/cpu/opt/spack/linux-centos8-zen2/gcc-10.2.0/qchem-5.4-akfmr7b3t57bfs6qan3padb2wnb2i7cl/qcaux
QCPROG:      /cm/shared/apps/spack/cpu/opt/spack/linux-centos8-zen2/gcc-10.2.0/qchem-5.4-akfmr7b3t57bfs6qan3padb2wnb2i7cl/exe/qcprog.exe
QCPROG_S:    /cm/shared/apps/spack/cpu/opt/spack/linux-centos8-zen2/gcc-10.2.0/qchem-5.4-akfmr7b3t57bfs6qan3padb2wnb2i7cl/exe/qcprog.exe_s
PARALLEL:    -DPARALLEL
QCMPI:       mpich
#
# qchem directory setting
#
qcrun:       qchem639616
QCSCRATCH:   .
QCLOCALSCR:  
QCTMPDIR:    .
QCFILEPREF:  ./qchem639616
QCSAVEDIR:   
workdirs:    ./qchem639616
workdir0:    ./qchem639616
partmpdirs =  
#
# parallel setting
#
QCRSH:           ssh
QCMPI:           mpich
QCMPIRUN:        /cm/shared/apps/spack/cpu/opt/spack/linux-centos8-zen2/gcc-10.2.0/qchem-5.4-akfmr7b3t57bfs6qan3padb2wnb2i7cl/bin/mpi/mpirun_qchem
QCMACHINEFILE:   ./qchem639616/hostfile
exp-9-02

#
# env setting
#
exported envs:   QC QCAUX QCSCRATCH QCRUNNAME QCFILEPREF QCPROG QCPROG_S GUIFILE

Running Job 1 of 1 fin_bdt_Phi_30_Theta_200_fin_ftt_Hydrogenated_Improper.qcin
qchem fin_bdt_Phi_30_Theta_200_fin_ftt_Hydrogenated_Improper.qcin_639616.0 ./qchem639616/ 1
/cm/shared/apps/spack/cpu/opt/spack/linux-centos8-zen2/gcc-10.2.0/qchem-5.4-akfmr7b3t57bfs6qan3padb2wnb2i7cl/bin/mpi/mpirun_qchem -machinefile ./qchem639616/hostfile -np 1 /cm/shared/apps/spack/cpu/opt/spack/linux-centos8-zen2/gcc-10.2.0/qchem-5.4-akfmr7b3t57bfs6qan3padb2wnb2i7cl/exe/qcprog.exe fin_bdt_Phi_30_Theta_200_fin_ftt_Hydrogenated_Improper.qcin_639616.0 ./qchem639616/

Process 0 of 1 is on exp-9-02 - thread support 0
initial socket setup ...start
initial socket setup ...done 
now start server 0 ... 
                  Welcome to Q-Chem
     A Quantum Leap Into The Future Of Chemistry


 Q-Chem 5.4, Q-Chem, Inc., Pleasanton, CA (2021)

 License issued to: University of California, San Diego (site)

 E. Epifanovsky,  A. T. B. Gilbert,  Xintian Feng,  Joonho Lee,  Yuezhi Mao,  
 N. Mardirossian,  P. Pokhilko,  A. White,  M. Wormit,  M. P. Coons,  
 A. L. Dempwolff,  Zhengting Gan,  D. Hait,  P. R. Horn,  L. D. Jacobson,  
 I. Kaliman,  J. Kussmann,  A. W. Lange,  Ka Un Lao,  D. S. Levine,  Jie Liu,  
 S. C. McKenzie,  A. F. Morrison,  K. Nanda,  F. Plasser,  D. R. Rehn,  
 M. L. Vidal,  Zhi-Qiang You,  Ying Zhu,  B. Alam,  B. Albrecht,  
 A. Aldossary,  E. Alguire,  J. H. Andersen,  D. Barton,  K. Begam,  A. Behn,  
 Y. A. Bernard,  E. J. Berquist,  H. Burton,  A. Carreras,  K. Carter-Fenk,  
 R. Chakraborty,  A. D. Chien,  K. D. Closser,  V. Cofer-Shabica,  
 S. Dasgupta,  Jia Deng,  M. de Wergifosse,  M. Diedenhofen,  Hainam Do,  
 S. Ehlert,  Po-Tung Fang,  S. Fatehi,  Qingguo Feng,  J. Gayvert,  
 Qinghui Ge,  G. Gidofalvi,  M. Goldey,  J. Gomes,  C. Gonzalez-Espinoza,  
 S. Gulania,  A. Gunina,  M. W. D. Hanson-Heine,  P. H. P. Harbach,  
 A. W. Hauser,  M. F. Herbst,  M. Hernandez Vera,  M. Hodecker,  
 Z. C. Holden,  S. Houck,  Xunkun Huang,  Kerwin Hui,  B. C. Huynh,  
 M. Ivanov,  Hyunjun Ji,  Hanjie Jiang,  B. Kaduk,  S. Kaehler,  
 K. Khistyaev,  Jaehoon Kim,  P. Klunzinger,  Z. Koczor-Benda,  
 Joong Hoon Koh,  D. Kosenkov,  L. Koulias,  T. Kowalczyk,  C. M. Krauter,  
 K. Kue,  A. Kunitsa,  T. Kus,  A. Landau,  K. V. Lawler,  D. Lefrancois,  
 S. Lehtola,  Rain Li,  Yi-Pei Li,  Jiashu Liang,  M. Liebenthal,  
 Hung-Hsuan Lin,  You-Sheng Lin,  Fenglai Liu,  Kuan-Yu Liu,  
 M. Loipersberger,  A. Luenser,  A. Manjanath,  P. Manohar,  E. Mansoor,  
 S. F. Manzer,  Shan-Ping Mao,  A. V. Marenich,  T. Markovich,  S. Mason,  
 S. A. Maurer,  P. F. McLaughlin,  M. F. S. J. Menger,  J.-M. Mewes,  
 S. A. Mewes,  P. Morgante,  J. W. Mullinax,  T. S. Nguyen-Beck,  
 K. J. Oosterbaan,  G. Paran,  Alexander C. Paul,  Suranjan K. Paul,  
 F. Pavosevic,  Zheng Pei,  S. Prager,  E. I. Proynov,  E. Ramos,  B. Rana,  
 A. E. Rask,  A. Rettig,  R. M. Richard,  F. Rob,  E. Rossomme,  T. Scheele,  
 M. Scheurer,  M. Schneider,  N. Sergueev,  S. M. Sharada,  W. Skomorowski,  
 D. W. Small,  C. J. Stein,  Yu-Chuan Su,  E. J. Sundstrom,  Zhen Tao,  
 J. Thirman,  T. Tsuchimochi,  N. M. Tubman,  S. P. Veccham,  O. Vydrov,  
 J. Wenzel,  J. Witte,  A. Yamada,  Kun Yao,  S. Yeganeh,  S. R. Yost,  
 A. Zech,  Igor Ying Zhang,  Xing Zhang,  Yu Zhang,  D. Zuev,  
 A. Aspuru-Guzik,  A. T. Bell,  N. A. Besley,  K. B. Bravaya,  B. R. Brooks,  
 D. Casanova,  Jeng-Da Chai,  S. Coriani,  C. J. Cramer,  
 A. E. DePrince, III,  R. A. DiStasio Jr.,  A. Dreuw,  B. D. Dunietz,  
 T. R. Furlani,  W. A. Goddard III,  S. Grimme,  S. Hammes-Schiffer,  
 T. Head-Gordon,  W. J. Hehre,  Chao-Ping Hsu,  T.-C. Jagau,  Yousung Jung,  
 A. Klamt,  Jing Kong,  D. S. Lambrecht,  WanZhen Liang,  N. J. Mayhall,  
 C. W. McCurdy,  J. B. Neaton,  C. Ochsenfeld,  J. A. Parkhill,  R. Peverati,  
 V. A. Rassolov,  Yihan Shao,  L. V. Slipchenko,  T. Stauch,  R. P. Steele,  
 J. E. Subotnik,  A. J. W. Thom,  A. Tkatchenko,  D. G. Truhlar,  
 T. Van Voorhis,  T. A. Wesolowski,  K. B. Whaley,  H. L. Woodcock III,  
 P. M. Zimmerman,  S. Faraji,  P. M. W. Gill,  M. Head-Gordon,  
 J. M. Herbert,  A. I. Krylov

 Contributors to earlier versions of Q-Chem not listed above: 
 R. D. Adamson,  B. Austin,  R. Baer,  J. Baker,  G. J. O. Beran,  
 K. Brandhorst,  S. T. Brown,  E. F. C. Byrd,  A. K. Chakraborty,  
 G. K. L. Chan,  Chun-Min Chang,  Yunqing Chen,  C.-L. Cheng,  
 Siu Hung Chien,  D. M. Chipman,  D. L. Crittenden,  H. Dachsel,  
 R. J. Doerksen,  A. D. Dutoi,  R. G. Edgar,  J. Fosso-Tande,  
 L. Fusti-Molnar,  D. Ghosh,  A. Ghysels,  A. Golubeva-Zadorozhnaya,  
 J. Gonthier,  M. S. Gordon,  S. R. Gwaltney,  G. Hawkins,  J. E. Herr,  
 A. Heyden,  S. Hirata,  E. G. Hohenstein,  G. Kedziora,  F. J. Keil,  
 C. Kelley,  Jihan Kim,  R. A. King,  R. Z. Khaliullin,  P. P. Korambath,  
 W. Kurlancheek,  A. Laurent,  A. M. Lee,  M. S. Lee,  S. V. Levchenko,  
 Ching Yeh Lin,  D. Liotard,  E. Livshits,  R. C. Lochan,  I. Lotan,  
 L. A. Martinez-Martinez,  P. E. Maslen,  N. Nair,  D. P. O'Neill,  
 D. Neuhauser,  E. Neuscamman,  C. M. Oana,  R. Olivares-Amaya,  R. Olson,  
 T. M. Perrine,  B. Peters,  P. A. Pieniazek,  A. Prociuk,  Y. M. Rhee,  
 J. Ritchie,  M. A. Rohrdanz,  E. Rosta,  N. J. Russ,  H. F. Schaefer III,  
 M. W. Schmidt,  N. E. Schultz,  S. Sharma,  N. Shenvi,  C. D. Sherrill,  
 A. C. Simmonett,  A. Sodt,  T. Stein,  D. Stuck,  K. S. Thanthiriwatte,  
 V. Vanovschi,  L. Vogt,  Tao Wang,  A. Warshel,  M. A. Watson,  
 C. F. Williams,  Q. Wu,  X. Xu,  Jun Yang,  W. Zhang,  Yan Zhao

 Please cite Q-Chem as follows:
 Y. Shao et al., Mol. Phys. 113, 184-215 (2015)
 DOI: 10.1080/00268976.2014.952696

 Q-Chem 5.4.0 for Intel X86 EM64T Linux

 Parts of Q-Chem use Armadillo 9.800.1 (Horizon Scraper).
 http://arma.sourceforge.net/

 Q-Chem begins on Sun Sep 24 17:04:54 2023  

 Host: 
0

     Scratch files written to ./qchem639616//
 May1621 |scratch|qcdevops|jenkins|workspace|build_RNUM    
 Parallel job on  1  processors
 Processing $rem in /cm/shared/apps/spack/cpu/opt/spack/linux-centos8-zen2/gcc-10.2.0/qchem-5.4-akfmr7b3t57bfs6qan3padb2wnb2i7cl/config/preferences:
 Processing $rem in /home/rramji/.qchemrc:
 Symmetry turned off for PCM/SM12/SMD calculation
 Core orbitals will be frozen

 Checking the input file for inconsistencies... 	...done.

 Q-Chem warning in module forms1/BasisType.C, line 2236:

 You are not using the predefined 5D/6D in this basis set.


--------------------------------------------------------------
User input:
--------------------------------------------------------------
$molecule
0 1
C	-0.442514	-0.717327	1.023483
S	0.009086	0.060473	2.534183
C	0.795886	1.425273	1.751083
C	0.011586	0.069273	-0.041217
C	0.704686	1.272673	0.345183
C	-0.020214	0.010873	-1.462617
C	0.612086	1.106373	-2.083417
S	1.232986	2.188373	-0.942217
C	0.743386	1.324373	-3.536517
O	0.279186	0.514473	-4.326817
O	1.387786	2.434073	-3.980917
F	-0.573814	-0.955927	-2.222817
C	1.575986	2.739673	-5.311517
H	2.128986	3.696273	-5.346817
H	0.609686	2.847873	-5.852117
H	2.159386	1.952473	-5.838417
C	-0.442514	-2.152527	1.023483
H	-1.460214	-2.161527	0.662083
H	-0.157014	-2.836427	0.237883
H	-0.757914	-2.676927	1.913383
H	1.255886	2.221973	2.344983
$end

$rem
JOBTYPE		SP
EXCHANGE	HF
CORRELATION	pRIMP2
BASIS		cc-pvtz
METHOD		rimp2
AUX_BASIS	rimp2-cc-pvtz
SOLVENT_METHOD	PCM
PURECART	11111
SYMMETRY	false
MEM_TOTAL	110000
SCF_CONVERGENCE = 6
THRESH=10
GUI = 2
$end



$solvent
dielectric 4.90
$end
--------------------------------------------------------------
 ----------------------------------------------------------------
             Standard Nuclear Orientation (Angstroms)
    I     Atom           X                Y                Z
 ----------------------------------------------------------------
    1      C      -0.4425140000    -0.7173270000     1.0234830000
    2      S       0.0090860000     0.0604730000     2.5341830000
    3      C       0.7958860000     1.4252730000     1.7510830000
    4      C       0.0115860000     0.0692730000    -0.0412170000
    5      C       0.7046860000     1.2726730000     0.3451830000
    6      C      -0.0202140000     0.0108730000    -1.4626170000
    7      C       0.6120860000     1.1063730000    -2.0834170000
    8      S       1.2329860000     2.1883730000    -0.9422170000
    9      C       0.7433860000     1.3243730000    -3.5365170000
   10      O       0.2791860000     0.5144730000    -4.3268170000
   11      O       1.3877860000     2.4340730000    -3.9809170000
   12      F      -0.5738140000    -0.9559270000    -2.2228170000
   13      C       1.5759860000     2.7396730000    -5.3115170000
   14      H       2.1289860000     3.6962730000    -5.3468170000
   15      H       0.6096860000     2.8478730000    -5.8521170000
   16      H       2.1593860000     1.9524730000    -5.8384170000
   17      C      -0.4425140000    -2.1525270000     1.0234830000
   18      H      -1.4602140000    -2.1615270000     0.6620830000
   19      H      -0.1570140000    -2.8364270000     0.2378830000
   20      H      -0.7579140000    -2.6769270000     1.9133830000
   21      H       1.2558860000     2.2219730000     2.3449830000
 ----------------------------------------------------------------
 Nuclear Repulsion Energy =        1090.80928378 hartrees
 There are       59 alpha and       59 beta electrons
 Requested basis set is cc-pVTZ
 There are 186 shells and 526 basis functions

 Total QAlloc Memory Limit 110000 MB
 Mega-Array Size       188 MB
 MEM_STATIC part       192 MB
 Discretize the solute cavity surface with Lebedev spheres
	Using 110 Lebedev grid points for each H atom
	Using 194 Lebedev grid points for other atoms
	Atomic van der Waals radii will be scaled by 1.20
 Remove points where switching function is < 1.0e-08
 Keep 1564 surface tesserae and discard 1922 interior tesserae
 Molecular Surface Area = 241.537 Angst**2
 Requested basis set is rimp2-cc-pVTZ
 There are 410 shells and 1426 basis functions
 A cutoff of  1.0D-10 yielded  11577 shell pairs
 There are     91107 function pairs (    119300 Cartesian)
 Smallest overlap matrix eigenvalue = 6.12E-05

 Scale SEOQF with 1.000000e-01/1.000000e-01/1.000000e-02

 Standard Electronic Orientation quadrupole field applied
 Nucleus-field energy     =     0.0000000154 hartrees
 Guess from superposition of atomic densities
 Warning:  Energy on first SCF cycle will be non-variational
 SAD guess density has 118.000000 electrons

 -----------------------------------------------------------------------
  General SCF calculation program by
  Eric Jon Sundstrom, Paul Horn, Yuezhi Mao, Dmitri Zuev, Alec White,
  David Stuck, Shaama M.S., Shane Yost, Joonho Lee, David Small,
  Daniel Levine, Susi Lehtola, Hugh Burton, Evgeny Epifanovsky,
  Bang C. Huynh
 -----------------------------------------------------------------------
 Hartree-Fock
 using 64 threads for integral computing
 -------------------------------------------------------
 OpenMP Integral computing Module                
 Release: version 1.0, May 2013, Q-Chem Inc. Pittsburgh 
 -------------------------------------------------------
 A restricted SCF calculation will be
 performed using DIIS
 SCF converges when DIIS error is below 1.0e-06
 ---------------------------------------
  Cycle       Energy         DIIS error
 ---------------------------------------
    1   -1394.5705302319      2.53e-02  
    2   -1388.9942383361      2.50e-03  
    3   -1389.1659624114      1.58e-03  
    4   -1389.2274805134      3.47e-04  
    5   -1389.2331343675      1.10e-04  
    6   -1389.2337882616      3.60e-05  
    7   -1389.2339255263      1.78e-05  
    8   -1389.2339708259      7.21e-06  
    9   -1389.2339811430      3.36e-06  
   10   -1389.2339829450      1.33e-06  
   11   -1389.2339832592      5.19e-07  Convergence criterion met
 ---------------------------------------
 SCF time:   CPU 1712.84s  wall 49.00s 

************** Final PCM Free Energy Summary **************
 G_electrostatic  =      -0.01309278 hartree =      -8.21584068 kcal/mol
 G_cavitation     =       0.00000000 hartree =       0.00000000 kcal/mol
 G_dispersion     =       0.00000000 hartree =       0.00000000 kcal/mol
 G_repulsion      =       0.00000000 hartree =       0.00000000 kcal/mol
 --------------------------------------------------
 Non-electrostatic Free Energy =       0.00000000 hartree =       0.00000000 kcal/mol
 Total                         =      -0.01309278 hartree =      -8.21584068 kcal/mol
 --------------------------------------------------
 SCF Energy (H0 + V/2)                       =   -1389.23398326 
 Solute Internal Energy (H0)                 =   -1389.22089048 
 Total Free Energy (H0 + V/2 + non-elec)     =   -1389.23398326 hartree
                                             = -871757.48193020 kcal/mol
***********************************************************

 SCF   energy in the final basis set =    -1389.2339832592
 Total energy in the final basis set =    -1389.2339832592


 --------------------------------------------------------------
  Generalized many-body perturbation theory program
  by Joonho Lee, Fazle Rob, Xintian Feng, Evgeny Epifanovsky

 No regularization used 
 (reg. param. = 0.0000e+00)
  (P|Q)^-1/2 Time:  CPU 29.85 s  wall 0.48 s

 In RI-MP2 calculation: 
 # of frozen core orbitals: 22

 Components of the RIMP2 correlation energy:
        aaaa    correlation energy =        -0.3302084020 a.u.
        abab    correlation energy =        -1.8501033585 a.u.
        bbbb    correlation energy =        -0.3302084020 a.u.
        non-Brillouin singles      =        -0.0000000000 a.u.
        total same-spin energy     =        -0.6604168041 a.u.
        total opposite-spin energy =        -1.8501033585 a.u.

 Total  RIMP2   correlation energy =        -2.5105201625 a.u.
        RIMP2         total energy =     -1391.7445034217 a.u.

 RI-MP2 Energy Time:  CPU 183.22 s  wall 2.99 s
 
 --------------------------------------------------------------
 
                    Orbital Energies (a.u.)
 --------------------------------------------------------------
 
 Alpha MOs
 -- Occupied --
-92.0050 -91.9903 -26.3342 -20.6101 -20.5468 -11.4074 -11.3757 -11.3074
-11.2921 -11.2906 -11.2876 -11.2826 -11.2705 -11.2282  -9.0040  -8.9944
 -6.6848  -6.6840  -6.6836  -6.6757  -6.6750  -6.6737  -1.6472  -1.4697
 -1.3647  -1.2274  -1.1467  -1.0667  -1.0272  -1.0052  -0.9681  -0.9107
 -0.8634  -0.7958  -0.7850  -0.7669  -0.7260  -0.7152  -0.6958  -0.6774
 -0.6769  -0.6681  -0.6078  -0.6039  -0.5950  -0.5878  -0.5795  -0.5596
 -0.5387  -0.5230  -0.5137  -0.4937  -0.4799  -0.4604  -0.4581  -0.4523
 -0.3873  -0.3457  -0.2739
 -- Virtual --
  0.0338   0.1186   0.1356   0.1557   0.1587   0.1709   0.1828   0.1971
  0.2064   0.2139   0.2153   0.2211   0.2311   0.2440   0.2614   0.2734
  0.2871   0.3010   0.3117   0.3430   0.3490   0.3546   0.3699   0.3776
  0.3815   0.3885   0.4004   0.4084   0.4194   0.4288   0.4386   0.4402
  0.4527   0.4702   0.4796   0.4890   0.4987   0.5048   0.5082   0.5277
  0.5360   0.5423   0.5488   0.5493   0.5567   0.5689   0.5748   0.5853
  0.5868   0.5964   0.6006   0.6100   0.6179   0.6201   0.6234   0.6363
  0.6434   0.6451   0.6500   0.6599   0.6692   0.6929   0.6963   0.7008
  0.7152   0.7310   0.7373   0.7475   0.7641   0.7767   0.7889   0.7929
  0.8020   0.8117   0.8255   0.8423   0.8663   0.8712   0.8797   0.8839
  0.8979   0.9156   0.9239   0.9286   0.9415   0.9494   0.9673   0.9811
  0.9883   0.9942   1.0101   1.0192   1.0240   1.0386   1.0449   1.0592
  1.0639   1.0758   1.0788   1.0862   1.0916   1.1060   1.1122   1.1221
  1.1399   1.1575   1.1591   1.1688   1.1721   1.1852   1.1916   1.2123
  1.2201   1.2313   1.2405   1.2435   1.2752   1.2856   1.3070   1.3146
  1.3201   1.3433   1.3436   1.3493   1.3559   1.3729   1.3795   1.4069
  1.4350   1.4409   1.4637   1.4698   1.4772   1.4824   1.4951   1.5047
  1.5129   1.5135   1.5291   1.5610   1.5663   1.5752   1.5869   1.5934
  1.6181   1.6388   1.6503   1.6656   1.6904   1.7055   1.7200   1.7297
  1.7504   1.7666   1.7763   1.8097   1.8322   1.8348   1.8387   1.8495
  1.8694   1.8806   1.8856   1.9245   1.9360   1.9412   1.9492   1.9789
  2.0069   2.0162   2.0313   2.0482   2.0534   2.0992   2.1112   2.1274
  2.1424   2.1551   2.1615   2.1749   2.1970   2.2019   2.2147   2.2263
  2.2432   2.2661   2.2709   2.2799   2.2847   2.2943   2.3252   2.3584
  2.3674   2.3777   2.3938   2.4143   2.4388   2.4619   2.4894   2.5148
  2.5306   2.5469   2.5665   2.5804   2.5867   2.5973   2.6264   2.6412
  2.6475   2.6652   2.6756   2.6891   2.6940   2.6960   2.7052   2.7164
  2.7407   2.7510   2.7708   2.7823   2.7963   2.8094   2.8228   2.8332
  2.8417   2.8648   2.8846   2.8867   2.8920   2.9266   2.9331   2.9628
  2.9711   2.9848   3.0116   3.0281   3.0444   3.0459   3.0536   3.0615
  3.0878   3.0925   3.1016   3.1205   3.1270   3.1405   3.1498   3.1610
  3.1621   3.1689   3.1970   3.2041   3.2142   3.2235   3.2391   3.2548
  3.2601   3.2665   3.2708   3.2857   3.2934   3.2972   3.3133   3.3176
  3.3464   3.3486   3.3567   3.3669   3.3731   3.3922   3.4128   3.4184
  3.4411   3.4452   3.4481   3.4523   3.4652   3.4826   3.4888   3.5065
  3.5084   3.5273   3.5309   3.5418   3.5641   3.5774   3.5817   3.5896
  3.5957   3.6067   3.6151   3.6356   3.6497   3.6553   3.6639   3.6703
  3.6836   3.6954   3.7119   3.7141   3.7230   3.7257   3.7340   3.7385
  3.7622   3.7706   3.7958   3.8010   3.8114   3.8271   3.8346   3.8432
  3.8528   3.8648   3.8764   3.8801   3.9077   3.9227   3.9387   3.9458
  3.9593   3.9655   3.9781   3.9956   4.0098   4.0176   4.0551   4.0614
  4.0667   4.0897   4.0974   4.1056   4.1415   4.1658   4.1777   4.1819
  4.1916   4.2341   4.2446   4.2624   4.2793   4.3027   4.3130   4.3426
  4.3489   4.3719   4.3779   4.3810   4.3946   4.4098   4.4251   4.4391
  4.4581   4.4749   4.5033   4.5148   4.5356   4.5604   4.5745   4.5908
  4.6353   4.6428   4.6518   4.6638   4.6751   4.6884   4.6913   4.7291
  4.7494   4.7753   4.7853   4.8079   4.8146   4.8897   4.9132   4.9525
  4.9848   4.9975   5.0094   5.0139   5.0645   5.0795   5.1282   5.1303
  5.1794   5.1995   5.2098   5.2286   5.2551   5.2603   5.2780   5.3498
  5.3563   5.3681   5.3977   5.4216   5.4406   5.4740   5.4840   5.5344
  5.5597   5.5795   5.6172   5.6203   5.6402   5.7030   5.7537   5.8027
  5.8067   5.8269   5.8485   5.8881   5.9301   5.9627   5.9723   6.0208
  6.0646   6.1267   6.1349   6.1864   6.2409   6.3103   6.3680   6.4146
  6.4953   6.5197   6.5586   6.6640   6.6792   6.7384   6.7420   6.8631
  6.8837   6.9929   7.1804   7.2124   7.3291   7.3728   7.3757   7.4287
  7.4645   7.4867   7.5179   7.5509   7.6101   7.7705   7.8337   7.9071
  8.0027   8.1212   8.4127   8.9284   9.0055   9.3633   9.4950   9.6921
 10.1519  11.2210  11.6401  11.9332  12.2901  12.6404  13.1380  13.3961
 13.7481  14.0645  14.6665
 --------------------------------------------------------------
 
          Ground-State Mulliken Net Atomic Charges

     Atom                 Charge (a.u.)
  ----------------------------------------
      1 C                     0.023934
      2 S                     0.094626
      3 C                    -0.257154
      4 C                    -0.100737
      5 C                    -0.007781
      6 C                     0.368340
      7 C                    -0.161888
      8 S                     0.033133
      9 C                     0.457015
     10 O                    -0.455771
     11 O                    -0.298721
     12 F                    -0.211582
     13 C                    -0.054853
     14 H                     0.116222
     15 H                     0.083802
     16 H                     0.083781
     17 C                    -0.378162
     18 H                     0.141247
     19 H                     0.170154
     20 H                     0.144924
     21 H                     0.209470
  ----------------------------------------
  Sum of atomic charges =     0.000000

 -----------------------------------------------------------------
                    Cartesian Multipole Moments
 -----------------------------------------------------------------
    Charge (ESU x 10^10)
                -0.0000
    Dipole Moment (Debye)
         X       0.7035      Y       0.5804      Z       3.3517
       Tot       3.4736
    Quadrupole Moments (Debye-Ang)
        XX     -93.6781     XY       6.0612     YY     -84.7767
        XZ      -6.1146     YZ     -10.0901     ZZ     -96.6172
    Octopole Moments (Debye-Ang^2)
       XXX    -130.5100    XXY     -65.3434    XYY     -36.6100
       YYY    -206.6364    XXZ      75.0961    XYZ      -5.5468
       YYZ      68.3073    XZZ       0.9566    YZZ       6.5437
       ZZZ     258.1311
    Hexadecapole Moments (Debye-Ang^3)
      XXXX    -512.9326   XXXY    -352.2742   XXYY    -314.3140
      XYYY    -306.6856   YYYY   -1431.0790   XXXZ     346.3906
      XXYZ     195.4692   XYYZ      76.2936   YYYZ     585.4551
      XXZZ    -671.6626   XYZZ       9.8290   YYZZ    -688.1223
      XZZZ     148.9408   YZZZ     292.7877   ZZZZ   -3797.8794
 -----------------------------------------------------------------
 Total job time:  53.44s(wall), 1954.37s(cpu) 
 Sun Sep 24 17:05:48 2023

        *************************************************************
        *                                                           *
        *  Thank you very much for using Q-Chem.  Have a nice day.  *
        *                                                           *
        *************************************************************


0 sent ACK to 0 
now end server 0 ... 
cleanup process ... done
remove work dirs ./qchem639616.0 -- ./qchem639616.0
rm -rf ./qchem639616.0
rm -rf ./qchem639616
