You are running Q-Chem version: 5.4.0

#
# job setting
#
local host:  exp-6-53
current dir: /expanse/lustre/projects/csd626/rramji/aromodel/PTB7_fin/Hydrogenated_Impropers_Test
input file:  fin_bdt_Phi_0_Theta_220_fin_ftt_Hydrogenated_Improper.qcin
output file: 
nprocs     : 1
nthreads   : 64
#
# qchem installation setting
#
QC:          /cm/shared/apps/spack/cpu/opt/spack/linux-centos8-zen2/gcc-10.2.0/qchem-5.4-akfmr7b3t57bfs6qan3padb2wnb2i7cl
QCAUX:       /cm/shared/apps/spack/cpu/opt/spack/linux-centos8-zen2/gcc-10.2.0/qchem-5.4-akfmr7b3t57bfs6qan3padb2wnb2i7cl/qcaux
QCPROG:      /cm/shared/apps/spack/cpu/opt/spack/linux-centos8-zen2/gcc-10.2.0/qchem-5.4-akfmr7b3t57bfs6qan3padb2wnb2i7cl/exe/qcprog.exe
QCPROG_S:    /cm/shared/apps/spack/cpu/opt/spack/linux-centos8-zen2/gcc-10.2.0/qchem-5.4-akfmr7b3t57bfs6qan3padb2wnb2i7cl/exe/qcprog.exe_s
PARALLEL:    -DPARALLEL
QCMPI:       mpich
#
# qchem directory setting
#
qcrun:       qchem2013487
QCSCRATCH:   .
QCLOCALSCR:  
QCTMPDIR:    .
QCFILEPREF:  ./qchem2013487
QCSAVEDIR:   
workdirs:    ./qchem2013487
workdir0:    ./qchem2013487
partmpdirs =  
#
# parallel setting
#
QCRSH:           ssh
QCMPI:           mpich
QCMPIRUN:        /cm/shared/apps/spack/cpu/opt/spack/linux-centos8-zen2/gcc-10.2.0/qchem-5.4-akfmr7b3t57bfs6qan3padb2wnb2i7cl/bin/mpi/mpirun_qchem
QCMACHINEFILE:   ./qchem2013487/hostfile
exp-6-53

#
# env setting
#
exported envs:   QC QCAUX QCSCRATCH QCRUNNAME QCFILEPREF QCPROG QCPROG_S GUIFILE

Running Job 1 of 1 fin_bdt_Phi_0_Theta_220_fin_ftt_Hydrogenated_Improper.qcin
qchem fin_bdt_Phi_0_Theta_220_fin_ftt_Hydrogenated_Improper.qcin_2013487.0 ./qchem2013487/ 1
/cm/shared/apps/spack/cpu/opt/spack/linux-centos8-zen2/gcc-10.2.0/qchem-5.4-akfmr7b3t57bfs6qan3padb2wnb2i7cl/bin/mpi/mpirun_qchem -machinefile ./qchem2013487/hostfile -np 1 /cm/shared/apps/spack/cpu/opt/spack/linux-centos8-zen2/gcc-10.2.0/qchem-5.4-akfmr7b3t57bfs6qan3padb2wnb2i7cl/exe/qcprog.exe fin_bdt_Phi_0_Theta_220_fin_ftt_Hydrogenated_Improper.qcin_2013487.0 ./qchem2013487/

Process 0 of 1 is on exp-6-53 - thread support 0
initial socket setup ...start
initial socket setup ...done 
now start server 0 ... 
                  Welcome to Q-Chem
     A Quantum Leap Into The Future Of Chemistry


 Q-Chem 5.4, Q-Chem, Inc., Pleasanton, CA (2021)

 License issued to: University of California, San Diego (site)

 E. Epifanovsky,  A. T. B. Gilbert,  Xintian Feng,  Joonho Lee,  Yuezhi Mao,  
 N. Mardirossian,  P. Pokhilko,  A. White,  M. Wormit,  M. P. Coons,  
 A. L. Dempwolff,  Zhengting Gan,  D. Hait,  P. R. Horn,  L. D. Jacobson,  
 I. Kaliman,  J. Kussmann,  A. W. Lange,  Ka Un Lao,  D. S. Levine,  Jie Liu,  
 S. C. McKenzie,  A. F. Morrison,  K. Nanda,  F. Plasser,  D. R. Rehn,  
 M. L. Vidal,  Zhi-Qiang You,  Ying Zhu,  B. Alam,  B. Albrecht,  
 A. Aldossary,  E. Alguire,  J. H. Andersen,  D. Barton,  K. Begam,  A. Behn,  
 Y. A. Bernard,  E. J. Berquist,  H. Burton,  A. Carreras,  K. Carter-Fenk,  
 R. Chakraborty,  A. D. Chien,  K. D. Closser,  V. Cofer-Shabica,  
 S. Dasgupta,  Jia Deng,  M. de Wergifosse,  M. Diedenhofen,  Hainam Do,  
 S. Ehlert,  Po-Tung Fang,  S. Fatehi,  Qingguo Feng,  J. Gayvert,  
 Qinghui Ge,  G. Gidofalvi,  M. Goldey,  J. Gomes,  C. Gonzalez-Espinoza,  
 S. Gulania,  A. Gunina,  M. W. D. Hanson-Heine,  P. H. P. Harbach,  
 A. W. Hauser,  M. F. Herbst,  M. Hernandez Vera,  M. Hodecker,  
 Z. C. Holden,  S. Houck,  Xunkun Huang,  Kerwin Hui,  B. C. Huynh,  
 M. Ivanov,  Hyunjun Ji,  Hanjie Jiang,  B. Kaduk,  S. Kaehler,  
 K. Khistyaev,  Jaehoon Kim,  P. Klunzinger,  Z. Koczor-Benda,  
 Joong Hoon Koh,  D. Kosenkov,  L. Koulias,  T. Kowalczyk,  C. M. Krauter,  
 K. Kue,  A. Kunitsa,  T. Kus,  A. Landau,  K. V. Lawler,  D. Lefrancois,  
 S. Lehtola,  Rain Li,  Yi-Pei Li,  Jiashu Liang,  M. Liebenthal,  
 Hung-Hsuan Lin,  You-Sheng Lin,  Fenglai Liu,  Kuan-Yu Liu,  
 M. Loipersberger,  A. Luenser,  A. Manjanath,  P. Manohar,  E. Mansoor,  
 S. F. Manzer,  Shan-Ping Mao,  A. V. Marenich,  T. Markovich,  S. Mason,  
 S. A. Maurer,  P. F. McLaughlin,  M. F. S. J. Menger,  J.-M. Mewes,  
 S. A. Mewes,  P. Morgante,  J. W. Mullinax,  T. S. Nguyen-Beck,  
 K. J. Oosterbaan,  G. Paran,  Alexander C. Paul,  Suranjan K. Paul,  
 F. Pavosevic,  Zheng Pei,  S. Prager,  E. I. Proynov,  E. Ramos,  B. Rana,  
 A. E. Rask,  A. Rettig,  R. M. Richard,  F. Rob,  E. Rossomme,  T. Scheele,  
 M. Scheurer,  M. Schneider,  N. Sergueev,  S. M. Sharada,  W. Skomorowski,  
 D. W. Small,  C. J. Stein,  Yu-Chuan Su,  E. J. Sundstrom,  Zhen Tao,  
 J. Thirman,  T. Tsuchimochi,  N. M. Tubman,  S. P. Veccham,  O. Vydrov,  
 J. Wenzel,  J. Witte,  A. Yamada,  Kun Yao,  S. Yeganeh,  S. R. Yost,  
 A. Zech,  Igor Ying Zhang,  Xing Zhang,  Yu Zhang,  D. Zuev,  
 A. Aspuru-Guzik,  A. T. Bell,  N. A. Besley,  K. B. Bravaya,  B. R. Brooks,  
 D. Casanova,  Jeng-Da Chai,  S. Coriani,  C. J. Cramer,  
 A. E. DePrince, III,  R. A. DiStasio Jr.,  A. Dreuw,  B. D. Dunietz,  
 T. R. Furlani,  W. A. Goddard III,  S. Grimme,  S. Hammes-Schiffer,  
 T. Head-Gordon,  W. J. Hehre,  Chao-Ping Hsu,  T.-C. Jagau,  Yousung Jung,  
 A. Klamt,  Jing Kong,  D. S. Lambrecht,  WanZhen Liang,  N. J. Mayhall,  
 C. W. McCurdy,  J. B. Neaton,  C. Ochsenfeld,  J. A. Parkhill,  R. Peverati,  
 V. A. Rassolov,  Yihan Shao,  L. V. Slipchenko,  T. Stauch,  R. P. Steele,  
 J. E. Subotnik,  A. J. W. Thom,  A. Tkatchenko,  D. G. Truhlar,  
 T. Van Voorhis,  T. A. Wesolowski,  K. B. Whaley,  H. L. Woodcock III,  
 P. M. Zimmerman,  S. Faraji,  P. M. W. Gill,  M. Head-Gordon,  
 J. M. Herbert,  A. I. Krylov

 Contributors to earlier versions of Q-Chem not listed above: 
 R. D. Adamson,  B. Austin,  R. Baer,  J. Baker,  G. J. O. Beran,  
 K. Brandhorst,  S. T. Brown,  E. F. C. Byrd,  A. K. Chakraborty,  
 G. K. L. Chan,  Chun-Min Chang,  Yunqing Chen,  C.-L. Cheng,  
 Siu Hung Chien,  D. M. Chipman,  D. L. Crittenden,  H. Dachsel,  
 R. J. Doerksen,  A. D. Dutoi,  R. G. Edgar,  J. Fosso-Tande,  
 L. Fusti-Molnar,  D. Ghosh,  A. Ghysels,  A. Golubeva-Zadorozhnaya,  
 J. Gonthier,  M. S. Gordon,  S. R. Gwaltney,  G. Hawkins,  J. E. Herr,  
 A. Heyden,  S. Hirata,  E. G. Hohenstein,  G. Kedziora,  F. J. Keil,  
 C. Kelley,  Jihan Kim,  R. A. King,  R. Z. Khaliullin,  P. P. Korambath,  
 W. Kurlancheek,  A. Laurent,  A. M. Lee,  M. S. Lee,  S. V. Levchenko,  
 Ching Yeh Lin,  D. Liotard,  E. Livshits,  R. C. Lochan,  I. Lotan,  
 L. A. Martinez-Martinez,  P. E. Maslen,  N. Nair,  D. P. O'Neill,  
 D. Neuhauser,  E. Neuscamman,  C. M. Oana,  R. Olivares-Amaya,  R. Olson,  
 T. M. Perrine,  B. Peters,  P. A. Pieniazek,  A. Prociuk,  Y. M. Rhee,  
 J. Ritchie,  M. A. Rohrdanz,  E. Rosta,  N. J. Russ,  H. F. Schaefer III,  
 M. W. Schmidt,  N. E. Schultz,  S. Sharma,  N. Shenvi,  C. D. Sherrill,  
 A. C. Simmonett,  A. Sodt,  T. Stein,  D. Stuck,  K. S. Thanthiriwatte,  
 V. Vanovschi,  L. Vogt,  Tao Wang,  A. Warshel,  M. A. Watson,  
 C. F. Williams,  Q. Wu,  X. Xu,  Jun Yang,  W. Zhang,  Yan Zhao

 Please cite Q-Chem as follows:
 Y. Shao et al., Mol. Phys. 113, 184-215 (2015)
 DOI: 10.1080/00268976.2014.952696

 Q-Chem 5.4.0 for Intel X86 EM64T Linux

 Parts of Q-Chem use Armadillo 9.800.1 (Horizon Scraper).
 http://arma.sourceforge.net/

 Q-Chem begins on Sun Sep 24 16:56:17 2023  

 Host: 
0

     Scratch files written to ./qchem2013487//
 May1621 |scratch|qcdevops|jenkins|workspace|build_RNUM    
 Parallel job on  1  processors
 Processing $rem in /cm/shared/apps/spack/cpu/opt/spack/linux-centos8-zen2/gcc-10.2.0/qchem-5.4-akfmr7b3t57bfs6qan3padb2wnb2i7cl/config/preferences:
 Processing $rem in /home/rramji/.qchemrc:
 Symmetry turned off for PCM/SM12/SMD calculation
 Core orbitals will be frozen

 Checking the input file for inconsistencies... 	...done.

 Q-Chem warning in module forms1/BasisType.C, line 2236:

 You are not using the predefined 5D/6D in this basis set.


--------------------------------------------------------------
User input:
--------------------------------------------------------------
$molecule
0 1
C	0.000165	-0.836989	1.024233
S	0.002365	0.062411	2.534933
C	0.001365	1.637711	1.751833
C	0.000165	0.071211	-0.040467
C	-0.001335	1.460011	0.345933
C	0.001765	0.004811	-1.461867
C	0.001665	1.269711	-2.082667
S	-0.001635	2.517211	-0.941467
C	0.006365	1.524111	-3.535767
O	0.009365	0.590611	-4.326067
O	0.009565	2.807311	-3.980167
F	0.005665	-1.109289	-2.222067
C	0.019765	3.166011	-5.310767
H	0.020365	4.271011	-5.346067
H	-0.871235	2.776711	-5.851367
H	0.918665	2.776111	-5.837667
C	0.000165	-2.272189	1.024233
H	-0.832535	-2.281189	0.336533
H	0.537165	-2.956089	0.383733
H	-0.600535	-2.796589	1.752633
H	0.001365	2.557811	2.345733
$end

$rem
JOBTYPE		SP
EXCHANGE	HF
CORRELATION	pRIMP2
BASIS		cc-pvtz
METHOD		rimp2
AUX_BASIS	rimp2-cc-pvtz
SOLVENT_METHOD	PCM
PURECART	11111
SYMMETRY	false
MEM_TOTAL	110000
SCF_CONVERGENCE = 6
THRESH=10
GUI = 2
$end



$solvent
dielectric 4.90
$end
--------------------------------------------------------------
 ----------------------------------------------------------------
             Standard Nuclear Orientation (Angstroms)
    I     Atom           X                Y                Z
 ----------------------------------------------------------------
    1      C       0.0001650000    -0.8369890000     1.0242330000
    2      S       0.0023650000     0.0624110000     2.5349330000
    3      C       0.0013650000     1.6377110000     1.7518330000
    4      C       0.0001650000     0.0712110000    -0.0404670000
    5      C      -0.0013350000     1.4600110000     0.3459330000
    6      C       0.0017650000     0.0048110000    -1.4618670000
    7      C       0.0016650000     1.2697110000    -2.0826670000
    8      S      -0.0016350000     2.5172110000    -0.9414670000
    9      C       0.0063650000     1.5241110000    -3.5357670000
   10      O       0.0093650000     0.5906110000    -4.3260670000
   11      O       0.0095650000     2.8073110000    -3.9801670000
   12      F       0.0056650000    -1.1092890000    -2.2220670000
   13      C       0.0197650000     3.1660110000    -5.3107670000
   14      H       0.0203650000     4.2710110000    -5.3460670000
   15      H      -0.8712350000     2.7767110000    -5.8513670000
   16      H       0.9186650000     2.7761110000    -5.8376670000
   17      C       0.0001650000    -2.2721890000     1.0242330000
   18      H      -0.8325350000    -2.2811890000     0.3365330000
   19      H       0.5371650000    -2.9560890000     0.3837330000
   20      H      -0.6005350000    -2.7965890000     1.7526330000
   21      H       0.0013650000     2.5578110000     2.3457330000
 ----------------------------------------------------------------
 Nuclear Repulsion Energy =        1089.45198019 hartrees
 There are       59 alpha and       59 beta electrons
 Requested basis set is cc-pVTZ
 There are 186 shells and 526 basis functions

 Total QAlloc Memory Limit 110000 MB
 Mega-Array Size       188 MB
 MEM_STATIC part       192 MB
 Discretize the solute cavity surface with Lebedev spheres
	Using 110 Lebedev grid points for each H atom
	Using 194 Lebedev grid points for other atoms
	Atomic van der Waals radii will be scaled by 1.20
 Remove points where switching function is < 1.0e-08
 Keep 1572 surface tesserae and discard 1914 interior tesserae
 Molecular Surface Area = 242.616 Angst**2
 Requested basis set is rimp2-cc-pVTZ
 There are 410 shells and 1426 basis functions
 A cutoff of  1.0D-10 yielded  11574 shell pairs
 There are     91042 function pairs (    119232 Cartesian)
 Smallest overlap matrix eigenvalue = 5.60E-05

 Scale SEOQF with 1.000000e+00/1.000000e-01/1.000000e-02

 Standard Electronic Orientation quadrupole field applied
 Nucleus-field energy     =     0.0000000196 hartrees
 Guess from superposition of atomic densities
 Warning:  Energy on first SCF cycle will be non-variational
 SAD guess density has 118.000000 electrons

 -----------------------------------------------------------------------
  General SCF calculation program by
  Eric Jon Sundstrom, Paul Horn, Yuezhi Mao, Dmitri Zuev, Alec White,
  David Stuck, Shaama M.S., Shane Yost, Joonho Lee, David Small,
  Daniel Levine, Susi Lehtola, Hugh Burton, Evgeny Epifanovsky,
  Bang C. Huynh
 -----------------------------------------------------------------------
 Hartree-Fock
 using 64 threads for integral computing
 -------------------------------------------------------
 OpenMP Integral computing Module                
 Release: version 1.0, May 2013, Q-Chem Inc. Pittsburgh 
 -------------------------------------------------------
 A restricted SCF calculation will be
 performed using DIIS
 SCF converges when DIIS error is below 1.0e-06
 ---------------------------------------
  Cycle       Energy         DIIS error
 ---------------------------------------
    1   -1394.5569078993      2.52e-02  
    2   -1389.0164061976      2.50e-03  
    3   -1389.1883173365      1.57e-03  
    4   -1389.2496967988      3.46e-04  
    5   -1389.2553203213      1.09e-04  
    6   -1389.2559632751      3.59e-05  
    7   -1389.2560993649      1.78e-05  
    8   -1389.2561435920      7.03e-06  
    9   -1389.2561530726      3.15e-06  
   10   -1389.2561545342      1.21e-06  
   11   -1389.2561547676      4.50e-07  Convergence criterion met
 ---------------------------------------
 SCF time:   CPU 1714.40s  wall 50.00s 

************** Final PCM Free Energy Summary **************
 G_electrostatic  =      -0.01331127 hartree =      -8.35294783 kcal/mol
 G_cavitation     =       0.00000000 hartree =       0.00000000 kcal/mol
 G_dispersion     =       0.00000000 hartree =       0.00000000 kcal/mol
 G_repulsion      =       0.00000000 hartree =       0.00000000 kcal/mol
 --------------------------------------------------
 Non-electrostatic Free Energy =       0.00000000 hartree =       0.00000000 kcal/mol
 Total                         =      -0.01331127 hartree =      -8.35294783 kcal/mol
 --------------------------------------------------
 SCF Energy (H0 + V/2)                       =   -1389.25615477 
 Solute Internal Energy (H0)                 =   -1389.24284350 
 Total Free Energy (H0 + V/2 + non-elec)     =   -1389.25615477 hartree
                                             = -871771.39476168 kcal/mol
***********************************************************

 SCF   energy in the final basis set =    -1389.2561547676
 Total energy in the final basis set =    -1389.2561547676


 --------------------------------------------------------------
  Generalized many-body perturbation theory program
  by Joonho Lee, Fazle Rob, Xintian Feng, Evgeny Epifanovsky

 No regularization used 
 (reg. param. = 0.0000e+00)
  (P|Q)^-1/2 Time:  CPU 31.78 s  wall 0.53 s

 In RI-MP2 calculation: 
 # of frozen core orbitals: 22

 Components of the RIMP2 correlation energy:
        aaaa    correlation energy =        -0.3291586250 a.u.
        abab    correlation energy =        -1.8460257054 a.u.
        bbbb    correlation energy =        -0.3291586250 a.u.
        non-Brillouin singles      =        -0.0000000000 a.u.
        total same-spin energy     =        -0.6583172499 a.u.
        total opposite-spin energy =        -1.8460257054 a.u.

 Total  RIMP2   correlation energy =        -2.5043429553 a.u.
        RIMP2         total energy =     -1391.7604977229 a.u.

 RI-MP2 Energy Time:  CPU 206.85 s  wall 3.91 s
 
 --------------------------------------------------------------
 
                    Orbital Energies (a.u.)
 --------------------------------------------------------------
 
 Alpha MOs
 -- Occupied --
-92.0067 -91.9890 -26.3348 -20.6097 -20.5459 -11.4066 -11.3765 -11.3167
-11.2917 -11.2886 -11.2874 -11.2767 -11.2684 -11.2329  -9.0053  -8.9932
 -6.6861  -6.6855  -6.6851  -6.6745  -6.6738  -6.6725  -1.6478  -1.4692
 -1.3641  -1.2266  -1.1459  -1.0677  -1.0267  -1.0066  -0.9678  -0.9116
 -0.8628  -0.7955  -0.7849  -0.7659  -0.7259  -0.7155  -0.6975  -0.6786
 -0.6766  -0.6676  -0.6101  -0.6033  -0.5935  -0.5862  -0.5842  -0.5642
 -0.5419  -0.5236  -0.5073  -0.4887  -0.4786  -0.4633  -0.4593  -0.4566
 -0.3916  -0.3461  -0.2758
 -- Virtual --
  0.0426   0.1223   0.1352   0.1560   0.1593   0.1704   0.1833   0.1984
  0.2057   0.2153   0.2201   0.2238   0.2389   0.2418   0.2665   0.2733
  0.2871   0.3061   0.3176   0.3387   0.3441   0.3582   0.3704   0.3773
  0.3819   0.3889   0.4008   0.4157   0.4183   0.4303   0.4401   0.4446
  0.4619   0.4694   0.4737   0.4870   0.4992   0.5015   0.5176   0.5208
  0.5307   0.5384   0.5520   0.5560   0.5629   0.5665   0.5750   0.5871
  0.5923   0.5962   0.6075   0.6117   0.6151   0.6207   0.6216   0.6292
  0.6406   0.6460   0.6548   0.6601   0.6738   0.6873   0.6929   0.7118
  0.7141   0.7198   0.7353   0.7592   0.7704   0.7851   0.7959   0.8031
  0.8090   0.8137   0.8221   0.8418   0.8619   0.8792   0.8820   0.8928
  0.9004   0.9133   0.9276   0.9303   0.9444   0.9611   0.9686   0.9743
  0.9801   0.9867   1.0051   1.0121   1.0236   1.0321   1.0399   1.0531
  1.0596   1.0741   1.0886   1.0920   1.1005   1.1060   1.1175   1.1349
  1.1502   1.1578   1.1671   1.1739   1.1812   1.1895   1.2036   1.2161
  1.2205   1.2325   1.2406   1.2611   1.2665   1.2869   1.2997   1.3094
  1.3326   1.3430   1.3474   1.3574   1.3646   1.3777   1.3857   1.4014
  1.4148   1.4381   1.4486   1.4755   1.4791   1.4970   1.5052   1.5141
  1.5172   1.5311   1.5418   1.5427   1.5551   1.5640   1.5872   1.6101
  1.6179   1.6435   1.6605   1.6724   1.6809   1.7137   1.7203   1.7381
  1.7558   1.7659   1.7881   1.8164   1.8234   1.8341   1.8467   1.8522
  1.8681   1.8732   1.8898   1.9196   1.9265   1.9391   1.9437   1.9674
  1.9976   2.0264   2.0301   2.0480   2.0587   2.0918   2.1059   2.1353
  2.1451   2.1557   2.1643   2.1783   2.1980   2.2040   2.2208   2.2462
  2.2508   2.2696   2.2819   2.2903   2.3010   2.3231   2.3300   2.3549
  2.3730   2.3845   2.4118   2.4284   2.4640   2.4650   2.4945   2.5021
  2.5308   2.5586   2.5737   2.5828   2.5894   2.6211   2.6248   2.6416
  2.6508   2.6615   2.6735   2.6916   2.6938   2.7087   2.7238   2.7341
  2.7405   2.7567   2.7673   2.7687   2.7851   2.8055   2.8106   2.8155
  2.8399   2.8479   2.8788   2.8892   2.9159   2.9200   2.9253   2.9470
  2.9652   2.9901   3.0014   3.0264   3.0347   3.0446   3.0464   3.0635
  3.0774   3.0903   3.0918   3.1098   3.1205   3.1277   3.1321   3.1610
  3.1692   3.1779   3.2030   3.2123   3.2137   3.2277   3.2447   3.2595
  3.2637   3.2710   3.2846   3.2899   3.2941   3.3004   3.3081   3.3321
  3.3397   3.3458   3.3519   3.3645   3.3766   3.3918   3.3998   3.4056
  3.4260   3.4401   3.4475   3.4523   3.4671   3.4809   3.4946   3.5076
  3.5187   3.5204   3.5322   3.5437   3.5697   3.5742   3.5842   3.5888
  3.5980   3.6037   3.6268   3.6282   3.6467   3.6591   3.6641   3.6697
  3.6873   3.6917   3.7031   3.7099   3.7136   3.7280   3.7316   3.7344
  3.7650   3.7718   3.7806   3.8004   3.8166   3.8273   3.8342   3.8537
  3.8621   3.8638   3.8734   3.8841   3.8994   3.9143   3.9326   3.9480
  3.9592   3.9747   3.9760   3.9896   4.0021   4.0084   4.0480   4.0624
  4.0696   4.0919   4.0964   4.1135   4.1242   4.1287   4.1707   4.1780
  4.1844   4.1947   4.2376   4.2615   4.2872   4.3082   4.3130   4.3483
  4.3534   4.3701   4.3771   4.3803   4.3883   4.4000   4.4203   4.4444
  4.4542   4.4734   4.5007   4.5228   4.5261   4.5469   4.5853   4.5989
  4.6231   4.6424   4.6445   4.6668   4.6718   4.6912   4.7183   4.7402
  4.7496   4.7812   4.7895   4.8011   4.8204   4.8968   4.9039   4.9216
  4.9692   5.0121   5.0187   5.0483   5.0728   5.0877   5.1088   5.1246
  5.1863   5.2090   5.2286   5.2535   5.2603   5.2757   5.2790   5.3476
  5.3565   5.3642   5.4124   5.4253   5.4742   5.4771   5.4916   5.5372
  5.5537   5.5806   5.6173   5.6211   5.6418   5.6759   5.7347   5.8030
  5.8132   5.8262   5.8598   5.8982   5.9230   5.9729   5.9846   6.0131
  6.1019   6.1352   6.1390   6.1872   6.2706   6.3107   6.3698   6.4329
  6.5045   6.5458   6.5592   6.6799   6.6824   6.7409   6.7436   6.8639
  6.8860   6.9946   7.1809   7.2126   7.3298   7.3719   7.3755   7.4302
  7.4649   7.4859   7.5194   7.5515   7.6198   7.7692   7.8340   7.9145
  8.0007   8.1221   8.4657   8.9272   9.0067   9.3622   9.4973   9.6911
 10.0775  11.2221  11.5587  11.9350  12.3177  12.7097  13.1738  13.5926
 13.8400  14.0771  14.7592
 --------------------------------------------------------------
 
          Ground-State Mulliken Net Atomic Charges

     Atom                 Charge (a.u.)
  ----------------------------------------
      1 C                     0.056139
      2 S                     0.083552
      3 C                    -0.272248
      4 C                    -0.104160
      5 C                    -0.008462
      6 C                     0.390935
      7 C                    -0.165556
      8 S                     0.025330
      9 C                     0.459412
     10 O                    -0.458111
     11 O                    -0.298833
     12 F                    -0.214487
     13 C                    -0.055004
     14 H                     0.116082
     15 H                     0.083652
     16 H                     0.083639
     17 C                    -0.377936
     18 H                     0.134744
     19 H                     0.163289
     20 H                     0.148522
     21 H                     0.209503
  ----------------------------------------
  Sum of atomic charges =     0.000000

 -----------------------------------------------------------------
                    Cartesian Multipole Moments
 -----------------------------------------------------------------
    Charge (ESU x 10^10)
                -0.0000
    Dipole Moment (Debye)
         X      -0.5672      Y       0.4898      Z       3.2482
       Tot       3.3336
    Quadrupole Moments (Debye-Ang)
        XX     -96.3069     XY       1.4442     YY     -81.8804
        XZ      -0.9450     YZ     -11.3140     ZZ     -97.6001
    Octopole Moments (Debye-Ang^2)
       XXX       0.1688    XXY     -85.2413    XYY      -2.5748
       YYY    -235.0799    XXZ      79.6405    XYZ       2.4162
       YYZ      62.7368    XZZ      -0.8978    YZZ       7.7999
       ZZZ     258.7167
    Hexadecapole Moments (Debye-Ang^3)
      XXXX    -119.8307   XXXY      -4.1691   XXYY    -348.4068
      XYYY       2.4332   YYYY   -1772.7577   XXXZ       5.3208
      XXYZ     249.0804   XYYZ      -6.9766   YYYZ     645.5166
      XXZZ    -678.7083   XYZZ       4.9173   YYZZ    -689.3981
      XZZZ       2.1619   YZZZ     338.0382   ZZZZ   -3804.4698
 -----------------------------------------------------------------
 Total job time:  56.37s(wall), 2031.35s(cpu) 
 Sun Sep 24 16:57:14 2023

        *************************************************************
        *                                                           *
        *  Thank you very much for using Q-Chem.  Have a nice day.  *
        *                                                           *
        *************************************************************


0 sent ACK to 0 
now end server 0 ... 
cleanup process ... done
remove work dirs ./qchem2013487.0 -- ./qchem2013487.0
rm -rf ./qchem2013487.0
rm -rf ./qchem2013487
